<event>
 4    1  0.4382184E+000  0.1989171E+03  0.7546771E-02  0.1150656E+00
         21   -1    0    0  501  502  0.00000000000E+00  0.00000000000E+00  0.83875757243E+03  0.83875757243E+03  0.00000000000E+00 0.  1.
         21   -1    0    0  502  503 -0.00000000000E+00 -0.00000000000E+00 -0.82553766643E+02  0.82553766643E+02  0.00000000000E+00 0.  1.
          6    1    1    2  501    0 -0.66701843232E+02  0.72040829189E+02  0.67966766778E+03  0.70817805359E+03  0.17300000000E+03 0.  1.
         -6    1    1    2    0  503  0.66701843232E+02 -0.72040829189E+02  0.76536138012E+02  0.21313328549E+03  0.17300000000E+03 0.  1.
<mgrwt>
<rscale>  2 0.19891711E+03</rscale>
<asrwt>0</asrwt>
<pdfrwt beam="1">  1       21 0.12903962E+00 0.19891711E+03</pdfrwt>
<pdfrwt beam="2">  1       21 0.12700580E-01 0.19891711E+03</pdfrwt>
<totfact> 0.23252272E+04</totfact>
</mgrwt>
</event>
<event>
 4    1  0.4382184E+000  0.2438756E+03  0.7546771E-02  0.1117238E+00
         21   -1    0    0  501  502  0.00000000000E+00  0.00000000000E+00  0.35805411442E+03  0.35805411442E+03  0.00000000000E+00 0.  1.
         21   -1    0    0  502  503 -0.00000000000E+00 -0.00000000000E+00 -0.22178709117E+03  0.22178709117E+03  0.00000000000E+00 0.  1.
          6    1    1    2  501    0 -0.14094605139E+03 -0.98389744015E+02  0.21339835475E+03  0.32405892819E+03  0.17300000000E+03 0.  1.
         -6    1    1    2    0  503  0.14094605139E+03  0.98389744015E+02 -0.77131331504E+02  0.25578227739E+03  0.17300000000E+03 0.  1.
<mgrwt>
<rscale>  2 0.24387565E+03</rscale>
<asrwt>0</asrwt>
<pdfrwt beam="1">  1       21 0.55085248E-01 0.24387565E+03</pdfrwt>
<pdfrwt beam="2">  1       21 0.34121091E-01 0.24387565E+03</pdfrwt>
<totfact> 0.25044076E+04</totfact>
</mgrwt>
</event>
<event>
 4    1  0.4382184E+000  0.2062924E+03  0.7546771E-02  0.1144536E+00
         21   -1    0    0  503  502  0.00000000000E+00  0.00000000000E+00  0.75107275414E+02  0.75107275414E+02  0.00000000000E+00 0. -1.
         21   -1    0    0  501  503 -0.00000000000E+00 -0.00000000000E+00 -0.11940915634E+04  0.11940915634E+04  0.00000000000E+00 0. -1.
          6    1    1    2  501    0  0.79507795144E+02 -0.79410612042E+02 -0.10195170377E+04  0.10401786025E+04  0.17300000000E+03 0. -1.
         -6    1    1    2    0  502 -0.79507795144E+02  0.79410612042E+02 -0.99467250283E+02  0.22902023638E+03  0.17300000000E+03 0. -1.
<mgrwt>
<rscale>  2 0.20629235E+03</rscale>
<asrwt>0</asrwt>
<pdfrwt beam="1">  1       21 0.11554966E-01 0.20629235E+03</pdfrwt>
<pdfrwt beam="2">  1       21 0.18370638E+00 0.20629235E+03</pdfrwt>
<totfact> 0.10666726E+04</totfact>
</mgrwt>
</event>
<event>
 4    1  0.4382184E+000  0.2251062E+03  0.7546771E-02  0.1130132E+00
         21   -1    0    0  503  502  0.00000000000E+00  0.00000000000E+00  0.15788796155E+03  0.15788796155E+03  0.00000000000E+00 0. -1.
         21   -1    0    0  501  503 -0.00000000000E+00 -0.00000000000E+00 -0.32102900108E+03  0.32102900108E+03  0.00000000000E+00 0. -1.
          6    1    1    2  501    0 -0.98660273709E+01 -0.14368882128E+03 -0.85521483152E+02  0.24080436030E+03  0.17300000000E+03 0. -1.
         -6    1    1    2    0  502  0.98660273709E+01  0.14368882128E+03 -0.77619556386E+02  0.23811260233E+03  0.17300000000E+03 0. -1.
<mgrwt>
<rscale>  2 0.22510623E+03</rscale>
<asrwt>0</asrwt>
<pdfrwt beam="1">  1       21 0.24290456E-01 0.22510623E+03</pdfrwt>
<pdfrwt beam="2">  1       21 0.49389076E-01 0.22510623E+03</pdfrwt>
<totfact> 0.61656130E+04</totfact>
</mgrwt>
</event>
<event>
 4    1  0.4382184E+000  0.2057897E+03  0.7546771E-02  0.1144944E+00
         21   -1    0    0  503  502  0.00000000000E+00  0.00000000000E+00  0.20607005516E+03  0.20607005516E+03  0.00000000000E+00 0. -1.
         21   -1    0    0  501  503 -0.00000000000E+00 -0.00000000000E+00 -0.21135600988E+03  0.21135600988E+03  0.00000000000E+00 0.  1.
          6    1    1    2  501    0 -0.10291648891E+03  0.42762280063E+02 -0.37354957230E+02  0.20915259768E+03  0.17300000000E+03 0. -1.
         -6    1    1    2    0  502  0.10291648891E+03 -0.42762280063E+02  0.32069002505E+02  0.20827346736E+03  0.17300000000E+03 0. -1.
<mgrwt>
<rscale>  2 0.20578974E+03</rscale>
<asrwt>0</asrwt>
<pdfrwt beam="1">  1       21 0.31703086E-01 0.20578974E+03</pdfrwt>
<pdfrwt beam="2">  1       21 0.32516309E-01 0.20578974E+03</pdfrwt>
<totfact> 0.86583276E+04</totfact>
</mgrwt>
</event>
<event>
 4    1  0.4382184E+000  0.1731692E+03  0.7546771E-02  0.1174583E+00
         21   -1    0    0  501  502  0.00000000000E+00  0.00000000000E+00  0.89802508345E+02  0.89802508345E+02  0.00000000000E+00 0.  1.
         21   -1    0    0  502  503 -0.00000000000E+00 -0.00000000000E+00 -0.68648691204E+03  0.68648691204E+03  0.00000000000E+00 0.  1.
          6    1    1    2  501    0 -0.72660510654E+01  0.23998877712E+01 -0.20182951986E+02  0.17434135055E+03  0.17300000000E+03 0.  1.
         -6    1    1    2    0  503  0.72660510654E+01 -0.23998877712E+01 -0.57650145171E+03  0.60194806984E+03  0.17300000000E+03 0.  1.
<mgrwt>
<rscale>  2 0.17316915E+03</rscale>
<asrwt>0</asrwt>
<pdfrwt beam="1">  1       21 0.13815770E-01 0.17316915E+03</pdfrwt>
<pdfrwt beam="2">  1       21 0.10561338E+00 0.17316915E+03</pdfrwt>
<totfact> 0.33176081E+04</totfact>
</mgrwt>
</event>
<event>
 4    1  0.4382184E+000  0.2466920E+03  0.7546771E-02  0.1115413E+00
         21   -1    0    0  501  502  0.00000000000E+00  0.00000000000E+00  0.39942201581E+03  0.39942201581E+03  0.00000000000E+00 0.  1.
         21   -1    0    0  502  503 -0.00000000000E+00 -0.00000000000E+00 -0.80703345683E+03  0.80703345683E+03  0.00000000000E+00 0. -1.
          6    1    1    2  501    0  0.10064593593E+03  0.14421629834E+03  0.33950348424E+03  0.41966601118E+03  0.17300000000E+03 0.  1.
         -6    1    1    2    0  503 -0.10064593593E+03 -0.14421629834E+03 -0.74711492526E+03  0.78678946147E+03  0.17300000000E+03 0. -1.
<mgrwt>
<rscale>  2 0.24669200E+03</rscale>
<asrwt>0</asrwt>
<pdfrwt beam="1">  1       21 0.61449541E-01 0.24669200E+03</pdfrwt>
<pdfrwt beam="2">  1       21 0.12415899E+00 0.24669200E+03</pdfrwt>
<totfact> 0.11373651E+03</totfact>
</mgrwt>
</event>
<event>
 4    1  0.4382184E+000  0.1866123E+03  0.7546771E-02  0.1161553E+00
         21   -1    0    0  501  502  0.00000000000E+00  0.00000000000E+00  0.84476317967E+02  0.84476317967E+02  0.00000000000E+00 0. -1.
         21   -1    0    0  502  503 -0.00000000000E+00 -0.00000000000E+00 -0.45677834698E+03  0.45677834698E+03  0.00000000000E+00 0. -1.
          6    1    1    2  501    0  0.40567450988E+02 -0.57003710936E+02 -0.10164110054E+03  0.21249718694E+03  0.17300000000E+03 0. -1.
         -6    1    1    2    0  503 -0.40567450988E+02  0.57003710936E+02 -0.27066092848E+03  0.32875747800E+03  0.17300000000E+03 0. -1.
<mgrwt>
<rscale>  2 0.18661227E+03</rscale>
<asrwt>0</asrwt>
<pdfrwt beam="1">  1       21 0.12996357E-01 0.18661227E+03</pdfrwt>
<pdfrwt beam="2">  1       21 0.70273591E-01 0.18661227E+03</pdfrwt>
<totfact> 0.93648714E+04</totfact>
</mgrwt>
</event>
<event>
 4    1  0.4382184E+000  0.1798608E+03  0.7546771E-02  0.1167938E+00
         21   -1    0    0  501  502  0.00000000000E+00  0.00000000000E+00  0.55028307236E+03  0.55028307236E+03  0.00000000000E+00 0.  1.
         21   -1    0    0  502  503 -0.00000000000E+00 -0.00000000000E+00 -0.24193620375E+03  0.24193620375E+03  0.00000000000E+00 0.  1.
          6    1    1    2  501    0  0.44797459970E+02  0.20349012542E+02  0.49881418398E+03  0.53025039828E+03  0.17300000000E+03 0.  1.
         -6    1    1    2    0  503 -0.44797459970E+02 -0.20349012542E+02 -0.19046731537E+03  0.26196887784E+03  0.17300000000E+03 0.  1.
<mgrwt>
<rscale>  2 0.17986076E+03</rscale>
<asrwt>0</asrwt>
<pdfrwt beam="1">  1       21 0.84658934E-01 0.17986076E+03</pdfrwt>
<pdfrwt beam="2">  1       21 0.37220955E-01 0.17986076E+03</pdfrwt>
<totfact> 0.84970500E+03</totfact>
</mgrwt>
</event>
<event>
 4    1  0.4382184E+000  0.1999798E+03  0.7546771E-02  0.1149756E+00
         21   -1    0    0  503  502  0.00000000000E+00  0.00000000000E+00  0.11763164205E+04  0.11763164205E+04  0.00000000000E+00 0.  1.
         21   -1    0    0  501  503 -0.00000000000E+00 -0.00000000000E+00 -0.54932713396E+02  0.54932713396E+02  0.00000000000E+00 0.  1.
          6    1    1    2  501    0 -0.22867644999E+02 -0.97672799630E+02  0.18064394984E+03  0.26948866690E+03  0.17300000000E+03 0.  1.
         -6    1    1    2    0  502  0.22867644999E+02  0.97672799630E+02  0.94073975724E+03  0.96176046697E+03  0.17300000000E+03 0.  1.
<mgrwt>
<rscale>  2 0.19997976E+03</rscale>
<asrwt>0</asrwt>
<pdfrwt beam="1">  1       21 0.18097174E+00 0.19997976E+03</pdfrwt>
<pdfrwt beam="2">  1       21 0.84511875E-02 0.19997976E+03</pdfrwt>
<totfact> 0.19440120E+04</totfact>
</mgrwt>
</event>
<event>
 4    1  0.4382184E+000  0.2086237E+03  0.7546771E-02  0.1142661E+00
         21   -1    0    0  501  502  0.00000000000E+00  0.00000000000E+00  0.19135105980E+03  0.19135105980E+03  0.00000000000E+00 0. -1.
         21   -1    0    0  502  503 -0.00000000000E+00 -0.00000000000E+00 -0.26532009653E+03  0.26532009653E+03  0.00000000000E+00 0. -1.
          6    1    1    2  501    0 -0.62948953096E+02  0.98144181976E+02  0.49274631736E+02  0.21436380404E+03  0.17300000000E+03 0. -1.
         -6    1    1    2    0  503  0.62948953096E+02 -0.98144181976E+02 -0.12324366847E+03  0.24230735228E+03  0.17300000000E+03 0. -1.
<mgrwt>
<rscale>  2 0.20862371E+03</rscale>
<asrwt>0</asrwt>
<pdfrwt beam="1">  1       21 0.29438625E-01 0.20862371E+03</pdfrwt>
<pdfrwt beam="2">  1       21 0.40818476E-01 0.20862371E+03</pdfrwt>
<totfact> 0.63455416E+04</totfact>
</mgrwt>
</event>
<event>
 4    1  0.4382184E+000  0.2048472E+03  0.7546771E-02  0.1145713E+00
         21   -1    0    0  501  502  0.00000000000E+00  0.00000000000E+00  0.16658559937E+04  0.16658559937E+04  0.00000000000E+00 0. -1.
         21   -1    0    0  502  503 -0.00000000000E+00 -0.00000000000E+00 -0.41866645534E+02  0.41866645534E+02  0.00000000000E+00 0. -1.
          6    1    1    2  501    0 -0.10776123167E+03 -0.20515503387E+02  0.13508992298E+04  0.13663422331E+04  0.17300000000E+03 0. -1.
         -6    1    1    2    0  503  0.10776123167E+03  0.20515503387E+02  0.27309011837E+03  0.34138040611E+03  0.17300000000E+03 0. -1.
<mgrwt>
<rscale>  2 0.20484718E+03</rscale>
<asrwt>0</asrwt>
<pdfrwt beam="1">  1       21 0.25628549E+00 0.20484718E+03</pdfrwt>
<pdfrwt beam="2">  1       21 0.64410237E-02 0.20484718E+03</pdfrwt>
<totfact> 0.10542156E+04</totfact>
</mgrwt>
</event>
<event>
 4    1  0.4382184E+000  0.2930385E+03  0.7546771E-02  0.1088773E+00
         21   -1    0    0  501  502  0.00000000000E+00  0.00000000000E+00  0.36551120021E+03  0.36551120021E+03  0.00000000000E+00 0. -1.
         21   -1    0    0  502  503 -0.00000000000E+00 -0.00000000000E+00 -0.11444661654E+04  0.11444661654E+04  0.00000000000E+00 0.  1.
          6    1    1    2  501    0  0.12081245340E+03 -0.20333944661E+03  0.28357297036E+03  0.40778083447E+03  0.17300000000E+03 0. -1.
         -6    1    1    2    0  503 -0.12081245340E+03  0.20333944661E+03 -0.10625279356E+04  0.11021965311E+04  0.17300000000E+03 0.  1.
<mgrwt>
<rscale>  2 0.29303853E+03</rscale>
<asrwt>0</asrwt>
<pdfrwt beam="1">  1       21 0.56232493E-01 0.29303853E+03</pdfrwt>
<pdfrwt beam="2">  1       21 0.17607172E+00 0.29303853E+03</pdfrwt>
<totfact> 0.52392476E+02</totfact>
</mgrwt>
</event>
<event>
 4    1  0.4382184E+000  0.2481134E+03  0.7546771E-02  0.1114503E+00
         21   -1    0    0  503  502  0.00000000000E+00  0.00000000000E+00  0.16588197949E+03  0.16588197949E+03  0.00000000000E+00 0. -1.
         21   -1    0    0  501  503 -0.00000000000E+00 -0.00000000000E+00 -0.65613760774E+03  0.65613760774E+03  0.00000000000E+00 0. -1.
          6    1    1    2  501    0 -0.12761745038E+03 -0.12387512462E+03 -0.51602163153E+03  0.57257190321E+03  0.17300000000E+03 0. -1.
         -6    1    1    2    0  502  0.12761745038E+03  0.12387512462E+03  0.25766003277E+02  0.24944768403E+03  0.17300000000E+03 0. -1.
<mgrwt>
<rscale>  2 0.24811340E+03</rscale>
<asrwt>0</asrwt>
<pdfrwt beam="1">  1       21 0.25520304E-01 0.24811340E+03</pdfrwt>
<pdfrwt beam="2">  1       21 0.10094425E+00 0.24811340E+03</pdfrwt>
<totfact> 0.11290311E+04</totfact>
</mgrwt>
</event>
<event>
 4    1  0.4382184E+000  0.2172808E+03  0.7546771E-02  0.1135927E+00
         21   -1    0    0  503  502  0.00000000000E+00  0.00000000000E+00  0.71060502487E+02  0.71060502487E+02  0.00000000000E+00 0.  1.
         21   -1    0    0  501  503 -0.00000000000E+00 -0.00000000000E+00 -0.94635887919E+03  0.94635887919E+03  0.00000000000E+00 0. -1.
          6    1    1    2  501    0  0.10612480290E+03  0.77585217580E+02 -0.71533451864E+03  0.74760578739E+03  0.17300000000E+03 0. -1.
         -6    1    1    2    0  502 -0.10612480290E+03 -0.77585217580E+02 -0.15996385806E+03  0.26981359429E+03  0.17300000000E+03 0.  1.
<mgrwt>
<rscale>  2 0.21728079E+03</rscale>
<asrwt>0</asrwt>
<pdfrwt beam="1">  1       21 0.10932386E-01 0.21728079E+03</pdfrwt>
<pdfrwt beam="2">  1       21 0.14559367E+00 0.21728079E+03</pdfrwt>
<totfact> 0.22044138E+04</totfact>
</mgrwt>
</event>
<event>
 4    1  0.4382184E+000  0.2124138E+03  0.7546771E-02  0.1139669E+00
         21   -1    0    0  503  502  0.00000000000E+00  0.00000000000E+00  0.19202835259E+03  0.19202835259E+03  0.00000000000E+00 0.  1.
         21   -1    0    0  501  503 -0.00000000000E+00 -0.00000000000E+00 -0.27781783401E+03  0.27781783401E+03  0.00000000000E+00 0. -1.
          6    1    1    2  501    0 -0.10699329963E+02  0.12278498925E+03 -0.13516116151E+03  0.25177007135E+03  0.17300000000E+03 0. -1.
         -6    1    1    2    0  502  0.10699329963E+02 -0.12278498925E+03  0.49371680089E+02  0.21807611525E+03  0.17300000000E+03 0.  1.
<mgrwt>
<rscale>  2 0.21241382E+03</rscale>
<asrwt>0</asrwt>
<pdfrwt beam="1">  1       21 0.29542824E-01 0.21241382E+03</pdfrwt>
<pdfrwt beam="2">  1       21 0.42741205E-01 0.21241382E+03</pdfrwt>
<totfact> 0.57282804E+04</totfact>
</mgrwt>
</event>
<event>
 4    1  0.4382184E+000  0.2029524E+03  0.7546771E-02  0.1147272E+00
         21   -1    0    0  501  502  0.00000000000E+00  0.00000000000E+00  0.22243883918E+03  0.22243883918E+03  0.00000000000E+00 0. -1.
         21   -1    0    0  502  503 -0.00000000000E+00 -0.00000000000E+00 -0.20096250337E+03  0.20096250337E+03  0.00000000000E+00 0. -1.
          6    1    1    2  501    0  0.65246691261E+02 -0.83687282269E+02  0.70078151650E+02  0.21471059423E+03  0.17300000000E+03 0. -1.
         -6    1    1    2    0  503 -0.65246691261E+02  0.83687282269E+02 -0.48601815844E+02  0.20869074833E+03  0.17300000000E+03 0. -1.
<mgrwt>
<rscale>  2 0.20295244E+03</rscale>
<asrwt>0</asrwt>
<pdfrwt beam="1">  1       21 0.34221360E-01 0.20295244E+03</pdfrwt>
<pdfrwt beam="2">  1       21 0.30917308E-01 0.20295244E+03</pdfrwt>
<totfact> 0.82312509E+04</totfact>
</mgrwt>
</event>
<event>
 4    1  0.4382184E+000  0.2055556E+03  0.7546771E-02  0.1145135E+00
         21   -1    0    0  501  502  0.00000000000E+00  0.00000000000E+00  0.22202662039E+03  0.22202662039E+03  0.00000000000E+00 0.  1.
         21   -1    0    0  502  503 -0.00000000000E+00 -0.00000000000E+00 -0.19420776501E+03  0.19420776501E+03  0.00000000000E+00 0. -1.
          6    1    1    2  501    0 -0.10271029641E+03 -0.42127373758E+02  0.43406199501E+02  0.21008859741E+03  0.17300000000E+03 0.  1.
         -6    1    1    2    0  503  0.10271029641E+03  0.42127373758E+02 -0.15587344127E+02  0.20614578799E+03  0.17300000000E+03 0. -1.
<mgrwt>
<rscale>  2 0.20555564E+03</rscale>
<asrwt>0</asrwt>
<pdfrwt beam="1">  1       21 0.34157942E-01 0.20555564E+03</pdfrwt>
<pdfrwt beam="2">  1       21 0.29878117E-01 0.20555564E+03</pdfrwt>
<totfact> 0.88229491E+04</totfact>
</mgrwt>
</event>
<event>
 4    1  0.4382184E+000  0.1769581E+03  0.7546771E-02  0.1170780E+00
         21   -1    0    0  501  502  0.00000000000E+00  0.00000000000E+00  0.29740456170E+03  0.29740456170E+03  0.00000000000E+00 0. -1.
         21   -1    0    0  502  503 -0.00000000000E+00 -0.00000000000E+00 -0.10811651307E+03  0.10811651307E+03  0.00000000000E+00 0. -1.
          6    1    1    2  501    0 -0.16746862151E+02 -0.33236955773E+02  0.12741978373E+03  0.21805951918E+03  0.17300000000E+03 0. -1.
         -6    1    1    2    0  503  0.16746862151E+02  0.33236955773E+02  0.61868264904E+02  0.18746155559E+03  0.17300000000E+03 0. -1.
<mgrwt>
<rscale>  2 0.17695805E+03</rscale>
<asrwt>0</asrwt>
<pdfrwt beam="1">  1       21 0.45754548E-01 0.17695805E+03</pdfrwt>
<pdfrwt beam="2">  1       21 0.16633310E-01 0.17695805E+03</pdfrwt>
<totfact> 0.14946869E+05</totfact>
</mgrwt>
</event>
<event>
 4    1  0.4382184E+000  0.1865541E+03  0.7546771E-02  0.1161607E+00
         21   -1    0    0  503  502  0.00000000000E+00  0.00000000000E+00  0.32647964220E+03  0.32647964220E+03  0.00000000000E+00 0.  1.
         21   -1    0    0  501  503 -0.00000000000E+00 -0.00000000000E+00 -0.21596967009E+03  0.21596967009E+03  0.00000000000E+00 0.  1.
          6    1    1    2  501    0  0.30066631989E+02  0.63003443121E+02 -0.13775644097E+03  0.23190358607E+03  0.17300000000E+03 0.  1.
         -6    1    1    2    0  502 -0.30066631989E+02 -0.63003443121E+02  0.24826641309E+03  0.31054572622E+03  0.17300000000E+03 0.  1.
<mgrwt>
<rscale>  2 0.18655411E+03</rscale>
<asrwt>0</asrwt>
<pdfrwt beam="1">  1       21 0.50227637E-01 0.18655411E+03</pdfrwt>
<pdfrwt beam="2">  1       21 0.33226103E-01 0.18655411E+03</pdfrwt>
<totfact> 0.33027888E+04</totfact>
</mgrwt>
</event>
<event>
 4    1  0.4382184E+000  0.1879858E+03  0.7546771E-02  0.1160291E+00
         21   -1    0    0  501  502  0.00000000000E+00  0.00000000000E+00  0.63555951197E+02  0.63555951197E+02  0.00000000000E+00 0.  1.
         21   -1    0    0  502  503 -0.00000000000E+00 -0.00000000000E+00 -0.98977272410E+03  0.98977272410E+03  0.00000000000E+00 0.  1.
          6    1    1    2  501    0 -0.22360658214E+02 -0.70068912753E+02 -0.11446202325E+03  0.22009135907E+03  0.17300000000E+03 0.  1.
         -6    1    1    2    0  503  0.22360658214E+02  0.70068912753E+02 -0.81175474965E+03  0.83323731623E+03  0.17300000000E+03 0.  1.
<mgrwt>
<rscale>  2 0.18798577E+03</rscale>
<asrwt>0</asrwt>
<pdfrwt beam="1">  1       21 0.97778390E-02 0.18798577E+03</pdfrwt>
<pdfrwt beam="2">  1       21 0.15227272E+00 0.18798577E+03</pdfrwt>
<totfact> 0.24328005E+04</totfact>
</mgrwt>
</event>
<event>
 4    1  0.4382184E+000  0.1775395E+03  0.7546771E-02  0.1170206E+00
         21   -1    0    0  503  502  0.00000000000E+00  0.00000000000E+00  0.68758258999E+03  0.68758258999E+03  0.00000000000E+00 0. -1.
         21   -1    0    0  501  503 -0.00000000000E+00 -0.00000000000E+00 -0.47964771921E+02  0.47964771921E+02  0.00000000000E+00 0. -1.
          6    1    1    2  501    0  0.37876313101E+02  0.12516383418E+02  0.24244218957E+03  0.30049707192E+03  0.17300000000E+03 0. -1.
         -6    1    1    2    0  502 -0.37876313101E+02 -0.12516383418E+02  0.39717562851E+03  0.43505029000E+03  0.17300000000E+03 0. -1.
<mgrwt>
<rscale>  2 0.17753950E+03</rscale>
<asrwt>0</asrwt>
<pdfrwt beam="1">  1       21 0.10578193E+00 0.17753950E+03</pdfrwt>
<pdfrwt beam="2">  1       21 0.73791962E-02 0.17753950E+03</pdfrwt>
<totfact> 0.99725974E+04</totfact>
</mgrwt>
</event>
<event>
 4    1  0.4382184E+000  0.2080696E+03  0.7546771E-02  0.1143104E+00
         21   -1    0    0  503  502  0.00000000000E+00  0.00000000000E+00  0.75214589868E+03  0.75214589868E+03  0.00000000000E+00 0. -1.
         21   -1    0    0  501  503 -0.00000000000E+00 -0.00000000000E+00 -0.76749915002E+02  0.76749915002E+02  0.00000000000E+00 0. -1.
          6    1    1    2  501    0  0.93220167278E+02  0.68366214219E+02  0.13045672587E+03  0.24558480441E+03  0.17300000000E+03 0. -1.
         -6    1    1    2    0  502 -0.93220167278E+02 -0.68366214219E+02  0.54493925780E+03  0.58331100927E+03  0.17300000000E+03 0. -1.
<mgrwt>
<rscale>  2 0.20806955E+03</rscale>
<asrwt>0</asrwt>
<pdfrwt beam="1">  1       21 0.11571475E+00 0.20806955E+03</pdfrwt>
<pdfrwt beam="2">  1       21 0.11807680E-01 0.20806955E+03</pdfrwt>
<totfact> 0.34577092E+04</totfact>
</mgrwt>
</event>
<event>
 4    1  0.4382184E+000  0.2642704E+03  0.7546771E-02  0.1104604E+00
         21   -1    0    0  501  502  0.00000000000E+00  0.00000000000E+00  0.10678890363E+03  0.10678890363E+03  0.00000000000E+00 0.  1.
         21   -1    0    0  502  503 -0.00000000000E+00 -0.00000000000E+00 -0.76824532347E+03  0.76824532347E+03  0.00000000000E+00 0. -1.
          6    1    1    2  501    0 -0.43865806046E+02  0.19489899368E+03 -0.16200137252E+03  0.30997301717E+03  0.17300000000E+03 0.  1.
         -6    1    1    2    0  503  0.43865806046E+02 -0.19489899368E+03 -0.49945504732E+03  0.56506120993E+03  0.17300000000E+03 0. -1.
<mgrwt>
<rscale>  2 0.26427037E+03</rscale>
<asrwt>0</asrwt>
<pdfrwt beam="1">  1       21 0.16429062E-01 0.26427037E+03</pdfrwt>
<pdfrwt beam="2">  1       21 0.11819159E+00 0.26427037E+03</pdfrwt>
<totfact> 0.17480066E+04</totfact>
</mgrwt>
</event>
<event>
 4    1  0.4382184E+000  0.2137001E+03  0.7546771E-02  0.1138669E+00
         21   -1    0    0  501  502  0.00000000000E+00  0.00000000000E+00  0.23727981983E+03  0.23727981983E+03  0.00000000000E+00 0.  1.
         21   -1    0    0  502  503 -0.00000000000E+00 -0.00000000000E+00 -0.22194757636E+03  0.22194757636E+03  0.00000000000E+00 0. -1.
          6    1    1    2  501    0  0.73902390285E+02 -0.10137645449E+03 -0.76022223598E+02  0.22681959196E+03  0.17300000000E+03 0. -1.
         -6    1    1    2    0  503 -0.73902390285E+02  0.10137645449E+03  0.91354467068E+02  0.23240780423E+03  0.17300000000E+03 0.  1.
<mgrwt>
<rscale>  2 0.21370014E+03</rscale>
<asrwt>0</asrwt>
<pdfrwt beam="1">  1       21 0.36504588E-01 0.21370014E+03</pdfrwt>
<pdfrwt beam="2">  1       21 0.34145781E-01 0.21370014E+03</pdfrwt>
<totfact> 0.59235024E+04</totfact>
</mgrwt>
</event>
<event>
 4    1  0.4382184E+000  0.2028646E+03  0.7546771E-02  0.1147344E+00
         21   -1    0    0  501  502  0.00000000000E+00  0.00000000000E+00  0.65819257438E+03  0.65819257438E+03  0.00000000000E+00 0. -1.
         21   -1    0    0  502  503 -0.00000000000E+00 -0.00000000000E+00 -0.10367601686E+03  0.10367601686E+03  0.00000000000E+00 0. -1.
          6    1    1    2  501    0 -0.73639442712E+02  0.76172773195E+02  0.51725021665E+03  0.55560943614E+03  0.17300000000E+03 0. -1.
         -6    1    1    2    0  503  0.73639442712E+02 -0.76172773195E+02  0.37266340866E+02  0.20625915510E+03  0.17300000000E+03 0. -1.
<mgrwt>
<rscale>  2 0.20286463E+03</rscale>
<asrwt>0</asrwt>
<pdfrwt beam="1">  1       21 0.10126039E+00 0.20286463E+03</pdfrwt>
<pdfrwt beam="2">  1       21 0.15950157E-01 0.20286463E+03</pdfrwt>
<totfact> 0.27777637E+04</totfact>
</mgrwt>
</event>
<event>
 4    1  0.4382184E+000  0.1908267E+03  0.7546771E-02  0.1157718E+00
         21   -1    0    0  503  502  0.00000000000E+00  0.00000000000E+00  0.21762114735E+03  0.21762114735E+03  0.00000000000E+00 0.  1.
         21   -1    0    0  501  503 -0.00000000000E+00 -0.00000000000E+00 -0.20632357397E+03  0.20632357397E+03  0.00000000000E+00 0.  1.
          6    1    1    2  501    0  0.66980482209E+02  0.44714994417E+02 -0.86501023379E+02  0.20951668852E+03  0.17300000000E+03 0.  1.
         -6    1    1    2    0  502 -0.66980482209E+02 -0.44714994417E+02  0.97798596763E+02  0.21442803280E+03  0.17300000000E+03 0.  1.
<mgrwt>
<rscale>  2 0.19082666E+03</rscale>
<asrwt>0</asrwt>
<pdfrwt beam="1">  1       21 0.33480177E-01 0.19082666E+03</pdfrwt>
<pdfrwt beam="2">  1       21 0.31742088E-01 0.19082666E+03</pdfrwt>
<totfact> 0.82055821E+04</totfact>
</mgrwt>
</event>
<event>
 4    1  0.4382184E+000  0.2004702E+03  0.7546771E-02  0.1149343E+00
         21   -1    0    0  503  502  0.00000000000E+00  0.00000000000E+00  0.14764125646E+03  0.14764125646E+03  0.00000000000E+00 0. -1.
         21   -1    0    0  501  503 -0.00000000000E+00 -0.00000000000E+00 -0.61545507956E+03  0.61545507956E+03  0.00000000000E+00 0. -1.
          6    1    1    2  501    0 -0.91261178099E+02  0.43939922372E+02 -0.51884997951E+03  0.55623162499E+03  0.17300000000E+03 0. -1.
         -6    1    1    2    0  502  0.91261178099E+02 -0.43939922372E+02  0.51036156408E+02  0.20686471102E+03  0.17300000000E+03 0. -1.
<mgrwt>
<rscale>  2 0.20047025E+03</rscale>
<asrwt>0</asrwt>
<pdfrwt beam="1">  1       21 0.22714039E-01 0.20047025E+03</pdfrwt>
<pdfrwt beam="2">  1       21 0.94685398E-01 0.20047025E+03</pdfrwt>
<totfact> 0.16881620E+04</totfact>
</mgrwt>
</event>
<event>
 4    1  0.4382184E+000  0.1988609E+03  0.7546771E-02  0.1150704E+00
         21   -1    0    0  501  502  0.00000000000E+00  0.00000000000E+00  0.51659926964E+02  0.51659926964E+02  0.00000000000E+00 0. -1.
         21   -1    0    0  502  503 -0.00000000000E+00 -0.00000000000E+00 -0.20715632508E+04  0.20715632508E+04  0.00000000000E+00 0.  1.
          6    1    1    2  501    0  0.77662457128E+02 -0.59876473714E+02 -0.16700763772E+03  0.25968673514E+03  0.17300000000E+03 0. -1.
         -6    1    1    2    0  503 -0.77662457128E+02  0.59876473714E+02 -0.18528956861E+04  0.18635364426E+04  0.17300000000E+03 0.  1.
<mgrwt>
<rscale>  2 0.19886088E+03</rscale>
<asrwt>0</asrwt>
<pdfrwt beam="1">  1       21 0.79476830E-02 0.19886088E+03</pdfrwt>
<pdfrwt beam="2">  1       21 0.31870196E+00 0.19886088E+03</pdfrwt>
<totfact> 0.32075319E+03</totfact>
</mgrwt>
</event>
<event>
 4    1  0.4382184E+000  0.3301542E+03  0.7546771E-02  0.1071069E+00
         21   -1    0    0  501  502  0.00000000000E+00  0.00000000000E+00  0.17406942677E+04  0.17406942677E+04  0.00000000000E+00 0. -1.
         21   -1    0    0  502  503 -0.00000000000E+00 -0.00000000000E+00 -0.11981406722E+03  0.11981406722E+03  0.00000000000E+00 0.  1.
          6    1    1    2  501    0  0.26599400941E+03  0.91213759725E+02  0.14531638177E+04  0.14901969146E+04  0.17300000000E+03 0. -1.
         -6    1    1    2    0  503 -0.26599400941E+03 -0.91213759725E+02  0.16771638273E+03  0.37031142035E+03  0.17300000000E+03 0.  1.
<mgrwt>
<rscale>  2 0.33015415E+03</rscale>
<asrwt>0</asrwt>
<pdfrwt beam="1">  1       21 0.26779910E+00 0.33015415E+03</pdfrwt>
<pdfrwt beam="2">  1       21 0.18432935E-01 0.33015415E+03</pdfrwt>
<totfact> 0.12365184E+03</totfact>
</mgrwt>
</event>
<event>
 4    1  0.4382184E+000  0.1889844E+03  0.7546771E-02  0.1159381E+00
         21   -1    0    0  503  502  0.00000000000E+00  0.00000000000E+00  0.28798154018E+02  0.28798154018E+02  0.00000000000E+00 0.  1.
         21   -1    0    0  501  503 -0.00000000000E+00 -0.00000000000E+00 -0.12637660847E+04  0.12637660847E+04  0.00000000000E+00 0. -1.
          6    1    1    2  501    0 -0.61976357394E+01  0.75813518234E+02 -0.52920627034E+03  0.56193805424E+03  0.17300000000E+03 0.  1.
         -6    1    1    2    0  502  0.61976357394E+01 -0.75813518234E+02 -0.70576166036E+03  0.73062618449E+03  0.17300000000E+03 0. -1.
<mgrwt>
<rscale>  2 0.18898439E+03</rscale>
<asrwt>0</asrwt>
<pdfrwt beam="1">  1       21 0.44304864E-02 0.18898439E+03</pdfrwt>
<pdfrwt beam="2">  1       21 0.19442550E+00 0.18898439E+03</pdfrwt>
<totfact> 0.48258281E+04</totfact>
</mgrwt>
</event>
<event>
 4    1  0.4382184E+000  0.1877988E+03  0.7546771E-02  0.1160462E+00
         21   -1    0    0  503  502  0.00000000000E+00  0.00000000000E+00  0.13880820575E+03  0.13880820575E+03  0.00000000000E+00 0. -1.
         21   -1    0    0  501  503 -0.00000000000E+00 -0.00000000000E+00 -0.26465150885E+03  0.26465150885E+03  0.00000000000E+00 0. -1.
          6    1    1    2  501    0 -0.72766963740E+02 -0.66604473190E+01 -0.10323983368E+03  0.21430551983E+03  0.17300000000E+03 0. -1.
         -6    1    1    2    0  502  0.72766963740E+02  0.66604473190E+01 -0.22603469417E+02  0.18915419477E+03  0.17300000000E+03 0. -1.
<mgrwt>
<rscale>  2 0.18779881E+03</rscale>
<asrwt>0</asrwt>
<pdfrwt beam="1">  1       21 0.21355108E-01 0.18779881E+03</pdfrwt>
<pdfrwt beam="2">  1       21 0.40715617E-01 0.18779881E+03</pdfrwt>
<totfact> 0.11884050E+05</totfact>
</mgrwt>
</event>
<event>
 4    1  0.4382184E+000  0.2424863E+03  0.7546771E-02  0.1118148E+00
         21   -1    0    0  501  502  0.00000000000E+00  0.00000000000E+00  0.82456329291E+03  0.82456329291E+03  0.00000000000E+00 0. -1.
         21   -1    0    0  502  503 -0.00000000000E+00 -0.00000000000E+00 -0.74159177512E+02  0.74159177512E+02  0.00000000000E+00 0.  1.
          6    1    1    2  501    0  0.82290150182E+02  0.14865716461E+03  0.46328092190E+03  0.52290423024E+03  0.17300000000E+03 0. -1.
         -6    1    1    2    0  503 -0.82290150182E+02 -0.14865716461E+03  0.28712319350E+03  0.37581824018E+03  0.17300000000E+03 0.  1.
<mgrwt>
<rscale>  2 0.24248633E+03</rscale>
<asrwt>0</asrwt>
<pdfrwt beam="1">  1       21 0.12685588E+00 0.24248633E+03</pdfrwt>
<pdfrwt beam="2">  1       21 0.11409105E-01 0.24248633E+03</pdfrwt>
<totfact> 0.28714782E+04</totfact>
</mgrwt>
</event>
<event>
 4    1  0.4382184E+000  0.2214240E+03  0.7546771E-02  0.1132826E+00
         21   -1    0    0  501  502  0.00000000000E+00  0.00000000000E+00  0.35823925429E+03  0.35823925429E+03  0.00000000000E+00 0.  1.
         21   -1    0    0  502  503 -0.00000000000E+00 -0.00000000000E+00 -0.14355400967E+03  0.14355400967E+03  0.00000000000E+00 0.  1.
          6    1    1    2  501    0 -0.13370958308E+03 -0.34947848031E+02  0.16152176329E+03  0.27407642129E+03  0.17300000000E+03 0.  1.
         -6    1    1    2    0  503  0.13370958308E+03  0.34947848031E+02  0.53163481324E+02  0.22771684267E+03  0.17300000000E+03 0.  1.
<mgrwt>
<rscale>  2 0.22142404E+03</rscale>
<asrwt>0</asrwt>
<pdfrwt beam="1">  1       21 0.55113731E-01 0.22142404E+03</pdfrwt>
<pdfrwt beam="2">  1       21 0.22085232E-01 0.22142404E+03</pdfrwt>
<totfact> 0.58736797E+04</totfact>
</mgrwt>
</event>
<event>
 4    1  0.4382184E+000  0.1846646E+03  0.7546771E-02  0.1163363E+00
         21   -1    0    0  501  502  0.00000000000E+00  0.00000000000E+00  0.58823945584E+02  0.58823945584E+02  0.00000000000E+00 0. -1.
         21   -1    0    0  502  503 -0.00000000000E+00 -0.00000000000E+00 -0.61501660153E+03  0.61501660153E+03  0.00000000000E+00 0. -1.
          6    1    1    2  501    0 -0.61428367507E+02  0.19964156426E+02 -0.19737419791E+03  0.27029166816E+03  0.17300000000E+03 0. -1.
         -6    1    1    2    0  503  0.61428367507E+02 -0.19964156426E+02 -0.35881845804E+03  0.40354887895E+03  0.17300000000E+03 0. -1.
<mgrwt>
<rscale>  2 0.18466459E+03</rscale>
<asrwt>0</asrwt>
<pdfrwt beam="1">  1       21 0.90498376E-02 0.18466459E+03</pdfrwt>
<pdfrwt beam="2">  1       21 0.94617940E-01 0.18466459E+03</pdfrwt>
<totfact> 0.90765690E+04</totfact>
</mgrwt>
</event>
<event>
 4    1  0.4382184E+000  0.1840386E+03  0.7546771E-02  0.1163951E+00
         21   -1    0    0  501  502  0.00000000000E+00  0.00000000000E+00  0.14663692131E+03  0.14663692131E+03  0.00000000000E+00 0.  1.
         21   -1    0    0  502  503 -0.00000000000E+00 -0.00000000000E+00 -0.62387830490E+03  0.62387830490E+03  0.00000000000E+00 0.  1.
          6    1    1    2  501    0  0.52883209018E+02 -0.33831373691E+02  0.67111638903E+02  0.19589325593E+03  0.17300000000E+03 0.  1.
         -6    1    1    2    0  503 -0.52883209018E+02  0.33831373691E+02 -0.54435302249E+03  0.57462197028E+03  0.17300000000E+03 0.  1.
<mgrwt>
<rscale>  2 0.18403857E+03</rscale>
<asrwt>0</asrwt>
<pdfrwt beam="1">  1       21 0.22559526E-01 0.18403857E+03</pdfrwt>
<pdfrwt beam="2">  1       21 0.95981280E-01 0.18403857E+03</pdfrwt>
<totfact> 0.16739190E+04</totfact>
</mgrwt>
</event>
<event>
 4    1  0.4382184E+000  0.2029014E+03  0.7546771E-02  0.1147314E+00
         21   -1    0    0  503  502  0.00000000000E+00  0.00000000000E+00  0.21134345928E+04  0.21134345928E+04  0.00000000000E+00 0. -1.
         21   -1    0    0  501  503 -0.00000000000E+00 -0.00000000000E+00 -0.19484609444E+02  0.19484609444E+02  0.00000000000E+00 0. -1.
          6    1    1    2  501    0  0.99553251185E+02  0.36457347171E+02  0.10299783725E+04  0.10497735164E+04  0.17300000000E+03 0. -1.
         -6    1    1    2    0  502 -0.99553251185E+02 -0.36457347171E+02  0.10639716109E+04  0.10831456858E+04  0.17300000000E+03 0. -1.
<mgrwt>
<rscale>  2 0.20290142E+03</rscale>
<asrwt>0</asrwt>
<pdfrwt beam="1">  1       21 0.32514360E+00 0.20290142E+03</pdfrwt>
<pdfrwt beam="2">  1       21 0.29976339E-02 0.20290142E+03</pdfrwt>
<totfact> 0.15314596E+04</totfact>
</mgrwt>
</event>
<event>
 4    1  0.4382184E+000  0.2654485E+03  0.7546771E-02  0.1103913E+00
         21   -1    0    0  501  502  0.00000000000E+00  0.00000000000E+00  0.32736254851E+03  0.32736254851E+03  0.00000000000E+00 0.  1.
         21   -1    0    0  502  503 -0.00000000000E+00 -0.00000000000E+00 -0.99873966349E+03  0.99873966349E+03  0.00000000000E+00 0.  1.
          6    1    1    2  501    0  0.12040388998E+03 -0.16135920899E+03  0.25158317492E+03  0.36572802046E+03  0.17300000000E+03 0.  1.
         -6    1    1    2    0  503 -0.12040388998E+03  0.16135920899E+03 -0.92296028990E+03  0.96037419154E+03  0.17300000000E+03 0.  1.
<mgrwt>
<rscale>  2 0.26544847E+03</rscale>
<asrwt>0</asrwt>
<pdfrwt beam="1">  1       21 0.50363470E-01 0.26544847E+03</pdfrwt>
<pdfrwt beam="2">  1       21 0.15365225E+00 0.26544847E+03</pdfrwt>
<totfact> 0.98551053E+02</totfact>
</mgrwt>
</event>
<event>
 4    1  0.4382184E+000  0.1861413E+03  0.7546771E-02  0.1161988E+00
         21   -1    0    0  503  502  0.00000000000E+00  0.00000000000E+00  0.88196808412E+03  0.88196808412E+03  0.00000000000E+00 0. -1.
         21   -1    0    0  501  503 -0.00000000000E+00 -0.00000000000E+00 -0.19467025895E+03  0.19467025895E+03  0.00000000000E+00 0. -1.
          6    1    1    2  501    0 -0.52286132172E+02 -0.44561660266E+02 -0.13729475929E+03  0.23129728081E+03  0.17300000000E+03 0. -1.
         -6    1    1    2    0  502  0.52286132172E+02  0.44561660266E+02  0.82459258446E+03  0.84534106225E+03  0.17300000000E+03 0. -1.
<mgrwt>
<rscale>  2 0.18614129E+03</rscale>
<asrwt>0</asrwt>
<pdfrwt beam="1">  1       21 0.13568740E+00 0.18614129E+03</pdfrwt>
<pdfrwt beam="2">  1       21 0.29949271E-01 0.18614129E+03</pdfrwt>
<totfact> 0.41691801E+03</totfact>
</mgrwt>
</event>
<event>
 4    1  0.4382184E+000  0.1918032E+03  0.7546771E-02  0.1156845E+00
         21   -1    0    0  503  502  0.00000000000E+00  0.00000000000E+00  0.29306049264E+03  0.29306049264E+03  0.00000000000E+00 0.  1.
         21   -1    0    0  501  503 -0.00000000000E+00 -0.00000000000E+00 -0.14492188722E+03  0.14492188722E+03  0.00000000000E+00 0. -1.
          6    1    1    2  501    0  0.82563728675E+02 -0.65329533106E+01 -0.60335709686E+01  0.19189802696E+03  0.17300000000E+03 0. -1.
         -6    1    1    2    0  502 -0.82563728675E+02  0.65329533106E+01  0.15417217639E+03  0.24608435290E+03  0.17300000000E+03 0.  1.
<mgrwt>
<rscale>  2 0.19180315E+03</rscale>
<asrwt>0</asrwt>
<pdfrwt beam="1">  1       21 0.45086229E-01 0.19180315E+03</pdfrwt>
<pdfrwt beam="2">  1       21 0.22295675E-01 0.19180315E+03</pdfrwt>
<totfact> 0.88880374E+04</totfact>
</mgrwt>
</event>
<event>
 4    1  0.4382184E+000  0.1748659E+03  0.7546771E-02  0.1172866E+00
         21   -1    0    0  501  502  0.00000000000E+00  0.00000000000E+00  0.90247465451E+03  0.90247465451E+03  0.00000000000E+00 0. -1.
         21   -1    0    0  502  503 -0.00000000000E+00 -0.00000000000E+00 -0.36557627882E+02  0.36557627882E+02  0.00000000000E+00 0. -1.
          6    1    1    2  501    0 -0.25453728928E+02  0.10895225752E+01  0.55996778502E+03  0.58663617314E+03  0.17300000000E+03 0.  1.
         -6    1    1    2    0  503  0.25453728928E+02 -0.10895225752E+01  0.30594924161E+03  0.35239610926E+03  0.17300000000E+03 0.  1.
<mgrwt>
<rscale>  2 0.17486589E+03</rscale>
<asrwt>0</asrwt>
<pdfrwt beam="1">  1       21 0.13884224E+00 0.17486589E+03</pdfrwt>
<pdfrwt beam="2">  1       21 0.56242511E-02 0.17486589E+03</pdfrwt>
<totfact> 0.81211163E+04</totfact>
</mgrwt>
</event>
<event>
 4    1  0.4382184E+000  0.1806872E+03  0.7546771E-02  0.1167140E+00
         21   -1    0    0  501  502  0.00000000000E+00  0.00000000000E+00  0.30327369349E+03  0.30327369349E+03  0.00000000000E+00 0. -1.
         21   -1    0    0  502  503 -0.00000000000E+00 -0.00000000000E+00 -0.19784896365E+03  0.19784896365E+03  0.00000000000E+00 0. -1.
          6    1    1    2  501    0 -0.23547421658E+02 -0.46523107080E+02  0.22189049344E+03  0.28615253212E+03  0.17300000000E+03 0. -1.
         -6    1    1    2    0  503  0.23547421658E+02  0.46523107080E+02 -0.11646576360E+03  0.21497012502E+03  0.17300000000E+03 0. -1.
<mgrwt>
<rscale>  2 0.18068725E+03</rscale>
<asrwt>0</asrwt>
<pdfrwt beam="1">  1       21 0.46657491E-01 0.18068725E+03</pdfrwt>
<pdfrwt beam="2">  1       21 0.30438302E-01 0.18068725E+03</pdfrwt>
<totfact> 0.45827985E+04</totfact>
</mgrwt>
</event>
<event>
 4    1  0.4382184E+000  0.2537966E+03  0.7546771E-02  0.1110929E+00
         21   -1    0    0  501  502  0.00000000000E+00  0.00000000000E+00  0.12202457440E+03  0.12202457440E+03  0.00000000000E+00 0.  1.
         21   -1    0    0  502  503 -0.00000000000E+00 -0.00000000000E+00 -0.65574170433E+03  0.65574170433E+03  0.00000000000E+00 0.  1.
          6    1    1    2  501    0 -0.18567602742E+03  0.28477884608E+01 -0.95128745217E+02  0.27103906586E+03  0.17300000000E+03 0.  1.
         -6    1    1    2    0  503  0.18567602742E+03 -0.28477884608E+01 -0.43858838471E+03  0.50672721287E+03  0.17300000000E+03 0.  1.
<mgrwt>
<rscale>  2 0.25379657E+03</rscale>
<asrwt>0</asrwt>
<pdfrwt beam="1">  1       21 0.18773012E-01 0.25379657E+03</pdfrwt>
<pdfrwt beam="2">  1       21 0.10088334E+00 0.25379657E+03</pdfrwt>
<totfact> 0.20179060E+04</totfact>
</mgrwt>
</event>
<event>
 4    1  0.4382184E+000  0.1879824E+03  0.7546771E-02  0.1160294E+00
         21   -1    0    0  501  502  0.00000000000E+00  0.00000000000E+00  0.57837250630E+03  0.57837250630E+03  0.00000000000E+00 0. -1.
         21   -1    0    0  502  503 -0.00000000000E+00 -0.00000000000E+00 -0.74643874974E+02  0.74643874974E+02  0.00000000000E+00 0. -1.
          6    1    1    2  501    0 -0.73089499661E+02  0.81428903228E+01  0.39095598729E+03  0.43380175844E+03  0.17300000000E+03 0. -1.
         -6    1    1    2    0  503  0.73089499661E+02 -0.81428903228E+01  0.11277264404E+03  0.21921462284E+03  0.17300000000E+03 0. -1.
<mgrwt>
<rscale>  2 0.18798240E+03</rscale>
<asrwt>0</asrwt>
<pdfrwt beam="1">  1       21 0.88980383E-01 0.18798240E+03</pdfrwt>
<pdfrwt beam="2">  1       21 0.11483673E-01 0.18798240E+03</pdfrwt>
<totfact> 0.68612254E+04</totfact>
</mgrwt>
</event>
<event>
 4    1  0.4382184E+000  0.2448473E+03  0.7546771E-02  0.1116605E+00
         21   -1    0    0  501  502  0.00000000000E+00  0.00000000000E+00  0.59737996278E+02  0.59737996278E+02  0.00000000000E+00 0. -1.
         21   -1    0    0  502  503 -0.00000000000E+00 -0.00000000000E+00 -0.10639756566E+04  0.10639756566E+04  0.00000000000E+00 0. -1.
          6    1    1    2  501    0 -0.47895989797E+02  0.16651477575E+03 -0.36822435055E+03  0.44219833640E+03  0.17300000000E+03 0. -1.
         -6    1    1    2    0  503  0.47895989797E+02 -0.16651477575E+03 -0.63601330980E+03  0.68151531650E+03  0.17300000000E+03 0. -1.
<mgrwt>
<rscale>  2 0.24484729E+03</rscale>
<asrwt>0</asrwt>
<pdfrwt beam="1">  1       21 0.91904613E-02 0.24484729E+03</pdfrwt>
<pdfrwt beam="2">  1       21 0.16368856E+00 0.24484729E+03</pdfrwt>
<totfact> 0.21561171E+04</totfact>
</mgrwt>
</event>
<event>
 4    1  0.4382184E+000  0.2369818E+03  0.7546771E-02  0.1121820E+00
         21   -1    0    0  503  502  0.00000000000E+00  0.00000000000E+00  0.72240280297E+03  0.72240280297E+03  0.00000000000E+00 0. -1.
         21   -1    0    0  501  503 -0.00000000000E+00 -0.00000000000E+00 -0.79108571535E+02  0.79108571535E+02  0.00000000000E+00 0.  1.
          6    1    1    2  501    0  0.31159510021E+02  0.15893545905E+03  0.26895743021E+03  0.35846686663E+03  0.17300000000E+03 0.  1.
         -6    1    1    2    0  502 -0.31159510021E+02 -0.15893545905E+03  0.37433680123E+03  0.44304450788E+03  0.17300000000E+03 0. -1.
<mgrwt>
<rscale>  2 0.23698185E+03</rscale>
<asrwt>0</asrwt>
<pdfrwt beam="1">  1       21 0.11113889E+00 0.23698185E+03</pdfrwt>
<pdfrwt beam="2">  1       21 0.12170550E-01 0.23698185E+03</pdfrwt>
<totfact> 0.35607357E+04</totfact>
</mgrwt>
</event>
<event>
 4    1  0.4382184E+000  0.1997870E+03  0.7546771E-02  0.1149919E+00
         21   -1    0    0  503  502  0.00000000000E+00  0.00000000000E+00  0.30034293945E+03  0.30034293945E+03  0.00000000000E+00 0.  1.
         21   -1    0    0  501  503 -0.00000000000E+00 -0.00000000000E+00 -0.44400717830E+03  0.44400717830E+03  0.00000000000E+00 0.  1.
          6    1    1    2  501    0  0.61128379491E+02 -0.79051786425E+02 -0.38336862396E+03  0.43230355718E+03  0.17300000000E+03 0.  1.
         -6    1    1    2    0  502 -0.61128379491E+02  0.79051786425E+02  0.23970438511E+03  0.31204656056E+03  0.17300000000E+03 0.  1.
<mgrwt>
<rscale>  2 0.19978705E+03</rscale>
<asrwt>0</asrwt>
<pdfrwt beam="1">  1       21 0.46206606E-01 0.19978705E+03</pdfrwt>
<pdfrwt beam="2">  1       21 0.68308796E-01 0.19978705E+03</pdfrwt>
<totfact> 0.87304468E+03</totfact>
</mgrwt>
</event>
<event>
 4    1  0.4382184E+000  0.1923217E+03  0.7546771E-02  0.1156384E+00
         21   -1    0    0  501  502  0.00000000000E+00  0.00000000000E+00  0.52841823686E+03  0.52841823686E+03  0.00000000000E+00 0.  1.
         21   -1    0    0  502  503 -0.00000000000E+00 -0.00000000000E+00 -0.10257181684E+03  0.10257181684E+03  0.00000000000E+00 0.  1.
          6    1    1    2  501    0  0.80154130620E+02 -0.25178040641E+02  0.39071856277E+03  0.43548664007E+03  0.17300000000E+03 0.  1.
         -6    1    1    2    0  503 -0.80154130620E+02  0.25178040641E+02  0.35127857258E+02  0.19550341363E+03  0.17300000000E+03 0.  1.
<mgrwt>
<rscale>  2 0.19232165E+03</rscale>
<asrwt>0</asrwt>
<pdfrwt beam="1">  1       21 0.81295111E-01 0.19232165E+03</pdfrwt>
<pdfrwt beam="2">  1       21 0.15780280E-01 0.19232165E+03</pdfrwt>
<totfact> 0.47439064E+04</totfact>
</mgrwt>
</event>
<event>
 4    1  0.4382184E+000  0.2048534E+03  0.7546771E-02  0.1145708E+00
         21   -1    0    0  501  502  0.00000000000E+00  0.00000000000E+00  0.64306216297E+03  0.64306216297E+03  0.00000000000E+00 0.  1.
         21   -1    0    0  502  503 -0.00000000000E+00 -0.00000000000E+00 -0.65293242088E+02  0.65293242088E+02  0.00000000000E+00 0.  1.
          6    1    1    2  501    0 -0.20465500172E+02 -0.10778248329E+03  0.29712202197E+03  0.36089665604E+03  0.17300000000E+03 0.  1.
         -6    1    1    2    0  503  0.20465500172E+02  0.10778248329E+03  0.28064689891E+03  0.34745874902E+03  0.17300000000E+03 0.  1.
<mgrwt>
<rscale>  2 0.20485336E+03</rscale>
<asrwt>0</asrwt>
<pdfrwt beam="1">  1       21 0.98932636E-01 0.20485336E+03</pdfrwt>
<pdfrwt beam="2">  1       21 0.10045115E-01 0.20485336E+03</pdfrwt>
<totfact> 0.67395417E+04</totfact>
</mgrwt>
</event>
<event>
 4    1  0.4382184E+000  0.2275875E+03  0.7546771E-02  0.1128349E+00
         21   -1    0    0  501  502  0.00000000000E+00  0.00000000000E+00  0.84053382928E+02  0.84053382928E+02  0.00000000000E+00 0. -1.
         21   -1    0    0  502  503 -0.00000000000E+00 -0.00000000000E+00 -0.61822705866E+03  0.61822705866E+03  0.00000000000E+00 0.  1.
          6    1    1    2  501    0 -0.14655629029E+03 -0.19705514379E+02 -0.24711986270E+03  0.33595279439E+03  0.17300000000E+03 0.  1.
         -6    1    1    2    0  503  0.14655629029E+03  0.19705514379E+02 -0.28705381303E+03  0.36632764719E+03  0.17300000000E+03 0. -1.
<mgrwt>
<rscale>  2 0.22758746E+03</rscale>
<asrwt>0</asrwt>
<pdfrwt beam="1">  1       21 0.12931289E-01 0.22758746E+03</pdfrwt>
<pdfrwt beam="2">  1       21 0.95111857E-01 0.22758746E+03</pdfrwt>
<totfact> 0.46594667E+04</totfact>
</mgrwt>
</event>
<event>
 4    1  0.4382184E+000  0.1732923E+03  0.7546771E-02  0.1174457E+00
         21   -1    0    0  501  502  0.00000000000E+00  0.00000000000E+00  0.10509328166E+04  0.10509328166E+04  0.00000000000E+00 0. -1.
         21   -1    0    0  502  503 -0.00000000000E+00 -0.00000000000E+00 -0.29705088363E+02  0.29705088363E+02  0.00000000000E+00 0. -1.
          6    1    1    2  501    0  0.10035508796E+02 -0.71499201746E+00  0.61600991997E+03  0.63992065458E+03  0.17300000000E+03 0. -1.
         -6    1    1    2    0  503 -0.10035508796E+02  0.71499201746E+00  0.40521780822E+03  0.44071725034E+03  0.17300000000E+03 0. -1.
<mgrwt>
<rscale>  2 0.17329230E+03</rscale>
<asrwt>0</asrwt>
<pdfrwt beam="1">  1       21 0.16168194E+00 0.17329230E+03</pdfrwt>
<pdfrwt beam="2">  1       21 0.45700144E-02 0.17329230E+03</pdfrwt>
<totfact> 0.77429195E+04</totfact>
</mgrwt>
</event>
<event>
 4    1  0.4382184E+000  0.1765107E+03  0.7546771E-02  0.1171223E+00
         21   -1    0    0  501  502  0.00000000000E+00  0.00000000000E+00  0.23654059843E+03  0.23654059843E+03  0.00000000000E+00 0.  1.
         21   -1    0    0  502  503 -0.00000000000E+00 -0.00000000000E+00 -0.20662724327E+03  0.20662724327E+03  0.00000000000E+00 0.  1.
          6    1    1    2  501    0 -0.92058378418E+01  0.33797611736E+02  0.14837634677E+03  0.23058960577E+03  0.17300000000E+03 0.  1.
         -6    1    1    2    0  503  0.92058378418E+01 -0.33797611736E+02 -0.11846299161E+03  0.21257823593E+03  0.17300000000E+03 0.  1.
<mgrwt>
<rscale>  2 0.17651070E+03</rscale>
<asrwt>0</asrwt>
<pdfrwt beam="1">  1       21 0.36390861E-01 0.17651070E+03</pdfrwt>
<pdfrwt beam="2">  1       21 0.31788807E-01 0.17651070E+03</pdfrwt>
<totfact> 0.69771477E+04</totfact>
</mgrwt>
</event>
<event>
 4    1  0.4382184E+000  0.2394942E+03  0.7546771E-02  0.1120130E+00
         21   -1    0    0  503  502  0.00000000000E+00  0.00000000000E+00  0.15749458577E+03  0.15749458577E+03  0.00000000000E+00 0.  1.
         21   -1    0    0  501  503 -0.00000000000E+00 -0.00000000000E+00 -0.37733380989E+03  0.37733380989E+03  0.00000000000E+00 0. -1.
          6    1    1    2  501    0 -0.93405074564E+02  0.13676243209E+03 -0.15983481409E+03  0.28793165609E+03  0.17300000000E+03 0.  1.
         -6    1    1    2    0  502  0.93405074564E+02 -0.13676243209E+03 -0.60004410029E+02  0.24689673957E+03  0.17300000000E+03 0. -1.
<mgrwt>
<rscale>  2 0.23949420E+03</rscale>
<asrwt>0</asrwt>
<pdfrwt beam="1">  1       21 0.24229936E-01 0.23949420E+03</pdfrwt>
<pdfrwt beam="2">  1       21 0.58051355E-01 0.23949420E+03</pdfrwt>
<totfact> 0.43734974E+04</totfact>
</mgrwt>
</event>
<event>
 4    1  0.4382184E+000  0.2035573E+03  0.7546771E-02  0.1146772E+00
         21   -1    0    0  503  502  0.00000000000E+00  0.00000000000E+00  0.21569714499E+03  0.21569714499E+03  0.00000000000E+00 0. -1.
         21   -1    0    0  501  503 -0.00000000000E+00 -0.00000000000E+00 -0.19294106444E+03  0.19294106444E+03  0.00000000000E+00 0. -1.
          6    1    1    2  501    0 -0.99197259555E+02 -0.40822580370E+02 -0.21060698471E+01  0.20356820700E+03  0.17300000000E+03 0. -1.
         -6    1    1    2    0  502  0.99197259555E+02  0.40822580370E+02  0.24862150401E+02  0.20507000242E+03  0.17300000000E+03 0. -1.
<mgrwt>
<rscale>  2 0.20355731E+03</rscale>
<asrwt>0</asrwt>
<pdfrwt beam="1">  1       21 0.33184176E-01 0.20355731E+03</pdfrwt>
<pdfrwt beam="2">  1       21 0.29683241E-01 0.20355731E+03</pdfrwt>
<totfact> 0.94702367E+04</totfact>
</mgrwt>
</event>
<event>
 4    1  0.4382184E+000  0.2420235E+03  0.7546771E-02  0.1118452E+00
         21   -1    0    0  501  502  0.00000000000E+00  0.00000000000E+00  0.15833283600E+04  0.15833283600E+04  0.00000000000E+00 0. -1.
         21   -1    0    0  502  503 -0.00000000000E+00 -0.00000000000E+00 -0.86264809591E+02  0.86264809591E+02  0.00000000000E+00 0.  1.
          6    1    1    2  501    0  0.16039746887E+03 -0.54028070055E+02  0.13794220902E+04  0.14004930144E+04  0.17300000000E+03 0. -1.
         -6    1    1    2    0  503 -0.16039746887E+03  0.54028070055E+02  0.11764146019E+03  0.26910015520E+03  0.17300000000E+03 0.  1.
<mgrwt>
<rscale>  2 0.24202351E+03</rscale>
<asrwt>0</asrwt>
<pdfrwt beam="1">  1       21 0.24358896E+00 0.24202351E+03</pdfrwt>
<pdfrwt beam="2">  1       21 0.13271510E-01 0.24202351E+03</pdfrwt>
<totfact> 0.33868677E+03</totfact>
</mgrwt>
</event>
<event>
 4    1  0.4382184E+000  0.2196517E+03  0.7546771E-02  0.1134143E+00
         21   -1    0    0  501  502  0.00000000000E+00  0.00000000000E+00  0.13351839424E+04  0.13351839424E+04  0.00000000000E+00 0.  1.
         21   -1    0    0  502  503 -0.00000000000E+00 -0.00000000000E+00 -0.35224381366E+03  0.35224381366E+03  0.00000000000E+00 0. -1.
          6    1    1    2  501    0 -0.72645267582E+02  0.11419520728E+03  0.12907369196E+04  0.13092931971E+04  0.17300000000E+03 0.  1.
         -6    1    1    2    0  503  0.72645267582E+02 -0.11419520728E+03 -0.30779679083E+03  0.37813455901E+03  0.17300000000E+03 0. -1.
<mgrwt>
<rscale>  2 0.21965172E+03</rscale>
<asrwt>0</asrwt>
<pdfrwt beam="1">  1       21 0.20541291E+00 0.21965172E+03</pdfrwt>
<pdfrwt beam="2">  1       21 0.54191357E-01 0.21965172E+03</pdfrwt>
<totfact> 0.38642995E+02</totfact>
</mgrwt>
</event>
<event>
 4    1  0.4382184E+000  0.1754109E+03  0.7546771E-02  0.1172320E+00
         21   -1    0    0  501  502  0.00000000000E+00  0.00000000000E+00  0.78080075506E+02  0.78080075506E+02  0.00000000000E+00 0. -1.
         21   -1    0    0  502  503 -0.00000000000E+00 -0.00000000000E+00 -0.46531990698E+03  0.46531990698E+03  0.00000000000E+00 0. -1.
          6    1    1    2  501    0  0.46339713221E+01 -0.28609361343E+02 -0.87301680627E+02  0.19593507263E+03  0.17300000000E+03 0. -1.
         -6    1    1    2    0  503 -0.46339713221E+01  0.28609361343E+02 -0.29993815085E+03  0.34746490985E+03  0.17300000000E+03 0. -1.
<mgrwt>
<rscale>  2 0.17541086E+03</rscale>
<asrwt>0</asrwt>
<pdfrwt beam="1">  1       21 0.12012319E-01 0.17541086E+03</pdfrwt>
<pdfrwt beam="2">  1       21 0.71587679E-01 0.17541086E+03</pdfrwt>
<totfact> 0.10397824E+05</totfact>
</mgrwt>
</event>
<event>
 4    1  0.4382184E+000  0.2457256E+03  0.7546771E-02  0.1116036E+00
         21   -1    0    0  501  502  0.00000000000E+00  0.00000000000E+00  0.49157803609E+03  0.49157803609E+03  0.00000000000E+00 0. -1.
         21   -1    0    0  502  503 -0.00000000000E+00 -0.00000000000E+00 -0.23626961973E+03  0.23626961973E+03  0.00000000000E+00 0. -1.
          6    1    1    2  501    0 -0.71886434095E+02 -0.15901080319E+03  0.37982032611E+03  0.45237658546E+03  0.17300000000E+03 0. -1.
         -6    1    1    2    0  503  0.71886434095E+02  0.15901080319E+03 -0.12451190976E+03  0.27547107037E+03  0.17300000000E+03 0. -1.
<mgrwt>
<rscale>  2 0.24572565E+03</rscale>
<asrwt>0</asrwt>
<pdfrwt beam="1">  1       21 0.75627390E-01 0.24572565E+03</pdfrwt>
<pdfrwt beam="2">  1       21 0.36349172E-01 0.24572565E+03</pdfrwt>
<totfact> 0.11021188E+04</totfact>
</mgrwt>
</event>
<event>
 4    1  0.4382184E+000  0.2310983E+03  0.7546771E-02  0.1125869E+00
         21   -1    0    0  503  502  0.00000000000E+00  0.00000000000E+00  0.39954003856E+03  0.39954003856E+03  0.00000000000E+00 0. -1.
         21   -1    0    0  501  503 -0.00000000000E+00 -0.00000000000E+00 -0.17379498777E+03  0.17379498777E+03  0.00000000000E+00 0.  1.
          6    1    1    2  501    0 -0.11576369080E+03 -0.10038013264E+03 -0.24870257645E+02  0.23243264154E+03  0.17300000000E+03 0.  1.
         -6    1    1    2    0  502  0.11576369080E+03  0.10038013264E+03  0.25061530844E+03  0.34090238480E+03  0.17300000000E+03 0. -1.
<mgrwt>
<rscale>  2 0.23109825E+03</rscale>
<asrwt>0</asrwt>
<pdfrwt beam="1">  1       21 0.61467698E-01 0.23109825E+03</pdfrwt>
<pdfrwt beam="2">  1       21 0.26737691E-01 0.23109825E+03</pdfrwt>
<totfact> 0.32114633E+04</totfact>
</mgrwt>
</event>
<event>
 4    1  0.4382184E+000  0.3029644E+03  0.7546771E-02  0.1083768E+00
         21   -1    0    0  501  502  0.00000000000E+00  0.00000000000E+00  0.29767161056E+03  0.29767161056E+03  0.00000000000E+00 0.  1.
         21   -1    0    0  502  503 -0.00000000000E+00 -0.00000000000E+00 -0.51782721923E+03  0.51782721923E+03  0.00000000000E+00 0. -1.
          6    1    1    2  501    0  0.19113819291E+03  0.15913705905E+03  0.14926130574E+03  0.33773710152E+03  0.17300000000E+03 0.  1.
         -6    1    1    2    0  503 -0.19113819291E+03 -0.15913705905E+03 -0.36941691441E+03  0.47776172827E+03  0.17300000000E+03 0. -1.
<mgrwt>
<rscale>  2 0.30296437E+03</rscale>
<asrwt>0</asrwt>
<pdfrwt beam="1">  1       21 0.45795633E-01 0.30296437E+03</pdfrwt>
<pdfrwt beam="2">  1       21 0.79665725E-01 0.30296437E+03</pdfrwt>
<totfact> 0.59305163E+03</totfact>
</mgrwt>
</event>
<event>
 4    1  0.4382184E+000  0.2189865E+03  0.7546771E-02  0.1134641E+00
         21   -1    0    0  501  502  0.00000000000E+00  0.00000000000E+00  0.60764752047E+03  0.60764752047E+03  0.00000000000E+00 0.  1.
         21   -1    0    0  502  503 -0.00000000000E+00 -0.00000000000E+00 -0.99104128569E+02  0.99104128569E+02  0.00000000000E+00 0. -1.
          6    1    1    2  501    0 -0.13375756568E+03  0.11619209060E+02  0.41375085203E+03  0.46812910607E+03  0.17300000000E+03 0.  1.
         -6    1    1    2    0  503  0.13375756568E+03 -0.11619209060E+02  0.94792539864E+02  0.23862254296E+03  0.17300000000E+03 0.  1.
<mgrwt>
<rscale>  2 0.21898651E+03</rscale>
<asrwt>0</asrwt>
<pdfrwt beam="1">  1       21 0.93484231E-01 0.21898651E+03</pdfrwt>
<pdfrwt beam="2">  1       21 0.15246789E-01 0.21898651E+03</pdfrwt>
<totfact> 0.36116524E+04</totfact>
</mgrwt>
</event>
<event>
 4    1  0.4382184E+000  0.2118722E+03  0.7546771E-02  0.1140092E+00
         21   -1    0    0  501  502  0.00000000000E+00  0.00000000000E+00  0.34437929254E+03  0.34437929254E+03  0.00000000000E+00 0. -1.
         21   -1    0    0  502  503 -0.00000000000E+00 -0.00000000000E+00 -0.13382983326E+03  0.13382983326E+03  0.00000000000E+00 0.  1.
          6    1    1    2  501    0  0.70213379604E+02 -0.10015445829E+03  0.66718744225E+02  0.22212884779E+03  0.17300000000E+03 0. -1.
         -6    1    1    2    0  503 -0.70213379604E+02  0.10015445829E+03  0.14383071506E+03  0.25608027801E+03  0.17300000000E+03 0. -1.
<mgrwt>
<rscale>  2 0.21187221E+03</rscale>
<asrwt>0</asrwt>
<pdfrwt beam="1">  1       21 0.52981429E-01 0.21187221E+03</pdfrwt>
<pdfrwt beam="2">  1       21 0.20589205E-01 0.21187221E+03</pdfrwt>
<totfact> 0.73172491E+04</totfact>
</mgrwt>
</event>
<event>
 4    1  0.4382184E+000  0.3556232E+03  0.7546771E-02  0.1060330E+00
         21   -1    0    0  501  502  0.00000000000E+00  0.00000000000E+00  0.71292811320E+02  0.71292811320E+02  0.00000000000E+00 0.  1.
         21   -1    0    0  502  503 -0.00000000000E+00 -0.00000000000E+00 -0.22963914961E+04  0.22963914961E+04  0.00000000000E+00 0. -1.
          6    1    1    2  501    0 -0.39815351010E+02 -0.30814544916E+03 -0.54787072538E+03  0.65316935916E+03  0.17300000000E+03 0.  1.
         -6    1    1    2    0  503  0.39815351010E+02  0.30814544916E+03 -0.16772279594E+04  0.17145149482E+04  0.17300000000E+03 0. -1.
<mgrwt>
<rscale>  2 0.35562323E+03</rscale>
<asrwt>0</asrwt>
<pdfrwt beam="1">  1       21 0.10968125E-01 0.35562323E+03</pdfrwt>
<pdfrwt beam="2">  1       21 0.35329100E+00 0.35562323E+03</pdfrwt>
<totfact> 0.97203358E+02</totfact>
</mgrwt>
</event>
<event>
 4    1  0.4382184E+000  0.2604616E+03  0.7546771E-02  0.1106866E+00
         21   -1    0    0  501  502  0.00000000000E+00  0.00000000000E+00  0.23401516020E+03  0.23401516020E+03  0.00000000000E+00 0.  1.
         21   -1    0    0  502  503 -0.00000000000E+00 -0.00000000000E+00 -0.45413460572E+03  0.45413460572E+03  0.00000000000E+00 0.  1.
          6    1    1    2  501    0 -0.78329390597E+02 -0.17825753707E+03  0.96857793686E+02  0.27788788234E+03  0.17300000000E+03 0.  1.
         -6    1    1    2    0  503  0.78329390597E+02  0.17825753707E+03 -0.31697723921E+03  0.41026188359E+03  0.17300000000E+03 0.  1.
<mgrwt>
<rscale>  2 0.26046160E+03</rscale>
<asrwt>0</asrwt>
<pdfrwt beam="1">  1       21 0.36002333E-01 0.26046160E+03</pdfrwt>
<pdfrwt beam="2">  1       21 0.69866862E-01 0.26046160E+03</pdfrwt>
<totfact> 0.13309357E+04</totfact>
</mgrwt>
</event>
<event>
 4    1  0.4382184E+000  0.2511627E+03  0.7546771E-02  0.1112572E+00
         21   -1    0    0  503  502  0.00000000000E+00  0.00000000000E+00  0.36445185886E+03  0.36445185886E+03  0.00000000000E+00 0.  1.
         21   -1    0    0  501  503 -0.00000000000E+00 -0.00000000000E+00 -0.24343214520E+03  0.24343214520E+03  0.00000000000E+00 0. -1.
          6    1    1    2  501    0 -0.18084012846E+03  0.21226340467E+02 -0.10287499394E+03  0.27141476373E+03  0.17300000000E+03 0. -1.
         -6    1    1    2    0  502  0.18084012846E+03 -0.21226340467E+02  0.22389470761E+03  0.33646924033E+03  0.17300000000E+03 0.  1.
<mgrwt>
<rscale>  2 0.25116272E+03</rscale>
<asrwt>0</asrwt>
<pdfrwt beam="1">  1       21 0.56069517E-01 0.25116272E+03</pdfrwt>
<pdfrwt beam="2">  1       21 0.37451099E-01 0.25116272E+03</pdfrwt>
<totfact> 0.19944884E+04</totfact>
</mgrwt>
</event>
<event>
 4    1  0.4382184E+000  0.2040901E+03  0.7546771E-02  0.1146333E+00
         21   -1    0    0  501  502  0.00000000000E+00  0.00000000000E+00  0.62815700977E+03  0.62815700977E+03  0.00000000000E+00 0.  1.
         21   -1    0    0  502  503 -0.00000000000E+00 -0.00000000000E+00 -0.84327313886E+02  0.84327313886E+02  0.00000000000E+00 0.  1.
          6    1    1    2  501    0 -0.92881822248E+02 -0.55648448451E+02  0.43658395382E+03  0.48193187429E+03  0.17300000000E+03 0.  1.
         -6    1    1    2    0  503  0.92881822248E+02  0.55648448451E+02  0.10724574206E+03  0.23055244937E+03  0.17300000000E+03 0.  1.
<mgrwt>
<rscale>  2 0.20409013E+03</rscale>
<asrwt>0</asrwt>
<pdfrwt beam="1">  1       21 0.96639537E-01 0.20409013E+03</pdfrwt>
<pdfrwt beam="2">  1       21 0.12973433E-01 0.20409013E+03</pdfrwt>
<totfact> 0.45131364E+04</totfact>
</mgrwt>
</event>
<event>
 4    1  0.4382184E+000  0.1752294E+03  0.7546771E-02  0.1172502E+00
         21   -1    0    0  503  502  0.00000000000E+00  0.00000000000E+00  0.35436351320E+03  0.35436351320E+03  0.00000000000E+00 0.  1.
         21   -1    0    0  501  503 -0.00000000000E+00 -0.00000000000E+00 -0.88040633298E+02  0.88040633298E+02  0.00000000000E+00 0.  1.
          6    1    1    2  501    0 -0.15789720706E+02  0.22957076361E+02  0.10535364144E+03  0.20446205614E+03  0.17300000000E+03 0. -1.
         -6    1    1    2    0  502  0.15789720706E+02 -0.22957076361E+02  0.16096923847E+03  0.23794209037E+03  0.17300000000E+03 0. -1.
<mgrwt>
<rscale>  2 0.17522940E+03</rscale>
<asrwt>0</asrwt>
<pdfrwt beam="1">  1       21 0.54517463E-01 0.17522940E+03</pdfrwt>
<pdfrwt beam="2">  1       21 0.13544713E-01 0.17522940E+03</pdfrwt>
<totfact> 0.15087042E+05</totfact>
</mgrwt>
</event>
<event>
 4    1  0.4382184E+000  0.3283213E+03  0.7546771E-02  0.1071882E+00
         21   -1    0    0  503  502  0.00000000000E+00  0.00000000000E+00  0.52018988836E+02  0.52018988836E+02  0.00000000000E+00 0.  1.
         21   -1    0    0  501  503 -0.00000000000E+00 -0.00000000000E+00 -0.25057112083E+04  0.25057112083E+04  0.00000000000E+00 0.  1.
          6    1    1    2  501    0 -0.71272323583E+02  0.26978903846E+03 -0.17587689033E+04  0.17891514538E+04  0.17300000000E+03 0.  1.
         -6    1    1    2    0  502  0.71272323583E+02 -0.26978903846E+03 -0.69492331619E+03  0.76857874337E+03  0.17300000000E+03 0.  1.
<mgrwt>
<rscale>  2 0.32832129E+03</rscale>
<asrwt>0</asrwt>
<pdfrwt beam="1">  1       21 0.80029228E-02 0.32832129E+03</pdfrwt>
<pdfrwt beam="2">  1       21 0.38549396E+00 0.32832129E+03</pdfrwt>
<totfact> 0.11023459E+03</totfact>
</mgrwt>
</event>
<event>
 4    1  0.4382184E+000  0.2382165E+03  0.7546771E-02  0.1120987E+00
         21   -1    0    0  501  502  0.00000000000E+00  0.00000000000E+00  0.86582318278E+03  0.86582318278E+03  0.00000000000E+00 0. -1.
         21   -1    0    0  502  503 -0.00000000000E+00 -0.00000000000E+00 -0.15314232031E+03  0.15314232031E+03  0.00000000000E+00 0.  1.
          6    1    1    2  501    0 -0.12363783326E+03  0.10738613063E+03  0.74167386404E+03  0.77899115237E+03  0.17300000000E+03 0. -1.
         -6    1    1    2    0  503  0.12363783326E+03 -0.10738613063E+03 -0.28993001572E+02  0.23997435072E+03  0.17300000000E+03 0.  1.
<mgrwt>
<rscale>  2 0.23821649E+03</rscale>
<asrwt>0</asrwt>
<pdfrwt beam="1">  1       21 0.13320356E+00 0.23821649E+03</pdfrwt>
<pdfrwt beam="2">  1       21 0.23560357E-01 0.23821649E+03</pdfrwt>
<totfact> 0.66670501E+03</totfact>
</mgrwt>
</event>
<event>
 4    1  0.4382184E+000  0.1800435E+03  0.7546771E-02  0.1167761E+00
         21   -1    0    0  501  502  0.00000000000E+00  0.00000000000E+00  0.67882162026E+02  0.67882162026E+02  0.00000000000E+00 0. -1.
         21   -1    0    0  502  503 -0.00000000000E+00 -0.00000000000E+00 -0.54643494870E+03  0.54643494870E+03  0.00000000000E+00 0. -1.
          6    1    1    2  501    0 -0.52285058124E+01 -0.49591419293E+02 -0.13020162858E+03  0.22218935669E+03  0.17300000000E+03 0. -1.
         -6    1    1    2    0  503  0.52285058124E+01  0.49591419293E+02 -0.34835115809E+03  0.39212775403E+03  0.17300000000E+03 0. -1.
<mgrwt>
<rscale>  2 0.18004346E+03</rscale>
<asrwt>0</asrwt>
<pdfrwt beam="1">  1       21 0.10443410E-01 0.18004346E+03</pdfrwt>
<pdfrwt beam="2">  1       21 0.84066914E-01 0.18004346E+03</pdfrwt>
<totfact> 0.92823331E+04</totfact>
</mgrwt>
</event>
<event>
 4    1  0.4382184E+000  0.1921748E+03  0.7546771E-02  0.1156514E+00
         21   -1    0    0  501  502  0.00000000000E+00  0.00000000000E+00  0.34968433009E+03  0.34968433009E+03  0.00000000000E+00 0. -1.
         21   -1    0    0  502  503 -0.00000000000E+00 -0.00000000000E+00 -0.16494450336E+03  0.16494450336E+03  0.00000000000E+00 0. -1.
          6    1    1    2  501    0 -0.51713426896E+02 -0.65786531517E+02  0.24669571845E+03  0.31271380486E+03  0.17300000000E+03 0. -1.
         -6    1    1    2    0  503  0.51713426896E+02  0.65786531517E+02 -0.61955891722E+02  0.20191502859E+03  0.17300000000E+03 0. -1.
<mgrwt>
<rscale>  2 0.19217478E+03</rscale>
<asrwt>0</asrwt>
<pdfrwt beam="1">  1       21 0.53797589E-01 0.19217478E+03</pdfrwt>
<pdfrwt beam="2">  1       21 0.25376077E-01 0.19217478E+03</pdfrwt>
<totfact> 0.48124744E+04</totfact>
</mgrwt>
</event>
<event>
 4    1  0.4382184E+000  0.2517200E+03  0.7546771E-02  0.1112223E+00
         21   -1    0    0  503  502  0.00000000000E+00  0.00000000000E+00  0.69940554077E+02  0.69940554077E+02  0.00000000000E+00 0. -1.
         21   -1    0    0  501  503 -0.00000000000E+00 -0.00000000000E+00 -0.98191059805E+03  0.98191059805E+03  0.00000000000E+00 0. -1.
          6    1    1    2  501    0  0.14367699438E+03 -0.11309670242E+03 -0.60226009752E+03  0.65274816574E+03  0.17300000000E+03 0. -1.
         -6    1    1    2    0  502 -0.14367699438E+03  0.11309670242E+03 -0.30970994645E+03  0.39910298638E+03  0.17300000000E+03 0. -1.
<mgrwt>
<rscale>  2 0.25171997E+03</rscale>
<asrwt>0</asrwt>
<pdfrwt beam="1">  1       21 0.10760086E-01 0.25171997E+03</pdfrwt>
<pdfrwt beam="2">  1       21 0.15106316E+00 0.25171997E+03</pdfrwt>
<totfact> 0.20171199E+04</totfact>
</mgrwt>
</event>
<event>
 4    1  0.4382184E+000  0.2563557E+03  0.7546771E-02  0.1109353E+00
         21   -1    0    0  501  502  0.00000000000E+00  0.00000000000E+00  0.82231758676E+03  0.82231758676E+03  0.00000000000E+00 0. -1.
         21   -1    0    0  502  503 -0.00000000000E+00 -0.00000000000E+00 -0.92163800846E+02  0.92163800846E+02  0.00000000000E+00 0.  1.
          6    1    1    2  501    0  0.10722582775E+03  0.15585852939E+03  0.53174488091E+03  0.59031421946E+03  0.17300000000E+03 0. -1.
         -6    1    1    2    0  503 -0.10722582775E+03 -0.15585852939E+03  0.19840890501E+03  0.32416716815E+03  0.17300000000E+03 0.  1.
<mgrwt>
<rscale>  2 0.25635573E+03</rscale>
<asrwt>0</asrwt>
<pdfrwt beam="1">  1       21 0.12651039E+00 0.25635573E+03</pdfrwt>
<pdfrwt beam="2">  1       21 0.14179047E-01 0.25635573E+03</pdfrwt>
<totfact> 0.19382961E+04</totfact>
</mgrwt>
</event>
<event>
 4    1  0.4382184E+000  0.3678565E+03  0.7546771E-02  0.1055516E+00
         21   -1    0    0  501  502  0.00000000000E+00  0.00000000000E+00  0.31820471092E+03  0.31820471092E+03  0.00000000000E+00 0.  1.
         21   -1    0    0  502  503 -0.00000000000E+00 -0.00000000000E+00 -0.11895756799E+04  0.11895756799E+04  0.00000000000E+00 0. -1.
          6    1    1    2  501    0 -0.23849144438E+03  0.22025263166E+03  0.16861040752E+03  0.40465770760E+03  0.17300000000E+03 0.  1.
         -6    1    1    2    0  503  0.23849144438E+03 -0.22025263166E+03 -0.10399813765E+04  0.11031226833E+04  0.17300000000E+03 0. -1.
<mgrwt>
<rscale>  2 0.36785648E+03</rscale>
<asrwt>0</asrwt>
<pdfrwt beam="1">  1       21 0.48954570E-01 0.36785648E+03</pdfrwt>
<pdfrwt beam="2">  1       21 0.18301165E+00 0.36785648E+03</pdfrwt>
<totfact> 0.59872088E+02</totfact>
</mgrwt>
</event>
<event>
 4    1  0.4382184E+000  0.1967686E+03  0.7546771E-02  0.1152494E+00
         21   -1    0    0  501  502  0.00000000000E+00  0.00000000000E+00  0.14613067002E+03  0.14613067002E+03  0.00000000000E+00 0. -1.
         21   -1    0    0  502  503 -0.00000000000E+00 -0.00000000000E+00 -0.31389544141E+03  0.31389544141E+03  0.00000000000E+00 0.  1.
          6    1    1    2  501    0 -0.45482541574E+02  0.81976843917E+02  0.69414013630E+01  0.19689095352E+03  0.17300000000E+03 0. -1.
         -6    1    1    2    0  503  0.45482541574E+02 -0.81976843917E+02 -0.17470617276E+03  0.26313515790E+03  0.17300000000E+03 0.  1.
<mgrwt>
<rscale>  2 0.19676856E+03</rscale>
<asrwt>0</asrwt>
<pdfrwt beam="1">  1       21 0.22481642E-01 0.19676856E+03</pdfrwt>
<pdfrwt beam="2">  1       21 0.48291606E-01 0.19676856E+03</pdfrwt>
<totfact> 0.75767530E+04</totfact>
</mgrwt>
</event>
<event>
 4    1  0.4382184E+000  0.1988023E+03  0.7546771E-02  0.1150753E+00
         21   -1    0    0  503  502  0.00000000000E+00  0.00000000000E+00  0.15183269276E+03  0.15183269276E+03  0.00000000000E+00 0.  1.
         21   -1    0    0  501  503 -0.00000000000E+00 -0.00000000000E+00 -0.49708000594E+03  0.49708000594E+03  0.00000000000E+00 0. -1.
          6    1    1    2  501    0  0.81305263264E+02 -0.54614947820E+02 -0.39655449253E+03  0.44359644262E+03  0.17300000000E+03 0. -1.
         -6    1    1    2    0  502 -0.81305263264E+02  0.54614947820E+02  0.51307179351E+02  0.20531625608E+03  0.17300000000E+03 0.  1.
<mgrwt>
<rscale>  2 0.19880226E+03</rscale>
<asrwt>0</asrwt>
<pdfrwt beam="1">  1       21 0.23358876E-01 0.19880226E+03</pdfrwt>
<pdfrwt beam="2">  1       21 0.76473846E-01 0.19880226E+03</pdfrwt>
<totfact> 0.26142974E+04</totfact>
</mgrwt>
</event>
<event>
 4    1  0.4382184E+000  0.4672096E+03  0.7546771E-02  0.1022711E+00
         21   -1    0    0  501  502  0.00000000000E+00  0.00000000000E+00  0.70753649112E+03  0.70753649112E+03  0.00000000000E+00 0. -1.
         21   -1    0    0  502  503 -0.00000000000E+00 -0.00000000000E+00 -0.33823695125E+03  0.33823695125E+03  0.00000000000E+00 0. -1.
          6    1    1    2  501    0 -0.17615077422E+03 -0.39664436023E+03  0.29645462431E+02  0.46814922536E+03  0.17300000000E+03 0. -1.
         -6    1    1    2    0  503  0.17615077422E+03  0.39664436023E+03  0.33965407743E+03  0.57762421701E+03  0.17300000000E+03 0. -1.
<mgrwt>
<rscale>  2 0.46720964E+03</rscale>
<asrwt>0</asrwt>
<pdfrwt beam="1">  1       21 0.10885177E+00 0.46720964E+03</pdfrwt>
<pdfrwt beam="2">  1       21 0.52036454E-01 0.46720964E+03</pdfrwt>
<totfact> 0.20108986E+03</totfact>
</mgrwt>
</event>
<event>
 4    1  0.4382184E+000  0.1802679E+03  0.7546771E-02  0.1167544E+00
         21   -1    0    0  503  502  0.00000000000E+00  0.00000000000E+00  0.91889005726E+02  0.91889005726E+02  0.00000000000E+00 0.  1.
         21   -1    0    0  501  503 -0.00000000000E+00 -0.00000000000E+00 -0.36446859628E+03  0.36446859628E+03  0.00000000000E+00 0.  1.
          6    1    1    2  501    0  0.42389929218E+02  0.27759628476E+02 -0.17560316417E+03  0.25166043459E+03  0.17300000000E+03 0.  1.
         -6    1    1    2    0  502 -0.42389929218E+02 -0.27759628476E+02 -0.96976426381E+02  0.20469716741E+03  0.17300000000E+03 0.  1.
<mgrwt>
<rscale>  2 0.18026786E+03</rscale>
<asrwt>0</asrwt>
<pdfrwt beam="1">  1       21 0.14136770E-01 0.18026786E+03</pdfrwt>
<pdfrwt beam="2">  1       21 0.56072092E-01 0.18026786E+03</pdfrwt>
<totfact> 0.13136928E+05</totfact>
</mgrwt>
</event>
<event>
 4    1  0.4382184E+000  0.2524621E+03  0.7546771E-02  0.1111759E+00
         21   -1    0    0  503  502  0.00000000000E+00  0.00000000000E+00  0.35696468873E+03  0.35696468873E+03  0.00000000000E+00 0.  1.
         21   -1    0    0  501  503 -0.00000000000E+00 -0.00000000000E+00 -0.18441403668E+03  0.18441403668E+03  0.00000000000E+00 0. -1.
          6    1    1    2  501    0 -0.99525410072E+02  0.15460529941E+03  0.13453256628E+03  0.28607012645E+03  0.17300000000E+03 0.  1.
         -6    1    1    2    0  502  0.99525410072E+02 -0.15460529941E+03  0.38018085775E+02  0.25530859896E+03  0.17300000000E+03 0.  1.
<mgrwt>
<rscale>  2 0.25246209E+03</rscale>
<asrwt>0</asrwt>
<pdfrwt beam="1">  1       21 0.54917644E-01 0.25246209E+03</pdfrwt>
<pdfrwt beam="2">  1       21 0.28371390E-01 0.25246209E+03</pdfrwt>
<totfact> 0.36114895E+04</totfact>
</mgrwt>
</event>
<event>
 4    1  0.4382184E+000  0.2005851E+03  0.7546771E-02  0.1149246E+00
         21   -1    0    0  503  502  0.00000000000E+00  0.00000000000E+00  0.28563289809E+03  0.28563289809E+03  0.00000000000E+00 0. -1.
         21   -1    0    0  501  503 -0.00000000000E+00 -0.00000000000E+00 -0.26345843941E+03  0.26345843941E+03  0.00000000000E+00 0. -1.
          6    1    1    2  501    0 -0.29618443432E+02 -0.97098631811E+02 -0.17619652290E+03  0.26698241735E+03  0.17300000000E+03 0. -1.
         -6    1    1    2    0  502  0.29618443432E+02  0.97098631811E+02  0.19837098159E+03  0.28210892015E+03  0.17300000000E+03 0. -1.
<mgrwt>
<rscale>  2 0.20058514E+03</rscale>
<asrwt>0</asrwt>
<pdfrwt beam="1">  1       21 0.43943523E-01 0.20058514E+03</pdfrwt>
<pdfrwt beam="2">  1       21 0.40532068E-01 0.20058514E+03</pdfrwt>
<totfact> 0.29049557E+04</totfact>
</mgrwt>
</event>
<event>
 4    1  0.4382184E+000  0.3221012E+03  0.7546771E-02  0.1074686E+00
         21   -1    0    0  501  502  0.00000000000E+00  0.00000000000E+00  0.51238247604E+03  0.51238247604E+03  0.00000000000E+00 0. -1.
         21   -1    0    0  502  503 -0.00000000000E+00 -0.00000000000E+00 -0.30384949000E+03  0.30384949000E+03  0.00000000000E+00 0.  1.
          6    1    1    2  501    0  0.25563522808E+03 -0.92037168340E+02  0.33998820667E+03  0.46833875653E+03  0.17300000000E+03 0. -1.
         -6    1    1    2    0  503 -0.25563522808E+03  0.92037168340E+02 -0.13145522062E+03  0.34789320951E+03  0.17300000000E+03 0.  1.
<mgrwt>
<rscale>  2 0.32210124E+03</rscale>
<asrwt>0</asrwt>
<pdfrwt beam="1">  1       21 0.78828073E-01 0.32210124E+03</pdfrwt>
<pdfrwt beam="2">  1       21 0.46746075E-01 0.32210124E+03</pdfrwt>
<totfact> 0.57679044E+03</totfact>
</mgrwt>
</event>
<event>
 4    1  0.4382184E+000  0.2189832E+03  0.7546771E-02  0.1134643E+00
         21   -1    0    0  501  502  0.00000000000E+00  0.00000000000E+00  0.59051094834E+02  0.59051094834E+02  0.00000000000E+00 0.  1.
         21   -1    0    0  502  503 -0.00000000000E+00 -0.00000000000E+00 -0.87731198916E+03  0.87731198916E+03  0.00000000000E+00 0.  1.
          6    1    1    2  501    0 -0.13415153268E+03  0.52911600576E+01 -0.28145704570E+03  0.35661141129E+03  0.17300000000E+03 0.  1.
         -6    1    1    2    0  503  0.13415153268E+03 -0.52911600576E+01 -0.53680384863E+03  0.57975167270E+03  0.17300000000E+03 0.  1.
<mgrwt>
<rscale>  2 0.21898317E+03</rscale>
<asrwt>0</asrwt>
<pdfrwt beam="1">  1       21 0.90847844E-02 0.21898317E+03</pdfrwt>
<pdfrwt beam="2">  1       21 0.13497107E+00 0.21898317E+03</pdfrwt>
<totfact> 0.37208753E+04</totfact>
</mgrwt>
</event>
<event>
 4    1  0.4382184E+000  0.2076109E+03  0.7546771E-02  0.1143472E+00
         21   -1    0    0  501  502  0.00000000000E+00  0.00000000000E+00  0.10334247415E+03  0.10334247415E+03  0.00000000000E+00 0.  1.
         21   -1    0    0  502  503 -0.00000000000E+00 -0.00000000000E+00 -0.12030215975E+04  0.12030215975E+04  0.00000000000E+00 0. -1.
          6    1    1    2  501    0 -0.42235317918E+02 -0.10672134798E+03 -0.21890342296E+02  0.20876171891E+03  0.17300000000E+03 0.  1.
         -6    1    1    2    0  503  0.42235317918E+02  0.10672134798E+03 -0.10777887810E+04  0.10976023527E+04  0.17300000000E+03 0. -1.
<mgrwt>
<rscale>  2 0.20761086E+03</rscale>
<asrwt>0</asrwt>
<pdfrwt beam="1">  1       21 0.15898843E-01 0.20761086E+03</pdfrwt>
<pdfrwt beam="2">  1       21 0.18508024E+00 0.20761086E+03</pdfrwt>
<totfact> 0.58553156E+03</totfact>
</mgrwt>
</event>
<event>
 4    1  0.4382184E+000  0.1973410E+03  0.7546771E-02  0.1152002E+00
         21   -1    0    0  503  502  0.00000000000E+00  0.00000000000E+00  0.67045925248E+03  0.67045925248E+03  0.00000000000E+00 0.  1.
         21   -1    0    0  501  503 -0.00000000000E+00 -0.00000000000E+00 -0.58988232561E+02  0.58988232561E+02  0.00000000000E+00 0.  1.
          6    1    1    2  501    0  0.59189198585E+02 -0.74236726317E+02  0.35087359513E+03  0.40256146428E+03  0.17300000000E+03 0.  1.
         -6    1    1    2    0  502 -0.59189198585E+02  0.74236726317E+02  0.26059742479E+03  0.32688602076E+03  0.17300000000E+03 0.  1.
<mgrwt>
<rscale>  2 0.19734096E+03</rscale>
<asrwt>0</asrwt>
<pdfrwt beam="1">  1       21 0.10314757E+00 0.19734096E+03</pdfrwt>
<pdfrwt beam="2">  1       21 0.90751132E-02 0.19734096E+03</pdfrwt>
<totfact> 0.73239407E+04</totfact>
</mgrwt>
</event>
<event>
 4    1  0.4382184E+000  0.1812370E+03  0.7546771E-02  0.1166611E+00
         21   -1    0    0  501  502  0.00000000000E+00  0.00000000000E+00  0.60919611349E+03  0.60919611349E+03  0.00000000000E+00 0. -1.
         21   -1    0    0  502  503 -0.00000000000E+00 -0.00000000000E+00 -0.78764493800E+02  0.78764493800E+02  0.00000000000E+00 0.  1.
          6    1    1    2  501    0 -0.30917415270E+02  0.44294168295E+02  0.45841160810E+03  0.49293819324E+03  0.17300000000E+03 0. -1.
         -6    1    1    2    0  503  0.30917415270E+02 -0.44294168295E+02  0.72020011583E+02  0.19502241405E+03  0.17300000000E+03 0.  1.
<mgrwt>
<rscale>  2 0.18123703E+03</rscale>
<asrwt>0</asrwt>
<pdfrwt beam="1">  1       21 0.93722476E-01 0.18123703E+03</pdfrwt>
<pdfrwt beam="2">  1       21 0.12117615E-01 0.18123703E+03</pdfrwt>
<totfact> 0.55439785E+04</totfact>
</mgrwt>
</event>
<event>
 4    1  0.4382184E+000  0.1788943E+03  0.7546771E-02  0.1168878E+00
         21   -1    0    0  503  502  0.00000000000E+00  0.00000000000E+00  0.43341239434E+03  0.43341239434E+03  0.00000000000E+00 0. -1.
         21   -1    0    0  501  503 -0.00000000000E+00 -0.00000000000E+00 -0.85509390443E+02  0.85509390443E+02  0.00000000000E+00 0. -1.
          6    1    1    2  501    0  0.31654791071E+02  0.32743353856E+02  0.26980100558E+03  0.32372169472E+03  0.17300000000E+03 0. -1.
         -6    1    1    2    0  502 -0.31654791071E+02 -0.32743353856E+02  0.78101998314E+02  0.19520009006E+03  0.17300000000E+03 0. -1.
<mgrwt>
<rscale>  2 0.17889425E+03</rscale>
<asrwt>0</asrwt>
<pdfrwt beam="1">  1       21 0.66678829E-01 0.17889425E+03</pdfrwt>
<pdfrwt beam="2">  1       21 0.13155291E-01 0.17889425E+03</pdfrwt>
<totfact> 0.10311572E+05</totfact>
</mgrwt>
</event>
<event>
 4    1  0.4382184E+000  0.2747971E+03  0.7546771E-02  0.1098565E+00
         21   -1    0    0  501  502  0.00000000000E+00  0.00000000000E+00  0.32794628585E+03  0.32794628585E+03  0.00000000000E+00 0. -1.
         21   -1    0    0  502  503 -0.00000000000E+00 -0.00000000000E+00 -0.78690077865E+03  0.78690077865E+03  0.00000000000E+00 0.  1.
          6    1    1    2  501    0  0.73849615655E+02  0.20032637357E+03  0.23934932113E+03  0.36441942759E+03  0.17300000000E+03 0. -1.
         -6    1    1    2    0  503 -0.73849615655E+02 -0.20032637357E+03 -0.69830381393E+03  0.75042763690E+03  0.17300000000E+03 0.  1.
<mgrwt>
<rscale>  2 0.27479706E+03</rscale>
<asrwt>0</asrwt>
<pdfrwt beam="1">  1       21 0.50453275E-01 0.27479706E+03</pdfrwt>
<pdfrwt beam="2">  1       21 0.12106166E+00 0.27479706E+03</pdfrwt>
<totfact> 0.18096404E+03</totfact>
</mgrwt>
</event>
<event>
 4    1  0.4382184E+000  0.2834524E+03  0.7546771E-02  0.1093818E+00
         21   -1    0    0  503  502  0.00000000000E+00  0.00000000000E+00  0.27020274074E+03  0.27020274074E+03  0.00000000000E+00 0. -1.
         21   -1    0    0  501  503 -0.00000000000E+00 -0.00000000000E+00 -0.31171865042E+03  0.31171865042E+03  0.00000000000E+00 0. -1.
          6    1    1    2  501    0 -0.26795738368E+02  0.22293106840E+03 -0.83222507214E+02  0.29541709253E+03  0.17300000000E+03 0. -1.
         -6    1    1    2    0  502  0.26795738368E+02 -0.22293106840E+03  0.41706597529E+02  0.28650429863E+03  0.17300000000E+03 0. -1.
<mgrwt>
<rscale>  2 0.28345242E+03</rscale>
<asrwt>0</asrwt>
<pdfrwt beam="1">  1       21 0.41569653E-01 0.28345242E+03</pdfrwt>
<pdfrwt beam="2">  1       21 0.47956715E-01 0.28345242E+03</pdfrwt>
<totfact> 0.22129535E+04</totfact>
</mgrwt>
</event>
<event>
 4    1  0.4382184E+000  0.2912781E+03  0.7546771E-02  0.1089684E+00
         21   -1    0    0  503  502  0.00000000000E+00  0.00000000000E+00  0.87284122935E+02  0.87284122935E+02  0.00000000000E+00 0. -1.
         21   -1    0    0  501  503 -0.00000000000E+00 -0.00000000000E+00 -0.97215679785E+03  0.97215679785E+03  0.00000000000E+00 0. -1.
          6    1    1    2  501    0 -0.13321834278E+03  0.19278693837E+03 -0.44844643939E+03  0.53474025420E+03  0.17300000000E+03 0. -1.
         -6    1    1    2    0  502  0.13321834278E+03 -0.19278693837E+03 -0.43642623552E+03  0.52470066658E+03  0.17300000000E+03 0. -1.
<mgrwt>
<rscale>  2 0.29127810E+03</rscale>
<asrwt>0</asrwt>
<pdfrwt beam="1">  1       21 0.13428325E-01 0.29127810E+03</pdfrwt>
<pdfrwt beam="2">  1       21 0.14956260E+00 0.29127810E+03</pdfrwt>
<totfact> 0.13614234E+04</totfact>
</mgrwt>
</event>
<event>
 4    1  0.4382184E+000  0.2856640E+03  0.7546771E-02  0.1092635E+00
         21   -1    0    0  503  502  0.00000000000E+00  0.00000000000E+00  0.73938433212E+03  0.73938433212E+03  0.00000000000E+00 0.  1.
         21   -1    0    0  501  503 -0.00000000000E+00 -0.00000000000E+00 -0.11606488501E+03  0.11606488501E+03  0.00000000000E+00 0.  1.
          6    1    1    2  501    0  0.19976856163E+03  0.10847777319E+03  0.40642658224E+03  0.49677607857E+03  0.17300000000E+03 0.  1.
         -6    1    1    2    0  502 -0.19976856163E+03 -0.10847777319E+03  0.21689286487E+03  0.35867313855E+03  0.17300000000E+03 0.  1.
<mgrwt>
<rscale>  2 0.28566397E+03</rscale>
<asrwt>0</asrwt>
<pdfrwt beam="1">  1       21 0.11375143E+00 0.28566397E+03</pdfrwt>
<pdfrwt beam="2">  1       21 0.17856137E-01 0.28566397E+03</pdfrwt>
<totfact> 0.16294244E+04</totfact>
</mgrwt>
</event>
<event>
 4    1  0.4382184E+000  0.1791084E+03  0.7546771E-02  0.1168669E+00
         21   -1    0    0  501  502  0.00000000000E+00  0.00000000000E+00  0.11678098836E+03  0.11678098836E+03  0.00000000000E+00 0. -1.
         21   -1    0    0  502  503 -0.00000000000E+00 -0.00000000000E+00 -0.27492357574E+03  0.27492357574E+03  0.00000000000E+00 0. -1.
          6    1    1    2  501    0  0.46212819352E+02 -0.38979454010E+01 -0.73494827855E+02  0.19360089972E+03  0.17300000000E+03 0.  1.
         -6    1    1    2    0  503 -0.46212819352E+02  0.38979454010E+01 -0.84647759523E+02  0.19810366439E+03  0.17300000000E+03 0.  1.
<mgrwt>
<rscale>  2 0.17910840E+03</rscale>
<asrwt>0</asrwt>
<pdfrwt beam="1">  1       21 0.17966306E-01 0.17910840E+03</pdfrwt>
<pdfrwt beam="2">  1       21 0.42295934E-01 0.17910840E+03</pdfrwt>
<totfact> 0.15219932E+05</totfact>
</mgrwt>
</event>
<event>
 4    1  0.4382184E+000  0.1757477E+03  0.7546771E-02  0.1171983E+00
         21   -1    0    0  503  502  0.00000000000E+00  0.00000000000E+00  0.94468524645E+02  0.94468524645E+02  0.00000000000E+00 0.  1.
         21   -1    0    0  501  503 -0.00000000000E+00 -0.00000000000E+00 -0.36223989234E+03  0.36223989234E+03  0.00000000000E+00 0.  1.
          6    1    1    2  501    0 -0.30231152503E+02  0.66579202514E+01 -0.62619069668E+02  0.18657008970E+03  0.17300000000E+03 0.  1.
         -6    1    1    2    0  502  0.30231152503E+02 -0.66579202514E+01 -0.20515229803E+03  0.27013832729E+03  0.17300000000E+03 0.  1.
<mgrwt>
<rscale>  2 0.17574769E+03</rscale>
<asrwt>0</asrwt>
<pdfrwt beam="1">  1       21 0.14533619E-01 0.17574769E+03</pdfrwt>
<pdfrwt beam="2">  1       21 0.55729214E-01 0.17574769E+03</pdfrwt>
<totfact> 0.12678316E+05</totfact>
</mgrwt>
</event>
<event>
 4    1  0.4382184E+000  0.1807222E+03  0.7546771E-02  0.1167106E+00
         21   -1    0    0  503  502  0.00000000000E+00  0.00000000000E+00  0.80773620140E+02  0.80773620140E+02  0.00000000000E+00 0. -1.
         21   -1    0    0  501  503 -0.00000000000E+00 -0.00000000000E+00 -0.46217058043E+03  0.46217058043E+03  0.00000000000E+00 0. -1.
          6    1    1    2  501    0  0.44314421717E+02  0.27708069561E+02 -0.28672243916E+03  0.33892515724E+03  0.17300000000E+03 0. -1.
         -6    1    1    2    0  502 -0.44314421717E+02 -0.27708069561E+02 -0.94674521127E+02  0.20401904333E+03  0.17300000000E+03 0. -1.
<mgrwt>
<rscale>  2 0.18072218E+03</rscale>
<asrwt>0</asrwt>
<pdfrwt beam="1">  1       21 0.12426711E-01 0.18072218E+03</pdfrwt>
<pdfrwt beam="2">  1       21 0.71103167E-01 0.18072218E+03</pdfrwt>
<totfact> 0.99128608E+04</totfact>
</mgrwt>
</event>
<event>
 4    1  0.4382184E+000  0.4561764E+03  0.7546771E-02  0.1025896E+00
         21   -1    0    0  501  502  0.00000000000E+00  0.00000000000E+00  0.17614818049E+04  0.17614818049E+04  0.00000000000E+00 0.  1.
         21   -1    0    0  502  503 -0.00000000000E+00 -0.00000000000E+00 -0.12265836602E+03  0.12265836602E+03  0.00000000000E+00 0.  1.
          6    1    1    2  501    0  0.40252037739E+03  0.12706411022E+03  0.10002742336E+04  0.10993841388E+04  0.17300000000E+03 0.  1.
         -6    1    1    2    0  503 -0.40252037739E+03 -0.12706411022E+03  0.63854920528E+03  0.78475603208E+03  0.17300000000E+03 0.  1.
<mgrwt>
<rscale>  2 0.45617644E+03</rscale>
<asrwt>0</asrwt>
<pdfrwt beam="1">  1       21 0.27099718E+00 0.45617644E+03</pdfrwt>
<pdfrwt beam="2">  1       21 0.18870519E-01 0.45617644E+03</pdfrwt>
<totfact> 0.10500399E+03</totfact>
</mgrwt>
</event>
<event>
 4    1  0.4382184E+000  0.4045385E+03  0.7546771E-02  0.1042219E+00
         21   -1    0    0  501  502  0.00000000000E+00  0.00000000000E+00  0.79887414920E+03  0.79887414920E+03  0.00000000000E+00 0. -1.
         21   -1    0    0  502  503 -0.00000000000E+00 -0.00000000000E+00 -0.39992254289E+03  0.39992254289E+03  0.00000000000E+00 0.  1.
          6    1    1    2  501    0 -0.73417774787E+01 -0.36560701717E+03  0.61809857701E+03  0.73871323502E+03  0.17300000000E+03 0. -1.
         -6    1    1    2    0  503  0.73417774787E+01  0.36560701717E+03 -0.21914697069E+03  0.46008345706E+03  0.17300000000E+03 0.  1.
<mgrwt>
<rscale>  2 0.40453849E+03</rscale>
<asrwt>0</asrwt>
<pdfrwt beam="1">  1       21 0.12290371E+00 0.40453849E+03</pdfrwt>
<pdfrwt beam="2">  1       21 0.61526545E-01 0.40453849E+03</pdfrwt>
<totfact> 0.10580267E+03</totfact>
</mgrwt>
</event>
<event>
 4    1  0.4382184E+000  0.2463307E+03  0.7546771E-02  0.1115646E+00
         21   -1    0    0  503  502  0.00000000000E+00  0.00000000000E+00  0.19866109109E+03  0.19866109109E+03  0.00000000000E+00 0. -1.
         21   -1    0    0  501  503 -0.00000000000E+00 -0.00000000000E+00 -0.31134678248E+03  0.31134678248E+03  0.00000000000E+00 0.  1.
          6    1    1    2  501    0  0.16804691335E+03  0.50100470739E+02 -0.21215838405E+02  0.24724266228E+03  0.17300000000E+03 0. -1.
         -6    1    1    2    0  502 -0.16804691335E+03 -0.50100470739E+02 -0.91469852987E+02  0.26276521128E+03  0.17300000000E+03 0.  1.
<mgrwt>
<rscale>  2 0.24633072E+03</rscale>
<asrwt>0</asrwt>
<pdfrwt beam="1">  1       21 0.30563245E-01 0.24633072E+03</pdfrwt>
<pdfrwt beam="2">  1       21 0.47899505E-01 0.24633072E+03</pdfrwt>
<totfact> 0.41749529E+04</totfact>
</mgrwt>
</event>
<event>
 4    1  0.4382184E+000  0.2534451E+03  0.7546771E-02  0.1111147E+00
         21   -1    0    0  501  502  0.00000000000E+00  0.00000000000E+00  0.28959684845E+02  0.28959684845E+02  0.00000000000E+00 0. -1.
         21   -1    0    0  502  503 -0.00000000000E+00 -0.00000000000E+00 -0.23717489523E+04  0.23717489523E+04  0.00000000000E+00 0.  1.
          6    1    1    2  501    0 -0.18521600334E+03 -0.67886243035E+00 -0.86583846915E+03  0.90216998587E+03  0.17300000000E+03 0. -1.
         -6    1    1    2    0  503  0.18521600334E+03  0.67886243035E+00 -0.14769507983E+04  0.14985386513E+04  0.17300000000E+03 0.  1.
<mgrwt>
<rscale>  2 0.25344512E+03</rscale>
<asrwt>0</asrwt>
<pdfrwt beam="1">  1       21 0.44553371E-02 0.25344512E+03</pdfrwt>
<pdfrwt beam="2">  1       21 0.36488438E+00 0.25344512E+03</pdfrwt>
<totfact> 0.43494395E+03</totfact>
</mgrwt>
</event>
<event>
 4    1  0.4382184E+000  0.1730930E+03  0.7546771E-02  0.1174660E+00
         21   -1    0    0  503  502  0.00000000000E+00  0.00000000000E+00  0.21301257099E+02  0.21301257099E+02  0.00000000000E+00 0. -1.
         21   -1    0    0  501  503 -0.00000000000E+00 -0.00000000000E+00 -0.14116996132E+04  0.14116996132E+04  0.00000000000E+00 0. -1.
          6    1    1    2  501    0 -0.54638255674E+01 -0.15223130791E+01 -0.73849588836E+03  0.75850995244E+03  0.17300000000E+03 0.  1.
         -6    1    1    2    0  502  0.54638255674E+01  0.15223130791E+01 -0.65190246773E+03  0.67449091785E+03  0.17300000000E+03 0.  1.
<mgrwt>
<rscale>  2 0.17309295E+03</rscale>
<asrwt>0</asrwt>
<pdfrwt beam="1">  1       21 0.32771153E-02 0.17309295E+03</pdfrwt>
<pdfrwt beam="2">  1       21 0.21718464E+00 0.17309295E+03</pdfrwt>
<totfact> 0.57994895E+04</totfact>
</mgrwt>
</event>
<event>
 4    1  0.4382184E+000  0.1917788E+03  0.7546771E-02  0.1156867E+00
         21   -1    0    0  503  502  0.00000000000E+00  0.00000000000E+00  0.34600397414E+03  0.34600397414E+03  0.00000000000E+00 0. -1.
         21   -1    0    0  501  503 -0.00000000000E+00 -0.00000000000E+00 -0.25463387949E+03  0.25463387949E+03  0.00000000000E+00 0. -1.
          6    1    1    2  501    0 -0.81356303737E+02  0.15206712232E+02 -0.18353340153E+03  0.26544981019E+03  0.17300000000E+03 0. -1.
         -6    1    1    2    0  502  0.81356303737E+02 -0.15206712232E+02  0.27490349618E+03  0.33518804344E+03  0.17300000000E+03 0. -1.
<mgrwt>
<rscale>  2 0.19177876E+03</rscale>
<asrwt>0</asrwt>
<pdfrwt beam="1">  1       21 0.53231380E-01 0.19177876E+03</pdfrwt>
<pdfrwt beam="2">  1       21 0.39174443E-01 0.19177876E+03</pdfrwt>
<totfact> 0.21006834E+04</totfact>
</mgrwt>
</event>
<event>
 4    1  0.4382184E+000  0.1779821E+03  0.7546771E-02  0.1169770E+00
         21   -1    0    0  501  502  0.00000000000E+00  0.00000000000E+00  0.57171787585E+03  0.57171787585E+03  0.00000000000E+00 0.  1.
         21   -1    0    0  502  503 -0.00000000000E+00 -0.00000000000E+00 -0.69932404887E+02  0.69932404887E+02  0.00000000000E+00 0.  1.
          6    1    1    2  501    0  0.41441541248E+02 -0.55887302043E+01  0.39710411690E+03  0.43516584759E+03  0.17300000000E+03 0.  1.
         -6    1    1    2    0  503 -0.41441541248E+02  0.55887302043E+01  0.10468135407E+03  0.20648443316E+03  0.17300000000E+03 0.  1.
<mgrwt>
<rscale>  2 0.17798212E+03</rscale>
<asrwt>0</asrwt>
<pdfrwt beam="1">  1       21 0.87956593E-01 0.17798212E+03</pdfrwt>
<pdfrwt beam="2">  1       21 0.10758832E-01 0.17798212E+03</pdfrwt>
<totfact> 0.79472332E+04</totfact>
</mgrwt>
</event>
<event>
 4    1  0.4382184E+000  0.2478378E+03  0.7546771E-02  0.1114679E+00
         21   -1    0    0  503  502  0.00000000000E+00  0.00000000000E+00  0.54210778138E+03  0.54210778138E+03  0.00000000000E+00 0.  1.
         21   -1    0    0  501  503 -0.00000000000E+00 -0.00000000000E+00 -0.15812333935E+03  0.15812333935E+03  0.00000000000E+00 0.  1.
          6    1    1    2  501    0  0.62037799499E+02  0.16627048029E+03  0.55943465635E+01  0.24790090338E+03  0.17300000000E+03 0.  1.
         -6    1    1    2    0  502 -0.62037799499E+02 -0.16627048029E+03  0.37839009547E+03  0.45233021735E+03  0.17300000000E+03 0.  1.
<mgrwt>
<rscale>  2 0.24783777E+03</rscale>
<asrwt>0</asrwt>
<pdfrwt beam="1">  1       21 0.83401196E-01 0.24783777E+03</pdfrwt>
<pdfrwt beam="2">  1       21 0.24326668E-01 0.24783777E+03</pdfrwt>
<totfact> 0.19358730E+04</totfact>
</mgrwt>
</event>
<event>
 4    1  0.4382184E+000  0.2082353E+03  0.7546771E-02  0.1142971E+00
         21   -1    0    0  503  502  0.00000000000E+00  0.00000000000E+00  0.52593919455E+03  0.52593919455E+03  0.00000000000E+00 0. -1.
         21   -1    0    0  501  503 -0.00000000000E+00 -0.00000000000E+00 -0.11880122592E+03  0.11880122592E+03  0.00000000000E+00 0.  1.
          6    1    1    2  501    0 -0.85761346269E+02  0.77961180054E+02  0.25239296725E+02  0.20975932925E+03  0.17300000000E+03 0.  1.
         -6    1    1    2    0  502  0.85761346269E+02 -0.77961180054E+02  0.38189867191E+03  0.43498109122E+03  0.17300000000E+03 0. -1.
<mgrwt>
<rscale>  2 0.20823533E+03</rscale>
<asrwt>0</asrwt>
<pdfrwt beam="1">  1       21 0.80913721E-01 0.20823533E+03</pdfrwt>
<pdfrwt beam="2">  1       21 0.18277112E-01 0.20823533E+03</pdfrwt>
<totfact> 0.36282220E+04</totfact>
</mgrwt>
</event>
<event>
 4    1  0.4382184E+000  0.1748828E+03  0.7546771E-02  0.1172849E+00
         21   -1    0    0  501  502  0.00000000000E+00  0.00000000000E+00  0.23061064554E+03  0.23061064554E+03  0.00000000000E+00 0.  1.
         21   -1    0    0  502  503 -0.00000000000E+00 -0.00000000000E+00 -0.13366276254E+03  0.13366276254E+03  0.00000000000E+00 0.  1.
          6    1    1    2  501    0  0.24613511308E+02  0.70114882162E+01  0.64547852924E+02  0.18641462181E+03  0.17300000000E+03 0. -1.
         -6    1    1    2    0  503 -0.24613511308E+02 -0.70114882162E+01  0.32400030075E+02  0.17785878627E+03  0.17300000000E+03 0. -1.
<mgrwt>
<rscale>  2 0.17488278E+03</rscale>
<asrwt>0</asrwt>
<pdfrwt beam="1">  1       21 0.35478561E-01 0.17488278E+03</pdfrwt>
<pdfrwt beam="2">  1       21 0.20563502E-01 0.17488278E+03</pdfrwt>
<totfact> 0.16878322E+05</totfact>
</mgrwt>
</event>
<event>
 4    1  0.4382184E+000  0.1772900E+03  0.7546771E-02  0.1170452E+00
         21   -1    0    0  503  502  0.00000000000E+00  0.00000000000E+00  0.61633757504E+03  0.61633757504E+03  0.00000000000E+00 0.  1.
         21   -1    0    0  501  503 -0.00000000000E+00 -0.00000000000E+00 -0.59135042326E+02  0.59135042326E+02  0.00000000000E+00 0.  1.
          6    1    1    2  501    0 -0.38098621063E+02  0.71584385115E+01  0.15331635222E+03  0.23438782398E+03  0.17300000000E+03 0. -1.
         -6    1    1    2    0  502  0.38098621063E+02 -0.71584385115E+01  0.40388618049E+03  0.44108479339E+03  0.17300000000E+03 0. -1.
<mgrwt>
<rscale>  2 0.17729001E+03</rscale>
<asrwt>0</asrwt>
<pdfrwt beam="1">  1       21 0.94821161E-01 0.17729001E+03</pdfrwt>
<pdfrwt beam="2">  1       21 0.90976992E-02 0.17729001E+03</pdfrwt>
<totfact> 0.89762056E+04</totfact>
</mgrwt>
</event>
<event>
 4    1  0.4382184E+000  0.1737189E+03  0.7546771E-02  0.1174024E+00
         21   -1    0    0  501  502  0.00000000000E+00  0.00000000000E+00  0.36655503211E+02  0.36655503211E+02  0.00000000000E+00 0. -1.
         21   -1    0    0  502  503 -0.00000000000E+00 -0.00000000000E+00 -0.82757696806E+03  0.82757696806E+03  0.00000000000E+00 0. -1.
          6    1    1    2  501    0  0.15772999749E+02  0.69128184893E+00 -0.36437539246E+03  0.40366779909E+03  0.17300000000E+03 0. -1.
         -6    1    1    2    0  503 -0.15772999749E+02 -0.69128184893E+00 -0.42654607239E+03  0.46056467218E+03  0.17300000000E+03 0. -1.
<mgrwt>
<rscale>  2 0.17371893E+03</rscale>
<asrwt>0</asrwt>
<pdfrwt beam="1">  1       21 0.56393087E-02 0.17371893E+03</pdfrwt>
<pdfrwt beam="2">  1       21 0.12731952E+00 0.17371893E+03</pdfrwt>
<totfact> 0.10070777E+05</totfact>
</mgrwt>
</event>
<event>
 4    1  0.4382184E+000  0.1985906E+03  0.7546771E-02  0.1150934E+00
         21   -1    0    0  503  502  0.00000000000E+00  0.00000000000E+00  0.71969174447E+03  0.71969174447E+03  0.00000000000E+00 0. -1.
         21   -1    0    0  501  503 -0.00000000000E+00 -0.00000000000E+00 -0.55566648927E+02  0.55566648927E+02  0.00000000000E+00 0. -1.
          6    1    1    2  501    0  0.75097340749E+02  0.62206375000E+02  0.28649586827E+03  0.34859450113E+03  0.17300000000E+03 0. -1.
         -6    1    1    2    0  502 -0.75097340749E+02 -0.62206375000E+02  0.37762922727E+03  0.42666389227E+03  0.17300000000E+03 0. -1.
<mgrwt>
<rscale>  2 0.19859064E+03</rscale>
<asrwt>0</asrwt>
<pdfrwt beam="1">  1       21 0.11072180E+00 0.19859064E+03</pdfrwt>
<pdfrwt beam="2">  1       21 0.85487157E-02 0.19859064E+03</pdfrwt>
<totfact> 0.68515066E+04</totfact>
</mgrwt>
</event>
<event>
 4    1  0.4382184E+000  0.1928376E+03  0.7546771E-02  0.1155927E+00
         21   -1    0    0  503  502  0.00000000000E+00  0.00000000000E+00  0.42492252420E+03  0.42492252420E+03  0.00000000000E+00 0.  1.
         21   -1    0    0  501  503 -0.00000000000E+00 -0.00000000000E+00 -0.92492766052E+02  0.92492766052E+02  0.00000000000E+00 0.  1.
          6    1    1    2  501    0  0.58690645831E+02 -0.61747543541E+02  0.22624219886E+03  0.29727408832E+03  0.17300000000E+03 0.  1.
         -6    1    1    2    0  502 -0.58690645831E+02  0.61747543541E+02  0.10618755929E+03  0.22014120194E+03  0.17300000000E+03 0.  1.
<mgrwt>
<rscale>  2 0.19283763E+03</rscale>
<asrwt>0</asrwt>
<pdfrwt beam="1">  1       21 0.65372695E-01 0.19283763E+03</pdfrwt>
<pdfrwt beam="2">  1       21 0.14229657E-01 0.19283763E+03</pdfrwt>
<totfact> 0.92928638E+04</totfact>
</mgrwt>
</event>
<event>
 4    1  0.4382184E+000  0.2775374E+03  0.7546771E-02  0.1097042E+00
         21   -1    0    0  501  502  0.00000000000E+00  0.00000000000E+00  0.42459703306E+03  0.42459703306E+03  0.00000000000E+00 0.  1.
         21   -1    0    0  502  503 -0.00000000000E+00 -0.00000000000E+00 -0.20674474603E+03  0.20674474603E+03  0.00000000000E+00 0.  1.
          6    1    1    2  501    0  0.20520373921E+03 -0.70635782400E+02  0.21942520815E+03  0.35379995805E+03  0.17300000000E+03 0.  1.
         -6    1    1    2    0  503 -0.20520373921E+03  0.70635782400E+02 -0.15729211175E+01  0.27754182104E+03  0.17300000000E+03 0.  1.
<mgrwt>
<rscale>  2 0.27753736E+03</rscale>
<asrwt>0</asrwt>
<pdfrwt beam="1">  1       21 0.65322621E-01 0.27753736E+03</pdfrwt>
<pdfrwt beam="2">  1       21 0.31806884E-01 0.27753736E+03</pdfrwt>
<totfact> 0.19608944E+04</totfact>
</mgrwt>
</event>
<event>
 4    1  0.4382184E+000  0.1822602E+03  0.7546771E-02  0.1165633E+00
         21   -1    0    0  503  502  0.00000000000E+00  0.00000000000E+00  0.82306005456E+03  0.82306005456E+03  0.00000000000E+00 0.  1.
         21   -1    0    0  501  503 -0.00000000000E+00 -0.00000000000E+00 -0.44968811061E+02  0.44968811061E+02  0.00000000000E+00 0. -1.
          6    1    1    2  501    0  0.52880584430E+02 -0.22212870754E+02  0.25010179503E+03  0.30946676028E+03  0.17300000000E+03 0.  1.
         -6    1    1    2    0  502 -0.52880584430E+02  0.22212870754E+02  0.52798944847E+03  0.55856210535E+03  0.17300000000E+03 0.  1.
<mgrwt>
<rscale>  2 0.18226017E+03</rscale>
<asrwt>0</asrwt>
<pdfrwt beam="1">  1       21 0.12662461E+00 0.18226017E+03</pdfrwt>
<pdfrwt beam="2">  1       21 0.69182792E-02 0.18226017E+03</pdfrwt>
<totfact> 0.71648311E+04</totfact>
</mgrwt>
</event>
<event>
 4    1  0.4382184E+000  0.2195698E+03  0.7546771E-02  0.1134204E+00
         21   -1    0    0  503  502  0.00000000000E+00  0.00000000000E+00  0.40062679417E+03  0.40062679417E+03  0.00000000000E+00 0.  1.
         21   -1    0    0  501  503 -0.00000000000E+00 -0.00000000000E+00 -0.14133795778E+03  0.14133795778E+03  0.00000000000E+00 0.  1.
          6    1    1    2  501    0 -0.11580707560E+03 -0.69789837573E+02  0.23409570724E+03  0.32095435865E+03  0.17300000000E+03 0.  1.
         -6    1    1    2    0  502  0.11580707560E+03  0.69789837573E+02  0.25193129156E+02  0.22101039330E+03  0.17300000000E+03 0.  1.
<mgrwt>
<rscale>  2 0.21956981E+03</rscale>
<asrwt>0</asrwt>
<pdfrwt beam="1">  1       21 0.61634891E-01 0.21956981E+03</pdfrwt>
<pdfrwt beam="2">  1       21 0.21744301E-01 0.21956981E+03</pdfrwt>
<totfact> 0.47633759E+04</totfact>
</mgrwt>
</event>
<event>
 4    1  0.4382184E+000  0.2369678E+03  0.7546771E-02  0.1121829E+00
         21   -1    0    0  503  502  0.00000000000E+00  0.00000000000E+00  0.40010645294E+03  0.40010645294E+03  0.00000000000E+00 0.  1.
         21   -1    0    0  501  503 -0.00000000000E+00 -0.00000000000E+00 -0.17559313686E+03  0.17559313686E+03  0.00000000000E+00 0.  1.
          6    1    1    2  501    0  0.10406319522E+03  0.12407887613E+03 -0.16707281313E+02  0.23755599203E+03  0.17300000000E+03 0.  1.
         -6    1    1    2    0  502 -0.10406319522E+03 -0.12407887613E+03  0.24122059740E+03  0.33814359777E+03  0.17300000000E+03 0.  1.
<mgrwt>
<rscale>  2 0.23696775E+03</rscale>
<asrwt>0</asrwt>
<pdfrwt beam="1">  1       21 0.61554839E-01 0.23696775E+03</pdfrwt>
<pdfrwt beam="2">  1       21 0.27014329E-01 0.23696775E+03</pdfrwt>
<totfact> 0.31299321E+04</totfact>
</mgrwt>
</event>
<event>
 4    1  0.4382184E+000  0.2421669E+03  0.7546771E-02  0.1118358E+00
         21   -1    0    0  503  502  0.00000000000E+00  0.00000000000E+00  0.34178129354E+03  0.34178129354E+03  0.00000000000E+00 0.  1.
         21   -1    0    0  501  503 -0.00000000000E+00 -0.00000000000E+00 -0.27557419388E+03  0.27557419388E+03  0.00000000000E+00 0. -1.
          6    1    1    2  501    0  0.35817571870E+02  0.16562887625E+03 -0.15651396061E+03  0.28834257918E+03  0.17300000000E+03 0. -1.
         -6    1    1    2    0  502 -0.35817571870E+02 -0.16562887625E+03  0.22272106027E+03  0.32901290824E+03  0.17300000000E+03 0.  1.
<mgrwt>
<rscale>  2 0.24216693E+03</rscale>
<asrwt>0</asrwt>
<pdfrwt beam="1">  1       21 0.52581738E-01 0.24216693E+03</pdfrwt>
<pdfrwt beam="2">  1       21 0.42396030E-01 0.24216693E+03</pdfrwt>
<totfact> 0.17848567E+04</totfact>
</mgrwt>
</event>
<event>
 4    1  0.4382184E+000  0.1801063E+03  0.7546771E-02  0.1167700E+00
         21   -1    0    0  501  502  0.00000000000E+00  0.00000000000E+00  0.29734001141E+03  0.29734001141E+03  0.00000000000E+00 0. -1.
         21   -1    0    0  502  503 -0.00000000000E+00 -0.00000000000E+00 -0.13405029108E+03  0.13405029108E+03  0.00000000000E+00 0. -1.
          6    1    1    2  501    0 -0.48238656249E+02 -0.13501999826E+02  0.17471039820E+03  0.25092228915E+03  0.17300000000E+03 0. -1.
         -6    1    1    2    0  503  0.48238656249E+02  0.13501999826E+02 -0.11420677873E+02  0.18046801334E+03  0.17300000000E+03 0. -1.
<mgrwt>
<rscale>  2 0.18010628E+03</rscale>
<asrwt>0</asrwt>
<pdfrwt beam="1">  1       21 0.45744617E-01 0.18010628E+03</pdfrwt>
<pdfrwt beam="2">  1       21 0.20623122E-01 0.18010628E+03</pdfrwt>
<totfact> 0.10032856E+05</totfact>
</mgrwt>
</event>
<event>
 4    1  0.4382184E+000  0.1736826E+03  0.7546771E-02  0.1174061E+00
         21   -1    0    0  503  502  0.00000000000E+00  0.00000000000E+00  0.81816317134E+02  0.81816317134E+02  0.00000000000E+00 0.  1.
         21   -1    0    0  501  503 -0.00000000000E+00 -0.00000000000E+00 -0.60067711562E+03  0.60067711562E+03  0.00000000000E+00 0.  1.
          6    1    1    2  501    0  0.12786745658E+01 -0.15330342728E+02 -0.47149625933E+03  0.50246828455E+03  0.17300000000E+03 0.  1.
         -6    1    1    2    0  502 -0.12786745658E+01  0.15330342728E+02 -0.47364539159E+02  0.18002514821E+03  0.17300000000E+03 0.  1.
<mgrwt>
<rscale>  2 0.17368263E+03</rscale>
<asrwt>0</asrwt>
<pdfrwt beam="1">  1       21 0.12587126E-01 0.17368263E+03</pdfrwt>
<pdfrwt beam="2">  1       21 0.92411861E-01 0.17368263E+03</pdfrwt>
<totfact> 0.53720394E+04</totfact>
</mgrwt>
</event>
<event>
 4    1  0.4382184E+000  0.3594083E+03  0.7546771E-02  0.1058818E+00
         21   -1    0    0  501  502  0.00000000000E+00  0.00000000000E+00  0.13656619705E+03  0.13656619705E+03  0.00000000000E+00 0.  1.
         21   -1    0    0  502  503 -0.00000000000E+00 -0.00000000000E+00 -0.94932698439E+03  0.94932698439E+03  0.00000000000E+00 0.  1.
          6    1    1    2  501    0  0.24001947892E+03  0.20404901366E+03 -0.37363302884E+03  0.51843610066E+03  0.17300000000E+03 0.  1.
         -6    1    1    2    0  503 -0.24001947892E+03 -0.20404901366E+03 -0.43912775851E+03  0.56745708078E+03  0.17300000000E+03 0.  1.
<mgrwt>
<rscale>  2 0.35940833E+03</rscale>
<asrwt>0</asrwt>
<pdfrwt beam="1">  1       21 0.21010185E-01 0.35940833E+03</pdfrwt>
<pdfrwt beam="2">  1       21 0.14605030E+00 0.35940833E+03</pdfrwt>
<totfact> 0.61119552E+03</totfact>
</mgrwt>
</event>
<event>
 4    1  0.4382184E+000  0.1903992E+03  0.7546771E-02  0.1158102E+00
         21   -1    0    0  501  502  0.00000000000E+00  0.00000000000E+00  0.21054217754E+03  0.21054217754E+03  0.00000000000E+00 0.  1.
         21   -1    0    0  502  503 -0.00000000000E+00 -0.00000000000E+00 -0.17276187203E+03  0.17276187203E+03  0.00000000000E+00 0. -1.
          6    1    1    2  501    0 -0.36217383330E+02  0.70789576527E+02  0.29980356120E+02  0.19274512900E+03  0.17300000000E+03 0. -1.
         -6    1    1    2    0  503  0.36217383330E+02 -0.70789576527E+02  0.77999493910E+01  0.19055892057E+03  0.17300000000E+03 0.  1.
<mgrwt>
<rscale>  2 0.19039922E+03</rscale>
<asrwt>0</asrwt>
<pdfrwt beam="1">  1       21 0.32391104E-01 0.19039922E+03</pdfrwt>
<pdfrwt beam="2">  1       21 0.26578750E-01 0.19039922E+03</pdfrwt>
<totfact> 0.12363503E+05</totfact>
</mgrwt>
</event>
<event>
 4    1  0.4382184E+000  0.3321421E+03  0.7546771E-02  0.1070193E+00
         21   -1    0    0  501  502  0.00000000000E+00  0.00000000000E+00  0.74596616945E+02  0.74596616945E+02  0.00000000000E+00 0. -1.
         21   -1    0    0  502  503 -0.00000000000E+00 -0.00000000000E+00 -0.16498538631E+04  0.16498538631E+04  0.00000000000E+00 0.  1.
          6    1    1    2  501    0 -0.26928998851E+03  0.88725674923E+02 -0.51005281729E+03  0.60866429148E+03  0.17300000000E+03 0. -1.
         -6    1    1    2    0  503  0.26928998851E+03 -0.88725674923E+02 -0.10652044288E+04  0.11157861885E+04  0.17300000000E+03 0.  1.
<mgrwt>
<rscale>  2 0.33214205E+03</rscale>
<asrwt>0</asrwt>
<pdfrwt beam="1">  1       21 0.11476403E-01 0.33214205E+03</pdfrwt>
<pdfrwt beam="2">  1       21 0.25382367E+00 0.33214205E+03</pdfrwt>
<totfact> 0.35802790E+03</totfact>
</mgrwt>
</event>
<event>
 4    1  0.4382184E+000  0.2063832E+03  0.7546771E-02  0.1144463E+00
         21   -1    0    0  501  502  0.00000000000E+00  0.00000000000E+00  0.55305406284E+03  0.55305406284E+03  0.00000000000E+00 0.  1.
         21   -1    0    0  502  503 -0.00000000000E+00 -0.00000000000E+00 -0.91288536800E+02  0.91288536800E+02  0.00000000000E+00 0. -1.
          6    1    1    2  501    0  0.34122662607E+02 -0.10724117288E+03  0.10349463991E+03  0.23087911503E+03  0.17300000000E+03 0. -1.
         -6    1    1    2    0  503 -0.34122662607E+02  0.10724117288E+03  0.35827088613E+03  0.41346348462E+03  0.17300000000E+03 0.  1.
<mgrwt>
<rscale>  2 0.20638320E+03</rscale>
<asrwt>0</asrwt>
<pdfrwt beam="1">  1       21 0.85085239E-01 0.20638320E+03</pdfrwt>
<pdfrwt beam="2">  1       21 0.14044391E-01 0.20638320E+03</pdfrwt>
<totfact> 0.52495375E+04</totfact>
</mgrwt>
</event>
<event>
 4    1  0.4382184E+000  0.2862352E+03  0.7546771E-02  0.1092331E+00
         21   -1    0    0  501  502  0.00000000000E+00  0.00000000000E+00  0.18779225902E+03  0.18779225902E+03  0.00000000000E+00 0.  1.
         21   -1    0    0  502  503 -0.00000000000E+00 -0.00000000000E+00 -0.43933109967E+03  0.43933109967E+03  0.00000000000E+00 0.  1.
          6    1    1    2  501    0 -0.18275949728E+03 -0.13638376514E+03 -0.15188763265E+03  0.32403768021E+03  0.17300000000E+03 0.  1.
         -6    1    1    2    0  503  0.18275949728E+03  0.13638376514E+03 -0.99651207999E+02  0.30308567848E+03  0.17300000000E+03 0.  1.
<mgrwt>
<rscale>  2 0.28623516E+03</rscale>
<asrwt>0</asrwt>
<pdfrwt beam="1">  1       21 0.28891117E-01 0.28623516E+03</pdfrwt>
<pdfrwt beam="2">  1       21 0.67589399E-01 0.28623516E+03</pdfrwt>
<totfact> 0.21897487E+04</totfact>
</mgrwt>
</event>
<event>
 4    1  0.4382184E+000  0.2585916E+03  0.7546771E-02  0.1107992E+00
         21   -1    0    0  503  502  0.00000000000E+00  0.00000000000E+00  0.50216604364E+03  0.50216604364E+03  0.00000000000E+00 0.  1.
         21   -1    0    0  501  503 -0.00000000000E+00 -0.00000000000E+00 -0.18928842053E+03  0.18928842053E+03  0.00000000000E+00 0.  1.
          6    1    1    2  501    0 -0.11475307008E+03 -0.15418292005E+03 -0.31819282402E+02  0.26054194799E+03  0.17300000000E+03 0.  1.
         -6    1    1    2    0  502  0.11475307008E+03  0.15418292005E+03  0.34469690551E+03  0.43091251618E+03  0.17300000000E+03 0.  1.
<mgrwt>
<rscale>  2 0.25859165E+03</rscale>
<asrwt>0</asrwt>
<pdfrwt beam="1">  1       21 0.77256314E-01 0.25859165E+03</pdfrwt>
<pdfrwt beam="2">  1       21 0.29121296E-01 0.25859165E+03</pdfrwt>
<totfact> 0.16185767E+04</totfact>
</mgrwt>
</event>
<event>
 4    1  0.4382184E+000  0.2438865E+03  0.7546771E-02  0.1117231E+00
         21   -1    0    0  501  502  0.00000000000E+00  0.00000000000E+00  0.57652717032E+03  0.57652717032E+03  0.00000000000E+00 0.  1.
         21   -1    0    0  502  503 -0.00000000000E+00 -0.00000000000E+00 -0.26149975782E+03  0.26149975782E+03  0.00000000000E+00 0.  1.
          6    1    1    2  501    0 -0.13229689977E+03 -0.10976865104E+03  0.48355518138E+03  0.54157754743E+03  0.17300000000E+03 0.  1.
         -6    1    1    2    0  503  0.13229689977E+03  0.10976865104E+03 -0.16852776888E+03  0.29644938071E+03  0.17300000000E+03 0.  1.
<mgrwt>
<rscale>  2 0.24388650E+03</rscale>
<asrwt>0</asrwt>
<pdfrwt beam="1">  1       21 0.88696487E-01 0.24388650E+03</pdfrwt>
<pdfrwt beam="2">  1       21 0.40230732E-01 0.24388650E+03</pdfrwt>
<totfact> 0.62440044E+03</totfact>
</mgrwt>
</event>
<event>
 4    1  0.4382184E+000  0.1858113E+03  0.7546771E-02  0.1162294E+00
         21   -1    0    0  501  502  0.00000000000E+00  0.00000000000E+00  0.11841701688E+03  0.11841701688E+03  0.00000000000E+00 0. -1.
         21   -1    0    0  502  503 -0.00000000000E+00 -0.00000000000E+00 -0.45413207123E+03  0.45413207123E+03  0.00000000000E+00 0.  1.
          6    1    1    2  501    0 -0.61425811194E+02 -0.28700128832E+02  0.34248905106E+01  0.18584283024E+03  0.17300000000E+03 0. -1.
         -6    1    1    2    0  503  0.61425811194E+02  0.28700128832E+02 -0.33913994486E+03  0.38670625787E+03  0.17300000000E+03 0.  1.
<mgrwt>
<rscale>  2 0.18581127E+03</rscale>
<asrwt>0</asrwt>
<pdfrwt beam="1">  1       21 0.18218003E-01 0.18581127E+03</pdfrwt>
<pdfrwt beam="2">  1       21 0.69866472E-01 0.18581127E+03</pdfrwt>
<totfact> 0.51255971E+04</totfact>
</mgrwt>
</event>
<event>
 4    1  0.4382184E+000  0.1891265E+03  0.7546771E-02  0.1159252E+00
         21   -1    0    0  501  502  0.00000000000E+00  0.00000000000E+00  0.49849754282E+02  0.49849754282E+02  0.00000000000E+00 0. -1.
         21   -1    0    0  502  503 -0.00000000000E+00 -0.00000000000E+00 -0.31827932316E+04  0.31827932316E+04  0.00000000000E+00 0. -1.
          6    1    1    2  501    0 -0.19686611078E+02 -0.73839568868E+02 -0.14396308017E+03  0.23768511320E+03  0.17300000000E+03 0. -1.
         -6    1    1    2    0  503  0.19686611078E+02  0.73839568868E+02 -0.29889803971E+04  0.29949578727E+04  0.17300000000E+03 0. -1.
<mgrwt>
<rscale>  2 0.18912653E+03</rscale>
<asrwt>0</asrwt>
<pdfrwt beam="1">  1       21 0.76691916E-02 0.18912653E+03</pdfrwt>
<pdfrwt beam="2">  1       21 0.48966058E+00 0.18912653E+03</pdfrwt>
<totfact> 0.29069883E+02</totfact>
</mgrwt>
</event>
<event>
 4    1  0.4382184E+000  0.1920170E+03  0.7546771E-02  0.1156655E+00
         21   -1    0    0  503  502  0.00000000000E+00  0.00000000000E+00  0.18582147243E+04  0.18582147243E+04  0.00000000000E+00 0. -1.
         21   -1    0    0  501  503 -0.00000000000E+00 -0.00000000000E+00 -0.62927961142E+02  0.62927961142E+02  0.00000000000E+00 0. -1.
          6    1    1    2  501    0  0.76980108751E+02  0.31868544491E+02  0.10280997992E+03  0.21780824879E+03  0.17300000000E+03 0. -1.
         -6    1    1    2    0  502 -0.76980108751E+02 -0.31868544491E+02  0.16924767833E+04  0.17033344367E+04  0.17300000000E+03 0. -1.
<mgrwt>
<rscale>  2 0.19201703E+03</rscale>
<asrwt>0</asrwt>
<pdfrwt beam="1">  1       21 0.28587915E+00 0.19201703E+03</pdfrwt>
<pdfrwt beam="2">  1       21 0.96812262E-02 0.19201703E+03</pdfrwt>
<totfact> 0.35391847E+03</totfact>
</mgrwt>
</event>
<event>
 4    1  0.4382184E+000  0.2157814E+03  0.7546771E-02  0.1137068E+00
         21   -1    0    0  503  502  0.00000000000E+00  0.00000000000E+00  0.11636158165E+03  0.11636158165E+03  0.00000000000E+00 0.  1.
         21   -1    0    0  501  503 -0.00000000000E+00 -0.00000000000E+00 -0.42013147696E+03  0.42013147696E+03  0.00000000000E+00 0.  1.
          6    1    1    2  501    0 -0.47374371230E+02  0.11995118811E+03 -0.21039076190E+03  0.30137334201E+03  0.17300000000E+03 0.  1.
         -6    1    1    2    0  502  0.47374371230E+02 -0.11995118811E+03 -0.93379133409E+02  0.23511971660E+03  0.17300000000E+03 0.  1.
<mgrwt>
<rscale>  2 0.21578141E+03</rscale>
<asrwt>0</asrwt>
<pdfrwt beam="1">  1       21 0.17901782E-01 0.21578141E+03</pdfrwt>
<pdfrwt beam="2">  1       21 0.64635611E-01 0.21578141E+03</pdfrwt>
<totfact> 0.61914151E+04</totfact>
</mgrwt>
</event>
<event>
 4    1  0.4382184E+000  0.3285075E+03  0.7546771E-02  0.1071799E+00
         21   -1    0    0  501  502  0.00000000000E+00  0.00000000000E+00  0.23338491886E+03  0.23338491886E+03  0.00000000000E+00 0.  1.
         21   -1    0    0  502  503 -0.00000000000E+00 -0.00000000000E+00 -0.51983473341E+03  0.51983473341E+03  0.00000000000E+00 0.  1.
          6    1    1    2  501    0 -0.27747587145E+03 -0.31549142653E+02 -0.18041732365E+02  0.32900260143E+03  0.17300000000E+03 0.  1.
         -6    1    1    2    0  503  0.27747587145E+03  0.31549142653E+02 -0.26840808219E+03  0.42421705084E+03  0.17300000000E+03 0.  1.
<mgrwt>
<rscale>  2 0.32850755E+03</rscale>
<asrwt>0</asrwt>
<pdfrwt beam="1">  1       21 0.35905373E-01 0.32850755E+03</pdfrwt>
<pdfrwt beam="2">  1       21 0.79974573E-01 0.32850755E+03</pdfrwt>
<totfact> 0.95640378E+03</totfact>
</mgrwt>
</event>
<event>
 4    1  0.4382184E+000  0.2437883E+03  0.7546771E-02  0.1117295E+00
         21   -1    0    0  501  502  0.00000000000E+00  0.00000000000E+00  0.59974644175E+03  0.59974644175E+03  0.00000000000E+00 0.  1.
         21   -1    0    0  502  503 -0.00000000000E+00 -0.00000000000E+00 -0.12606900552E+03  0.12606900552E+03  0.00000000000E+00 0.  1.
          6    1    1    2  501    0  0.27794596018E+02 -0.16950272935E+03  0.40470113720E+03  0.47245711475E+03  0.17300000000E+03 0.  1.
         -6    1    1    2    0  503 -0.27794596018E+02  0.16950272935E+03  0.68976299031E+02  0.25335833251E+03  0.17300000000E+03 0.  1.
<mgrwt>
<rscale>  2 0.24378826E+03</rscale>
<asrwt>0</asrwt>
<pdfrwt beam="1">  1       21 0.92268682E-01 0.24378826E+03</pdfrwt>
<pdfrwt beam="2">  1       21 0.19395232E-01 0.24378826E+03</pdfrwt>
<totfact> 0.23567729E+04</totfact>
</mgrwt>
</event>
<event>
 4    1  0.4382184E+000  0.1921786E+03  0.7546771E-02  0.1156511E+00
         21   -1    0    0  501  502  0.00000000000E+00  0.00000000000E+00  0.14295953833E+03  0.14295953833E+03  0.00000000000E+00 0.  1.
         21   -1    0    0  502  503 -0.00000000000E+00 -0.00000000000E+00 -0.65174606741E+03  0.65174606741E+03  0.00000000000E+00 0.  1.
          6    1    1    2  501    0  0.29654144888E+02 -0.78257538808E+02  0.54320423017E+02  0.19970808458E+03  0.17300000000E+03 0.  1.
         -6    1    1    2    0  503 -0.29654144888E+02  0.78257538808E+02 -0.56310695210E+03  0.59499752116E+03  0.17300000000E+03 0.  1.
<mgrwt>
<rscale>  2 0.19217859E+03</rscale>
<asrwt>0</asrwt>
<pdfrwt beam="1">  1       21 0.21993775E-01 0.19217859E+03</pdfrwt>
<pdfrwt beam="2">  1       21 0.10026863E+00 0.19217859E+03</pdfrwt>
<totfact> 0.15760549E+04</totfact>
</mgrwt>
</event>
<event>
 4    1  0.4382184E+000  0.1797249E+03  0.7546771E-02  0.1168070E+00
         21   -1    0    0  501  502  0.00000000000E+00  0.00000000000E+00  0.11848639120E+03  0.11848639120E+03  0.00000000000E+00 0. -1.
         21   -1    0    0  502  503 -0.00000000000E+00 -0.00000000000E+00 -0.44635296212E+03  0.44635296212E+03  0.00000000000E+00 0. -1.
          6    1    1    2  501    0 -0.46950602437E+02  0.12948755375E+02  0.12266169327E+02  0.18014296613E+03  0.17300000000E+03 0. -1.
         -6    1    1    2    0  503  0.46950602437E+02 -0.12948755375E+02 -0.34013274025E+03  0.38469638720E+03  0.17300000000E+03 0. -1.
<mgrwt>
<rscale>  2 0.17972487E+03</rscale>
<asrwt>0</asrwt>
<pdfrwt beam="1">  1       21 0.18228675E-01 0.17972487E+03</pdfrwt>
<pdfrwt beam="2">  1       21 0.68669688E-01 0.17972487E+03</pdfrwt>
<totfact> 0.53336070E+04</totfact>
</mgrwt>
</event>
<event>
 4    1  0.4382184E+000  0.2121658E+03  0.7546771E-02  0.1139862E+00
         21   -1    0    0  501  502  0.00000000000E+00  0.00000000000E+00  0.23773802964E+03  0.23773802964E+03  0.00000000000E+00 0. -1.
         21   -1    0    0  502  503 -0.00000000000E+00 -0.00000000000E+00 -0.19025291960E+03  0.19025291960E+03  0.00000000000E+00 0. -1.
          6    1    1    2  501    0  0.30626124232E+02  0.11894279171E+03  0.38531035716E+02  0.21563623976E+03  0.17300000000E+03 0. -1.
         -6    1    1    2    0  503 -0.30626124232E+02 -0.11894279171E+03  0.89540743245E+01  0.21235470947E+03  0.17300000000E+03 0. -1.
<mgrwt>
<rscale>  2 0.21216585E+03</rscale>
<asrwt>0</asrwt>
<pdfrwt beam="1">  1       21 0.36575081E-01 0.21216585E+03</pdfrwt>
<pdfrwt beam="2">  1       21 0.29269680E-01 0.21216585E+03</pdfrwt>
<totfact> 0.79933607E+04</totfact>
</mgrwt>
</event>
<event>
 4    1  0.4382184E+000  0.2073377E+03  0.7546771E-02  0.1143692E+00
         21   -1    0    0  503  502  0.00000000000E+00  0.00000000000E+00  0.42821449668E+03  0.42821449668E+03  0.00000000000E+00 0. -1.
         21   -1    0    0  501  503 -0.00000000000E+00 -0.00000000000E+00 -0.26257966299E+03  0.26257966299E+03  0.00000000000E+00 0. -1.
          6    1    1    2  501    0 -0.55152169133E+02 -0.10009074601E+03 -0.18863783433E+03  0.28030902900E+03  0.17300000000E+03 0. -1.
         -6    1    1    2    0  502  0.55152169133E+02  0.10009074601E+03  0.35427266802E+03  0.41048513068E+03  0.17300000000E+03 0. -1.
<mgrwt>
<rscale>  2 0.20733769E+03</rscale>
<asrwt>0</asrwt>
<pdfrwt beam="1">  1       21 0.65879153E-01 0.20733769E+03</pdfrwt>
<pdfrwt beam="2">  1       21 0.40396871E-01 0.20733769E+03</pdfrwt>
<totfact> 0.12377228E+04</totfact>
</mgrwt>
</event>
<event>
 4    1  0.4382184E+000  0.2173814E+03  0.7546771E-02  0.1135851E+00
         21   -1    0    0  503  502  0.00000000000E+00  0.00000000000E+00  0.32085909274E+03  0.32085909274E+03  0.00000000000E+00 0.  1.
         21   -1    0    0  501  503 -0.00000000000E+00 -0.00000000000E+00 -0.19917237540E+03  0.19917237540E+03  0.00000000000E+00 0.  1.
          6    1    1    2  501    0 -0.11721416247E+03 -0.59887367399E+02 -0.71882648701E+02  0.22895801327E+03  0.17300000000E+03 0. -1.
         -6    1    1    2    0  502  0.11721416247E+03  0.59887367399E+02  0.19356936605E+03  0.29107345487E+03  0.17300000000E+03 0. -1.
<mgrwt>
<rscale>  2 0.21738136E+03</rscale>
<asrwt>0</asrwt>
<pdfrwt beam="1">  1       21 0.49362937E-01 0.21738136E+03</pdfrwt>
<pdfrwt beam="2">  1       21 0.30641904E-01 0.21738136E+03</pdfrwt>
<totfact> 0.39519947E+04</totfact>
</mgrwt>
</event>
<event>
 4    1  0.4382184E+000  0.2067882E+03  0.7546771E-02  0.1144135E+00
         21   -1    0    0  503  502  0.00000000000E+00  0.00000000000E+00  0.33818230632E+03  0.33818230632E+03  0.00000000000E+00 0. -1.
         21   -1    0    0  501  503 -0.00000000000E+00 -0.00000000000E+00 -0.13223317689E+03  0.13223317689E+03  0.00000000000E+00 0.  1.
          6    1    1    2  501    0  0.93604405336E+02 -0.63800941887E+02  0.15218591192E+03  0.25675259818E+03  0.17300000000E+03 0.  1.
         -6    1    1    2    0  502 -0.93604405336E+02  0.63800941887E+02  0.53763217521E+02  0.21366288504E+03  0.17300000000E+03 0.  1.
<mgrwt>
<rscale>  2 0.20678816E+03</rscale>
<asrwt>0</asrwt>
<pdfrwt beam="1">  1       21 0.52028047E-01 0.20678816E+03</pdfrwt>
<pdfrwt beam="2">  1       21 0.20343566E-01 0.20678816E+03</pdfrwt>
<totfact> 0.77922277E+04</totfact>
</mgrwt>
</event>
<event>
 4    1  0.4382184E+000  0.1746956E+03  0.7546771E-02  0.1173038E+00
         21   -1    0    0  501  502  0.00000000000E+00  0.00000000000E+00  0.67411984594E+03  0.67411984594E+03  0.00000000000E+00 0.  1.
         21   -1    0    0  502  503 -0.00000000000E+00 -0.00000000000E+00 -0.31593426844E+03  0.31593426844E+03  0.00000000000E+00 0.  1.
          6    1    1    2  501    0 -0.10607989285E+02 -0.21840846970E+02  0.63728179901E+03  0.66079243593E+03  0.17300000000E+03 0.  1.
         -6    1    1    2    0  503  0.10607989285E+02  0.21840846970E+02 -0.27909622151E+03  0.32926167845E+03  0.17300000000E+03 0.  1.
<mgrwt>
<rscale>  2 0.17469560E+03</rscale>
<asrwt>0</asrwt>
<pdfrwt beam="1">  1       21 0.10371075E+00 0.17469560E+03</pdfrwt>
<pdfrwt beam="2">  1       21 0.48605272E-01 0.17469560E+03</pdfrwt>
<totfact> 0.30903646E+03</totfact>
</mgrwt>
</event>
<event>
 4    1  0.4382184E+000  0.2111981E+03  0.7546771E-02  0.1140621E+00
         21   -1    0    0  501  502  0.00000000000E+00  0.00000000000E+00  0.80812858935E+02  0.80812858935E+02  0.00000000000E+00 0.  1.
         21   -1    0    0  502  503 -0.00000000000E+00 -0.00000000000E+00 -0.58686313429E+03  0.58686313429E+03  0.00000000000E+00 0. -1.
          6    1    1    2  501    0 -0.11861499184E+03  0.24619563847E+02 -0.17159912339E+03  0.27212294714E+03  0.17300000000E+03 0.  1.
         -6    1    1    2    0  503  0.11861499184E+03 -0.24619563847E+02 -0.33445115197E+03  0.39555304609E+03  0.17300000000E+03 0. -1.
<mgrwt>
<rscale>  2 0.21119810E+03</rscale>
<asrwt>0</asrwt>
<pdfrwt beam="1">  1       21 0.12432747E-01 0.21119810E+03</pdfrwt>
<pdfrwt beam="2">  1       21 0.90286639E-01 0.21119810E+03</pdfrwt>
<totfact> 0.56920638E+04</totfact>
</mgrwt>
</event>
<event>
 4    1  0.4382184E+000  0.1890118E+03  0.7546771E-02  0.1159356E+00
         21   -1    0    0  501  502  0.00000000000E+00  0.00000000000E+00  0.53528098711E+03  0.53528098711E+03  0.00000000000E+00 0.  1.
         21   -1    0    0  502  503 -0.00000000000E+00 -0.00000000000E+00 -0.28595574683E+03  0.28595574683E+03  0.00000000000E+00 0.  1.
          6    1    1    2  501    0 -0.48657835425E+02 -0.58556539285E+02  0.48418286426E+03  0.51976773590E+03  0.17300000000E+03 0.  1.
         -6    1    1    2    0  503  0.48657835425E+02  0.58556539285E+02 -0.23485762398E+03  0.30146899805E+03  0.17300000000E+03 0.  1.
<mgrwt>
<rscale>  2 0.18901178E+03</rscale>
<asrwt>0</asrwt>
<pdfrwt beam="1">  1       21 0.82350921E-01 0.18901178E+03</pdfrwt>
<pdfrwt beam="2">  1       21 0.43993192E-01 0.18901178E+03</pdfrwt>
<totfact> 0.64106943E+03</totfact>
</mgrwt>
</event>
<event>
 4    1  0.4382184E+000  0.1776542E+03  0.7546771E-02  0.1170093E+00
         21   -1    0    0  501  502  0.00000000000E+00  0.00000000000E+00  0.16104036826E+03  0.16104036826E+03  0.00000000000E+00 0.  1.
         21   -1    0    0  502  503 -0.00000000000E+00 -0.00000000000E+00 -0.23049710275E+03  0.23049710275E+03  0.00000000000E+00 0.  1.
          6    1    1    2  501    0 -0.23194697739E+02  0.33076229588E+02  0.41027190715E+02  0.18233008897E+03  0.17300000000E+03 0.  1.
         -6    1    1    2    0  503  0.23194697739E+02 -0.33076229588E+02 -0.11048392521E+03  0.20920738203E+03  0.17300000000E+03 0.  1.
<mgrwt>
<rscale>  2 0.17765425E+03</rscale>
<asrwt>0</asrwt>
<pdfrwt beam="1">  1       21 0.24775441E-01 0.17765425E+03</pdfrwt>
<pdfrwt beam="2">  1       21 0.35461093E-01 0.17765425E+03</pdfrwt>
<totfact> 0.11878242E+05</totfact>
</mgrwt>
</event>
<event>
 4    1  0.4382184E+000  0.2024100E+03  0.7546771E-02  0.1147721E+00
         21   -1    0    0  501  502  0.00000000000E+00  0.00000000000E+00  0.71862092528E+02  0.71862092528E+02  0.00000000000E+00 0. -1.
         21   -1    0    0  502  503 -0.00000000000E+00 -0.00000000000E+00 -0.58414893525E+03  0.58414893525E+03  0.00000000000E+00 0. -1.
          6    1    1    2  501    0  0.82157934131E+02 -0.65504918759E+02 -0.30697971115E+03  0.36770417944E+03  0.17300000000E+03 0. -1.
         -6    1    1    2    0  503 -0.82157934131E+02  0.65504918759E+02 -0.20530713157E+03  0.28830684834E+03  0.17300000000E+03 0. -1.
<mgrwt>
<rscale>  2 0.20241003E+03</rscale>
<asrwt>0</asrwt>
<pdfrwt beam="1">  1       21 0.11055707E-01 0.20241003E+03</pdfrwt>
<pdfrwt beam="2">  1       21 0.89869067E-01 0.20241003E+03</pdfrwt>
<totfact> 0.71272959E+04</totfact>
</mgrwt>
</event>
<event>
 4    1  0.4382184E+000  0.3358111E+03  0.7546771E-02  0.1068594E+00
         21   -1    0    0  503  502  0.00000000000E+00  0.00000000000E+00  0.38489552459E+03  0.38489552459E+03  0.00000000000E+00 0.  1.
         21   -1    0    0  501  503 -0.00000000000E+00 -0.00000000000E+00 -0.33366556802E+03  0.33366556802E+03  0.00000000000E+00 0. -1.
          6    1    1    2  501    0 -0.21737217508E+02 -0.28699750122E+03 -0.99833434673E+02  0.35033667666E+03  0.17300000000E+03 0. -1.
         -6    1    1    2    0  502  0.21737217508E+02  0.28699750122E+03  0.15106339124E+03  0.36822441595E+03  0.17300000000E+03 0.  1.
<mgrwt>
<rscale>  2 0.33581107E+03</rscale>
<asrwt>0</asrwt>
<pdfrwt beam="1">  1       21 0.59214696E-01 0.33581107E+03</pdfrwt>
<pdfrwt beam="2">  1       21 0.51333164E-01 0.33581107E+03</pdfrwt>
<totfact> 0.89010402E+03</totfact>
</mgrwt>
</event>
<event>
 4    1  0.4382184E+000  0.2765175E+03  0.7546771E-02  0.1097606E+00
         21   -1    0    0  503  502  0.00000000000E+00  0.00000000000E+00  0.70718237213E+03  0.70718237213E+03  0.00000000000E+00 0.  1.
         21   -1    0    0  501  503 -0.00000000000E+00 -0.00000000000E+00 -0.21134980095E+03  0.21134980095E+03  0.00000000000E+00 0. -1.
          6    1    1    2  501    0 -0.96660918484E+02  0.19284598616E+03 -0.73051899438E+02  0.28600434883E+03  0.17300000000E+03 0. -1.
         -6    1    1    2    0  502  0.96660918484E+02 -0.19284598616E+03  0.56888447062E+03  0.63252782425E+03  0.17300000000E+03 0.  1.
<mgrwt>
<rscale>  2 0.27651746E+03</rscale>
<asrwt>0</asrwt>
<pdfrwt beam="1">  1       21 0.10879729E+00 0.27651746E+03</pdfrwt>
<pdfrwt beam="2">  1       21 0.32515354E-01 0.27651746E+03</pdfrwt>
<totfact> 0.57733299E+03</totfact>
</mgrwt>
</event>
<event>
 4    1  0.4382184E+000  0.3327825E+03  0.7546771E-02  0.1069912E+00
         21   -1    0    0  503  502  0.00000000000E+00  0.00000000000E+00  0.46348227278E+02  0.46348227278E+02  0.00000000000E+00 0.  1.
         21   -1    0    0  501  503 -0.00000000000E+00 -0.00000000000E+00 -0.25533521282E+04  0.25533521282E+04  0.00000000000E+00 0.  1.
          6    1    1    2  501    0 -0.32333461604E+02 -0.28243532248E+03 -0.15828876666E+04  0.16174911218E+04  0.17300000000E+03 0.  1.
         -6    1    1    2    0  502  0.32333461604E+02  0.28243532248E+03 -0.92411623428E+03  0.98220923361E+03  0.17300000000E+03 0.  1.
<mgrwt>
<rscale>  2 0.33278246E+03</rscale>
<asrwt>0</asrwt>
<pdfrwt beam="1">  1       21 0.71304972E-02 0.33278246E+03</pdfrwt>
<pdfrwt beam="2">  1       21 0.39282337E+00 0.33278246E+03</pdfrwt>
<totfact> 0.12095686E+03</totfact>
</mgrwt>
</event>
<event>
 4    1  0.4382184E+000  0.1821619E+03  0.7546771E-02  0.1165727E+00
         21   -1    0    0  503  502  0.00000000000E+00  0.00000000000E+00  0.20201621033E+04  0.20201621033E+04  0.00000000000E+00 0. -1.
         21   -1    0    0  501  503 -0.00000000000E+00 -0.00000000000E+00 -0.16462745103E+02  0.16462745103E+02  0.00000000000E+00 0.  1.
          6    1    1    2  501    0  0.30175284194E+02  0.48408890970E+02  0.95367094700E+03  0.97091258291E+03  0.17300000000E+03 0.  1.
         -6    1    1    2    0  502 -0.30175284194E+02 -0.48408890970E+02  0.10500284112E+04  0.10657122655E+04  0.17300000000E+03 0.  1.
<mgrwt>
<rscale>  2 0.18216193E+03</rscale>
<asrwt>0</asrwt>
<pdfrwt beam="1">  1       21 0.31079397E+00 0.18216193E+03</pdfrwt>
<pdfrwt beam="2">  1       21 0.25327316E-02 0.18216193E+03</pdfrwt>
<totfact> 0.25013680E+04</totfact>
</mgrwt>
</event>
<event>
 4    1  0.4382184E+000  0.3487229E+03  0.7546771E-02  0.1063140E+00
         21   -1    0    0  501  502  0.00000000000E+00  0.00000000000E+00  0.24622058984E+04  0.24622058984E+04  0.00000000000E+00 0.  1.
         21   -1    0    0  502  503 -0.00000000000E+00 -0.00000000000E+00 -0.75515085253E+02  0.75515085253E+02  0.00000000000E+00 0. -1.
          6    1    1    2  501    0  0.90240358413E+02 -0.28902481925E+03  0.19396707222E+04  0.19707689309E+04  0.17300000000E+03 0.  1.
         -6    1    1    2    0  503 -0.90240358413E+02  0.28902481925E+03  0.44702009102E+03  0.56695205283E+03  0.17300000000E+03 0. -1.
<mgrwt>
<rscale>  2 0.34872291E+03</rscale>
<asrwt>0</asrwt>
<pdfrwt beam="1">  1       21 0.37880085E+00 0.34872291E+03</pdfrwt>
<pdfrwt beam="2">  1       21 0.11617707E-01 0.34872291E+03</pdfrwt>
<totfact> 0.61353678E+02</totfact>
</mgrwt>
</event>
<event>
 4    1  0.4382184E+000  0.1840449E+03  0.7546771E-02  0.1163945E+00
         21   -1    0    0  503  502  0.00000000000E+00  0.00000000000E+00  0.21157963597E+03  0.21157963597E+03  0.00000000000E+00 0.  1.
         21   -1    0    0  501  503 -0.00000000000E+00 -0.00000000000E+00 -0.32624773333E+03  0.32624773333E+03  0.00000000000E+00 0.  1.
          6    1    1    2  501    0  0.47304300607E+02  0.41301722211E+02 -0.24924282161E+03  0.30982981335E+03  0.17300000000E+03 0.  1.
         -6    1    1    2    0  502 -0.47304300607E+02 -0.41301722211E+02  0.13457472425E+03  0.22799755596E+03  0.17300000000E+03 0.  1.
<mgrwt>
<rscale>  2 0.18404491E+03</rscale>
<asrwt>0</asrwt>
<pdfrwt beam="1">  1       21 0.32550713E-01 0.18404491E+03</pdfrwt>
<pdfrwt beam="2">  1       21 0.50191959E-01 0.18404491E+03</pdfrwt>
<totfact> 0.34486183E+04</totfact>
</mgrwt>
</event>
<event>
 4    1  0.4382184E+000  0.2084245E+03  0.7546771E-02  0.1142820E+00
         21   -1    0    0  503  502  0.00000000000E+00  0.00000000000E+00  0.10751598944E+04  0.10751598944E+04  0.00000000000E+00 0.  1.
         21   -1    0    0  501  503 -0.00000000000E+00 -0.00000000000E+00 -0.92290891318E+02  0.92290891318E+02  0.00000000000E+00 0.  1.
          6    1    1    2  501    0  0.11255794101E+03 -0.29025870816E+02  0.53753322572E+02  0.21524453756E+03  0.17300000000E+03 0.  1.
         -6    1    1    2    0  502 -0.11255794101E+03  0.29025870816E+02  0.92911568048E+03  0.95220624812E+03  0.17300000000E+03 0.  1.
<mgrwt>
<rscale>  2 0.20842455E+03</rscale>
<asrwt>0</asrwt>
<pdfrwt beam="1">  1       21 0.16540921E+00 0.20842455E+03</pdfrwt>
<pdfrwt beam="2">  1       21 0.14198599E-01 0.20842455E+03</pdfrwt>
<totfact> 0.98482010E+03</totfact>
</mgrwt>
</event>
<event>
 4    1  0.4382184E+000  0.1904532E+03  0.7546771E-02  0.1158053E+00
         21   -1    0    0  503  502  0.00000000000E+00  0.00000000000E+00  0.11332833485E+04  0.11332833485E+04  0.00000000000E+00 0. -1.
         21   -1    0    0  501  503 -0.00000000000E+00 -0.00000000000E+00 -0.55367845813E+02  0.55367845813E+02  0.00000000000E+00 0. -1.
          6    1    1    2  501    0  0.61969633911E+02  0.50031959185E+02  0.15290686000E+03  0.24423951421E+03  0.17300000000E+03 0. -1.
         -6    1    1    2    0  502 -0.61969633911E+02 -0.50031959185E+02  0.92500864265E+03  0.94441168007E+03  0.17300000000E+03 0. -1.
<mgrwt>
<rscale>  2 0.19045323E+03</rscale>
<asrwt>0</asrwt>
<pdfrwt beam="1">  1       21 0.17435127E+00 0.19045323E+03</pdfrwt>
<pdfrwt beam="2">  1       21 0.85181310E-02 0.19045323E+03</pdfrwt>
<totfact> 0.21435204E+04</totfact>
</mgrwt>
</event>
<event>
 4    1  0.4382184E+000  0.2136106E+03  0.7546771E-02  0.1138738E+00
         21   -1    0    0  501  502  0.00000000000E+00  0.00000000000E+00  0.13358973679E+03  0.13358973679E+03  0.00000000000E+00 0.  1.
         21   -1    0    0  502  503 -0.00000000000E+00 -0.00000000000E+00 -0.50397824116E+03  0.50397824116E+03  0.00000000000E+00 0. -1.
          6    1    1    2  501    0  0.10581742090E+02  0.12485389666E+03 -0.42259875876E+01  0.21365235254E+03  0.17300000000E+03 0. -1.
         -6    1    1    2    0  503 -0.10581742090E+02 -0.12485389666E+03 -0.36616251678E+03  0.42391562541E+03  0.17300000000E+03 0. -1.
<mgrwt>
<rscale>  2 0.21361055E+03</rscale>
<asrwt>0</asrwt>
<pdfrwt beam="1">  1       21 0.20552267E-01 0.21361055E+03</pdfrwt>
<pdfrwt beam="2">  1       21 0.77535115E-01 0.21361055E+03</pdfrwt>
<totfact> 0.32009392E+04</totfact>
</mgrwt>
</event>
<event>
 4    1  0.4382184E+000  0.1852288E+03  0.7546771E-02  0.1162836E+00
         21   -1    0    0  501  502  0.00000000000E+00  0.00000000000E+00  0.48416368855E+03  0.48416368855E+03  0.00000000000E+00 0.  1.
         21   -1    0    0  502  503 -0.00000000000E+00 -0.00000000000E+00 -0.72918203311E+02  0.72918203311E+02  0.00000000000E+00 0.  1.
          6    1    1    2  501    0  0.66025291800E+02  0.46222617817E+01  0.25237561692E+03  0.31305455831E+03  0.17300000000E+03 0.  1.
         -6    1    1    2    0  503 -0.66025291800E+02 -0.46222617817E+01  0.15886986831E+03  0.24402733355E+03  0.17300000000E+03 0.  1.
<mgrwt>
<rscale>  2 0.18522879E+03</rscale>
<asrwt>0</asrwt>
<pdfrwt beam="1">  1       21 0.74486719E-01 0.18522879E+03</pdfrwt>
<pdfrwt beam="2">  1       21 0.11218185E-01 0.18522879E+03</pdfrwt>
<totfact> 0.10714702E+05</totfact>
</mgrwt>
</event>
<event>
 4    1  0.4382184E+000  0.1877840E+03  0.7546771E-02  0.1160475E+00
         21   -1    0    0  503  502  0.00000000000E+00  0.00000000000E+00  0.19438055953E+03  0.19438055953E+03  0.00000000000E+00 0.  1.
         21   -1    0    0  501  503 -0.00000000000E+00 -0.00000000000E+00 -0.18439177577E+03  0.18439177577E+03  0.00000000000E+00 0. -1.
          6    1    1    2  501    0 -0.25276661605E+02  0.68519477177E+02 -0.19083634673E+02  0.18875119466E+03  0.17300000000E+03 0.  1.
         -6    1    1    2    0  502  0.25276661605E+02 -0.68519477177E+02  0.29072418436E+02  0.19002114063E+03  0.17300000000E+03 0. -1.
<mgrwt>
<rscale>  2 0.18778399E+03</rscale>
<asrwt>0</asrwt>
<pdfrwt beam="1">  1       21 0.29904701E-01 0.18778399E+03</pdfrwt>
<pdfrwt beam="2">  1       21 0.28367965E-01 0.18778399E+03</pdfrwt>
<totfact> 0.12759103E+05</totfact>
</mgrwt>
</event>
<event>
 4    1  0.4382184E+000  0.1857428E+03  0.7546771E-02  0.1162358E+00
         21   -1    0    0  501  502  0.00000000000E+00  0.00000000000E+00  0.11555585570E+03  0.11555585570E+03  0.00000000000E+00 0.  1.
         21   -1    0    0  502  503 -0.00000000000E+00 -0.00000000000E+00 -0.22933616875E+04  0.22933616875E+04  0.00000000000E+00 0.  1.
          6    1    1    2  501    0 -0.64355814966E+02 -0.20729301246E+02  0.34422301059E+02  0.18890545164E+03  0.17300000000E+03 0.  1.
         -6    1    1    2    0  503  0.64355814966E+02  0.20729301246E+02 -0.22122281328E+04  0.22200120915E+04  0.17300000000E+03 0.  1.
<mgrwt>
<rscale>  2 0.18574277E+03</rscale>
<asrwt>0</asrwt>
<pdfrwt beam="1">  1       21 0.17777824E-01 0.18574277E+03</pdfrwt>
<pdfrwt beam="2">  1       21 0.35282487E+00 0.18574277E+03</pdfrwt>
<totfact> 0.48879162E+02</totfact>
</mgrwt>
</event>
<event>
 4    1  0.4382184E+000  0.1875553E+03  0.7546771E-02  0.1160685E+00
         21   -1    0    0  503  502  0.00000000000E+00  0.00000000000E+00  0.60530023401E+03  0.60530023401E+03  0.00000000000E+00 0.  1.
         21   -1    0    0  501  503 -0.00000000000E+00 -0.00000000000E+00 -0.96152514631E+02  0.96152514631E+02  0.00000000000E+00 0.  1.
          6    1    1    2  501    0  0.39205172181E+02 -0.60917398631E+02  0.33979389022E+02  0.19060843072E+03  0.17300000000E+03 0.  1.
         -6    1    1    2    0  502 -0.39205172181E+02  0.60917398631E+02  0.47516833036E+03  0.51084431793E+03  0.17300000000E+03 0.  1.
<mgrwt>
<rscale>  2 0.18755526E+03</rscale>
<asrwt>0</asrwt>
<pdfrwt beam="1">  1       21 0.93123111E-01 0.18755526E+03</pdfrwt>
<pdfrwt beam="2">  1       21 0.14792695E-01 0.18755526E+03</pdfrwt>
<totfact> 0.39153809E+04</totfact>
</mgrwt>
</event>
<event>
 4    1  0.4382184E+000  0.2121830E+03  0.7546771E-02  0.1139849E+00
         21   -1    0    0  501  502  0.00000000000E+00  0.00000000000E+00  0.40675045430E+03  0.40675045430E+03  0.00000000000E+00 0. -1.
         21   -1    0    0  502  503 -0.00000000000E+00 -0.00000000000E+00 -0.11585500218E+03  0.11585500218E+03  0.00000000000E+00 0. -1.
          6    1    1    2  501    0  0.11736217518E+03 -0.36314718248E+02  0.20064071352E+03  0.29202454494E+03  0.17300000000E+03 0. -1.
         -6    1    1    2    0  503 -0.11736217518E+03  0.36314718248E+02  0.90254738597E+02  0.23058091153E+03  0.17300000000E+03 0. -1.
<mgrwt>
<rscale>  2 0.21218303E+03</rscale>
<asrwt>0</asrwt>
<pdfrwt beam="1">  1       21 0.62576992E-01 0.21218303E+03</pdfrwt>
<pdfrwt beam="2">  1       21 0.17823847E-01 0.21218303E+03</pdfrwt>
<totfact> 0.67072685E+04</totfact>
</mgrwt>
</event>
<event>
 4    1  0.4382184E+000  0.2728356E+03  0.7546771E-02  0.1099668E+00
         21   -1    0    0  501  502  0.00000000000E+00  0.00000000000E+00  0.20602383157E+03  0.20602383157E+03  0.00000000000E+00 0.  1.
         21   -1    0    0  502  503 -0.00000000000E+00 -0.00000000000E+00 -0.53609845505E+03  0.53609845505E+03  0.00000000000E+00 0.  1.
          6    1    1    2  501    0  0.12475199446E+03  0.17013877825E+03  0.46835284347E+02  0.27682631350E+03  0.17300000000E+03 0.  1.
         -6    1    1    2    0  503 -0.12475199446E+03 -0.17013877825E+03 -0.37690990782E+03  0.46529597312E+03  0.17300000000E+03 0.  1.
<mgrwt>
<rscale>  2 0.27283560E+03</rscale>
<asrwt>0</asrwt>
<pdfrwt beam="1">  1       21 0.31695974E-01 0.27283560E+03</pdfrwt>
<pdfrwt beam="2">  1       21 0.82476685E-01 0.27283560E+03</pdfrwt>
<totfact> 0.11722241E+04</totfact>
</mgrwt>
</event>
<event>
 4    1  0.4382184E+000  0.1904782E+03  0.7546771E-02  0.1158031E+00
         21   -1    0    0  503  502  0.00000000000E+00  0.00000000000E+00  0.12979568057E+04  0.12979568057E+04  0.00000000000E+00 0. -1.
         21   -1    0    0  501  503 -0.00000000000E+00 -0.00000000000E+00 -0.29054778882E+03  0.29054778882E+03  0.00000000000E+00 0. -1.
          6    1    1    2  501    0  0.43790392401E+01 -0.79585035401E+02 -0.25137491825E+03  0.31539071541E+03  0.17300000000E+03 0. -1.
         -6    1    1    2    0  502 -0.43790392401E+01  0.79585035401E+02  0.12587839351E+04  0.12731138791E+04  0.17300000000E+03 0. -1.
<mgrwt>
<rscale>  2 0.19047822E+03</rscale>
<asrwt>0</asrwt>
<pdfrwt beam="1">  1       21 0.19968566E+00 0.19047822E+03</pdfrwt>
<pdfrwt beam="2">  1       21 0.44699660E-01 0.19047822E+03</pdfrwt>
<totfact> 0.64976790E+02</totfact>
</mgrwt>
</event>
<event>
 4    1  0.4382184E+000  0.2124828E+03  0.7546771E-02  0.1139615E+00
         21   -1    0    0  501  502  0.00000000000E+00  0.00000000000E+00  0.85615234402E+03  0.85615234402E+03  0.00000000000E+00 0.  1.
         21   -1    0    0  502  503 -0.00000000000E+00 -0.00000000000E+00 -0.53524727531E+02  0.53524727531E+02  0.00000000000E+00 0.  1.
          6    1    1    2  501    0 -0.97408119152E+02 -0.75707424633E+02  0.34605581668E+03  0.40608322310E+03  0.17300000000E+03 0.  1.
         -6    1    1    2    0  503  0.97408119152E+02  0.75707424633E+02  0.45657179980E+03  0.50359384845E+03  0.17300000000E+03 0.  1.
<mgrwt>
<rscale>  2 0.21248284E+03</rscale>
<asrwt>0</asrwt>
<pdfrwt beam="1">  1       21 0.13171574E+00 0.21248284E+03</pdfrwt>
<pdfrwt beam="2">  1       21 0.82345741E-02 0.21248284E+03</pdfrwt>
<totfact> 0.47205884E+04</totfact>
</mgrwt>
</event>
<event>
 4    1  0.4382184E+000  0.2124930E+03  0.7546771E-02  0.1139607E+00
         21   -1    0    0  501  502  0.00000000000E+00  0.00000000000E+00  0.20717611758E+03  0.20717611758E+03  0.00000000000E+00 0. -1.
         21   -1    0    0  502  503 -0.00000000000E+00 -0.00000000000E+00 -0.25116744972E+03  0.25116744972E+03  0.00000000000E+00 0.  1.
          6    1    1    2  501    0  0.62475501874E+02 -0.10640052035E+03  0.61350780138E+02  0.22117227966E+03  0.17300000000E+03 0. -1.
         -6    1    1    2    0  503 -0.62475501874E+02  0.10640052035E+03 -0.10534211228E+03  0.23717128765E+03  0.17300000000E+03 0.  1.
<mgrwt>
<rscale>  2 0.21249296E+03</rscale>
<asrwt>0</asrwt>
<pdfrwt beam="1">  1       21 0.31873249E-01 0.21249296E+03</pdfrwt>
<pdfrwt beam="2">  1       21 0.38641146E-01 0.21249296E+03</pdfrwt>
<totfact> 0.60577537E+04</totfact>
</mgrwt>
</event>
<event>
 4    1  0.4382184E+000  0.1878611E+03  0.7546771E-02  0.1160405E+00
         21   -1    0    0  501  502  0.00000000000E+00  0.00000000000E+00  0.33625444338E+03  0.33625444338E+03  0.00000000000E+00 0.  1.
         21   -1    0    0  502  503 -0.00000000000E+00 -0.00000000000E+00 -0.21645751271E+03  0.21645751271E+03  0.00000000000E+00 0. -1.
          6    1    1    2  501    0 -0.58128800002E+02 -0.44540260317E+02  0.25824456261E+03  0.31934627960E+03  0.17300000000E+03 0.  1.
         -6    1    1    2    0  503  0.58128800002E+02  0.44540260317E+02 -0.13844763194E+03  0.23336567650E+03  0.17300000000E+03 0. -1.
<mgrwt>
<rscale>  2 0.18786110E+03</rscale>
<asrwt>0</asrwt>
<pdfrwt beam="1">  1       21 0.51731452E-01 0.18786110E+03</pdfrwt>
<pdfrwt beam="2">  1       21 0.33301156E-01 0.18786110E+03</pdfrwt>
<totfact> 0.30894438E+04</totfact>
</mgrwt>
</event>
<event>
 4    1  0.4382184E+000  0.2960134E+03  0.7546771E-02  0.1087251E+00
         21   -1    0    0  501  502  0.00000000000E+00  0.00000000000E+00  0.89418246402E+03  0.89418246402E+03  0.00000000000E+00 0. -1.
         21   -1    0    0  502  503 -0.00000000000E+00 -0.00000000000E+00 -0.10569859928E+03  0.10569859928E+03  0.00000000000E+00 0. -1.
          6    1    1    2  501    0 -0.97270314610E+02 -0.21962110762E+03  0.52922421496E+03  0.60638454360E+03  0.17300000000E+03 0. -1.
         -6    1    1    2    0  503  0.97270314610E+02  0.21962110762E+03  0.25925964977E+03  0.39349651970E+03  0.17300000000E+03 0. -1.
<mgrwt>
<rscale>  2 0.29601342E+03</rscale>
<asrwt>0</asrwt>
<pdfrwt beam="1">  1       21 0.13756653E+00 0.29601342E+03</pdfrwt>
<pdfrwt beam="2">  1       21 0.16261324E-01 0.29601342E+03</pdfrwt>
<totfact> 0.11919600E+04</totfact>
</mgrwt>
</event>
<event>
 4    1  0.4382184E+000  0.1858576E+03  0.7546771E-02  0.1162251E+00
         21   -1    0    0  501  502  0.00000000000E+00  0.00000000000E+00  0.44356401688E+02  0.44356401688E+02  0.00000000000E+00 0. -1.
         21   -1    0    0  502  503 -0.00000000000E+00 -0.00000000000E+00 -0.77876777708E+03  0.77876777708E+03  0.00000000000E+00 0. -1.
          6    1    1    2  501    0 -0.19432109331E+02  0.65087939529E+02 -0.36839734098E+03  0.41262531137E+03  0.17300000000E+03 0. -1.
         -6    1    1    2    0  503  0.19432109331E+02 -0.65087939529E+02 -0.36601403441E+03  0.41049886739E+03  0.17300000000E+03 0. -1.
<mgrwt>
<rscale>  2 0.18585760E+03</rscale>
<asrwt>0</asrwt>
<pdfrwt beam="1">  1       21 0.68240615E-02 0.18585760E+03</pdfrwt>
<pdfrwt beam="2">  1       21 0.11981043E+00 0.18585760E+03</pdfrwt>
<totfact> 0.84056792E+04</totfact>
</mgrwt>
</event>
<event>
 4    1  0.4382184E+000  0.1926581E+03  0.7546771E-02  0.1156086E+00
         21   -1    0    0  501  502  0.00000000000E+00  0.00000000000E+00  0.18765621110E+03  0.18765621110E+03  0.00000000000E+00 0. -1.
         21   -1    0    0  502  503 -0.00000000000E+00 -0.00000000000E+00 -0.29296430264E+03  0.29296430264E+03  0.00000000000E+00 0. -1.
          6    1    1    2  501    0 -0.46593831167E+02 -0.70831766952E+02  0.84313439897E+02  0.21029950181E+03  0.17300000000E+03 0. -1.
         -6    1    1    2    0  503  0.46593831167E+02  0.70831766952E+02 -0.18962153143E+03  0.27032101194E+03  0.17300000000E+03 0. -1.
<mgrwt>
<rscale>  2 0.19265805E+03</rscale>
<asrwt>0</asrwt>
<pdfrwt beam="1">  1       21 0.28870186E-01 0.19265805E+03</pdfrwt>
<pdfrwt beam="2">  1       21 0.45071431E-01 0.19265805E+03</pdfrwt>
<totfact> 0.54236504E+04</totfact>
</mgrwt>
</event>
<event>
 4    1  0.4382184E+000  0.1866550E+03  0.7546771E-02  0.1161513E+00
         21   -1    0    0  503  502  0.00000000000E+00  0.00000000000E+00  0.79139897749E+03  0.79139897749E+03  0.00000000000E+00 0.  1.
         21   -1    0    0  501  503 -0.00000000000E+00 -0.00000000000E+00 -0.82149976854E+02  0.82149976854E+02  0.00000000000E+00 0. -1.
          6    1    1    2  501    0  0.68779100513E+02  0.13436154680E+02  0.57069478199E+02  0.19518457998E+03  0.17300000000E+03 0. -1.
         -6    1    1    2    0  502 -0.68779100513E+02 -0.13436154680E+02  0.65217952243E+03  0.67836437436E+03  0.17300000000E+03 0.  1.
<mgrwt>
<rscale>  2 0.18665502E+03</rscale>
<asrwt>0</asrwt>
<pdfrwt beam="1">  1       21 0.12175368E+00 0.18665502E+03</pdfrwt>
<pdfrwt beam="2">  1       21 0.12638459E-01 0.18665502E+03</pdfrwt>
<totfact> 0.27337644E+04</totfact>
</mgrwt>
</event>
<event>
 4    1  0.4382184E+000  0.1770918E+03  0.7546771E-02  0.1170648E+00
         21   -1    0    0  503  502  0.00000000000E+00  0.00000000000E+00  0.42919732962E+03  0.42919732962E+03  0.00000000000E+00 0.  1.
         21   -1    0    0  501  503 -0.00000000000E+00 -0.00000000000E+00 -0.73600857340E+02  0.73600857340E+02  0.00000000000E+00 0.  1.
          6    1    1    2  501    0  0.87668732993E+01 -0.36818938442E+02  0.15644961658E+03  0.23630060267E+03  0.17300000000E+03 0.  1.
         -6    1    1    2    0  502 -0.87668732993E+01  0.36818938442E+02  0.19914685570E+03  0.26649758429E+03  0.17300000000E+03 0.  1.
<mgrwt>
<rscale>  2 0.17709176E+03</rscale>
<asrwt>0</asrwt>
<pdfrwt beam="1">  1       21 0.66030357E-01 0.17709176E+03</pdfrwt>
<pdfrwt beam="2">  1       21 0.11323209E-01 0.17709176E+03</pdfrwt>
<totfact> 0.13782399E+05</totfact>
</mgrwt>
</event>
<event>
 4    1  0.4382184E+000  0.2485566E+03  0.7546771E-02  0.1114220E+00
         21   -1    0    0  503  502  0.00000000000E+00  0.00000000000E+00  0.11415663725E+04  0.11415663725E+04  0.00000000000E+00 0. -1.
         21   -1    0    0  501  503 -0.00000000000E+00 -0.00000000000E+00 -0.97203759091E+02  0.97203759091E+02  0.00000000000E+00 0. -1.
          6    1    1    2  501    0  0.13525525224E+03 -0.11643627884E+03  0.10981686246E+03  0.27173541096E+03  0.17300000000E+03 0. -1.
         -6    1    1    2    0  502 -0.13525525224E+03  0.11643627884E+03  0.93454575093E+03  0.96703472062E+03  0.17300000000E+03 0. -1.
<mgrwt>
<rscale>  2 0.24855661E+03</rscale>
<asrwt>0</asrwt>
<pdfrwt beam="1">  1       21 0.17562559E+00 0.24855661E+03</pdfrwt>
<pdfrwt beam="2">  1       21 0.14954425E-01 0.24855661E+03</pdfrwt>
<totfact> 0.73742093E+03</totfact>
</mgrwt>
</event>
<event>
 4    1  0.4382184E+000  0.2486551E+03  0.7546771E-02  0.1114158E+00
         21   -1    0    0  501  502  0.00000000000E+00  0.00000000000E+00  0.16192516097E+03  0.16192516097E+03  0.00000000000E+00 0. -1.
         21   -1    0    0  502  503 -0.00000000000E+00 -0.00000000000E+00 -0.75406655638E+03  0.75406655638E+03  0.00000000000E+00 0.  1.
          6    1    1    2  501    0  0.14846897459E+03  0.99284165659E+02  0.25710620201E+02  0.24998083518E+03  0.17300000000E+03 0. -1.
         -6    1    1    2    0  503 -0.14846897459E+03 -0.99284165659E+02 -0.61785201562E+03  0.66601088217E+03  0.17300000000E+03 0.  1.
<mgrwt>
<rscale>  2 0.24865515E+03</rscale>
<asrwt>0</asrwt>
<pdfrwt beam="1">  1       21 0.24911563E-01 0.24865515E+03</pdfrwt>
<pdfrwt beam="2">  1       21 0.11601024E+00 0.24865515E+03</pdfrwt>
<totfact> 0.84293706E+03</totfact>
</mgrwt>
</event>
<event>
 4    1  0.4382184E+000  0.1873971E+03  0.7546771E-02  0.1160830E+00
         21   -1    0    0  501  502  0.00000000000E+00  0.00000000000E+00  0.25744983234E+03  0.25744983234E+03  0.00000000000E+00 0.  1.
         21   -1    0    0  502  503 -0.00000000000E+00 -0.00000000000E+00 -0.19351541235E+03  0.19351541235E+03  0.00000000000E+00 0.  1.
          6    1    1    2  501    0 -0.64497915881E+02 -0.32073115048E+02  0.15445975953E+03  0.24284868370E+03  0.17300000000E+03 0.  1.
         -6    1    1    2    0  503  0.64497915881E+02  0.32073115048E+02 -0.90525339540E+02  0.20811656100E+03  0.17300000000E+03 0.  1.
<mgrwt>
<rscale>  2 0.18739708E+03</rscale>
<asrwt>0</asrwt>
<pdfrwt beam="1">  1       21 0.39607666E-01 0.18739708E+03</pdfrwt>
<pdfrwt beam="2">  1       21 0.29771602E-01 0.18739708E+03</pdfrwt>
<totfact> 0.66610611E+04</totfact>
</mgrwt>
</event>
<event>
 4    1  0.4382184E+000  0.2100009E+03  0.7546771E-02  0.1141565E+00
         21   -1    0    0  501  502  0.00000000000E+00  0.00000000000E+00  0.20135368974E+04  0.20135368974E+04  0.00000000000E+00 0. -1.
         21   -1    0    0  502  503 -0.00000000000E+00 -0.00000000000E+00 -0.60461638068E+02  0.60461638068E+02  0.00000000000E+00 0. -1.
          6    1    1    2  501    0 -0.54050801717E+02 -0.10606546359E+03  0.18046805370E+04  0.18168577854E+04  0.17300000000E+03 0. -1.
         -6    1    1    2    0  503  0.54050801717E+02  0.10606546359E+03  0.14839472234E+03  0.25714075008E+03  0.17300000000E+03 0. -1.
<mgrwt>
<rscale>  2 0.21000089E+03</rscale>
<asrwt>0</asrwt>
<pdfrwt beam="1">  1       21 0.30977486E+00 0.21000089E+03</pdfrwt>
<pdfrwt beam="2">  1       21 0.93017920E-02 0.21000089E+03</pdfrwt>
<totfact> 0.27068553E+03</totfact>
</mgrwt>
</event>
<event>
 4    1  0.4382184E+000  0.2486670E+03  0.7546771E-02  0.1114150E+00
         21   -1    0    0  503  502  0.00000000000E+00  0.00000000000E+00  0.14305440120E+04  0.14305440120E+04  0.00000000000E+00 0.  1.
         21   -1    0    0  501  503 -0.00000000000E+00 -0.00000000000E+00 -0.55837843474E+02  0.55837843474E+02  0.00000000000E+00 0.  1.
          6    1    1    2  501    0 -0.13681094367E+03  0.11484360589E+03  0.33413550903E+03  0.41651149626E+03  0.17300000000E+03 0.  1.
         -6    1    1    2    0  502  0.13681094367E+03 -0.11484360589E+03  0.10405706595E+04  0.10698703592E+04  0.17300000000E+03 0.  1.
<mgrwt>
<rscale>  2 0.24866702E+03</rscale>
<asrwt>0</asrwt>
<pdfrwt beam="1">  1       21 0.22008367E+00 0.24866702E+03</pdfrwt>
<pdfrwt beam="2">  1       21 0.85904385E-02 0.24866702E+03</pdfrwt>
<totfact> 0.10186417E+04</totfact>
</mgrwt>
</event>
<event>
 4    1  0.4382184E+000  0.1812236E+03  0.7546771E-02  0.1166624E+00
         21   -1    0    0  501  502  0.00000000000E+00  0.00000000000E+00  0.15298045547E+03  0.15298045547E+03  0.00000000000E+00 0. -1.
         21   -1    0    0  502  503 -0.00000000000E+00 -0.00000000000E+00 -0.41868333172E+03  0.41868333172E+03  0.00000000000E+00 0. -1.
          6    1    1    2  501    0  0.31659891025E+02  0.43711085467E+02  0.66668059733E+02  0.19309748284E+03  0.17300000000E+03 0. -1.
         -6    1    1    2    0  503 -0.31659891025E+02 -0.43711085467E+02 -0.33237093599E+03  0.37856630434E+03  0.17300000000E+03 0. -1.
<mgrwt>
<rscale>  2 0.18122364E+03</rscale>
<asrwt>0</asrwt>
<pdfrwt beam="1">  1       21 0.23535455E-01 0.18122364E+03</pdfrwt>
<pdfrwt beam="2">  1       21 0.64412819E-01 0.18122364E+03</pdfrwt>
<totfact> 0.37991198E+04</totfact>
</mgrwt>
</event>
<event>
 4    1  0.4382184E+000  0.2801706E+03  0.7546771E-02  0.1095596E+00
         21   -1    0    0  503  502  0.00000000000E+00  0.00000000000E+00  0.63593882491E+03  0.63593882491E+03  0.00000000000E+00 0. -1.
         21   -1    0    0  501  503 -0.00000000000E+00 -0.00000000000E+00 -0.14405501841E+03  0.14405501841E+03  0.00000000000E+00 0.  1.
          6    1    1    2  501    0 -0.15389787674E+03  0.15774029634E+03  0.98382396589E+02  0.29694217200E+03  0.17300000000E+03 0.  1.
         -6    1    1    2    0  502  0.15389787674E+03 -0.15774029634E+03  0.39350140992E+03  0.48305167132E+03  0.17300000000E+03 0. -1.
<mgrwt>
<rscale>  2 0.28017059E+03</rscale>
<asrwt>0</asrwt>
<pdfrwt beam="1">  1       21 0.97836740E-01 0.28017059E+03</pdfrwt>
<pdfrwt beam="2">  1       21 0.22162311E-01 0.28017059E+03</pdfrwt>
<totfact> 0.15679921E+04</totfact>
</mgrwt>
</event>
<event>
 4    1  0.4382184E+000  0.1743726E+03  0.7546771E-02  0.1173363E+00
         21   -1    0    0  503  502  0.00000000000E+00  0.00000000000E+00  0.20455502245E+04  0.20455502245E+04  0.00000000000E+00 0.  1.
         21   -1    0    0  501  503 -0.00000000000E+00 -0.00000000000E+00 -0.20173475839E+02  0.20173475839E+02  0.00000000000E+00 0.  1.
          6    1    1    2  501    0 -0.73407541657E+01  0.20565078644E+02  0.48282648083E+03  0.51334902330E+03  0.17300000000E+03 0.  1.
         -6    1    1    2    0  502  0.73407541657E+01 -0.20565078644E+02  0.15425502678E+04  0.15523746771E+04  0.17300000000E+03 0.  1.
<mgrwt>
<rscale>  2 0.17437262E+03</rscale>
<asrwt>0</asrwt>
<pdfrwt beam="1">  1       21 0.31469987E+00 0.17437262E+03</pdfrwt>
<pdfrwt beam="2">  1       21 0.31036133E-02 0.17437262E+03</pdfrwt>
<totfact> 0.17140087E+04</totfact>
</mgrwt>
</event>
<event>
 4    1  0.4382184E+000  0.1823130E+03  0.7546771E-02  0.1165583E+00
         21   -1    0    0  501  502  0.00000000000E+00  0.00000000000E+00  0.28497409249E+03  0.28497409249E+03  0.00000000000E+00 0. -1.
         21   -1    0    0  502  503 -0.00000000000E+00 -0.00000000000E+00 -0.15699278206E+03  0.15699278206E+03  0.00000000000E+00 0. -1.
          6    1    1    2  501    0 -0.52921460361E+02 -0.22546296758E+02  0.17603303741E+03  0.25342779391E+03  0.17300000000E+03 0. -1.
         -6    1    1    2    0  503  0.52921460361E+02  0.22546296758E+02 -0.48051726987E+02  0.18853908065E+03  0.17300000000E+03 0. -1.
<mgrwt>
<rscale>  2 0.18231296E+03</rscale>
<asrwt>0</asrwt>
<pdfrwt beam="1">  1       21 0.43842168E-01 0.18231296E+03</pdfrwt>
<pdfrwt beam="2">  1       21 0.24152736E-01 0.18231296E+03</pdfrwt>
<totfact> 0.81194733E+04</totfact>
</mgrwt>
</event>
<event>
 4    1  0.4382184E+000  0.2085033E+03  0.7546771E-02  0.1142757E+00
         21   -1    0    0  503  502  0.00000000000E+00  0.00000000000E+00  0.16981413967E+04  0.16981413967E+04  0.00000000000E+00 0.  1.
         21   -1    0    0  501  503 -0.00000000000E+00 -0.00000000000E+00 -0.29874119373E+02  0.29874119373E+02  0.00000000000E+00 0. -1.
          6    1    1    2  501    0 -0.82627631543E+02 -0.81959068513E+02  0.11609152916E+04  0.11794905377E+04  0.17300000000E+03 0.  1.
         -6    1    1    2    0  502  0.82627631543E+02  0.81959068513E+02  0.50735198573E+03  0.54852497831E+03  0.17300000000E+03 0. -1.
<mgrwt>
<rscale>  2 0.20850327E+03</rscale>
<asrwt>0</asrwt>
<pdfrwt beam="1">  1       21 0.26125245E+00 0.20850327E+03</pdfrwt>
<pdfrwt beam="2">  1       21 0.45960197E-02 0.20850327E+03</pdfrwt>
<totfact> 0.17475370E+04</totfact>
</mgrwt>
</event>
<event>
 4    1  0.4382184E+000  0.1989090E+03  0.7546771E-02  0.1150663E+00
         21   -1    0    0  501  502  0.00000000000E+00  0.00000000000E+00  0.15527404212E+04  0.15527404212E+04  0.00000000000E+00 0. -1.
         21   -1    0    0  502  503 -0.00000000000E+00 -0.00000000000E+00 -0.30644572419E+02  0.30644572419E+02  0.00000000000E+00 0. -1.
          6    1    1    2  501    0 -0.55889682708E+02 -0.80697670236E+02  0.10860389361E+04  0.11041038635E+04  0.17300000000E+03 0. -1.
         -6    1    1    2    0  503  0.55889682708E+02  0.80697670236E+02  0.43605691268E+03  0.47928113015E+03  0.17300000000E+03 0. -1.
<mgrwt>
<rscale>  2 0.19890895E+03</rscale>
<asrwt>0</asrwt>
<pdfrwt beam="1">  1       21 0.23888308E+00 0.19890895E+03</pdfrwt>
<pdfrwt beam="2">  1       21 0.47145508E-02 0.19890895E+03</pdfrwt>
<totfact> 0.22868305E+04</totfact>
</mgrwt>
</event>
<event>
 4    1  0.4382184E+000  0.2907635E+03  0.7546771E-02  0.1089951E+00
         21   -1    0    0  503  502  0.00000000000E+00  0.00000000000E+00  0.10751419878E+04  0.10751419878E+04  0.00000000000E+00 0. -1.
         21   -1    0    0  501  503 -0.00000000000E+00 -0.00000000000E+00 -0.80419910574E+02  0.80419910574E+02  0.00000000000E+00 0.  1.
          6    1    1    2  501    0 -0.18770180288E+03  0.13922084784E+03  0.41127503837E+03  0.50367704778E+03  0.17300000000E+03 0.  1.
         -6    1    1    2    0  502  0.18770180288E+03 -0.13922084784E+03  0.58344703884E+03  0.65188485057E+03  0.17300000000E+03 0. -1.
<mgrwt>
<rscale>  2 0.29076350E+03</rscale>
<asrwt>0</asrwt>
<pdfrwt beam="1">  1       21 0.16540645E+00 0.29076350E+03</pdfrwt>
<pdfrwt beam="2">  1       21 0.12372295E-01 0.29076350E+03</pdfrwt>
<totfact> 0.12012974E+04</totfact>
</mgrwt>
</event>
<event>
 4    1  0.4382184E+000  0.1827071E+03  0.7546771E-02  0.1165208E+00
         21   -1    0    0  501  502  0.00000000000E+00  0.00000000000E+00  0.94215748914E+03  0.94215748914E+03  0.00000000000E+00 0. -1.
         21   -1    0    0  502  503 -0.00000000000E+00 -0.00000000000E+00 -0.39175248469E+02  0.39175248469E+02  0.00000000000E+00 0. -1.
          6    1    1    2  501    0  0.52461621502E+02  0.26470288522E+02  0.60317635074E+03  0.63024091266E+03  0.17300000000E+03 0. -1.
         -6    1    1    2    0  503 -0.52461621502E+02 -0.26470288522E+02  0.29980588994E+03  0.35109182495E+03  0.17300000000E+03 0. -1.
<mgrwt>
<rscale>  2 0.18270714E+03</rscale>
<asrwt>0</asrwt>
<pdfrwt beam="1">  1       21 0.14494729E+00 0.18270714E+03</pdfrwt>
<pdfrwt beam="2">  1       21 0.60269620E-02 0.18270714E+03</pdfrwt>
<totfact> 0.64312104E+04</totfact>
</mgrwt>
</event>
<event>
 4    1  0.4382184E+000  0.2356335E+03  0.7546771E-02  0.1122736E+00
         21   -1    0    0  503  502  0.00000000000E+00  0.00000000000E+00  0.35692592718E+03  0.35692592718E+03  0.00000000000E+00 0.  1.
         21   -1    0    0  501  503 -0.00000000000E+00 -0.00000000000E+00 -0.15917068103E+03  0.15917068103E+03  0.00000000000E+00 0. -1.
          6    1    1    2  501    0 -0.64729265622E+02 -0.14630190320E+03  0.13774721205E+03  0.27294215346E+03  0.17300000000E+03 0.  1.
         -6    1    1    2    0  502  0.64729265622E+02  0.14630190320E+03  0.60008034100E+02  0.24315445475E+03  0.17300000000E+03 0. -1.
<mgrwt>
<rscale>  2 0.23563345E+03</rscale>
<asrwt>0</asrwt>
<pdfrwt beam="1">  1       21 0.54911681E-01 0.23563345E+03</pdfrwt>
<pdfrwt beam="2">  1       21 0.24487797E-01 0.23563345E+03</pdfrwt>
<totfact> 0.48341841E+04</totfact>
</mgrwt>
</event>
<event>
 4    1  0.4382184E+000  0.2032488E+03  0.7546771E-02  0.1147027E+00
         21   -1    0    0  503  502  0.00000000000E+00  0.00000000000E+00  0.25412241253E+03  0.25412241253E+03  0.00000000000E+00 0.  1.
         21   -1    0    0  501  503 -0.00000000000E+00 -0.00000000000E+00 -0.18659688428E+03  0.18659688428E+03  0.00000000000E+00 0.  1.
          6    1    1    2  501    0  0.10182640398E+03  0.31819059132E+02 -0.45327215328E+02  0.20824174779E+03  0.17300000000E+03 0.  1.
         -6    1    1    2    0  502 -0.10182640398E+03 -0.31819059132E+02  0.11285274357E+03  0.23247754903E+03  0.17300000000E+03 0.  1.
<mgrwt>
<rscale>  2 0.20324879E+03</rscale>
<asrwt>0</asrwt>
<pdfrwt beam="1">  1       21 0.39095756E-01 0.20324879E+03</pdfrwt>
<pdfrwt beam="2">  1       21 0.28707213E-01 0.20324879E+03</pdfrwt>
<totfact> 0.72885817E+04</totfact>
</mgrwt>
</event>
<event>
 4    1  0.4382184E+000  0.1777926E+03  0.7546771E-02  0.1169957E+00
         21   -1    0    0  503  502  0.00000000000E+00  0.00000000000E+00  0.55597389352E+02  0.55597389352E+02  0.00000000000E+00 0. -1.
         21   -1    0    0  501  503 -0.00000000000E+00 -0.00000000000E+00 -0.13023531542E+04  0.13023531542E+04  0.00000000000E+00 0. -1.
          6    1    1    2  501    0  0.40949057174E+02  0.20935889916E+01 -0.11330345348E+04  0.11468990651E+04  0.17300000000E+03 0. -1.
         -6    1    1    2    0  502 -0.40949057174E+02 -0.20935889916E+01 -0.11372123000E+03  0.21105147844E+03  0.17300000000E+03 0. -1.
<mgrwt>
<rscale>  2 0.17779260E+03</rscale>
<asrwt>0</asrwt>
<pdfrwt beam="1">  1       21 0.85534448E-02 0.17779260E+03</pdfrwt>
<pdfrwt beam="2">  1       21 0.20036202E+00 0.17779260E+03</pdfrwt>
<totfact> 0.14435974E+04</totfact>
</mgrwt>
</event>
<event>
 4    1  0.4382184E+000  0.1929589E+03  0.7546771E-02  0.1155819E+00
         21   -1    0    0  501  502  0.00000000000E+00  0.00000000000E+00  0.19060261643E+03  0.19060261643E+03  0.00000000000E+00 0. -1.
         21   -1    0    0  502  503 -0.00000000000E+00 -0.00000000000E+00 -0.41780635963E+03  0.41780635963E+03  0.00000000000E+00 0.  1.
          6    1    1    2  501    0 -0.63478683698E+02 -0.57223932500E+02  0.10837418766E+03  0.22130993264E+03  0.17300000000E+03 0. -1.
         -6    1    1    2    0  503  0.63478683698E+02  0.57223932500E+02 -0.33557793086E+03  0.38709904342E+03  0.17300000000E+03 0.  1.
<mgrwt>
<rscale>  2 0.19295886E+03</rscale>
<asrwt>0</asrwt>
<pdfrwt beam="1">  1       21 0.29323480E-01 0.19295886E+03</pdfrwt>
<pdfrwt beam="2">  1       21 0.64277901E-01 0.19295886E+03</pdfrwt>
<totfact> 0.24873888E+04</totfact>
</mgrwt>
</event>
<event>
 4    1  0.4382184E+000  0.1916495E+03  0.7546771E-02  0.1156982E+00
         21   -1    0    0  501  502  0.00000000000E+00  0.00000000000E+00  0.55598280231E+02  0.55598280231E+02  0.00000000000E+00 0.  1.
         21   -1    0    0  502  503 -0.00000000000E+00 -0.00000000000E+00 -0.66086310612E+03  0.66086310612E+03  0.00000000000E+00 0. -1.
          6    1    1    2  501    0 -0.65709674804E+02 -0.49827411553E+02 -0.30945307054E+03  0.36399276802E+03  0.17300000000E+03 0.  1.
         -6    1    1    2    0  503  0.65709674804E+02  0.49827411553E+02 -0.29581175535E+03  0.35246861833E+03  0.17300000000E+03 0.  1.
<mgrwt>
<rscale>  2 0.19164950E+03</rscale>
<asrwt>0</asrwt>
<pdfrwt beam="1">  1       21 0.85535812E-02 0.19164950E+03</pdfrwt>
<pdfrwt beam="2">  1       21 0.10167125E+00 0.19164950E+03</pdfrwt>
<totfact> 0.84311739E+04</totfact>
</mgrwt>
</event>
<event>
 4    1  0.4382184E+000  0.2075152E+03  0.7546771E-02  0.1143549E+00
         21   -1    0    0  503  502  0.00000000000E+00  0.00000000000E+00  0.42839993273E+02  0.42839993273E+02  0.00000000000E+00 0. -1.
         21   -1    0    0  501  503 -0.00000000000E+00 -0.00000000000E+00 -0.13803272332E+04  0.13803272332E+04  0.00000000000E+00 0. -1.
          6    1    1    2  501    0  0.11446030209E+03 -0.56902928059E+01 -0.10397037148E+04  0.10602105238E+04  0.17300000000E+03 0. -1.
         -6    1    1    2    0  502 -0.11446030209E+03  0.56902928059E+01 -0.29778352515E+03  0.36295670270E+03  0.17300000000E+03 0. -1.
<mgrwt>
<rscale>  2 0.20751516E+03</rscale>
<asrwt>0</asrwt>
<pdfrwt beam="1">  1       21 0.65907690E-02 0.20751516E+03</pdfrwt>
<pdfrwt beam="2">  1       21 0.21235801E+00 0.20751516E+03</pdfrwt>
<totfact> 0.18606410E+04</totfact>
</mgrwt>
</event>
<event>
 4    1  0.4382184E+000  0.2067465E+03  0.7546771E-02  0.1144169E+00
         21   -1    0    0  503  502  0.00000000000E+00  0.00000000000E+00  0.20978924842E+04  0.20978924842E+04  0.00000000000E+00 0. -1.
         21   -1    0    0  501  503 -0.00000000000E+00 -0.00000000000E+00 -0.20584574534E+02  0.20584574534E+02  0.00000000000E+00 0.  1.
          6    1    1    2  501    0 -0.73988010397E+02 -0.85679063450E+02  0.93172256303E+03  0.95438517489E+03  0.17300000000E+03 0.  1.
         -6    1    1    2    0  502  0.73988010397E+02  0.85679063450E+02  0.11455853466E+04  0.11640918838E+04  0.17300000000E+03 0. -1.
<mgrwt>
<rscale>  2 0.20674653E+03</rscale>
<asrwt>0</asrwt>
<pdfrwt beam="1">  1       21 0.32275252E+00 0.20674653E+03</pdfrwt>
<pdfrwt beam="2">  1       21 0.31668593E-02 0.20674653E+03</pdfrwt>
<totfact> 0.14378493E+04</totfact>
</mgrwt>
</event>
<event>
 4    1  0.4382184E+000  0.2425252E+03  0.7546771E-02  0.1118122E+00
         21   -1    0    0  501  502  0.00000000000E+00  0.00000000000E+00  0.69126146154E+02  0.69126146154E+02  0.00000000000E+00 0.  1.
         21   -1    0    0  502  503 -0.00000000000E+00 -0.00000000000E+00 -0.12397899744E+04  0.12397899744E+04  0.00000000000E+00 0.  1.
          6    1    1    2  501    0  0.16460985566E+03  0.42344828317E+02 -0.95187817823E+03  0.98228842773E+03  0.17300000000E+03 0.  1.
         -6    1    1    2    0  503 -0.16460985566E+03 -0.42344828317E+02 -0.21878565002E+03  0.32662769282E+03  0.17300000000E+03 0.  1.
<mgrwt>
<rscale>  2 0.24252523E+03</rscale>
<asrwt>0</asrwt>
<pdfrwt beam="1">  1       21 0.10634792E-01 0.24252523E+03</pdfrwt>
<pdfrwt beam="2">  1       21 0.19073692E+00 0.24252523E+03</pdfrwt>
<totfact> 0.10813756E+04</totfact>
</mgrwt>
</event>
<event>
 4    1  0.4382184E+000  0.2142411E+03  0.7546771E-02  0.1138251E+00
         21   -1    0    0  503  502  0.00000000000E+00  0.00000000000E+00  0.52263296093E+03  0.52263296093E+03  0.00000000000E+00 0.  1.
         21   -1    0    0  501  503 -0.00000000000E+00 -0.00000000000E+00 -0.18601590933E+03  0.18601590933E+03  0.00000000000E+00 0.  1.
          6    1    1    2  501    0  0.11849745287E+03 -0.43915698576E+02 -0.89125501962E+02  0.23204006124E+03  0.17300000000E+03 0.  1.
         -6    1    1    2    0  502 -0.11849745287E+03  0.43915698576E+02  0.42574255357E+03  0.47660880902E+03  0.17300000000E+03 0.  1.
<mgrwt>
<rscale>  2 0.21424107E+03</rscale>
<asrwt>0</asrwt>
<pdfrwt beam="1">  1       21 0.80405070E-01 0.21424107E+03</pdfrwt>
<pdfrwt beam="2">  1       21 0.28617832E-01 0.21424107E+03</pdfrwt>
<totfact> 0.15667562E+04</totfact>
</mgrwt>
</event>
<event>
 4    1  0.4382184E+000  0.2029564E+03  0.7546771E-02  0.1147268E+00
         21   -1    0    0  503  502  0.00000000000E+00  0.00000000000E+00  0.11851820007E+03  0.11851820007E+03  0.00000000000E+00 0. -1.
         21   -1    0    0  501  503 -0.00000000000E+00 -0.00000000000E+00 -0.34768357410E+03  0.34768357410E+03  0.00000000000E+00 0.  1.
          6    1    1    2  501    0  0.16765628734E+02  0.10479133817E+03 -0.11910658359E+03  0.23532464621E+03  0.17300000000E+03 0.  1.
         -6    1    1    2    0  502 -0.16765628734E+02 -0.10479133817E+03 -0.11005879044E+03  0.23087712796E+03  0.17300000000E+03 0. -1.
<mgrwt>
<rscale>  2 0.20295643E+03</rscale>
<asrwt>0</asrwt>
<pdfrwt beam="1">  1       21 0.18233570E-01 0.20295643E+03</pdfrwt>
<pdfrwt beam="2">  1       21 0.53489779E-01 0.20295643E+03</pdfrwt>
<totfact> 0.90295393E+04</totfact>
</mgrwt>
</event>
<event>
 4    1  0.4382184E+000  0.2161039E+03  0.7546771E-02  0.1136821E+00
         21   -1    0    0  501  502  0.00000000000E+00  0.00000000000E+00  0.20085070865E+03  0.20085070865E+03  0.00000000000E+00 0. -1.
         21   -1    0    0  502  503 -0.00000000000E+00 -0.00000000000E+00 -0.27891775752E+03  0.27891775752E+03  0.00000000000E+00 0.  1.
          6    1    1    2  501    0 -0.66100455562E+02 -0.11136714406E+03  0.58810202929E+02  0.22396328041E+03  0.17300000000E+03 0.  1.
         -6    1    1    2    0  503  0.66100455562E+02  0.11136714406E+03 -0.13687725180E+03  0.25580518576E+03  0.17300000000E+03 0.  1.
<mgrwt>
<rscale>  2 0.21610394E+03</rscale>
<asrwt>0</asrwt>
<pdfrwt beam="1">  1       21 0.30900109E-01 0.21610394E+03</pdfrwt>
<pdfrwt beam="2">  1       21 0.42910424E-01 0.21610394E+03</pdfrwt>
<totfact> 0.51957080E+04</totfact>
</mgrwt>
</event>
<event>
 4    1  0.4382184E+000  0.1730911E+03  0.7546771E-02  0.1174662E+00
         21   -1    0    0  503  502  0.00000000000E+00  0.00000000000E+00  0.10371270852E+03  0.10371270852E+03  0.00000000000E+00 0. -1.
         21   -1    0    0  501  503 -0.00000000000E+00 -0.00000000000E+00 -0.56484801443E+03  0.56484801443E+03  0.00000000000E+00 0. -1.
          6    1    1    2  501    0  0.36617248469E+01  0.42581863606E+01 -0.46422225249E+03  0.49544206532E+03  0.17300000000E+03 0. -1.
         -6    1    1    2    0  502 -0.36617248469E+01 -0.42581863606E+01  0.30869465835E+01  0.17311865763E+03  0.17300000000E+03 0. -1.
<mgrwt>
<rscale>  2 0.17309113E+03</rscale>
<asrwt>0</asrwt>
<pdfrwt beam="1">  1       21 0.15955801E-01 0.17309113E+03</pdfrwt>
<pdfrwt beam="2">  1       21 0.86899697E-01 0.17309113E+03</pdfrwt>
<totfact> 0.40329761E+04</totfact>
</mgrwt>
</event>
<event>
 4    1  0.4382184E+000  0.3801856E+03  0.7546771E-02  0.1050865E+00
         21   -1    0    0  501  502  0.00000000000E+00  0.00000000000E+00  0.30003443912E+03  0.30003443912E+03  0.00000000000E+00 0.  1.
         21   -1    0    0  502  503 -0.00000000000E+00 -0.00000000000E+00 -0.82463558829E+03  0.82463558829E+03  0.00000000000E+00 0. -1.
          6    1    1    2  501    0  0.29521575691E+03 -0.16570974343E+03  0.10030946236E+03  0.39319594407E+03  0.17300000000E+03 0.  1.
         -6    1    1    2    0  503 -0.29521575691E+03  0.16570974343E+03 -0.62491061153E+03  0.73147408334E+03  0.17300000000E+03 0. -1.
<mgrwt>
<rscale>  2 0.38018556E+03</rscale>
<asrwt>0</asrwt>
<pdfrwt beam="1">  1       21 0.46159145E-01 0.38018556E+03</pdfrwt>
<pdfrwt beam="2">  1       21 0.12686701E+00 0.38018556E+03</pdfrwt>
<totfact> 0.18265886E+03</totfact>
</mgrwt>
</event>
<event>
 4    1  0.4382184E+000  0.2121521E+03  0.7546771E-02  0.1139873E+00
         21   -1    0    0  501  502  0.00000000000E+00  0.00000000000E+00  0.51229979230E+02  0.51229979230E+02  0.00000000000E+00 0. -1.
         21   -1    0    0  502  503 -0.00000000000E+00 -0.00000000000E+00 -0.88219352978E+03  0.88219352978E+03  0.00000000000E+00 0.  1.
          6    1    1    2  501    0 -0.10140659948E+03 -0.69254603783E+02 -0.44544315216E+03  0.49338433333E+03  0.17300000000E+03 0. -1.
         -6    1    1    2    0  503  0.10140659948E+03  0.69254603783E+02 -0.38552039839E+03  0.44003917569E+03  0.17300000000E+03 0.  1.
<mgrwt>
<rscale>  2 0.21215206E+03</rscale>
<asrwt>0</asrwt>
<pdfrwt beam="1">  1       21 0.78815355E-02 0.21215206E+03</pdfrwt>
<pdfrwt beam="2">  1       21 0.13572208E+00 0.21215206E+03</pdfrwt>
<totfact> 0.47221260E+04</totfact>
</mgrwt>
</event>
<event>
 4    1  0.4382184E+000  0.1837711E+03  0.7546771E-02  0.1164202E+00
         21   -1    0    0  501  502  0.00000000000E+00  0.00000000000E+00  0.20014586652E+03  0.20014586652E+03  0.00000000000E+00 0.  1.
         21   -1    0    0  502  503 -0.00000000000E+00 -0.00000000000E+00 -0.22230914484E+03  0.22230914484E+03  0.00000000000E+00 0.  1.
          6    1    1    2  501    0  0.13510917149E+02  0.60500256216E+02  0.92610328270E+02  0.20578750882E+03  0.17300000000E+03 0.  1.
         -6    1    1    2    0  503 -0.13510917149E+02 -0.60500256216E+02 -0.11477360659E+03  0.21666750253E+03  0.17300000000E+03 0.  1.
<mgrwt>
<rscale>  2 0.18377112E+03</rscale>
<asrwt>0</asrwt>
<pdfrwt beam="1">  1       21 0.30791672E-01 0.18377112E+03</pdfrwt>
<pdfrwt beam="2">  1       21 0.34201407E-01 0.18377112E+03</pdfrwt>
<totfact> 0.83726935E+04</totfact>
</mgrwt>
</event>
<event>
 4    1  0.4382184E+000  0.1820804E+03  0.7546771E-02  0.1165805E+00
         21   -1    0    0  503  502  0.00000000000E+00  0.00000000000E+00  0.10990209212E+03  0.10990209212E+03  0.00000000000E+00 0.  1.
         21   -1    0    0  501  503 -0.00000000000E+00 -0.00000000000E+00 -0.33988753706E+03  0.33988753706E+03  0.00000000000E+00 0.  1.
          6    1    1    2  501    0 -0.43816259797E+02 -0.36116607311E+02 -0.19041318415E+03  0.26345863934E+03  0.17300000000E+03 0.  1.
         -6    1    1    2    0  502  0.43816259797E+02  0.36116607311E+02 -0.39572260790E+02  0.18633098983E+03  0.17300000000E+03 0.  1.
<mgrwt>
<rscale>  2 0.18208041E+03</rscale>
<asrwt>0</asrwt>
<pdfrwt beam="1">  1       21 0.16908014E-01 0.18208041E+03</pdfrwt>
<pdfrwt beam="2">  1       21 0.52290390E-01 0.18208041E+03</pdfrwt>
<totfact> 0.10975054E+05</totfact>
</mgrwt>
</event>
<event>
 4    1  0.4382184E+000  0.2033582E+03  0.7546771E-02  0.1146936E+00
         21   -1    0    0  503  502  0.00000000000E+00  0.00000000000E+00  0.57332466379E+02  0.57332466379E+02  0.00000000000E+00 0.  1.
         21   -1    0    0  501  503 -0.00000000000E+00 -0.00000000000E+00 -0.72214291819E+03  0.72214291819E+03  0.00000000000E+00 0.  1.
          6    1    1    2  501    0  0.33970485018E+02  0.10134869064E+03 -0.34563173340E+03  0.40101851089E+03  0.17300000000E+03 0.  1.
         -6    1    1    2    0  502 -0.33970485018E+02 -0.10134869064E+03 -0.31917871842E+03  0.37845687368E+03  0.17300000000E+03 0.  1.
<mgrwt>
<rscale>  2 0.20335818E+03</rscale>
<asrwt>0</asrwt>
<pdfrwt beam="1">  1       21 0.88203798E-02 0.20335818E+03</pdfrwt>
<pdfrwt beam="2">  1       21 0.11109891E+00 0.20335818E+03</pdfrwt>
<totfact> 0.64179065E+04</totfact>
</mgrwt>
</event>
<event>
 4    1  0.4382184E+000  0.2356200E+03  0.7546771E-02  0.1122745E+00
         21   -1    0    0  503  502  0.00000000000E+00  0.00000000000E+00  0.12281235255E+03  0.12281235255E+03  0.00000000000E+00 0.  1.
         21   -1    0    0  501  503 -0.00000000000E+00 -0.00000000000E+00 -0.96446345117E+03  0.96446345117E+03  0.00000000000E+00 0.  1.
          6    1    1    2  501    0 -0.14368142806E+03 -0.70309662131E+02 -0.81708433523E+03  0.85037851116E+03  0.17300000000E+03 0.  1.
         -6    1    1    2    0  502  0.14368142806E+03  0.70309662131E+02 -0.24566763397E+02  0.23689729256E+03  0.17300000000E+03 0.  1.
<mgrwt>
<rscale>  2 0.23562004E+03</rscale>
<asrwt>0</asrwt>
<pdfrwt beam="1">  1       21 0.18894208E-01 0.23562004E+03</pdfrwt>
<pdfrwt beam="2">  1       21 0.14837899E+00 0.23562004E+03</pdfrwt>
<totfact> 0.76477194E+03</totfact>
</mgrwt>
</event>
<event>
 4    1  0.4382184E+000  0.2689525E+03  0.7546771E-02  0.1101881E+00
         21   -1    0    0  503  502  0.00000000000E+00  0.00000000000E+00  0.39194196401E+03  0.39194196401E+03  0.00000000000E+00 0.  1.
         21   -1    0    0  501  503 -0.00000000000E+00 -0.00000000000E+00 -0.32445913086E+03  0.32445913086E+03  0.00000000000E+00 0.  1.
          6    1    1    2  501    0  0.94533083481E+02  0.18294798271E+03 -0.20147036006E+03  0.33604430397E+03  0.17300000000E+03 0.  1.
         -6    1    1    2    0  502 -0.94533083481E+02 -0.18294798271E+03  0.26895319321E+03  0.38035679091E+03  0.17300000000E+03 0.  1.
<mgrwt>
<rscale>  2 0.26895254E+03</rscale>
<asrwt>0</asrwt>
<pdfrwt beam="1">  1       21 0.60298764E-01 0.26895254E+03</pdfrwt>
<pdfrwt beam="2">  1       21 0.49916789E-01 0.26895254E+03</pdfrwt>
<totfact> 0.93602729E+03</totfact>
</mgrwt>
</event>
<event>
 4    1  0.4382184E+000  0.2452704E+03  0.7546771E-02  0.1116331E+00
         21   -1    0    0  503  502  0.00000000000E+00  0.00000000000E+00  0.47622669694E+03  0.47622669694E+03  0.00000000000E+00 0. -1.
         21   -1    0    0  501  503 -0.00000000000E+00 -0.00000000000E+00 -0.12651311833E+03  0.12651311833E+03  0.00000000000E+00 0. -1.
          6    1    1    2  501    0 -0.17279060696E+02 -0.17300291132E+03  0.16312180908E+03  0.29456119544E+03  0.17300000000E+03 0. -1.
         -6    1    1    2    0  502  0.17279060696E+02  0.17300291132E+03  0.18659176953E+03  0.30817861983E+03  0.17300000000E+03 0. -1.
<mgrwt>
<rscale>  2 0.24527041E+03</rscale>
<asrwt>0</asrwt>
<pdfrwt beam="1">  1       21 0.73265644E-01 0.24527041E+03</pdfrwt>
<pdfrwt beam="2">  1       21 0.19463557E-01 0.24527041E+03</pdfrwt>
<totfact> 0.39658002E+04</totfact>
</mgrwt>
</event>
<event>
 4    1  0.4382184E+000  0.2191492E+03  0.7546771E-02  0.1134519E+00
         21   -1    0    0  503  502  0.00000000000E+00  0.00000000000E+00  0.48381436182E+02  0.48381436182E+02  0.00000000000E+00 0.  1.
         21   -1    0    0  501  503 -0.00000000000E+00 -0.00000000000E+00 -0.11372465717E+04  0.11372465717E+04  0.00000000000E+00 0.  1.
          6    1    1    2  501    0  0.10464300929E+03 -0.84541301166E+02 -0.75580716935E+03  0.78693765206E+03  0.17300000000E+03 0.  1.
         -6    1    1    2    0  502 -0.10464300929E+03  0.84541301166E+02 -0.33305796618E+03  0.39869035583E+03  0.17300000000E+03 0.  1.
<mgrwt>
<rscale>  2 0.21914924E+03</rscale>
<asrwt>0</asrwt>
<pdfrwt beam="1">  1       21 0.74432974E-02 0.21914924E+03</pdfrwt>
<pdfrwt beam="2">  1       21 0.17496102E+00 0.21914924E+03</pdfrwt>
<totfact> 0.26337018E+04</totfact>
</mgrwt>
</event>
<event>
 4    1  0.4382184E+000  0.1931890E+03  0.7546771E-02  0.1155616E+00
         21   -1    0    0  503  502  0.00000000000E+00  0.00000000000E+00  0.33403432483E+03  0.33403432483E+03  0.00000000000E+00 0. -1.
         21   -1    0    0  501  503 -0.00000000000E+00 -0.00000000000E+00 -0.34292589537E+03  0.34292589537E+03  0.00000000000E+00 0. -1.
          6    1    1    2  501    0  0.54853890039E+02  0.66212034738E+02 -0.28236728924E+03  0.34213048509E+03  0.17300000000E+03 0. -1.
         -6    1    1    2    0  502 -0.54853890039E+02 -0.66212034738E+02  0.27347571870E+03  0.33482973511E+03  0.17300000000E+03 0. -1.
<mgrwt>
<rscale>  2 0.19318898E+03</rscale>
<asrwt>0</asrwt>
<pdfrwt beam="1">  1       21 0.51389896E-01 0.19318898E+03</pdfrwt>
<pdfrwt beam="2">  1       21 0.52757830E-01 0.19318898E+03</pdfrwt>
<totfact> 0.12249803E+04</totfact>
</mgrwt>
</event>
<event>
 4    1  0.4382184E+000  0.2166300E+03  0.7546771E-02  0.1136421E+00
         21   -1    0    0  501  502  0.00000000000E+00  0.00000000000E+00  0.54876483004E+03  0.54876483004E+03  0.00000000000E+00 0.  1.
         21   -1    0    0  502  503 -0.00000000000E+00 -0.00000000000E+00 -0.11222424692E+03  0.11222424692E+03  0.00000000000E+00 0.  1.
          6    1    1    2  501    0 -0.58096923478E+02  0.11672315233E+03  0.57043172679E+02  0.22401444229E+03  0.17300000000E+03 0.  1.
         -6    1    1    2    0  503  0.58096923478E+02 -0.11672315233E+03  0.37949741045E+03  0.43697463467E+03  0.17300000000E+03 0.  1.
<mgrwt>
<rscale>  2 0.21662998E+03</rscale>
<asrwt>0</asrwt>
<pdfrwt beam="1">  1       21 0.84425357E-01 0.21662998E+03</pdfrwt>
<pdfrwt beam="2">  1       21 0.17265269E-01 0.21662998E+03</pdfrwt>
<totfact> 0.36435647E+04</totfact>
</mgrwt>
</event>
<event>
 4    1  0.4382184E+000  0.2596961E+03  0.7546771E-02  0.1107326E+00
         21   -1    0    0  503  502  0.00000000000E+00  0.00000000000E+00  0.72042201723E+03  0.72042201723E+03  0.00000000000E+00 0. -1.
         21   -1    0    0  501  503 -0.00000000000E+00 -0.00000000000E+00 -0.15221163404E+03  0.15221163404E+03  0.00000000000E+00 0. -1.
          6    1    1    2  501    0 -0.74856032799E+02 -0.17863266968E+03  0.13388108599E+02  0.26004095403E+03  0.17300000000E+03 0. -1.
         -6    1    1    2    0  502  0.74856032799E+02  0.17863266968E+03  0.55482227459E+03  0.61259269724E+03  0.17300000000E+03 0. -1.
<mgrwt>
<rscale>  2 0.25969608E+03</rscale>
<asrwt>0</asrwt>
<pdfrwt beam="1">  1       21 0.11083415E+00 0.25969608E+03</pdfrwt>
<pdfrwt beam="2">  1       21 0.23417175E-01 0.25969608E+03</pdfrwt>
<totfact> 0.10547889E+04</totfact>
</mgrwt>
</event>
<event>
 4    1  0.4382184E+000  0.2152826E+03  0.7546771E-02  0.1137450E+00
         21   -1    0    0  503  502  0.00000000000E+00  0.00000000000E+00  0.18388679117E+03  0.18388679117E+03  0.00000000000E+00 0. -1.
         21   -1    0    0  501  503 -0.00000000000E+00 -0.00000000000E+00 -0.10504263788E+04  0.10504263788E+04  0.00000000000E+00 0. -1.
          6    1    1    2  501    0  0.10007285418E+03  0.80018894680E+02 -0.97131585067E+03  0.99488747173E+03  0.17300000000E+03 0. -1.
         -6    1    1    2    0  502 -0.10007285418E+03 -0.80018894680E+02  0.10477626308E+03  0.23942569819E+03  0.17300000000E+03 0. -1.
<mgrwt>
<rscale>  2 0.21528260E+03</rscale>
<asrwt>0</asrwt>
<pdfrwt beam="1">  1       21 0.28290275E-01 0.21528260E+03</pdfrwt>
<pdfrwt beam="2">  1       21 0.16160406E+00 0.21528260E+03</pdfrwt>
<totfact> 0.28670806E+03</totfact>
</mgrwt>
</event>
<event>
 4    1  0.4382184E+000  0.2259411E+03  0.7546771E-02  0.1129530E+00
         21   -1    0    0  503  502  0.00000000000E+00  0.00000000000E+00  0.16837350720E+03  0.16837350720E+03  0.00000000000E+00 0. -1.
         21   -1    0    0  501  503 -0.00000000000E+00 -0.00000000000E+00 -0.30757259674E+03  0.30757259674E+03  0.00000000000E+00 0.  1.
          6    1    1    2  501    0  0.70397385749E+02 -0.12713996010E+03 -0.41196720723E+02  0.22966612979E+03  0.17300000000E+03 0. -1.
         -6    1    1    2    0  502 -0.70397385749E+02  0.12713996010E+03 -0.98002368821E+02  0.24627997415E+03  0.17300000000E+03 0.  1.
<mgrwt>
<rscale>  2 0.22594106E+03</rscale>
<asrwt>0</asrwt>
<pdfrwt beam="1">  1       21 0.25903617E-01 0.22594106E+03</pdfrwt>
<pdfrwt beam="2">  1       21 0.47318861E-01 0.22594106E+03</pdfrwt>
<totfact> 0.59570299E+04</totfact>
</mgrwt>
</event>
<event>
 4    1  0.4382184E+000  0.2101048E+03  0.7546771E-02  0.1141483E+00
         21   -1    0    0  503  502  0.00000000000E+00  0.00000000000E+00  0.47735861276E+03  0.47735861276E+03  0.00000000000E+00 0.  1.
         21   -1    0    0  501  503 -0.00000000000E+00 -0.00000000000E+00 -0.94252293124E+02  0.94252293124E+02  0.00000000000E+00 0. -1.
          6    1    1    2  501    0 -0.58348077774E+01 -0.11908398440E+03  0.15231337540E+03  0.25950607825E+03  0.17300000000E+03 0. -1.
         -6    1    1    2    0  502  0.58348077774E+01  0.11908398440E+03  0.23079294424E+03  0.31210482764E+03  0.17300000000E+03 0.  1.
<mgrwt>
<rscale>  2 0.21010483E+03</rscale>
<asrwt>0</asrwt>
<pdfrwt beam="1">  1       21 0.73439785E-01 0.21010483E+03</pdfrwt>
<pdfrwt beam="2">  1       21 0.14500353E-01 0.21010483E+03</pdfrwt>
<totfact> 0.68965557E+04</totfact>
</mgrwt>
</event>
<event>
 4    1  0.4382184E+000  0.2116120E+03  0.7546771E-02  0.1140296E+00
         21   -1    0    0  503  502  0.00000000000E+00  0.00000000000E+00  0.48854277291E+03  0.48854277291E+03  0.00000000000E+00 0.  1.
         21   -1    0    0  501  503 -0.00000000000E+00 -0.00000000000E+00 -0.95919872964E+02  0.95919872964E+02  0.00000000000E+00 0.  1.
          6    1    1    2  501    0  0.10901010290E+03  0.54474145309E+02  0.13472414631E+03  0.25085898557E+03  0.17300000000E+03 0.  1.
         -6    1    1    2    0  502 -0.10901010290E+03 -0.54474145309E+02  0.25789875363E+03  0.33360366030E+03  0.17300000000E+03 0.  1.
<mgrwt>
<rscale>  2 0.21161199E+03</rscale>
<asrwt>0</asrwt>
<pdfrwt beam="1">  1       21 0.75160425E-01 0.21161199E+03</pdfrwt>
<pdfrwt beam="2">  1       21 0.14756904E-01 0.21161199E+03</pdfrwt>
<totfact> 0.63386907E+04</totfact>
</mgrwt>
</event>
<event>
 4    1  0.4382184E+000  0.2090388E+03  0.7546771E-02  0.1142329E+00
         21   -1    0    0  503  502  0.00000000000E+00  0.00000000000E+00  0.40829009773E+02  0.40829009773E+02  0.00000000000E+00 0.  1.
         21   -1    0    0  501  503 -0.00000000000E+00 -0.00000000000E+00 -0.15755759992E+04  0.15755759992E+04  0.00000000000E+00 0.  1.
          6    1    1    2  501    0  0.70543428550E+00 -0.11733588941E+03 -0.12250796439E+04  0.12427861210E+04  0.17300000000E+03 0.  1.
         -6    1    1    2    0  502 -0.70543428550E+00  0.11733588941E+03 -0.30966734550E+03  0.37361888797E+03  0.17300000000E+03 0.  1.
<mgrwt>
<rscale>  2 0.20903877E+03</rscale>
<asrwt>0</asrwt>
<pdfrwt beam="1">  1       21 0.62813851E-02 0.20903877E+03</pdfrwt>
<pdfrwt beam="2">  1       21 0.24239635E+00 0.20903877E+03</pdfrwt>
<totfact> 0.13247259E+04</totfact>
</mgrwt>
</event>
<event>
 4    1  0.4382184E+000  0.1909507E+03  0.7546771E-02  0.1157607E+00
         21   -1    0    0  501  502  0.00000000000E+00  0.00000000000E+00  0.57028757446E+02  0.57028757446E+02  0.00000000000E+00 0.  1.
         21   -1    0    0  502  503 -0.00000000000E+00 -0.00000000000E+00 -0.64078257925E+03  0.64078257925E+03  0.00000000000E+00 0. -1.
          6    1    1    2  501    0 -0.79885968604E+02 -0.12304727786E+02 -0.30828932785E+03  0.36263546982E+03  0.17300000000E+03 0. -1.
         -6    1    1    2    0  503  0.79885968604E+02  0.12304727786E+02 -0.27546449395E+03  0.33517586687E+03  0.17300000000E+03 0.  1.
<mgrwt>
<rscale>  2 0.19095071E+03</rscale>
<asrwt>0</asrwt>
<pdfrwt beam="1">  1       21 0.87736550E-02 0.19095071E+03</pdfrwt>
<pdfrwt beam="2">  1       21 0.98581935E-01 0.19095071E+03</pdfrwt>
<totfact> 0.86800606E+04</totfact>
</mgrwt>
</event>
<event>
 4    1  0.4382184E+000  0.2013837E+03  0.7546771E-02  0.1148577E+00
         21   -1    0    0  503  502  0.00000000000E+00  0.00000000000E+00  0.24194820234E+03  0.24194820234E+03  0.00000000000E+00 0.  1.
         21   -1    0    0  501  503 -0.00000000000E+00 -0.00000000000E+00 -0.13637477857E+04  0.13637477857E+04  0.00000000000E+00 0. -1.
          6    1    1    2  501    0  0.89904634116E+02  0.50433605250E+02 -0.13127910945E+04  0.13281475255E+04  0.17300000000E+03 0. -1.
         -6    1    1    2    0  502 -0.89904634116E+02 -0.50433605250E+02  0.19099151107E+03  0.27754846257E+03  0.17300000000E+03 0.  1.
<mgrwt>
<rscale>  2 0.20138369E+03</rscale>
<asrwt>0</asrwt>
<pdfrwt beam="1">  1       21 0.37222801E-01 0.20138369E+03</pdfrwt>
<pdfrwt beam="2">  1       21 0.20980735E+00 0.20138369E+03</pdfrwt>
<totfact> 0.80182566E+02</totfact>
</mgrwt>
</event>
<event>
 4    1  0.4382184E+000  0.2082129E+03  0.7546771E-02  0.1142989E+00
         21   -1    0    0  503  502  0.00000000000E+00  0.00000000000E+00  0.23550247759E+02  0.23550247759E+02  0.00000000000E+00 0. -1.
         21   -1    0    0  501  503 -0.00000000000E+00 -0.00000000000E+00 -0.23031965916E+04  0.23031965916E+04  0.00000000000E+00 0. -1.
          6    1    1    2  501    0 -0.11480479287E+03 -0.15603329016E+02 -0.61858662993E+03  0.65268830469E+03  0.17300000000E+03 0. -1.
         -6    1    1    2    0  502  0.11480479287E+03  0.15603329016E+02 -0.16610597139E+04  0.16740585347E+04  0.17300000000E+03 0. -1.
<mgrwt>
<rscale>  2 0.20821288E+03</rscale>
<asrwt>0</asrwt>
<pdfrwt beam="1">  1       21 0.36231136E-02 0.20821288E+03</pdfrwt>
<pdfrwt beam="2">  1       21 0.35433808E+00 0.20821288E+03</pdfrwt>
<totfact> 0.74823462E+03</totfact>
</mgrwt>
</event>
<event>
 4    1  0.4382184E+000  0.2095180E+03  0.7546771E-02  0.1141948E+00
         21   -1    0    0  503  502  0.00000000000E+00  0.00000000000E+00  0.69710003862E+02  0.69710003862E+02  0.00000000000E+00 0. -1.
         21   -1    0    0  501  503 -0.00000000000E+00 -0.00000000000E+00 -0.20400633887E+04  0.20400633887E+04  0.00000000000E+00 0.  1.
          6    1    1    2  501    0  0.99388077632E+02  0.63959322605E+02 -0.18622712474E+04  0.18740202731E+04  0.17300000000E+03 0.  1.
         -6    1    1    2    0  502 -0.99388077632E+02 -0.63959322605E+02 -0.10808213743E+03  0.23575311950E+03  0.17300000000E+03 0. -1.
<mgrwt>
<rscale>  2 0.20951798E+03</rscale>
<asrwt>0</asrwt>
<pdfrwt beam="1">  1       21 0.10724615E-01 0.20951798E+03</pdfrwt>
<pdfrwt beam="2">  1       21 0.31385593E+00 0.20951798E+03</pdfrwt>
<totfact> 0.19936525E+03</totfact>
</mgrwt>
</event>
<event>
 4    1  0.4382184E+000  0.1816724E+03  0.7546771E-02  0.1166194E+00
         21   -1    0    0  501  502  0.00000000000E+00  0.00000000000E+00  0.21092663763E+02  0.21092663763E+02  0.00000000000E+00 0. -1.
         21   -1    0    0  502  503 -0.00000000000E+00 -0.00000000000E+00 -0.17532469861E+04  0.17532469861E+04  0.00000000000E+00 0. -1.
          6    1    1    2  501    0  0.48800474902E+02 -0.26350655348E+02 -0.11569693618E+04  0.11711459975E+04  0.17300000000E+03 0. -1.
         -6    1    1    2    0  503 -0.48800474902E+02  0.26350655348E+02 -0.57518496057E+03  0.60319365236E+03  0.17300000000E+03 0. -1.
<mgrwt>
<rscale>  2 0.18167235E+03</rscale>
<asrwt>0</asrwt>
<pdfrwt beam="1">  1       21 0.32450239E-02 0.18167235E+03</pdfrwt>
<pdfrwt beam="2">  1       21 0.26973042E+00 0.18167235E+03</pdfrwt>
<totfact> 0.28622959E+04</totfact>
</mgrwt>
</event>
<event>
 4    1  0.4382184E+000  0.2100467E+03  0.7546771E-02  0.1141529E+00
         21   -1    0    0  503  502  0.00000000000E+00  0.00000000000E+00  0.84205840999E+02  0.84205840999E+02  0.00000000000E+00 0.  1.
         21   -1    0    0  501  503 -0.00000000000E+00 -0.00000000000E+00 -0.54805563466E+03  0.54805563466E+03  0.00000000000E+00 0. -1.
          6    1    1    2  501    0 -0.10175655536E+03  0.61937096737E+02 -0.16562405809E+03  0.26749005426E+03  0.17300000000E+03 0. -1.
         -6    1    1    2    0  502  0.10175655536E+03 -0.61937096737E+02 -0.29822573557E+03  0.36477142140E+03  0.17300000000E+03 0. -1.
<mgrwt>
<rscale>  2 0.21004666E+03</rscale>
<asrwt>0</asrwt>
<pdfrwt beam="1">  1       21 0.12954745E-01 0.21004666E+03</pdfrwt>
<pdfrwt beam="2">  1       21 0.84316251E-01 0.21004666E+03</pdfrwt>
<totfact> 0.61923165E+04</totfact>
</mgrwt>
</event>
<event>
 4    1  0.4382184E+000  0.2057919E+03  0.7546771E-02  0.1144942E+00
         21   -1    0    0  503  502  0.00000000000E+00  0.00000000000E+00  0.34000020453E+03  0.34000020453E+03  0.00000000000E+00 0.  1.
         21   -1    0    0  501  503 -0.00000000000E+00 -0.00000000000E+00 -0.14012312162E+03  0.14012312162E+03  0.00000000000E+00 0. -1.
          6    1    1    2  501    0 -0.97345197435E+00  0.11144666620E+03  0.19932805338E+02  0.20675498481E+03  0.17300000000E+03 0. -1.
         -6    1    1    2    0  502  0.97345197435E+00 -0.11144666620E+03  0.17994427757E+03  0.27336834134E+03  0.17300000000E+03 0.  1.
<mgrwt>
<rscale>  2 0.20579190E+03</rscale>
<asrwt>0</asrwt>
<pdfrwt beam="1">  1       21 0.52307723E-01 0.20579190E+03</pdfrwt>
<pdfrwt beam="2">  1       21 0.21557403E-01 0.20579190E+03</pdfrwt>
<totfact> 0.69129040E+04</totfact>
</mgrwt>
</event>
<event>
 4    1  0.4382184E+000  0.1758613E+03  0.7546771E-02  0.1171870E+00
         21   -1    0    0  503  502  0.00000000000E+00  0.00000000000E+00  0.16626322179E+04  0.16626322179E+04  0.00000000000E+00 0. -1.
         21   -1    0    0  501  503 -0.00000000000E+00 -0.00000000000E+00 -0.38494020470E+02  0.38494020470E+02  0.00000000000E+00 0. -1.
          6    1    1    2  501    0 -0.18278269813E+02 -0.25769848681E+02  0.20062520810E+03  0.26679140611E+03  0.17300000000E+03 0. -1.
         -6    1    1    2    0  502  0.18278269813E+02  0.25769848681E+02  0.14235129893E+04  0.14343348322E+04  0.17300000000E+03 0. -1.
<mgrwt>
<rscale>  2 0.17586125E+03</rscale>
<asrwt>0</asrwt>
<pdfrwt beam="1">  1       21 0.25578952E+00 0.17586125E+03</pdfrwt>
<pdfrwt beam="2">  1       21 0.59221583E-02 0.17586125E+03</pdfrwt>
<totfact> 0.12603706E+04</totfact>
</mgrwt>
</event>
<event>
 4    1  0.4382184E+000  0.1731162E+03  0.7546771E-02  0.1174637E+00
         21   -1    0    0  501  502  0.00000000000E+00  0.00000000000E+00  0.93154696186E+03  0.93154696186E+03  0.00000000000E+00 0.  1.
         21   -1    0    0  502  503 -0.00000000000E+00 -0.00000000000E+00 -0.34214055175E+02  0.34214055175E+02  0.00000000000E+00 0.  1.
          6    1    1    2  501    0 -0.45863231850E+01  0.43810581039E+01  0.56665186129E+03  0.59250616869E+03  0.17300000000E+03 0.  1.
         -6    1    1    2    0  503  0.45863231850E+01 -0.43810581039E+01  0.33068104540E+03  0.37325484835E+03  0.17300000000E+03 0.  1.
<mgrwt>
<rscale>  2 0.17311623E+03</rscale>
<asrwt>0</asrwt>
<pdfrwt beam="1">  1       21 0.14331490E+00 0.17311623E+03</pdfrwt>
<pdfrwt beam="2">  1       21 0.52637015E-02 0.17311623E+03</pdfrwt>
<totfact> 0.83823064E+04</totfact>
</mgrwt>
</event>
<event>
 4    1  0.4382184E+000  0.2730123E+03  0.7546771E-02  0.1099568E+00
         21   -1    0    0  503  502  0.00000000000E+00  0.00000000000E+00  0.26697273725E+03  0.26697273725E+03  0.00000000000E+00 0. -1.
         21   -1    0    0  501  503 -0.00000000000E+00 -0.00000000000E+00 -0.31690897581E+03  0.31690897581E+03  0.00000000000E+00 0. -1.
          6    1    1    2  501    0  0.55351845288E+02 -0.20382074553E+03 -0.12568820358E+03  0.30055489948E+03  0.17300000000E+03 0. -1.
         -6    1    1    2    0  502 -0.55351845288E+02  0.20382074553E+03  0.75751965024E+02  0.28332681357E+03  0.17300000000E+03 0. -1.
<mgrwt>
<rscale>  2 0.27301231E+03</rscale>
<asrwt>0</asrwt>
<pdfrwt beam="1">  1       21 0.41072729E-01 0.27301231E+03</pdfrwt>
<pdfrwt beam="2">  1       21 0.48755227E-01 0.27301231E+03</pdfrwt>
<totfact> 0.22007413E+04</totfact>
</mgrwt>
</event>
<event>
 4    1  0.4382184E+000  0.2804920E+03  0.7546771E-02  0.1095421E+00
         21   -1    0    0  501  502  0.00000000000E+00  0.00000000000E+00  0.57657706518E+03  0.57657706518E+03  0.00000000000E+00 0.  1.
         21   -1    0    0  502  503 -0.00000000000E+00 -0.00000000000E+00 -0.13866210601E+03  0.13866210601E+03  0.00000000000E+00 0. -1.
          6    1    1    2  501    0  0.69371513098E+02  0.20960518053E+03  0.26409513953E+03  0.38525573488E+03  0.17300000000E+03 0.  1.
         -6    1    1    2    0  503 -0.69371513098E+02 -0.20960518053E+03  0.17381981964E+03  0.32998343630E+03  0.17300000000E+03 0.  1.
<mgrwt>
<rscale>  2 0.28049196E+03</rscale>
<asrwt>0</asrwt>
<pdfrwt beam="1">  1       21 0.88704162E-01 0.28049196E+03</pdfrwt>
<pdfrwt beam="2">  1       21 0.21332632E-01 0.28049196E+03</pdfrwt>
<totfact> 0.21234926E+04</totfact>
</mgrwt>
</event>
<event>
 4    1  0.4382184E+000  0.2372388E+03  0.7546771E-02  0.1121646E+00
         21   -1    0    0  501  502  0.00000000000E+00  0.00000000000E+00  0.16264327564E+04  0.16264327564E+04  0.00000000000E+00 0. -1.
         21   -1    0    0  502  503 -0.00000000000E+00 -0.00000000000E+00 -0.35867539930E+02  0.35867539930E+02  0.00000000000E+00 0. -1.
          6    1    1    2  501    0 -0.16371934383E+01 -0.16232859604E+03  0.95123751736E+03  0.98037496293E+03  0.17300000000E+03 0. -1.
         -6    1    1    2    0  503  0.16371934383E+01  0.16232859604E+03  0.63932769911E+03  0.68192533341E+03  0.17300000000E+03 0. -1.
<mgrwt>
<rscale>  2 0.23723881E+03</rscale>
<asrwt>0</asrwt>
<pdfrwt beam="1">  1       21 0.25022037E+00 0.23723881E+03</pdfrwt>
<pdfrwt beam="2">  1       21 0.55180843E-02 0.23723881E+03</pdfrwt>
<totfact> 0.14526537E+04</totfact>
</mgrwt>
</event>
<event>
 4    1  0.4382184E+000  0.3194268E+03  0.7546771E-02  0.1075913E+00
         21   -1    0    0  501  502  0.00000000000E+00  0.00000000000E+00  0.69889916946E+03  0.69889916946E+03  0.00000000000E+00 0.  1.
         21   -1    0    0  502  503 -0.00000000000E+00 -0.00000000000E+00 -0.19108009894E+03  0.19108009894E+03  0.00000000000E+00 0. -1.
          6    1    1    2  501    0 -0.26841125478E+03 -0.77400683523E+01  0.47006904613E+03  0.56832949816E+03  0.17300000000E+03 0.  1.
         -6    1    1    2    0  503  0.26841125478E+03  0.77400683523E+01  0.37750024399E+02  0.32164977024E+03  0.17300000000E+03 0. -1.
<mgrwt>
<rscale>  2 0.31942685E+03</rscale>
<asrwt>0</asrwt>
<pdfrwt beam="1">  1       21 0.10752295E+00 0.31942685E+03</pdfrwt>
<pdfrwt beam="2">  1       21 0.29396939E-01 0.31942685E+03</pdfrwt>
<totfact> 0.70968347E+03</totfact>
</mgrwt>
</event>
<event>
 4    1  0.4382184E+000  0.1991866E+03  0.7546771E-02  0.1150427E+00
         21   -1    0    0  501  502  0.00000000000E+00  0.00000000000E+00  0.13027116612E+04  0.13027116612E+04  0.00000000000E+00 0. -1.
         21   -1    0    0  502  503 -0.00000000000E+00 -0.00000000000E+00 -0.42288839444E+02  0.42288839444E+02  0.00000000000E+00 0.  1.
          6    1    1    2  501    0  0.16024841646E+02  0.97414019756E+02  0.98594547610E+03  0.10058646870E+04  0.17300000000E+03 0.  1.
         -6    1    1    2    0  503 -0.16024841646E+02 -0.97414019756E+02  0.27447734569E+03  0.33913581364E+03  0.17300000000E+03 0.  1.
<mgrwt>
<rscale>  2 0.19918656E+03</rscale>
<asrwt>0</asrwt>
<pdfrwt beam="1">  1       21 0.20041715E+00 0.19918656E+03</pdfrwt>
<pdfrwt beam="2">  1       21 0.65059763E-02 0.19918656E+03</pdfrwt>
<totfact> 0.22788062E+04</totfact>
</mgrwt>
</event>
<event>
 4    1  0.4382184E+000  0.1979791E+03  0.7546771E-02  0.1151455E+00
         21   -1    0    0  503  502  0.00000000000E+00  0.00000000000E+00  0.40412036963E+03  0.40412036963E+03  0.00000000000E+00 0. -1.
         21   -1    0    0  501  503 -0.00000000000E+00 -0.00000000000E+00 -0.14155923369E+03  0.14155923369E+03  0.00000000000E+00 0.  1.
          6    1    1    2  501    0 -0.72910934793E+02  0.62854627539E+02 -0.21812425645E+02  0.19917703313E+03  0.17300000000E+03 0.  1.
         -6    1    1    2    0  502  0.72910934793E+02 -0.62854627539E+02  0.28437356158E+03  0.34650257018E+03  0.17300000000E+03 0. -1.
<mgrwt>
<rscale>  2 0.19797906E+03</rscale>
<asrwt>0</asrwt>
<pdfrwt beam="1">  1       21 0.62172364E-01 0.19797906E+03</pdfrwt>
<pdfrwt beam="2">  1       21 0.21778344E-01 0.19797906E+03</pdfrwt>
<totfact> 0.47097522E+04</totfact>
</mgrwt>
</event>
<event>
 4    1  0.4382184E+000  0.1761568E+03  0.7546771E-02  0.1171575E+00
         21   -1    0    0  501  502  0.00000000000E+00  0.00000000000E+00  0.10959287099E+04  0.10959287099E+04  0.00000000000E+00 0.  1.
         21   -1    0    0  502  503 -0.00000000000E+00 -0.00000000000E+00 -0.65983197002E+02  0.65983197002E+02  0.00000000000E+00 0.  1.
          6    1    1    2  501    0  0.28433510771E+02  0.17139260796E+02  0.95392165128E+03  0.97005037786E+03  0.17300000000E+03 0.  1.
         -6    1    1    2    0  503 -0.28433510771E+02 -0.17139260796E+02  0.76023861629E+02  0.19186152906E+03  0.17300000000E+03 0.  1.
<mgrwt>
<rscale>  2 0.17615680E+03</rscale>
<asrwt>0</asrwt>
<pdfrwt beam="1">  1       21 0.16860440E+00 0.17615680E+03</pdfrwt>
<pdfrwt beam="2">  1       21 0.10151262E-01 0.17615680E+03</pdfrwt>
<totfact> 0.17457374E+04</totfact>
</mgrwt>
</event>
<event>
 4    1  0.4382184E+000  0.2572783E+03  0.7546771E-02  0.1108790E+00
         21   -1    0    0  501  502  0.00000000000E+00  0.00000000000E+00  0.69118749857E+03  0.69118749857E+03  0.00000000000E+00 0. -1.
         21   -1    0    0  502  503 -0.00000000000E+00 -0.00000000000E+00 -0.15836118893E+03  0.15836118893E+03  0.00000000000E+00 0.  1.
          6    1    1    2  501    0  0.14747932551E+03 -0.12046979919E+03  0.53347083417E+03  0.59226957957E+03  0.17300000000E+03 0. -1.
         -6    1    1    2    0  503 -0.14747932551E+03  0.12046979919E+03 -0.64452453255E+00  0.25727910794E+03  0.17300000000E+03 0.  1.
<mgrwt>
<rscale>  2 0.25727830E+03</rscale>
<asrwt>0</asrwt>
<pdfrwt beam="1">  1       21 0.10633654E+00 0.25727830E+03</pdfrwt>
<pdfrwt beam="2">  1       21 0.24363260E-01 0.25727830E+03</pdfrwt>
<totfact> 0.10830771E+04</totfact>
</mgrwt>
</event>
<event>
 4    1  0.4382184E+000  0.1979563E+03  0.7546771E-02  0.1151475E+00
         21   -1    0    0  503  502  0.00000000000E+00  0.00000000000E+00  0.26610175476E+03  0.26610175476E+03  0.00000000000E+00 0. -1.
         21   -1    0    0  501  503 -0.00000000000E+00 -0.00000000000E+00 -0.26310098177E+03  0.26310098177E+03  0.00000000000E+00 0. -1.
          6    1    1    2  501    0 -0.25613262257E+02 -0.92745146117E+02 -0.17407273999E+03  0.26360580445E+03  0.17300000000E+03 0. -1.
         -6    1    1    2    0  502  0.25613262257E+02  0.92745146117E+02  0.17707351298E+03  0.26559693208E+03  0.17300000000E+03 0. -1.
<mgrwt>
<rscale>  2 0.19795631E+03</rscale>
<asrwt>0</asrwt>
<pdfrwt beam="1">  1       21 0.40938732E-01 0.19795631E+03</pdfrwt>
<pdfrwt beam="2">  1       21 0.40477074E-01 0.19795631E+03</pdfrwt>
<totfact> 0.33702973E+04</totfact>
</mgrwt>
</event>
<event>
 4    1  0.4382184E+000  0.2014914E+03  0.7546771E-02  0.1148487E+00
         21   -1    0    0  503  502  0.00000000000E+00  0.00000000000E+00  0.21604530004E+03  0.21604530004E+03  0.00000000000E+00 0. -1.
         21   -1    0    0  501  503 -0.00000000000E+00 -0.00000000000E+00 -0.22283091758E+03  0.22283091758E+03  0.00000000000E+00 0. -1.
          6    1    1    2  501    0  0.50372868349E+02  0.90179536684E+02 -0.90252473204E+02  0.22078107623E+03  0.17300000000E+03 0. -1.
         -6    1    1    2    0  502 -0.50372868349E+02 -0.90179536684E+02  0.83466855661E+02  0.21809514139E+03  0.17300000000E+03 0. -1.
<mgrwt>
<rscale>  2 0.20149138E+03</rscale>
<asrwt>0</asrwt>
<pdfrwt beam="1">  1       21 0.33237738E-01 0.20149138E+03</pdfrwt>
<pdfrwt beam="2">  1       21 0.34281680E-01 0.20149138E+03</pdfrwt>
<totfact> 0.71190761E+04</totfact>
</mgrwt>
</event>
<event>
 4    1  0.4382184E+000  0.1979830E+03  0.7546771E-02  0.1151452E+00
         21   -1    0    0  503  502  0.00000000000E+00  0.00000000000E+00  0.39258736640E+03  0.39258736640E+03  0.00000000000E+00 0.  1.
         21   -1    0    0  501  503 -0.00000000000E+00 -0.00000000000E+00 -0.11693726769E+03  0.11693726769E+03  0.00000000000E+00 0. -1.
          6    1    1    2  501    0 -0.79298020800E+02  0.54590314494E+02  0.23522936650E+03  0.30745753105E+03  0.17300000000E+03 0. -1.
         -6    1    1    2    0  502  0.79298020800E+02 -0.54590314494E+02  0.40420732216E+02  0.20206710304E+03  0.17300000000E+03 0.  1.
<mgrwt>
<rscale>  2 0.19798303E+03</rscale>
<asrwt>0</asrwt>
<pdfrwt beam="1">  1       21 0.60398056E-01 0.19798303E+03</pdfrwt>
<pdfrwt beam="2">  1       21 0.17990349E-01 0.19798303E+03</pdfrwt>
<totfact> 0.71624200E+04</totfact>
</mgrwt>
</event>
<event>
 4    1  0.4382184E+000  0.3720275E+03  0.7546771E-02  0.1053920E+00
         21   -1    0    0  501  502  0.00000000000E+00  0.00000000000E+00  0.13103017242E+04  0.13103017242E+04  0.00000000000E+00 0.  1.
         21   -1    0    0  502  503 -0.00000000000E+00 -0.00000000000E+00 -0.16546252354E+03  0.16546252354E+03  0.00000000000E+00 0.  1.
          6    1    1    2  501    0  0.23494167651E+03 -0.23081996098E+03  0.10161440670E+04  0.10821059147E+04  0.17300000000E+03 0.  1.
         -6    1    1    2    0  503 -0.23494167651E+03  0.23081996098E+03  0.12869513368E+03  0.39365833305E+03  0.17300000000E+03 0.  1.
<mgrwt>
<rscale>  2 0.37202748E+03</rscale>
<asrwt>0</asrwt>
<pdfrwt beam="1">  1       21 0.20158487E+00 0.37202748E+03</pdfrwt>
<pdfrwt beam="2">  1       21 0.25455774E-01 0.37202748E+03</pdfrwt>
<totfact> 0.16778809E+03</totfact>
</mgrwt>
</event>
<event>
 4    1  0.4382184E+000  0.2173504E+03  0.7546771E-02  0.1135874E+00
         21   -1    0    0  501  502  0.00000000000E+00  0.00000000000E+00  0.28652335946E+02  0.28652335946E+02  0.00000000000E+00 0.  1.
         21   -1    0    0  502  503 -0.00000000000E+00 -0.00000000000E+00 -0.22818864759E+04  0.22818864759E+04  0.00000000000E+00 0.  1.
          6    1    1    2  501    0 -0.10569996303E+03 -0.78356260285E+02 -0.51809381467E+03  0.56183839893E+03  0.17300000000E+03 0.  1.
         -6    1    1    2    0  503  0.10569996303E+03  0.78356260285E+02 -0.17351403252E+04  0.17487004129E+04  0.17300000000E+03 0.  1.
<mgrwt>
<rscale>  2 0.21735038E+03</rscale>
<asrwt>0</asrwt>
<pdfrwt beam="1">  1       21 0.44080513E-02 0.21735038E+03</pdfrwt>
<pdfrwt beam="2">  1       21 0.35105949E+00 0.21735038E+03</pdfrwt>
<totfact> 0.55701999E+03</totfact>
</mgrwt>
</event>
<event>
 4    1  0.4382184E+000  0.1846457E+03  0.7546771E-02  0.1163381E+00
         21   -1    0    0  501  502  0.00000000000E+00  0.00000000000E+00  0.38111778277E+03  0.38111778277E+03  0.00000000000E+00 0. -1.
         21   -1    0    0  502  503 -0.00000000000E+00 -0.00000000000E+00 -0.11115617590E+03  0.11115617590E+03  0.00000000000E+00 0. -1.
          6    1    1    2  501    0 -0.43810069575E+02  0.47388987754E+02  0.26232727375E+02  0.18649985078E+03  0.17300000000E+03 0. -1.
         -6    1    1    2    0  503  0.43810069575E+02 -0.47388987754E+02  0.24372887949E+03  0.30577410789E+03  0.17300000000E+03 0. -1.
<mgrwt>
<rscale>  2 0.18464571E+03</rscale>
<asrwt>0</asrwt>
<pdfrwt beam="1">  1       21 0.58633505E-01 0.18464571E+03</pdfrwt>
<pdfrwt beam="2">  1       21 0.17100950E-01 0.18464571E+03</pdfrwt>
<totfact> 0.84280125E+04</totfact>
</mgrwt>
</event>
<event>
 4    1  0.4382184E+000  0.1782616E+03  0.7546771E-02  0.1169496E+00
         21   -1    0    0  503  502  0.00000000000E+00  0.00000000000E+00  0.66638975962E+03  0.66638975962E+03  0.00000000000E+00 0.  1.
         21   -1    0    0  501  503 -0.00000000000E+00 -0.00000000000E+00 -0.48586027877E+02  0.48586027877E+02  0.00000000000E+00 0.  1.
          6    1    1    2  501    0 -0.35623179649E+02  0.24066413569E+02  0.26023567755E+03  0.31543590642E+03  0.17300000000E+03 0.  1.
         -6    1    1    2    0  502  0.35623179649E+02 -0.24066413569E+02  0.35756805419E+03  0.39953988108E+03  0.17300000000E+03 0.  1.
<mgrwt>
<rscale>  2 0.17826161E+03</rscale>
<asrwt>0</asrwt>
<pdfrwt beam="1">  1       21 0.10252149E+00 0.17826161E+03</pdfrwt>
<pdfrwt beam="2">  1       21 0.74747740E-02 0.17826161E+03</pdfrwt>
<totfact> 0.10508009E+05</totfact>
</mgrwt>
</event>
<event>
 4    1  0.4382184E+000  0.2424605E+03  0.7546771E-02  0.1118164E+00
         21   -1    0    0  503  502  0.00000000000E+00  0.00000000000E+00  0.14476729480E+03  0.14476729480E+03  0.00000000000E+00 0. -1.
         21   -1    0    0  501  503 -0.00000000000E+00 -0.00000000000E+00 -0.42831846634E+03  0.42831846634E+03  0.00000000000E+00 0. -1.
          6    1    1    2  501    0 -0.16980248639E+03 -0.50209221602E+01 -0.20706747704E+03  0.31884797959E+03  0.17300000000E+03 0. -1.
         -6    1    1    2    0  502  0.16980248639E+03  0.50209221602E+01 -0.76483694505E+02  0.25423778155E+03  0.17300000000E+03 0. -1.
<mgrwt>
<rscale>  2 0.24246050E+03</rscale>
<asrwt>0</asrwt>
<pdfrwt beam="1">  1       21 0.22271892E-01 0.24246050E+03</pdfrwt>
<pdfrwt beam="2">  1       21 0.65895148E-01 0.24246050E+03</pdfrwt>
<totfact> 0.38950655E+04</totfact>
</mgrwt>
</event>
<event>
 4    1  0.4382184E+000  0.1741609E+03  0.7546771E-02  0.1173577E+00
         21   -1    0    0  501  502  0.00000000000E+00  0.00000000000E+00  0.11790590550E+03  0.11790590550E+03  0.00000000000E+00 0. -1.
         21   -1    0    0  502  503 -0.00000000000E+00 -0.00000000000E+00 -0.33591192060E+03  0.33591192060E+03  0.00000000000E+00 0. -1.
          6    1    1    2  501    0 -0.11277466435E+02  0.16608362296E+02  0.79745030966E+00  0.17416272527E+03  0.17300000000E+03 0. -1.
         -6    1    1    2    0  503  0.11277466435E+02 -0.16608362296E+02 -0.21880346541E+03  0.27965510083E+03  0.17300000000E+03 0. -1.
<mgrwt>
<rscale>  2 0.17416090E+03</rscale>
<asrwt>0</asrwt>
<pdfrwt beam="1">  1       21 0.18139370E-01 0.17416090E+03</pdfrwt>
<pdfrwt beam="2">  1       21 0.51678757E-01 0.17416090E+03</pdfrwt>
<totfact> 0.99134016E+04</totfact>
</mgrwt>
</event>
<event>
 4    1  0.4382184E+000  0.1940218E+03  0.7546771E-02  0.1154883E+00
         21   -1    0    0  501  502  0.00000000000E+00  0.00000000000E+00  0.81768396958E+03  0.81768396958E+03  0.00000000000E+00 0.  1.
         21   -1    0    0  502  503 -0.00000000000E+00 -0.00000000000E+00 -0.78662741923E+02  0.78662741923E+02  0.00000000000E+00 0.  1.
          6    1    1    2  501    0  0.83203277302E+02 -0.28154581841E+02  0.65813671028E+03  0.68614021545E+03  0.17300000000E+03 0.  1.
         -6    1    1    2    0  503 -0.83203277302E+02  0.28154581841E+02  0.80884517372E+02  0.21020649605E+03  0.17300000000E+03 0.  1.
<mgrwt>
<rscale>  2 0.19402182E+03</rscale>
<asrwt>0</asrwt>
<pdfrwt beam="1">  1       21 0.12579753E+00 0.19402182E+03</pdfrwt>
<pdfrwt beam="2">  1       21 0.12101961E-01 0.19402182E+03</pdfrwt>
<totfact> 0.27115036E+04</totfact>
</mgrwt>
</event>
<event>
 4    1  0.4382184E+000  0.1887239E+03  0.7546771E-02  0.1159617E+00
         21   -1    0    0  501  502  0.00000000000E+00  0.00000000000E+00  0.24151676784E+02  0.24151676784E+02  0.00000000000E+00 0.  1.
         21   -1    0    0  502  503 -0.00000000000E+00 -0.00000000000E+00 -0.16097217482E+04  0.16097217482E+04  0.00000000000E+00 0.  1.
          6    1    1    2  501    0  0.74924205344E+02 -0.86069575266E+01 -0.55619361724E+03  0.58733981316E+03  0.17300000000E+03 0.  1.
         -6    1    1    2    0  503 -0.74924205344E+02  0.86069575266E+01 -0.10293764542E+04  0.10465336118E+04  0.17300000000E+03 0.  1.
<mgrwt>
<rscale>  2 0.18872392E+03</rscale>
<asrwt>0</asrwt>
<pdfrwt beam="1">  1       21 0.37156420E-02 0.18872392E+03</pdfrwt>
<pdfrwt beam="2">  1       21 0.24764954E+00 0.18872392E+03</pdfrwt>
<totfact> 0.30531766E+04</totfact>
</mgrwt>
</event>
<event>
 4    1  0.4382184E+000  0.2255591E+03  0.7546771E-02  0.1129805E+00
         21   -1    0    0  503  502  0.00000000000E+00  0.00000000000E+00  0.74568643594E+03  0.74568643594E+03  0.00000000000E+00 0. -1.
         21   -1    0    0  501  503 -0.00000000000E+00 -0.00000000000E+00 -0.93184283327E+02  0.93184283327E+02  0.00000000000E+00 0. -1.
          6    1    1    2  501    0 -0.14442792841E+03  0.94053118523E+01  0.10919026808E+03  0.25059808666E+03  0.17300000000E+03 0. -1.
         -6    1    1    2    0  502  0.14442792841E+03 -0.94053118523E+01  0.54331188454E+03  0.58827263261E+03  0.17300000000E+03 0. -1.
<mgrwt>
<rscale>  2 0.22555905E+03</rscale>
<asrwt>0</asrwt>
<pdfrwt beam="1">  1       21 0.11472099E+00 0.22555905E+03</pdfrwt>
<pdfrwt beam="2">  1       21 0.14336044E-01 0.22555905E+03</pdfrwt>
<totfact> 0.24640913E+04</totfact>
</mgrwt>
</event>
<event>
 4    1  0.4382184E+000  0.3263669E+03  0.7546771E-02  0.1072756E+00
         21   -1    0    0  501  502  0.00000000000E+00  0.00000000000E+00  0.16506631837E+03  0.16506631837E+03  0.00000000000E+00 0. -1.
         21   -1    0    0  502  503 -0.00000000000E+00 -0.00000000000E+00 -0.10412069371E+04  0.10412069371E+04  0.00000000000E+00 0.  1.
          6    1    1    2  501    0 -0.24417935333E+03 -0.13024125366E+03 -0.66149715198E+02  0.33300319153E+03  0.17300000000E+03 0. -1.
         -6    1    1    2    0  503  0.24417935333E+03  0.13024125366E+03 -0.80999090349E+03  0.87327006389E+03  0.17300000000E+03 0.  1.
<mgrwt>
<rscale>  2 0.32636688E+03</rscale>
<asrwt>0</asrwt>
<pdfrwt beam="1">  1       21 0.25394818E-01 0.32636688E+03</pdfrwt>
<pdfrwt beam="2">  1       21 0.16018568E+00 0.32636688E+03</pdfrwt>
<totfact> 0.33601704E+03</totfact>
</mgrwt>
</event>
<event>
 4    1  0.4382184E+000  0.1755993E+03  0.7546771E-02  0.1172131E+00
         21   -1    0    0  503  502  0.00000000000E+00  0.00000000000E+00  0.15460939247E+04  0.15460939247E+04  0.00000000000E+00 0. -1.
         21   -1    0    0  501  503 -0.00000000000E+00 -0.00000000000E+00 -0.19980249902E+02  0.19980249902E+02  0.00000000000E+00 0.  1.
          6    1    1    2  501    0 -0.20417729158E+02  0.22118547942E+02  0.72964927894E+03  0.75048196786E+03  0.17300000000E+03 0. -1.
         -6    1    1    2    0  502  0.20417729158E+02 -0.22118547942E+02  0.79646439590E+03  0.81559220678E+03  0.17300000000E+03 0. -1.
<mgrwt>
<rscale>  2 0.17559930E+03</rscale>
<asrwt>0</asrwt>
<pdfrwt beam="1">  1       21 0.23786051E+00 0.17559930E+03</pdfrwt>
<pdfrwt beam="2">  1       21 0.30738858E-02 0.17559930E+03</pdfrwt>
<totfact> 0.48307100E+04</totfact>
</mgrwt>
</event>
<event>
 4    1  0.4382184E+000  0.1771254E+03  0.7546771E-02  0.1170614E+00
         21   -1    0    0  503  502  0.00000000000E+00  0.00000000000E+00  0.39059625151E+03  0.39059625151E+03  0.00000000000E+00 0. -1.
         21   -1    0    0  501  503 -0.00000000000E+00 -0.00000000000E+00 -0.94631308549E+02  0.94631308549E+02  0.00000000000E+00 0. -1.
          6    1    1    2  501    0 -0.15996791674E+02 -0.34474783227E+02  0.53639433754E+02  0.18506916782E+03  0.17300000000E+03 0. -1.
         -6    1    1    2    0  502  0.15996791674E+02  0.34474783227E+02  0.24232550921E+03  0.30015839225E+03  0.17300000000E+03 0. -1.
<mgrwt>
<rscale>  2 0.17712540E+03</rscale>
<asrwt>0</asrwt>
<pdfrwt beam="1">  1       21 0.60091730E-01 0.17712540E+03</pdfrwt>
<pdfrwt beam="2">  1       21 0.14558663E-01 0.17712540E+03</pdfrwt>
<totfact> 0.10759563E+05</totfact>
</mgrwt>
</event>
<event>
 4    1  0.4382184E+000  0.1738496E+03  0.7546771E-02  0.1173892E+00
         21   -1    0    0  501  502  0.00000000000E+00  0.00000000000E+00  0.70939902916E+03  0.70939902916E+03  0.00000000000E+00 0. -1.
         21   -1    0    0  502  503 -0.00000000000E+00 -0.00000000000E+00 -0.46712553177E+02  0.46712553177E+02  0.00000000000E+00 0. -1.
          6    1    1    2  501    0 -0.79726901378E+01 -0.15202073227E+02  0.44345507447E+03  0.47631509518E+03  0.17300000000E+03 0.  1.
         -6    1    1    2    0  503  0.79726901378E+01  0.15202073227E+02  0.21923140151E+03  0.27979648716E+03  0.17300000000E+03 0.  1.
<mgrwt>
<rscale>  2 0.17384955E+03</rscale>
<asrwt>0</asrwt>
<pdfrwt beam="1">  1       21 0.10913830E+00 0.17384955E+03</pdfrwt>
<pdfrwt beam="2">  1       21 0.71865471E-02 0.17384955E+03</pdfrwt>
<totfact> 0.96995297E+04</totfact>
</mgrwt>
</event>
<event>
 4    1  0.4382184E+000  0.2182048E+03  0.7546771E-02  0.1135229E+00
         21   -1    0    0  503  502  0.00000000000E+00  0.00000000000E+00  0.11066681903E+03  0.11066681903E+03  0.00000000000E+00 0.  1.
         21   -1    0    0  501  503 -0.00000000000E+00 -0.00000000000E+00 -0.44132019062E+03  0.44132019062E+03  0.00000000000E+00 0. -1.
          6    1    1    2  501    0 -0.10432391678E+03  0.82467281082E+02 -0.20905759669E+03  0.30218936248E+03  0.17300000000E+03 0.  1.
         -6    1    1    2    0  502  0.10432391678E+03 -0.82467281082E+02 -0.12159577490E+03  0.24979764718E+03  0.17300000000E+03 0.  1.
<mgrwt>
<rscale>  2 0.21820479E+03</rscale>
<asrwt>0</asrwt>
<pdfrwt beam="1">  1       21 0.17025665E-01 0.21820479E+03</pdfrwt>
<pdfrwt beam="2">  1       21 0.67895414E-01 0.21820479E+03</pdfrwt>
<totfact> 0.60928662E+04</totfact>
</mgrwt>
</event>
<event>
 4    1  0.4382184E+000  0.2703275E+03  0.7546771E-02  0.1101092E+00
         21   -1    0    0  503  502  0.00000000000E+00  0.00000000000E+00  0.11896826521E+03  0.11896826521E+03  0.00000000000E+00 0.  1.
         21   -1    0    0  501  503 -0.00000000000E+00 -0.00000000000E+00 -0.72994219877E+03  0.72994219877E+03  0.00000000000E+00 0. -1.
          6    1    1    2  501    0  0.81783722246E+02 -0.19094341420E+03 -0.47446432915E+03  0.54607084182E+03  0.17300000000E+03 0. -1.
         -6    1    1    2    0  502 -0.81783722246E+02  0.19094341420E+03 -0.13650960441E+03  0.30283962216E+03  0.17300000000E+03 0.  1.
<mgrwt>
<rscale>  2 0.27032751E+03</rscale>
<asrwt>0</asrwt>
<pdfrwt beam="1">  1       21 0.18302810E-01 0.27032751E+03</pdfrwt>
<pdfrwt beam="2">  1       21 0.11229880E+00 0.27032751E+03</pdfrwt>
<totfact> 0.16176472E+04</totfact>
</mgrwt>
</event>
<event>
 4    1  0.4382184E+000  0.1780516E+03  0.7546771E-02  0.1169702E+00
         21   -1    0    0  501  502  0.00000000000E+00  0.00000000000E+00  0.30877856185E+02  0.30877856185E+02  0.00000000000E+00 0. -1.
         21   -1    0    0  502  503 -0.00000000000E+00 -0.00000000000E+00 -0.10272318333E+04  0.10272318333E+04  0.00000000000E+00 0.  1.
          6    1    1    2  501    0 -0.29549273386E+02 -0.30003498268E+02 -0.51018764008E+03  0.54036450435E+03  0.17300000000E+03 0.  1.
         -6    1    1    2    0  503  0.29549273386E+02  0.30003498268E+02 -0.48616633699E+03  0.51774518509E+03  0.17300000000E+03 0. -1.
<mgrwt>
<rscale>  2 0.17805159E+03</rscale>
<asrwt>0</asrwt>
<pdfrwt beam="1">  1       21 0.47504393E-02 0.17805159E+03</pdfrwt>
<pdfrwt beam="2">  1       21 0.15803567E+00 0.17805159E+03</pdfrwt>
<totfact> 0.76918481E+04</totfact>
</mgrwt>
</event>
<event>
 4    1  0.4382184E+000  0.2428515E+03  0.7546771E-02  0.1117908E+00
         21   -1    0    0  503  502  0.00000000000E+00  0.00000000000E+00  0.18389312926E+03  0.18389312926E+03  0.00000000000E+00 0. -1.
         21   -1    0    0  501  503 -0.00000000000E+00 -0.00000000000E+00 -0.99189183676E+03  0.99189183676E+03  0.00000000000E+00 0.  1.
          6    1    1    2  501    0  0.14444431483E+03 -0.90463872184E+02 -0.88759786500E+03  0.92022108334E+03  0.17300000000E+03 0.  1.
         -6    1    1    2    0  502 -0.14444431483E+03  0.90463872184E+02  0.79599157498E+02  0.25556388268E+03  0.17300000000E+03 0. -1.
<mgrwt>
<rscale>  2 0.24285154E+03</rscale>
<asrwt>0</asrwt>
<pdfrwt beam="1">  1       21 0.28291251E-01 0.24285154E+03</pdfrwt>
<pdfrwt beam="2">  1       21 0.15259874E+00 0.24285154E+03</pdfrwt>
<totfact> 0.32738863E+03</totfact>
</mgrwt>
</event>
<event>
 4    1  0.4382184E+000  0.3473348E+03  0.7546771E-02  0.1063714E+00
         21   -1    0    0  503  502  0.00000000000E+00  0.00000000000E+00  0.52299274740E+03  0.52299274740E+03  0.00000000000E+00 0. -1.
         21   -1    0    0  501  503 -0.00000000000E+00 -0.00000000000E+00 -0.40856374617E+03  0.40856374617E+03  0.00000000000E+00 0. -1.
          6    1    1    2  501    0  0.51201969125E+02 -0.29680092152E+03 -0.25012851378E+03  0.42802535213E+03  0.17300000000E+03 0. -1.
         -6    1    1    2    0  502 -0.51201969125E+02  0.29680092152E+03  0.36455751501E+03  0.50353114145E+03  0.17300000000E+03 0. -1.
<mgrwt>
<rscale>  2 0.34733475E+03</rscale>
<asrwt>0</asrwt>
<pdfrwt beam="1">  1       21 0.80460423E-01 0.34733475E+03</pdfrwt>
<pdfrwt beam="2">  1       21 0.62855961E-01 0.34733475E+03</pdfrwt>
<totfact> 0.28851025E+03</totfact>
</mgrwt>
</event>
<event>
 4    1  0.4382184E+000  0.1743176E+03  0.7546771E-02  0.1173419E+00
         21   -1    0    0  501  502  0.00000000000E+00  0.00000000000E+00  0.80591594991E+03  0.80591594991E+03  0.00000000000E+00 0.  1.
         21   -1    0    0  502  503 -0.00000000000E+00 -0.00000000000E+00 -0.37705660402E+02  0.37705660402E+02  0.00000000000E+00 0.  1.
          6    1    1    2  501    0  0.16856625340E+02  0.13170545658E+02  0.38170480031E+03  0.41962502746E+03  0.17300000000E+03 0.  1.
         -6    1    1    2    0  503 -0.16856625340E+02 -0.13170545658E+02  0.38650548920E+03  0.42399658285E+03  0.17300000000E+03 0.  1.
<mgrwt>
<rscale>  2 0.17431755E+03</rscale>
<asrwt>0</asrwt>
<pdfrwt beam="1">  1       21 0.12398706E+00 0.17431755E+03</pdfrwt>
<pdfrwt beam="2">  1       21 0.58008714E-02 0.17431755E+03</pdfrwt>
<totfact> 0.10251895E+05</totfact>
</mgrwt>
</event>
<event>
 4    1  0.4382184E+000  0.2466927E+03  0.7546771E-02  0.1115413E+00
         21   -1    0    0  503  502  0.00000000000E+00  0.00000000000E+00  0.74956064691E+02  0.74956064691E+02  0.00000000000E+00 0. -1.
         21   -1    0    0  501  503 -0.00000000000E+00 -0.00000000000E+00 -0.83671724422E+03  0.83671724422E+03  0.00000000000E+00 0. -1.
          6    1    1    2  501    0  0.17542306202E+03  0.12450577342E+02 -0.45937621475E+03  0.52142475415E+03  0.17300000000E+03 0. -1.
         -6    1    1    2    0  502 -0.17542306202E+03 -0.12450577342E+02 -0.30238496478E+03  0.39024855476E+03  0.17300000000E+03 0. -1.
<mgrwt>
<rscale>  2 0.24669266E+03</rscale>
<asrwt>0</asrwt>
<pdfrwt beam="1">  1       21 0.11531702E-01 0.24669266E+03</pdfrwt>
<pdfrwt beam="2">  1       21 0.12872573E+00 0.24669266E+03</pdfrwt>
<totfact> 0.27087514E+04</totfact>
</mgrwt>
</event>
<event>
 4    1  0.4382184E+000  0.1821426E+03  0.7546771E-02  0.1165745E+00
         21   -1    0    0  503  502  0.00000000000E+00  0.00000000000E+00  0.36654762289E+03  0.36654762289E+03  0.00000000000E+00 0.  1.
         21   -1    0    0  501  503 -0.00000000000E+00 -0.00000000000E+00 -0.13134312187E+03  0.13134312187E+03  0.00000000000E+00 0.  1.
          6    1    1    2  501    0 -0.11199147498E+02 -0.55870592787E+02 -0.21204556394E+02  0.18337278221E+03  0.17300000000E+03 0.  1.
         -6    1    1    2    0  502  0.11199147498E+02  0.55870592787E+02  0.25640905741E+03  0.31451796255E+03  0.17300000000E+03 0.  1.
<mgrwt>
<rscale>  2 0.18214265E+03</rscale>
<asrwt>0</asrwt>
<pdfrwt beam="1">  1       21 0.56391942E-01 0.18214265E+03</pdfrwt>
<pdfrwt beam="2">  1       21 0.20206634E-01 0.18214265E+03</pdfrwt>
<totfact> 0.67290689E+04</totfact>
</mgrwt>
</event>
<event>
 4    1  0.4382184E+000  0.2057213E+03  0.7546771E-02  0.1145000E+00
         21   -1    0    0  501  502  0.00000000000E+00  0.00000000000E+00  0.34633884348E+02  0.34633884348E+02  0.00000000000E+00 0. -1.
         21   -1    0    0  502  503 -0.00000000000E+00 -0.00000000000E+00 -0.12234127370E+04  0.12234127370E+04  0.00000000000E+00 0.  1.
          6    1    1    2  501    0 -0.75828502091E+01  0.11106184412E+03 -0.57271617688E+03  0.60854338555E+03  0.17300000000E+03 0. -1.
         -6    1    1    2    0  503  0.75828502091E+01 -0.11106184412E+03 -0.61606267582E+03  0.64950323584E+03  0.17300000000E+03 0. -1.
<mgrwt>
<rscale>  2 0.20572125E+03</rscale>
<asrwt>0</asrwt>
<pdfrwt beam="1">  1       21 0.53282897E-02 0.20572125E+03</pdfrwt>
<pdfrwt beam="2">  1       21 0.18821735E+00 0.20572125E+03</pdfrwt>
<totfact> 0.38363375E+04</totfact>
</mgrwt>
</event>
<event>
 4    1  0.4382184E+000  0.2778807E+03  0.7546771E-02  0.1096852E+00
         21   -1    0    0  501  502  0.00000000000E+00  0.00000000000E+00  0.62377988790E+02  0.62377988790E+02  0.00000000000E+00 0.  1.
         21   -1    0    0  502  503 -0.00000000000E+00 -0.00000000000E+00 -0.14218579260E+04  0.14218579260E+04  0.00000000000E+00 0. -1.
          6    1    1    2  501    0 -0.14231744231E+03  0.16442154417E+03 -0.41280568769E+03  0.49762057268E+03  0.17300000000E+03 0. -1.
         -6    1    1    2    0  503  0.14231744231E+03 -0.16442154417E+03 -0.94667424952E+03  0.98661534211E+03  0.17300000000E+03 0. -1.
<mgrwt>
<rscale>  2 0.27788073E+03</rscale>
<asrwt>0</asrwt>
<pdfrwt beam="1">  1       21 0.95966139E-02 0.27788073E+03</pdfrwt>
<pdfrwt beam="2">  1       21 0.21874737E+00 0.27788073E+03</pdfrwt>
<totfact> 0.83723427E+03</totfact>
</mgrwt>
</event>
<event>
 4    1  0.4382184E+000  0.3037806E+03  0.7546771E-02  0.1083366E+00
         21   -1    0    0  501  502  0.00000000000E+00  0.00000000000E+00  0.12379455074E+04  0.12379455074E+04  0.00000000000E+00 0. -1.
         21   -1    0    0  502  503 -0.00000000000E+00 -0.00000000000E+00 -0.11246702554E+03  0.11246702554E+03  0.00000000000E+00 0.  1.
          6    1    1    2  501    0 -0.23698397925E+03  0.78690907168E+02  0.95481459393E+03  0.10019748370E+04  0.17300000000E+03 0. -1.
         -6    1    1    2    0  503  0.23698397925E+03 -0.78690907168E+02  0.17066388796E+03  0.34843769593E+03  0.17300000000E+03 0.  1.
<mgrwt>
<rscale>  2 0.30378062E+03</rscale>
<asrwt>0</asrwt>
<pdfrwt beam="1">  1       21 0.19045314E+00 0.30378062E+03</pdfrwt>
<pdfrwt beam="2">  1       21 0.17302620E-01 0.30378062E+03</pdfrwt>
<totfact> 0.43079891E+03</totfact>
</mgrwt>
</event>
<event>
 4    1  0.4382184E+000  0.2078117E+03  0.7546771E-02  0.1143311E+00
         21   -1    0    0  503  502  0.00000000000E+00  0.00000000000E+00  0.20323929968E+02  0.20323929968E+02  0.00000000000E+00 0.  1.
         21   -1    0    0  501  503 -0.00000000000E+00 -0.00000000000E+00 -0.21321545938E+04  0.21321545938E+04  0.00000000000E+00 0.  1.
          6    1    1    2  501    0 -0.11297600540E+03 -0.22206442934E+02 -0.99300677324E+03  0.10145186817E+04  0.17300000000E+03 0.  1.
         -6    1    1    2    0  502  0.11297600540E+03  0.22206442934E+02 -0.11188238906E+04  0.11379598420E+04  0.17300000000E+03 0.  1.
<mgrwt>
<rscale>  2 0.20781170E+03</rscale>
<asrwt>0</asrwt>
<pdfrwt beam="1">  1       21 0.31267588E-02 0.20781170E+03</pdfrwt>
<pdfrwt beam="2">  1       21 0.32802375E+00 0.20781170E+03</pdfrwt>
<totfact> 0.13668522E+04</totfact>
</mgrwt>
</event>
<event>
 4    1  0.4382184E+000  0.2010129E+03  0.7546771E-02  0.1148887E+00
         21   -1    0    0  501  502  0.00000000000E+00  0.00000000000E+00  0.36370396905E+02  0.36370396905E+02  0.00000000000E+00 0.  1.
         21   -1    0    0  502  503 -0.00000000000E+00 -0.00000000000E+00 -0.11117987958E+04  0.11117987958E+04  0.00000000000E+00 0. -1.
          6    1    1    2  501    0  0.62858743650E+02 -0.80783422511E+02 -0.52197850007E+03  0.55934581212E+03  0.17300000000E+03 0. -1.
         -6    1    1    2    0  503 -0.62858743650E+02  0.80783422511E+02 -0.55344989878E+03  0.58882338053E+03  0.17300000000E+03 0. -1.
<mgrwt>
<rscale>  2 0.20101289E+03</rscale>
<asrwt>0</asrwt>
<pdfrwt beam="1">  1       21 0.55954452E-02 0.20101289E+03</pdfrwt>
<pdfrwt beam="2">  1       21 0.17104598E+00 0.20101289E+03</pdfrwt>
<totfact> 0.46371392E+04</totfact>
</mgrwt>
</event>
<event>
 4    1  0.4382184E+000  0.2266447E+03  0.7546771E-02  0.1129024E+00
         21   -1    0    0  501  502  0.00000000000E+00  0.00000000000E+00  0.10778108471E+04  0.10778108471E+04  0.00000000000E+00 0.  1.
         21   -1    0    0  502  503 -0.00000000000E+00 -0.00000000000E+00 -0.49002192184E+02  0.49002192184E+02  0.00000000000E+00 0.  1.
          6    1    1    2  501    0 -0.83103829351E+02 -0.12055104491E+03  0.60766984991E+03  0.64856028816E+03  0.17300000000E+03 0.  1.
         -6    1    1    2    0  503  0.83103829351E+02  0.12055104491E+03  0.42113880501E+03  0.47825275113E+03  0.17300000000E+03 0.  1.
<mgrwt>
<rscale>  2 0.22664466E+03</rscale>
<asrwt>0</asrwt>
<pdfrwt beam="1">  1       21 0.16581704E+00 0.22664466E+03</pdfrwt>
<pdfrwt beam="2">  1       21 0.75387996E-02 0.22664466E+03</pdfrwt>
<totfact> 0.29757025E+04</totfact>
</mgrwt>
</event>
<event>
 4    1  0.4382184E+000  0.1757605E+03  0.7546771E-02  0.1171970E+00
         21   -1    0    0  503  502  0.00000000000E+00  0.00000000000E+00  0.39158617506E+03  0.39158617506E+03  0.00000000000E+00 0.  1.
         21   -1    0    0  501  503 -0.00000000000E+00 -0.00000000000E+00 -0.29937882410E+03  0.29937882410E+03  0.00000000000E+00 0.  1.
          6    1    1    2  501    0 -0.17419641195E+02  0.25676729561E+02 -0.25038632417E+03  0.30591673650E+03  0.17300000000E+03 0.  1.
         -6    1    1    2    0  502  0.17419641195E+02 -0.25676729561E+02  0.34259367512E+03  0.38504826266E+03  0.17300000000E+03 0.  1.
<mgrwt>
<rscale>  2 0.17576046E+03</rscale>
<asrwt>0</asrwt>
<pdfrwt beam="1">  1       21 0.60244027E-01 0.17576046E+03</pdfrwt>
<pdfrwt beam="2">  1       21 0.46058281E-01 0.17576046E+03</pdfrwt>
<totfact> 0.11737514E+04</totfact>
</mgrwt>
</event>
<event>
 4    1  0.4382184E+000  0.2065954E+03  0.7546771E-02  0.1144291E+00
         21   -1    0    0  503  502  0.00000000000E+00  0.00000000000E+00  0.25463210325E+03  0.25463210325E+03  0.00000000000E+00 0. -1.
         21   -1    0    0  501  503 -0.00000000000E+00 -0.00000000000E+00 -0.18578157649E+03  0.18578157649E+03  0.00000000000E+00 0. -1.
          6    1    1    2  501    0 -0.60609006964E+02 -0.95284834141E+02 -0.34423478549E+02  0.20944361346E+03  0.17300000000E+03 0. -1.
         -6    1    1    2    0  502  0.60609006964E+02  0.95284834141E+02  0.10327400531E+03  0.23097006628E+03  0.17300000000E+03 0. -1.
<mgrwt>
<rscale>  2 0.20659538E+03</rscale>
<asrwt>0</asrwt>
<pdfrwt beam="1">  1       21 0.39174170E-01 0.20659538E+03</pdfrwt>
<pdfrwt beam="2">  1       21 0.28581781E-01 0.20659538E+03</pdfrwt>
<totfact> 0.73105332E+04</totfact>
</mgrwt>
</event>
<event>
 4    1  0.4382184E+000  0.2447583E+03  0.7546771E-02  0.1116663E+00
         21   -1    0    0  503  502  0.00000000000E+00  0.00000000000E+00  0.23805347029E+04  0.23805347029E+04  0.00000000000E+00 0.  1.
         21   -1    0    0  501  503 -0.00000000000E+00 -0.00000000000E+00 -0.48590664478E+02  0.48590664478E+02  0.00000000000E+00 0. -1.
          6    1    1    2  501    0  0.11004923942E+03  0.13366666179E+03  0.32266114736E+03  0.40498991047E+03  0.17300000000E+03 0. -1.
         -6    1    1    2    0  502 -0.11004923942E+03 -0.13366666179E+03  0.20092828911E+04  0.20241354569E+04  0.17300000000E+03 0.  1.
<mgrwt>
<rscale>  2 0.24475827E+03</rscale>
<asrwt>0</asrwt>
<pdfrwt beam="1">  1       21 0.36623602E+00 0.24475827E+03</pdfrwt>
<pdfrwt beam="2">  1       21 0.74754887E-02 0.24475827E+03</pdfrwt>
<totfact> 0.17698162E+03</totfact>
</mgrwt>
</event>
<event>
 4    1  0.4382184E+000  0.2270656E+03  0.7546771E-02  0.1128722E+00
         21   -1    0    0  501  502  0.00000000000E+00  0.00000000000E+00  0.14672794336E+03  0.14672794336E+03  0.00000000000E+00 0. -1.
         21   -1    0    0  502  503 -0.00000000000E+00 -0.00000000000E+00 -0.42517653599E+03  0.42517653599E+03  0.00000000000E+00 0. -1.
          6    1    1    2  501    0  0.13910521803E+03 -0.47744230530E+02 -0.20101030226E+02  0.22795355810E+03  0.17300000000E+03 0. -1.
         -6    1    1    2    0  503 -0.13910521803E+03  0.47744230530E+02 -0.25834756240E+03  0.34395092125E+03  0.17300000000E+03 0. -1.
<mgrwt>
<rscale>  2 0.22706557E+03</rscale>
<asrwt>0</asrwt>
<pdfrwt beam="1">  1       21 0.22573530E-01 0.22706557E+03</pdfrwt>
<pdfrwt beam="2">  1       21 0.65411773E-01 0.22706557E+03</pdfrwt>
<totfact> 0.38854180E+04</totfact>
</mgrwt>
</event>
<event>
 4    1  0.4382184E+000  0.2593216E+03  0.7546771E-02  0.1107552E+00
         21   -1    0    0  501  502  0.00000000000E+00  0.00000000000E+00  0.11307536678E+04  0.11307536678E+04  0.00000000000E+00 0. -1.
         21   -1    0    0  502  503 -0.00000000000E+00 -0.00000000000E+00 -0.64783772013E+02  0.64783772013E+02  0.00000000000E+00 0.  1.
          6    1    1    2  501    0 -0.15069565617E+03  0.12086976264E+03  0.70415899734E+03  0.75039161365E+03  0.17300000000E+03 0.  1.
         -6    1    1    2    0  503  0.15069565617E+03 -0.12086976264E+03  0.36181089844E+03  0.44514582615E+03  0.17300000000E+03 0.  1.
<mgrwt>
<rscale>  2 0.25932158E+03</rscale>
<asrwt>0</asrwt>
<pdfrwt beam="1">  1       21 0.17396209E+00 0.25932158E+03</pdfrwt>
<pdfrwt beam="2">  1       21 0.99667350E-02 0.25932158E+03</pdfrwt>
<totfact> 0.15643208E+04</totfact>
</mgrwt>
</event>
<event>
 4    1  0.4382184E+000  0.1966903E+03  0.7546771E-02  0.1152562E+00
         21   -1    0    0  501  502  0.00000000000E+00  0.00000000000E+00  0.63392833844E+03  0.63392833844E+03  0.00000000000E+00 0.  1.
         21   -1    0    0  502  503 -0.00000000000E+00 -0.00000000000E+00 -0.12727024858E+03  0.12727024858E+03  0.00000000000E+00 0.  1.
          6    1    1    2  501    0 -0.87894624794E+02 -0.32134406759E+02  0.52791200481E+03  0.56336326645E+03  0.17300000000E+03 0.  1.
         -6    1    1    2    0  503  0.87894624794E+02  0.32134406759E+02 -0.21253914948E+02  0.19783532057E+03  0.17300000000E+03 0.  1.
<mgrwt>
<rscale>  2 0.19669033E+03</rscale>
<asrwt>0</asrwt>
<pdfrwt beam="1">  1       21 0.97527434E-01 0.19669033E+03</pdfrwt>
<pdfrwt beam="2">  1       21 0.19580039E-01 0.19669033E+03</pdfrwt>
<totfact> 0.20865085E+04</totfact>
</mgrwt>
</event>
<event>
 4    1  0.4382184E+000  0.1893393E+03  0.7546771E-02  0.1159059E+00
         21   -1    0    0  503  502  0.00000000000E+00  0.00000000000E+00  0.16272260603E+04  0.16272260603E+04  0.00000000000E+00 0.  1.
         21   -1    0    0  501  503 -0.00000000000E+00 -0.00000000000E+00 -0.45881133132E+02  0.45881133132E+02  0.00000000000E+00 0.  1.
          6    1    1    2  501    0  0.22773085561E+02  0.73496594150E+02  0.18752651874E+03  0.26648744438E+03  0.17300000000E+03 0.  1.
         -6    1    1    2    0  502 -0.22773085561E+02 -0.73496594150E+02  0.13938184085E+04  0.14066197491E+04  0.17300000000E+03 0.  1.
<mgrwt>
<rscale>  2 0.18933928E+03</rscale>
<asrwt>0</asrwt>
<pdfrwt beam="1">  1       21 0.25034243E+00 0.18933928E+03</pdfrwt>
<pdfrwt beam="2">  1       21 0.70586371E-02 0.18933928E+03</pdfrwt>
<totfact> 0.99000096E+03</totfact>
</mgrwt>
</event>
<event>
 4    1  0.4382184E+000  0.2077291E+03  0.7546771E-02  0.1143377E+00
         21   -1    0    0  501  502  0.00000000000E+00  0.00000000000E+00  0.68056571265E+02  0.68056571265E+02  0.00000000000E+00 0.  1.
         21   -1    0    0  502  503 -0.00000000000E+00 -0.00000000000E+00 -0.12760231497E+04  0.12760231497E+04  0.00000000000E+00 0.  1.
          6    1    1    2  501    0  0.10699365943E+03  0.42127653524E+02 -0.12730691743E+03  0.24363586266E+03  0.17300000000E+03 0.  1.
         -6    1    1    2    0  503 -0.10699365943E+03 -0.42127653524E+02 -0.10806596610E+04  0.11004438583E+04  0.17300000000E+03 0.  1.
<mgrwt>
<rscale>  2 0.20772911E+03</rscale>
<asrwt>0</asrwt>
<pdfrwt beam="1">  1       21 0.10470242E-01 0.20772911E+03</pdfrwt>
<pdfrwt beam="2">  1       21 0.19631125E+00 0.20772911E+03</pdfrwt>
<totfact> 0.10480394E+04</totfact>
</mgrwt>
</event>
<event>
 4    1  0.4382184E+000  0.2001234E+03  0.7546771E-02  0.1149635E+00
         21   -1    0    0  501  502  0.00000000000E+00  0.00000000000E+00  0.85749087736E+03  0.85749087736E+03  0.00000000000E+00 0. -1.
         21   -1    0    0  502  503 -0.00000000000E+00 -0.00000000000E+00 -0.49385770477E+02  0.49385770477E+02  0.00000000000E+00 0.  1.
          6    1    1    2  501    0  0.50669163474E+02  0.86908014866E+02  0.50969123254E+03  0.54757147451E+03  0.17300000000E+03 0. -1.
         -6    1    1    2    0  503 -0.50669163474E+02 -0.86908014866E+02  0.29841387435E+03  0.35930517332E+03  0.17300000000E+03 0.  1.
<mgrwt>
<rscale>  2 0.20012338E+03</rscale>
<asrwt>0</asrwt>
<pdfrwt beam="1">  1       21 0.13192166E+00 0.20012338E+03</pdfrwt>
<pdfrwt beam="2">  1       21 0.75978115E-02 0.20012338E+03</pdfrwt>
<totfact> 0.54452595E+04</totfact>
</mgrwt>
</event>
<event>
 4    1  0.4382184E+000  0.2320942E+03  0.7546771E-02  0.1125174E+00
         21   -1    0    0  501  502  0.00000000000E+00  0.00000000000E+00  0.99514998840E+02  0.99514998840E+02  0.00000000000E+00 0.  1.
         21   -1    0    0  502  503 -0.00000000000E+00 -0.00000000000E+00 -0.56623711197E+03  0.56623711197E+03  0.00000000000E+00 0. -1.
          6    1    1    2  501    0 -0.11939444403E+03  0.98405692485E+02 -0.16350805773E+03  0.28390596774E+03  0.17300000000E+03 0.  1.
         -6    1    1    2    0  503  0.11939444403E+03 -0.98405692485E+02 -0.30321405540E+03  0.38184614306E+03  0.17300000000E+03 0. -1.
<mgrwt>
<rscale>  2 0.23209419E+03</rscale>
<asrwt>0</asrwt>
<pdfrwt beam="1">  1       21 0.15310000E-01 0.23209419E+03</pdfrwt>
<pdfrwt beam="2">  1       21 0.87113404E-01 0.23209419E+03</pdfrwt>
<totfact> 0.41974626E+04</totfact>
</mgrwt>
</event>
<event>
 4    1  0.4382184E+000  0.1801011E+03  0.7546771E-02  0.1167705E+00
         21   -1    0    0  501  502  0.00000000000E+00  0.00000000000E+00  0.16046210407E+03  0.16046210407E+03  0.00000000000E+00 0.  1.
         21   -1    0    0  502  503 -0.00000000000E+00 -0.00000000000E+00 -0.10871908786E+04  0.10871908786E+04  0.00000000000E+00 0. -1.
          6    1    1    2  501    0  0.42680066269E+02 -0.26187919705E+02  0.99487513486E+02  0.20575266835E+03  0.17300000000E+03 0.  1.
         -6    1    1    2    0  503 -0.42680066269E+02  0.26187919705E+02 -0.10262162880E+04  0.10419003143E+04  0.17300000000E+03 0. -1.
<mgrwt>
<rscale>  2 0.18010107E+03</rscale>
<asrwt>0</asrwt>
<pdfrwt beam="1">  1       21 0.24686478E-01 0.18010107E+03</pdfrwt>
<pdfrwt beam="2">  1       21 0.16726014E+00 0.18010107E+03</pdfrwt>
<totfact> 0.35025826E+03</totfact>
</mgrwt>
</event>
<event>
 4    1  0.4382184E+000  0.2286951E+03  0.7546771E-02  0.1127562E+00
         21   -1    0    0  503  502  0.00000000000E+00  0.00000000000E+00  0.85513566197E+02  0.85513566197E+02  0.00000000000E+00 0.  1.
         21   -1    0    0  501  503 -0.00000000000E+00 -0.00000000000E+00 -0.30206480400E+04  0.30206480400E+04  0.00000000000E+00 0. -1.
          6    1    1    2  501    0  0.29604508253E+02  0.14661522634E+03 -0.28545315659E+04  0.28636780392E+04  0.17300000000E+03 0. -1.
         -6    1    1    2    0  502 -0.29604508253E+02 -0.14661522634E+03 -0.80602907919E+02  0.24248356701E+03  0.17300000000E+03 0.  1.
<mgrwt>
<rscale>  2 0.22869511E+03</rscale>
<asrwt>0</asrwt>
<pdfrwt beam="1">  1       21 0.13155933E-01 0.22869511E+03</pdfrwt>
<pdfrwt beam="2">  1       21 0.46471508E+00 0.22869511E+03</pdfrwt>
<totfact> 0.15533914E+02</totfact>
</mgrwt>
</event>
<event>
 4    1  0.4382184E+000  0.1823074E+03  0.7546771E-02  0.1165588E+00
         21   -1    0    0  503  502  0.00000000000E+00  0.00000000000E+00  0.36129129741E+02  0.36129129741E+02  0.00000000000E+00 0.  1.
         21   -1    0    0  501  503 -0.00000000000E+00 -0.00000000000E+00 -0.91999299691E+03  0.91999299691E+03  0.00000000000E+00 0.  1.
          6    1    1    2  501    0 -0.39750031847E+02  0.41556171911E+02 -0.43773162318E+03  0.47417818843E+03  0.17300000000E+03 0. -1.
         -6    1    1    2    0  502  0.39750031847E+02 -0.41556171911E+02 -0.44613224399E+03  0.48194393821E+03  0.17300000000E+03 0. -1.
<mgrwt>
<rscale>  2 0.18230738E+03</rscale>
<asrwt>0</asrwt>
<pdfrwt beam="1">  1       21 0.55583273E-02 0.18230738E+03</pdfrwt>
<pdfrwt beam="2">  1       21 0.14153739E+00 0.18230738E+03</pdfrwt>
<totfact> 0.78557247E+04</totfact>
</mgrwt>
</event>
<event>
 4    1  0.4382184E+000  0.1736861E+03  0.7546771E-02  0.1174057E+00
         21   -1    0    0  503  502  0.00000000000E+00  0.00000000000E+00  0.33191028954E+02  0.33191028954E+02  0.00000000000E+00 0.  1.
         21   -1    0    0  501  503 -0.00000000000E+00 -0.00000000000E+00 -0.10531891039E+04  0.10531891039E+04  0.00000000000E+00 0.  1.
          6    1    1    2  501    0  0.15025428488E+02  0.34801735998E+01 -0.71106375207E+03  0.73196894375E+03  0.17300000000E+03 0.  1.
         -6    1    1    2    0  502 -0.15025428488E+02 -0.34801735998E+01 -0.30893432287E+03  0.35441118910E+03  0.17300000000E+03 0.  1.
<mgrwt>
<rscale>  2 0.17368614E+03</rscale>
<asrwt>0</asrwt>
<pdfrwt beam="1">  1       21 0.51063112E-02 0.17368614E+03</pdfrwt>
<pdfrwt beam="2">  1       21 0.16202912E+00 0.17368614E+03</pdfrwt>
<totfact> 0.63815974E+04</totfact>
</mgrwt>
</event>
<event>
 4    1  0.4382184E+000  0.1864938E+03  0.7546771E-02  0.1161662E+00
         21   -1    0    0  501  502  0.00000000000E+00  0.00000000000E+00  0.99613547957E+03  0.99613547957E+03  0.00000000000E+00 0. -1.
         21   -1    0    0  502  503 -0.00000000000E+00 -0.00000000000E+00 -0.54283682201E+02  0.54283682201E+02  0.00000000000E+00 0. -1.
          6    1    1    2  501    0  0.32457268496E+02 -0.61623418214E+02  0.78465132543E+03  0.80650953029E+03  0.17300000000E+03 0. -1.
         -6    1    1    2    0  503 -0.32457268496E+02  0.61623418214E+02  0.15720047194E+03  0.24390963148E+03  0.17300000000E+03 0. -1.
<mgrwt>
<rscale>  2 0.18649375E+03</rscale>
<asrwt>0</asrwt>
<pdfrwt beam="1">  1       21 0.15325160E+00 0.18649375E+03</pdfrwt>
<pdfrwt beam="2">  1       21 0.83513364E-02 0.18649375E+03</pdfrwt>
<totfact> 0.31568206E+04</totfact>
</mgrwt>
</event>
<event>
 4    1  0.4382184E+000  0.1881710E+03  0.7546771E-02  0.1160121E+00
         21   -1    0    0  503  502  0.00000000000E+00  0.00000000000E+00  0.77238366563E+03  0.77238366563E+03  0.00000000000E+00 0.  1.
         21   -1    0    0  501  503 -0.00000000000E+00 -0.00000000000E+00 -0.44264600376E+03  0.44264600376E+03  0.00000000000E+00 0. -1.
          6    1    1    2  501    0 -0.13786469523E+02 -0.72727227034E+02 -0.41032753985E+03  0.45141666590E+03  0.17300000000E+03 0. -1.
         -6    1    1    2    0  502  0.13786469523E+02  0.72727227034E+02  0.74006520172E+03  0.76361300349E+03  0.17300000000E+03 0.  1.
<mgrwt>
<rscale>  2 0.18817098E+03</rscale>
<asrwt>0</asrwt>
<pdfrwt beam="1">  1       21 0.11882826E+00 0.18817098E+03</pdfrwt>
<pdfrwt beam="2">  1       21 0.68099386E-01 0.18817098E+03</pdfrwt>
<totfact> 0.10700824E+03</totfact>
</mgrwt>
</event>
<event>
 4    1  0.4382184E+000  0.2277971E+03  0.7546771E-02  0.1128200E+00
         21   -1    0    0  501  502  0.00000000000E+00  0.00000000000E+00  0.12244993203E+04  0.12244993203E+04  0.00000000000E+00 0.  1.
         21   -1    0    0  502  503 -0.00000000000E+00 -0.00000000000E+00 -0.42813909683E+02  0.42813909683E+02  0.00000000000E+00 0. -1.
          6    1    1    2  501    0 -0.36981839306E+02  0.14350908805E+03  0.65479982175E+03  0.69329237797E+03  0.17300000000E+03 0. -1.
         -6    1    1    2    0  503  0.36981839306E+02 -0.14350908805E+03  0.52688558890E+03  0.57402085205E+03  0.17300000000E+03 0.  1.
<mgrwt>
<rscale>  2 0.22779709E+03</rscale>
<asrwt>0</asrwt>
<pdfrwt beam="1">  1       21 0.18838448E+00 0.22779709E+03</pdfrwt>
<pdfrwt beam="2">  1       21 0.65867563E-02 0.22779709E+03</pdfrwt>
<totfact> 0.26226746E+04</totfact>
</mgrwt>
</event>
<event>
 4    1  0.4382184E+000  0.2075359E+03  0.7546771E-02  0.1143532E+00
         21   -1    0    0  501  502  0.00000000000E+00  0.00000000000E+00  0.32629326432E+03  0.32629326432E+03  0.00000000000E+00 0.  1.
         21   -1    0    0  502  503 -0.00000000000E+00 -0.00000000000E+00 -0.13240739134E+03  0.13240739134E+03  0.00000000000E+00 0. -1.
          6    1    1    2  501    0  0.79017651727E+02  0.83056439516E+02  0.10964317618E+03  0.23471852827E+03  0.17300000000E+03 0.  1.
         -6    1    1    2    0  503 -0.79017651727E+02 -0.83056439516E+02  0.84242696799E+02  0.22398212740E+03  0.17300000000E+03 0.  1.
<mgrwt>
<rscale>  2 0.20753593E+03</rscale>
<asrwt>0</asrwt>
<pdfrwt beam="1">  1       21 0.50198963E-01 0.20753593E+03</pdfrwt>
<pdfrwt beam="2">  1       21 0.20370368E-01 0.20753593E+03</pdfrwt>
<totfact> 0.83758130E+04</totfact>
</mgrwt>
</event>
<event>
 4    1  0.4382184E+000  0.1770793E+03  0.7546771E-02  0.1170660E+00
         21   -1    0    0  503  502  0.00000000000E+00  0.00000000000E+00  0.10627582576E+03  0.10627582576E+03  0.00000000000E+00 0. -1.
         21   -1    0    0  501  503 -0.00000000000E+00 -0.00000000000E+00 -0.30052650117E+03  0.30052650117E+03  0.00000000000E+00 0. -1.
          6    1    1    2  501    0  0.13118656504E+01  0.37767139638E+02 -0.12457367566E+03  0.21650791786E+03  0.17300000000E+03 0.  1.
         -6    1    1    2    0  502 -0.13118656504E+01 -0.37767139638E+02 -0.69676999746E+02  0.19029440907E+03  0.17300000000E+03 0.  1.
<mgrwt>
<rscale>  2 0.17707930E+03</rscale>
<asrwt>0</asrwt>
<pdfrwt beam="1">  1       21 0.16350127E-01 0.17707930E+03</pdfrwt>
<pdfrwt beam="2">  1       21 0.46234846E-01 0.17707930E+03</pdfrwt>
<totfact> 0.15096198E+05</totfact>
</mgrwt>
</event>
<event>
 4    1  0.4382184E+000  0.2087234E+03  0.7546771E-02  0.1142581E+00
         21   -1    0    0  501  502  0.00000000000E+00  0.00000000000E+00  0.76974937638E+03  0.76974937638E+03  0.00000000000E+00 0. -1.
         21   -1    0    0  502  503 -0.00000000000E+00 -0.00000000000E+00 -0.70022214690E+02  0.70022214690E+02  0.00000000000E+00 0. -1.
          6    1    1    2  501    0 -0.38851829175E+02 -0.11012253452E+03  0.53371852565E+03  0.57308018799E+03  0.17300000000E+03 0. -1.
         -6    1    1    2    0  503  0.38851829175E+02  0.11012253452E+03  0.16600863603E+03  0.26669140308E+03  0.17300000000E+03 0. -1.
<mgrwt>
<rscale>  2 0.20872335E+03</rscale>
<asrwt>0</asrwt>
<pdfrwt beam="1">  1       21 0.11842297E+00 0.20872335E+03</pdfrwt>
<pdfrwt beam="2">  1       21 0.10772649E-01 0.20872335E+03</pdfrwt>
<totfact> 0.38466824E+04</totfact>
</mgrwt>
</event>
<event>
 4    1  0.4382184E+000  0.2102161E+03  0.7546771E-02  0.1141395E+00
         21   -1    0    0  501  502  0.00000000000E+00  0.00000000000E+00  0.36175116692E+03  0.36175116692E+03  0.00000000000E+00 0. -1.
         21   -1    0    0  502  503 -0.00000000000E+00 -0.00000000000E+00 -0.30124084173E+03  0.30124084173E+03  0.00000000000E+00 0. -1.
          6    1    1    2  501    0 -0.65104518666E+02  0.10011606520E+03  0.28584776146E+03  0.35482357249E+03  0.17300000000E+03 0. -1.
         -6    1    1    2    0  503  0.65104518666E+02 -0.10011606520E+03 -0.22533743627E+03  0.30816843616E+03  0.17300000000E+03 0. -1.
<mgrwt>
<rscale>  2 0.21021614E+03</rscale>
<asrwt>0</asrwt>
<pdfrwt beam="1">  1       21 0.55654025E-01 0.21021614E+03</pdfrwt>
<pdfrwt beam="2">  1       21 0.46344745E-01 0.21021614E+03</pdfrwt>
<totfact> 0.13415264E+04</totfact>
</mgrwt>
</event>
<event>
 4    1  0.4382184E+000  0.1771960E+03  0.7546771E-02  0.1170545E+00
         21   -1    0    0  501  502  0.00000000000E+00  0.00000000000E+00  0.47196398823E+02  0.47196398823E+02  0.00000000000E+00 0. -1.
         21   -1    0    0  502  503 -0.00000000000E+00 -0.00000000000E+00 -0.66528503537E+03  0.66528503537E+03  0.00000000000E+00 0. -1.
          6    1    1    2  501    0  0.23382716532E+02 -0.30375295956E+02 -0.30742618753E+03  0.35483696371E+03  0.17300000000E+03 0.  1.
         -6    1    1    2    0  503 -0.23382716532E+02  0.30375295956E+02 -0.31066244902E+03  0.35764447048E+03  0.17300000000E+03 0.  1.
<mgrwt>
<rscale>  2 0.17719597E+03</rscale>
<asrwt>0</asrwt>
<pdfrwt beam="1">  1       21 0.72609846E-02 0.17719597E+03</pdfrwt>
<pdfrwt beam="2">  1       21 0.10235154E+00 0.17719597E+03</pdfrwt>
<totfact> 0.11097390E+05</totfact>
</mgrwt>
</event>
<event>
 4    1  0.4382184E+000  0.1779386E+03  0.7546771E-02  0.1169813E+00
         21   -1    0    0  501  502  0.00000000000E+00  0.00000000000E+00  0.10139693864E+04  0.10139693864E+04  0.00000000000E+00 0. -1.
         21   -1    0    0  502  503 -0.00000000000E+00 -0.00000000000E+00 -0.32347443466E+02  0.32347443466E+02  0.00000000000E+00 0. -1.
          6    1    1    2  501    0  0.40205820411E+01  0.41436338228E+02  0.58822372921E+03  0.61454803784E+03  0.17300000000E+03 0. -1.
         -6    1    1    2    0  503 -0.40205820411E+01 -0.41436338228E+02  0.39339821369E+03  0.43176879200E+03  0.17300000000E+03 0. -1.
<mgrwt>
<rscale>  2 0.17793857E+03</rscale>
<asrwt>0</asrwt>
<pdfrwt beam="1">  1       21 0.15599527E+00 0.17793857E+03</pdfrwt>
<pdfrwt beam="2">  1       21 0.49765305E-02 0.17793857E+03</pdfrwt>
<totfact> 0.73622565E+04</totfact>
</mgrwt>
</event>
<event>
 4    1  0.4382184E+000  0.1913937E+03  0.7546771E-02  0.1157210E+00
         21   -1    0    0  501  502  0.00000000000E+00  0.00000000000E+00  0.44109963446E+03  0.44109963446E+03  0.00000000000E+00 0.  1.
         21   -1    0    0  502  503 -0.00000000000E+00 -0.00000000000E+00 -0.10725887081E+03  0.10725887081E+03  0.00000000000E+00 0.  1.
          6    1    1    2  501    0  0.53943124544E+02  0.61584694192E+02  0.29718954661E+03  0.35348714526E+03  0.17300000000E+03 0.  1.
         -6    1    1    2    0  503 -0.53943124544E+02 -0.61584694192E+02  0.36651217032E+02  0.19487136002E+03  0.17300000000E+03 0.  1.
<mgrwt>
<rscale>  2 0.19139367E+03</rscale>
<asrwt>0</asrwt>
<pdfrwt beam="1">  1       21 0.67861482E-01 0.19139367E+03</pdfrwt>
<pdfrwt beam="2">  1       21 0.16501365E-01 0.19139367E+03</pdfrwt>
<totfact> 0.65405005E+04</totfact>
</mgrwt>
</event>
<event>
 4    1  0.4382184E+000  0.2756019E+03  0.7546771E-02  0.1098116E+00
         21   -1    0    0  503  502  0.00000000000E+00  0.00000000000E+00  0.89559716165E+02  0.89559716165E+02  0.00000000000E+00 0.  1.
         21   -1    0    0  501  503 -0.00000000000E+00 -0.00000000000E+00 -0.88810019618E+03  0.88810019618E+03  0.00000000000E+00 0. -1.
          6    1    1    2  501    0  0.19814372751E+03 -0.82258533843E+02 -0.50300132390E+03  0.57355621781E+03  0.17300000000E+03 0. -1.
         -6    1    1    2    0  502 -0.19814372751E+03  0.82258533843E+02 -0.29553915611E+03  0.40410369454E+03  0.17300000000E+03 0. -1.
<mgrwt>
<rscale>  2 0.27560189E+03</rscale>
<asrwt>0</asrwt>
<pdfrwt beam="1">  1       21 0.13778418E-01 0.27560189E+03</pdfrwt>
<pdfrwt beam="2">  1       21 0.13663080E+00 0.27560189E+03</pdfrwt>
<totfact> 0.16613354E+04</totfact>
</mgrwt>
</event>
<event>
 4    1  0.4382184E+000  0.5055573E+03  0.7546771E-02  0.1012338E+00
         21   -1    0    0  501  502  0.00000000000E+00  0.00000000000E+00  0.27371131135E+03  0.27371131135E+03  0.00000000000E+00 0.  1.
         21   -1    0    0  502  503 -0.00000000000E+00 -0.00000000000E+00 -0.95454300967E+03  0.95454300967E+03  0.00000000000E+00 0.  1.
          6    1    1    2  501    0  0.29210238733E+03 -0.37461367321E+03 -0.24985782022E+03  0.56393008358E+03  0.17300000000E+03 0.  1.
         -6    1    1    2    0  503 -0.29210238733E+03  0.37461367321E+03 -0.43097387810E+03  0.66432423743E+03  0.17300000000E+03 0.  1.
<mgrwt>
<rscale>  2 0.50555732E+03</rscale>
<asrwt>0</asrwt>
<pdfrwt beam="1">  1       21 0.42109433E-01 0.50555732E+03</pdfrwt>
<pdfrwt beam="2">  1       21 0.14685277E+00 0.50555732E+03</pdfrwt>
<totfact> 0.14293801E+03</totfact>
</mgrwt>
</event>
<event>
 4    1  0.4382184E+000  0.2016250E+03  0.7546771E-02  0.1148375E+00
         21   -1    0    0  503  502  0.00000000000E+00  0.00000000000E+00  0.93454031726E+03  0.93454031726E+03  0.00000000000E+00 0. -1.
         21   -1    0    0  501  503 -0.00000000000E+00 -0.00000000000E+00 -0.51321573542E+02  0.51321573542E+02  0.00000000000E+00 0.  1.
          6    1    1    2  501    0 -0.98776962075E+02 -0.31092763172E+02  0.24917666914E+03  0.32053340013E+03  0.17300000000E+03 0.  1.
         -6    1    1    2    0  502  0.98776962075E+02  0.31092763172E+02  0.63404207458E+03  0.66532849067E+03  0.17300000000E+03 0. -1.
<mgrwt>
<rscale>  2 0.20162502E+03</rscale>
<asrwt>0</asrwt>
<pdfrwt beam="1">  1       21 0.14377542E+00 0.20162502E+03</pdfrwt>
<pdfrwt beam="2">  1       21 0.78956274E-02 0.20162502E+03</pdfrwt>
<totfact> 0.40788806E+04</totfact>
</mgrwt>
</event>
<event>
 4    1  0.4382184E+000  0.2053885E+03  0.7546771E-02  0.1145271E+00
         21   -1    0    0  503  502  0.00000000000E+00  0.00000000000E+00  0.76930624682E+03  0.76930624682E+03  0.00000000000E+00 0. -1.
         21   -1    0    0  501  503 -0.00000000000E+00 -0.00000000000E+00 -0.54959863162E+02  0.54959863162E+02  0.00000000000E+00 0. -1.
          6    1    1    2  501    0 -0.10121581734E+03 -0.44842069997E+02  0.37686375803E+03  0.42919779244E+03  0.17300000000E+03 0.  1.
         -6    1    1    2    0  502  0.10121581734E+03  0.44842069997E+02  0.33748262563E+03  0.39506831754E+03  0.17300000000E+03 0.  1.
<mgrwt>
<rscale>  2 0.20538854E+03</rscale>
<asrwt>0</asrwt>
<pdfrwt beam="1">  1       21 0.11835480E+00 0.20538854E+03</pdfrwt>
<pdfrwt beam="2">  1       21 0.84553641E-02 0.20538854E+03</pdfrwt>
<totfact> 0.59158109E+04</totfact>
</mgrwt>
</event>
<event>
 4    1  0.4382184E+000  0.2499680E+03  0.7546771E-02  0.1113325E+00
         21   -1    0    0  503  502  0.00000000000E+00  0.00000000000E+00  0.47490650208E+03  0.47490650208E+03  0.00000000000E+00 0.  1.
         21   -1    0    0  501  503 -0.00000000000E+00 -0.00000000000E+00 -0.52030372635E+03  0.52030372635E+03  0.00000000000E+00 0. -1.
          6    1    1    2  501    0 -0.16912995720E+03  0.62849456654E+02 -0.45281088316E+03  0.51722499217E+03  0.17300000000E+03 0. -1.
         -6    1    1    2    0  502  0.16912995720E+03 -0.62849456654E+02  0.40741365889E+03  0.47798523626E+03  0.17300000000E+03 0.  1.
<mgrwt>
<rscale>  2 0.24996799E+03</rscale>
<asrwt>0</asrwt>
<pdfrwt beam="1">  1       21 0.73062539E-01 0.24996799E+03</pdfrwt>
<pdfrwt beam="2">  1       21 0.80046727E-01 0.24996799E+03</pdfrwt>
<totfact> 0.22113533E+03</totfact>
</mgrwt>
</event>
<event>
 4    1  0.4382184E+000  0.2321981E+03  0.7546771E-02  0.1125102E+00
         21   -1    0    0  501  502  0.00000000000E+00  0.00000000000E+00  0.60572348764E+03  0.60572348764E+03  0.00000000000E+00 0.  1.
         21   -1    0    0  502  503 -0.00000000000E+00 -0.00000000000E+00 -0.92682874474E+02  0.92682874474E+02  0.00000000000E+00 0. -1.
          6    1    1    2  501    0 -0.13995340830E+03  0.66332579254E+02  0.32602765687E+03  0.40026241469E+03  0.17300000000E+03 0. -1.
         -6    1    1    2    0  503  0.13995340830E+03 -0.66332579254E+02  0.18701295629E+03  0.29814394742E+03  0.17300000000E+03 0.  1.
<mgrwt>
<rscale>  2 0.23219812E+03</rscale>
<asrwt>0</asrwt>
<pdfrwt beam="1">  1       21 0.93188226E-01 0.23219812E+03</pdfrwt>
<pdfrwt beam="2">  1       21 0.14258904E-01 0.23219812E+03</pdfrwt>
<totfact> 0.40855265E+04</totfact>
</mgrwt>
</event>
<event>
 4    1  0.4382184E+000  0.1790445E+03  0.7546771E-02  0.1168731E+00
         21   -1    0    0  503  502  0.00000000000E+00  0.00000000000E+00  0.11403025419E+03  0.11403025419E+03  0.00000000000E+00 0.  1.
         21   -1    0    0  501  503 -0.00000000000E+00 -0.00000000000E+00 -0.56295229125E+03  0.56295229125E+03  0.00000000000E+00 0.  1.
          6    1    1    2  501    0  0.28189155249E+02  0.36514262276E+02 -0.46395912891E+03  0.49730774489E+03  0.17300000000E+03 0.  1.
         -6    1    1    2    0  502 -0.28189155249E+02 -0.36514262276E+02  0.15037091854E+02  0.17967480056E+03  0.17300000000E+03 0.  1.
<mgrwt>
<rscale>  2 0.17904446E+03</rscale>
<asrwt>0</asrwt>
<pdfrwt beam="1">  1       21 0.17543116E-01 0.17904446E+03</pdfrwt>
<pdfrwt beam="2">  1       21 0.86608046E-01 0.17904446E+03</pdfrwt>
<totfact> 0.34043662E+04</totfact>
</mgrwt>
</event>
<event>
 4    1  0.4382184E+000  0.1869847E+03  0.7546771E-02  0.1161209E+00
         21   -1    0    0  501  502  0.00000000000E+00  0.00000000000E+00  0.28541168034E+03  0.28541168034E+03  0.00000000000E+00 0. -1.
         21   -1    0    0  502  503 -0.00000000000E+00 -0.00000000000E+00 -0.33675226359E+03  0.33675226359E+03  0.00000000000E+00 0. -1.
          6    1    1    2  501    0 -0.70898501115E+02 -0.27696832564E+01  0.22246074593E+03  0.29060635245E+03  0.17300000000E+03 0. -1.
         -6    1    1    2    0  503  0.70898501115E+02  0.27696832564E+01 -0.27380132918E+03  0.33155759148E+03  0.17300000000E+03 0. -1.
<mgrwt>
<rscale>  2 0.18698467E+03</rscale>
<asrwt>0</asrwt>
<pdfrwt beam="1">  1       21 0.43909489E-01 0.18698467E+03</pdfrwt>
<pdfrwt beam="2">  1       21 0.51808040E-01 0.18698467E+03</pdfrwt>
<totfact> 0.17689460E+04</totfact>
</mgrwt>
</event>
<event>
 4    1  0.4382184E+000  0.2337853E+03  0.7546771E-02  0.1124003E+00
         21   -1    0    0  501  502  0.00000000000E+00  0.00000000000E+00  0.11669370125E+04  0.11669370125E+04  0.00000000000E+00 0. -1.
         21   -1    0    0  502  503 -0.00000000000E+00 -0.00000000000E+00 -0.47706973915E+02  0.47706973915E+02  0.00000000000E+00 0.  1.
          6    1    1    2  501    0 -0.14776474775E+03  0.53778826746E+02  0.64163766897E+03  0.68290151642E+03  0.17300000000E+03 0.  1.
         -6    1    1    2    0  503  0.14776474775E+03 -0.53778826746E+02  0.47759236963E+03  0.53174247001E+03  0.17300000000E+03 0. -1.
<mgrwt>
<rscale>  2 0.23378534E+03</rscale>
<asrwt>0</asrwt>
<pdfrwt beam="1">  1       21 0.17952875E+00 0.23378534E+03</pdfrwt>
<pdfrwt beam="2">  1       21 0.73395353E-02 0.23378534E+03</pdfrwt>
<totfact> 0.24867765E+04</totfact>
</mgrwt>
</event>
<event>
 4    1  0.4382184E+000  0.1736509E+03  0.7546771E-02  0.1174093E+00
         21   -1    0    0  503  502  0.00000000000E+00  0.00000000000E+00  0.10187143560E+03  0.10187143560E+03  0.00000000000E+00 0. -1.
         21   -1    0    0  501  503 -0.00000000000E+00 -0.00000000000E+00 -0.33834851865E+03  0.33834851865E+03  0.00000000000E+00 0. -1.
          6    1    1    2  501    0 -0.10278811037E+02  0.10953122964E+02 -0.19610357499E+03  0.26193746770E+03  0.17300000000E+03 0. -1.
         -6    1    1    2    0  502  0.10278811037E+02 -0.10953122964E+02 -0.40373508048E+02  0.17828248655E+03  0.17300000000E+03 0. -1.
<mgrwt>
<rscale>  2 0.17365087E+03</rscale>
<asrwt>0</asrwt>
<pdfrwt beam="1">  1       21 0.15672529E-01 0.17365087E+03</pdfrwt>
<pdfrwt beam="2">  1       21 0.52053618E-01 0.17365087E+03</pdfrwt>
<totfact> 0.12769438E+05</totfact>
</mgrwt>
</event>
<event>
 4    1  0.4382184E+000  0.1815505E+03  0.7546771E-02  0.1166311E+00
         21   -1    0    0  503  502  0.00000000000E+00  0.00000000000E+00  0.58975338508E+02  0.58975338508E+02  0.00000000000E+00 0. -1.
         21   -1    0    0  501  503 -0.00000000000E+00 -0.00000000000E+00 -0.61402394239E+03  0.61402394239E+03  0.00000000000E+00 0. -1.
          6    1    1    2  501    0 -0.22720906853E+02  0.50153312637E+02 -0.17668952814E+03  0.25333729242E+03  0.17300000000E+03 0. -1.
         -6    1    1    2    0  502  0.22720906853E+02 -0.50153312637E+02 -0.37835907574E+03  0.41966198847E+03  0.17300000000E+03 0. -1.
<mgrwt>
<rscale>  2 0.18155053E+03</rscale>
<asrwt>0</asrwt>
<pdfrwt beam="1">  1       21 0.90731294E-02 0.18155053E+03</pdfrwt>
<pdfrwt beam="2">  1       21 0.94465218E-01 0.18155053E+03</pdfrwt>
<totfact> 0.90817766E+04</totfact>
</mgrwt>
</event>
<event>
 4    1  0.4382184E+000  0.1822598E+03  0.7546771E-02  0.1165634E+00
         21   -1    0    0  503  502  0.00000000000E+00  0.00000000000E+00  0.54029028934E+03  0.54029028934E+03  0.00000000000E+00 0.  1.
         21   -1    0    0  501  503 -0.00000000000E+00 -0.00000000000E+00 -0.51999020694E+03  0.51999020694E+03  0.00000000000E+00 0.  1.
          6    1    1    2  501    0 -0.50274465618E+02 -0.27606125688E+02 -0.48766305756E+03  0.52060914108E+03  0.17300000000E+03 0.  1.
         -6    1    1    2    0  502  0.50274465618E+02  0.27606125688E+02  0.50796313996E+03  0.53967135520E+03  0.17300000000E+03 0.  1.
<mgrwt>
<rscale>  2 0.18225976E+03</rscale>
<asrwt>0</asrwt>
<pdfrwt beam="1">  1       21 0.83121583E-01 0.18225976E+03</pdfrwt>
<pdfrwt beam="2">  1       21 0.79998494E-01 0.18225976E+03</pdfrwt>
<totfact> 0.17514475E+03</totfact>
</mgrwt>
</event>
<event>
 4    1  0.4382184E+000  0.3124925E+03  0.7546771E-02  0.1079157E+00
         21   -1    0    0  503  502  0.00000000000E+00  0.00000000000E+00  0.87198094900E+02  0.87198094900E+02  0.00000000000E+00 0.  1.
         21   -1    0    0  501  503 -0.00000000000E+00 -0.00000000000E+00 -0.12296219728E+04  0.12296219728E+04  0.00000000000E+00 0. -1.
          6    1    1    2  501    0 -0.23352224063E+03  0.11484753046E+03 -0.76790666351E+03  0.82905502591E+03  0.17300000000E+03 0. -1.
         -6    1    1    2    0  502  0.23352224063E+03 -0.11484753046E+03 -0.37451721441E+03  0.48776504181E+03  0.17300000000E+03 0.  1.
<mgrwt>
<rscale>  2 0.31249255E+03</rscale>
<asrwt>0</asrwt>
<pdfrwt beam="1">  1       21 0.13415093E-01 0.31249255E+03</pdfrwt>
<pdfrwt beam="2">  1       21 0.18917259E+00 0.31249255E+03</pdfrwt>
<totfact> 0.69894736E+03</totfact>
</mgrwt>
</event>
<event>
 4    1  0.4382184E+000  0.1859020E+03  0.7546771E-02  0.1162210E+00
         21   -1    0    0  503  502  0.00000000000E+00  0.00000000000E+00  0.16014187634E+03  0.16014187634E+03  0.00000000000E+00 0. -1.
         21   -1    0    0  501  503 -0.00000000000E+00 -0.00000000000E+00 -0.41417411910E+03  0.41417411910E+03  0.00000000000E+00 0. -1.
          6    1    1    2  501    0 -0.59401556803E+02  0.33196516633E+02 -0.32574708586E+03  0.37506095187E+03  0.17300000000E+03 0. -1.
         -6    1    1    2    0  502  0.59401556803E+02 -0.33196516633E+02  0.71714843100E+02  0.19925504357E+03  0.17300000000E+03 0. -1.
<mgrwt>
<rscale>  2 0.18590200E+03</rscale>
<asrwt>0</asrwt>
<pdfrwt beam="1">  1       21 0.24637212E-01 0.18590200E+03</pdfrwt>
<pdfrwt beam="2">  1       21 0.63719095E-01 0.18590200E+03</pdfrwt>
<totfact> 0.35569983E+04</totfact>
</mgrwt>
</event>
<event>
 4    1  0.4382184E+000  0.1967219E+03  0.7546771E-02  0.1152535E+00
         21   -1    0    0  501  502  0.00000000000E+00  0.00000000000E+00  0.18915730741E+03  0.18915730741E+03  0.00000000000E+00 0. -1.
         21   -1    0    0  502  503 -0.00000000000E+00 -0.00000000000E+00 -0.91796646615E+03  0.91796646615E+03  0.00000000000E+00 0. -1.
          6    1    1    2  501    0  0.26511726317E+02 -0.89819972366E+02  0.12358716479E+03  0.23232151508E+03  0.17300000000E+03 0. -1.
         -6    1    1    2    0  503 -0.26511726317E+02  0.89819972366E+02 -0.85239632353E+03  0.87480225848E+03  0.17300000000E+03 0. -1.
<mgrwt>
<rscale>  2 0.19672188E+03</rscale>
<asrwt>0</asrwt>
<pdfrwt beam="1">  1       21 0.29101125E-01 0.19672188E+03</pdfrwt>
<pdfrwt beam="2">  1       21 0.14122561E+00 0.19672188E+03</pdfrwt>
<totfact> 0.39415882E+03</totfact>
</mgrwt>
</event>
<event>
 4    1  0.4382184E+000  0.2361866E+03  0.7546771E-02  0.1122360E+00
         21   -1    0    0  503  502  0.00000000000E+00  0.00000000000E+00  0.79911893142E+02  0.79911893142E+02  0.00000000000E+00 0. -1.
         21   -1    0    0  501  503 -0.00000000000E+00 -0.00000000000E+00 -0.89468771521E+03  0.89468771521E+03  0.00000000000E+00 0.  1.
          6    1    1    2  501    0  0.79354049103E+02 -0.13985006734E+03 -0.63582765649E+03  0.67827790410E+03  0.17300000000E+03 0.  1.
         -6    1    1    2    0  502 -0.79354049103E+02  0.13985006734E+03 -0.17894816558E+03  0.29632170425E+03  0.17300000000E+03 0. -1.
<mgrwt>
<rscale>  2 0.23618659E+03</rscale>
<asrwt>0</asrwt>
<pdfrwt beam="1">  1       21 0.12294138E-01 0.23618659E+03</pdfrwt>
<pdfrwt beam="2">  1       21 0.13764426E+00 0.23618659E+03</pdfrwt>
<totfact> 0.20452801E+04</totfact>
</mgrwt>
</event>
<event>
 4    1  0.4382184E+000  0.2931777E+03  0.7546771E-02  0.1088702E+00
         21   -1    0    0  501  502  0.00000000000E+00  0.00000000000E+00  0.43213838062E+02  0.43213838062E+02  0.00000000000E+00 0. -1.
         21   -1    0    0  502  503 -0.00000000000E+00 -0.00000000000E+00 -0.19895361351E+04  0.19895361351E+04  0.00000000000E+00 0.  1.
          6    1    1    2  501    0  0.16861057097E+03 -0.16611632468E+03 -0.95677964724E+03  0.10006899876E+04  0.17300000000E+03 0.  1.
         -6    1    1    2    0  503 -0.16861057097E+03  0.16611632468E+03 -0.98954264975E+03  0.10320599855E+04  0.17300000000E+03 0. -1.
<mgrwt>
<rscale>  2 0.29317769E+03</rscale>
<asrwt>0</asrwt>
<pdfrwt beam="1">  1       21 0.66482827E-02 0.29317769E+03</pdfrwt>
<pdfrwt beam="2">  1       21 0.30608248E+00 0.29317769E+03</pdfrwt>
<totfact> 0.47326829E+03</totfact>
</mgrwt>
</event>
<event>
 4    1  0.4382184E+000  0.1735623E+03  0.7546771E-02  0.1174183E+00
         21   -1    0    0  503  502  0.00000000000E+00  0.00000000000E+00  0.35013043051E+03  0.35013043051E+03  0.00000000000E+00 0.  1.
         21   -1    0    0  501  503 -0.00000000000E+00 -0.00000000000E+00 -0.11473563650E+03  0.11473563650E+03  0.00000000000E+00 0.  1.
          6    1    1    2  501    0 -0.58122742935E+01 -0.12692395364E+02  0.14493577237E+01  0.17356837290E+03  0.17300000000E+03 0.  1.
         -6    1    1    2    0  502  0.58122742935E+01  0.12692395364E+02  0.23394543629E+03  0.29129769411E+03  0.17300000000E+03 0.  1.
<mgrwt>
<rscale>  2 0.17356232E+03</rscale>
<asrwt>0</asrwt>
<pdfrwt beam="1">  1       21 0.53866220E-01 0.17356232E+03</pdfrwt>
<pdfrwt beam="2">  1       21 0.17651637E-01 0.17356232E+03</pdfrwt>
<totfact> 0.95587680E+04</totfact>
</mgrwt>
</event>
<event>
 4    1  0.4382184E+000  0.1975940E+03  0.7546771E-02  0.1151785E+00
         21   -1    0    0  501  502  0.00000000000E+00  0.00000000000E+00  0.60163598651E+03  0.60163598651E+03  0.00000000000E+00 0. -1.
         21   -1    0    0  502  503 -0.00000000000E+00 -0.00000000000E+00 -0.22497613641E+03  0.22497613641E+03  0.00000000000E+00 0. -1.
          6    1    1    2  501    0 -0.92917494475E+02 -0.21925765818E+02  0.53696662518E+03  0.57216829390E+03  0.17300000000E+03 0. -1.
         -6    1    1    2    0  503  0.92917494475E+02  0.21925765818E+02 -0.16030677508E+03  0.25444382901E+03  0.17300000000E+03 0. -1.
<mgrwt>
<rscale>  2 0.19759403E+03</rscale>
<asrwt>0</asrwt>
<pdfrwt beam="1">  1       21 0.92559382E-01 0.19759403E+03</pdfrwt>
<pdfrwt beam="2">  1       21 0.34611713E-01 0.19759403E+03</pdfrwt>
<totfact> 0.78912541E+03</totfact>
</mgrwt>
</event>
<event>
 4    1  0.4382184E+000  0.2696380E+03  0.7546771E-02  0.1101487E+00
         21   -1    0    0  501  502  0.00000000000E+00  0.00000000000E+00  0.45222054229E+03  0.45222054229E+03  0.00000000000E+00 0. -1.
         21   -1    0    0  502  503 -0.00000000000E+00 -0.00000000000E+00 -0.24642226373E+03  0.24642226373E+03  0.00000000000E+00 0.  1.
          6    1    1    2  501    0  0.20255811257E+03  0.41783276430E+02  0.30884273278E+03  0.40998593238E+03  0.17300000000E+03 0. -1.
         -6    1    1    2    0  503 -0.20255811257E+03 -0.41783276430E+02 -0.10304445421E+03  0.28865687364E+03  0.17300000000E+03 0.  1.
<mgrwt>
<rscale>  2 0.26963796E+03</rscale>
<asrwt>0</asrwt>
<pdfrwt beam="1">  1       21 0.69572391E-01 0.26963796E+03</pdfrwt>
<pdfrwt beam="2">  1       21 0.37911117E-01 0.26963796E+03</pdfrwt>
<totfact> 0.12052343E+04</totfact>
</mgrwt>
</event>
<event>
 4    1  0.4382184E+000  0.2007141E+03  0.7546771E-02  0.1149138E+00
         21   -1    0    0  501  502  0.00000000000E+00  0.00000000000E+00  0.82201529557E+03  0.82201529557E+03  0.00000000000E+00 0. -1.
         21   -1    0    0  502  503 -0.00000000000E+00 -0.00000000000E+00 -0.12309576490E+03  0.12309576490E+03  0.00000000000E+00 0. -1.
          6    1    1    2  501    0  0.83987988905E+02  0.57473025953E+02  0.71606753862E+03  0.74366581935E+03  0.17300000000E+03 0. -1.
         -6    1    1    2    0  503 -0.83987988905E+02 -0.57473025953E+02 -0.17148007958E+02  0.20144524112E+03  0.17300000000E+03 0. -1.
<mgrwt>
<rscale>  2 0.20071405E+03</rscale>
<asrwt>0</asrwt>
<pdfrwt beam="1">  1       21 0.12646389E+00 0.20071405E+03</pdfrwt>
<pdfrwt beam="2">  1       21 0.18937810E-01 0.20071405E+03</pdfrwt>
<totfact> 0.11771666E+04</totfact>
</mgrwt>
</event>
<event>
 4    1  0.4382184E+000  0.1828672E+03  0.7546771E-02  0.1165057E+00
         21   -1    0    0  503  502  0.00000000000E+00  0.00000000000E+00  0.59361693465E+02  0.59361693465E+02  0.00000000000E+00 0.  1.
         21   -1    0    0  501  503 -0.00000000000E+00 -0.00000000000E+00 -0.65023594449E+03  0.65023594449E+03  0.00000000000E+00 0.  1.
          6    1    1    2  501    0  0.29810147560E+02 -0.51212990597E+02 -0.42514409635E+03  0.46280440573E+03  0.17300000000E+03 0.  1.
         -6    1    1    2    0  502 -0.29810147560E+02  0.51212990597E+02 -0.16573015468E+03  0.24679323223E+03  0.17300000000E+03 0.  1.
<mgrwt>
<rscale>  2 0.18286721E+03</rscale>
<asrwt>0</asrwt>
<pdfrwt beam="1">  1       21 0.91325681E-02 0.18286721E+03</pdfrwt>
<pdfrwt beam="2">  1       21 0.10003630E+00 0.18286721E+03</pdfrwt>
<totfact> 0.78432176E+04</totfact>
</mgrwt>
</event>
<event>
 4    1  0.4382184E+000  0.1781225E+03  0.7546771E-02  0.1169633E+00
         21   -1    0    0  501  502  0.00000000000E+00  0.00000000000E+00  0.61040474260E+03  0.61040474260E+03  0.00000000000E+00 0. -1.
         21   -1    0    0  502  503 -0.00000000000E+00 -0.00000000000E+00 -0.71784097421E+02  0.71784097421E+02  0.00000000000E+00 0. -1.
          6    1    1    2  501    0 -0.21570288803E+02 -0.36514882183E+02  0.44847814494E+03  0.48255596615E+03  0.17300000000E+03 0. -1.
         -6    1    1    2    0  503  0.21570288803E+02  0.36514882183E+02  0.90142500239E+02  0.19963287387E+03  0.17300000000E+03 0. -1.
<mgrwt>
<rscale>  2 0.17812247E+03</rscale>
<asrwt>0</asrwt>
<pdfrwt beam="1">  1       21 0.93908418E-01 0.17812247E+03</pdfrwt>
<pdfrwt beam="2">  1       21 0.11043708E-01 0.17812247E+03</pdfrwt>
<totfact> 0.65202112E+04</totfact>
</mgrwt>
</event>
<event>
 4    1  0.4382184E+000  0.1843133E+03  0.7546771E-02  0.1163693E+00
         21   -1    0    0  503  502  0.00000000000E+00  0.00000000000E+00  0.14318071819E+04  0.14318071819E+04  0.00000000000E+00 0. -1.
         21   -1    0    0  501  503 -0.00000000000E+00 -0.00000000000E+00 -0.37856932294E+02  0.37856932294E+02  0.00000000000E+00 0. -1.
          6    1    1    2  501    0  0.50761283821E+01  0.63376941830E+02  0.24802605872E+03  0.30901186003E+03  0.17300000000E+03 0. -1.
         -6    1    1    2    0  502 -0.50761283821E+01 -0.63376941830E+02  0.11459241908E+04  0.11606522541E+04  0.17300000000E+03 0. -1.
<mgrwt>
<rscale>  2 0.18431333E+03</rscale>
<asrwt>0</asrwt>
<pdfrwt beam="1">  1       21 0.22027799E+00 0.18431333E+03</pdfrwt>
<pdfrwt beam="2">  1       21 0.58241445E-02 0.18431333E+03</pdfrwt>
<totfact> 0.20929463E+04</totfact>
</mgrwt>
</event>
<event>
 4    1  0.4382184E+000  0.2169684E+03  0.7546771E-02  0.1136164E+00
         21   -1    0    0  501  502  0.00000000000E+00  0.00000000000E+00  0.22641906262E+03  0.22641906262E+03  0.00000000000E+00 0.  1.
         21   -1    0    0  502  503 -0.00000000000E+00 -0.00000000000E+00 -0.24877668247E+03  0.24877668247E+03  0.00000000000E+00 0. -1.
          6    1    1    2  501    0 -0.75982463221E+02  0.10664402119E+03  0.85117754790E+02  0.23306718806E+03  0.17300000000E+03 0. -1.
         -6    1    1    2    0  503  0.75982463221E+02 -0.10664402119E+03 -0.10747537465E+03  0.24212855703E+03  0.17300000000E+03 0. -1.
<mgrwt>
<rscale>  2 0.21696839E+03</rscale>
<asrwt>0</asrwt>
<pdfrwt beam="1">  1       21 0.34833702E-01 0.21696839E+03</pdfrwt>
<pdfrwt beam="2">  1       21 0.38273336E-01 0.21696839E+03</pdfrwt>
<totfact> 0.51701269E+04</totfact>
</mgrwt>
</event>
<event>
 4    1  0.4382184E+000  0.2279385E+03  0.7546771E-02  0.1128099E+00
         21   -1    0    0  501  502  0.00000000000E+00  0.00000000000E+00  0.19775016285E+03  0.19775016285E+03  0.00000000000E+00 0. -1.
         21   -1    0    0  502  503 -0.00000000000E+00 -0.00000000000E+00 -0.35919895363E+03  0.35919895363E+03  0.00000000000E+00 0. -1.
          6    1    1    2  501    0  0.27173653403E+02 -0.14590592916E+03  0.63586743601E+02  0.23664154657E+03  0.17300000000E+03 0. -1.
         -6    1    1    2    0  503 -0.27173653403E+02  0.14590592916E+03 -0.22503553438E+03  0.32030756990E+03  0.17300000000E+03 0. -1.
<mgrwt>
<rscale>  2 0.22793847E+03</rscale>
<asrwt>0</asrwt>
<pdfrwt beam="1">  1       21 0.30423102E-01 0.22793847E+03</pdfrwt>
<pdfrwt beam="2">  1       21 0.55261377E-01 0.22793847E+03</pdfrwt>
<totfact> 0.31436875E+04</totfact>
</mgrwt>
</event>
<event>
 4    1  0.4382184E+000  0.2474292E+03  0.7546771E-02  0.1114940E+00
         21   -1    0    0  503  502  0.00000000000E+00  0.00000000000E+00  0.35479499254E+03  0.35479499254E+03  0.00000000000E+00 0.  1.
         21   -1    0    0  501  503 -0.00000000000E+00 -0.00000000000E+00 -0.44751434213E+03  0.44751434213E+03  0.00000000000E+00 0.  1.
          6    1    1    2  501    0 -0.13464331454E+03  0.11473185324E+03 -0.36080385901E+03  0.43749359421E+03  0.17300000000E+03 0.  1.
         -6    1    1    2    0  502  0.13464331454E+03 -0.11473185324E+03  0.26808450941E+03  0.36481574046E+03  0.17300000000E+03 0.  1.
<mgrwt>
<rscale>  2 0.24742922E+03</rscale>
<asrwt>0</asrwt>
<pdfrwt beam="1">  1       21 0.54583845E-01 0.24742922E+03</pdfrwt>
<pdfrwt beam="2">  1       21 0.68848360E-01 0.24742922E+03</pdfrwt>
<totfact> 0.58662980E+03</totfact>
</mgrwt>
</event>
<event>
 4    1  0.4382184E+000  0.2218845E+03  0.7546771E-02  0.1132486E+00
         21   -1    0    0  503  502  0.00000000000E+00  0.00000000000E+00  0.35344067536E+02  0.35344067536E+02  0.00000000000E+00 0.  1.
         21   -1    0    0  501  503 -0.00000000000E+00 -0.00000000000E+00 -0.14006584412E+04  0.14006584412E+04  0.00000000000E+00 0.  1.
          6    1    1    2  501    0 -0.85798351264E+02 -0.10928117887E+03 -0.62941308258E+03  0.66737812495E+03  0.17300000000E+03 0.  1.
         -6    1    1    2    0  502  0.85798351264E+02  0.10928117887E+03 -0.73590129104E+03  0.76862438375E+03  0.17300000000E+03 0.  1.
<mgrwt>
<rscale>  2 0.22188450E+03</rscale>
<asrwt>0</asrwt>
<pdfrwt beam="1">  1       21 0.54375497E-02 0.22188450E+03</pdfrwt>
<pdfrwt beam="2">  1       21 0.21548588E+00 0.22188450E+03</pdfrwt>
<totfact> 0.24483636E+04</totfact>
</mgrwt>
</event>
<event>
 4    1  0.4382184E+000  0.2874039E+03  0.7546771E-02  0.1091712E+00
         21   -1    0    0  503  502  0.00000000000E+00  0.00000000000E+00  0.34860507834E+03  0.34860507834E+03  0.00000000000E+00 0.  1.
         21   -1    0    0  501  503 -0.00000000000E+00 -0.00000000000E+00 -0.25417102265E+03  0.25417102265E+03  0.00000000000E+00 0. -1.
          6    1    1    2  501    0 -0.24441731274E+01 -0.22949081139E+03 -0.31239204461E+02  0.28909668692E+03  0.17300000000E+03 0. -1.
         -6    1    1    2    0  502  0.24441731274E+01  0.22949081139E+03  0.12567326015E+03  0.31367941407E+03  0.17300000000E+03 0.  1.
<mgrwt>
<rscale>  2 0.28740391E+03</rscale>
<asrwt>0</asrwt>
<pdfrwt beam="1">  1       21 0.53631551E-01 0.28740391E+03</pdfrwt>
<pdfrwt beam="2">  1       21 0.39103234E-01 0.28740391E+03</pdfrwt>
<totfact> 0.19770805E+04</totfact>
</mgrwt>
</event>
<event>
 4    1  0.4382184E+000  0.2614380E+03  0.7546771E-02  0.1106282E+00
         21   -1    0    0  501  502  0.00000000000E+00  0.00000000000E+00  0.77674100650E+02  0.77674100650E+02  0.00000000000E+00 0. -1.
         21   -1    0    0  502  503 -0.00000000000E+00 -0.00000000000E+00 -0.10223418459E+04  0.10223418459E+04  0.00000000000E+00 0.  1.
          6    1    1    2  501    0  0.54457232924E+02 -0.18829558510E+03 -0.26707411924E+03  0.37373573920E+03  0.17300000000E+03 0. -1.
         -6    1    1    2    0  503 -0.54457232924E+02  0.18829558510E+03 -0.67759362596E+03  0.72628020731E+03  0.17300000000E+03 0.  1.
<mgrwt>
<rscale>  2 0.26143798E+03</rscale>
<asrwt>0</asrwt>
<pdfrwt beam="1">  1       21 0.11949862E-01 0.26143798E+03</pdfrwt>
<pdfrwt beam="2">  1       21 0.15728335E+00 0.26143798E+03</pdfrwt>
<totfact> 0.14916373E+04</totfact>
</mgrwt>
</event>
<event>
 4    1  0.4382184E+000  0.2360001E+03  0.7546771E-02  0.1122487E+00
         21   -1    0    0  503  502  0.00000000000E+00  0.00000000000E+00  0.15700290968E+04  0.15700290968E+04  0.00000000000E+00 0.  1.
         21   -1    0    0  501  503 -0.00000000000E+00 -0.00000000000E+00 -0.33632507810E+03  0.33632507810E+03  0.00000000000E+00 0. -1.
          6    1    1    2  501    0 -0.36413574407E+02  0.15633642114E+03 -0.28465556662E+03  0.36976318987E+03  0.17300000000E+03 0. -1.
         -6    1    1    2    0  502  0.36413574407E+02 -0.15633642114E+03  0.15183595853E+04  0.15365909850E+04  0.17300000000E+03 0.  1.
<mgrwt>
<rscale>  2 0.23600005E+03</rscale>
<asrwt>0</asrwt>
<pdfrwt beam="1">  1       21 0.24154293E+00 0.23600005E+03</pdfrwt>
<pdfrwt beam="2">  1       21 0.51742321E-01 0.23600005E+03</pdfrwt>
<totfact> 0.25041142E+02</totfact>
</mgrwt>
</event>
<event>
 4    1  0.4382184E+000  0.2285192E+03  0.7546771E-02  0.1127686E+00
         21   -1    0    0  501  502  0.00000000000E+00  0.00000000000E+00  0.70523570538E+03  0.70523570538E+03  0.00000000000E+00 0.  1.
         21   -1    0    0  502  503 -0.00000000000E+00 -0.00000000000E+00 -0.97775392699E+02  0.97775392699E+02  0.00000000000E+00 0. -1.
          6    1    1    2  501    0  0.14578747809E+03 -0.32218646814E+02  0.50152055070E+03  0.55112965149E+03  0.17300000000E+03 0.  1.
         -6    1    1    2    0  503 -0.14578747809E+03  0.32218646814E+02  0.10593976198E+03  0.25188144660E+03  0.17300000000E+03 0. -1.
<mgrwt>
<rscale>  2 0.22851921E+03</rscale>
<asrwt>0</asrwt>
<pdfrwt beam="1">  1       21 0.10849780E+00 0.22851921E+03</pdfrwt>
<pdfrwt beam="2">  1       21 0.15042369E-01 0.22851921E+03</pdfrwt>
<totfact> 0.25817183E+04</totfact>
</mgrwt>
</event>
<event>
 4    1  0.4382184E+000  0.1735981E+03  0.7546771E-02  0.1174147E+00
         21   -1    0    0  503  502  0.00000000000E+00  0.00000000000E+00  0.16554887962E+03  0.16554887962E+03  0.00000000000E+00 0.  1.
         21   -1    0    0  501  503 -0.00000000000E+00 -0.00000000000E+00 -0.27461790875E+03  0.27461790875E+03  0.00000000000E+00 0.  1.
          6    1    1    2  501    0  0.13166940506E+02 -0.58259177768E+01 -0.18231939863E+03  0.25174723982E+03  0.17300000000E+03 0.  1.
         -6    1    1    2    0  502 -0.13166940506E+02  0.58259177768E+01  0.73250369507E+02  0.18841954854E+03  0.17300000000E+03 0.  1.
<mgrwt>
<rscale>  2 0.17359813E+03</rscale>
<asrwt>0</asrwt>
<pdfrwt beam="1">  1       21 0.25469059E-01 0.17359813E+03</pdfrwt>
<pdfrwt beam="2">  1       21 0.42248908E-01 0.17359813E+03</pdfrwt>
<totfact> 0.79429427E+04</totfact>
</mgrwt>
</event>
<event>
 4    1  0.4382184E+000  0.1938238E+03  0.7546771E-02  0.1155057E+00
         21   -1    0    0  503  502  0.00000000000E+00  0.00000000000E+00  0.24574383268E+03  0.24574383268E+03  0.00000000000E+00 0. -1.
         21   -1    0    0  501  503 -0.00000000000E+00 -0.00000000000E+00 -0.33292429694E+03  0.33292429694E+03  0.00000000000E+00 0. -1.
          6    1    1    2  501    0 -0.87391233954E+02  0.11978368973E+01 -0.25636720578E+03  0.32139042734E+03  0.17300000000E+03 0. -1.
         -6    1    1    2    0  502  0.87391233954E+02 -0.11978368973E+01  0.16918674152E+03  0.25727770228E+03  0.17300000000E+03 0. -1.
<mgrwt>
<rscale>  2 0.19382379E+03</rscale>
<asrwt>0</asrwt>
<pdfrwt beam="1">  1       21 0.37806744E-01 0.19382379E+03</pdfrwt>
<pdfrwt beam="2">  1       21 0.51219122E-01 0.19382379E+03</pdfrwt>
<totfact> 0.24433063E+04</totfact>
</mgrwt>
</event>
<event>
 4    1  0.4382184E+000  0.2425768E+03  0.7546771E-02  0.1118088E+00
         21   -1    0    0  503  502  0.00000000000E+00  0.00000000000E+00  0.68771105568E+02  0.68771105568E+02  0.00000000000E+00 0.  1.
         21   -1    0    0  501  503 -0.00000000000E+00 -0.00000000000E+00 -0.12077020587E+04  0.12077020587E+04  0.00000000000E+00 0. -1.
          6    1    1    2  501    0 -0.11432687376E+03 -0.12587244781E+03 -0.91406099307E+03  0.94570133035E+03  0.17300000000E+03 0. -1.
         -6    1    1    2    0  502  0.11432687376E+03  0.12587244781E+03 -0.22486996010E+03  0.33077183395E+03  0.17300000000E+03 0.  1.
<mgrwt>
<rscale>  2 0.24257681E+03</rscale>
<asrwt>0</asrwt>
<pdfrwt beam="1">  1       21 0.10580170E-01 0.24257681E+03</pdfrwt>
<pdfrwt beam="2">  1       21 0.18580031E+00 0.24257681E+03</pdfrwt>
<totfact> 0.11775809E+04</totfact>
</mgrwt>
</event>
<event>
 4    1  0.4382184E+000  0.1829187E+03  0.7546771E-02  0.1165008E+00
         21   -1    0    0  503  502  0.00000000000E+00  0.00000000000E+00  0.94696623067E+02  0.94696623067E+02  0.00000000000E+00 0.  1.
         21   -1    0    0  501  503 -0.00000000000E+00 -0.00000000000E+00 -0.45033821066E+03  0.45033821066E+03  0.00000000000E+00 0.  1.
          6    1    1    2  501    0 -0.58803054121E+02 -0.85128327819E+01 -0.51339435932E+02  0.18998685528E+03  0.17300000000E+03 0.  1.
         -6    1    1    2    0  502  0.58803054121E+02  0.85128327819E+01 -0.30430215166E+03  0.35504797845E+03  0.17300000000E+03 0.  1.
<mgrwt>
<rscale>  2 0.18291875E+03</rscale>
<asrwt>0</asrwt>
<pdfrwt beam="1">  1       21 0.14568711E-01 0.18291875E+03</pdfrwt>
<pdfrwt beam="2">  1       21 0.69282802E-01 0.18291875E+03</pdfrwt>
<totfact> 0.78725009E+04</totfact>
</mgrwt>
</event>
<event>
 4    1  0.4382184E+000  0.1967593E+03  0.7546771E-02  0.1152502E+00
         21   -1    0    0  501  502  0.00000000000E+00  0.00000000000E+00  0.13464523620E+03  0.13464523620E+03  0.00000000000E+00 0. -1.
         21   -1    0    0  502  503 -0.00000000000E+00 -0.00000000000E+00 -0.65079202623E+03  0.65079202623E+03  0.00000000000E+00 0. -1.
          6    1    1    2  501    0 -0.18355465918E+01  0.93711511932E+02 -0.55148132730E+03  0.58553041856E+03  0.17300000000E+03 0. -1.
         -6    1    1    2    0  503  0.18355465918E+01 -0.93711511932E+02  0.35334537270E+02  0.19990684386E+03  0.17300000000E+03 0. -1.
<mgrwt>
<rscale>  2 0.19675929E+03</rscale>
<asrwt>0</asrwt>
<pdfrwt beam="1">  1       21 0.20714652E-01 0.19675929E+03</pdfrwt>
<pdfrwt beam="2">  1       21 0.10012185E+00 0.19675929E+03</pdfrwt>
<totfact> 0.17648375E+04</totfact>
</mgrwt>
</event>
<event>
 4    1  0.4382184E+000  0.2002515E+03  0.7546771E-02  0.1149527E+00
         21   -1    0    0  501  502  0.00000000000E+00  0.00000000000E+00  0.88276404932E+02  0.88276404932E+02  0.00000000000E+00 0.  1.
         21   -1    0    0  502  503 -0.00000000000E+00 -0.00000000000E+00 -0.60807985394E+03  0.60807985394E+03  0.00000000000E+00 0.  1.
          6    1    1    2  501    0  0.13308275501E+02  0.99972734536E+02 -0.84786506587E+02  0.21746128287E+03  0.17300000000E+03 0.  1.
         -6    1    1    2    0  503 -0.13308275501E+02 -0.99972734536E+02 -0.43501694242E+03  0.47889497600E+03  0.17300000000E+03 0.  1.
<mgrwt>
<rscale>  2 0.20025149E+03</rscale>
<asrwt>0</asrwt>
<pdfrwt beam="1">  1       21 0.13580985E-01 0.20025149E+03</pdfrwt>
<pdfrwt beam="2">  1       21 0.93550748E-01 0.20025149E+03</pdfrwt>
<totfact> 0.44930074E+04</totfact>
</mgrwt>
</event>
<event>
 4    1  0.4382184E+000  0.2120653E+03  0.7546771E-02  0.1139941E+00
         21   -1    0    0  501  502  0.00000000000E+00  0.00000000000E+00  0.24996988532E+02  0.24996988532E+02  0.00000000000E+00 0.  1.
         21   -1    0    0  502  503 -0.00000000000E+00 -0.00000000000E+00 -0.18321270230E+04  0.18321270230E+04  0.00000000000E+00 0.  1.
          6    1    1    2  501    0  0.61369920807E+02 -0.10619059237E+03 -0.77886517181E+03  0.80721909352E+03  0.17300000000E+03 0.  1.
         -6    1    1    2    0  503 -0.61369920807E+02  0.10619059237E+03 -0.10282648627E+04  0.10499049181E+04  0.17300000000E+03 0.  1.
<mgrwt>
<rscale>  2 0.21206534E+03</rscale>
<asrwt>0</asrwt>
<pdfrwt beam="1">  1       21 0.38456902E-02 0.21206534E+03</pdfrwt>
<pdfrwt beam="2">  1       21 0.28186572E+00 0.21206534E+03</pdfrwt>
<totfact> 0.17844057E+04</totfact>
</mgrwt>
</event>
<event>
 4    1  0.4382184E+000  0.2007626E+03  0.7546771E-02  0.1149097E+00
         21   -1    0    0  501  502  0.00000000000E+00  0.00000000000E+00  0.89962427436E+03  0.89962427436E+03  0.00000000000E+00 0.  1.
         21   -1    0    0  502  503 -0.00000000000E+00 -0.00000000000E+00 -0.13803606490E+03  0.13803606490E+03  0.00000000000E+00 0.  1.
          6    1    1    2  501    0 -0.27922087496E+02  0.97964174780E+02  0.80719150586E+03  0.83178347521E+03  0.17300000000E+03 0.  1.
         -6    1    1    2    0  503  0.27922087496E+02 -0.97964174780E+02 -0.45603296396E+02  0.20587686405E+03  0.17300000000E+03 0.  1.
<mgrwt>
<rscale>  2 0.20076260E+03</rscale>
<asrwt>0</asrwt>
<pdfrwt beam="1">  1       21 0.13840373E+00 0.20076260E+03</pdfrwt>
<pdfrwt beam="2">  1       21 0.21236318E-01 0.20076260E+03</pdfrwt>
<totfact> 0.75560339E+03</totfact>
</mgrwt>
</event>
<event>
 4    1  0.4382184E+000  0.1744526E+03  0.7546771E-02  0.1173282E+00
         21   -1    0    0  501  502  0.00000000000E+00  0.00000000000E+00  0.19290506002E+03  0.19290506002E+03  0.00000000000E+00 0.  1.
         21   -1    0    0  502  503 -0.00000000000E+00 -0.00000000000E+00 -0.62821507253E+03  0.62821507253E+03  0.00000000000E+00 0.  1.
          6    1    1    2  501    0 -0.11819796759E+02  0.19104747743E+02  0.13763191585E+03  0.22220765793E+03  0.17300000000E+03 0.  1.
         -6    1    1    2    0  503  0.11819796759E+02 -0.19104747743E+02 -0.57294192836E+03  0.59891247462E+03  0.17300000000E+03 0.  1.
<mgrwt>
<rscale>  2 0.17445257E+03</rscale>
<asrwt>0</asrwt>
<pdfrwt beam="1">  1       21 0.29677701E-01 0.17445257E+03</pdfrwt>
<pdfrwt beam="2">  1       21 0.96648474E-01 0.17445257E+03</pdfrwt>
<totfact> 0.98104577E+03</totfact>
</mgrwt>
</event>
<event>
 4    1  0.4382184E+000  0.1753493E+03  0.7546771E-02  0.1172381E+00
         21   -1    0    0  503  502  0.00000000000E+00  0.00000000000E+00  0.43849133944E+03  0.43849133944E+03  0.00000000000E+00 0.  1.
         21   -1    0    0  501  503 -0.00000000000E+00 -0.00000000000E+00 -0.78238557167E+02  0.78238557167E+02  0.00000000000E+00 0.  1.
          6    1    1    2  501    0  0.85112608776E+01  0.27311610657E+02  0.96903830237E+02  0.20034399904E+03  0.17300000000E+03 0.  1.
         -6    1    1    2    0  502 -0.85112608776E+01 -0.27311610657E+02  0.26334895204E+03  0.31638589757E+03  0.17300000000E+03 0.  1.
<mgrwt>
<rscale>  2 0.17534927E+03</rscale>
<asrwt>0</asrwt>
<pdfrwt beam="1">  1       21 0.67460205E-01 0.17534927E+03</pdfrwt>
<pdfrwt beam="2">  1       21 0.12036701E-01 0.17534927E+03</pdfrwt>
<totfact> 0.11803940E+05</totfact>
</mgrwt>
</event>
<event>
 4    1  0.4382184E+000  0.1775800E+03  0.7546771E-02  0.1170166E+00
         21   -1    0    0  501  502  0.00000000000E+00  0.00000000000E+00  0.11678186165E+03  0.11678186165E+03  0.00000000000E+00 0.  1.
         21   -1    0    0  502  503 -0.00000000000E+00 -0.00000000000E+00 -0.27103430081E+03  0.27103430081E+03  0.00000000000E+00 0.  1.
          6    1    1    2  501    0  0.21709943849E+01 -0.40011827543E+02 -0.65325277249E+02  0.18921430022E+03  0.17300000000E+03 0.  1.
         -6    1    1    2    0  503 -0.21709943849E+01  0.40011827543E+02 -0.88927161905E+02  0.19860186224E+03  0.17300000000E+03 0.  1.
<mgrwt>
<rscale>  2 0.17758001E+03</rscale>
<asrwt>0</asrwt>
<pdfrwt beam="1">  1       21 0.17966441E-01 0.17758001E+03</pdfrwt>
<pdfrwt beam="2">  1       21 0.41697584E-01 0.17758001E+03</pdfrwt>
<totfact> 0.15674185E+05</totfact>
</mgrwt>
</event>
<event>
 4    1  0.4382184E+000  0.1744522E+03  0.7546771E-02  0.1173283E+00
         21   -1    0    0  501  502  0.00000000000E+00  0.00000000000E+00  0.32819759190E+03  0.32819759190E+03  0.00000000000E+00 0. -1.
         21   -1    0    0  502  503 -0.00000000000E+00 -0.00000000000E+00 -0.15173838599E+03  0.15173838599E+03  0.00000000000E+00 0. -1.
          6    1    1    2  501    0  0.22462387242E+02 -0.14909677300E+00  0.23787538707E+03  0.29498861138E+03  0.17300000000E+03 0. -1.
         -6    1    1    2    0  503 -0.22462387242E+02  0.14909677300E+00 -0.61416181156E+02  0.18494736651E+03  0.17300000000E+03 0. -1.
<mgrwt>
<rscale>  2 0.17445223E+03</rscale>
<asrwt>0</asrwt>
<pdfrwt beam="1">  1       21 0.50491937E-01 0.17445223E+03</pdfrwt>
<pdfrwt beam="2">  1       21 0.23344367E-01 0.17445223E+03</pdfrwt>
<totfact> 0.64941795E+04</totfact>
</mgrwt>
</event>
<event>
 4    1  0.4382184E+000  0.1812592E+03  0.7546771E-02  0.1166590E+00
         21   -1    0    0  503  502  0.00000000000E+00  0.00000000000E+00  0.11463472236E+03  0.11463472236E+03  0.00000000000E+00 0.  1.
         21   -1    0    0  501  503 -0.00000000000E+00 -0.00000000000E+00 -0.30854409077E+03  0.30854409077E+03  0.00000000000E+00 0.  1.
          6    1    1    2  501    0  0.20728020540E+02 -0.49962382767E+02 -0.40533252188E+02  0.18573592830E+03  0.17300000000E+03 0.  1.
         -6    1    1    2    0  502 -0.20728020540E+02  0.49962382767E+02 -0.15337611622E+03  0.23744288483E+03  0.17300000000E+03 0.  1.
<mgrwt>
<rscale>  2 0.18125918E+03</rscale>
<asrwt>0</asrwt>
<pdfrwt beam="1">  1       21 0.17636111E-01 0.18125918E+03</pdfrwt>
<pdfrwt beam="2">  1       21 0.47468322E-01 0.18125918E+03</pdfrwt>
<totfact> 0.12424760E+05</totfact>
</mgrwt>
</event>
<event>
 4    1  0.4382184E+000  0.1862128E+03  0.7546771E-02  0.1161922E+00
         21   -1    0    0  501  502  0.00000000000E+00  0.00000000000E+00  0.77057214064E+02  0.77057214064E+02  0.00000000000E+00 0. -1.
         21   -1    0    0  502  503 -0.00000000000E+00 -0.00000000000E+00 -0.47564756115E+03  0.47564756115E+03  0.00000000000E+00 0.  1.
          6    1    1    2  501    0 -0.67685887161E+02 -0.12838404892E+02 -0.13511465747E+03  0.23006776094E+03  0.17300000000E+03 0.  1.
         -6    1    1    2    0  503  0.67685887161E+02  0.12838404892E+02 -0.26347568962E+03  0.32263701428E+03  0.17300000000E+03 0. -1.
<mgrwt>
<rscale>  2 0.18621279E+03</rscale>
<asrwt>0</asrwt>
<pdfrwt beam="1">  1       21 0.11854956E-01 0.18621279E+03</pdfrwt>
<pdfrwt beam="2">  1       21 0.73176549E-01 0.18621279E+03</pdfrwt>
<totfact> 0.10097633E+05</totfact>
</mgrwt>
</event>
<event>
 4    1  0.4382184E+000  0.1980261E+03  0.7546771E-02  0.1151415E+00
         21   -1    0    0  501  502  0.00000000000E+00  0.00000000000E+00  0.23798363640E+03  0.23798363640E+03  0.00000000000E+00 0.  1.
         21   -1    0    0  502  503 -0.00000000000E+00 -0.00000000000E+00 -0.19410356016E+03  0.19410356016E+03  0.00000000000E+00 0. -1.
          6    1    1    2  501    0 -0.55048215891E+02  0.79088764885E+02  0.10591538728E+03  0.22457161011E+03  0.17300000000E+03 0. -1.
         -6    1    1    2    0  503  0.55048215891E+02 -0.79088764885E+02 -0.62035311034E+02  0.20751558645E+03  0.17300000000E+03 0.  1.
<mgrwt>
<rscale>  2 0.19802611E+03</rscale>
<asrwt>0</asrwt>
<pdfrwt beam="1">  1       21 0.36612867E-01 0.19802611E+03</pdfrwt>
<pdfrwt beam="2">  1       21 0.29862086E-01 0.19802611E+03</pdfrwt>
<totfact> 0.77177601E+04</totfact>
</mgrwt>
</event>
<event>
 4    1  0.4382184E+000  0.2786391E+03  0.7546771E-02  0.1096435E+00
         21   -1    0    0  501  502  0.00000000000E+00  0.00000000000E+00  0.17264838432E+03  0.17264838432E+03  0.00000000000E+00 0. -1.
         21   -1    0    0  502  503 -0.00000000000E+00 -0.00000000000E+00 -0.60940966062E+03  0.60940966062E+03  0.00000000000E+00 0. -1.
          6    1    1    2  501    0 -0.16301226832E+03  0.14538827321E+03 -0.18200160866E+02  0.27923286960E+03  0.17300000000E+03 0. -1.
         -6    1    1    2    0  503  0.16301226832E+03 -0.14538827321E+03 -0.41856111544E+03  0.50282517535E+03  0.17300000000E+03 0. -1.
<mgrwt>
<rscale>  2 0.27863910E+03</rscale>
<asrwt>0</asrwt>
<pdfrwt beam="1">  1       21 0.26561290E-01 0.27863910E+03</pdfrwt>
<pdfrwt beam="2">  1       21 0.93755332E-01 0.27863910E+03</pdfrwt>
<totfact> 0.12261537E+04</totfact>
</mgrwt>
</event>
<event>
 4    1  0.4382184E+000  0.2475568E+03  0.7546771E-02  0.1114859E+00
         21   -1    0    0  503  502  0.00000000000E+00  0.00000000000E+00  0.43383942235E+02  0.43383942235E+02  0.00000000000E+00 0. -1.
         21   -1    0    0  501  503 -0.00000000000E+00 -0.00000000000E+00 -0.15421758965E+04  0.15421758965E+04  0.00000000000E+00 0.  1.
          6    1    1    2  501    0 -0.40634590204E+02 -0.17234899531E+03 -0.97919092926E+03  0.10099996149E+04  0.17300000000E+03 0.  1.
         -6    1    1    2    0  502  0.40634590204E+02  0.17234899531E+03 -0.51960102503E+03  0.57556022388E+03  0.17300000000E+03 0. -1.
<mgrwt>
<rscale>  2 0.24755675E+03</rscale>
<asrwt>0</asrwt>
<pdfrwt beam="1">  1       21 0.66744531E-02 0.24755675E+03</pdfrwt>
<pdfrwt beam="2">  1       21 0.23725781E+00 0.24755675E+03</pdfrwt>
<totfact> 0.12426927E+04</totfact>
</mgrwt>
</event>
<event>
 4    1  0.4382184E+000  0.2767476E+03  0.7546771E-02  0.1097479E+00
         21   -1    0    0  503  502  0.00000000000E+00  0.00000000000E+00  0.47842251570E+02  0.47842251570E+02  0.00000000000E+00 0.  1.
         21   -1    0    0  501  503 -0.00000000000E+00 -0.00000000000E+00 -0.16363164717E+04  0.16363164717E+04  0.00000000000E+00 0.  1.
          6    1    1    2  501    0  0.13414102275E+03 -0.16931166021E+03 -0.91817452183E+03  0.95897534108E+03  0.17300000000E+03 0.  1.
         -6    1    1    2    0  502 -0.13414102275E+03  0.16931166021E+03 -0.67029969833E+03  0.72518338222E+03  0.17300000000E+03 0.  1.
<mgrwt>
<rscale>  2 0.27674763E+03</rscale>
<asrwt>0</asrwt>
<pdfrwt beam="1">  1       21 0.73603470E-02 0.27674763E+03</pdfrwt>
<pdfrwt beam="2">  1       21 0.25174097E+00 0.27674763E+03</pdfrwt>
<totfact> 0.84031490E+03</totfact>
</mgrwt>
</event>
<event>
 4    1  0.4382184E+000  0.1796896E+03  0.7546771E-02  0.1168104E+00
         21   -1    0    0  503  502  0.00000000000E+00  0.00000000000E+00  0.81778662972E+02  0.81778662972E+02  0.00000000000E+00 0. -1.
         21   -1    0    0  501  503 -0.00000000000E+00 -0.00000000000E+00 -0.47536162232E+03  0.47536162232E+03  0.00000000000E+00 0. -1.
          6    1    1    2  501    0 -0.41259250550E+02  0.25632192768E+02 -0.31145275270E+03  0.35957078889E+03  0.17300000000E+03 0. -1.
         -6    1    1    2    0  502  0.41259250550E+02 -0.25632192768E+02 -0.82130206647E+02  0.19756949640E+03  0.17300000000E+03 0. -1.
<mgrwt>
<rscale>  2 0.17968955E+03</rscale>
<asrwt>0</asrwt>
<pdfrwt beam="1">  1       21 0.12581333E-01 0.17968955E+03</pdfrwt>
<pdfrwt beam="2">  1       21 0.73132556E-01 0.17968955E+03</pdfrwt>
<totfact> 0.91141525E+04</totfact>
</mgrwt>
</event>
<event>
 4    1  0.4382184E+000  0.2089821E+03  0.7546771E-02  0.1142375E+00
         21   -1    0    0  501  502  0.00000000000E+00  0.00000000000E+00  0.35871183185E+03  0.35871183185E+03  0.00000000000E+00 0. -1.
         21   -1    0    0  502  503 -0.00000000000E+00 -0.00000000000E+00 -0.32174480140E+03  0.32174480140E+03  0.00000000000E+00 0. -1.
          6    1    1    2  501    0  0.88799875716E+02  0.76544721622E+02  0.28672317578E+03  0.35480091864E+03  0.17300000000E+03 0. -1.
         -6    1    1    2    0  503 -0.88799875716E+02 -0.76544721622E+02 -0.24975614533E+03  0.32565571462E+03  0.17300000000E+03 0. -1.
<mgrwt>
<rscale>  2 0.20898209E+03</rscale>
<asrwt>0</asrwt>
<pdfrwt beam="1">  1       21 0.55186435E-01 0.20898209E+03</pdfrwt>
<pdfrwt beam="2">  1       21 0.49499200E-01 0.20898209E+03</pdfrwt>
<totfact> 0.11921617E+04</totfact>
</mgrwt>
</event>
<event>
 4    1  0.4382184E+000  0.2167504E+03  0.7546771E-02  0.1136329E+00
         21   -1    0    0  501  502  0.00000000000E+00  0.00000000000E+00  0.12824307781E+04  0.12824307781E+04  0.00000000000E+00 0. -1.
         21   -1    0    0  502  503 -0.00000000000E+00 -0.00000000000E+00 -0.43247107847E+02  0.43247107847E+02  0.00000000000E+00 0.  1.
          6    1    1    2  501    0 -0.88323336348E+02  0.96180777017E+02  0.87878739665E+03  0.90512321930E+03  0.17300000000E+03 0. -1.
         -6    1    1    2    0  503  0.88323336348E+02 -0.96180777017E+02  0.36039627363E+03  0.42055466667E+03  0.17300000000E+03 0.  1.
<mgrwt>
<rscale>  2 0.21675044E+03</rscale>
<asrwt>0</asrwt>
<pdfrwt beam="1">  1       21 0.19729701E+00 0.21675044E+03</pdfrwt>
<pdfrwt beam="2">  1       21 0.66534022E-02 0.21675044E+03</pdfrwt>
<totfact> 0.22680051E+04</totfact>
</mgrwt>
</event>
<event>
 4    1  0.4382184E+000  0.1920655E+03  0.7546771E-02  0.1156611E+00
         21   -1    0    0  503  502  0.00000000000E+00  0.00000000000E+00  0.85434482340E+03  0.85434482340E+03  0.00000000000E+00 0. -1.
         21   -1    0    0  501  503 -0.00000000000E+00 -0.00000000000E+00 -0.46439914372E+02  0.46439914372E+02  0.00000000000E+00 0. -1.
          6    1    1    2  501    0 -0.80057419429E+02  0.23472797420E+02  0.28459179961E+03  0.34333897977E+03  0.17300000000E+03 0. -1.
         -6    1    1    2    0  502  0.80057419429E+02 -0.23472797420E+02  0.52331310941E+03  0.55744575800E+03  0.17300000000E+03 0. -1.
<mgrwt>
<rscale>  2 0.19206552E+03</rscale>
<asrwt>0</asrwt>
<pdfrwt beam="1">  1       21 0.13143765E+00 0.19206552E+03</pdfrwt>
<pdfrwt beam="2">  1       21 0.71446028E-02 0.19206552E+03</pdfrwt>
<totfact> 0.61406259E+04</totfact>
</mgrwt>
</event>
<event>
 4    1  0.4382184E+000  0.1859802E+03  0.7546771E-02  0.1162138E+00
         21   -1    0    0  501  502  0.00000000000E+00  0.00000000000E+00  0.21212280980E+03  0.21212280980E+03  0.00000000000E+00 0.  1.
         21   -1    0    0  502  503 -0.00000000000E+00 -0.00000000000E+00 -0.19681386045E+03  0.19681386045E+03  0.00000000000E+00 0.  1.
          6    1    1    2  501    0 -0.36249746360E+02  0.57841196787E+02  0.92330973798E+02  0.20763828375E+03  0.17300000000E+03 0. -1.
         -6    1    1    2    0  503  0.36249746360E+02 -0.57841196787E+02 -0.77022024447E+02  0.20129838650E+03  0.17300000000E+03 0. -1.
<mgrwt>
<rscale>  2 0.18598024E+03</rscale>
<asrwt>0</asrwt>
<pdfrwt beam="1">  1       21 0.32634278E-01 0.18598024E+03</pdfrwt>
<pdfrwt beam="2">  1       21 0.30279055E-01 0.18598024E+03</pdfrwt>
<totfact> 0.94815392E+04</totfact>
</mgrwt>
</event>
<event>
 4    1  0.4382184E+000  0.2741644E+03  0.7546771E-02  0.1098920E+00
         21   -1    0    0  503  502  0.00000000000E+00  0.00000000000E+00  0.40382201373E+03  0.40382201373E+03  0.00000000000E+00 0. -1.
         21   -1    0    0  501  503 -0.00000000000E+00 -0.00000000000E+00 -0.28217104282E+03  0.28217104282E+03  0.00000000000E+00 0. -1.
          6    1    1    2  501    0  0.20959703279E+03  0.36141614955E+02 -0.13927428409E+03  0.30751172123E+03  0.17300000000E+03 0. -1.
         -6    1    1    2    0  502 -0.20959703279E+03 -0.36141614955E+02  0.26092525501E+03  0.37848133532E+03  0.17300000000E+03 0. -1.
<mgrwt>
<rscale>  2 0.27416443E+03</rscale>
<asrwt>0</asrwt>
<pdfrwt beam="1">  1       21 0.62126464E-01 0.27416443E+03</pdfrwt>
<pdfrwt beam="2">  1       21 0.43410930E-01 0.27416443E+03</pdfrwt>
<totfact> 0.11699989E+04</totfact>
</mgrwt>
</event>
<event>
 4    1  0.4382184E+000  0.1842601E+03  0.7546771E-02  0.1163743E+00
         21   -1    0    0  501  502  0.00000000000E+00  0.00000000000E+00  0.69157827738E+03  0.69157827738E+03  0.00000000000E+00 0.  1.
         21   -1    0    0  502  503 -0.00000000000E+00 -0.00000000000E+00 -0.93747278751E+02  0.93747278751E+02  0.00000000000E+00 0.  1.
          6    1    1    2  501    0  0.63140538410E+02 -0.60048791122E+01  0.56991656494E+03  0.59896300149E+03  0.17300000000E+03 0.  1.
         -6    1    1    2    0  503 -0.63140538410E+02  0.60048791122E+01  0.27914433690E+02  0.18636255464E+03  0.17300000000E+03 0.  1.
<mgrwt>
<rscale>  2 0.18426010E+03</rscale>
<asrwt>0</asrwt>
<pdfrwt beam="1">  1       21 0.10639666E+00 0.18426010E+03</pdfrwt>
<pdfrwt beam="2">  1       21 0.14422659E-01 0.18426010E+03</pdfrwt>
<totfact> 0.29960726E+04</totfact>
</mgrwt>
</event>
<event>
 4    1  0.4382184E+000  0.3054758E+03  0.7546771E-02  0.1082535E+00
         21   -1    0    0  501  502  0.00000000000E+00  0.00000000000E+00  0.12643677988E+04  0.12643677988E+04  0.00000000000E+00 0. -1.
         21   -1    0    0  502  503 -0.00000000000E+00 -0.00000000000E+00 -0.73988854788E+02  0.73988854788E+02  0.00000000000E+00 0.  1.
          6    1    1    2  501    0 -0.16069006545E+03  0.19381727954E+03  0.56174360063E+03  0.63943045582E+03  0.17300000000E+03 0. -1.
         -6    1    1    2    0  503  0.16069006545E+03 -0.19381727954E+03  0.62863534341E+03  0.69892619780E+03  0.17300000000E+03 0.  1.
<mgrwt>
<rscale>  2 0.30547575E+03</rscale>
<asrwt>0</asrwt>
<pdfrwt beam="1">  1       21 0.19451811E+00 0.30547575E+03</pdfrwt>
<pdfrwt beam="2">  1       21 0.11382902E-01 0.30547575E+03</pdfrwt>
<totfact> 0.87006408E+03</totfact>
</mgrwt>
</event>
<event>
 4    1  0.4382184E+000  0.1753712E+03  0.7546771E-02  0.1172359E+00
         21   -1    0    0  501  502  0.00000000000E+00  0.00000000000E+00  0.55943525337E+03  0.55943525337E+03  0.00000000000E+00 0.  1.
         21   -1    0    0  502  503 -0.00000000000E+00 -0.00000000000E+00 -0.55366618986E+02  0.55366618986E+02  0.00000000000E+00 0.  1.
          6    1    1    2  501    0 -0.26749315959E+02  0.10514238129E+02  0.27788024017E+03  0.32859169646E+03  0.17300000000E+03 0.  1.
         -6    1    1    2    0  503  0.26749315959E+02 -0.10514238129E+02  0.22618839422E+03  0.28621017590E+03  0.17300000000E+03 0.  1.
<mgrwt>
<rscale>  2 0.17537125E+03</rscale>
<asrwt>0</asrwt>
<pdfrwt beam="1">  1       21 0.86066958E-01 0.17537125E+03</pdfrwt>
<pdfrwt beam="2">  1       21 0.85179417E-02 0.17537125E+03</pdfrwt>
<totfact> 0.12606876E+05</totfact>
</mgrwt>
</event>
<event>
 4    1  0.4382184E+000  0.1781053E+03  0.7546771E-02  0.1169649E+00
         21   -1    0    0  501  502  0.00000000000E+00  0.00000000000E+00  0.44237691023E+03  0.44237691023E+03  0.00000000000E+00 0. -1.
         21   -1    0    0  502  503 -0.00000000000E+00 -0.00000000000E+00 -0.21248346777E+03  0.21248346777E+03  0.00000000000E+00 0. -1.
          6    1    1    2  501    0 -0.14469082110E+02 -0.39788750062E+02  0.38146147467E+03  0.42099210875E+03  0.17300000000E+03 0. -1.
         -6    1    1    2    0  503  0.14469082110E+02  0.39788750062E+02 -0.15156803222E+03  0.23386826924E+03  0.17300000000E+03 0. -1.
<mgrwt>
<rscale>  2 0.17810530E+03</rscale>
<asrwt>0</asrwt>
<pdfrwt beam="1">  1       21 0.68057986E-01 0.17810530E+03</pdfrwt>
<pdfrwt beam="2">  1       21 0.32689764E-01 0.17810530E+03</pdfrwt>
<totfact> 0.17914004E+04</totfact>
</mgrwt>
</event>
<event>
 4    1  0.4382184E+000  0.1983225E+03  0.7546771E-02  0.1151162E+00
         21   -1    0    0  503  502  0.00000000000E+00  0.00000000000E+00  0.56567516619E+03  0.56567516619E+03  0.00000000000E+00 0. -1.
         21   -1    0    0  501  503 -0.00000000000E+00 -0.00000000000E+00 -0.70165332444E+02  0.70165332444E+02  0.00000000000E+00 0. -1.
          6    1    1    2  501    0  0.89177805450E+02 -0.38080688719E+02  0.21752060065E+03  0.29435867839E+03  0.17300000000E+03 0. -1.
         -6    1    1    2    0  502 -0.89177805450E+02  0.38080688719E+02  0.27798923310E+03  0.34148182024E+03  0.17300000000E+03 0. -1.
<mgrwt>
<rscale>  2 0.19832251E+03</rscale>
<asrwt>0</asrwt>
<pdfrwt beam="1">  1       21 0.87026946E-01 0.19832251E+03</pdfrwt>
<pdfrwt beam="2">  1       21 0.10794667E-01 0.19832251E+03</pdfrwt>
<totfact> 0.80245565E+04</totfact>
</mgrwt>
</event>
<event>
 4    1  0.4382184E+000  0.2551153E+03  0.7546771E-02  0.1110114E+00
         21   -1    0    0  503  502  0.00000000000E+00  0.00000000000E+00  0.80607875130E+03  0.80607875130E+03  0.00000000000E+00 0.  1.
         21   -1    0    0  501  503 -0.00000000000E+00 -0.00000000000E+00 -0.95070063730E+02  0.95070063730E+02  0.00000000000E+00 0. -1.
          6    1    1    2  501    0  0.17810180976E+03 -0.58604937464E+02  0.18058010850E+03  0.31255874476E+03  0.17300000000E+03 0.  1.
         -6    1    1    2    0  502 -0.17810180976E+03  0.58604937464E+02  0.53042857906E+03  0.58859007027E+03  0.17300000000E+03 0.  1.
<mgrwt>
<rscale>  2 0.25511526E+03</rscale>
<asrwt>0</asrwt>
<pdfrwt beam="1">  1       21 0.12401211E+00 0.25511526E+03</pdfrwt>
<pdfrwt beam="2">  1       21 0.14626164E-01 0.25511526E+03</pdfrwt>
<totfact> 0.19273240E+04</totfact>
</mgrwt>
</event>
<event>
 4    1  0.4382184E+000  0.1876954E+03  0.7546771E-02  0.1160556E+00
         21   -1    0    0  501  502  0.00000000000E+00  0.00000000000E+00  0.10047591412E+04  0.10047591412E+04  0.00000000000E+00 0.  1.
         21   -1    0    0  502  503 -0.00000000000E+00 -0.00000000000E+00 -0.36186159988E+02  0.36186159988E+02  0.00000000000E+00 0.  1.
          6    1    1    2  501    0 -0.35033712680E+02 -0.63821653604E+02  0.57599427670E+03  0.60580440018E+03  0.17300000000E+03 0.  1.
         -6    1    1    2    0  503  0.35033712680E+02  0.63821653604E+02  0.39257870455E+03  0.43514090105E+03  0.17300000000E+03 0.  1.
<mgrwt>
<rscale>  2 0.18769540E+03</rscale>
<asrwt>0</asrwt>
<pdfrwt beam="1">  1       21 0.15457831E+00 0.18769540E+03</pdfrwt>
<pdfrwt beam="2">  1       21 0.55671023E-02 0.18769540E+03</pdfrwt>
<totfact> 0.62027851E+04</totfact>
</mgrwt>
</event>
<event>
 4    1  0.4382184E+000  0.1781356E+03  0.7546771E-02  0.1169620E+00
         21   -1    0    0  501  502  0.00000000000E+00  0.00000000000E+00  0.28176811507E+02  0.28176811507E+02  0.00000000000E+00 0.  1.
         21   -1    0    0  502  503 -0.00000000000E+00 -0.00000000000E+00 -0.13389557131E+04  0.13389557131E+04  0.00000000000E+00 0.  1.
          6    1    1    2  501    0 -0.23459848122E+02  0.35396846198E+02 -0.38289762169E+03  0.42230663017E+03  0.17300000000E+03 0.  1.
         -6    1    1    2    0  503  0.23459848122E+02 -0.35396846198E+02 -0.92788127992E+03  0.94482589445E+03  0.17300000000E+03 0.  1.
<mgrwt>
<rscale>  2 0.17813563E+03</rscale>
<asrwt>0</asrwt>
<pdfrwt beam="1">  1       21 0.43348934E-02 0.17813563E+03</pdfrwt>
<pdfrwt beam="2">  1       21 0.20599322E+00 0.17813563E+03</pdfrwt>
<totfact> 0.42526485E+04</totfact>
</mgrwt>
</event>
<event>
 4    1  0.4382184E+000  0.1903779E+03  0.7546771E-02  0.1158121E+00
         21   -1    0    0  503  502  0.00000000000E+00  0.00000000000E+00  0.32681463461E+03  0.32681463461E+03  0.00000000000E+00 0. -1.
         21   -1    0    0  501  503 -0.00000000000E+00 -0.00000000000E+00 -0.15199798680E+03  0.15199798680E+03  0.00000000000E+00 0. -1.
          6    1    1    2  501    0  0.50837806461E+02 -0.61075938909E+02 -0.37079475630E+02  0.19395525358E+03  0.17300000000E+03 0. -1.
         -6    1    1    2    0  502 -0.50837806461E+02  0.61075938909E+02  0.21189612344E+03  0.28485736783E+03  0.17300000000E+03 0. -1.
<mgrwt>
<rscale>  2 0.19037792E+03</rscale>
<asrwt>0</asrwt>
<pdfrwt beam="1">  1       21 0.50279174E-01 0.19037792E+03</pdfrwt>
<pdfrwt beam="2">  1       21 0.23384306E-01 0.19037792E+03</pdfrwt>
<totfact> 0.64848057E+04</totfact>
</mgrwt>
</event>
<event>
 4    1  0.4382184E+000  0.2144365E+03  0.7546771E-02  0.1138100E+00
         21   -1    0    0  501  502  0.00000000000E+00  0.00000000000E+00  0.30150292519E+03  0.30150292519E+03  0.00000000000E+00 0. -1.
         21   -1    0    0  502  503 -0.00000000000E+00 -0.00000000000E+00 -0.15273454247E+03  0.15273454247E+03  0.00000000000E+00 0. -1.
          6    1    1    2  501    0  0.17457269759E+02  0.12549596832E+03  0.83041976139E+02  0.22995426531E+03  0.17300000000E+03 0. -1.
         -6    1    1    2    0  503 -0.17457269759E+02 -0.12549596832E+03  0.65726406582E+02  0.22428320235E+03  0.17300000000E+03 0. -1.
<mgrwt>
<rscale>  2 0.21443646E+03</rscale>
<asrwt>0</asrwt>
<pdfrwt beam="1">  1       21 0.46385065E-01 0.21443646E+03</pdfrwt>
<pdfrwt beam="2">  1       21 0.23497622E-01 0.21443646E+03</pdfrwt>
<totfact> 0.75166210E+04</totfact>
</mgrwt>
</event>
<event>
 4    1  0.4382184E+000  0.1913077E+03  0.7546771E-02  0.1157287E+00
         21   -1    0    0  503  502  0.00000000000E+00  0.00000000000E+00  0.24013852815E+03  0.24013852815E+03  0.00000000000E+00 0. -1.
         21   -1    0    0  501  503 -0.00000000000E+00 -0.00000000000E+00 -0.15438092078E+03  0.15438092078E+03  0.00000000000E+00 0.  1.
          6    1    1    2  501    0  0.84554123855E+01  0.81228979155E+02  0.20570019155E+02  0.19241041225E+03  0.17300000000E+03 0.  1.
         -6    1    1    2    0  502 -0.84554123855E+01 -0.81228979155E+02  0.65187588212E+02  0.20210903669E+03  0.17300000000E+03 0.  1.
<mgrwt>
<rscale>  2 0.19130771E+03</rscale>
<asrwt>0</asrwt>
<pdfrwt beam="1">  1       21 0.36944389E-01 0.19130771E+03</pdfrwt>
<pdfrwt beam="2">  1       21 0.23750911E-01 0.19130771E+03</pdfrwt>
<totfact> 0.11806169E+05</totfact>
</mgrwt>
</event>
<event>
 4    1  0.4382184E+000  0.1944603E+03  0.7546771E-02  0.1154499E+00
         21   -1    0    0  501  502  0.00000000000E+00  0.00000000000E+00  0.35348996403E+03  0.35348996403E+03  0.00000000000E+00 0. -1.
         21   -1    0    0  502  503 -0.00000000000E+00 -0.00000000000E+00 -0.10932570086E+03  0.10932570086E+03  0.00000000000E+00 0.  1.
          6    1    1    2  501    0  0.87619568204E+02 -0.14444040370E+02  0.15600991248E+03  0.24930686278E+03  0.17300000000E+03 0.  1.
         -6    1    1    2    0  503 -0.87619568204E+02  0.14444040370E+02  0.88154350690E+02  0.21350880211E+03  0.17300000000E+03 0.  1.
<mgrwt>
<rscale>  2 0.19446033E+03</rscale>
<asrwt>0</asrwt>
<pdfrwt beam="1">  1       21 0.54383071E-01 0.19446033E+03</pdfrwt>
<pdfrwt beam="2">  1       21 0.16819339E-01 0.19446033E+03</pdfrwt>
<totfact> 0.10156595E+05</totfact>
</mgrwt>
</event>
<event>
 4    1  0.4382184E+000  0.2278445E+03  0.7546771E-02  0.1128166E+00
         21   -1    0    0  501  502  0.00000000000E+00  0.00000000000E+00  0.13643308231E+03  0.13643308231E+03  0.00000000000E+00 0. -1.
         21   -1    0    0  502  503 -0.00000000000E+00 -0.00000000000E+00 -0.38732335803E+03  0.38732335803E+03  0.00000000000E+00 0. -1.
          6    1    1    2  501    0  0.13061338355E+03  0.70172931921E+02 -0.90692350766E+02  0.24523090920E+03  0.17300000000E+03 0. -1.
         -6    1    1    2    0  503 -0.13061338355E+03 -0.70172931921E+02 -0.16019792495E+03  0.27852553114E+03  0.17300000000E+03 0. -1.
<mgrwt>
<rscale>  2 0.22784446E+03</rscale>
<asrwt>0</asrwt>
<pdfrwt beam="1">  1       21 0.20989705E-01 0.22784446E+03</pdfrwt>
<pdfrwt beam="2">  1       21 0.59588208E-01 0.22784446E+03</pdfrwt>
<totfact> 0.54566219E+04</totfact>
</mgrwt>
</event>
<event>
 4    1  0.4382184E+000  0.1902707E+03  0.7546771E-02  0.1158217E+00
         21   -1    0    0  501  502  0.00000000000E+00  0.00000000000E+00  0.37487763619E+03  0.37487763619E+03  0.00000000000E+00 0.  1.
         21   -1    0    0  502  503 -0.00000000000E+00 -0.00000000000E+00 -0.98920963532E+02  0.98920963532E+02  0.00000000000E+00 0.  1.
          6    1    1    2  501    0 -0.71417264592E+02  0.34256590208E+02  0.17447847093E+03  0.25815823921E+03  0.17300000000E+03 0.  1.
         -6    1    1    2    0  503  0.71417264592E+02 -0.34256590208E+02  0.10147820172E+03  0.21564036051E+03  0.17300000000E+03 0.  1.
<mgrwt>
<rscale>  2 0.19027070E+03</rscale>
<asrwt>0</asrwt>
<pdfrwt beam="1">  1       21 0.57673482E-01 0.19027070E+03</pdfrwt>
<pdfrwt beam="2">  1       21 0.15218610E-01 0.19027070E+03</pdfrwt>
<totfact> 0.10784695E+05</totfact>
</mgrwt>
</event>
<event>
 4    1  0.4382184E+000  0.2016261E+03  0.7546771E-02  0.1148374E+00
         21   -1    0    0  501  502  0.00000000000E+00  0.00000000000E+00  0.14894784363E+03  0.14894784363E+03  0.00000000000E+00 0. -1.
         21   -1    0    0  502  503 -0.00000000000E+00 -0.00000000000E+00 -0.28030257460E+03  0.28030257460E+03  0.00000000000E+00 0. -1.
          6    1    1    2  501    0  0.10266005483E+03  0.13601645087E+02 -0.30881543260E+02  0.20397735492E+03  0.17300000000E+03 0.  1.
         -6    1    1    2    0  503 -0.10266005483E+03 -0.13601645087E+02 -0.10047318771E+03  0.22527306331E+03  0.17300000000E+03 0.  1.
<mgrwt>
<rscale>  2 0.20162612E+03</rscale>
<asrwt>0</asrwt>
<pdfrwt beam="1">  1       21 0.22915053E-01 0.20162612E+03</pdfrwt>
<pdfrwt beam="2">  1       21 0.43123473E-01 0.20162612E+03</pdfrwt>
<totfact> 0.92070498E+04</totfact>
</mgrwt>
</event>
<event>
 4    1  0.4382184E+000  0.1764619E+03  0.7546771E-02  0.1171272E+00
         21   -1    0    0  501  502  0.00000000000E+00  0.00000000000E+00  0.40814009819E+03  0.40814009819E+03  0.00000000000E+00 0. -1.
         21   -1    0    0  502  503 -0.00000000000E+00 -0.00000000000E+00 -0.22975287237E+03  0.22975287237E+03  0.00000000000E+00 0. -1.
          6    1    1    2  501    0  0.26220172404E+02 -0.22854364718E+02  0.34985861642E+03  0.39184164009E+03  0.17300000000E+03 0. -1.
         -6    1    1    2    0  503 -0.26220172404E+02  0.22854364718E+02 -0.17147139060E+03  0.24605133046E+03  0.17300000000E+03 0. -1.
<mgrwt>
<rscale>  2 0.17646195E+03</rscale>
<asrwt>0</asrwt>
<pdfrwt beam="1">  1       21 0.62790784E-01 0.17646195E+03</pdfrwt>
<pdfrwt beam="2">  1       21 0.35346596E-01 0.17646195E+03</pdfrwt>
<totfact> 0.18311005E+04</totfact>
</mgrwt>
</event>
<event>
 4    1  0.4382184E+000  0.1963565E+03  0.7546771E-02  0.1152850E+00
         21   -1    0    0  503  502  0.00000000000E+00  0.00000000000E+00  0.36019184268E+02  0.36019184268E+02  0.00000000000E+00 0. -1.
         21   -1    0    0  501  503 -0.00000000000E+00 -0.00000000000E+00 -0.11555239957E+04  0.11555239957E+04  0.00000000000E+00 0. -1.
          6    1    1    2  501    0 -0.38170937443E+02 -0.84674975530E+02 -0.72143003340E+03  0.74767450474E+03  0.17300000000E+03 0. -1.
         -6    1    1    2    0  502  0.38170937443E+02  0.84674975530E+02 -0.39807477806E+03  0.44386867526E+03  0.17300000000E+03 0. -1.
<mgrwt>
<rscale>  2 0.19635649E+03</rscale>
<asrwt>0</asrwt>
<pdfrwt beam="1">  1       21 0.55414134E-02 0.19635649E+03</pdfrwt>
<pdfrwt beam="2">  1       21 0.17777291E+00 0.19635649E+03</pdfrwt>
<totfact> 0.42463057E+04</totfact>
</mgrwt>
</event>
<event>
 4    1  0.4382184E+000  0.1841977E+03  0.7546771E-02  0.1163801E+00
         21   -1    0    0  503  502  0.00000000000E+00  0.00000000000E+00  0.23705732313E+03  0.23705732313E+03  0.00000000000E+00 0. -1.
         21   -1    0    0  501  503 -0.00000000000E+00 -0.00000000000E+00 -0.32864656080E+03  0.32864656080E+03  0.00000000000E+00 0. -1.
          6    1    1    2  501    0  0.62937742717E+02 -0.62153868462E+01 -0.25831080114E+03  0.31725898014E+03  0.17300000000E+03 0. -1.
         -6    1    1    2    0  502 -0.62937742717E+02  0.62153868462E+01  0.16672156347E+03  0.24844490379E+03  0.17300000000E+03 0. -1.
<mgrwt>
<rscale>  2 0.18419769E+03</rscale>
<asrwt>0</asrwt>
<pdfrwt beam="1">  1       21 0.36470358E-01 0.18419769E+03</pdfrwt>
<pdfrwt beam="2">  1       21 0.50561009E-01 0.18419769E+03</pdfrwt>
<totfact> 0.27118154E+04</totfact>
</mgrwt>
</event>
<event>
 4    1  0.4382184E+000  0.1944511E+03  0.7546771E-02  0.1154507E+00
         21   -1    0    0  503  502  0.00000000000E+00  0.00000000000E+00  0.82463531382E+02  0.82463531382E+02  0.00000000000E+00 0.  1.
         21   -1    0    0  501  503 -0.00000000000E+00 -0.00000000000E+00 -0.12793514511E+04  0.12793514511E+04  0.00000000000E+00 0.  1.
          6    1    1    2  501    0  0.88765821472E+02 -0.16912862785E+01 -0.11438500752E+04  0.11602604130E+04  0.17300000000E+03 0.  1.
         -6    1    1    2    0  502 -0.88765821472E+02  0.16912862785E+01 -0.53037844501E+02  0.20155456944E+03  0.17300000000E+03 0.  1.
<mgrwt>
<rscale>  2 0.19445110E+03</rscale>
<asrwt>0</asrwt>
<pdfrwt beam="1">  1       21 0.12686698E-01 0.19445110E+03</pdfrwt>
<pdfrwt beam="2">  1       21 0.19682328E+00 0.19445110E+03</pdfrwt>
<totfact> 0.74638700E+03</totfact>
</mgrwt>
</event>
<event>
 4    1  0.4382184E+000  0.1856966E+03  0.7546771E-02  0.1162401E+00
         21   -1    0    0  501  502  0.00000000000E+00  0.00000000000E+00  0.19793223719E+03  0.19793223719E+03  0.00000000000E+00 0. -1.
         21   -1    0    0  502  503 -0.00000000000E+00 -0.00000000000E+00 -0.35965749516E+03  0.35965749516E+03  0.00000000000E+00 0. -1.
          6    1    1    2  501    0  0.67340107679E+02  0.44205372686E+01 -0.28105249345E+03  0.33685862810E+03  0.17300000000E+03 0. -1.
         -6    1    1    2    0  503 -0.67340107679E+02 -0.44205372686E+01  0.11932723549E+03  0.22073110425E+03  0.17300000000E+03 0. -1.
<mgrwt>
<rscale>  2 0.18569661E+03</rscale>
<asrwt>0</asrwt>
<pdfrwt beam="1">  1       21 0.30451113E-01 0.18569661E+03</pdfrwt>
<pdfrwt beam="2">  1       21 0.55331922E-01 0.18569661E+03</pdfrwt>
<totfact> 0.31993815E+04</totfact>
</mgrwt>
</event>
<event>
 4    1  0.4382184E+000  0.2854827E+03  0.7546771E-02  0.1092732E+00
         21   -1    0    0  501  502  0.00000000000E+00  0.00000000000E+00  0.36510559135E+03  0.36510559135E+03  0.00000000000E+00 0. -1.
         21   -1    0    0  502  503 -0.00000000000E+00 -0.00000000000E+00 -0.30371185895E+03  0.30371185895E+03  0.00000000000E+00 0.  1.
          6    1    1    2  501    0  0.17629870311E+03  0.14314380047E+03  0.20284865693E+03  0.35021130471E+03  0.17300000000E+03 0. -1.
         -6    1    1    2    0  503 -0.17629870311E+03 -0.14314380047E+03 -0.14145492452E+03  0.31860614559E+03  0.17300000000E+03 0.  1.
<mgrwt>
<rscale>  2 0.28548271E+03</rscale>
<asrwt>0</asrwt>
<pdfrwt beam="1">  1       21 0.56170091E-01 0.28548271E+03</pdfrwt>
<pdfrwt beam="2">  1       21 0.46724901E-01 0.28548271E+03</pdfrwt>
<totfact> 0.12424217E+04</totfact>
</mgrwt>
</event>
<event>
 4    1  0.4382184E+000  0.1764117E+03  0.7546771E-02  0.1171322E+00
         21   -1    0    0  501  502  0.00000000000E+00  0.00000000000E+00  0.46418977199E+02  0.46418977199E+02  0.00000000000E+00 0. -1.
         21   -1    0    0  502  503 -0.00000000000E+00 -0.00000000000E+00 -0.67808472480E+03  0.67808472480E+03  0.00000000000E+00 0. -1.
          6    1    1    2  501    0  0.17491731398E+02 -0.29768060441E+02 -0.35429866219E+03  0.39578863061E+03  0.17300000000E+03 0.  1.
         -6    1    1    2    0  503 -0.17491731398E+02  0.29768060441E+02 -0.27736708541E+03  0.32871507139E+03  0.17300000000E+03 0.  1.
<mgrwt>
<rscale>  2 0.17641173E+03</rscale>
<asrwt>0</asrwt>
<pdfrwt beam="1">  1       21 0.71413810E-02 0.17641173E+03</pdfrwt>
<pdfrwt beam="2">  1       21 0.10432073E+00 0.17641173E+03</pdfrwt>
<totfact> 0.10915857E+05</totfact>
</mgrwt>
</event>
<event>
 4    1  0.4382184E+000  0.1742673E+03  0.7546771E-02  0.1173469E+00
         21   -1    0    0  503  502  0.00000000000E+00  0.00000000000E+00  0.18816501383E+03  0.18816501383E+03  0.00000000000E+00 0. -1.
         21   -1    0    0  501  503 -0.00000000000E+00 -0.00000000000E+00 -0.24836980400E+03  0.24836980400E+03  0.00000000000E+00 0. -1.
          6    1    1    2  501    0  0.19966534890E+02  0.64358834776E+01 -0.15926407786E+03  0.23608076925E+03  0.17300000000E+03 0. -1.
         -6    1    1    2    0  502 -0.19966534890E+02 -0.64358834776E+01  0.99059287694E+02  0.20045404857E+03  0.17300000000E+03 0. -1.
<mgrwt>
<rscale>  2 0.17426727E+03</rscale>
<asrwt>0</asrwt>
<pdfrwt beam="1">  1       21 0.28948464E-01 0.17426727E+03</pdfrwt>
<pdfrwt beam="2">  1       21 0.38210739E-01 0.17426727E+03</pdfrwt>
<totfact> 0.76022830E+04</totfact>
</mgrwt>
</event>
<event>
 4    1  0.4382184E+000  0.2107034E+03  0.7546771E-02  0.1141010E+00
         21   -1    0    0  503  502  0.00000000000E+00  0.00000000000E+00  0.15736341155E+03  0.15736341155E+03  0.00000000000E+00 0. -1.
         21   -1    0    0  501  503 -0.00000000000E+00 -0.00000000000E+00 -0.29118174877E+03  0.29118174877E+03  0.00000000000E+00 0.  1.
          6    1    1    2  501    0  0.11136795974E+03 -0.45432388888E+02 -0.27352927910E+02  0.21247142651E+03  0.17300000000E+03 0. -1.
         -6    1    1    2    0  502 -0.11136795974E+03  0.45432388888E+02 -0.10646540931E+03  0.23607373381E+03  0.17300000000E+03 0. -1.
<mgrwt>
<rscale>  2 0.21070340E+03</rscale>
<asrwt>0</asrwt>
<pdfrwt beam="1">  1       21 0.24209756E-01 0.21070340E+03</pdfrwt>
<pdfrwt beam="2">  1       21 0.44797192E-01 0.21070340E+03</pdfrwt>
<totfact> 0.76419227E+04</totfact>
</mgrwt>
</event>
<event>
 4    1  0.4382184E+000  0.1827105E+03  0.7546771E-02  0.1165205E+00
         21   -1    0    0  501  502  0.00000000000E+00  0.00000000000E+00  0.10795120016E+03  0.10795120016E+03  0.00000000000E+00 0. -1.
         21   -1    0    0  502  503 -0.00000000000E+00 -0.00000000000E+00 -0.35437377272E+03  0.35437377272E+03  0.00000000000E+00 0. -1.
          6    1    1    2  501    0 -0.51436745681E+02 -0.28432302577E+02 -0.40717018140E+02  0.18719244163E+03  0.17300000000E+03 0. -1.
         -6    1    1    2    0  503  0.51436745681E+02  0.28432302577E+02 -0.20570555442E+03  0.27513253125E+03  0.17300000000E+03 0. -1.
<mgrwt>
<rscale>  2 0.18271052E+03</rscale>
<asrwt>0</asrwt>
<pdfrwt beam="1">  1       21 0.16607877E-01 0.18271052E+03</pdfrwt>
<pdfrwt beam="2">  1       21 0.54519043E-01 0.18271052E+03</pdfrwt>
<totfact> 0.10386296E+05</totfact>
</mgrwt>
</event>
<event>
 4    1  0.4382184E+000  0.3735967E+03  0.7546771E-02  0.1053326E+00
         21   -1    0    0  501  502  0.00000000000E+00  0.00000000000E+00  0.31877830084E+03  0.31877830084E+03  0.00000000000E+00 0.  1.
         21   -1    0    0  502  503 -0.00000000000E+00 -0.00000000000E+00 -0.12153337214E+04  0.12153337214E+04  0.00000000000E+00 0. -1.
          6    1    1    2  501    0 -0.28082504605E+03  0.17545014512E+03  0.16524020721E+03  0.40850799992E+03  0.17300000000E+03 0.  1.
         -6    1    1    2    0  503  0.28082504605E+03 -0.17545014512E+03 -0.10617956278E+04  0.11256040223E+04  0.17300000000E+03 0. -1.
<mgrwt>
<rscale>  2 0.37359665E+03</rscale>
<asrwt>0</asrwt>
<pdfrwt beam="1">  1       21 0.49042816E-01 0.37359665E+03</pdfrwt>
<pdfrwt beam="2">  1       21 0.18697442E+00 0.37359665E+03</pdfrwt>
<totfact> 0.55823873E+02</totfact>
</mgrwt>
</event>
<event>
 4    1  0.4382184E+000  0.3200087E+03  0.7546771E-02  0.1075645E+00
         21   -1    0    0  503  502  0.00000000000E+00  0.00000000000E+00  0.43183487518E+03  0.43183487518E+03  0.00000000000E+00 0.  1.
         21   -1    0    0  501  503 -0.00000000000E+00 -0.00000000000E+00 -0.37601220892E+03  0.37601220892E+03  0.00000000000E+00 0. -1.
          6    1    1    2  501    0 -0.11401977297E+03 -0.24387715139E+03 -0.21756235892E+03  0.38696117843E+03  0.17300000000E+03 0. -1.
         -6    1    1    2    0  502  0.11401977297E+03  0.24387715139E+03  0.27338502518E+03  0.42088590567E+03  0.17300000000E+03 0. -1.
<mgrwt>
<rscale>  2 0.32000871E+03</rscale>
<asrwt>0</asrwt>
<pdfrwt beam="1">  1       21 0.66436135E-01 0.32000871E+03</pdfrwt>
<pdfrwt beam="2">  1       21 0.57848032E-01 0.32000871E+03</pdfrwt>
<totfact> 0.53929664E+03</totfact>
</mgrwt>
</event>
<event>
 4    1  0.4382184E+000  0.1730301E+03  0.7546771E-02  0.1174724E+00
         21   -1    0    0  501  502  0.00000000000E+00  0.00000000000E+00  0.61644908139E+03  0.61644908139E+03  0.00000000000E+00 0.  1.
         21   -1    0    0  502  503 -0.00000000000E+00 -0.00000000000E+00 -0.48846971008E+02  0.48846971008E+02  0.00000000000E+00 0.  1.
          6    1    1    2  501    0 -0.20894248433E+01  0.24603884592E+01  0.30896036098E+03  0.35411286882E+03  0.17300000000E+03 0.  1.
         -6    1    1    2    0  503  0.20894248433E+01 -0.24603884592E+01  0.25864174940E+03  0.31118318357E+03  0.17300000000E+03 0.  1.
<mgrwt>
<rscale>  2 0.17303011E+03</rscale>
<asrwt>0</asrwt>
<pdfrwt beam="1">  1       21 0.94838314E-01 0.17303011E+03</pdfrwt>
<pdfrwt beam="2">  1       21 0.75149191E-02 0.17303011E+03</pdfrwt>
<totfact> 0.12536003E+05</totfact>
</mgrwt>
</event>
<event>
 4    1  0.4382184E+000  0.1806656E+03  0.7546771E-02  0.1167160E+00
         21   -1    0    0  501  502  0.00000000000E+00  0.00000000000E+00  0.10375882528E+03  0.10375882528E+03  0.00000000000E+00 0.  1.
         21   -1    0    0  502  503 -0.00000000000E+00 -0.00000000000E+00 -0.44541537260E+03  0.44541537260E+03  0.00000000000E+00 0.  1.
          6    1    1    2  501    0 -0.11644181662E+02  0.50749253549E+02 -0.22006610133E+02  0.18200100162E+03  0.17300000000E+03 0. -1.
         -6    1    1    2    0  503  0.11644181662E+02 -0.50749253549E+02 -0.31964993719E+03  0.36717319626E+03  0.17300000000E+03 0. -1.
<mgrwt>
<rscale>  2 0.18066564E+03</rscale>
<asrwt>0</asrwt>
<pdfrwt beam="1">  1       21 0.15962896E-01 0.18066564E+03</pdfrwt>
<pdfrwt beam="2">  1       21 0.68525443E-01 0.18066564E+03</pdfrwt>
<totfact> 0.68351468E+04</totfact>
</mgrwt>
</event>
<event>
 4    1  0.4382184E+000  0.1985818E+03  0.7546771E-02  0.1150941E+00
         21   -1    0    0  501  502  0.00000000000E+00  0.00000000000E+00  0.77073867462E+02  0.77073867462E+02  0.00000000000E+00 0. -1.
         21   -1    0    0  502  503 -0.00000000000E+00 -0.00000000000E+00 -0.10060123956E+04  0.10060123956E+04  0.00000000000E+00 0. -1.
          6    1    1    2  501    0 -0.65618390239E+02 -0.72110870942E+02 -0.84844414705E+02  0.21594750647E+03  0.17300000000E+03 0. -1.
         -6    1    1    2    0  503  0.65618390239E+02  0.72110870942E+02 -0.84409411345E+03  0.86713875660E+03  0.17300000000E+03 0. -1.
<mgrwt>
<rscale>  2 0.19858185E+03</rscale>
<asrwt>0</asrwt>
<pdfrwt beam="1">  1       21 0.11857518E-01 0.19858185E+03</pdfrwt>
<pdfrwt beam="2">  1       21 0.15477113E+00 0.19858185E+03</pdfrwt>
<totfact> 0.16426294E+04</totfact>
</mgrwt>
</event>
<event>
 4    1  0.4382184E+000  0.1750273E+03  0.7546771E-02  0.1172704E+00
         21   -1    0    0  501  502  0.00000000000E+00  0.00000000000E+00  0.32237826798E+02  0.32237826798E+02  0.00000000000E+00 0. -1.
         21   -1    0    0  502  503 -0.00000000000E+00 -0.00000000000E+00 -0.17346122724E+04  0.17346122724E+04  0.00000000000E+00 0. -1.
          6    1    1    2  501    0  0.79628486458E+01  0.25340647233E+02 -0.25713853993E+03  0.31105431050E+03  0.17300000000E+03 0.  1.
         -6    1    1    2    0  503 -0.79628486458E+01 -0.25340647233E+02 -0.14452359057E+04  0.14557957887E+04  0.17300000000E+03 0.  1.
<mgrwt>
<rscale>  2 0.17502730E+03</rscale>
<asrwt>0</asrwt>
<pdfrwt beam="1">  1       21 0.49596639E-02 0.17502730E+03</pdfrwt>
<pdfrwt beam="2">  1       21 0.26686352E+00 0.17502730E+03</pdfrwt>
<totfact> 0.14709661E+04</totfact>
</mgrwt>
</event>
<event>
 4    1  0.4382184E+000  0.2145264E+03  0.7546771E-02  0.1138031E+00
         21   -1    0    0  503  502  0.00000000000E+00  0.00000000000E+00  0.25439643693E+03  0.25439643693E+03  0.00000000000E+00 0. -1.
         21   -1    0    0  501  503 -0.00000000000E+00 -0.00000000000E+00 -0.22977720308E+03  0.22977720308E+03  0.00000000000E+00 0. -1.
          6    1    1    2  501    0  0.12663486499E+03  0.74950641550E+01 -0.99337889033E+02  0.23640977394E+03  0.17300000000E+03 0. -1.
         -6    1    1    2    0  502 -0.12663486499E+03 -0.74950641550E+01  0.12395712288E+03  0.24776386607E+03  0.17300000000E+03 0. -1.
<mgrwt>
<rscale>  2 0.21452637E+03</rscale>
<asrwt>0</asrwt>
<pdfrwt beam="1">  1       21 0.39137913E-01 0.21452637E+03</pdfrwt>
<pdfrwt beam="2">  1       21 0.35350339E-01 0.21452637E+03</pdfrwt>
<totfact> 0.48050618E+04</totfact>
</mgrwt>
</event>
<event>
 4    1  0.4382184E+000  0.2418938E+03  0.7546771E-02  0.1118538E+00
         21   -1    0    0  501  502  0.00000000000E+00  0.00000000000E+00  0.45198296127E+02  0.45198296127E+02  0.00000000000E+00 0. -1.
         21   -1    0    0  502  503 -0.00000000000E+00 -0.00000000000E+00 -0.17783797985E+04  0.17783797985E+04  0.00000000000E+00 0. -1.
          6    1    1    2  501    0 -0.13566674158E+03 -0.10088689971E+03 -0.39101825409E+03  0.45979115513E+03  0.17300000000E+03 0. -1.
         -6    1    1    2    0  503  0.13566674158E+03  0.10088689971E+03 -0.13421632483E+04  0.13637869395E+04  0.17300000000E+03 0. -1.
<mgrwt>
<rscale>  2 0.24189384E+03</rscale>
<asrwt>0</asrwt>
<pdfrwt beam="1">  1       21 0.69535842E-02 0.24189384E+03</pdfrwt>
<pdfrwt beam="2">  1       21 0.27359689E+00 0.24189384E+03</pdfrwt>
<totfact> 0.70744906E+03</totfact>
</mgrwt>
</event>
<event>
 4    1  0.4382184E+000  0.1887884E+03  0.7546771E-02  0.1159559E+00
         21   -1    0    0  501  502  0.00000000000E+00  0.00000000000E+00  0.28910016240E+03  0.28910016240E+03  0.00000000000E+00 0. -1.
         21   -1    0    0  502  503 -0.00000000000E+00 -0.00000000000E+00 -0.12614898234E+03  0.12614898234E+03  0.00000000000E+00 0.  1.
          6    1    1    2  501    0 -0.63867938821E+02 -0.40409501035E+02  0.50178911554E+02  0.19534319683E+03  0.17300000000E+03 0.  1.
         -6    1    1    2    0  503  0.63867938821E+02  0.40409501035E+02  0.11277226851E+03  0.21990594791E+03  0.17300000000E+03 0.  1.
<mgrwt>
<rscale>  2 0.18878835E+03</rscale>
<asrwt>0</asrwt>
<pdfrwt beam="1">  1       21 0.44476948E-01 0.18878835E+03</pdfrwt>
<pdfrwt beam="2">  1       21 0.19407536E-01 0.18878835E+03</pdfrwt>
<totfact> 0.11866634E+05</totfact>
</mgrwt>
</event>
<event>
 4    1  0.4382184E+000  0.2349729E+03  0.7546771E-02  0.1123188E+00
         21   -1    0    0  501  502  0.00000000000E+00  0.00000000000E+00  0.10454894087E+04  0.10454894087E+04  0.00000000000E+00 0. -1.
         21   -1    0    0  502  503 -0.00000000000E+00 -0.00000000000E+00 -0.17154544629E+03  0.17154544629E+03  0.00000000000E+00 0. -1.
          6    1    1    2  501    0  0.15563326703E+03 -0.32581700391E+02  0.94323201486E+03  0.97205911079E+03  0.17300000000E+03 0. -1.
         -6    1    1    2    0  503 -0.15563326703E+03  0.32581700391E+02 -0.69288052501E+02  0.24497574416E+03  0.17300000000E+03 0. -1.
<mgrwt>
<rscale>  2 0.23497294E+03</rscale>
<asrwt>0</asrwt>
<pdfrwt beam="1">  1       21 0.16084452E+00 0.23497294E+03</pdfrwt>
<pdfrwt beam="2">  1       21 0.26391608E-01 0.23497294E+03</pdfrwt>
<totfact> 0.32690388E+03</totfact>
</mgrwt>
</event>
<event>
 4    1  0.4382184E+000  0.2121870E+03  0.7546771E-02  0.1139846E+00
         21   -1    0    0  501  502  0.00000000000E+00  0.00000000000E+00  0.12381140109E+04  0.12381140109E+04  0.00000000000E+00 0. -1.
         21   -1    0    0  502  503 -0.00000000000E+00 -0.00000000000E+00 -0.78532392447E+02  0.78532392447E+02  0.00000000000E+00 0. -1.
          6    1    1    2  501    0 -0.91487710915E+01  0.12251782066E+03  0.10621893997E+04  0.10831757185E+04  0.17300000000E+03 0. -1.
         -6    1    1    2    0  503  0.91487710915E+01 -0.12251782066E+03  0.97392218750E+02  0.23347068481E+03  0.17300000000E+03 0. -1.
<mgrwt>
<rscale>  2 0.21218698E+03</rscale>
<asrwt>0</asrwt>
<pdfrwt beam="1">  1       21 0.19047906E+00 0.21218698E+03</pdfrwt>
<pdfrwt beam="2">  1       21 0.12081907E-01 0.21218698E+03</pdfrwt>
<totfact> 0.88340160E+03</totfact>
</mgrwt>
</event>
<event>
 4    1  0.4382184E+000  0.1864871E+03  0.7546771E-02  0.1161668E+00
         21   -1    0    0  501  502  0.00000000000E+00  0.00000000000E+00  0.65248905554E+02  0.65248905554E+02  0.00000000000E+00 0. -1.
         21   -1    0    0  502  503 -0.00000000000E+00 -0.00000000000E+00 -0.53310782693E+03  0.53310782693E+03  0.00000000000E+00 0. -1.
          6    1    1    2  501    0  0.69594393421E+02  0.22525246543E+01 -0.22961060491E+03  0.29580142554E+03  0.17300000000E+03 0. -1.
         -6    1    1    2    0  503 -0.69594393421E+02 -0.22525246543E+01 -0.23824831647E+03  0.30255530695E+03  0.17300000000E+03 0. -1.
<mgrwt>
<rscale>  2 0.18648714E+03</rscale>
<asrwt>0</asrwt>
<pdfrwt beam="1">  1       21 0.10038293E-01 0.18648714E+03</pdfrwt>
<pdfrwt beam="2">  1       21 0.82016586E-01 0.18648714E+03</pdfrwt>
<totfact> 0.10502369E+05</totfact>
</mgrwt>
</event>
<event>
 4    1  0.4382184E+000  0.2226064E+03  0.7546771E-02  0.1131955E+00
         21   -1    0    0  501  502  0.00000000000E+00  0.00000000000E+00  0.10831439585E+03  0.10831439585E+03  0.00000000000E+00 0. -1.
         21   -1    0    0  502  503 -0.00000000000E+00 -0.00000000000E+00 -0.46997876004E+03  0.46997876004E+03  0.00000000000E+00 0. -1.
          6    1    1    2  501    0 -0.51482405387E+02  0.13028494432E+03 -0.22795180622E+03  0.31861517657E+03  0.17300000000E+03 0. -1.
         -6    1    1    2    0  503  0.51482405387E+02 -0.13028494432E+03 -0.13371255797E+03  0.25967797932E+03  0.17300000000E+03 0. -1.
<mgrwt>
<rscale>  2 0.22260639E+03</rscale>
<asrwt>0</asrwt>
<pdfrwt beam="1">  1       21 0.16663753E-01 0.22260639E+03</pdfrwt>
<pdfrwt beam="2">  1       21 0.72304425E-01 0.22260639E+03</pdfrwt>
<totfact> 0.55045235E+04</totfact>
</mgrwt>
</event>
<event>
 4    1  0.4382184E+000  0.1791488E+03  0.7546771E-02  0.1168629E+00
         21   -1    0    0  503  502  0.00000000000E+00  0.00000000000E+00  0.29321224204E+04  0.29321224204E+04  0.00000000000E+00 0.  1.
         21   -1    0    0  501  503 -0.00000000000E+00 -0.00000000000E+00 -0.31942608759E+02  0.31942608759E+02  0.00000000000E+00 0.  1.
          6    1    1    2  501    0 -0.19472151321E+02 -0.42262594364E+02  0.24851829234E+03  0.30635866755E+03  0.17300000000E+03 0.  1.
         -6    1    1    2    0  502  0.19472151321E+02  0.42262594364E+02  0.26516615193E+04  0.26577063616E+04  0.17300000000E+03 0.  1.
<mgrwt>
<rscale>  2 0.17914880E+03</rscale>
<asrwt>0</asrwt>
<pdfrwt beam="1">  1       21 0.45109555E+00 0.17914880E+03</pdfrwt>
<pdfrwt beam="2">  1       21 0.49142498E-02 0.17914880E+03</pdfrwt>
<totfact> 0.11591171E+03</totfact>
</mgrwt>
</event>
<event>
 4    1  0.4382184E+000  0.1823556E+03  0.7546771E-02  0.1165543E+00
         21   -1    0    0  503  502  0.00000000000E+00  0.00000000000E+00  0.23476463038E+03  0.23476463038E+03  0.00000000000E+00 0. -1.
         21   -1    0    0  501  503 -0.00000000000E+00 -0.00000000000E+00 -0.18506345355E+03  0.18506345355E+03  0.00000000000E+00 0. -1.
          6    1    1    2  501    0 -0.47781889346E+02  0.32271858686E+02 -0.76823659797E+02  0.19787737748E+03  0.17300000000E+03 0. -1.
         -6    1    1    2    0  502  0.47781889346E+02 -0.32271858686E+02  0.12652483662E+03  0.22195070645E+03  0.17300000000E+03 0. -1.
<mgrwt>
<rscale>  2 0.18235565E+03</rscale>
<asrwt>0</asrwt>
<pdfrwt beam="1">  1       21 0.36117636E-01 0.18235565E+03</pdfrwt>
<pdfrwt beam="2">  1       21 0.28471300E-01 0.18235565E+03</pdfrwt>
<totfact> 0.87556036E+04</totfact>
</mgrwt>
</event>
<event>
 4    1  0.4382184E+000  0.2143340E+03  0.7546771E-02  0.1138179E+00
         21   -1    0    0  501  502  0.00000000000E+00  0.00000000000E+00  0.53128501663E+03  0.53128501663E+03  0.00000000000E+00 0.  1.
         21   -1    0    0  502  503 -0.00000000000E+00 -0.00000000000E+00 -0.19099330797E+03  0.19099330797E+03  0.00000000000E+00 0.  1.
          6    1    1    2  501    0  0.12202319392E+03  0.33472437755E+02  0.43730902341E+03  0.48700949262E+03  0.17300000000E+03 0.  1.
         -6    1    1    2    0  503 -0.12202319392E+03 -0.33472437755E+02 -0.97017314742E+02  0.23526883198E+03  0.17300000000E+03 0.  1.
<mgrwt>
<rscale>  2 0.21433400E+03</rscale>
<asrwt>0</asrwt>
<pdfrwt beam="1">  1       21 0.81736156E-01 0.21433400E+03</pdfrwt>
<pdfrwt beam="2">  1       21 0.29383586E-01 0.21433400E+03</pdfrwt>
<totfact> 0.14336708E+04</totfact>
</mgrwt>
</event>
<event>
 4    1  0.4382184E+000  0.1893112E+03  0.7546771E-02  0.1159084E+00
         21   -1    0    0  503  502  0.00000000000E+00  0.00000000000E+00  0.28996036140E+02  0.28996036140E+02  0.00000000000E+00 0. -1.
         21   -1    0    0  501  503 -0.00000000000E+00 -0.00000000000E+00 -0.20345326767E+04  0.20345326767E+04  0.00000000000E+00 0. -1.
          6    1    1    2  501    0 -0.67523858508E+02 -0.36745821627E+02 -0.16491633935E+04  0.16599935619E+04  0.17300000000E+03 0. -1.
         -6    1    1    2    0  502  0.67523858508E+02  0.36745821627E+02 -0.35637324705E+03  0.40353515099E+03  0.17300000000E+03 0. -1.
<mgrwt>
<rscale>  2 0.18931119E+03</rscale>
<asrwt>0</asrwt>
<pdfrwt beam="1">  1       21 0.44609283E-02 0.18931119E+03</pdfrwt>
<pdfrwt beam="2">  1       21 0.31300505E+00 0.18931119E+03</pdfrwt>
<totfact> 0.94057709E+03</totfact>
</mgrwt>
</event>
<event>
 4    1  0.4382184E+000  0.1748802E+03  0.7546771E-02  0.1172852E+00
         21   -1    0    0  503  502  0.00000000000E+00  0.00000000000E+00  0.84052923251E+02  0.84052923251E+02  0.00000000000E+00 0.  1.
         21   -1    0    0  501  503 -0.00000000000E+00 -0.00000000000E+00 -0.13944576209E+04  0.13944576209E+04  0.00000000000E+00 0.  1.
          6    1    1    2  501    0  0.18449368898E+02 -0.17711752383E+02 -0.12907342702E+04  0.13025275589E+04  0.17300000000E+03 0.  1.
         -6    1    1    2    0  502 -0.18449368898E+02  0.17711752383E+02 -0.19670427442E+02  0.17598298526E+03  0.17300000000E+03 0.  1.
<mgrwt>
<rscale>  2 0.17488020E+03</rscale>
<asrwt>0</asrwt>
<pdfrwt beam="1">  1       21 0.12931219E-01 0.17488020E+03</pdfrwt>
<pdfrwt beam="2">  1       21 0.21453194E+00 0.17488020E+03</pdfrwt>
<totfact> 0.56773959E+03</totfact>
</mgrwt>
</event>
<event>
 4    1  0.4382184E+000  0.2406155E+03  0.7546771E-02  0.1119383E+00
         21   -1    0    0  503  502  0.00000000000E+00  0.00000000000E+00  0.40792012187E+03  0.40792012187E+03  0.00000000000E+00 0. -1.
         21   -1    0    0  501  503 -0.00000000000E+00 -0.00000000000E+00 -0.17859309184E+03  0.17859309184E+03  0.00000000000E+00 0. -1.
          6    1    1    2  501    0 -0.81473475268E+02  0.14604415392E+03 -0.18208676506E+02  0.24130349763E+03  0.17300000000E+03 0. -1.
         -6    1    1    2    0  502  0.81473475268E+02 -0.14604415392E+03  0.24753570654E+03  0.34520971608E+03  0.17300000000E+03 0. -1.
<mgrwt>
<rscale>  2 0.24061551E+03</rscale>
<asrwt>0</asrwt>
<pdfrwt beam="1">  1       21 0.62756942E-01 0.24061551E+03</pdfrwt>
<pdfrwt beam="2">  1       21 0.27475860E-01 0.24061551E+03</pdfrwt>
<totfact> 0.28993758E+04</totfact>
</mgrwt>
</event>
<event>
 4    1  0.4382184E+000  0.1871203E+03  0.7546771E-02  0.1161085E+00
         21   -1    0    0  501  502  0.00000000000E+00  0.00000000000E+00  0.70516920068E+02  0.70516920068E+02  0.00000000000E+00 0.  1.
         21   -1    0    0  502  503 -0.00000000000E+00 -0.00000000000E+00 -0.51973393895E+03  0.51973393895E+03  0.00000000000E+00 0.  1.
          6    1    1    2  501    0  0.35869798526E+02  0.61630766066E+02 -0.16225415839E+03  0.24766995314E+03  0.17300000000E+03 0.  1.
         -6    1    1    2    0  503 -0.35869798526E+02 -0.61630766066E+02 -0.28696286049E+03  0.34258090588E+03  0.17300000000E+03 0.  1.
<mgrwt>
<rscale>  2 0.18712027E+03</rscale>
<asrwt>0</asrwt>
<pdfrwt beam="1">  1       21 0.10848757E-01 0.18712027E+03</pdfrwt>
<pdfrwt beam="2">  1       21 0.79959066E-01 0.18712027E+03</pdfrwt>
<totfact> 0.96930075E+04</totfact>
</mgrwt>
</event>
<event>
 4    1  0.4382184E+000  0.1766467E+03  0.7546771E-02  0.1171088E+00
         21   -1    0    0  501  502  0.00000000000E+00  0.00000000000E+00  0.13113397171E+04  0.13113397171E+04  0.00000000000E+00 0. -1.
         21   -1    0    0  502  503 -0.00000000000E+00 -0.00000000000E+00 -0.24966884770E+02  0.24966884770E+02  0.00000000000E+00 0. -1.
          6    1    1    2  501    0  0.12447523714E+02 -0.33467902638E+02  0.78790878151E+03  0.80746782557E+03  0.17300000000E+03 0. -1.
         -6    1    1    2    0  503 -0.12447523714E+02  0.33467902638E+02  0.49846405078E+03  0.52883877625E+03  0.17300000000E+03 0. -1.
<mgrwt>
<rscale>  2 0.17664666E+03</rscale>
<asrwt>0</asrwt>
<pdfrwt beam="1">  1       21 0.20174452E+00 0.17664666E+03</pdfrwt>
<pdfrwt beam="2">  1       21 0.38410602E-02 0.17664666E+03</pdfrwt>
<totfact> 0.55459499E+04</totfact>
</mgrwt>
</event>
<event>
 4    1  0.4382184E+000  0.1805410E+03  0.7546771E-02  0.1167280E+00
         21   -1    0    0  503  502  0.00000000000E+00  0.00000000000E+00  0.40730248998E+03  0.40730248998E+03  0.00000000000E+00 0.  1.
         21   -1    0    0  501  503 -0.00000000000E+00 -0.00000000000E+00 -0.89115322943E+02  0.89115322943E+02  0.00000000000E+00 0.  1.
          6    1    1    2  501    0 -0.46389722302E+02  0.22672543211E+02  0.79826733977E+02  0.19740151471E+03  0.17300000000E+03 0.  1.
         -6    1    1    2    0  502  0.46389722302E+02 -0.22672543211E+02  0.23836043306E+03  0.29901629822E+03  0.17300000000E+03 0.  1.
<mgrwt>
<rscale>  2 0.18054099E+03</rscale>
<asrwt>0</asrwt>
<pdfrwt beam="1">  1       21 0.62661921E-01 0.18054099E+03</pdfrwt>
<pdfrwt beam="2">  1       21 0.13710050E-01 0.18054099E+03</pdfrwt>
<totfact> 0.10946778E+05</totfact>
</mgrwt>
</event>
<event>
 4    1  0.4382184E+000  0.2020291E+03  0.7546771E-02  0.1148038E+00
         21   -1    0    0  501  502  0.00000000000E+00  0.00000000000E+00  0.13781137136E+03  0.13781137136E+03  0.00000000000E+00 0.  1.
         21   -1    0    0  502  503 -0.00000000000E+00 -0.00000000000E+00 -0.32718656292E+03  0.32718656292E+03  0.00000000000E+00 0.  1.
          6    1    1    2  501    0 -0.40278271394E+02 -0.96251902856E+02 -0.23104366137E+02  0.20334596058E+03  0.17300000000E+03 0.  1.
         -6    1    1    2    0  503  0.40278271394E+02  0.96251902856E+02 -0.16627082542E+03  0.26165197369E+03  0.17300000000E+03 0.  1.
<mgrwt>
<rscale>  2 0.20202913E+03</rscale>
<asrwt>0</asrwt>
<pdfrwt beam="1">  1       21 0.21201749E-01 0.20202913E+03</pdfrwt>
<pdfrwt beam="2">  1       21 0.50336394E-01 0.20202913E+03</pdfrwt>
<totfact> 0.77437093E+04</totfact>
</mgrwt>
</event>
<event>
 4    1  0.4382184E+000  0.1913994E+03  0.7546771E-02  0.1157205E+00
         21   -1    0    0  501  502  0.00000000000E+00  0.00000000000E+00  0.46786911207E+03  0.46786911207E+03  0.00000000000E+00 0. -1.
         21   -1    0    0  502  503 -0.00000000000E+00 -0.00000000000E+00 -0.24436476971E+03  0.24436476971E+03  0.00000000000E+00 0.  1.
          6    1    1    2  501    0 -0.48567334662E+02 -0.65923901465E+02  0.40532321846E+03  0.44824174081E+03  0.17300000000E+03 0. -1.
         -6    1    1    2    0  503  0.48567334662E+02  0.65923901465E+02 -0.18181887611E+03  0.26399214096E+03  0.17300000000E+03 0.  1.
<mgrwt>
<rscale>  2 0.19139944E+03</rscale>
<asrwt>0</asrwt>
<pdfrwt beam="1">  1       21 0.71979863E-01 0.19139944E+03</pdfrwt>
<pdfrwt beam="2">  1       21 0.37594580E-01 0.19139944E+03</pdfrwt>
<totfact> 0.11898216E+04</totfact>
</mgrwt>
</event>
<event>
 4    1  0.4382184E+000  0.1986576E+03  0.7546771E-02  0.1150877E+00
         21   -1    0    0  503  502  0.00000000000E+00  0.00000000000E+00  0.89195542398E+03  0.89195542398E+03  0.00000000000E+00 0.  1.
         21   -1    0    0  501  503 -0.00000000000E+00 -0.00000000000E+00 -0.44354524926E+02  0.44354524926E+02  0.00000000000E+00 0.  1.
          6    1    1    2  501    0 -0.64383046438E+01 -0.97439146293E+02  0.44703174147E+03  0.48918525824E+03  0.17300000000E+03 0.  1.
         -6    1    1    2    0  502  0.64383046438E+01  0.97439146293E+02  0.40056915758E+03  0.44712469067E+03  0.17300000000E+03 0.  1.
<mgrwt>
<rscale>  2 0.19865759E+03</rscale>
<asrwt>0</asrwt>
<pdfrwt beam="1">  1       21 0.13722390E+00 0.19865759E+03</pdfrwt>
<pdfrwt beam="2">  1       21 0.68237737E-02 0.19865759E+03</pdfrwt>
<totfact> 0.59369362E+04</totfact>
</mgrwt>
</event>
<event>
 4    1  0.4382184E+000  0.3675224E+03  0.7546771E-02  0.1055644E+00
         21   -1    0    0  501  502  0.00000000000E+00  0.00000000000E+00  0.13646709177E+04  0.13646709177E+04  0.00000000000E+00 0.  1.
         21   -1    0    0  502  503 -0.00000000000E+00 -0.00000000000E+00 -0.10093245775E+03  0.10093245775E+03  0.00000000000E+00 0. -1.
          6    1    1    2  501    0 -0.22918845606E+02  0.32344771098E+03  0.73383631131E+03  0.82072433070E+03  0.17300000000E+03 0.  1.
         -6    1    1    2    0  503  0.22918845606E+02 -0.32344771098E+03  0.52990214865E+03  0.64487904475E+03  0.17300000000E+03 0. -1.
<mgrwt>
<rscale>  2 0.36752237E+03</rscale>
<asrwt>0</asrwt>
<pdfrwt beam="1">  1       21 0.20994936E+00 0.36752237E+03</pdfrwt>
<pdfrwt beam="2">  1       21 0.15528071E-01 0.36752237E+03</pdfrwt>
<totfact> 0.37850286E+03</totfact>
</mgrwt>
</event>
<event>
 4    1  0.4382184E+000  0.1836636E+03  0.7546771E-02  0.1164304E+00
         21   -1    0    0  503  502  0.00000000000E+00  0.00000000000E+00  0.89076004323E+02  0.89076004323E+02  0.00000000000E+00 0. -1.
         21   -1    0    0  501  503 -0.00000000000E+00 -0.00000000000E+00 -0.56400348266E+03  0.56400348266E+03  0.00000000000E+00 0. -1.
          6    1    1    2  501    0  0.53233033082E+02 -0.31137754366E+02 -0.42463839318E+03  0.46265546633E+03  0.17300000000E+03 0. -1.
         -6    1    1    2    0  502 -0.53233033082E+02  0.31137754366E+02 -0.50289085158E+02  0.19042402066E+03  0.17300000000E+03 0. -1.
<mgrwt>
<rscale>  2 0.18366359E+03</rscale>
<asrwt>0</asrwt>
<pdfrwt beam="1">  1       21 0.13704001E-01 0.18366359E+03</pdfrwt>
<pdfrwt beam="2">  1       21 0.86769767E-01 0.18366359E+03</pdfrwt>
<totfact> 0.53052176E+04</totfact>
</mgrwt>
</event>
<event>
 4    1  0.4382184E+000  0.1818964E+03  0.7546771E-02  0.1165980E+00
         21   -1    0    0  501  502  0.00000000000E+00  0.00000000000E+00  0.66517341086E+03  0.66517341086E+03  0.00000000000E+00 0. -1.
         21   -1    0    0  502  503 -0.00000000000E+00 -0.00000000000E+00 -0.93263258800E+02  0.93263258800E+02  0.00000000000E+00 0.  1.
          6    1    1    2  501    0  0.51447003096E+02  0.22594584798E+02  0.54500910826E+03  0.57456177864E+03  0.17300000000E+03 0. -1.
         -6    1    1    2    0  503 -0.51447003096E+02 -0.22594584798E+02  0.26901043801E+02  0.18387489102E+03  0.17300000000E+03 0.  1.
<mgrwt>
<rscale>  2 0.18189642E+03</rscale>
<asrwt>0</asrwt>
<pdfrwt beam="1">  1       21 0.10233437E+00 0.18189642E+03</pdfrwt>
<pdfrwt beam="2">  1       21 0.14348194E-01 0.18189642E+03</pdfrwt>
<totfact> 0.33242154E+04</totfact>
</mgrwt>
</event>
<event>
 4    1  0.4382184E+000  0.1966369E+03  0.7546771E-02  0.1152608E+00
         21   -1    0    0  501  502  0.00000000000E+00  0.00000000000E+00  0.11971303606E+03  0.11971303606E+03  0.00000000000E+00 0. -1.
         21   -1    0    0  502  503 -0.00000000000E+00 -0.00000000000E+00 -0.37545923615E+03  0.37545923615E+03  0.00000000000E+00 0. -1.
          6    1    1    2  501    0 -0.63583622097E+02  0.68514212286E+02 -0.35318362605E+02  0.19978353541E+03  0.17300000000E+03 0. -1.
         -6    1    1    2    0  503  0.63583622097E+02 -0.68514212286E+02 -0.22042783749E+03  0.29538873679E+03  0.17300000000E+03 0. -1.
<mgrwt>
<rscale>  2 0.19663691E+03</rscale>
<asrwt>0</asrwt>
<pdfrwt beam="1">  1       21 0.18417390E-01 0.19663691E+03</pdfrwt>
<pdfrwt beam="2">  1       21 0.57762960E-01 0.19663691E+03</pdfrwt>
<totfact> 0.75505229E+04</totfact>
</mgrwt>
</event>
<event>
 4    1  0.4382184E+000  0.2244732E+03  0.7546771E-02  0.1130591E+00
         21   -1    0    0  501  502  0.00000000000E+00  0.00000000000E+00  0.33745475044E+03  0.33745475044E+03  0.00000000000E+00 0. -1.
         21   -1    0    0  502  503 -0.00000000000E+00 -0.00000000000E+00 -0.26300658884E+03  0.26300658884E+03  0.00000000000E+00 0. -1.
          6    1    1    2  501    0  0.40280483552E+02  0.13724682351E+03  0.23461600881E+03  0.32470429549E+03  0.17300000000E+03 0. -1.
         -6    1    1    2    0  503 -0.40280483552E+02 -0.13724682351E+03 -0.16016784721E+03  0.27575704379E+03  0.17300000000E+03 0. -1.
<mgrwt>
<rscale>  2 0.22447318E+03</rscale>
<asrwt>0</asrwt>
<pdfrwt beam="1">  1       21 0.51916116E-01 0.22447318E+03</pdfrwt>
<pdfrwt beam="2">  1       21 0.40462552E-01 0.22447318E+03</pdfrwt>
<totfact> 0.20353120E+04</totfact>
</mgrwt>
</event>
<event>
 4    1  0.4382184E+000  0.1830697E+03  0.7546771E-02  0.1164865E+00
         21   -1    0    0  503  502  0.00000000000E+00  0.00000000000E+00  0.23995529183E+03  0.23995529183E+03  0.00000000000E+00 0.  1.
         21   -1    0    0  501  503 -0.00000000000E+00 -0.00000000000E+00 -0.16177769264E+03  0.16177769264E+03  0.00000000000E+00 0.  1.
          6    1    1    2  501    0 -0.13266061555E+02 -0.58391255975E+02 -0.35165405017E+02  0.18641655740E+03  0.17300000000E+03 0.  1.
         -6    1    1    2    0  502  0.13266061555E+02  0.58391255975E+02  0.11334300421E+03  0.21531642707E+03  0.17300000000E+03 0.  1.
<mgrwt>
<rscale>  2 0.18306973E+03</rscale>
<asrwt>0</asrwt>
<pdfrwt beam="1">  1       21 0.36916199E-01 0.18306973E+03</pdfrwt>
<pdfrwt beam="2">  1       21 0.24888876E-01 0.18306973E+03</pdfrwt>
<totfact> 0.10848399E+05</totfact>
</mgrwt>
</event>
<event>
 4    1  0.4382184E+000  0.2447749E+03  0.7546771E-02  0.1116652E+00
         21   -1    0    0  503  502  0.00000000000E+00  0.00000000000E+00  0.94657366179E+03  0.94657366179E+03  0.00000000000E+00 0.  1.
         21   -1    0    0  501  503 -0.00000000000E+00 -0.00000000000E+00 -0.74938458957E+02  0.74938458957E+02  0.00000000000E+00 0.  1.
          6    1    1    2  501    0 -0.43639302945E+02  0.16757501288E+03  0.23450326898E+03  0.33897869677E+03  0.17300000000E+03 0.  1.
         -6    1    1    2    0  502  0.43639302945E+02 -0.16757501288E+03  0.63713193385E+03  0.68253342397E+03  0.17300000000E+03 0.  1.
<mgrwt>
<rscale>  2 0.24477495E+03</rscale>
<asrwt>0</asrwt>
<pdfrwt beam="1">  1       21 0.14562671E+00 0.24477495E+03</pdfrwt>
<pdfrwt beam="2">  1       21 0.11528994E-01 0.24477495E+03</pdfrwt>
<totfact> 0.19718689E+04</totfact>
</mgrwt>
</event>
<event>
 4    1  0.4382184E+000  0.2138248E+03  0.7546771E-02  0.1138572E+00
         21   -1    0    0  503  502  0.00000000000E+00  0.00000000000E+00  0.88594726982E+02  0.88594726982E+02  0.00000000000E+00 0. -1.
         21   -1    0    0  501  503 -0.00000000000E+00 -0.00000000000E+00 -0.82346697034E+03  0.82346697034E+03  0.00000000000E+00 0. -1.
          6    1    1    2  501    0  0.11798518441E+03 -0.43261529509E+02 -0.64606174784E+03  0.68052688830E+03  0.17300000000E+03 0. -1.
         -6    1    1    2    0  502 -0.11798518441E+03  0.43261529509E+02 -0.88810495520E+02  0.23153480902E+03  0.17300000000E+03 0. -1.
<mgrwt>
<rscale>  2 0.21382484E+03</rscale>
<asrwt>0</asrwt>
<pdfrwt beam="1">  1       21 0.13629958E-01 0.21382484E+03</pdfrwt>
<pdfrwt beam="2">  1       21 0.12668723E+00 0.21382484E+03</pdfrwt>
<totfact> 0.21244482E+04</totfact>
</mgrwt>
</event>
<event>
 4    1  0.4382184E+000  0.2465136E+03  0.7546771E-02  0.1115528E+00
         21   -1    0    0  501  502  0.00000000000E+00  0.00000000000E+00  0.26040147344E+03  0.26040147344E+03  0.00000000000E+00 0. -1.
         21   -1    0    0  502  503 -0.00000000000E+00 -0.00000000000E+00 -0.51560003173E+03  0.51560003173E+03  0.00000000000E+00 0.  1.
          6    1    1    2  501    0 -0.16341985392E+03 -0.64295562712E+02  0.15946585116E+03  0.29359551380E+03  0.17300000000E+03 0. -1.
         -6    1    1    2    0  503  0.16341985392E+03  0.64295562712E+02 -0.41466440945E+03  0.48240599137E+03  0.17300000000E+03 0.  1.
<mgrwt>
<rscale>  2 0.24651363E+03</rscale>
<asrwt>0</asrwt>
<pdfrwt beam="1">  1       21 0.40061766E-01 0.24651363E+03</pdfrwt>
<pdfrwt beam="2">  1       21 0.79323081E-01 0.24651363E+03</pdfrwt>
<totfact> 0.81267678E+03</totfact>
</mgrwt>
</event>
<event>
 4    1  0.4382184E+000  0.1785776E+03  0.7546771E-02  0.1169187E+00
         21   -1    0    0  503  502  0.00000000000E+00  0.00000000000E+00  0.78282630412E+03  0.78282630412E+03  0.00000000000E+00 0.  1.
         21   -1    0    0  501  503 -0.00000000000E+00 -0.00000000000E+00 -0.41295270269E+02  0.41295270269E+02  0.00000000000E+00 0.  1.
          6    1    1    2  501    0 -0.25746467667E+02 -0.36028973550E+02  0.32285320759E+03  0.36895007953E+03  0.17300000000E+03 0.  1.
         -6    1    1    2    0  502  0.25746467667E+02  0.36028973550E+02  0.41867782626E+03  0.45517149486E+03  0.17300000000E+03 0.  1.
<mgrwt>
<rscale>  2 0.17857762E+03</rscale>
<asrwt>0</asrwt>
<pdfrwt beam="1">  1       21 0.12043481E+00 0.17857762E+03</pdfrwt>
<pdfrwt beam="2">  1       21 0.63531191E-02 0.17857762E+03</pdfrwt>
<totfact> 0.94144441E+04</totfact>
</mgrwt>
</event>
<event>
 4    1  0.4382184E+000  0.2301221E+03  0.7546771E-02  0.1126554E+00
         21   -1    0    0  501  502  0.00000000000E+00  0.00000000000E+00  0.39305245356E+02  0.39305245356E+02  0.00000000000E+00 0. -1.
         21   -1    0    0  502  503 -0.00000000000E+00 -0.00000000000E+00 -0.18132761839E+04  0.18132761839E+04  0.00000000000E+00 0.  1.
          6    1    1    2  501    0  0.77515529010E+00  0.15174517406E+03 -0.41742197361E+03  0.47665218217E+03  0.17300000000E+03 0. -1.
         -6    1    1    2    0  503 -0.77515529010E+00 -0.15174517406E+03 -0.13565489649E+04  0.13759292471E+04  0.17300000000E+03 0.  1.
<mgrwt>
<rscale>  2 0.23012214E+03</rscale>
<asrwt>0</asrwt>
<pdfrwt beam="1">  1       21 0.60469605E-02 0.23012214E+03</pdfrwt>
<pdfrwt beam="2">  1       21 0.27896558E+00 0.23012214E+03</pdfrwt>
<totfact> 0.84632273E+03</totfact>
</mgrwt>
</event>
<event>
 4    1  0.4382184E+000  0.1874971E+03  0.7546771E-02  0.1160738E+00
         21   -1    0    0  503  502  0.00000000000E+00  0.00000000000E+00  0.11930584549E+03  0.11930584549E+03  0.00000000000E+00 0. -1.
         21   -1    0    0  501  503 -0.00000000000E+00 -0.00000000000E+00 -0.40262725676E+03  0.40262725676E+03  0.00000000000E+00 0. -1.
          6    1    1    2  501    0  0.17776187522E+02 -0.70072473803E+02 -0.27679672881E+03  0.33432255908E+03  0.17300000000E+03 0. -1.
         -6    1    1    2    0  502 -0.17776187522E+02  0.70072473803E+02 -0.65246824525E+01  0.18761054317E+03  0.17300000000E+03 0. -1.
<mgrwt>
<rscale>  2 0.18749705E+03</rscale>
<asrwt>0</asrwt>
<pdfrwt beam="1">  1       21 0.18354745E-01 0.18749705E+03</pdfrwt>
<pdfrwt beam="2">  1       21 0.61942655E-01 0.18749705E+03</pdfrwt>
<totfact> 0.65664903E+04</totfact>
</mgrwt>
</event>
<event>
 4    1  0.4382184E+000  0.2292364E+03  0.7546771E-02  0.1127178E+00
         21   -1    0    0  501  502  0.00000000000E+00  0.00000000000E+00  0.12477152161E+04  0.12477152161E+04  0.00000000000E+00 0. -1.
         21   -1    0    0  502  503 -0.00000000000E+00 -0.00000000000E+00 -0.47549120372E+02  0.47549120372E+02  0.00000000000E+00 0.  1.
          6    1    1    2  501    0  0.15039927688E+03 -0.60473849387E+00  0.81899260451E+03  0.85046939653E+03  0.17300000000E+03 0.  1.
         -6    1    1    2    0  503 -0.15039927688E+03  0.60473849387E+00  0.38117349125E+03  0.44479493998E+03  0.17300000000E+03 0.  1.
<mgrwt>
<rscale>  2 0.22923636E+03</rscale>
<asrwt>0</asrwt>
<pdfrwt beam="1">  1       21 0.19195616E+00 0.22923636E+03</pdfrwt>
<pdfrwt beam="2">  1       21 0.73152502E-02 0.22923636E+03</pdfrwt>
<totfact> 0.20686449E+04</totfact>
</mgrwt>
</event>
<event>
 4    1  0.4382184E+000  0.1804831E+03  0.7546771E-02  0.1167336E+00
         21   -1    0    0  503  502  0.00000000000E+00  0.00000000000E+00  0.30786950905E+02  0.30786950905E+02  0.00000000000E+00 0. -1.
         21   -1    0    0  501  503 -0.00000000000E+00 -0.00000000000E+00 -0.11351670032E+04  0.11351670032E+04  0.00000000000E+00 0. -1.
          6    1    1    2  501    0  0.15529139754E+02 -0.49030680817E+02 -0.70413767902E+03  0.72690029086E+03  0.17300000000E+03 0. -1.
         -6    1    1    2    0  502 -0.15529139754E+02  0.49030680817E+02 -0.40024237331E+03  0.43905366327E+03  0.17300000000E+03 0. -1.
<mgrwt>
<rscale>  2 0.18048313E+03</rscale>
<asrwt>0</asrwt>
<pdfrwt beam="1">  1       21 0.47364537E-02 0.18048313E+03</pdfrwt>
<pdfrwt beam="2">  1       21 0.17464109E+00 0.18048313E+03</pdfrwt>
<totfact> 0.58807882E+04</totfact>
</mgrwt>
</event>
<event>
 4    1  0.4382184E+000  0.2370880E+03  0.7546771E-02  0.1121748E+00
         21   -1    0    0  503  502  0.00000000000E+00  0.00000000000E+00  0.10080453673E+03  0.10080453673E+03  0.00000000000E+00 0. -1.
         21   -1    0    0  501  503 -0.00000000000E+00 -0.00000000000E+00 -0.61478757211E+03  0.61478757211E+03  0.00000000000E+00 0. -1.
          6    1    1    2  501    0  0.92380904962E+02 -0.13321965168E+03 -0.36609655778E+03  0.43616212217E+03  0.17300000000E+03 0. -1.
         -6    1    1    2    0  502 -0.92380904962E+02  0.13321965168E+03 -0.14788647760E+03  0.27942998667E+03  0.17300000000E+03 0. -1.
<mgrwt>
<rscale>  2 0.23708797E+03</rscale>
<asrwt>0</asrwt>
<pdfrwt beam="1">  1       21 0.15508390E-01 0.23708797E+03</pdfrwt>
<pdfrwt beam="2">  1       21 0.94582703E-01 0.23708797E+03</pdfrwt>
<totfact> 0.33761649E+04</totfact>
</mgrwt>
</event>
<event>
 4    1  0.4382184E+000  0.2413179E+03  0.7546771E-02  0.1118918E+00
         21   -1    0    0  503  502  0.00000000000E+00  0.00000000000E+00  0.55060543212E+03  0.55060543212E+03  0.00000000000E+00 0.  1.
         21   -1    0    0  501  503 -0.00000000000E+00 -0.00000000000E+00 -0.11339695821E+03  0.11339695821E+03  0.00000000000E+00 0. -1.
          6    1    1    2  501    0 -0.14020568476E+03  0.92993106588E+02  0.30473915382E+03  0.38871622527E+03  0.17300000000E+03 0.  1.
         -6    1    1    2    0  502  0.14020568476E+03 -0.92993106588E+02  0.13246932009E+03  0.27528616507E+03  0.17300000000E+03 0. -1.
<mgrwt>
<rscale>  2 0.24131795E+03</rscale>
<asrwt>0</asrwt>
<pdfrwt beam="1">  1       21 0.84708527E-01 0.24131795E+03</pdfrwt>
<pdfrwt beam="2">  1       21 0.17445686E-01 0.24131795E+03</pdfrwt>
<totfact> 0.35051665E+04</totfact>
</mgrwt>
</event>
<event>
 4    1  0.4382184E+000  0.2751541E+03  0.7546771E-02  0.1098365E+00
         21   -1    0    0  501  502  0.00000000000E+00  0.00000000000E+00  0.37988730832E+03  0.37988730832E+03  0.00000000000E+00 0.  1.
         21   -1    0    0  502  503 -0.00000000000E+00 -0.00000000000E+00 -0.24157592619E+03  0.24157592619E+03  0.00000000000E+00 0. -1.
          6    1    1    2  501    0 -0.13442303304E+03  0.16646696017E+03  0.19915130761E+03  0.33966313306E+03  0.17300000000E+03 0.  1.
         -6    1    1    2    0  503  0.13442303304E+03 -0.16646696017E+03 -0.60839925480E+02  0.28180010144E+03  0.17300000000E+03 0. -1.
<mgrwt>
<rscale>  2 0.27515414E+03</rscale>
<asrwt>0</asrwt>
<pdfrwt beam="1">  1       21 0.58444201E-01 0.27515414E+03</pdfrwt>
<pdfrwt beam="2">  1       21 0.37165527E-01 0.27515414E+03</pdfrwt>
<totfact> 0.18325341E+04</totfact>
</mgrwt>
</event>
<event>
 4    1  0.4382184E+000  0.1835086E+03  0.7546771E-02  0.1164450E+00
         21   -1    0    0  503  502  0.00000000000E+00  0.00000000000E+00  0.27010871549E+03  0.27010871549E+03  0.00000000000E+00 0.  1.
         21   -1    0    0  501  503 -0.00000000000E+00 -0.00000000000E+00 -0.13344089569E+03  0.13344089569E+03  0.00000000000E+00 0.  1.
          6    1    1    2  501    0  0.59909788907E+02  0.12539578646E+02  0.12005354880E+03  0.21929039746E+03  0.17300000000E+03 0. -1.
         -6    1    1    2    0  502 -0.59909788907E+02 -0.12539578646E+02  0.16614271001E+02  0.18425921372E+03  0.17300000000E+03 0. -1.
<mgrwt>
<rscale>  2 0.18350865E+03</rscale>
<asrwt>0</asrwt>
<pdfrwt beam="1">  1       21 0.41555187E-01 0.18350865E+03</pdfrwt>
<pdfrwt beam="2">  1       21 0.20529369E-01 0.18350865E+03</pdfrwt>
<totfact> 0.12295534E+05</totfact>
</mgrwt>
</event>
<event>
 4    1  0.4382184E+000  0.3116236E+03  0.7546771E-02  0.1079570E+00
         21   -1    0    0  501  502  0.00000000000E+00  0.00000000000E+00  0.19356459845E+03  0.19356459845E+03  0.00000000000E+00 0. -1.
         21   -1    0    0  502  503 -0.00000000000E+00 -0.00000000000E+00 -0.10117956880E+04  0.10117956880E+04  0.00000000000E+00 0. -1.
          6    1    1    2  501    0 -0.25914947668E+03 -0.46677939251E+01 -0.83704379511E+03  0.89316938735E+03  0.17300000000E+03 0. -1.
         -6    1    1    2    0  503  0.25914947668E+03  0.46677939251E+01  0.18812705603E+02  0.31219089906E+03  0.17300000000E+03 0. -1.
<mgrwt>
<rscale>  2 0.31162355E+03</rscale>
<asrwt>0</asrwt>
<pdfrwt beam="1">  1       21 0.29779169E-01 0.31162355E+03</pdfrwt>
<pdfrwt beam="2">  1       21 0.15566087E+00 0.31162355E+03</pdfrwt>
<totfact> 0.26852137E+03</totfact>
</mgrwt>
</event>
<event>
 4    1  0.4382184E+000  0.2151596E+03  0.7546771E-02  0.1137544E+00
         21   -1    0    0  501  502  0.00000000000E+00  0.00000000000E+00  0.45275088839E+03  0.45275088839E+03  0.00000000000E+00 0.  1.
         21   -1    0    0  502  503 -0.00000000000E+00 -0.00000000000E+00 -0.33566115399E+03  0.33566115399E+03  0.00000000000E+00 0.  1.
          6    1    1    2  501    0 -0.94323756827E+02 -0.86415661514E+02  0.38727067692E+03  0.44302620110E+03  0.17300000000E+03 0.  1.
         -6    1    1    2    0  503  0.94323756827E+02  0.86415661514E+02 -0.27018094252E+03  0.34538584128E+03  0.17300000000E+03 0.  1.
<mgrwt>
<rscale>  2 0.21515956E+03</rscale>
<asrwt>0</asrwt>
<pdfrwt beam="1">  1       21 0.69653983E-01 0.21515956E+03</pdfrwt>
<pdfrwt beam="2">  1       21 0.51640178E-01 0.21515956E+03</pdfrwt>
<totfact> 0.65640533E+03</totfact>
</mgrwt>
</event>
<event>
 4    1  0.4382184E+000  0.1893449E+03  0.7546771E-02  0.1159054E+00
         21   -1    0    0  503  502  0.00000000000E+00  0.00000000000E+00  0.13331071705E+03  0.13331071705E+03  0.00000000000E+00 0.  1.
         21   -1    0    0  501  503 -0.00000000000E+00 -0.00000000000E+00 -0.33461721479E+03  0.33461721479E+03  0.00000000000E+00 0.  1.
          6    1    1    2  501    0  0.72407874742E+02  0.26068727853E+02 -0.20431286838E+03  0.27855919852E+03  0.17300000000E+03 0.  1.
         -6    1    1    2    0  502 -0.72407874742E+02 -0.26068727853E+02  0.30063706397E+01  0.18936873332E+03  0.17300000000E+03 0.  1.
<mgrwt>
<rscale>  2 0.18934487E+03</rscale>
<asrwt>0</asrwt>
<pdfrwt beam="1">  1       21 0.20509341E-01 0.18934487E+03</pdfrwt>
<pdfrwt beam="2">  1       21 0.51479572E-01 0.18934487E+03</pdfrwt>
<totfact> 0.79062865E+04</totfact>
</mgrwt>
</event>
<event>
 4    1  0.4382184E+000  0.2024102E+03  0.7546771E-02  0.1147721E+00
         21   -1    0    0  503  502  0.00000000000E+00  0.00000000000E+00  0.45422269956E+03  0.45422269956E+03  0.00000000000E+00 0.  1.
         21   -1    0    0  501  503 -0.00000000000E+00 -0.00000000000E+00 -0.28247265165E+03  0.28247265165E+03  0.00000000000E+00 0.  1.
          6    1    1    2  501    0  0.47294111615E+02 -0.93830528591E+02 -0.21802514443E+03  0.29749767174E+03  0.17300000000E+03 0.  1.
         -6    1    1    2    0  502 -0.47294111615E+02  0.93830528591E+02  0.38977519233E+03  0.43919767946E+03  0.17300000000E+03 0.  1.
<mgrwt>
<rscale>  2 0.20241023E+03</rscale>
<asrwt>0</asrwt>
<pdfrwt beam="1">  1       21 0.69880415E-01 0.20241023E+03</pdfrwt>
<pdfrwt beam="2">  1       21 0.43457331E-01 0.20241023E+03</pdfrwt>
<totfact> 0.94020095E+03</totfact>
</mgrwt>
</event>
<event>
 4    1  0.4382184E+000  0.1956534E+03  0.7546771E-02  0.1153459E+00
         21   -1    0    0  503  502  0.00000000000E+00  0.00000000000E+00  0.45176044485E+02  0.45176044485E+02  0.00000000000E+00 0.  1.
         21   -1    0    0  501  503 -0.00000000000E+00 -0.00000000000E+00 -0.98562322257E+03  0.98562322257E+03  0.00000000000E+00 0. -1.
          6    1    1    2  501    0 -0.51347474109E+02 -0.75595528738E+02 -0.66326316691E+03  0.69151881800E+03  0.17300000000E+03 0. -1.
         -6    1    1    2    0  502  0.51347474109E+02  0.75595528738E+02 -0.27718401118E+03  0.33928044906E+03  0.17300000000E+03 0.  1.
<mgrwt>
<rscale>  2 0.19565339E+03</rscale>
<asrwt>0</asrwt>
<pdfrwt beam="1">  1       21 0.69501611E-02 0.19565339E+03</pdfrwt>
<pdfrwt beam="2">  1       21 0.15163433E+00 0.19565339E+03</pdfrwt>
<totfact> 0.44408609E+04</totfact>
</mgrwt>
</event>
<event>
 4    1  0.4382184E+000  0.2029839E+03  0.7546771E-02  0.1147246E+00
         21   -1    0    0  503  502  0.00000000000E+00  0.00000000000E+00  0.11692808159E+03  0.11692808159E+03  0.00000000000E+00 0.  1.
         21   -1    0    0  501  503 -0.00000000000E+00 -0.00000000000E+00 -0.38354693705E+03  0.38354693705E+03  0.00000000000E+00 0.  1.
          6    1    1    2  501    0  0.65599116177E+02 -0.83487812387E+02 -0.20464882677E+03  0.28824226123E+03  0.17300000000E+03 0.  1.
         -6    1    1    2    0  502 -0.65599116177E+02  0.83487812387E+02 -0.61970028685E+02  0.21223275740E+03  0.17300000000E+03 0.  1.
<mgrwt>
<rscale>  2 0.20298389E+03</rscale>
<asrwt>0</asrwt>
<pdfrwt beam="1">  1       21 0.17988936E-01 0.20298389E+03</pdfrwt>
<pdfrwt beam="2">  1       21 0.59007220E-01 0.20298389E+03</pdfrwt>
<totfact> 0.75141273E+04</totfact>
</mgrwt>
</event>
<event>
 4    1  0.4382184E+000  0.1859104E+03  0.7546771E-02  0.1162202E+00
         21   -1    0    0  503  502  0.00000000000E+00  0.00000000000E+00  0.25563284492E+03  0.25563284492E+03  0.00000000000E+00 0. -1.
         21   -1    0    0  501  503 -0.00000000000E+00 -0.00000000000E+00 -0.13851663286E+03  0.13851663286E+03  0.00000000000E+00 0. -1.
          6    1    1    2  501    0 -0.25609604841E+02  0.63069861655E+02  0.28082866821E+02  0.18801943176E+03  0.17300000000E+03 0. -1.
         -6    1    1    2    0  502  0.25609604841E+02 -0.63069861655E+02  0.89033345238E+02  0.20613004602E+03  0.17300000000E+03 0. -1.
<mgrwt>
<rscale>  2 0.18591035E+03</rscale>
<asrwt>0</asrwt>
<pdfrwt beam="1">  1       21 0.39328130E-01 0.18591035E+03</pdfrwt>
<pdfrwt beam="2">  1       21 0.21310251E-01 0.18591035E+03</pdfrwt>
<totfact> 0.12804483E+05</totfact>
</mgrwt>
</event>
<event>
 4    1  0.4382184E+000  0.1878336E+03  0.7546771E-02  0.1160430E+00
         21   -1    0    0  503  502  0.00000000000E+00  0.00000000000E+00  0.11155825322E+03  0.11155825322E+03  0.00000000000E+00 0. -1.
         21   -1    0    0  501  503 -0.00000000000E+00 -0.00000000000E+00 -0.35105747743E+03  0.35105747743E+03  0.00000000000E+00 0. -1.
          6    1    1    2  501    0 -0.63248088531E+02 -0.36771252965E+02 -0.19257341344E+03  0.26900922904E+03  0.17300000000E+03 0. -1.
         -6    1    1    2    0  502  0.63248088531E+02  0.36771252965E+02 -0.46925810769E+02  0.19360650160E+03  0.17300000000E+03 0. -1.
<mgrwt>
<rscale>  2 0.18783356E+03</rscale>
<asrwt>0</asrwt>
<pdfrwt beam="1">  1       21 0.17162808E-01 0.18783356E+03</pdfrwt>
<pdfrwt beam="2">  1       21 0.54008843E-01 0.18783356E+03</pdfrwt>
<totfact> 0.99544528E+04</totfact>
</mgrwt>
</event>
<event>
 4    1  0.4382184E+000  0.2169637E+03  0.7546771E-02  0.1136167E+00
         21   -1    0    0  503  502  0.00000000000E+00  0.00000000000E+00  0.55157467780E+03  0.55157467780E+03  0.00000000000E+00 0. -1.
         21   -1    0    0  501  503 -0.00000000000E+00 -0.00000000000E+00 -0.14755776963E+03  0.14755776963E+03  0.00000000000E+00 0.  1.
          6    1    1    2  501    0  0.10542730443E+03 -0.77648713534E+02 -0.24974840573E+02  0.21839638709E+03  0.17300000000E+03 0.  1.
         -6    1    1    2    0  502 -0.10542730443E+03  0.77648713534E+02  0.42899174874E+03  0.48073606035E+03  0.17300000000E+03 0. -1.
<mgrwt>
<rscale>  2 0.21696368E+03</rscale>
<asrwt>0</asrwt>
<pdfrwt beam="1">  1       21 0.84857642E-01 0.21696368E+03</pdfrwt>
<pdfrwt beam="2">  1       21 0.22701196E-01 0.21696368E+03</pdfrwt>
<totfact> 0.21573135E+04</totfact>
</mgrwt>
</event>
<event>
 4    1  0.4382184E+000  0.1823272E+03  0.7546771E-02  0.1165570E+00
         21   -1    0    0  503  502  0.00000000000E+00  0.00000000000E+00  0.19860502277E+03  0.19860502277E+03  0.00000000000E+00 0.  1.
         21   -1    0    0  501  503 -0.00000000000E+00 -0.00000000000E+00 -0.24029319988E+03  0.24029319988E+03  0.00000000000E+00 0. -1.
          6    1    1    2  501    0  0.36250961866E+02 -0.44722115530E+02 -0.14172446421E+03  0.23093077666E+03  0.17300000000E+03 0. -1.
         -6    1    1    2    0  502 -0.36250961866E+02  0.44722115530E+02  0.10003628710E+03  0.20796744599E+03  0.17300000000E+03 0.  1.
<mgrwt>
<rscale>  2 0.18232718E+03</rscale>
<asrwt>0</asrwt>
<pdfrwt beam="1">  1       21 0.30554619E-01 0.18232718E+03</pdfrwt>
<pdfrwt beam="2">  1       21 0.36968185E-01 0.18232718E+03</pdfrwt>
<totfact> 0.72873536E+04</totfact>
</mgrwt>
</event>
<event>
 4    1  0.4382184E+000  0.1791815E+03  0.7546771E-02  0.1168598E+00
         21   -1    0    0  501  502  0.00000000000E+00  0.00000000000E+00  0.78269836057E+03  0.78269836057E+03  0.00000000000E+00 0.  1.
         21   -1    0    0  502  503 -0.00000000000E+00 -0.00000000000E+00 -0.44038619102E+02  0.44038619102E+02  0.00000000000E+00 0.  1.
          6    1    1    2  501    0  0.28354101758E+02  0.37054598308E+02  0.47756074965E+03  0.51006888549E+03  0.17300000000E+03 0.  1.
         -6    1    1    2    0  503 -0.28354101758E+02 -0.37054598308E+02  0.26109899182E+03  0.31666809418E+03  0.17300000000E+03 0.  1.
<mgrwt>
<rscale>  2 0.17918147E+03</rscale>
<asrwt>0</asrwt>
<pdfrwt beam="1">  1       21 0.12041512E+00 0.17918147E+03</pdfrwt>
<pdfrwt beam="2">  1       21 0.67751727E-02 0.17918147E+03</pdfrwt>
<totfact> 0.84307119E+04</totfact>
</mgrwt>
</event>
<event>
 4    1  0.4382184E+000  0.1791404E+03  0.7546771E-02  0.1168638E+00
         21   -1    0    0  501  502  0.00000000000E+00  0.00000000000E+00  0.60871528320E+02  0.60871528320E+02  0.00000000000E+00 0.  1.
         21   -1    0    0  502  503 -0.00000000000E+00 -0.00000000000E+00 -0.52952726253E+03  0.52952726253E+03  0.00000000000E+00 0.  1.
          6    1    1    2  501    0 -0.40515285862E+02 -0.22821283808E+02 -0.21474596176E+03  0.27965537269E+03  0.17300000000E+03 0. -1.
         -6    1    1    2    0  503  0.40515285862E+02  0.22821283808E+02 -0.25390977246E+03  0.31074341816E+03  0.17300000000E+03 0. -1.
<mgrwt>
<rscale>  2 0.17914045E+03</rscale>
<asrwt>0</asrwt>
<pdfrwt beam="1">  1       21 0.93648507E-02 0.17914045E+03</pdfrwt>
<pdfrwt beam="2">  1       21 0.81465731E-01 0.17914045E+03</pdfrwt>
<totfact> 0.12084872E+05</totfact>
</mgrwt>
</event>
<event>
 4    1  0.4382184E+000  0.2866897E+03  0.7546771E-02  0.1092090E+00
         21   -1    0    0  501  502  0.00000000000E+00  0.00000000000E+00  0.40344377057E+03  0.40344377057E+03  0.00000000000E+00 0.  1.
         21   -1    0    0  502  503 -0.00000000000E+00 -0.00000000000E+00 -0.97040304363E+03  0.97040304363E+03  0.00000000000E+00 0. -1.
          6    1    1    2  501    0 -0.20407032777E+03  0.10304028299E+03  0.32709556712E+03  0.43495115660E+03  0.17300000000E+03 0.  1.
         -6    1    1    2    0  503  0.20407032777E+03 -0.10304028299E+03 -0.89405484019E+03  0.93889565760E+03  0.17300000000E+03 0. -1.
<mgrwt>
<rscale>  2 0.28668973E+03</rscale>
<asrwt>0</asrwt>
<pdfrwt beam="1">  1       21 0.62068273E-01 0.28668973E+03</pdfrwt>
<pdfrwt beam="2">  1       21 0.14929278E+00 0.28668973E+03</pdfrwt>
<totfact> 0.66956086E+02</totfact>
</mgrwt>
</event>
<event>
 4    1  0.4382184E+000  0.1990127E+03  0.7546771E-02  0.1150575E+00
         21   -1    0    0  501  502  0.00000000000E+00  0.00000000000E+00  0.80126121697E+03  0.80126121697E+03  0.00000000000E+00 0. -1.
         21   -1    0    0  502  503 -0.00000000000E+00 -0.00000000000E+00 -0.65751069379E+02  0.65751069379E+02  0.00000000000E+00 0. -1.
          6    1    1    2  501    0  0.91979712855E+02  0.34882268697E+02  0.58373986011E+03  0.61673192274E+03  0.17300000000E+03 0. -1.
         -6    1    1    2    0  503 -0.91979712855E+02 -0.34882268697E+02  0.15177028748E+03  0.25028036361E+03  0.17300000000E+03 0. -1.
<mgrwt>
<rscale>  2 0.19901266E+03</rscale>
<asrwt>0</asrwt>
<pdfrwt beam="1">  1       21 0.12327095E+00 0.19901266E+03</pdfrwt>
<pdfrwt beam="2">  1       21 0.10115550E-01 0.19901266E+03</pdfrwt>
<totfact> 0.39133060E+04</totfact>
</mgrwt>
</event>
<event>
 4    1  0.4382184E+000  0.1782966E+03  0.7546771E-02  0.1169462E+00
         21   -1    0    0  503  502  0.00000000000E+00  0.00000000000E+00  0.13878415237E+03  0.13878415237E+03  0.00000000000E+00 0.  1.
         21   -1    0    0  501  503 -0.00000000000E+00 -0.00000000000E+00 -0.30752002562E+03  0.30752002562E+03  0.00000000000E+00 0.  1.
          6    1    1    2  501    0  0.22967605087E+02 -0.36512675665E+02 -0.19708578695E+03  0.26576774406E+03  0.17300000000E+03 0.  1.
         -6    1    1    2    0  502 -0.22967605087E+02  0.36512675665E+02  0.28349913699E+02  0.18053643393E+03  0.17300000000E+03 0.  1.
<mgrwt>
<rscale>  2 0.17829662E+03</rscale>
<asrwt>0</asrwt>
<pdfrwt beam="1">  1       21 0.21351408E-01 0.17829662E+03</pdfrwt>
<pdfrwt beam="2">  1       21 0.47310773E-01 0.17829662E+03</pdfrwt>
<totfact> 0.87780021E+04</totfact>
</mgrwt>
</event>
<event>
 4    1  0.4382184E+000  0.1746803E+03  0.7546771E-02  0.1173053E+00
         21   -1    0    0  503  502  0.00000000000E+00  0.00000000000E+00  0.68842829565E+02  0.68842829565E+02  0.00000000000E+00 0. -1.
         21   -1    0    0  501  503 -0.00000000000E+00 -0.00000000000E+00 -0.51902054944E+03  0.51902054944E+03  0.00000000000E+00 0. -1.
          6    1    1    2  501    0 -0.94783528426E+01  0.22234156938E+02 -0.33741015357E+03  0.37994579697E+03  0.17300000000E+03 0. -1.
         -6    1    1    2    0  502  0.94783528426E+01 -0.22234156938E+02 -0.11276756631E+03  0.20791758203E+03  0.17300000000E+03 0. -1.
<mgrwt>
<rscale>  2 0.17468027E+03</rscale>
<asrwt>0</asrwt>
<pdfrwt beam="1">  1       21 0.10591205E-01 0.17468027E+03</pdfrwt>
<pdfrwt beam="2">  1       21 0.79849311E-01 0.17468027E+03</pdfrwt>
<totfact> 0.10196748E+05</totfact>
</mgrwt>
</event>
<event>
 4    1  0.4382184E+000  0.2792613E+03  0.7546771E-02  0.1096093E+00
         21   -1    0    0  501  502  0.00000000000E+00  0.00000000000E+00  0.23523094452E+03  0.23523094452E+03  0.00000000000E+00 0.  1.
         21   -1    0    0  502  503 -0.00000000000E+00 -0.00000000000E+00 -0.54211132484E+03  0.54211132484E+03  0.00000000000E+00 0. -1.
          6    1    1    2  501    0 -0.21242300433E+03  0.54169700196E+02  0.88799097897E+02  0.29303953483E+03  0.17300000000E+03 0.  1.
         -6    1    1    2    0  503  0.21242300433E+03 -0.54169700196E+02 -0.39567947822E+03  0.48430273453E+03  0.17300000000E+03 0. -1.
<mgrwt>
<rscale>  2 0.27926133E+03</rscale>
<asrwt>0</asrwt>
<pdfrwt beam="1">  1       21 0.36189377E-01 0.27926133E+03</pdfrwt>
<pdfrwt beam="2">  1       21 0.83401741E-01 0.27926133E+03</pdfrwt>
<totfact> 0.87430213E+03</totfact>
</mgrwt>
</event>
<event>
 4    1  0.4382184E+000  0.1855474E+03  0.7546771E-02  0.1162540E+00
         21   -1    0    0  501  502  0.00000000000E+00  0.00000000000E+00  0.18517363350E+03  0.18517363350E+03  0.00000000000E+00 0. -1.
         21   -1    0    0  502  503 -0.00000000000E+00 -0.00000000000E+00 -0.20892438309E+03  0.20892438309E+03  0.00000000000E+00 0. -1.
          6    1    1    2  501    0  0.66968476181E+02  0.37494520049E+01  0.53507946354E+02  0.19310861067E+03  0.17300000000E+03 0. -1.
         -6    1    1    2    0  503 -0.66968476181E+02 -0.37494520049E+01 -0.77258695942E+02  0.20098940592E+03  0.17300000000E+03 0. -1.
<mgrwt>
<rscale>  2 0.18554739E+03</rscale>
<asrwt>0</asrwt>
<pdfrwt beam="1">  1       21 0.28488251E-01 0.18554739E+03</pdfrwt>
<pdfrwt beam="2">  1       21 0.32142213E-01 0.18554739E+03</pdfrwt>
<totfact> 0.10998715E+05</totfact>
</mgrwt>
</event>
<event>
 4    1  0.4382184E+000  0.3240864E+03  0.7546771E-02  0.1073784E+00
         21   -1    0    0  503  502  0.00000000000E+00  0.00000000000E+00  0.16472835228E+03  0.16472835228E+03  0.00000000000E+00 0.  1.
         21   -1    0    0  501  503 -0.00000000000E+00 -0.00000000000E+00 -0.79931475770E+03  0.79931475770E+03  0.00000000000E+00 0. -1.
          6    1    1    2  501    0  0.16961088132E+03  0.21525598579E+03 -0.10048652951E+03  0.33930743153E+03  0.17300000000E+03 0. -1.
         -6    1    1    2    0  502 -0.16961088132E+03 -0.21525598579E+03 -0.53409987591E+03  0.62473567844E+03  0.17300000000E+03 0.  1.
<mgrwt>
<rscale>  2 0.32408639E+03</rscale>
<asrwt>0</asrwt>
<pdfrwt beam="1">  1       21 0.25342824E-01 0.32408639E+03</pdfrwt>
<pdfrwt beam="2">  1       21 0.12297150E+00 0.32408639E+03</pdfrwt>
<totfact> 0.67762698E+03</totfact>
</mgrwt>
</event>
<event>
 4    1  0.4382184E+000  0.2341004E+03  0.7546771E-02  0.1123787E+00
         21   -1    0    0  501  502  0.00000000000E+00  0.00000000000E+00  0.52977234070E+03  0.52977234070E+03  0.00000000000E+00 0.  1.
         21   -1    0    0  502  503 -0.00000000000E+00 -0.00000000000E+00 -0.19912164261E+03  0.19912164261E+03  0.00000000000E+00 0. -1.
          6    1    1    2  501    0  0.14631234777E+03  0.58878632831E+02  0.41794964444E+03  0.47904582432E+03  0.17300000000E+03 0.  1.
         -6    1    1    2    0  503 -0.14631234777E+03 -0.58878632831E+02 -0.87298946360E+02  0.24984815899E+03  0.17300000000E+03 0. -1.
<mgrwt>
<rscale>  2 0.23410040E+03</rscale>
<asrwt>0</asrwt>
<pdfrwt beam="1">  1       21 0.81503437E-01 0.23410040E+03</pdfrwt>
<pdfrwt beam="2">  1       21 0.30634099E-01 0.23410040E+03</pdfrwt>
<totfact> 0.13146278E+04</totfact>
</mgrwt>
</event>
<event>
 4    1  0.4382184E+000  0.2330524E+03  0.7546771E-02  0.1124510E+00
         21   -1    0    0  503  502  0.00000000000E+00  0.00000000000E+00  0.39916059555E+03  0.39916059555E+03  0.00000000000E+00 0.  1.
         21   -1    0    0  501  503 -0.00000000000E+00 -0.00000000000E+00 -0.20341098702E+03  0.20341098702E+03  0.00000000000E+00 0. -1.
          6    1    1    2  501    0 -0.20172517270E+02  0.15484672626E+03 -0.75479232034E+02  0.24497051568E+03  0.17300000000E+03 0. -1.
         -6    1    1    2    0  502  0.20172517270E+02 -0.15484672626E+03  0.27122884057E+03  0.35760106689E+03  0.17300000000E+03 0.  1.
<mgrwt>
<rscale>  2 0.23305244E+03</rscale>
<asrwt>0</asrwt>
<pdfrwt beam="1">  1       21 0.61409322E-01 0.23305244E+03</pdfrwt>
<pdfrwt beam="2">  1       21 0.31293998E-01 0.23305244E+03</pdfrwt>
<totfact> 0.23656261E+04</totfact>
</mgrwt>
</event>
<event>
 4    1  0.4382184E+000  0.1922998E+03  0.7546771E-02  0.1156403E+00
         21   -1    0    0  503  502  0.00000000000E+00  0.00000000000E+00  0.12122018434E+03  0.12122018434E+03  0.00000000000E+00 0.  1.
         21   -1    0    0  501  503 -0.00000000000E+00 -0.00000000000E+00 -0.35759336923E+03  0.35759336923E+03  0.00000000000E+00 0.  1.
          6    1    1    2  501    0 -0.81018858607E+02  0.22048742755E+02 -0.20994948111E+03  0.28470684419E+03  0.17300000000E+03 0.  1.
         -6    1    1    2    0  502  0.81018858607E+02 -0.22048742755E+02 -0.26423703772E+02  0.19410670938E+03  0.17300000000E+03 0.  1.
<mgrwt>
<rscale>  2 0.19229977E+03</rscale>
<asrwt>0</asrwt>
<pdfrwt beam="1">  1       21 0.18649259E-01 0.19229977E+03</pdfrwt>
<pdfrwt beam="2">  1       21 0.55014364E-01 0.19229977E+03</pdfrwt>
<totfact> 0.81982454E+04</totfact>
</mgrwt>
</event>
<event>
 4    1  0.4382184E+000  0.2089293E+03  0.7546771E-02  0.1142417E+00
         21   -1    0    0  501  502  0.00000000000E+00  0.00000000000E+00  0.75862457418E+03  0.75862457418E+03  0.00000000000E+00 0. -1.
         21   -1    0    0  502  503 -0.00000000000E+00 -0.00000000000E+00 -0.64588144472E+02  0.64588144472E+02  0.00000000000E+00 0. -1.
          6    1    1    2  501    0 -0.11626083499E+03 -0.14347880194E+02  0.48298584885E+03  0.52623832396E+03  0.17300000000E+03 0. -1.
         -6    1    1    2    0  503  0.11626083499E+03  0.14347880194E+02  0.21105058086E+03  0.29697439469E+03  0.17300000000E+03 0. -1.
<mgrwt>
<rscale>  2 0.20892928E+03</rscale>
<asrwt>0</asrwt>
<pdfrwt beam="1">  1       21 0.11671147E+00 0.20892928E+03</pdfrwt>
<pdfrwt beam="2">  1       21 0.99366382E-02 0.20892928E+03</pdfrwt>
<totfact> 0.46004070E+04</totfact>
</mgrwt>
</event>
<event>
 4    1  0.4382184E+000  0.2243795E+03  0.7546771E-02  0.1130659E+00
         21   -1    0    0  503  502  0.00000000000E+00  0.00000000000E+00  0.61776121600E+02  0.61776121600E+02  0.00000000000E+00 0. -1.
         21   -1    0    0  501  503 -0.00000000000E+00 -0.00000000000E+00 -0.12106700579E+04  0.12106700579E+04  0.00000000000E+00 0.  1.
          6    1    1    2  501    0 -0.78021145454E+02 -0.11970742868E+03 -0.93817376880E+03  0.96463267002E+03  0.17300000000E+03 0.  1.
         -6    1    1    2    0  502  0.78021145454E+02  0.11970742868E+03 -0.21072016748E+03  0.30781350945E+03  0.17300000000E+03 0. -1.
<mgrwt>
<rscale>  2 0.22437952E+03</rscale>
<asrwt>0</asrwt>
<pdfrwt beam="1">  1       21 0.95040178E-02 0.22437952E+03</pdfrwt>
<pdfrwt beam="2">  1       21 0.18625695E+00 0.22437952E+03</pdfrwt>
<totfact> 0.14317997E+04</totfact>
</mgrwt>
</event>
<event>
 4    1  0.4382184E+000  0.2174412E+03  0.7546771E-02  0.1135805E+00
         21   -1    0    0  503  502  0.00000000000E+00  0.00000000000E+00  0.61449224785E+03  0.61449224785E+03  0.00000000000E+00 0.  1.
         21   -1    0    0  501  503 -0.00000000000E+00 -0.00000000000E+00 -0.86837721906E+02  0.86837721906E+02  0.00000000000E+00 0.  1.
          6    1    1    2  501    0  0.97226137495E+02  0.88874938224E+02  0.14545576305E+03  0.26160668084E+03  0.17300000000E+03 0.  1.
         -6    1    1    2    0  502 -0.97226137495E+02 -0.88874938224E+02  0.38219876289E+03  0.43972328891E+03  0.17300000000E+03 0.  1.
<mgrwt>
<rscale>  2 0.21744120E+03</rscale>
<asrwt>0</asrwt>
<pdfrwt beam="1">  1       21 0.94537266E-01 0.21744120E+03</pdfrwt>
<pdfrwt beam="2">  1       21 0.13359650E-01 0.21744120E+03</pdfrwt>
<totfact> 0.44773007E+04</totfact>
</mgrwt>
</event>
<event>
 4    1  0.4382184E+000  0.1922478E+03  0.7546771E-02  0.1156449E+00
         21   -1    0    0  501  502  0.00000000000E+00  0.00000000000E+00  0.20155895108E+03  0.20155895108E+03  0.00000000000E+00 0.  1.
         21   -1    0    0  502  503 -0.00000000000E+00 -0.00000000000E+00 -0.44604024247E+03  0.44604024247E+03  0.00000000000E+00 0.  1.
          6    1    1    2  501    0 -0.83530080322E+02  0.72766662918E+01  0.12624273501E+03  0.22999228755E+03  0.17300000000E+03 0.  1.
         -6    1    1    2    0  503  0.83530080322E+02 -0.72766662918E+01 -0.37072402640E+03  0.41760690600E+03  0.17300000000E+03 0.  1.
<mgrwt>
<rscale>  2 0.19224782E+03</rscale>
<asrwt>0</asrwt>
<pdfrwt beam="1">  1       21 0.31009070E-01 0.19224782E+03</pdfrwt>
<pdfrwt beam="2">  1       21 0.68621575E-01 0.19224782E+03</pdfrwt>
<totfact> 0.19343814E+04</totfact>
</mgrwt>
</event>
<event>
 4    1  0.4382184E+000  0.1951113E+03  0.7546771E-02  0.1153930E+00
         21   -1    0    0  501  502  0.00000000000E+00  0.00000000000E+00  0.11278334862E+04  0.11278334862E+04  0.00000000000E+00 0. -1.
         21   -1    0    0  502  503 -0.00000000000E+00 -0.00000000000E+00 -0.38867541612E+02  0.38867541612E+02  0.00000000000E+00 0. -1.
          6    1    1    2  501    0 -0.75834578661E+02 -0.48872729419E+02  0.75608237341E+03  0.78085144707E+03  0.17300000000E+03 0. -1.
         -6    1    1    2    0  503  0.75834578661E+02  0.48872729419E+02  0.33288357116E+03  0.38584958073E+03  0.17300000000E+03 0. -1.
<mgrwt>
<rscale>  2 0.19511132E+03</rscale>
<asrwt>0</asrwt>
<pdfrwt beam="1">  1       21 0.17351282E+00 0.19511132E+03</pdfrwt>
<pdfrwt beam="2">  1       21 0.59796226E-02 0.19511132E+03</pdfrwt>
<totfact> 0.39934185E+04</totfact>
</mgrwt>
</event>
<event>
 4    1  0.4382184E+000  0.2151655E+03  0.7546771E-02  0.1137540E+00
         21   -1    0    0  501  502  0.00000000000E+00  0.00000000000E+00  0.23073363493E+03  0.23073363493E+03  0.00000000000E+00 0.  1.
         21   -1    0    0  502  503 -0.00000000000E+00 -0.00000000000E+00 -0.76484759358E+03  0.76484759358E+03  0.00000000000E+00 0.  1.
          6    1    1    2  501    0  0.11101724162E+03 -0.63579641264E+02  0.16048199283E+03  0.26842255632E+03  0.17300000000E+03 0.  1.
         -6    1    1    2    0  503 -0.11101724162E+03  0.63579641264E+02 -0.69459595148E+03  0.72715867218E+03  0.17300000000E+03 0.  1.
<mgrwt>
<rscale>  2 0.21516551E+03</rscale>
<asrwt>0</asrwt>
<pdfrwt beam="1">  1       21 0.35497482E-01 0.21516551E+03</pdfrwt>
<pdfrwt beam="2">  1       21 0.11766886E+00 0.21516551E+03</pdfrwt>
<totfact> 0.41651456E+03</totfact>
</mgrwt>
</event>
<event>
 4    1  0.4382184E+000  0.2102299E+03  0.7546771E-02  0.1141384E+00
         21   -1    0    0  501  502  0.00000000000E+00  0.00000000000E+00  0.35538405969E+02  0.35538405969E+02  0.00000000000E+00 0.  1.
         21   -1    0    0  502  503 -0.00000000000E+00 -0.00000000000E+00 -0.13497222364E+04  0.13497222364E+04  0.00000000000E+00 0. -1.
          6    1    1    2  501    0 -0.10004225213E+03 -0.65262192092E+02 -0.46290392770E+03  0.50840599151E+03  0.17300000000E+03 0.  1.
         -6    1    1    2    0  503  0.10004225213E+03  0.65262192092E+02 -0.85127990272E+03  0.87685465084E+03  0.17300000000E+03 0. -1.
<mgrwt>
<rscale>  2 0.21022989E+03</rscale>
<asrwt>0</asrwt>
<pdfrwt beam="1">  1       21 0.54674477E-02 0.21022989E+03</pdfrwt>
<pdfrwt beam="2">  1       21 0.20764955E+00 0.21022989E+03</pdfrwt>
<totfact> 0.27390121E+04</totfact>
</mgrwt>
</event>
<event>
 4    1  0.4382184E+000  0.1943943E+03  0.7546771E-02  0.1154557E+00
         21   -1    0    0  501  502  0.00000000000E+00  0.00000000000E+00  0.21737777044E+03  0.21737777044E+03  0.00000000000E+00 0.  1.
         21   -1    0    0  502  503 -0.00000000000E+00 -0.00000000000E+00 -0.17742078805E+03  0.17742078805E+03  0.00000000000E+00 0. -1.
          6    1    1    2  501    0  0.17012236362E+02  0.87009927091E+02  0.48018558601E+02  0.20023717329E+03  0.17300000000E+03 0. -1.
         -6    1    1    2    0  503 -0.17012236362E+02 -0.87009927091E+02 -0.80615762037E+01  0.19456138520E+03  0.17300000000E+03 0. -1.
<mgrwt>
<rscale>  2 0.19439430E+03</rscale>
<asrwt>0</asrwt>
<pdfrwt beam="1">  1       21 0.33442734E-01 0.19439430E+03</pdfrwt>
<pdfrwt beam="2">  1       21 0.27295506E-01 0.19439430E+03</pdfrwt>
<totfact> 0.11013910E+05</totfact>
</mgrwt>
</event>
<event>
 4    1  0.4382184E+000  0.1909534E+03  0.7546771E-02  0.1157604E+00
         21   -1    0    0  503  502  0.00000000000E+00  0.00000000000E+00  0.57304444032E+02  0.57304444032E+02  0.00000000000E+00 0. -1.
         21   -1    0    0  501  503 -0.00000000000E+00 -0.00000000000E+00 -0.64962368781E+03  0.64962368781E+03  0.00000000000E+00 0. -1.
          6    1    1    2  501    0  0.53950636395E+02  0.60195799426E+02 -0.34676728391E+03  0.39586709212E+03  0.17300000000E+03 0.  1.
         -6    1    1    2    0  502 -0.53950636395E+02 -0.60195799426E+02 -0.24555195987E+03  0.31106103972E+03  0.17300000000E+03 0.  1.
<mgrwt>
<rscale>  2 0.19095341E+03</rscale>
<asrwt>0</asrwt>
<pdfrwt beam="1">  1       21 0.88160688E-02 0.19095341E+03</pdfrwt>
<pdfrwt beam="2">  1       21 0.99942100E-01 0.19095341E+03</pdfrwt>
<totfact> 0.83328294E+04</totfact>
</mgrwt>
</event>
<event>
 4    1  0.4382184E+000  0.1880313E+03  0.7546771E-02  0.1160249E+00
         21   -1    0    0  501  502  0.00000000000E+00  0.00000000000E+00  0.20629941173E+03  0.20629941173E+03  0.00000000000E+00 0.  1.
         21   -1    0    0  502  503 -0.00000000000E+00 -0.00000000000E+00 -0.18760307934E+03  0.18760307934E+03  0.00000000000E+00 0. -1.
          6    1    1    2  501    0 -0.48692744564E+02  0.55279252124E+02  0.67263469365E+02  0.19970015874E+03  0.17300000000E+03 0.  1.
         -6    1    1    2    0  503  0.48692744564E+02 -0.55279252124E+02 -0.48567136983E+02  0.19420233233E+03  0.17300000000E+03 0. -1.
<mgrwt>
<rscale>  2 0.18803132E+03</rscale>
<asrwt>0</asrwt>
<pdfrwt beam="1">  1       21 0.31738371E-01 0.18803132E+03</pdfrwt>
<pdfrwt beam="2">  1       21 0.28862012E-01 0.18803132E+03</pdfrwt>
<totfact> 0.10984027E+05</totfact>
</mgrwt>
</event>
<event>
 4    1  0.4382184E+000  0.1836493E+03  0.7546771E-02  0.1164317E+00
         21   -1    0    0  503  502  0.00000000000E+00  0.00000000000E+00  0.39212727446E+03  0.39212727446E+03  0.00000000000E+00 0.  1.
         21   -1    0    0  501  503 -0.00000000000E+00 -0.00000000000E+00 -0.18610998491E+03  0.18610998491E+03  0.00000000000E+00 0.  1.
          6    1    1    2  501    0 -0.60853966661E+02  0.97396906194E+01 -0.10902615267E+03  0.21357380176E+03  0.17300000000E+03 0.  1.
         -6    1    1    2    0  502  0.60853966661E+02 -0.97396906194E+01  0.31504344222E+03  0.36466345762E+03  0.17300000000E+03 0.  1.
<mgrwt>
<rscale>  2 0.18364930E+03</rscale>
<asrwt>0</asrwt>
<pdfrwt beam="1">  1       21 0.60327273E-01 0.18364930E+03</pdfrwt>
<pdfrwt beam="2">  1       21 0.28632306E-01 0.18364930E+03</pdfrwt>
<totfact> 0.30028225E+04</totfact>
</mgrwt>
</event>
<event>
 4    1  0.4382184E+000  0.1808163E+03  0.7546771E-02  0.1167015E+00
         21   -1    0    0  501  502  0.00000000000E+00  0.00000000000E+00  0.97077519770E+02  0.97077519770E+02  0.00000000000E+00 0. -1.
         21   -1    0    0  502  503 -0.00000000000E+00 -0.00000000000E+00 -0.48746713152E+03  0.48746713152E+03  0.00000000000E+00 0. -1.
          6    1    1    2  501    0 -0.51571451229E+02 -0.10291493016E+02 -0.32699135781E+02  0.18374918474E+03  0.17300000000E+03 0. -1.
         -6    1    1    2    0  503  0.51571451229E+02  0.10291493016E+02 -0.35769047597E+03  0.40079546655E+03  0.17300000000E+03 0. -1.
<mgrwt>
<rscale>  2 0.18081629E+03</rscale>
<asrwt>0</asrwt>
<pdfrwt beam="1">  1       21 0.14935003E-01 0.18081629E+03</pdfrwt>
<pdfrwt beam="2">  1       21 0.74994945E-01 0.18081629E+03</pdfrwt>
<totfact> 0.63210133E+04</totfact>
</mgrwt>
</event>
<event>
 4    1  0.4382184E+000  0.1741990E+03  0.7546771E-02  0.1173538E+00
         21   -1    0    0  501  502  0.00000000000E+00  0.00000000000E+00  0.39496912759E+02  0.39496912759E+02  0.00000000000E+00 0. -1.
         21   -1    0    0  502  503 -0.00000000000E+00 -0.00000000000E+00 -0.78896497056E+03  0.78896497056E+03  0.00000000000E+00 0. -1.
          6    1    1    2  501    0 -0.10273067302E+02  0.17628450102E+02 -0.30768709388E+03  0.35357693067E+03  0.17300000000E+03 0. -1.
         -6    1    1    2    0  503  0.10273067302E+02 -0.17628450102E+02 -0.44178096392E+03  0.47488495265E+03  0.17300000000E+03 0. -1.
<mgrwt>
<rscale>  2 0.17419902E+03</rscale>
<asrwt>0</asrwt>
<pdfrwt beam="1">  1       21 0.60764475E-02 0.17419902E+03</pdfrwt>
<pdfrwt beam="2">  1       21 0.12137924E+00 0.17419902E+03</pdfrwt>
<totfact> 0.99852477E+04</totfact>
</mgrwt>
</event>
<event>
 4    1  0.4382184E+000  0.1903281E+03  0.7546771E-02  0.1158166E+00
         21   -1    0    0  503  502  0.00000000000E+00  0.00000000000E+00  0.99759226122E+03  0.99759226122E+03  0.00000000000E+00 0. -1.
         21   -1    0    0  501  503 -0.00000000000E+00 -0.00000000000E+00 -0.60686699949E+02  0.60686699949E+02  0.00000000000E+00 0. -1.
          6    1    1    2  501    0  0.43241072820E+02 -0.66528108028E+02  0.13310829028E+03  0.23225545522E+03  0.17300000000E+03 0. -1.
         -6    1    1    2    0  502 -0.43241072820E+02  0.66528108028E+02  0.80379727099E+03  0.82602350596E+03  0.17300000000E+03 0. -1.
<mgrwt>
<rscale>  2 0.19032808E+03</rscale>
<asrwt>0</asrwt>
<pdfrwt beam="1">  1       21 0.15347572E+00 0.19032808E+03</pdfrwt>
<pdfrwt beam="2">  1       21 0.93364161E-02 0.19032808E+03</pdfrwt>
<totfact> 0.25807034E+04</totfact>
</mgrwt>
</event>
<event>
 4    1  0.4382184E+000  0.1734951E+03  0.7546771E-02  0.1174251E+00
         21   -1    0    0  503  502  0.00000000000E+00  0.00000000000E+00  0.22367694420E+03  0.22367694420E+03  0.00000000000E+00 0. -1.
         21   -1    0    0  501  503 -0.00000000000E+00 -0.00000000000E+00 -0.19210389613E+03  0.19210389613E+03  0.00000000000E+00 0. -1.
          6    1    1    2  501    0  0.12613772730E+02 -0.35280160467E+01 -0.97982076164E+02  0.19925120178E+03  0.17300000000E+03 0. -1.
         -6    1    1    2    0  502 -0.12613772730E+02  0.35280160467E+01  0.12955512423E+03  0.21652963856E+03  0.17300000000E+03 0. -1.
<mgrwt>
<rscale>  2 0.17349511E+03</rscale>
<asrwt>0</asrwt>
<pdfrwt beam="1">  1       21 0.34411838E-01 0.17349511E+03</pdfrwt>
<pdfrwt beam="2">  1       21 0.29554445E-01 0.17349511E+03</pdfrwt>
<totfact> 0.89966065E+04</totfact>
</mgrwt>
</event>
<event>
 4    1  0.4382184E+000  0.1876255E+03  0.7546771E-02  0.1160621E+00
         21   -1    0    0  503  502  0.00000000000E+00  0.00000000000E+00  0.53837682367E+02  0.53837682367E+02  0.00000000000E+00 0.  1.
         21   -1    0    0  501  503 -0.00000000000E+00 -0.00000000000E+00 -0.16377700112E+04  0.16377700112E+04  0.00000000000E+00 0.  1.
          6    1    1    2  501    0  0.56777046715E+02 -0.45284627134E+02 -0.14475325740E+04  0.14596416969E+04  0.17300000000E+03 0.  1.
         -6    1    1    2    0  502 -0.56777046715E+02  0.45284627134E+02 -0.13639975477E+03  0.23196599663E+03  0.17300000000E+03 0.  1.
<mgrwt>
<rscale>  2 0.18762551E+03</rscale>
<asrwt>0</asrwt>
<pdfrwt beam="1">  1       21 0.82827211E-02 0.18762551E+03</pdfrwt>
<pdfrwt beam="2">  1       21 0.25196459E+00 0.18762551E+03</pdfrwt>
<totfact> 0.73508888E+03</totfact>
</mgrwt>
</event>
<event>
 4    1  0.4382184E+000  0.1946947E+03  0.7546771E-02  0.1154294E+00
         21   -1    0    0  501  502  0.00000000000E+00  0.00000000000E+00  0.12158869191E+03  0.12158869191E+03  0.00000000000E+00 0. -1.
         21   -1    0    0  502  503 -0.00000000000E+00 -0.00000000000E+00 -0.55558003896E+03  0.55558003896E+03  0.00000000000E+00 0.  1.
          6    1    1    2  501    0 -0.82658505997E+02 -0.33831875700E+02  0.73055775026E+01  0.19483171171E+03  0.17300000000E+03 0. -1.
         -6    1    1    2    0  503  0.82658505997E+02  0.33831875700E+02 -0.44129692455E+03  0.48233701915E+03  0.17300000000E+03 0.  1.
<mgrwt>
<rscale>  2 0.19469470E+03</rscale>
<asrwt>0</asrwt>
<pdfrwt beam="1">  1       21 0.18705953E-01 0.19469470E+03</pdfrwt>
<pdfrwt beam="2">  1       21 0.85473849E-01 0.19469470E+03</pdfrwt>
<totfact> 0.30898189E+04</totfact>
</mgrwt>
</event>
<event>
 4    1  0.4382184E+000  0.3875983E+03  0.7546771E-02  0.1048161E+00
         21   -1    0    0  501  502  0.00000000000E+00  0.00000000000E+00  0.44171645578E+03  0.44171645578E+03  0.00000000000E+00 0. -1.
         21   -1    0    0  502  503 -0.00000000000E+00 -0.00000000000E+00 -0.38618789089E+03  0.38618789089E+03  0.00000000000E+00 0.  1.
          6    1    1    2  501    0  0.11098906745E+03 -0.32861056479E+03  0.17075044645E+03  0.42354243158E+03  0.17300000000E+03 0. -1.
         -6    1    1    2    0  503 -0.11098906745E+03  0.32861056479E+03 -0.11522188157E+03  0.40436191509E+03  0.17300000000E+03 0.  1.
<mgrwt>
<rscale>  2 0.38759834E+03</rscale>
<asrwt>0</asrwt>
<pdfrwt beam="1">  1       21 0.67956378E-01 0.38759834E+03</pdfrwt>
<pdfrwt beam="2">  1       21 0.59413522E-01 0.38759834E+03</pdfrwt>
<totfact> 0.47024193E+03</totfact>
</mgrwt>
</event>
<event>
 4    1  0.4382184E+000  0.2083208E+03  0.7546771E-02  0.1142903E+00
         21   -1    0    0  503  502  0.00000000000E+00  0.00000000000E+00  0.33487670335E+03  0.33487670335E+03  0.00000000000E+00 0. -1.
         21   -1    0    0  501  503 -0.00000000000E+00 -0.00000000000E+00 -0.15710467919E+03  0.15710467919E+03  0.00000000000E+00 0.  1.
          6    1    1    2  501    0 -0.98991385737E+02 -0.60574488639E+02 -0.14054266005E+02  0.20879436179E+03  0.17300000000E+03 0.  1.
         -6    1    1    2    0  502  0.98991385737E+02  0.60574488639E+02  0.19182629016E+03  0.28318702075E+03  0.17300000000E+03 0. -1.
<mgrwt>
<rscale>  2 0.20832082E+03</rscale>
<asrwt>0</asrwt>
<pdfrwt beam="1">  1       21 0.51519493E-01 0.20832082E+03</pdfrwt>
<pdfrwt beam="2">  1       21 0.24169951E-01 0.20832082E+03</pdfrwt>
<totfact> 0.57395316E+04</totfact>
</mgrwt>
</event>
<event>
 4    1  0.4382184E+000  0.3179908E+03  0.7546771E-02  0.1076578E+00
         21   -1    0    0  503  502  0.00000000000E+00  0.00000000000E+00  0.10931728924E+04  0.10931728924E+04  0.00000000000E+00 0.  1.
         21   -1    0    0  501  503 -0.00000000000E+00 -0.00000000000E+00 -0.20879462475E+03  0.20879462475E+03  0.00000000000E+00 0. -1.
          6    1    1    2  501    0 -0.14840872584E+03  0.22172956717E+03 -0.43648218097E+02  0.32097245646E+03  0.17300000000E+03 0. -1.
         -6    1    1    2    0  502  0.14840872584E+03 -0.22172956717E+03  0.92802648572E+03  0.98099506067E+03  0.17300000000E+03 0.  1.
<mgrwt>
<rscale>  2 0.31799080E+03</rscale>
<asrwt>0</asrwt>
<pdfrwt beam="1">  1       21 0.16818044E+00 0.31799080E+03</pdfrwt>
<pdfrwt beam="2">  1       21 0.32122250E-01 0.31799080E+03</pdfrwt>
<totfact> 0.18600253E+03</totfact>
</mgrwt>
</event>
<event>
 4    1  0.4382184E+000  0.2045544E+03  0.7546771E-02  0.1145952E+00
         21   -1    0    0  501  502  0.00000000000E+00  0.00000000000E+00  0.51859660972E+03  0.51859660972E+03  0.00000000000E+00 0.  1.
         21   -1    0    0  502  503 -0.00000000000E+00 -0.00000000000E+00 -0.24717814874E+03  0.24717814874E+03  0.00000000000E+00 0. -1.
          6    1    1    2  501    0  0.10182136457E+03  0.39318058242E+02  0.44995205722E+03  0.49426648054E+03  0.17300000000E+03 0.  1.
         -6    1    1    2    0  503 -0.10182136457E+03 -0.39318058242E+02 -0.17853359625E+03  0.27150827791E+03  0.17300000000E+03 0. -1.
<mgrwt>
<rscale>  2 0.20455439E+03</rscale>
<asrwt>0</asrwt>
<pdfrwt beam="1">  1       21 0.79784093E-01 0.20455439E+03</pdfrwt>
<pdfrwt beam="2">  1       21 0.38027408E-01 0.20455439E+03</pdfrwt>
<totfact> 0.91514576E+03</totfact>
</mgrwt>
</event>
<event>
 4    1  0.4382184E+000  0.1921217E+03  0.7546771E-02  0.1156561E+00
         21   -1    0    0  501  502  0.00000000000E+00  0.00000000000E+00  0.64484029442E+03  0.64484029442E+03  0.00000000000E+00 0. -1.
         21   -1    0    0  502  503 -0.00000000000E+00 -0.00000000000E+00 -0.57984309371E+02  0.57984309371E+02  0.00000000000E+00 0. -1.
          6    1    1    2  501    0 -0.61012249430E+02  0.57089927533E+02  0.33323825522E+03  0.38465372629E+03  0.17300000000E+03 0. -1.
         -6    1    1    2    0  503  0.61012249430E+02 -0.57089927533E+02  0.25361772983E+03  0.31817087750E+03  0.17300000000E+03 0. -1.
<mgrwt>
<rscale>  2 0.19212172E+03</rscale>
<asrwt>0</asrwt>
<pdfrwt beam="1">  1       21 0.99206194E-01 0.19212172E+03</pdfrwt>
<pdfrwt beam="2">  1       21 0.89206634E-02 0.19212172E+03</pdfrwt>
<totfact> 0.83022879E+04</totfact>
</mgrwt>
</event>
<event>
 4    1  0.4382184E+000  0.2048904E+03  0.7546771E-02  0.1145677E+00
         21   -1    0    0  503  502  0.00000000000E+00  0.00000000000E+00  0.23250807109E+03  0.23250807109E+03  0.00000000000E+00 0.  1.
         21   -1    0    0  501  503 -0.00000000000E+00 -0.00000000000E+00 -0.18789495074E+03  0.18789495074E+03  0.00000000000E+00 0.  1.
          6    1    1    2  501    0  0.10603930253E+03  0.28403127853E+02 -0.19244175825E+02  0.20579215159E+03  0.17300000000E+03 0.  1.
         -6    1    1    2    0  502 -0.10603930253E+03 -0.28403127853E+02  0.63857296168E+02  0.21461087024E+03  0.17300000000E+03 0.  1.
<mgrwt>
<rscale>  2 0.20489039E+03</rscale>
<asrwt>0</asrwt>
<pdfrwt beam="1">  1       21 0.35770473E-01 0.20489039E+03</pdfrwt>
<pdfrwt beam="2">  1       21 0.28906915E-01 0.20489039E+03</pdfrwt>
<totfact> 0.85874330E+04</totfact>
</mgrwt>
</event>
<event>
 4    1  0.4382184E+000  0.1844616E+03  0.7546771E-02  0.1163554E+00
         21   -1    0    0  501  502  0.00000000000E+00  0.00000000000E+00  0.67905479022E+03  0.67905479022E+03  0.00000000000E+00 0. -1.
         21   -1    0    0  502  503 -0.00000000000E+00 -0.00000000000E+00 -0.52266535615E+02  0.52266535615E+02  0.00000000000E+00 0. -1.
          6    1    1    2  501    0  0.37063795336E+02 -0.52185947925E+02  0.23908486773E+03  0.30197296578E+03  0.17300000000E+03 0. -1.
         -6    1    1    2    0  503 -0.37063795336E+02  0.52185947925E+02  0.38770338687E+03  0.42934836005E+03  0.17300000000E+03 0. -1.
<mgrwt>
<rscale>  2 0.18446164E+03</rscale>
<asrwt>0</asrwt>
<pdfrwt beam="1">  1       21 0.10446996E+00 0.18446164E+03</pdfrwt>
<pdfrwt beam="2">  1       21 0.80410060E-02 0.18446164E+03</pdfrwt>
<totfact> 0.88269764E+04</totfact>
</mgrwt>
</event>
<event>
 4    1  0.4382184E+000  0.3556199E+03  0.7546771E-02  0.1060332E+00
         21   -1    0    0  501  502  0.00000000000E+00  0.00000000000E+00  0.72709184724E+03  0.72709184724E+03  0.00000000000E+00 0. -1.
         21   -1    0    0  502  503 -0.00000000000E+00 -0.00000000000E+00 -0.17923074070E+03  0.17923074070E+03  0.00000000000E+00 0.  1.
          6    1    1    2  501    0  0.31009072228E+03  0.19499690794E+02  0.35183801760E+03  0.50025541938E+03  0.17300000000E+03 0.  1.
         -6    1    1    2    0  503 -0.31009072228E+03 -0.19499690794E+02  0.19602308894E+03  0.40606716856E+03  0.17300000000E+03 0. -1.
<mgrwt>
<rscale>  2 0.35561987E+03</rscale>
<asrwt>0</asrwt>
<pdfrwt beam="1">  1       21 0.11186028E+00 0.35561987E+03</pdfrwt>
<pdfrwt beam="2">  1       21 0.27573961E-01 0.35561987E+03</pdfrwt>
<totfact> 0.71869014E+03</totfact>
</mgrwt>
</event>
<event>
 4    1  0.4382184E+000  0.2097688E+03  0.7546771E-02  0.1141749E+00
         21   -1    0    0  501  502  0.00000000000E+00  0.00000000000E+00  0.25683395322E+03  0.25683395322E+03  0.00000000000E+00 0. -1.
         21   -1    0    0  502  503 -0.00000000000E+00 -0.00000000000E+00 -0.17350550256E+03  0.17350550256E+03  0.00000000000E+00 0. -1.
          6    1    1    2  501    0  0.10708640452E+03 -0.51053609693E+02  0.17562025818E+02  0.21050271696E+03  0.17300000000E+03 0. -1.
         -6    1    1    2    0  503 -0.10708640452E+03  0.51053609693E+02  0.65766424839E+02  0.21983673881E+03  0.17300000000E+03 0. -1.
<mgrwt>
<rscale>  2 0.20976885E+03</rscale>
<asrwt>0</asrwt>
<pdfrwt beam="1">  1       21 0.39512916E-01 0.20976885E+03</pdfrwt>
<pdfrwt beam="2">  1       21 0.26693154E-01 0.20976885E+03</pdfrwt>
<totfact> 0.81892667E+04</totfact>
</mgrwt>
</event>
<event>
 4    1  0.4382184E+000  0.2650817E+03  0.7546771E-02  0.1104128E+00
         21   -1    0    0  501  502  0.00000000000E+00  0.00000000000E+00  0.88189715291E+02  0.88189715291E+02  0.00000000000E+00 0.  1.
         21   -1    0    0  502  503 -0.00000000000E+00 -0.00000000000E+00 -0.12991738075E+04  0.12991738075E+04  0.00000000000E+00 0. -1.
          6    1    1    2  501    0 -0.19209000203E+03  0.58658029155E+02 -0.17412577949E+03  0.31715630271E+03  0.17300000000E+03 0.  1.
         -6    1    1    2    0  503  0.19209000203E+03 -0.58658029155E+02 -0.10368583127E+04  0.10702072201E+04  0.17300000000E+03 0. -1.
<mgrwt>
<rscale>  2 0.26508175E+03</rscale>
<asrwt>0</asrwt>
<pdfrwt beam="1">  1       21 0.13567650E-01 0.26508175E+03</pdfrwt>
<pdfrwt beam="2">  1       21 0.19987287E+00 0.26508175E+03</pdfrwt>
<totfact> 0.59812581E+03</totfact>
</mgrwt>
</event>
<event>
 4    1  0.4382184E+000  0.1784293E+03  0.7546771E-02  0.1169332E+00
         21   -1    0    0  501  502  0.00000000000E+00  0.00000000000E+00  0.11403257734E+03  0.11403257734E+03  0.00000000000E+00 0. -1.
         21   -1    0    0  502  503 -0.00000000000E+00 -0.00000000000E+00 -0.50521997940E+03  0.50521997940E+03  0.00000000000E+00 0. -1.
          6    1    1    2  501    0  0.55688242048E+01  0.43324200543E+02  0.11505551170E+02  0.17879982065E+03  0.17300000000E+03 0. -1.
         -6    1    1    2    0  503 -0.55688242048E+01 -0.43324200543E+02 -0.40269295322E+03  0.44045273609E+03  0.17300000000E+03 0. -1.
<mgrwt>
<rscale>  2 0.17842925E+03</rscale>
<asrwt>0</asrwt>
<pdfrwt beam="1">  1       21 0.17543474E-01 0.17842925E+03</pdfrwt>
<pdfrwt beam="2">  1       21 0.77726150E-01 0.17842925E+03</pdfrwt>
<totfact> 0.43519040E+04</totfact>
</mgrwt>
</event>
<event>
 4    1  0.4382184E+000  0.3039516E+03  0.7546771E-02  0.1083282E+00
         21   -1    0    0  503  502  0.00000000000E+00  0.00000000000E+00  0.11229716337E+03  0.11229716337E+03  0.00000000000E+00 0. -1.
         21   -1    0    0  501  503 -0.00000000000E+00 -0.00000000000E+00 -0.11832455668E+04  0.11832455668E+04  0.00000000000E+00 0.  1.
          6    1    1    2  501    0 -0.20321064527E+03 -0.14547516182E+03 -0.89304819405E+03  0.94335659533E+03  0.17300000000E+03 0.  1.
         -6    1    1    2    0  502  0.20321064527E+03  0.14547516182E+03 -0.17790020933E+03  0.35218613479E+03  0.17300000000E+03 0. -1.
<mgrwt>
<rscale>  2 0.30395162E+03</rscale>
<asrwt>0</asrwt>
<pdfrwt beam="1">  1       21 0.17276487E-01 0.30395162E+03</pdfrwt>
<pdfrwt beam="2">  1       21 0.18203778E+00 0.30395162E+03</pdfrwt>
<totfact> 0.49283386E+03</totfact>
</mgrwt>
</event>
<event>
 4    1  0.4382184E+000  0.1760765E+03  0.7546771E-02  0.1171655E+00
         21   -1    0    0  503  502  0.00000000000E+00  0.00000000000E+00  0.25521941607E+02  0.25521941607E+02  0.00000000000E+00 0. -1.
         21   -1    0    0  501  503 -0.00000000000E+00 -0.00000000000E+00 -0.12578559412E+04  0.12578559412E+04  0.00000000000E+00 0. -1.
          6    1    1    2  501    0  0.10470873401E+02 -0.31053323343E+02 -0.49738675741E+03  0.52763295436E+03  0.17300000000E+03 0. -1.
         -6    1    1    2    0  502 -0.10470873401E+02  0.31053323343E+02 -0.73494724222E+03  0.75574492848E+03  0.17300000000E+03 0. -1.
<mgrwt>
<rscale>  2 0.17607654E+03</rscale>
<asrwt>0</asrwt>
<pdfrwt beam="1">  1       21 0.39264524E-02 0.17607654E+03</pdfrwt>
<pdfrwt beam="2">  1       21 0.19351630E+00 0.17607654E+03</pdfrwt>
<totfact> 0.60410815E+04</totfact>
</mgrwt>
</event>
<event>
 4    1  0.4382184E+000  0.1790899E+03  0.7546771E-02  0.1168687E+00
         21   -1    0    0  501  502  0.00000000000E+00  0.00000000000E+00  0.10723148222E+04  0.10723148222E+04  0.00000000000E+00 0. -1.
         21   -1    0    0  502  503 -0.00000000000E+00 -0.00000000000E+00 -0.95296518069E+02  0.95296518069E+02  0.00000000000E+00 0. -1.
          6    1    1    2  501    0  0.45689790334E+02 -0.75265336323E+01  0.97209442212E+03  0.98845372737E+03  0.17300000000E+03 0. -1.
         -6    1    1    2    0  503 -0.45689790334E+02  0.75265336323E+01  0.49238820294E+01  0.17915761291E+03  0.17300000000E+03 0. -1.
<mgrwt>
<rscale>  2 0.17908994E+03</rscale>
<asrwt>0</asrwt>
<pdfrwt beam="1">  1       21 0.16497150E+00 0.17908994E+03</pdfrwt>
<pdfrwt beam="2">  1       21 0.14661004E-01 0.17908994E+03</pdfrwt>
<totfact> 0.95768481E+03</totfact>
</mgrwt>
</event>
<event>
 4    1  0.4382184E+000  0.1899187E+03  0.7546771E-02  0.1158535E+00
         21   -1    0    0  503  502  0.00000000000E+00  0.00000000000E+00  0.15913388917E+03  0.15913388917E+03  0.00000000000E+00 0. -1.
         21   -1    0    0  501  503 -0.00000000000E+00 -0.00000000000E+00 -0.75058166981E+03  0.75058166981E+03  0.00000000000E+00 0.  1.
          6    1    1    2  501    0  0.46873216630E+02  0.62793407915E+02 -0.67574724824E+03  0.70192838240E+03  0.17300000000E+03 0.  1.
         -6    1    1    2    0  502 -0.46873216630E+02 -0.62793407915E+02  0.84299467603E+02  0.20778717658E+03  0.17300000000E+03 0. -1.
<mgrwt>
<rscale>  2 0.18991869E+03</rscale>
<asrwt>0</asrwt>
<pdfrwt beam="1">  1       21 0.24482137E-01 0.18991869E+03</pdfrwt>
<pdfrwt beam="2">  1       21 0.11547410E+00 0.18991869E+03</pdfrwt>
<totfact> 0.91677271E+03</totfact>
</mgrwt>
</event>
<event>
 4    1  0.4382184E+000  0.1832015E+03  0.7546771E-02  0.1164740E+00
         21   -1    0    0  501  502  0.00000000000E+00  0.00000000000E+00  0.73715907589E+02  0.73715907589E+02  0.00000000000E+00 0. -1.
         21   -1    0    0  502  503 -0.00000000000E+00 -0.00000000000E+00 -0.53225847859E+03  0.53225847859E+03  0.00000000000E+00 0. -1.
          6    1    1    2  501    0 -0.60280579555E+02 -0.23935041230E+00 -0.11406053128E+03  0.21580688209E+03  0.17300000000E+03 0. -1.
         -6    1    1    2    0  503  0.60280579555E+02  0.23935041230E+00 -0.34448203972E+03  0.39016750409E+03  0.17300000000E+03 0. -1.
<mgrwt>
<rscale>  2 0.18320154E+03</rscale>
<asrwt>0</asrwt>
<pdfrwt beam="1">  1       21 0.11340909E-01 0.18320154E+03</pdfrwt>
<pdfrwt beam="2">  1       21 0.81885921E-01 0.18320154E+03</pdfrwt>
<totfact> 0.85016090E+04</totfact>
</mgrwt>
</event>
<event>
 4    1  0.4382184E+000  0.1946888E+03  0.7546771E-02  0.1154299E+00
         21   -1    0    0  501  502  0.00000000000E+00  0.00000000000E+00  0.51192493255E+03  0.51192493255E+03  0.00000000000E+00 0.  1.
         21   -1    0    0  502  503 -0.00000000000E+00 -0.00000000000E+00 -0.97765139006E+02  0.97765139006E+02  0.00000000000E+00 0.  1.
          6    1    1    2  501    0  0.87594737114E+02 -0.17375284326E+02  0.35724772536E+03  0.40685338361E+03  0.17300000000E+03 0. -1.
         -6    1    1    2    0  503 -0.87594737114E+02  0.17375284326E+02  0.56912068188E+02  0.20283668796E+03  0.17300000000E+03 0. -1.
<mgrwt>
<rscale>  2 0.19468882E+03</rscale>
<asrwt>0</asrwt>
<pdfrwt beam="1">  1       21 0.78757681E-01 0.19468882E+03</pdfrwt>
<pdfrwt beam="2">  1       21 0.15040791E-01 0.19468882E+03</pdfrwt>
<totfact> 0.55564302E+04</totfact>
</mgrwt>
</event>
<event>
 4    1  0.4382184E+000  0.1924394E+03  0.7546771E-02  0.1156279E+00
         21   -1    0    0  503  502  0.00000000000E+00  0.00000000000E+00  0.35685993651E+02  0.35685993651E+02  0.00000000000E+00 0.  1.
         21   -1    0    0  501  503 -0.00000000000E+00 -0.00000000000E+00 -0.10542080389E+04  0.10542080389E+04  0.00000000000E+00 0. -1.
          6    1    1    2  501    0 -0.10295491723E+02 -0.83653525803E+02 -0.57736387797E+03  0.60859013886E+03  0.17300000000E+03 0.  1.
         -6    1    1    2    0  502  0.10295491723E+02  0.83653525803E+02 -0.44115816728E+03  0.48130389370E+03  0.17300000000E+03 0.  1.
<mgrwt>
<rscale>  2 0.19243937E+03</rscale>
<asrwt>0</asrwt>
<pdfrwt beam="1">  1       21 0.54901531E-02 0.19243937E+03</pdfrwt>
<pdfrwt beam="2">  1       21 0.16218585E+00 0.19243937E+03</pdfrwt>
<totfact> 0.55683491E+04</totfact>
</mgrwt>
</event>
<event>
 4    1  0.4382184E+000  0.1864222E+03  0.7546771E-02  0.1161728E+00
         21   -1    0    0  503  502  0.00000000000E+00  0.00000000000E+00  0.16335636548E+03  0.16335636548E+03  0.00000000000E+00 0.  1.
         21   -1    0    0  501  503 -0.00000000000E+00 -0.00000000000E+00 -0.22063115626E+03  0.22063115626E+03  0.00000000000E+00 0.  1.
          6    1    1    2  501    0  0.85154881208E+01 -0.68932669780E+02 -0.64936034341E+02  0.19740799137E+03  0.17300000000E+03 0.  1.
         -6    1    1    2    0  502 -0.85154881208E+01  0.68932669780E+02  0.76612435613E+01  0.18657953037E+03  0.17300000000E+03 0.  1.
<mgrwt>
<rscale>  2 0.18642217E+03</rscale>
<asrwt>0</asrwt>
<pdfrwt beam="1">  1       21 0.25131748E-01 0.18642217E+03</pdfrwt>
<pdfrwt beam="2">  1       21 0.33943255E-01 0.18642217E+03</pdfrwt>
<totfact> 0.12566389E+05</totfact>
</mgrwt>
</event>
<event>
 4    1  0.4382184E+000  0.2356024E+03  0.7546771E-02  0.1122758E+00
         21   -1    0    0  503  502  0.00000000000E+00  0.00000000000E+00  0.53279379028E+02  0.53279379028E+02  0.00000000000E+00 0. -1.
         21   -1    0    0  501  503 -0.00000000000E+00 -0.00000000000E+00 -0.12896816402E+04  0.12896816402E+04  0.00000000000E+00 0. -1.
          6    1    1    2  501    0  0.60716441097E+02 -0.14796288831E+03 -0.91256242193E+03  0.94248537202E+03  0.17300000000E+03 0. -1.
         -6    1    1    2    0  502 -0.60716441097E+02  0.14796288831E+03 -0.32383983927E+03  0.40047564724E+03  0.17300000000E+03 0. -1.
<mgrwt>
<rscale>  2 0.23560242E+03</rscale>
<asrwt>0</asrwt>
<pdfrwt beam="1">  1       21 0.81968277E-02 0.23560242E+03</pdfrwt>
<pdfrwt beam="2">  1       21 0.19841256E+00 0.23560242E+03</pdfrwt>
<totfact> 0.15320223E+04</totfact>
</mgrwt>
</event>
<event>
 4    1  0.4382184E+000  0.1918355E+03  0.7546771E-02  0.1156816E+00
         21   -1    0    0  501  502  0.00000000000E+00  0.00000000000E+00  0.22987814612E+03  0.22987814612E+03  0.00000000000E+00 0.  1.
         21   -1    0    0  502  503 -0.00000000000E+00 -0.00000000000E+00 -0.35404019066E+03  0.35404019066E+03  0.00000000000E+00 0.  1.
          6    1    1    2  501    0  0.68201138513E+02 -0.47121816624E+02  0.15401290133E+03  0.24600982638E+03  0.17300000000E+03 0.  1.
         -6    1    1    2    0  503 -0.68201138513E+02  0.47121816624E+02 -0.27817494587E+03  0.33790851041E+03  0.17300000000E+03 0.  1.
<mgrwt>
<rscale>  2 0.19183550E+03</rscale>
<asrwt>0</asrwt>
<pdfrwt beam="1">  1       21 0.35365869E-01 0.19183550E+03</pdfrwt>
<pdfrwt beam="2">  1       21 0.54467721E-01 0.19183550E+03</pdfrwt>
<totfact> 0.24556251E+04</totfact>
</mgrwt>
</event>
<event>
 4    1  0.4382184E+000  0.1847259E+03  0.7546771E-02  0.1163306E+00
         21   -1    0    0  503  502  0.00000000000E+00  0.00000000000E+00  0.26096608114E+03  0.26096608114E+03  0.00000000000E+00 0.  1.
         21   -1    0    0  501  503 -0.00000000000E+00 -0.00000000000E+00 -0.19530734991E+03  0.19530734991E+03  0.00000000000E+00 0. -1.
          6    1    1    2  501    0  0.63399227952E+02 -0.13236325700E+02 -0.98323710519E+02  0.20926350488E+03  0.17300000000E+03 0.  1.
         -6    1    1    2    0  502 -0.63399227952E+02  0.13236325700E+02  0.16398244175E+03  0.24700992617E+03  0.17300000000E+03 0.  1.
<mgrwt>
<rscale>  2 0.18472591E+03</rscale>
<asrwt>0</asrwt>
<pdfrwt beam="1">  1       21 0.40148628E-01 0.18472591E+03</pdfrwt>
<pdfrwt beam="2">  1       21 0.30047285E-01 0.18472591E+03</pdfrwt>
<totfact> 0.63732249E+04</totfact>
</mgrwt>
</event>
<event>
 4    1  0.4382184E+000  0.1741581E+03  0.7546771E-02  0.1173580E+00
         21   -1    0    0  503  502  0.00000000000E+00  0.00000000000E+00  0.34308350979E+03  0.34308350979E+03  0.00000000000E+00 0.  1.
         21   -1    0    0  501  503 -0.00000000000E+00 -0.00000000000E+00 -0.10357600966E+03  0.10357600966E+03  0.00000000000E+00 0.  1.
          6    1    1    2  501    0 -0.16565056963E+02  0.11298369405E+02  0.34287886167E+02  0.17750130535E+03  0.17300000000E+03 0.  1.
         -6    1    1    2    0  502  0.16565056963E+02 -0.11298369405E+02  0.20521961396E+03  0.26915821410E+03  0.17300000000E+03 0.  1.
<mgrwt>
<rscale>  2 0.17415813E+03</rscale>
<asrwt>0</asrwt>
<pdfrwt beam="1">  1       21 0.52782078E-01 0.17415813E+03</pdfrwt>
<pdfrwt beam="2">  1       21 0.15934771E-01 0.17415813E+03</pdfrwt>
<totfact> 0.12031068E+05</totfact>
</mgrwt>
</event>
<event>
 4    1  0.4382184E+000  0.1785303E+03  0.7546771E-02  0.1169233E+00
         21   -1    0    0  503  502  0.00000000000E+00  0.00000000000E+00  0.23119405560E+03  0.23119405560E+03  0.00000000000E+00 0.  1.
         21   -1    0    0  501  503 -0.00000000000E+00 -0.00000000000E+00 -0.23240835789E+03  0.23240835789E+03  0.00000000000E+00 0.  1.
          6    1    1    2  501    0  0.52389548646E+01  0.43779327711E+02 -0.14845337056E+03  0.23218845667E+03  0.17300000000E+03 0.  1.
         -6    1    1    2    0  502 -0.52389548646E+01 -0.43779327711E+02  0.14723906827E+03  0.23141395682E+03  0.17300000000E+03 0.  1.
<mgrwt>
<rscale>  2 0.17853032E+03</rscale>
<asrwt>0</asrwt>
<pdfrwt beam="1">  1       21 0.35568316E-01 0.17853032E+03</pdfrwt>
<pdfrwt beam="2">  1       21 0.35755132E-01 0.17853032E+03</pdfrwt>
<totfact> 0.57852845E+04</totfact>
</mgrwt>
</event>
<event>
 4    1  0.4382184E+000  0.1759223E+03  0.7546771E-02  0.1171809E+00
         21   -1    0    0  503  502  0.00000000000E+00  0.00000000000E+00  0.11772822251E+03  0.11772822251E+03  0.00000000000E+00 0. -1.
         21   -1    0    0  501  503 -0.00000000000E+00 -0.00000000000E+00 -0.41878569143E+03  0.41878569143E+03  0.00000000000E+00 0. -1.
          6    1    1    2  501    0  0.10738620427E+02  0.30072065632E+02 -0.31420400982E+03  0.36010110648E+03  0.17300000000E+03 0.  1.
         -6    1    1    2    0  502 -0.10738620427E+02 -0.30072065632E+02  0.13146540905E+02  0.17641280747E+03  0.17300000000E+03 0.  1.
<mgrwt>
<rscale>  2 0.17592228E+03</rscale>
<asrwt>0</asrwt>
<pdfrwt beam="1">  1       21 0.18112034E-01 0.17592228E+03</pdfrwt>
<pdfrwt beam="2">  1       21 0.64428567E-01 0.17592228E+03</pdfrwt>
<totfact> 0.62132603E+04</totfact>
</mgrwt>
</event>
<event>
 4    1  0.4382184E+000  0.2430530E+03  0.7546771E-02  0.1117776E+00
         21   -1    0    0  503  502  0.00000000000E+00  0.00000000000E+00  0.18769792954E+03  0.18769792954E+03  0.00000000000E+00 0. -1.
         21   -1    0    0  501  503 -0.00000000000E+00 -0.00000000000E+00 -0.79158645709E+03  0.79158645709E+03  0.00000000000E+00 0.  1.
          6    1    1    2  501    0 -0.15543913204E+03  0.70600666643E+02 -0.68197788019E+03  0.72399489430E+03  0.17300000000E+03 0.  1.
         -6    1    1    2    0  502  0.15543913204E+03 -0.70600666643E+02  0.78089352634E+02  0.25528949233E+03  0.17300000000E+03 0. -1.
<mgrwt>
<rscale>  2 0.24305304E+03</rscale>
<asrwt>0</asrwt>
<pdfrwt beam="1">  1       21 0.28876605E-01 0.24305304E+03</pdfrwt>
<pdfrwt beam="2">  1       21 0.12178253E+00 0.24305304E+03</pdfrwt>
<totfact> 0.56328111E+03</totfact>
</mgrwt>
</event>
<event>
 4    1  0.4382184E+000  0.2034193E+03  0.7546771E-02  0.1146886E+00
         21   -1    0    0  501  502  0.00000000000E+00  0.00000000000E+00  0.43144436640E+03  0.43144436640E+03  0.00000000000E+00 0.  1.
         21   -1    0    0  502  503 -0.00000000000E+00 -0.00000000000E+00 -0.10720060868E+03  0.10720060868E+03  0.00000000000E+00 0. -1.
          6    1    1    2  501    0 -0.10287530927E+03  0.29445997002E+02  0.24953003893E+03  0.32193887048E+03  0.17300000000E+03 0.  1.
         -6    1    1    2    0  503  0.10287530927E+03 -0.29445997002E+02  0.74713718787E+02  0.21670610460E+03  0.17300000000E+03 0. -1.
<mgrwt>
<rscale>  2 0.20341926E+03</rscale>
<asrwt>0</asrwt>
<pdfrwt beam="1">  1       21 0.66376055E-01 0.20341926E+03</pdfrwt>
<pdfrwt beam="2">  1       21 0.16492402E-01 0.20341926E+03</pdfrwt>
<totfact> 0.68341938E+04</totfact>
</mgrwt>
</event>
<event>
 4    1  0.4382184E+000  0.3042927E+03  0.7546771E-02  0.1083114E+00
         21   -1    0    0  503  502  0.00000000000E+00  0.00000000000E+00  0.11891788446E+04  0.11891788446E+04  0.00000000000E+00 0.  1.
         21   -1    0    0  501  503 -0.00000000000E+00 -0.00000000000E+00 -0.11431502632E+03  0.11431502632E+03  0.00000000000E+00 0. -1.
          6    1    1    2  501    0 -0.23369684205E+03 -0.89726365226E+02  0.16940196611E+03  0.34826866170E+03  0.17300000000E+03 0.  1.
         -6    1    1    2    0  502  0.23369684205E+03  0.89726365226E+02  0.90546185222E+03  0.95522520927E+03  0.17300000000E+03 0. -1.
<mgrwt>
<rscale>  2 0.30429268E+03</rscale>
<asrwt>0</asrwt>
<pdfrwt beam="1">  1       21 0.18295058E+00 0.30429268E+03</pdfrwt>
<pdfrwt beam="2">  1       21 0.17586928E-01 0.30429268E+03</pdfrwt>
<totfact> 0.46980971E+03</totfact>
</mgrwt>
</event>
<event>
 4    1  0.4382184E+000  0.1862053E+03  0.7546771E-02  0.1161929E+00
         21   -1    0    0  503  502  0.00000000000E+00  0.00000000000E+00  0.71546640902E+02  0.71546640902E+02  0.00000000000E+00 0.  1.
         21   -1    0    0  501  503 -0.00000000000E+00 -0.00000000000E+00 -0.58896420134E+03  0.58896420134E+03  0.00000000000E+00 0.  1.
          6    1    1    2  501    0  0.67890121708E+02  0.11590323390E+02 -0.39772166284E+03  0.43915250803E+03  0.17300000000E+03 0.  1.
         -6    1    1    2    0  502 -0.67890121708E+02 -0.11590323390E+02 -0.11969589760E+03  0.22135833421E+03  0.17300000000E+03 0.  1.
<mgrwt>
<rscale>  2 0.18620527E+03</rscale>
<asrwt>0</asrwt>
<pdfrwt beam="1">  1       21 0.11007175E-01 0.18620527E+03</pdfrwt>
<pdfrwt beam="2">  1       21 0.90609878E-01 0.18620527E+03</pdfrwt>
<totfact> 0.71003227E+04</totfact>
</mgrwt>
</event>
<event>
 4    1  0.4382184E+000  0.1908467E+03  0.7546771E-02  0.1157700E+00
         21   -1    0    0  501  502  0.00000000000E+00  0.00000000000E+00  0.14518991865E+04  0.14518991865E+04  0.00000000000E+00 0.  1.
         21   -1    0    0  502  503 -0.00000000000E+00 -0.00000000000E+00 -0.28893767219E+02  0.28893767219E+02  0.00000000000E+00 0. -1.
          6    1    1    2  501    0  0.47202468618E+02 -0.65309906502E+02  0.98028025221E+03  0.99868505035E+03  0.17300000000E+03 0.  1.
         -6    1    1    2    0  503 -0.47202468618E+02  0.65309906502E+02  0.44272516711E+03  0.48210790340E+03  0.17300000000E+03 0. -1.
<mgrwt>
<rscale>  2 0.19084668E+03</rscale>
<asrwt>0</asrwt>
<pdfrwt beam="1">  1       21 0.22336905E+00 0.19084668E+03</pdfrwt>
<pdfrwt beam="2">  1       21 0.44451961E-02 0.19084668E+03</pdfrwt>
<totfact> 0.31525371E+04</totfact>
</mgrwt>
</event>
<event>
 4    1  0.4382184E+000  0.1905480E+03  0.7546771E-02  0.1157968E+00
         21   -1    0    0  503  502  0.00000000000E+00  0.00000000000E+00  0.38931457581E+03  0.38931457581E+03  0.00000000000E+00 0. -1.
         21   -1    0    0  501  503 -0.00000000000E+00 -0.00000000000E+00 -0.93415648537E+02  0.93415648537E+02  0.00000000000E+00 0. -1.
          6    1    1    2  501    0  0.15854396534E+02 -0.78282570327E+02  0.15771640160E+03  0.24735194772E+03  0.17300000000E+03 0. -1.
         -6    1    1    2    0  502 -0.15854396534E+02  0.78282570327E+02  0.13818252567E+03  0.23537827663E+03  0.17300000000E+03 0. -1.
<mgrwt>
<rscale>  2 0.19054795E+03</rscale>
<asrwt>0</asrwt>
<pdfrwt beam="1">  1       21 0.59894549E-01 0.19054795E+03</pdfrwt>
<pdfrwt beam="2">  1       21 0.14371638E-01 0.19054795E+03</pdfrwt>
<totfact> 0.11037620E+05</totfact>
</mgrwt>
</event>
<event>
 4    1  0.4382184E+000  0.1820645E+03  0.7546771E-02  0.1165820E+00
         21   -1    0    0  503  502  0.00000000000E+00  0.00000000000E+00  0.70307953205E+02  0.70307953205E+02  0.00000000000E+00 0. -1.
         21   -1    0    0  501  503 -0.00000000000E+00 -0.00000000000E+00 -0.50836346702E+03  0.50836346702E+03  0.00000000000E+00 0. -1.
          6    1    1    2  501    0  0.47138928375E+02 -0.31565707958E+02 -0.29698228615E+03  0.34834745697E+03  0.17300000000E+03 0. -1.
         -6    1    1    2    0  502 -0.47138928375E+02  0.31565707958E+02 -0.14107322766E+03  0.23032396326E+03  0.17300000000E+03 0. -1.
<mgrwt>
<rscale>  2 0.18206447E+03</rscale>
<asrwt>0</asrwt>
<pdfrwt beam="1">  1       21 0.10816609E-01 0.18206447E+03</pdfrwt>
<pdfrwt beam="2">  1       21 0.78209762E-01 0.18206447E+03</pdfrwt>
<totfact> 0.10262310E+05</totfact>
</mgrwt>
</event>
<event>
 4    1  0.4382184E+000  0.2403346E+03  0.7546771E-02  0.1119570E+00
         21   -1    0    0  503  502  0.00000000000E+00  0.00000000000E+00  0.16314193729E+03  0.16314193729E+03  0.00000000000E+00 0. -1.
         21   -1    0    0  501  503 -0.00000000000E+00 -0.00000000000E+00 -0.42907652043E+03  0.42907652043E+03  0.00000000000E+00 0.  1.
          6    1    1    2  501    0  0.16580663728E+03  0.18435204556E+02 -0.25678613418E+03  0.35170984695E+03  0.17300000000E+03 0. -1.
         -6    1    1    2    0  502 -0.16580663728E+03 -0.18435204556E+02 -0.91484489556E+01  0.24050861077E+03  0.17300000000E+03 0.  1.
<mgrwt>
<rscale>  2 0.24033455E+03</rscale>
<asrwt>0</asrwt>
<pdfrwt beam="1">  1       21 0.25098760E-01 0.24033455E+03</pdfrwt>
<pdfrwt beam="2">  1       21 0.66011772E-01 0.24033455E+03</pdfrwt>
<totfact> 0.30916880E+04</totfact>
</mgrwt>
</event>
<event>
 4    1  0.4382184E+000  0.1878532E+03  0.7546771E-02  0.1160412E+00
         21   -1    0    0  503  502  0.00000000000E+00  0.00000000000E+00  0.18698905351E+03  0.18698905351E+03  0.00000000000E+00 0.  1.
         21   -1    0    0  501  503 -0.00000000000E+00 -0.00000000000E+00 -0.20879821498E+03  0.20879821498E+03  0.00000000000E+00 0.  1.
          6    1    1    2  501    0 -0.31944335171E+02  0.65874016020E+02 -0.72268965890E+02  0.20127501079E+03  0.17300000000E+03 0.  1.
         -6    1    1    2    0  502  0.31944335171E+02 -0.65874016020E+02  0.50459804415E+02  0.19451225771E+03  0.17300000000E+03 0.  1.
<mgrwt>
<rscale>  2 0.18785320E+03</rscale>
<asrwt>0</asrwt>
<pdfrwt beam="1">  1       21 0.28767547E-01 0.18785320E+03</pdfrwt>
<pdfrwt beam="2">  1       21 0.32122802E-01 0.18785320E+03</pdfrwt>
<totfact> 0.10796707E+05</totfact>
</mgrwt>
</event>
<event>
 4    1  0.4382184E+000  0.1956874E+03  0.7546771E-02  0.1153429E+00
         21   -1    0    0  503  502  0.00000000000E+00  0.00000000000E+00  0.64798896356E+03  0.64798896356E+03  0.00000000000E+00 0. -1.
         21   -1    0    0  501  503 -0.00000000000E+00 -0.00000000000E+00 -0.10715105365E+03  0.10715105365E+03  0.00000000000E+00 0. -1.
          6    1    1    2  501    0 -0.79080581563E+02  0.45943532788E+02  0.17565516236E+02  0.19647415592E+03  0.17300000000E+03 0. -1.
         -6    1    1    2    0  502  0.79080581563E+02 -0.45943532788E+02  0.52327239367E+03  0.55866586129E+03  0.17300000000E+03 0. -1.
<mgrwt>
<rscale>  2 0.19568737E+03</rscale>
<asrwt>0</asrwt>
<pdfrwt beam="1">  1       21 0.99690607E-01 0.19568737E+03</pdfrwt>
<pdfrwt beam="2">  1       21 0.16484778E-01 0.19568737E+03</pdfrwt>
<totfact> 0.27253689E+04</totfact>
</mgrwt>
</event>
<event>
 4    1  0.4382184E+000  0.1873037E+03  0.7546771E-02  0.1160916E+00
         21   -1    0    0  501  502  0.00000000000E+00  0.00000000000E+00  0.42870270611E+03  0.42870270611E+03  0.00000000000E+00 0. -1.
         21   -1    0    0  502  503 -0.00000000000E+00 -0.00000000000E+00 -0.90382838588E+02  0.90382838588E+02  0.00000000000E+00 0. -1.
          6    1    1    2  501    0 -0.89264200171E+01 -0.71232011972E+02  0.24897893354E+03  0.31156570712E+03  0.17300000000E+03 0. -1.
         -6    1    1    2    0  503  0.89264200171E+01  0.71232011972E+02  0.89340933976E+02  0.20751983758E+03  0.17300000000E+03 0. -1.
<mgrwt>
<rscale>  2 0.18730371E+03</rscale>
<asrwt>0</asrwt>
<pdfrwt beam="1">  1       21 0.65954261E-01 0.18730371E+03</pdfrwt>
<pdfrwt beam="2">  1       21 0.13905052E-01 0.18730371E+03</pdfrwt>
<totfact> 0.95242775E+04</totfact>
</mgrwt>
</event>
<event>
 4    1  0.4382184E+000  0.2503913E+03  0.7546771E-02  0.1113058E+00
         21   -1    0    0  503  502  0.00000000000E+00  0.00000000000E+00  0.58259960455E+03  0.58259960455E+03  0.00000000000E+00 0. -1.
         21   -1    0    0  501  503 -0.00000000000E+00 -0.00000000000E+00 -0.11670748582E+03  0.11670748582E+03  0.00000000000E+00 0.  1.
          6    1    1    2  501    0 -0.16905060892E+03 -0.64720277101E+02  0.13534469810E+03  0.28462960132E+03  0.17300000000E+03 0.  1.
         -6    1    1    2    0  502  0.16905060892E+03  0.64720277101E+02  0.33054742062E+03  0.41467748905E+03  0.17300000000E+03 0. -1.
<mgrwt>
<rscale>  2 0.25039134E+03</rscale>
<asrwt>0</asrwt>
<pdfrwt beam="1">  1       21 0.89630707E-01 0.25039134E+03</pdfrwt>
<pdfrwt beam="2">  1       21 0.17954998E-01 0.25039134E+03</pdfrwt>
<totfact> 0.29035516E+04</totfact>
</mgrwt>
</event>
<event>
 4    1  0.4382184E+000  0.3042162E+03  0.7546771E-02  0.1083152E+00
         21   -1    0    0  503  502  0.00000000000E+00  0.00000000000E+00  0.64322437444E+03  0.64322437444E+03  0.00000000000E+00 0. -1.
         21   -1    0    0  501  503 -0.00000000000E+00 -0.00000000000E+00 -0.20147636439E+03  0.20147636439E+03  0.00000000000E+00 0.  1.
          6    1    1    2  501    0 -0.93072744842E+02  0.23228421955E+03 -0.49427610203E+01  0.30425634812E+03  0.17300000000E+03 0.  1.
         -6    1    1    2    0  502  0.93072744842E+02 -0.23228421955E+03  0.44669077107E+03  0.54044439071E+03  0.17300000000E+03 0.  1.
<mgrwt>
<rscale>  2 0.30421620E+03</rscale>
<asrwt>0</asrwt>
<pdfrwt beam="1">  1       21 0.98957595E-01 0.30421620E+03</pdfrwt>
<pdfrwt beam="2">  1       21 0.30996364E-01 0.30421620E+03</pdfrwt>
<totfact> 0.78745044E+03</totfact>
</mgrwt>
</event>
<event>
 4    1  0.4382184E+000  0.1954548E+03  0.7546771E-02  0.1153631E+00
         21   -1    0    0  501  502  0.00000000000E+00  0.00000000000E+00  0.33718381618E+03  0.33718381618E+03  0.00000000000E+00 0.  1.
         21   -1    0    0  502  503 -0.00000000000E+00 -0.00000000000E+00 -0.23166478858E+03  0.23166478858E+03  0.00000000000E+00 0.  1.
          6    1    1    2  501    0 -0.43157049527E+02  0.80068909554E+02  0.25606539274E+03  0.32213668925E+03  0.17300000000E+03 0.  1.
         -6    1    1    2    0  503  0.43157049527E+02 -0.80068909554E+02 -0.15054636514E+03  0.24671191552E+03  0.17300000000E+03 0.  1.
<mgrwt>
<rscale>  2 0.19545475E+03</rscale>
<asrwt>0</asrwt>
<pdfrwt beam="1">  1       21 0.51874433E-01 0.19545475E+03</pdfrwt>
<pdfrwt beam="2">  1       21 0.35640737E-01 0.19545475E+03</pdfrwt>
<totfact> 0.26740297E+04</totfact>
</mgrwt>
</event>
<event>
 4    1  0.4382184E+000  0.2034796E+03  0.7546771E-02  0.1146836E+00
         21   -1    0    0  503  502  0.00000000000E+00  0.00000000000E+00  0.65106371756E+03  0.65106371756E+03  0.00000000000E+00 0.  1.
         21   -1    0    0  501  503 -0.00000000000E+00 -0.00000000000E+00 -0.82314543353E+02  0.82314543353E+02  0.00000000000E+00 0. -1.
          6    1    1    2  501    0 -0.78334675322E+02  0.73065824508E+02  0.10950447457E+03  0.23107394059E+03  0.17300000000E+03 0.  1.
         -6    1    1    2    0  502  0.78334675322E+02 -0.73065824508E+02  0.45924469964E+03  0.50230432032E+03  0.17300000000E+03 0. -1.
<mgrwt>
<rscale>  2 0.20347957E+03</rscale>
<asrwt>0</asrwt>
<pdfrwt beam="1">  1       21 0.10016365E+00 0.20347957E+03</pdfrwt>
<pdfrwt beam="2">  1       21 0.12663776E-01 0.20347957E+03</pdfrwt>
<totfact> 0.43324998E+04</totfact>
</mgrwt>
</event>
<event>
 4    1  0.4382184E+000  0.2219630E+03  0.7546771E-02  0.1132428E+00
         21   -1    0    0  501  502  0.00000000000E+00  0.00000000000E+00  0.20955911341E+03  0.20955911341E+03  0.00000000000E+00 0. -1.
         21   -1    0    0  502  503 -0.00000000000E+00 -0.00000000000E+00 -0.38768977225E+03  0.38768977225E+03  0.00000000000E+00 0.  1.
          6    1    1    2  501    0 -0.70258996133E+02  0.12000943509E+03  0.98280590545E+02  0.24274815247E+03  0.17300000000E+03 0. -1.
         -6    1    1    2    0  503  0.70258996133E+02 -0.12000943509E+03 -0.27641124938E+03  0.35450073319E+03  0.17300000000E+03 0.  1.
<mgrwt>
<rscale>  2 0.22196304E+03</rscale>
<asrwt>0</asrwt>
<pdfrwt beam="1">  1       21 0.32239864E-01 0.22196304E+03</pdfrwt>
<pdfrwt beam="2">  1       21 0.59644580E-01 0.22196304E+03</pdfrwt>
<totfact> 0.23894867E+04</totfact>
</mgrwt>
</event>
<event>
 4    1  0.4382184E+000  0.2010340E+03  0.7546771E-02  0.1148870E+00
         21   -1    0    0  503  502  0.00000000000E+00  0.00000000000E+00  0.28032469964E+03  0.28032469964E+03  0.00000000000E+00 0. -1.
         21   -1    0    0  501  503 -0.00000000000E+00 -0.00000000000E+00 -0.14462683350E+03  0.14462683350E+03  0.00000000000E+00 0. -1.
          6    1    1    2  501    0 -0.28742554012E+02  0.98282878589E+02  0.79779064835E+02  0.21628536201E+03  0.17300000000E+03 0. -1.
         -6    1    1    2    0  502  0.28742554012E+02 -0.98282878589E+02  0.55918801299E+02  0.20866617113E+03  0.17300000000E+03 0. -1.
<mgrwt>
<rscale>  2 0.20103397E+03</rscale>
<asrwt>0</asrwt>
<pdfrwt beam="1">  1       21 0.43126877E-01 0.20103397E+03</pdfrwt>
<pdfrwt beam="2">  1       21 0.22250282E-01 0.20103397E+03</pdfrwt>
<totfact> 0.97351352E+04</totfact>
</mgrwt>
</event>
<event>
 4    1  0.4382184E+000  0.1981562E+03  0.7546771E-02  0.1151304E+00
         21   -1    0    0  501  502  0.00000000000E+00  0.00000000000E+00  0.53194868835E+03  0.53194868835E+03  0.00000000000E+00 0. -1.
         21   -1    0    0  502  503 -0.00000000000E+00 -0.00000000000E+00 -0.14445638241E+03  0.14445638241E+03  0.00000000000E+00 0. -1.
          6    1    1    2  501    0 -0.89897423983E+02 -0.35430438772E+02  0.43024971146E+03  0.47368837545E+03  0.17300000000E+03 0. -1.
         -6    1    1    2    0  503  0.89897423983E+02  0.35430438772E+02 -0.42757405510E+02  0.20271669531E+03  0.17300000000E+03 0. -1.
<mgrwt>
<rscale>  2 0.19815616E+03</rscale>
<asrwt>0</asrwt>
<pdfrwt beam="1">  1       21 0.81838259E-01 0.19815616E+03</pdfrwt>
<pdfrwt beam="2">  1       21 0.22224059E-01 0.19815616E+03</pdfrwt>
<totfact> 0.24660205E+04</totfact>
</mgrwt>
</event>
<event>
 4    1  0.4382184E+000  0.1941895E+03  0.7546771E-02  0.1154736E+00
         21   -1    0    0  503  502  0.00000000000E+00  0.00000000000E+00  0.51693005144E+02  0.51693005144E+02  0.00000000000E+00 0.  1.
         21   -1    0    0  501  503 -0.00000000000E+00 -0.00000000000E+00 -0.75509963799E+03  0.75509963799E+03  0.00000000000E+00 0.  1.
          6    1    1    2  501    0 -0.27576811620E+01  0.88164282258E+02 -0.42599309048E+03  0.46816627239E+03  0.17300000000E+03 0.  1.
         -6    1    1    2    0  502  0.27576811620E+01 -0.88164282258E+02 -0.27741354236E+03  0.33862637074E+03  0.17300000000E+03 0.  1.
<mgrwt>
<rscale>  2 0.19418946E+03</rscale>
<asrwt>0</asrwt>
<pdfrwt beam="1">  1       21 0.79527694E-02 0.19418946E+03</pdfrwt>
<pdfrwt beam="2">  1       21 0.11616918E+00 0.19418946E+03</pdfrwt>
<totfact> 0.69299188E+04</totfact>
</mgrwt>
</event>
<event>
 4    1  0.4382184E+000  0.1904779E+03  0.7546771E-02  0.1158031E+00
         21   -1    0    0  503  502  0.00000000000E+00  0.00000000000E+00  0.14069213250E+02  0.14069213250E+02  0.00000000000E+00 0.  1.
         21   -1    0    0  501  503 -0.00000000000E+00 -0.00000000000E+00 -0.28797838270E+04  0.28797838270E+04  0.00000000000E+00 0.  1.
          6    1    1    2  501    0 -0.18118412838E+02  0.77617909562E+02 -0.19006263367E+04  0.19101471902E+04  0.17300000000E+03 0.  1.
         -6    1    1    2    0  502  0.18118412838E+02 -0.77617909562E+02 -0.96508827706E+03  0.98370584998E+03  0.17300000000E+03 0.  1.
<mgrwt>
<rscale>  2 0.19047786E+03</rscale>
<asrwt>0</asrwt>
<pdfrwt beam="1">  1       21 0.21644952E-02 0.19047786E+03</pdfrwt>
<pdfrwt beam="2">  1       21 0.44304350E+00 0.19047786E+03</pdfrwt>
<totfact> 0.50191753E+03</totfact>
</mgrwt>
</event>
<event>
 4    1  0.4382184E+000  0.2699285E+03  0.7546771E-02  0.1101321E+00
         21   -1    0    0  503  502  0.00000000000E+00  0.00000000000E+00  0.31384279651E+03  0.31384279651E+03  0.00000000000E+00 0.  1.
         21   -1    0    0  501  503 -0.00000000000E+00 -0.00000000000E+00 -0.25001120985E+03  0.25001120985E+03  0.00000000000E+00 0. -1.
          6    1    1    2  501    0 -0.15039917250E+02 -0.20665479019E+03 -0.43420461335E+02  0.27339849649E+03  0.17300000000E+03 0. -1.
         -6    1    1    2    0  502  0.15039917250E+02  0.20665479019E+03  0.10725204799E+03  0.29045550987E+03  0.17300000000E+03 0.  1.
<mgrwt>
<rscale>  2 0.26992851E+03</rscale>
<asrwt>0</asrwt>
<pdfrwt beam="1">  1       21 0.48283507E-01 0.26992851E+03</pdfrwt>
<pdfrwt beam="2">  1       21 0.38463263E-01 0.26992851E+03</pdfrwt>
<totfact> 0.25703900E+04</totfact>
</mgrwt>
</event>
<event>
 4    1  0.4382184E+000  0.1944440E+03  0.7546771E-02  0.1154513E+00
         21   -1    0    0  501  502  0.00000000000E+00  0.00000000000E+00  0.53283304397E+02  0.53283304397E+02  0.00000000000E+00 0.  1.
         21   -1    0    0  502  503 -0.00000000000E+00 -0.00000000000E+00 -0.70986191721E+03  0.70986191721E+03  0.00000000000E+00 0.  1.
          6    1    1    2  501    0 -0.54464037376E+02 -0.70093679337E+02 -0.33597199805E+03  0.38818248121E+03  0.17300000000E+03 0.  1.
         -6    1    1    2    0  503  0.54464037376E+02  0.70093679337E+02 -0.32060661476E+03  0.37496274039E+03  0.17300000000E+03 0.  1.
<mgrwt>
<rscale>  2 0.19444396E+03</rscale>
<asrwt>0</asrwt>
<pdfrwt beam="1">  1       21 0.81974311E-02 0.19444396E+03</pdfrwt>
<pdfrwt beam="2">  1       21 0.10920953E+00 0.19444396E+03</pdfrwt>
<totfact> 0.76375677E+04</totfact>
</mgrwt>
</event>
<event>
 4    1  0.4382184E+000  0.2844090E+03  0.7546771E-02  0.1093305E+00
         21   -1    0    0  503  502  0.00000000000E+00  0.00000000000E+00  0.60526666091E+03  0.60526666091E+03  0.00000000000E+00 0. -1.
         21   -1    0    0  501  503 -0.00000000000E+00 -0.00000000000E+00 -0.13365698903E+03  0.13365698903E+03  0.00000000000E+00 0.  1.
          6    1    1    2  501    0  0.12094187354E+02  0.22541790737E+03  0.23177652492E+03  0.36689080097E+03  0.17300000000E+03 0.  1.
         -6    1    1    2    0  502 -0.12094187354E+02 -0.22541790737E+03  0.23983314696E+03  0.37203284897E+03  0.17300000000E+03 0. -1.
<mgrwt>
<rscale>  2 0.28440904E+03</rscale>
<asrwt>0</asrwt>
<pdfrwt beam="1">  1       21 0.93117946E-01 0.28440904E+03</pdfrwt>
<pdfrwt beam="2">  1       21 0.20562614E-01 0.28440904E+03</pdfrwt>
<totfact> 0.20281429E+04</totfact>
</mgrwt>
</event>
<event>
 4    1  0.4382184E+000  0.2297025E+03  0.7546771E-02  0.1126849E+00
         21   -1    0    0  503  502  0.00000000000E+00  0.00000000000E+00  0.36555700753E+03  0.36555700753E+03  0.00000000000E+00 0. -1.
         21   -1    0    0  501  503 -0.00000000000E+00 -0.00000000000E+00 -0.22124493341E+03  0.22124493341E+03  0.00000000000E+00 0. -1.
          6    1    1    2  501    0 -0.71784701693E+02 -0.13297069984E+03 -0.10083022685E+03  0.25085849609E+03  0.17300000000E+03 0. -1.
         -6    1    1    2    0  502  0.71784701693E+02  0.13297069984E+03  0.24514230097E+03  0.33594344485E+03  0.17300000000E+03 0. -1.
<mgrwt>
<rscale>  2 0.22970253E+03</rscale>
<asrwt>0</asrwt>
<pdfrwt beam="1">  1       21 0.56239540E-01 0.22970253E+03</pdfrwt>
<pdfrwt beam="2">  1       21 0.34037682E-01 0.22970253E+03</pdfrwt>
<totfact> 0.24245283E+04</totfact>
</mgrwt>
</event>
<event>
 4    1  0.4382184E+000  0.1746764E+03  0.7546771E-02  0.1173057E+00
         21   -1    0    0  503  502  0.00000000000E+00  0.00000000000E+00  0.11465687177E+04  0.11465687177E+04  0.00000000000E+00 0.  1.
         21   -1    0    0  501  503 -0.00000000000E+00 -0.00000000000E+00 -0.83447821238E+02  0.83447821238E+02  0.00000000000E+00 0.  1.
          6    1    1    2  501    0 -0.15158751872E+02 -0.18789647482E+02  0.24001272079E+02  0.17631761022E+03  0.17300000000E+03 0.  1.
         -6    1    1    2    0  502  0.15158751872E+02  0.18789647482E+02  0.10391196243E+04  0.10536989287E+04  0.17300000000E+03 0.  1.
<mgrwt>
<rscale>  2 0.17467638E+03</rscale>
<asrwt>0</asrwt>
<pdfrwt beam="1">  1       21 0.17639518E+00 0.17467638E+03</pdfrwt>
<pdfrwt beam="2">  1       21 0.12838127E-01 0.17467638E+03</pdfrwt>
<totfact> 0.10162135E+04</totfact>
</mgrwt>
</event>
<event>
 4    1  0.4382184E+000  0.2157750E+03  0.7546771E-02  0.1137073E+00
         21   -1    0    0  501  502  0.00000000000E+00  0.00000000000E+00  0.41601877837E+03  0.41601877837E+03  0.00000000000E+00 0. -1.
         21   -1    0    0  502  503 -0.00000000000E+00 -0.00000000000E+00 -0.46826602361E+03  0.46826602361E+03  0.00000000000E+00 0. -1.
          6    1    1    2  501    0  0.12635329018E+03 -0.25781425448E+02  0.35958088007E+03  0.41935336549E+03  0.17300000000E+03 0. -1.
         -6    1    1    2    0  503 -0.12635329018E+03  0.25781425448E+02 -0.41182812531E+03  0.46493143649E+03  0.17300000000E+03 0. -1.
<mgrwt>
<rscale>  2 0.21577497E+03</rscale>
<asrwt>0</asrwt>
<pdfrwt beam="1">  1       21 0.64002889E-01 0.21577497E+03</pdfrwt>
<pdfrwt beam="2">  1       21 0.72040926E-01 0.21577497E+03</pdfrwt>
<totfact> 0.38482063E+03</totfact>
</mgrwt>
</event>
<event>
 4    1  0.4382184E+000  0.2967599E+03  0.7546771E-02  0.1086872E+00
         21   -1    0    0  501  502  0.00000000000E+00  0.00000000000E+00  0.11361387615E+03  0.11361387615E+03  0.00000000000E+00 0. -1.
         21   -1    0    0  502  503 -0.00000000000E+00 -0.00000000000E+00 -0.78808158056E+03  0.78808158056E+03  0.00000000000E+00 0. -1.
          6    1    1    2  501    0 -0.13469578770E+03  0.19998626825E+03 -0.39501246167E+03  0.49406609637E+03  0.17300000000E+03 0. -1.
         -6    1    1    2    0  503  0.13469578770E+03 -0.19998626825E+03 -0.27945524274E+03  0.40762936033E+03  0.17300000000E+03 0. -1.
<mgrwt>
<rscale>  2 0.29675994E+03</rscale>
<asrwt>0</asrwt>
<pdfrwt beam="1">  1       21 0.17479058E-01 0.29675994E+03</pdfrwt>
<pdfrwt beam="2">  1       21 0.12124332E+00 0.29675994E+03</pdfrwt>
<totfact> 0.14394562E+04</totfact>
</mgrwt>
</event>
<event>
 4    1  0.4382184E+000  0.2076621E+03  0.7546771E-02  0.1143431E+00
         21   -1    0    0  501  502  0.00000000000E+00  0.00000000000E+00  0.35692122144E+03  0.35692122144E+03  0.00000000000E+00 0.  1.
         21   -1    0    0  502  503 -0.00000000000E+00 -0.00000000000E+00 -0.21018105792E+03  0.21018105792E+03  0.00000000000E+00 0. -1.
          6    1    1    2  501    0  0.67544894456E+02 -0.92909743321E+02  0.25825719537E+03  0.33139147866E+03  0.17300000000E+03 0.  1.
         -6    1    1    2    0  503 -0.67544894456E+02  0.92909743321E+02 -0.11151703186E+03  0.23571080070E+03  0.17300000000E+03 0. -1.
<mgrwt>
<rscale>  2 0.20766206E+03</rscale>
<asrwt>0</asrwt>
<pdfrwt beam="1">  1       21 0.54910957E-01 0.20766206E+03</pdfrwt>
<pdfrwt beam="2">  1       21 0.32335547E-01 0.20766206E+03</pdfrwt>
<totfact> 0.28561848E+04</totfact>
</mgrwt>
</event>
<event>
 4    1  0.4382184E+000  0.2658390E+03  0.7546771E-02  0.1103685E+00
         21   -1    0    0  503  502  0.00000000000E+00  0.00000000000E+00  0.48714569424E+03  0.48714569424E+03  0.00000000000E+00 0. -1.
         21   -1    0    0  501  503 -0.00000000000E+00 -0.00000000000E+00 -0.19160329272E+03  0.19160329272E+03  0.00000000000E+00 0. -1.
          6    1    1    2  501    0  0.66786549535E+02  0.19047557177E+03 -0.19475695442E+02  0.26655147599E+03  0.17300000000E+03 0. -1.
         -6    1    1    2    0  502 -0.66786549535E+02 -0.19047557177E+03  0.31501809696E+03  0.41219751097E+03  0.17300000000E+03 0. -1.
<mgrwt>
<rscale>  2 0.26583902E+03</rscale>
<asrwt>0</asrwt>
<pdfrwt beam="1">  1       21 0.74945491E-01 0.26583902E+03</pdfrwt>
<pdfrwt beam="2">  1       21 0.29477430E-01 0.26583902E+03</pdfrwt>
<totfact> 0.16867565E+04</totfact>
</mgrwt>
</event>
<event>
 4    1  0.4382184E+000  0.1758006E+03  0.7546771E-02  0.1171930E+00
         21   -1    0    0  501  502  0.00000000000E+00  0.00000000000E+00  0.17058489534E+03  0.17058489534E+03  0.00000000000E+00 0. -1.
         21   -1    0    0  502  503 -0.00000000000E+00 -0.00000000000E+00 -0.20122333564E+03  0.20122333564E+03  0.00000000000E+00 0. -1.
          6    1    1    2  501    0 -0.28277810493E+02 -0.13312178981E+02 -0.73997952542E+02  0.19073947063E+03  0.17300000000E+03 0. -1.
         -6    1    1    2    0  503  0.28277810493E+02  0.13312178981E+02  0.43359512240E+02  0.18106876036E+03  0.17300000000E+03 0. -1.
<mgrwt>
<rscale>  2 0.17580059E+03</rscale>
<asrwt>0</asrwt>
<pdfrwt beam="1">  1       21 0.26243830E-01 0.17580059E+03</pdfrwt>
<pdfrwt beam="2">  1       21 0.30957436E-01 0.17580059E+03</pdfrwt>
<totfact> 0.13911109E+05</totfact>
</mgrwt>
</event>
<event>
 4    1  0.4382184E+000  0.1872355E+03  0.7546771E-02  0.1160979E+00
         21   -1    0    0  501  502  0.00000000000E+00  0.00000000000E+00  0.11339043776E+03  0.11339043776E+03  0.00000000000E+00 0.  1.
         21   -1    0    0  502  503 -0.00000000000E+00 -0.00000000000E+00 -0.35602269330E+03  0.35602269330E+03  0.00000000000E+00 0.  1.
          6    1    1    2  501    0 -0.26329134818E+02 -0.66595158310E+02 -0.36173937824E+02  0.19069790830E+03  0.17300000000E+03 0. -1.
         -6    1    1    2    0  503  0.26329134818E+02  0.66595158310E+02 -0.20645831771E+03  0.27871522277E+03  0.17300000000E+03 0. -1.
<mgrwt>
<rscale>  2 0.18723552E+03</rscale>
<asrwt>0</asrwt>
<pdfrwt beam="1">  1       21 0.17444683E-01 0.18723552E+03</pdfrwt>
<pdfrwt beam="2">  1       21 0.54772722E-01 0.18723552E+03</pdfrwt>
<totfact> 0.93802805E+04</totfact>
</mgrwt>
</event>
<event>
 4    1  0.4382184E+000  0.2250300E+03  0.7546771E-02  0.1130188E+00
         21   -1    0    0  503  502  0.00000000000E+00  0.00000000000E+00  0.90557712149E+02  0.90557712149E+02  0.00000000000E+00 0. -1.
         21   -1    0    0  501  503 -0.00000000000E+00 -0.00000000000E+00 -0.66235759746E+03  0.66235759746E+03  0.00000000000E+00 0.  1.
          6    1    1    2  501    0 -0.11960823262E+03  0.80021183621E+02 -0.43447706421E+03  0.48929422484E+03  0.17300000000E+03 0. -1.
         -6    1    1    2    0  502  0.11960823262E+03 -0.80021183621E+02 -0.13732282111E+03  0.26362108477E+03  0.17300000000E+03 0.  1.
<mgrwt>
<rscale>  2 0.22503004E+03</rscale>
<asrwt>0</asrwt>
<pdfrwt beam="1">  1       21 0.13931956E-01 0.22503004E+03</pdfrwt>
<pdfrwt beam="2">  1       21 0.10190117E+00 0.22503004E+03</pdfrwt>
<totfact> 0.34605313E+04</totfact>
</mgrwt>
</event>
<event>
 4    1  0.4382184E+000  0.2629132E+03  0.7546771E-02  0.1105405E+00
         21   -1    0    0  503  502  0.00000000000E+00  0.00000000000E+00  0.66037285465E+03  0.66037285465E+03  0.00000000000E+00 0.  1.
         21   -1    0    0  501  503 -0.00000000000E+00 -0.00000000000E+00 -0.10531899544E+03  0.10531899544E+03  0.00000000000E+00 0. -1.
          6    1    1    2  501    0 -0.12453229131E+03 -0.15390282995E+03  0.24754901046E+03  0.36111478123E+03  0.17300000000E+03 0. -1.
         -6    1    1    2    0  502  0.12453229131E+03  0.15390282995E+03  0.30750484875E+03  0.40457706886E+03  0.17300000000E+03 0.  1.
<mgrwt>
<rscale>  2 0.26291324E+03</rscale>
<asrwt>0</asrwt>
<pdfrwt beam="1">  1       21 0.10159582E+00 0.26291324E+03</pdfrwt>
<pdfrwt beam="2">  1       21 0.16202923E-01 0.26291324E+03</pdfrwt>
<totfact> 0.25965315E+04</totfact>
</mgrwt>
</event>
<event>
 4    1  0.4382184E+000  0.2550700E+03  0.7546771E-02  0.1110142E+00
         21   -1    0    0  503  502  0.00000000000E+00  0.00000000000E+00  0.51442938098E+03  0.51442938098E+03  0.00000000000E+00 0.  1.
         21   -1    0    0  501  503 -0.00000000000E+00 -0.00000000000E+00 -0.12804795759E+03  0.12804795759E+03  0.00000000000E+00 0. -1.
          6    1    1    2  501    0 -0.10061055118E+01  0.18743189089E+03  0.15754857304E+03  0.29980373386E+03  0.17300000000E+03 0. -1.
         -6    1    1    2    0  502  0.10061055118E+01 -0.18743189089E+03  0.22883285035E+03  0.34267360472E+03  0.17300000000E+03 0.  1.
<mgrwt>
<rscale>  2 0.25507004E+03</rscale>
<asrwt>0</asrwt>
<pdfrwt beam="1">  1       21 0.79142981E-01 0.25507004E+03</pdfrwt>
<pdfrwt beam="2">  1       21 0.19699686E-01 0.25507004E+03</pdfrwt>
<totfact> 0.32442291E+04</totfact>
</mgrwt>
</event>
<event>
 4    1  0.4382184E+000  0.3385825E+03  0.7546771E-02  0.1067401E+00
         21   -1    0    0  501  502  0.00000000000E+00  0.00000000000E+00  0.65993997949E+03  0.65993997949E+03  0.00000000000E+00 0.  1.
         21   -1    0    0  502  503 -0.00000000000E+00 -0.00000000000E+00 -0.27764565554E+03  0.27764565554E+03  0.00000000000E+00 0. -1.
          6    1    1    2  501    0 -0.21517769974E+03  0.19597876630E+03  0.47797279479E+03  0.58574406686E+03  0.17300000000E+03 0.  1.
         -6    1    1    2    0  503  0.21517769974E+03 -0.19597876630E+03 -0.95678470840E+02  0.35184156817E+03  0.17300000000E+03 0. -1.
<mgrwt>
<rscale>  2 0.33858251E+03</rscale>
<asrwt>0</asrwt>
<pdfrwt beam="1">  1       21 0.10152923E+00 0.33858251E+03</pdfrwt>
<pdfrwt beam="2">  1       21 0.42714717E-01 0.33858251E+03</pdfrwt>
<totfact> 0.38103397E+03</totfact>
</mgrwt>
</event>
<event>
 4    1  0.4382184E+000  0.2231263E+03  0.7546771E-02  0.1131574E+00
         21   -1    0    0  501  502  0.00000000000E+00  0.00000000000E+00  0.81177402291E+03  0.81177402291E+03  0.00000000000E+00 0.  1.
         21   -1    0    0  502  503 -0.00000000000E+00 -0.00000000000E+00 -0.66482179651E+02  0.66482179651E+02  0.00000000000E+00 0.  1.
          6    1    1    2  501    0  0.14048579400E+03  0.10958104245E+02  0.25038893508E+03  0.33538031722E+03  0.17300000000E+03 0.  1.
         -6    1    1    2    0  503 -0.14048579400E+03 -0.10958104245E+02  0.49490290818E+03  0.54287588534E+03  0.17300000000E+03 0.  1.
<mgrwt>
<rscale>  2 0.22312628E+03</rscale>
<asrwt>0</asrwt>
<pdfrwt beam="1">  1       21 0.12488830E+00 0.22312628E+03</pdfrwt>
<pdfrwt beam="2">  1       21 0.10228028E-01 0.22312628E+03</pdfrwt>
<totfact> 0.36656818E+04</totfact>
</mgrwt>
</event>
<event>
 4    1  0.4382184E+000  0.1768512E+03  0.7546771E-02  0.1170886E+00
         21   -1    0    0  503  502  0.00000000000E+00  0.00000000000E+00  0.23243122491E+03  0.23243122491E+03  0.00000000000E+00 0. -1.
         21   -1    0    0  501  503 -0.00000000000E+00 -0.00000000000E+00 -0.24456402659E+03  0.24456402659E+03  0.00000000000E+00 0. -1.
          6    1    1    2  501    0 -0.12855212685E+02  0.34381748056E+02 -0.16601798090E+03  0.24256613753E+03  0.17300000000E+03 0. -1.
         -6    1    1    2    0  502  0.12855212685E+02 -0.34381748056E+02  0.15388517922E+03  0.23442911397E+03  0.17300000000E+03 0. -1.
<mgrwt>
<rscale>  2 0.17685124E+03</rscale>
<asrwt>0</asrwt>
<pdfrwt beam="1">  1       21 0.35758650E-01 0.17685124E+03</pdfrwt>
<pdfrwt beam="2">  1       21 0.37625235E-01 0.17685124E+03</pdfrwt>
<totfact> 0.51755259E+04</totfact>
</mgrwt>
</event>
<event>
 4    1  0.4382184E+000  0.1954954E+03  0.7546771E-02  0.1153596E+00
         21   -1    0    0  501  502  0.00000000000E+00  0.00000000000E+00  0.22340847035E+04  0.22340847035E+04  0.00000000000E+00 0. -1.
         21   -1    0    0  502  503 -0.00000000000E+00 -0.00000000000E+00 -0.19688473346E+02  0.19688473346E+02  0.00000000000E+00 0.  1.
          6    1    1    2  501    0 -0.46256314268E+02 -0.78420656083E+02  0.15152445237E+04  0.15278037873E+04  0.17300000000E+03 0. -1.
         -6    1    1    2    0  503  0.46256314268E+02  0.78420656083E+02  0.69915170646E+03  0.72596938955E+03  0.17300000000E+03 0.  1.
<mgrwt>
<rscale>  2 0.19549539E+03</rscale>
<asrwt>0</asrwt>
<pdfrwt beam="1">  1       21 0.34370514E+00 0.19549539E+03</pdfrwt>
<pdfrwt beam="2">  1       21 0.30289977E-02 0.19549539E+03</pdfrwt>
<totfact> 0.11820589E+04</totfact>
</mgrwt>
</event>
<event>
 4    1  0.4382184E+000  0.3476154E+03  0.7546771E-02  0.1063598E+00
         21   -1    0    0  501  502  0.00000000000E+00  0.00000000000E+00  0.74837782069E+03  0.74837782069E+03  0.00000000000E+00 0. -1.
         21   -1    0    0  502  503 -0.00000000000E+00 -0.00000000000E+00 -0.49142378529E+03  0.49142378529E+03  0.00000000000E+00 0. -1.
          6    1    1    2  501    0  0.29770654985E+03 -0.47731526979E+02  0.63643086763E+03  0.72517634942E+03  0.17300000000E+03 0. -1.
         -6    1    1    2    0  503 -0.29770654985E+03  0.47731526979E+02 -0.37947683223E+03  0.51462525656E+03  0.17300000000E+03 0. -1.
<mgrwt>
<rscale>  2 0.34761543E+03</rscale>
<asrwt>0</asrwt>
<pdfrwt beam="1">  1       21 0.11513505E+00 0.34761543E+03</pdfrwt>
<pdfrwt beam="2">  1       21 0.75603659E-01 0.34761543E+03</pdfrwt>
<totfact> 0.81078630E+02</totfact>
</mgrwt>
</event>
<event>
 4    1  0.4382184E+000  0.1917331E+03  0.7546771E-02  0.1156907E+00
         21   -1    0    0  501  502  0.00000000000E+00  0.00000000000E+00  0.25762491559E+03  0.25762491559E+03  0.00000000000E+00 0.  1.
         21   -1    0    0  502  503 -0.00000000000E+00 -0.00000000000E+00 -0.15346669085E+03  0.15346669085E+03  0.00000000000E+00 0.  1.
          6    1    1    2  501    0 -0.70813919208E+02  0.42637779705E+02  0.10653675277E+03  0.21934372821E+03  0.17300000000E+03 0.  1.
         -6    1    1    2    0  503  0.70813919208E+02 -0.42637779705E+02 -0.23785280379E+01  0.19174787823E+03  0.17300000000E+03 0.  1.
<mgrwt>
<rscale>  2 0.19173313E+03</rscale>
<asrwt>0</asrwt>
<pdfrwt beam="1">  1       21 0.39634602E-01 0.19173313E+03</pdfrwt>
<pdfrwt beam="2">  1       21 0.23610260E-01 0.19173313E+03</pdfrwt>
<totfact> 0.10367432E+05</totfact>
</mgrwt>
</event>
<event>
 4    1  0.4382184E+000  0.2439633E+03  0.7546771E-02  0.1117180E+00
         21   -1    0    0  501  502  0.00000000000E+00  0.00000000000E+00  0.14316605942E+04  0.14316605942E+04  0.00000000000E+00 0. -1.
         21   -1    0    0  502  503 -0.00000000000E+00 -0.00000000000E+00 -0.89649339604E+02  0.89649339604E+02  0.00000000000E+00 0.  1.
          6    1    1    2  501    0 -0.12774285841E+03  0.11519912281E+03  0.12280386725E+04  0.12520371627E+04  0.17300000000E+03 0. -1.
         -6    1    1    2    0  503  0.12774285841E+03 -0.11519912281E+03  0.11397258214E+03  0.26927277109E+03  0.17300000000E+03 0.  1.
<mgrwt>
<rscale>  2 0.24396327E+03</rscale>
<asrwt>0</asrwt>
<pdfrwt beam="1">  1       21 0.22025546E+00 0.24396327E+03</pdfrwt>
<pdfrwt beam="2">  1       21 0.13792207E-01 0.24396327E+03</pdfrwt>
<totfact> 0.43745482E+03</totfact>
</mgrwt>
</event>
<event>
 4    1  0.4382184E+000  0.1926341E+03  0.7546771E-02  0.1156107E+00
         21   -1    0    0  503  502  0.00000000000E+00  0.00000000000E+00  0.29994038135E+03  0.29994038135E+03  0.00000000000E+00 0. -1.
         21   -1    0    0  501  503 -0.00000000000E+00 -0.00000000000E+00 -0.14816592497E+03  0.14816592497E+03  0.00000000000E+00 0. -1.
          6    1    1    2  501    0  0.67058113321E+02 -0.51788946793E+02 -0.15125471335E+02  0.19322697911E+03  0.17300000000E+03 0. -1.
         -6    1    1    2    0  502 -0.67058113321E+02  0.51788946793E+02  0.16689992771E+03  0.25487932721E+03  0.17300000000E+03 0. -1.
<mgrwt>
<rscale>  2 0.19263407E+03</rscale>
<asrwt>0</asrwt>
<pdfrwt beam="1">  1       21 0.46144674E-01 0.19263407E+03</pdfrwt>
<pdfrwt beam="2">  1       21 0.22794758E-01 0.19263407E+03</pdfrwt>
<totfact> 0.81239984E+04</totfact>
</mgrwt>
</event>
<event>
 4    1  0.4382184E+000  0.1949909E+03  0.7546771E-02  0.1154035E+00
         21   -1    0    0  501  502  0.00000000000E+00  0.00000000000E+00  0.31355767488E+02  0.31355767488E+02  0.00000000000E+00 0. -1.
         21   -1    0    0  502  503 -0.00000000000E+00 -0.00000000000E+00 -0.12313212396E+04  0.12313212396E+04  0.00000000000E+00 0. -1.
          6    1    1    2  501    0  0.37875086770E+02  0.81596036981E+02 -0.52209770836E+03  0.55732167778E+03  0.17300000000E+03 0. -1.
         -6    1    1    2    0  503 -0.37875086770E+02 -0.81596036981E+02 -0.67786776376E+03  0.70535532932E+03  0.17300000000E+03 0. -1.
<mgrwt>
<rscale>  2 0.19499086E+03</rscale>
<asrwt>0</asrwt>
<pdfrwt beam="1">  1       21 0.48239644E-02 0.19499086E+03</pdfrwt>
<pdfrwt beam="2">  1       21 0.18943403E+00 0.19499086E+03</pdfrwt>
<totfact> 0.44897562E+04</totfact>
</mgrwt>
</event>
<event>
 4    1  0.4382184E+000  0.1786758E+03  0.7546771E-02  0.1169091E+00
         21   -1    0    0  501  502  0.00000000000E+00  0.00000000000E+00  0.24492894271E+03  0.24492894271E+03  0.00000000000E+00 0. -1.
         21   -1    0    0  502  503 -0.00000000000E+00 -0.00000000000E+00 -0.13855285564E+03  0.13855285564E+03  0.00000000000E+00 0. -1.
          6    1    1    2  501    0  0.26815934040E+02 -0.35734573709E+02  0.99858757365E+02  0.20468714053E+03  0.17300000000E+03 0. -1.
         -6    1    1    2    0  503 -0.26815934040E+02  0.35734573709E+02  0.65173296998E+01  0.17879465781E+03  0.17300000000E+03 0. -1.
<mgrwt>
<rscale>  2 0.17867584E+03</rscale>
<asrwt>0</asrwt>
<pdfrwt beam="1">  1       21 0.37681376E-01 0.17867584E+03</pdfrwt>
<pdfrwt beam="2">  1       21 0.21315824E-01 0.17867584E+03</pdfrwt>
<totfact> 0.13979088E+05</totfact>
</mgrwt>
</event>
<event>
 4    1  0.4382184E+000  0.2040179E+03  0.7546771E-02  0.1146393E+00
         21   -1    0    0  501  502  0.00000000000E+00  0.00000000000E+00  0.62963283944E+03  0.62963283944E+03  0.00000000000E+00 0.  1.
         21   -1    0    0  502  503 -0.00000000000E+00 -0.00000000000E+00 -0.34218585919E+03  0.34218585919E+03  0.00000000000E+00 0.  1.
          6    1    1    2  501    0  0.10265949293E+03  0.33990227644E+02  0.58017961353E+03  0.61500543983E+03  0.17300000000E+03 0.  1.
         -6    1    1    2    0  503 -0.10265949293E+03 -0.33990227644E+02 -0.29273263328E+03  0.35681325880E+03  0.17300000000E+03 0.  1.
<mgrwt>
<rscale>  2 0.20401791E+03</rscale>
<asrwt>0</asrwt>
<pdfrwt beam="1">  1       21 0.96866591E-01 0.20401791E+03</pdfrwt>
<pdfrwt beam="2">  1       21 0.52643978E-01 0.20401791E+03</pdfrwt>
<totfact> 0.29983377E+03</totfact>
</mgrwt>
</event>
<event>
 4    1  0.4382184E+000  0.1896680E+03  0.7546771E-02  0.1158761E+00
         21   -1    0    0  501  502  0.00000000000E+00  0.00000000000E+00  0.10656047211E+04  0.10656047211E+04  0.00000000000E+00 0.  1.
         21   -1    0    0  502  503 -0.00000000000E+00 -0.00000000000E+00 -0.66967934659E+02  0.66967934659E+02  0.00000000000E+00 0.  1.
          6    1    1    2  501    0 -0.22481148443E+02  0.74428198094E+02  0.89809421034E+03  0.91790368196E+03  0.17300000000E+03 0.  1.
         -6    1    1    2    0  503  0.22481148443E+02 -0.74428198094E+02  0.10054257612E+03  0.21466897382E+03  0.17300000000E+03 0.  1.
<mgrwt>
<rscale>  2 0.18966802E+03</rscale>
<asrwt>0</asrwt>
<pdfrwt beam="1">  1       21 0.16393918E+00 0.18966802E+03</pdfrwt>
<pdfrwt beam="2">  1       21 0.10302760E-01 0.18966802E+03</pdfrwt>
<totfact> 0.18177948E+04</totfact>
</mgrwt>
</event>
<event>
 4    1  0.4382184E+000  0.2185217E+03  0.7546771E-02  0.1134990E+00
         21   -1    0    0  501  502  0.00000000000E+00  0.00000000000E+00  0.33323610693E+03  0.33323610693E+03  0.00000000000E+00 0.  1.
         21   -1    0    0  502  503 -0.00000000000E+00 -0.00000000000E+00 -0.77469119659E+03  0.77469119659E+03  0.00000000000E+00 0.  1.
          6    1    1    2  501    0 -0.13350090744E+03  0.47996445044E+00  0.27938444220E+03  0.35469337349E+03  0.17300000000E+03 0.  1.
         -6    1    1    2    0  503  0.13350090744E+03 -0.47996445044E+00 -0.72083953186E+03  0.75323393003E+03  0.17300000000E+03 0.  1.
<mgrwt>
<rscale>  2 0.21852168E+03</rscale>
<asrwt>0</asrwt>
<pdfrwt beam="1">  1       21 0.51267094E-01 0.21852168E+03</pdfrwt>
<pdfrwt beam="2">  1       21 0.11918326E+00 0.21852168E+03</pdfrwt>
<totfact> 0.18978865E+03</totfact>
</mgrwt>
</event>
<event>
 4    1  0.4382184E+000  0.4122212E+03  0.7546771E-02  0.1039628E+00
         21   -1    0    0  501  502  0.00000000000E+00  0.00000000000E+00  0.16337085650E+03  0.16337085650E+03  0.00000000000E+00 0. -1.
         21   -1    0    0  502  503 -0.00000000000E+00 -0.00000000000E+00 -0.10541773080E+04  0.10541773080E+04  0.00000000000E+00 0.  1.
          6    1    1    2  501    0  0.34231710497E+03 -0.15105063452E+03 -0.37511931854E+03  0.55735159252E+03  0.17300000000E+03 0.  1.
         -6    1    1    2    0  503 -0.34231710497E+03  0.15105063452E+03 -0.51568713293E+03  0.66019657195E+03  0.17300000000E+03 0. -1.
<mgrwt>
<rscale>  2 0.41222117E+03</rscale>
<asrwt>0</asrwt>
<pdfrwt beam="1">  1       21 0.25133978E-01 0.41222117E+03</pdfrwt>
<pdfrwt beam="2">  1       21 0.16218112E+00 0.41222117E+03</pdfrwt>
<totfact> 0.31804930E+03</totfact>
</mgrwt>
</event>
<event>
 4    1  0.4382184E+000  0.2443796E+03  0.7546771E-02  0.1116909E+00
         21   -1    0    0  503  502  0.00000000000E+00  0.00000000000E+00  0.41936060668E+03  0.41936060668E+03  0.00000000000E+00 0.  1.
         21   -1    0    0  501  503 -0.00000000000E+00 -0.00000000000E+00 -0.32193852112E+03  0.32193852112E+03  0.00000000000E+00 0.  1.
          6    1    1    2  501    0 -0.68497089432E+02  0.15843151988E+03 -0.22807425389E+03  0.33427423329E+03  0.17300000000E+03 0.  1.
         -6    1    1    2    0  502  0.68497089432E+02 -0.15843151988E+03  0.32549633946E+03  0.40702489451E+03  0.17300000000E+03 0.  1.
<mgrwt>
<rscale>  2 0.24437962E+03</rscale>
<asrwt>0</asrwt>
<pdfrwt beam="1">  1       21 0.64517017E-01 0.24437962E+03</pdfrwt>
<pdfrwt beam="2">  1       21 0.49529003E-01 0.24437962E+03</pdfrwt>
<totfact> 0.83231083E+03</totfact>
</mgrwt>
</event>
<event>
 4    1  0.4382184E+000  0.1913110E+03  0.7546771E-02  0.1157284E+00
         21   -1    0    0  501  502  0.00000000000E+00  0.00000000000E+00  0.10272219996E+03  0.10272219996E+03  0.00000000000E+00 0. -1.
         21   -1    0    0  502  503 -0.00000000000E+00 -0.00000000000E+00 -0.37280720225E+03  0.37280720225E+03  0.00000000000E+00 0. -1.
          6    1    1    2  501    0  0.58712000462E+01  0.81464389750E+02 -0.18507385233E+03  0.26618085694E+03  0.17300000000E+03 0. -1.
         -6    1    1    2    0  503 -0.58712000462E+01 -0.81464389750E+02 -0.85011149965E+02  0.20934854527E+03  0.17300000000E+03 0. -1.
<mgrwt>
<rscale>  2 0.19131105E+03</rscale>
<asrwt>0</asrwt>
<pdfrwt beam="1">  1       21 0.15803416E-01 0.19131105E+03</pdfrwt>
<pdfrwt beam="2">  1       21 0.57354953E-01 0.19131105E+03</pdfrwt>
<totfact> 0.10183099E+05</totfact>
</mgrwt>
</event>
<event>
 4    1  0.4382184E+000  0.2419103E+03  0.7546771E-02  0.1118527E+00
         21   -1    0    0  501  502  0.00000000000E+00  0.00000000000E+00  0.16853957603E+04  0.16853957603E+04  0.00000000000E+00 0. -1.
         21   -1    0    0  502  503 -0.00000000000E+00 -0.00000000000E+00 -0.59376559560E+02  0.59376559560E+02  0.00000000000E+00 0.  1.
          6    1    1    2  501    0 -0.14037546786E+03 -0.94267173276E+02  0.13751548122E+04  0.13962705073E+04  0.17300000000E+03 0. -1.
         -6    1    1    2    0  503  0.14037546786E+03  0.94267173276E+02  0.25086438848E+03  0.34850181253E+03  0.17300000000E+03 0.  1.
<mgrwt>
<rscale>  2 0.24191026E+03</rscale>
<asrwt>0</asrwt>
<pdfrwt beam="1">  1       21 0.25929162E+00 0.24191026E+03</pdfrwt>
<pdfrwt beam="2">  1       21 0.91348566E-02 0.24191026E+03</pdfrwt>
<totfact> 0.53269282E+03</totfact>
</mgrwt>
</event>
<event>
 4    1  0.4382184E+000  0.2034289E+03  0.7546771E-02  0.1146878E+00
         21   -1    0    0  503  502  0.00000000000E+00  0.00000000000E+00  0.29409702358E+03  0.29409702358E+03  0.00000000000E+00 0. -1.
         21   -1    0    0  501  503 -0.00000000000E+00 -0.00000000000E+00 -0.22239520683E+03  0.22239520683E+03  0.00000000000E+00 0.  1.
          6    1    1    2  501    0 -0.10674056135E+03  0.77947738229E+01 -0.12065636765E+03  0.23651905841E+03  0.17300000000E+03 0.  1.
         -6    1    1    2    0  502  0.10674056135E+03 -0.77947738229E+01  0.19235818440E+03  0.27997317200E+03  0.17300000000E+03 0. -1.
<mgrwt>
<rscale>  2 0.20342887E+03</rscale>
<asrwt>0</asrwt>
<pdfrwt beam="1">  1       21 0.45245696E-01 0.20342887E+03</pdfrwt>
<pdfrwt beam="2">  1       21 0.34214647E-01 0.20342887E+03</pdfrwt>
<totfact> 0.38356472E+04</totfact>
</mgrwt>
</event>
<event>
 4    1  0.4382184E+000  0.1947934E+03  0.7546771E-02  0.1154208E+00
         21   -1    0    0  503  502  0.00000000000E+00  0.00000000000E+00  0.23531270123E+02  0.23531270123E+02  0.00000000000E+00 0.  1.
         21   -1    0    0  501  503 -0.00000000000E+00 -0.00000000000E+00 -0.33768981419E+04  0.33768981419E+04  0.00000000000E+00 0. -1.
          6    1    1    2  501    0  0.76286738294E+02  0.46859546547E+02 -0.29056539402E+04  0.29121760427E+04  0.17300000000E+03 0. -1.
         -6    1    1    2    0  502 -0.76286738294E+02 -0.46859546547E+02 -0.44771293157E+03  0.48825336931E+03  0.17300000000E+03 0.  1.
<mgrwt>
<rscale>  2 0.19479344E+03</rscale>
<asrwt>0</asrwt>
<pdfrwt beam="1">  1       21 0.36201952E-02 0.19479344E+03</pdfrwt>
<pdfrwt beam="2">  1       21 0.51952283E+00 0.19479344E+03</pdfrwt>
<totfact> 0.63390142E+02</totfact>
</mgrwt>
</event>
<event>
 4    1  0.4382184E+000  0.2063084E+03  0.7546771E-02  0.1144523E+00
         21   -1    0    0  503  502  0.00000000000E+00  0.00000000000E+00  0.54307749713E+03  0.54307749713E+03  0.00000000000E+00 0. -1.
         21   -1    0    0  501  503 -0.00000000000E+00 -0.00000000000E+00 -0.79062867907E+02  0.79062867907E+02  0.00000000000E+00 0.  1.
          6    1    1    2  501    0 -0.10747177654E+03  0.32924034371E+02  0.26104279602E+03  0.33272588740E+03  0.17300000000E+03 0. -1.
         -6    1    1    2    0  502  0.10747177654E+03 -0.32924034371E+02  0.20297183321E+03  0.28941447764E+03  0.17300000000E+03 0.  1.
<mgrwt>
<rscale>  2 0.20630845E+03</rscale>
<asrwt>0</asrwt>
<pdfrwt beam="1">  1       21 0.83550382E-01 0.20630845E+03</pdfrwt>
<pdfrwt beam="2">  1       21 0.12163518E-01 0.20630845E+03</pdfrwt>
<totfact> 0.70936690E+04</totfact>
</mgrwt>
</event>
<event>
 4    1  0.4382184E+000  0.3684919E+03  0.7546771E-02  0.1055271E+00
         21   -1    0    0  503  502  0.00000000000E+00  0.00000000000E+00  0.14257099601E+04  0.14257099601E+04  0.00000000000E+00 0.  1.
         21   -1    0    0  501  503 -0.00000000000E+00 -0.00000000000E+00 -0.12946899631E+03  0.12946899631E+03  0.00000000000E+00 0. -1.
          6    1    1    2  501    0 -0.25135101657E+03  0.20659121959E+03  0.24830718868E+03  0.44434527734E+03  0.17300000000E+03 0. -1.
         -6    1    1    2    0  502  0.25135101657E+03 -0.20659121959E+03  0.10479337751E+04  0.11108336791E+04  0.17300000000E+03 0.  1.
<mgrwt>
<rscale>  2 0.36849188E+03</rscale>
<asrwt>0</asrwt>
<pdfrwt beam="1">  1       21 0.21933998E+00 0.36849188E+03</pdfrwt>
<pdfrwt beam="2">  1       21 0.19918308E-01 0.36849188E+03</pdfrwt>
<totfact> 0.20662143E+03</totfact>
</mgrwt>
</event>
<event>
 4    1  0.4382184E+000  0.1813758E+03  0.7546771E-02  0.1166478E+00
         21   -1    0    0  503  502  0.00000000000E+00  0.00000000000E+00  0.11347480944E+03  0.11347480944E+03  0.00000000000E+00 0. -1.
         21   -1    0    0  501  503 -0.00000000000E+00 -0.00000000000E+00 -0.56419977576E+03  0.56419977576E+03  0.00000000000E+00 0. -1.
          6    1    1    2  501    0 -0.31696313371E+02 -0.44311576690E+02 -0.46161787025E+03  0.49597200551E+03  0.17300000000E+03 0. -1.
         -6    1    1    2    0  502  0.31696313371E+02  0.44311576690E+02  0.10892903941E+02  0.18170257969E+03  0.17300000000E+03 0. -1.
<mgrwt>
<rscale>  2 0.18137578E+03</rscale>
<asrwt>0</asrwt>
<pdfrwt beam="1">  1       21 0.17457663E-01 0.18137578E+03</pdfrwt>
<pdfrwt beam="2">  1       21 0.86799967E-01 0.18137578E+03</pdfrwt>
<totfact> 0.34133455E+04</totfact>
</mgrwt>
</event>
<event>
 4    1  0.4382184E+000  0.1935509E+03  0.7546771E-02  0.1155297E+00
         21   -1    0    0  503  502  0.00000000000E+00  0.00000000000E+00  0.68257947897E+03  0.68257947897E+03  0.00000000000E+00 0.  1.
         21   -1    0    0  501  503 -0.00000000000E+00 -0.00000000000E+00 -0.71220404826E+02  0.71220404826E+02  0.00000000000E+00 0.  1.
          6    1    1    2  501    0  0.20672813436E+02 -0.84294570526E+02  0.12516310368E+03  0.23049456037E+03  0.17300000000E+03 0.  1.
         -6    1    1    2    0  502 -0.20672813436E+02  0.84294570526E+02  0.48619597047E+03  0.52330532343E+03  0.17300000000E+03 0.  1.
<mgrwt>
<rscale>  2 0.19355087E+03</rscale>
<asrwt>0</asrwt>
<pdfrwt beam="1">  1       21 0.10501222E+00 0.19355087E+03</pdfrwt>
<pdfrwt beam="2">  1       21 0.10956986E-01 0.19355087E+03</pdfrwt>
<totfact> 0.50386806E+04</totfact>
</mgrwt>
</event>
<event>
 4    1  0.4382184E+000  0.2080704E+03  0.7546771E-02  0.1143103E+00
         21   -1    0    0  503  502  0.00000000000E+00  0.00000000000E+00  0.67936918673E+03  0.67936918673E+03  0.00000000000E+00 0. -1.
         21   -1    0    0  501  503 -0.00000000000E+00 -0.00000000000E+00 -0.67479311926E+02  0.67479311926E+02  0.00000000000E+00 0. -1.
          6    1    1    2  501    0 -0.18547958174E+02 -0.11410641937E+03  0.39401732595E+03  0.44558159168E+03  0.17300000000E+03 0. -1.
         -6    1    1    2    0  502  0.18547958174E+02  0.11410641937E+03  0.21787254885E+03  0.30126690697E+03  0.17300000000E+03 0. -1.
<mgrwt>
<rscale>  2 0.20807042E+03</rscale>
<asrwt>0</asrwt>
<pdfrwt beam="1">  1       21 0.10451833E+00 0.20807042E+03</pdfrwt>
<pdfrwt beam="2">  1       21 0.10381433E-01 0.20807042E+03</pdfrwt>
<totfact> 0.55670875E+04</totfact>
</mgrwt>
</event>
<event>
 4    1  0.4382184E+000  0.1882899E+03  0.7546771E-02  0.1160013E+00
         21   -1    0    0  501  502  0.00000000000E+00  0.00000000000E+00  0.73394446446E+03  0.73394446446E+03  0.00000000000E+00 0.  1.
         21   -1    0    0  502  503 -0.00000000000E+00 -0.00000000000E+00 -0.60360451683E+02  0.60360451683E+02  0.00000000000E+00 0. -1.
          6    1    1    2  501    0 -0.73965323846E+02 -0.72957668557E+01  0.51428244669E+03  0.54766735553E+03  0.17300000000E+03 0.  1.
         -6    1    1    2    0  503  0.73965323846E+02  0.72957668557E+01  0.15930156609E+03  0.24663756061E+03  0.17300000000E+03 0. -1.
<mgrwt>
<rscale>  2 0.18828993E+03</rscale>
<asrwt>0</asrwt>
<pdfrwt beam="1">  1       21 0.11291453E+00 0.18828993E+03</pdfrwt>
<pdfrwt beam="2">  1       21 0.92862239E-02 0.18828993E+03</pdfrwt>
<totfact> 0.56795370E+04</totfact>
</mgrwt>
</event>
<event>
 4    1  0.4382184E+000  0.2911780E+03  0.7546771E-02  0.1089736E+00
         21   -1    0    0  501  502  0.00000000000E+00  0.00000000000E+00  0.14792922358E+03  0.14792922358E+03  0.00000000000E+00 0. -1.
         21   -1    0    0  502  503 -0.00000000000E+00 -0.00000000000E+00 -0.57566615940E+03  0.57566615940E+03  0.00000000000E+00 0.  1.
          6    1    1    2  501    0 -0.87772709962E+02  0.21714416736E+03 -0.18991711395E+03  0.34763939392E+03  0.17300000000E+03 0. -1.
         -6    1    1    2    0  503  0.87772709962E+02 -0.21714416736E+03 -0.23781982187E+03  0.37595598905E+03  0.17300000000E+03 0.  1.
<mgrwt>
<rscale>  2 0.29117802E+03</rscale>
<asrwt>0</asrwt>
<pdfrwt beam="1">  1       21 0.22758342E-01 0.29117802E+03</pdfrwt>
<pdfrwt beam="2">  1       21 0.88564025E-01 0.29117802E+03</pdfrwt>
<totfact> 0.18759669E+04</totfact>
</mgrwt>
</event>
<event>
 4    1  0.4382184E+000  0.1915708E+03  0.7546771E-02  0.1157052E+00
         21   -1    0    0  503  502  0.00000000000E+00  0.00000000000E+00  0.27679652958E+02  0.27679652958E+02  0.00000000000E+00 0.  1.
         21   -1    0    0  501  503 -0.00000000000E+00 -0.00000000000E+00 -0.14376865184E+04  0.14376865184E+04  0.00000000000E+00 0.  1.
          6    1    1    2  501    0  0.51958915616E+02 -0.63801645782E+02 -0.90934375075E+03  0.92930373718E+03  0.17300000000E+03 0.  1.
         -6    1    1    2    0  502 -0.51958915616E+02  0.63801645782E+02 -0.50066311466E+03  0.53606243414E+03  0.17300000000E+03 0.  1.
<mgrwt>
<rscale>  2 0.19157082E+03</rscale>
<asrwt>0</asrwt>
<pdfrwt beam="1">  1       21 0.42584077E-02 0.19157082E+03</pdfrwt>
<pdfrwt beam="2">  1       21 0.22118257E+00 0.19157082E+03</pdfrwt>
<totfact> 0.34927358E+04</totfact>
</mgrwt>
</event>
<event>
 4    1  0.4382184E+000  0.1913577E+03  0.7546771E-02  0.1157242E+00
         21   -1    0    0  501  502  0.00000000000E+00  0.00000000000E+00  0.95288008895E+02  0.95288008895E+02  0.00000000000E+00 0. -1.
         21   -1    0    0  502  503 -0.00000000000E+00 -0.00000000000E+00 -0.10657647827E+04  0.10657647827E+04  0.00000000000E+00 0. -1.
          6    1    1    2  501    0  0.58679379132E+02  0.56969315039E+02 -0.21024946647E+02  0.19250927451E+03  0.17300000000E+03 0. -1.
         -6    1    1    2    0  503 -0.58679379132E+02 -0.56969315039E+02 -0.94945182711E+03  0.96854351704E+03  0.17300000000E+03 0. -1.
<mgrwt>
<rscale>  2 0.19135771E+03</rscale>
<asrwt>0</asrwt>
<pdfrwt beam="1">  1       21 0.14659693E-01 0.19135771E+03</pdfrwt>
<pdfrwt beam="2">  1       21 0.16396382E+00 0.19135771E+03</pdfrwt>
<totfact> 0.96444496E+03</totfact>
</mgrwt>
</event>
<event>
 4    1  0.4382184E+000  0.2149697E+03  0.7546771E-02  0.1137690E+00
         21   -1    0    0  501  502  0.00000000000E+00  0.00000000000E+00  0.12086773123E+03  0.12086773123E+03  0.00000000000E+00 0. -1.
         21   -1    0    0  502  503 -0.00000000000E+00 -0.00000000000E+00 -0.53357043712E+03  0.53357043712E+03  0.00000000000E+00 0. -1.
          6    1    1    2  501    0  0.84418136702E+02 -0.95689845217E+02 -0.32142798294E+02  0.21735944370E+03  0.17300000000E+03 0. -1.
         -6    1    1    2    0  503 -0.84418136702E+02  0.95689845217E+02 -0.38055990759E+03  0.43707872465E+03  0.17300000000E+03 0. -1.
<mgrwt>
<rscale>  2 0.21496969E+03</rscale>
<asrwt>0</asrwt>
<pdfrwt beam="1">  1       21 0.18595036E-01 0.21496969E+03</pdfrwt>
<pdfrwt beam="2">  1       21 0.82087758E-01 0.21496969E+03</pdfrwt>
<totfact> 0.33888053E+04</totfact>
</mgrwt>
</event>
<event>
 4    1  0.4382184E+000  0.1999680E+03  0.7546771E-02  0.1149766E+00
         21   -1    0    0  501  502  0.00000000000E+00  0.00000000000E+00  0.61844767183E+03  0.61844767183E+03  0.00000000000E+00 0.  1.
         21   -1    0    0  502  503 -0.00000000000E+00 -0.00000000000E+00 -0.64761120660E+02  0.64761120660E+02  0.00000000000E+00 0. -1.
          6    1    1    2  501    0  0.62985443370E+02 -0.78045107635E+02  0.26317087030E+03  0.33052399592E+03  0.17300000000E+03 0. -1.
         -6    1    1    2    0  503 -0.62985443370E+02  0.78045107635E+02  0.29051568087E+03  0.35268479657E+03  0.17300000000E+03 0. -1.
<mgrwt>
<rscale>  2 0.19996801E+03</rscale>
<asrwt>0</asrwt>
<pdfrwt beam="1">  1       21 0.95145792E-01 0.19996801E+03</pdfrwt>
<pdfrwt beam="2">  1       21 0.99632497E-02 0.19996801E+03</pdfrwt>
<totfact> 0.75133142E+04</totfact>
</mgrwt>
</event>
<event>
 4    1  0.4382184E+000  0.2160443E+03  0.7546771E-02  0.1136867E+00
         21   -1    0    0  501  502  0.00000000000E+00  0.00000000000E+00  0.16218380862E+03  0.16218380862E+03  0.00000000000E+00 0. -1.
         21   -1    0    0  502  503 -0.00000000000E+00 -0.00000000000E+00 -0.31217697416E+03  0.31217697416E+03  0.00000000000E+00 0.  1.
          6    1    1    2  501    0  0.12829665424E+03  0.16914937471E+02 -0.87074136483E+01  0.21621971615E+03  0.17300000000E+03 0. -1.
         -6    1    1    2    0  503 -0.12829665424E+03 -0.16914937471E+02 -0.14128575189E+03  0.25814106664E+03  0.17300000000E+03 0.  1.
<mgrwt>
<rscale>  2 0.21604432E+03</rscale>
<asrwt>0</asrwt>
<pdfrwt beam="1">  1       21 0.24951355E-01 0.21604432E+03</pdfrwt>
<pdfrwt beam="2">  1       21 0.48027226E-01 0.21604432E+03</pdfrwt>
<totfact> 0.62324650E+04</totfact>
</mgrwt>
</event>
<event>
 4    1  0.4382184E+000  0.2089544E+03  0.7546771E-02  0.1142397E+00
         21   -1    0    0  503  502  0.00000000000E+00  0.00000000000E+00  0.11393960845E+04  0.11393960845E+04  0.00000000000E+00 0. -1.
         21   -1    0    0  501  503 -0.00000000000E+00 -0.00000000000E+00 -0.53757442108E+02  0.53757442108E+02  0.00000000000E+00 0.  1.
          6    1    1    2  501    0 -0.54239975278E+02  0.10387958690E+03  0.22312775334E+03  0.30569255438E+03  0.17300000000E+03 0.  1.
         -6    1    1    2    0  502  0.54239975278E+02 -0.10387958690E+03  0.86251088907E+03  0.88746097224E+03  0.17300000000E+03 0. -1.
<mgrwt>
<rscale>  2 0.20895441E+03</rscale>
<asrwt>0</asrwt>
<pdfrwt beam="1">  1       21 0.17529169E+00 0.20895441E+03</pdfrwt>
<pdfrwt beam="2">  1       21 0.82703765E-02 0.20895441E+03</pdfrwt>
<totfact> 0.21948153E+04</totfact>
</mgrwt>
</event>
<event>
 4    1  0.4382184E+000  0.2270358E+03  0.7546771E-02  0.1128744E+00
         21   -1    0    0  503  502  0.00000000000E+00  0.00000000000E+00  0.12572139167E+03  0.12572139167E+03  0.00000000000E+00 0. -1.
         21   -1    0    0  501  503 -0.00000000000E+00 -0.00000000000E+00 -0.81847087321E+03  0.81847087321E+03  0.00000000000E+00 0.  1.
          6    1    1    2  501    0 -0.90716348181E+02 -0.11570130211E+03 -0.67988683573E+03  0.71679240826E+03  0.17300000000E+03 0.  1.
         -6    1    1    2    0  502  0.90716348181E+02  0.11570130211E+03 -0.12862645817E+02  0.22739985663E+03  0.17300000000E+03 0. -1.
<mgrwt>
<rscale>  2 0.22703578E+03</rscale>
<asrwt>0</asrwt>
<pdfrwt beam="1">  1       21 0.19341751E-01 0.22703578E+03</pdfrwt>
<pdfrwt beam="2">  1       21 0.12591861E+00 0.22703578E+03</pdfrwt>
<totfact> 0.11241375E+04</totfact>
</mgrwt>
</event>
<event>
 4    1  0.4382184E+000  0.1971492E+03  0.7546771E-02  0.1152167E+00
         21   -1    0    0  503  502  0.00000000000E+00  0.00000000000E+00  0.58031678615E+03  0.58031678615E+03  0.00000000000E+00 0.  1.
         21   -1    0    0  501  503 -0.00000000000E+00 -0.00000000000E+00 -0.10164307281E+03  0.10164307281E+03  0.00000000000E+00 0.  1.
          6    1    1    2  501    0  0.54965030363E+02 -0.76926271398E+02  0.40203956491E+02  0.20120676905E+03  0.17300000000E+03 0.  1.
         -6    1    1    2    0  502 -0.54965030363E+02  0.76926271398E+02  0.43846975684E+03  0.48075308991E+03  0.17300000000E+03 0.  1.
<mgrwt>
<rscale>  2 0.19714920E+03</rscale>
<asrwt>0</asrwt>
<pdfrwt beam="1">  1       21 0.89279503E-01 0.19714920E+03</pdfrwt>
<pdfrwt beam="2">  1       21 0.15637396E-01 0.19714920E+03</pdfrwt>
<totfact> 0.38823808E+04</totfact>
</mgrwt>
</event>
<event>
 4    1  0.4382184E+000  0.2121722E+03  0.7546771E-02  0.1139857E+00
         21   -1    0    0  503  502  0.00000000000E+00  0.00000000000E+00  0.10741957514E+04  0.10741957514E+04  0.00000000000E+00 0.  1.
         21   -1    0    0  501  503 -0.00000000000E+00 -0.00000000000E+00 -0.16175935902E+03  0.16175935902E+03  0.00000000000E+00 0.  1.
          6    1    1    2  501    0  0.45541329374E+02 -0.11407907679E+03 -0.75718632986E+02  0.22527840514E+03  0.17300000000E+03 0.  1.
         -6    1    1    2    0  502 -0.45541329374E+02  0.11407907679E+03  0.98815502532E+03  0.10106767052E+04  0.17300000000E+03 0.  1.
<mgrwt>
<rscale>  2 0.21217221E+03</rscale>
<asrwt>0</asrwt>
<pdfrwt beam="1">  1       21 0.16526088E+00 0.21217221E+03</pdfrwt>
<pdfrwt beam="2">  1       21 0.24886056E-01 0.21217221E+03</pdfrwt>
<totfact> 0.34622645E+03</totfact>
</mgrwt>
</event>
<event>
 4    1  0.4382184E+000  0.1959294E+03  0.7546771E-02  0.1153220E+00
         21   -1    0    0  503  502  0.00000000000E+00  0.00000000000E+00  0.51026669568E+02  0.51026669568E+02  0.00000000000E+00 0.  1.
         21   -1    0    0  501  503 -0.00000000000E+00 -0.00000000000E+00 -0.76746505171E+03  0.76746505171E+03  0.00000000000E+00 0.  1.
          6    1    1    2  501    0 -0.74406293166E+02  0.54065022958E+02 -0.30072718308E+03  0.35892222251E+03  0.17300000000E+03 0.  1.
         -6    1    1    2    0  502  0.74406293166E+02 -0.54065022958E+02 -0.41571119906E+03  0.45956949877E+03  0.17300000000E+03 0.  1.
<mgrwt>
<rscale>  2 0.19592938E+03</rscale>
<asrwt>0</asrwt>
<pdfrwt beam="1">  1       21 0.78502573E-02 0.19592938E+03</pdfrwt>
<pdfrwt beam="2">  1       21 0.11807154E+00 0.19592938E+03</pdfrwt>
<totfact> 0.68059066E+04</totfact>
</mgrwt>
</event>
<event>
 4    1  0.4382184E+000  0.1958477E+03  0.7546771E-02  0.1153290E+00
         21   -1    0    0  501  502  0.00000000000E+00  0.00000000000E+00  0.12440450445E+03  0.12440450445E+03  0.00000000000E+00 0. -1.
         21   -1    0    0  502  503 -0.00000000000E+00 -0.00000000000E+00 -0.30854272776E+03  0.30854272776E+03  0.00000000000E+00 0. -1.
          6    1    1    2  501    0  0.81261250355E+02  0.42707684845E+02 -0.86246718474E+02  0.21399727475E+03  0.17300000000E+03 0. -1.
         -6    1    1    2    0  503 -0.81261250355E+02 -0.42707684845E+02 -0.97891504831E+02  0.21894995746E+03  0.17300000000E+03 0. -1.
<mgrwt>
<rscale>  2 0.19584774E+03</rscale>
<asrwt>0</asrwt>
<pdfrwt beam="1">  1       21 0.19139155E-01 0.19584774E+03</pdfrwt>
<pdfrwt beam="2">  1       21 0.47468111E-01 0.19584774E+03</pdfrwt>
<totfact> 0.10622524E+05</totfact>
</mgrwt>
</event>
<event>
 4    1  0.4382184E+000  0.1790474E+03  0.7546771E-02  0.1168728E+00
         21   -1    0    0  503  502  0.00000000000E+00  0.00000000000E+00  0.33681366231E+03  0.33681366231E+03  0.00000000000E+00 0.  1.
         21   -1    0    0  501  503 -0.00000000000E+00 -0.00000000000E+00 -0.12143620151E+03  0.12143620151E+03  0.00000000000E+00 0.  1.
          6    1    1    2  501    0 -0.45909093369E+02  0.46165367386E+01  0.11485561502E+01  0.17905104425E+03  0.17300000000E+03 0.  1.
         -6    1    1    2    0  502  0.45909093369E+02 -0.46165367386E+01  0.21422890464E+03  0.27919881957E+03  0.17300000000E+03 0.  1.
<mgrwt>
<rscale>  2 0.17904736E+03</rscale>
<asrwt>0</asrwt>
<pdfrwt beam="1">  1       21 0.51817486E-01 0.17904736E+03</pdfrwt>
<pdfrwt beam="2">  1       21 0.18682493E-01 0.17904736E+03</pdfrwt>
<totfact> 0.93165377E+04</totfact>
</mgrwt>
</event>
<event>
 4    1  0.4382184E+000  0.1969060E+03  0.7546771E-02  0.1152376E+00
         21   -1    0    0  503  502  0.00000000000E+00  0.00000000000E+00  0.13187995226E+03  0.13187995226E+03  0.00000000000E+00 0.  1.
         21   -1    0    0  501  503 -0.00000000000E+00 -0.00000000000E+00 -0.29413489669E+03  0.29413489669E+03  0.00000000000E+00 0.  1.
          6    1    1    2  501    0  0.76836870108E+02 -0.54213283518E+02 -0.76474270379E+02  0.21123517403E+03  0.17300000000E+03 0.  1.
         -6    1    1    2    0  502 -0.76836870108E+02  0.54213283518E+02 -0.85780674045E+02  0.21477967492E+03  0.17300000000E+03 0.  1.
<mgrwt>
<rscale>  2 0.19690603E+03</rscale>
<asrwt>0</asrwt>
<pdfrwt beam="1">  1       21 0.20289224E-01 0.19690603E+03</pdfrwt>
<pdfrwt beam="2">  1       21 0.45251522E-01 0.19690603E+03</pdfrwt>
<totfact> 0.10509839E+05</totfact>
</mgrwt>
</event>
<event>
 4    1  0.4382184E+000  0.2154086E+03  0.7546771E-02  0.1137353E+00
         21   -1    0    0  501  502  0.00000000000E+00  0.00000000000E+00  0.20096006666E+04  0.20096006666E+04  0.00000000000E+00 0.  1.
         21   -1    0    0  502  503 -0.00000000000E+00 -0.00000000000E+00 -0.24137992744E+02  0.24137992744E+02  0.00000000000E+00 0. -1.
          6    1    1    2  501    0 -0.51827684028E+02  0.11741266809E+03  0.12046552103E+04  0.12237626482E+04  0.17300000000E+03 0.  1.
         -6    1    1    2    0  503  0.51827684028E+02 -0.11741266809E+03  0.78080746353E+03  0.80997601110E+03  0.17300000000E+03 0. -1.
<mgrwt>
<rscale>  2 0.21540855E+03</rscale>
<asrwt>0</asrwt>
<pdfrwt beam="1">  1       21 0.30916920E+00 0.21540855E+03</pdfrwt>
<pdfrwt beam="2">  1       21 0.37135389E-02 0.21540855E+03</pdfrwt>
<totfact> 0.13104896E+04</totfact>
</mgrwt>
</event>
<event>
 4    1  0.4382184E+000  0.3029484E+03  0.7546771E-02  0.1083776E+00
         21   -1    0    0  501  502  0.00000000000E+00  0.00000000000E+00  0.23401107870E+04  0.23401107870E+04  0.00000000000E+00 0.  1.
         21   -1    0    0  502  503 -0.00000000000E+00 -0.00000000000E+00 -0.50060631898E+02  0.50060631898E+02  0.00000000000E+00 0.  1.
          6    1    1    2  501    0 -0.24391815931E+02 -0.24749504577E+03  0.17011726656E+04  0.17279369770E+04  0.17300000000E+03 0.  1.
         -6    1    1    2    0  503  0.24391815931E+02  0.24749504577E+03  0.58887748948E+03  0.66223444186E+03  0.17300000000E+03 0.  1.
<mgrwt>
<rscale>  2 0.30294844E+03</rscale>
<asrwt>0</asrwt>
<pdfrwt beam="1">  1       21 0.36001696E+00 0.30294844E+03</pdfrwt>
<pdfrwt beam="2">  1       21 0.77016375E-02 0.30294844E+03</pdfrwt>
<totfact> 0.17307806E+03</totfact>
</mgrwt>
</event>
<event>
 4    1  0.4382184E+000  0.2212929E+03  0.7546771E-02  0.1132923E+00
         21   -1    0    0  501  502  0.00000000000E+00  0.00000000000E+00  0.35082212250E+03  0.35082212250E+03  0.00000000000E+00 0. -1.
         21   -1    0    0  502  503 -0.00000000000E+00 -0.00000000000E+00 -0.14380389065E+03  0.14380389065E+03  0.00000000000E+00 0.  1.
          6    1    1    2  501    0  0.10733182619E+02 -0.13757300603E+03  0.61163347948E+02  0.22958982628E+03  0.17300000000E+03 0. -1.
         -6    1    1    2    0  503 -0.10733182619E+02  0.13757300603E+03  0.14585488390E+03  0.26503618688E+03  0.17300000000E+03 0. -1.
<mgrwt>
<rscale>  2 0.22129287E+03</rscale>
<asrwt>0</asrwt>
<pdfrwt beam="1">  1       21 0.53972634E-01 0.22129287E+03</pdfrwt>
<pdfrwt beam="2">  1       21 0.22123676E-01 0.22129287E+03</pdfrwt>
<totfact> 0.61202684E+04</totfact>
</mgrwt>
</event>
<event>
 4    1  0.4382184E+000  0.2363106E+03  0.7546771E-02  0.1122275E+00
         21   -1    0    0  501  502  0.00000000000E+00  0.00000000000E+00  0.34562661269E+03  0.34562661269E+03  0.00000000000E+00 0.  1.
         21   -1    0    0  502  503 -0.00000000000E+00 -0.00000000000E+00 -0.24826229985E+03  0.24826229985E+03  0.00000000000E+00 0.  1.
          6    1    1    2  501    0  0.89468295135E+00 -0.16097483490E+03  0.22415564160E+03  0.32571221897E+03  0.17300000000E+03 0.  1.
         -6    1    1    2    0  503 -0.89468295135E+00  0.16097483490E+03 -0.12679132876E+03  0.26817669357E+03  0.17300000000E+03 0.  1.
<mgrwt>
<rscale>  2 0.23631060E+03</rscale>
<asrwt>0</asrwt>
<pdfrwt beam="1">  1       21 0.53173325E-01 0.23631060E+03</pdfrwt>
<pdfrwt beam="2">  1       21 0.38194200E-01 0.23631060E+03</pdfrwt>
<totfact> 0.21614401E+04</totfact>
</mgrwt>
</event>
<event>
 4    1  0.4382184E+000  0.1907517E+03  0.7546771E-02  0.1157785E+00
         21   -1    0    0  503  502  0.00000000000E+00  0.00000000000E+00  0.52189038208E+03  0.52189038208E+03  0.00000000000E+00 0.  1.
         21   -1    0    0  501  503 -0.00000000000E+00 -0.00000000000E+00 -0.10973280801E+03  0.10973280801E+03  0.00000000000E+00 0. -1.
          6    1    1    2  501    0  0.56660654260E+02 -0.56980564984E+02  0.15375068167E+02  0.19137034057E+03  0.17300000000E+03 0. -1.
         -6    1    1    2    0  502 -0.56660654260E+02  0.56980564984E+02  0.39678250590E+03  0.44025284953E+03  0.17300000000E+03 0.  1.
<mgrwt>
<rscale>  2 0.19075171E+03</rscale>
<asrwt>0</asrwt>
<pdfrwt beam="1">  1       21 0.80290826E-01 0.19075171E+03</pdfrwt>
<pdfrwt beam="2">  1       21 0.16881971E-01 0.19075171E+03</pdfrwt>
<totfact> 0.43147586E+04</totfact>
</mgrwt>
</event>
<event>
 4    1  0.4382184E+000  0.2828277E+03  0.7546771E-02  0.1094154E+00
         21   -1    0    0  503  502  0.00000000000E+00  0.00000000000E+00  0.30874914626E+03  0.30874914626E+03  0.00000000000E+00 0. -1.
         21   -1    0    0  501  503 -0.00000000000E+00 -0.00000000000E+00 -0.47397256205E+03  0.47397256205E+03  0.00000000000E+00 0.  1.
          6    1    1    2  501    0 -0.40749041445E+02 -0.22000458072E+03 -0.34612889784E+03  0.44698625688E+03  0.17300000000E+03 0.  1.
         -6    1    1    2    0  502  0.40749041445E+02  0.22000458072E+03  0.18090548204E+03  0.33573545143E+03  0.17300000000E+03 0. -1.
<mgrwt>
<rscale>  2 0.28282769E+03</rscale>
<asrwt>0</asrwt>
<pdfrwt beam="1">  1       21 0.47499869E-01 0.28282769E+03</pdfrwt>
<pdfrwt beam="2">  1       21 0.72918856E-01 0.28282769E+03</pdfrwt>
<totfact> 0.67825185E+03</totfact>
</mgrwt>
</event>
<event>
 4    1  0.4382184E+000  0.2337271E+03  0.7546771E-02  0.1124044E+00
         21   -1    0    0  503  502  0.00000000000E+00  0.00000000000E+00  0.10545376349E+03  0.10545376349E+03  0.00000000000E+00 0.  1.
         21   -1    0    0  501  503 -0.00000000000E+00 -0.00000000000E+00 -0.51849169868E+03  0.51849169868E+03  0.00000000000E+00 0. -1.
          6    1    1    2  501    0  0.69302353787E+02  0.14105511774E+03 -0.21581414748E+03  0.31812593219E+03  0.17300000000E+03 0.  1.
         -6    1    1    2    0  502 -0.69302353787E+02 -0.14105511774E+03 -0.19722378770E+03  0.30581952998E+03  0.17300000000E+03 0. -1.
<mgrwt>
<rscale>  2 0.23372711E+03</rscale>
<asrwt>0</asrwt>
<pdfrwt beam="1">  1       21 0.16223656E-01 0.23372711E+03</pdfrwt>
<pdfrwt beam="2">  1       21 0.79767954E-01 0.23372711E+03</pdfrwt>
<totfact> 0.46140305E+04</totfact>
</mgrwt>
</event>
<event>
 4    1  0.4382184E+000  0.2202996E+03  0.7546771E-02  0.1133660E+00
         21   -1    0    0  503  502  0.00000000000E+00  0.00000000000E+00  0.14700179505E+03  0.14700179505E+03  0.00000000000E+00 0. -1.
         21   -1    0    0  501  503 -0.00000000000E+00 -0.00000000000E+00 -0.38637468016E+03  0.38637468016E+03  0.00000000000E+00 0. -1.
          6    1    1    2  501    0  0.73148512011E+02  0.11511814722E+03 -0.22142433405E+03  0.31234696788E+03  0.17300000000E+03 0. -1.
         -6    1    1    2    0  502 -0.73148512011E+02 -0.11511814722E+03 -0.17948551058E+02  0.22102950734E+03  0.17300000000E+03 0. -1.
<mgrwt>
<rscale>  2 0.22029955E+03</rscale>
<asrwt>0</asrwt>
<pdfrwt beam="1">  1       21 0.22615661E-01 0.22029955E+03</pdfrwt>
<pdfrwt beam="2">  1       21 0.59442258E-01 0.22029955E+03</pdfrwt>
<totfact> 0.47799531E+04</totfact>
</mgrwt>
</event>
<event>
 4    1  0.4382184E+000  0.2129935E+03  0.7546771E-02  0.1139217E+00
         21   -1    0    0  501  502  0.00000000000E+00  0.00000000000E+00  0.16348758487E+03  0.16348758487E+03  0.00000000000E+00 0.  1.
         21   -1    0    0  502  503 -0.00000000000E+00 -0.00000000000E+00 -0.27822134944E+03  0.27822134944E+03  0.00000000000E+00 0.  1.
          6    1    1    2  501    0 -0.70716120273E+01  0.12404531269E+03 -0.46047235764E+02  0.21791419233E+03  0.17300000000E+03 0.  1.
         -6    1    1    2    0  503  0.70716120273E+01 -0.12404531269E+03 -0.68686528807E+02  0.22379474198E+03  0.17300000000E+03 0.  1.
<mgrwt>
<rscale>  2 0.21299354E+03</rscale>
<asrwt>0</asrwt>
<pdfrwt beam="1">  1       21 0.25151936E-01 0.21299354E+03</pdfrwt>
<pdfrwt beam="2">  1       21 0.42803285E-01 0.21299354E+03</pdfrwt>
<totfact> 0.77920754E+04</totfact>
</mgrwt>
</event>
<event>
 4    1  0.4382184E+000  0.2314480E+03  0.7546771E-02  0.1125625E+00
         21   -1    0    0  503  502  0.00000000000E+00  0.00000000000E+00  0.30036749855E+03  0.30036749855E+03  0.00000000000E+00 0.  1.
         21   -1    0    0  501  503 -0.00000000000E+00 -0.00000000000E+00 -0.20234709128E+03  0.20234709128E+03  0.00000000000E+00 0. -1.
          6    1    1    2  501    0 -0.14577962411E+03  0.48861668060E+02 -0.37565107265E+02  0.23447664851E+03  0.17300000000E+03 0. -1.
         -6    1    1    2    0  502  0.14577962411E+03 -0.48861668060E+02  0.13558551454E+03  0.26823794132E+03  0.17300000000E+03 0.  1.
<mgrwt>
<rscale>  2 0.23144797E+03</rscale>
<asrwt>0</asrwt>
<pdfrwt beam="1">  1       21 0.46210385E-01 0.23144797E+03</pdfrwt>
<pdfrwt beam="2">  1       21 0.31130322E-01 0.23144797E+03</pdfrwt>
<totfact> 0.43663082E+04</totfact>
</mgrwt>
</event>
<event>
 4    1  0.4382184E+000  0.5643306E+03  0.7546771E-02  0.9982303E-01
         21   -1    0    0  501  502  0.00000000000E+00  0.00000000000E+00  0.15818285219E+04  0.15818285219E+04  0.00000000000E+00 0. -1.
         21   -1    0    0  502  503 -0.00000000000E+00 -0.00000000000E+00 -0.20194920440E+03  0.20194920440E+03  0.00000000000E+00 0.  1.
          6    1    1    2  501    0  0.39862191030E+03 -0.36005630712E+03  0.64053910323E+03  0.85367400946E+03  0.17300000000E+03 0. -1.
         -6    1    1    2    0  503 -0.39862191030E+03  0.36005630712E+03  0.73934021431E+03  0.93010371688E+03  0.17300000000E+03 0.  1.
<mgrwt>
<rscale>  2 0.56433055E+03</rscale>
<asrwt>0</asrwt>
<pdfrwt beam="1">  1       21 0.24335823E+00 0.56433055E+03</pdfrwt>
<pdfrwt beam="2">  1       21 0.31069109E-01 0.56433055E+03</pdfrwt>
<totfact> 0.56020756E+02</totfact>
</mgrwt>
</event>
<event>
 4    1  0.4382184E+000  0.2998270E+03  0.7546771E-02  0.1085327E+00
         21   -1    0    0  503  502  0.00000000000E+00  0.00000000000E+00  0.43744599386E+03  0.43744599386E+03  0.00000000000E+00 0. -1.
         21   -1    0    0  501  503 -0.00000000000E+00 -0.00000000000E+00 -0.21738369449E+03  0.21738369449E+03  0.00000000000E+00 0.  1.
          6    1    1    2  501    0 -0.16385216025E+03  0.18198819319E+03  0.33486391329E+02  0.30169118529E+03  0.17300000000E+03 0. -1.
         -6    1    1    2    0  502  0.16385216025E+03 -0.18198819319E+03  0.18657590804E+03  0.35313850306E+03  0.17300000000E+03 0.  1.
<mgrwt>
<rscale>  2 0.29982700E+03</rscale>
<asrwt>0</asrwt>
<pdfrwt beam="1">  1       21 0.67299384E-01 0.29982700E+03</pdfrwt>
<pdfrwt beam="2">  1       21 0.33443645E-01 0.29982700E+03</pdfrwt>
<totfact> 0.16462148E+04</totfact>
</mgrwt>
</event>
<event>
 4    1  0.4382184E+000  0.1731914E+03  0.7546771E-02  0.1174560E+00
         21   -1    0    0  503  502  0.00000000000E+00  0.00000000000E+00  0.31249635311E+04  0.31249635311E+04  0.00000000000E+00 0.  1.
         21   -1    0    0  501  503 -0.00000000000E+00 -0.00000000000E+00 -0.15426529514E+02  0.15426529514E+02  0.00000000000E+00 0.  1.
          6    1    1    2  501    0  0.67482312386E+01 -0.45526587352E+01  0.58965866588E+03  0.61456700821E+03  0.17300000000E+03 0. -1.
         -6    1    1    2    0  502 -0.67482312386E+01  0.45526587352E+01  0.25198783357E+04  0.25258230524E+04  0.17300000000E+03 0. -1.
<mgrwt>
<rscale>  2 0.17319141E+03</rscale>
<asrwt>0</asrwt>
<pdfrwt beam="1">  1       21 0.48076312E+00 0.17319141E+03</pdfrwt>
<pdfrwt beam="2">  1       21 0.23733147E-02 0.17319141E+03</pdfrwt>
<totfact> 0.24752707E+03</totfact>
</mgrwt>
</event>
<event>
 4    1  0.4382184E+000  0.1759013E+03  0.7546771E-02  0.1171830E+00
         21   -1    0    0  501  502  0.00000000000E+00  0.00000000000E+00  0.18592903625E+03  0.18592903625E+03  0.00000000000E+00 0. -1.
         21   -1    0    0  502  503 -0.00000000000E+00 -0.00000000000E+00 -0.22028170420E+03  0.22028170420E+03  0.00000000000E+00 0. -1.
          6    1    1    2  501    0  0.31741333207E+02 -0.21837014756E+01  0.83260857087E+02  0.19461153899E+03  0.17300000000E+03 0. -1.
         -6    1    1    2    0  503 -0.31741333207E+02  0.21837014756E+01 -0.11761352503E+03  0.21159920146E+03  0.17300000000E+03 0. -1.
<mgrwt>
<rscale>  2 0.17590134E+03</rscale>
<asrwt>0</asrwt>
<pdfrwt beam="1">  1       21 0.28604467E-01 0.17590134E+03</pdfrwt>
<pdfrwt beam="2">  1       21 0.33889493E-01 0.17590134E+03</pdfrwt>
<totfact> 0.98686836E+04</totfact>
</mgrwt>
</event>
<event>
 4    1  0.4382184E+000  0.3132060E+03  0.7546771E-02  0.1078819E+00
         21   -1    0    0  501  502  0.00000000000E+00  0.00000000000E+00  0.96383442612E+03  0.96383442612E+03  0.00000000000E+00 0.  1.
         21   -1    0    0  502  503 -0.00000000000E+00 -0.00000000000E+00 -0.18382506539E+03  0.18382506539E+03  0.00000000000E+00 0.  1.
          6    1    1    2  501    0  0.25243044796E+02 -0.25986883029E+03  0.77336733354E+03  0.83438303725E+03  0.17300000000E+03 0.  1.
         -6    1    1    2    0  503 -0.25243044796E+02  0.25986883029E+03  0.66420271861E+01  0.31327645426E+03  0.17300000000E+03 0.  1.
<mgrwt>
<rscale>  2 0.31320603E+03</rscale>
<asrwt>0</asrwt>
<pdfrwt beam="1">  1       21 0.14828222E+00 0.31320603E+03</pdfrwt>
<pdfrwt beam="2">  1       21 0.28280780E-01 0.31320603E+03</pdfrwt>
<totfact> 0.33836998E+03</totfact>
</mgrwt>
</event>
<event>
 4    1  0.4382184E+000  0.2262710E+03  0.7546771E-02  0.1129292E+00
         21   -1    0    0  503  502  0.00000000000E+00  0.00000000000E+00  0.26652030461E+03  0.26652030461E+03  0.00000000000E+00 0. -1.
         21   -1    0    0  501  503 -0.00000000000E+00 -0.00000000000E+00 -0.19210020874E+03  0.19210020874E+03  0.00000000000E+00 0.  1.
          6    1    1    2  501    0  0.30151409449E+02 -0.14269007180E+03  0.37417898410E+02  0.22934398445E+03  0.17300000000E+03 0. -1.
         -6    1    1    2    0  502 -0.30151409449E+02  0.14269007180E+03  0.37002197458E+02  0.22927652889E+03  0.17300000000E+03 0.  1.
<mgrwt>
<rscale>  2 0.22627100E+03</rscale>
<asrwt>0</asrwt>
<pdfrwt beam="1">  1       21 0.41003124E-01 0.22627100E+03</pdfrwt>
<pdfrwt beam="2">  1       21 0.29553878E-01 0.22627100E+03</pdfrwt>
<totfact> 0.61929152E+04</totfact>
</mgrwt>
</event>
<event>
 4    1  0.4382184E+000  0.1820923E+03  0.7546771E-02  0.1165793E+00
         21   -1    0    0  503  502  0.00000000000E+00  0.00000000000E+00  0.25472488833E+03  0.25472488833E+03  0.00000000000E+00 0.  1.
         21   -1    0    0  501  503 -0.00000000000E+00 -0.00000000000E+00 -0.13261956383E+03  0.13261956383E+03  0.00000000000E+00 0.  1.
          6    1    1    2  501    0  0.37728334022E+02 -0.42487200873E+02  0.87372928489E+02  0.20196934931E+03  0.17300000000E+03 0.  1.
         -6    1    1    2    0  502 -0.37728334022E+02  0.42487200873E+02  0.34732396005E+02  0.18537510285E+03  0.17300000000E+03 0.  1.
<mgrwt>
<rscale>  2 0.18209226E+03</rscale>
<asrwt>0</asrwt>
<pdfrwt beam="1">  1       21 0.39188444E-01 0.18209226E+03</pdfrwt>
<pdfrwt beam="2">  1       21 0.20403010E-01 0.18209226E+03</pdfrwt>
<totfact> 0.14009356E+05</totfact>
</mgrwt>
</event>
<event>
 4    1  0.4382184E+000  0.1839430E+03  0.7546771E-02  0.1164041E+00
         21   -1    0    0  503  502  0.00000000000E+00  0.00000000000E+00  0.33112463871E+03  0.33112463871E+03  0.00000000000E+00 0. -1.
         21   -1    0    0  501  503 -0.00000000000E+00 -0.00000000000E+00 -0.18487248259E+03  0.18487248259E+03  0.00000000000E+00 0. -1.
          6    1    1    2  501    0  0.41345070207E+02 -0.46868059708E+02 -0.99421352766E+02  0.20909240837E+03  0.17300000000E+03 0. -1.
         -6    1    1    2    0  502 -0.41345070207E+02  0.46868059708E+02  0.24567350889E+03  0.30690471293E+03  0.17300000000E+03 0. -1.
<mgrwt>
<rscale>  2 0.18394301E+03</rscale>
<asrwt>0</asrwt>
<pdfrwt beam="1">  1       21 0.50942252E-01 0.18394301E+03</pdfrwt>
<pdfrwt beam="2">  1       21 0.28441920E-01 0.18394301E+03</pdfrwt>
<totfact> 0.43500680E+04</totfact>
</mgrwt>
</event>
<event>
 4    1  0.4382184E+000  0.2132555E+03  0.7546771E-02  0.1139014E+00
         21   -1    0    0  501  502  0.00000000000E+00  0.00000000000E+00  0.16486293383E+03  0.16486293383E+03  0.00000000000E+00 0.  1.
         21   -1    0    0  502  503 -0.00000000000E+00 -0.00000000000E+00 -0.45959740607E+03  0.45959740607E+03  0.00000000000E+00 0.  1.
          6    1    1    2  501    0 -0.79689350376E+02  0.95908850351E+02  0.50053784692E+02  0.21905086510E+03  0.17300000000E+03 0.  1.
         -6    1    1    2    0  503  0.79689350376E+02 -0.95908850351E+02 -0.34478825693E+03  0.40540947480E+03  0.17300000000E+03 0.  1.
<mgrwt>
<rscale>  2 0.21325548E+03</rscale>
<asrwt>0</asrwt>
<pdfrwt beam="1">  1       21 0.25363529E-01 0.21325548E+03</pdfrwt>
<pdfrwt beam="2">  1       21 0.70707293E-01 0.21325548E+03</pdfrwt>
<totfact> 0.26395502E+04</totfact>
</mgrwt>
</event>
<event>
 4    1  0.4382184E+000  0.1858943E+03  0.7546771E-02  0.1162217E+00
         21   -1    0    0  501  502  0.00000000000E+00  0.00000000000E+00  0.88919876784E+02  0.88919876784E+02  0.00000000000E+00 0.  1.
         21   -1    0    0  502  503 -0.00000000000E+00 -0.00000000000E+00 -0.48981451006E+03  0.48981451006E+03  0.00000000000E+00 0. -1.
          6    1    1    2  501    0 -0.55079865697E+02 -0.39923473153E+02 -0.33196879247E+03  0.38047332954E+03  0.17300000000E+03 0. -1.
         -6    1    1    2    0  503  0.55079865697E+02  0.39923473153E+02 -0.68925840805E+02  0.19826105731E+03  0.17300000000E+03 0.  1.
<mgrwt>
<rscale>  2 0.18589426E+03</rscale>
<asrwt>0</asrwt>
<pdfrwt beam="1">  1       21 0.13679981E-01 0.18589426E+03</pdfrwt>
<pdfrwt beam="2">  1       21 0.75356079E-01 0.18589426E+03</pdfrwt>
<totfact> 0.73151174E+04</totfact>
</mgrwt>
</event>
<event>
 4    1  0.4382184E+000  0.2894438E+03  0.7546771E-02  0.1090640E+00
         21   -1    0    0  503  502  0.00000000000E+00  0.00000000000E+00  0.90170747152E+02  0.90170747152E+02  0.00000000000E+00 0. -1.
         21   -1    0    0  501  503 -0.00000000000E+00 -0.00000000000E+00 -0.10265339058E+04  0.10265339058E+04  0.00000000000E+00 0. -1.
          6    1    1    2  501    0 -0.18914659978E+01 -0.23204559595E+03 -0.64019977476E+03  0.70259055491E+03  0.17300000000E+03 0. -1.
         -6    1    1    2    0  502  0.18914659978E+01  0.23204559595E+03 -0.29616338390E+03  0.41411409805E+03  0.17300000000E+03 0. -1.
<mgrwt>
<rscale>  2 0.28944384E+03</rscale>
<asrwt>0</asrwt>
<pdfrwt beam="1">  1       21 0.13872423E-01 0.28944384E+03</pdfrwt>
<pdfrwt beam="2">  1       21 0.15792829E+00 0.28944384E+03</pdfrwt>
<totfact> 0.11087911E+04</totfact>
</mgrwt>
</event>
<event>
 4    1  0.4382184E+000  0.2325203E+03  0.7546771E-02  0.1124878E+00
         21   -1    0    0  501  502  0.00000000000E+00  0.00000000000E+00  0.77470898627E+03  0.77470898627E+03  0.00000000000E+00 0.  1.
         21   -1    0    0  502  503 -0.00000000000E+00 -0.00000000000E+00 -0.13150427735E+03  0.13150427735E+03  0.00000000000E+00 0. -1.
          6    1    1    2  501    0 -0.15321611163E+03  0.25720315936E+02  0.63200747958E+03  0.67342346690E+03  0.17300000000E+03 0.  1.
         -6    1    1    2    0  503  0.15321611163E+03 -0.25720315936E+02  0.11197229335E+02  0.23278979673E+03  0.17300000000E+03 0. -1.
<mgrwt>
<rscale>  2 0.23252035E+03</rscale>
<asrwt>0</asrwt>
<pdfrwt beam="1">  1       21 0.11918599E+00 0.23252035E+03</pdfrwt>
<pdfrwt beam="2">  1       21 0.20231428E-01 0.23252035E+03</pdfrwt>
<totfact> 0.11818393E+04</totfact>
</mgrwt>
</event>
<event>
 4    1  0.4382184E+000  0.1922622E+03  0.7546771E-02  0.1156437E+00
         21   -1    0    0  501  502  0.00000000000E+00  0.00000000000E+00  0.20845784422E+03  0.20845784422E+03  0.00000000000E+00 0.  1.
         21   -1    0    0  502  503 -0.00000000000E+00 -0.00000000000E+00 -0.22350009142E+03  0.22350009142E+03  0.00000000000E+00 0.  1.
          6    1    1    2  501    0  0.60925520929E+02 -0.57652724845E+02  0.90648516789E+02  0.21256036643E+03  0.17300000000E+03 0.  1.
         -6    1    1    2    0  503 -0.60925520929E+02  0.57652724845E+02 -0.10569076399E+03  0.21939756921E+03  0.17300000000E+03 0.  1.
<mgrwt>
<rscale>  2 0.19226221E+03</rscale>
<asrwt>0</asrwt>
<pdfrwt beam="1">  1       21 0.32070438E-01 0.19226221E+03</pdfrwt>
<pdfrwt beam="2">  1       21 0.34384629E-01 0.19226221E+03</pdfrwt>
<totfact> 0.76244071E+04</totfact>
</mgrwt>
</event>
<event>
 4    1  0.4382184E+000  0.1910966E+03  0.7546771E-02  0.1157476E+00
         21   -1    0    0  501  502  0.00000000000E+00  0.00000000000E+00  0.58432045471E+03  0.58432045471E+03  0.00000000000E+00 0.  1.
         21   -1    0    0  502  503 -0.00000000000E+00 -0.00000000000E+00 -0.17137635405E+03  0.17137635405E+03  0.00000000000E+00 0.  1.
          6    1    1    2  501    0 -0.79933876388E+02 -0.14123470880E+02  0.50764516646E+03  0.54242189489E+03  0.17300000000E+03 0.  1.
         -6    1    1    2    0  503  0.79933876388E+02  0.14123470880E+02 -0.94701065802E+02  0.21327491387E+03  0.17300000000E+03 0.  1.
<mgrwt>
<rscale>  2 0.19109656E+03</rscale>
<asrwt>0</asrwt>
<pdfrwt beam="1">  1       21 0.89895453E-01 0.19109656E+03</pdfrwt>
<pdfrwt beam="2">  1       21 0.26365593E-01 0.19109656E+03</pdfrwt>
<totfact> 0.14426267E+04</totfact>
</mgrwt>
</event>
<event>
 4    1  0.4382184E+000  0.2601104E+03  0.7546771E-02  0.1107077E+00
         21   -1    0    0  501  502  0.00000000000E+00  0.00000000000E+00  0.88062556249E+03  0.88062556249E+03  0.00000000000E+00 0. -1.
         21   -1    0    0  502  503 -0.00000000000E+00 -0.00000000000E+00 -0.24537273142E+03  0.24537273142E+03  0.00000000000E+00 0. -1.
          6    1    1    2  501    0  0.64237982124E+02 -0.18330816000E+03  0.78423331472E+03  0.82624408730E+03  0.17300000000E+03 0. -1.
         -6    1    1    2    0  503 -0.64237982124E+02  0.18330816000E+03 -0.14898048366E+03  0.29975420661E+03  0.17300000000E+03 0. -1.
<mgrwt>
<rscale>  2 0.26011036E+03</rscale>
<asrwt>0</asrwt>
<pdfrwt beam="1">  1       21 0.13548085E+00 0.26011036E+03</pdfrwt>
<pdfrwt beam="2">  1       21 0.37749652E-01 0.26011036E+03</pdfrwt>
<totfact> 0.24965064E+03</totfact>
</mgrwt>
</event>
<event>
 4    1  0.4382184E+000  0.2119782E+03  0.7546771E-02  0.1140009E+00
         21   -1    0    0  501  502  0.00000000000E+00  0.00000000000E+00  0.79182401199E+02  0.79182401199E+02  0.00000000000E+00 0. -1.
         21   -1    0    0  502  503 -0.00000000000E+00 -0.00000000000E+00 -0.63517426133E+03  0.63517426133E+03  0.00000000000E+00 0. -1.
          6    1    1    2  501    0  0.11942646089E+03 -0.27259066740E+02 -0.16139496689E+03  0.26642648445E+03  0.17300000000E+03 0. -1.
         -6    1    1    2    0  503 -0.11942646089E+03  0.27259066740E+02 -0.39459689324E+03  0.44793017808E+03  0.17300000000E+03 0. -1.
<mgrwt>
<rscale>  2 0.21197815E+03</rscale>
<asrwt>0</asrwt>
<pdfrwt beam="1">  1       21 0.12181908E-01 0.21197815E+03</pdfrwt>
<pdfrwt beam="2">  1       21 0.97719114E-01 0.21197815E+03</pdfrwt>
<totfact> 0.49039729E+04</totfact>
</mgrwt>
</event>
<event>
 4    1  0.4382184E+000  0.2442269E+03  0.7546771E-02  0.1117009E+00
         21   -1    0    0  503  502  0.00000000000E+00  0.00000000000E+00  0.36447305423E+03  0.36447305423E+03  0.00000000000E+00 0.  1.
         21   -1    0    0  501  503 -0.00000000000E+00 -0.00000000000E+00 -0.27696496320E+03  0.27696496320E+03  0.00000000000E+00 0. -1.
          6    1    1    2  501    0 -0.17162047409E+03 -0.16253981317E+02 -0.16138668604E+03  0.29273271335E+03  0.17300000000E+03 0. -1.
         -6    1    1    2    0  502  0.17162047409E+03  0.16253981317E+02  0.24889477707E+03  0.34870530408E+03  0.17300000000E+03 0.  1.
<mgrwt>
<rscale>  2 0.24422690E+03</rscale>
<asrwt>0</asrwt>
<pdfrwt beam="1">  1       21 0.56072778E-01 0.24422690E+03</pdfrwt>
<pdfrwt beam="2">  1       21 0.42609994E-01 0.24422690E+03</pdfrwt>
<totfact> 0.15394896E+04</totfact>
</mgrwt>
</event>
<event>
 4    1  0.4382184E+000  0.2243200E+03  0.7546771E-02  0.1130703E+00
         21   -1    0    0  503  502  0.00000000000E+00  0.00000000000E+00  0.11865926260E+04  0.11865926260E+04  0.00000000000E+00 0. -1.
         21   -1    0    0  501  503 -0.00000000000E+00 -0.00000000000E+00 -0.50583453004E+02  0.50583453004E+02  0.00000000000E+00 0. -1.
          6    1    1    2  501    0  0.64193249967E+02  0.12755274916E+03  0.31929774632E+03  0.39021856435E+03  0.17300000000E+03 0. -1.
         -6    1    1    2    0  502 -0.64193249967E+02 -0.12755274916E+03  0.81671142663E+03  0.84695751461E+03  0.17300000000E+03 0. -1.
<mgrwt>
<rscale>  2 0.22432003E+03</rscale>
<asrwt>0</asrwt>
<pdfrwt beam="1">  1       21 0.18255269E+00 0.22432003E+03</pdfrwt>
<pdfrwt beam="2">  1       21 0.77820706E-02 0.22432003E+03</pdfrwt>
<totfact> 0.21540859E+04</totfact>
</mgrwt>
</event>
<event>
 4    1  0.4382184E+000  0.2063646E+03  0.7546771E-02  0.1144478E+00
         21   -1    0    0  503  502  0.00000000000E+00  0.00000000000E+00  0.21330136117E+04  0.21330136117E+04  0.00000000000E+00 0. -1.
         21   -1    0    0  501  503 -0.00000000000E+00 -0.00000000000E+00 -0.46924057225E+02  0.46924057225E+02  0.00000000000E+00 0. -1.
          6    1    1    2  501    0  0.67887707108E+02 -0.89713967311E+02  0.21688141012E+03  0.29937248164E+03  0.17300000000E+03 0. -1.
         -6    1    1    2    0  502 -0.67887707108E+02  0.89713967311E+02  0.18692081444E+04  0.18805651873E+04  0.17300000000E+03 0. -1.
<mgrwt>
<rscale>  2 0.20636457E+03</rscale>
<asrwt>0</asrwt>
<pdfrwt beam="1">  1       21 0.32815586E+00 0.20636457E+03</pdfrwt>
<pdfrwt beam="2">  1       21 0.72190874E-02 0.20636457E+03</pdfrwt>
<totfact> 0.33099949E+03</totfact>
</mgrwt>
</event>
<event>
 4    1  0.4382184E+000  0.1903422E+03  0.7546771E-02  0.1158153E+00
         21   -1    0    0  503  502  0.00000000000E+00  0.00000000000E+00  0.61214197982E+02  0.61214197982E+02  0.00000000000E+00 0.  1.
         21   -1    0    0  501  503 -0.00000000000E+00 -0.00000000000E+00 -0.61184694587E+03  0.61184694587E+03  0.00000000000E+00 0.  1.
          6    1    1    2  501    0  0.17097953892E+02  0.77516563818E+02 -0.33614249223E+03  0.38629254818E+03  0.17300000000E+03 0.  1.
         -6    1    1    2    0  502 -0.17097953892E+02 -0.77516563818E+02 -0.21449025566E+03  0.28676859567E+03  0.17300000000E+03 0.  1.
<mgrwt>
<rscale>  2 0.19034221E+03</rscale>
<asrwt>0</asrwt>
<pdfrwt beam="1">  1       21 0.94175692E-02 0.19034221E+03</pdfrwt>
<pdfrwt beam="2">  1       21 0.94130296E-01 0.19034221E+03</pdfrwt>
<totfact> 0.85459827E+04</totfact>
</mgrwt>
</event>
<event>
 4    1  0.4382184E+000  0.3099633E+03  0.7546771E-02  0.1080363E+00
         21   -1    0    0  503  502  0.00000000000E+00  0.00000000000E+00  0.14568350321E+04  0.14568350321E+04  0.00000000000E+00 0. -1.
         21   -1    0    0  501  503 -0.00000000000E+00 -0.00000000000E+00 -0.91912663434E+02  0.91912663434E+02  0.00000000000E+00 0. -1.
          6    1    1    2  501    0 -0.24055567655E+03 -0.91001257989E+02  0.10940308992E+04  0.11370931672E+04  0.17300000000E+03 0. -1.
         -6    1    1    2    0  502  0.24055567655E+03  0.91001257989E+02  0.27089146947E+03  0.41165452834E+03  0.17300000000E+03 0. -1.
<mgrwt>
<rscale>  2 0.30996332E+03</rscale>
<asrwt>0</asrwt>
<pdfrwt beam="1">  1       21 0.22412845E+00 0.30996332E+03</pdfrwt>
<pdfrwt beam="2">  1       21 0.14140411E-01 0.30996332E+03</pdfrwt>
<totfact> 0.37754538E+03</totfact>
</mgrwt>
</event>
<event>
 4    1  0.4382184E+000  0.2050864E+03  0.7546771E-02  0.1145517E+00
         21   -1    0    0  503  502  0.00000000000E+00  0.00000000000E+00  0.93516362267E+02  0.93516362267E+02  0.00000000000E+00 0.  1.
         21   -1    0    0  501  503 -0.00000000000E+00 -0.00000000000E+00 -0.52179742775E+03  0.52179742775E+03  0.00000000000E+00 0. -1.
          6    1    1    2  501    0 -0.84465088678E+02 -0.70689961960E+02 -0.32844904581E+03  0.38721983113E+03  0.17300000000E+03 0.  1.
         -6    1    1    2    0  502  0.84465088678E+02  0.70689961960E+02 -0.99832019669E+02  0.22809395888E+03  0.17300000000E+03 0.  1.
<mgrwt>
<rscale>  2 0.20508638E+03</rscale>
<asrwt>0</asrwt>
<pdfrwt beam="1">  1       21 0.14387133E-01 0.20508638E+03</pdfrwt>
<pdfrwt beam="2">  1       21 0.80276527E-01 0.20508638E+03</pdfrwt>
<totfact> 0.57405584E+04</totfact>
</mgrwt>
</event>
<event>
 4    1  0.4382184E+000  0.3008092E+03  0.7546771E-02  0.1084837E+00
         21   -1    0    0  501  502  0.00000000000E+00  0.00000000000E+00  0.27195479930E+03  0.27195479930E+03  0.00000000000E+00 0. -1.
         21   -1    0    0  502  503 -0.00000000000E+00 -0.00000000000E+00 -0.34890216530E+03  0.34890216530E+03  0.00000000000E+00 0. -1.
          6    1    1    2  501    0 -0.18879281214E+03 -0.15784317597E+03  0.28369833075E+02  0.30214407415E+03  0.17300000000E+03 0. -1.
         -6    1    1    2    0  503  0.18879281214E+03  0.15784317597E+03 -0.10531719908E+03  0.31871289045E+03  0.17300000000E+03 0. -1.
<mgrwt>
<rscale>  2 0.30080923E+03</rscale>
<asrwt>0</asrwt>
<pdfrwt beam="1">  1       21 0.41839200E-01 0.30080923E+03</pdfrwt>
<pdfrwt beam="2">  1       21 0.53677256E-01 0.30080923E+03</pdfrwt>
<totfact> 0.17092466E+04</totfact>
</mgrwt>
</event>
<event>
 4    1  0.4382184E+000  0.2032859E+03  0.7546771E-02  0.1146996E+00
         21   -1    0    0  501  502  0.00000000000E+00  0.00000000000E+00  0.80847983858E+03  0.80847983858E+03  0.00000000000E+00 0. -1.
         21   -1    0    0  502  503 -0.00000000000E+00 -0.00000000000E+00 -0.15453513244E+03  0.15453513244E+03  0.00000000000E+00 0. -1.
          6    1    1    2  501    0 -0.17671747753E+02  0.10528000580E+03  0.72087844010E+03  0.74899325477E+03  0.17300000000E+03 0. -1.
         -6    1    1    2    0  503  0.17671747753E+02 -0.10528000580E+03 -0.66933733955E+02  0.21402171626E+03  0.17300000000E+03 0. -1.
<mgrwt>
<rscale>  2 0.20328593E+03</rscale>
<asrwt>0</asrwt>
<pdfrwt beam="1">  1       21 0.12438151E+00 0.20328593E+03</pdfrwt>
<pdfrwt beam="2">  1       21 0.23774636E-01 0.20328593E+03</pdfrwt>
<totfact> 0.79861642E+03</totfact>
</mgrwt>
</event>
<event>
 4    1  0.4382184E+000  0.1975821E+03  0.7546771E-02  0.1151795E+00
         21   -1    0    0  501  502  0.00000000000E+00  0.00000000000E+00  0.16480699366E+03  0.16480699366E+03  0.00000000000E+00 0.  1.
         21   -1    0    0  502  503 -0.00000000000E+00 -0.00000000000E+00 -0.25214432275E+03  0.25214432275E+03  0.00000000000E+00 0. -1.
          6    1    1    2  501    0 -0.27596061833E+02  0.91368225926E+02  0.76336906644E+01  0.19772953389E+03  0.17300000000E+03 0.  1.
         -6    1    1    2    0  503  0.27596061833E+02 -0.91368225926E+02 -0.94971019752E+02  0.21922178252E+03  0.17300000000E+03 0. -1.
<mgrwt>
<rscale>  2 0.19758212E+03</rscale>
<asrwt>0</asrwt>
<pdfrwt beam="1">  1       21 0.25354922E-01 0.19758212E+03</pdfrwt>
<pdfrwt beam="2">  1       21 0.38791434E-01 0.19758212E+03</pdfrwt>
<totfact> 0.94289028E+04</totfact>
</mgrwt>
</event>
<event>
 4    1  0.4382184E+000  0.1800085E+03  0.7546771E-02  0.1167795E+00
         21   -1    0    0  503  502  0.00000000000E+00  0.00000000000E+00  0.44984915289E+03  0.44984915289E+03  0.00000000000E+00 0.  1.
         21   -1    0    0  501  503 -0.00000000000E+00 -0.00000000000E+00 -0.90150164156E+02  0.90150164156E+02  0.00000000000E+00 0.  1.
          6    1    1    2  501    0 -0.48533457818E+02 -0.10889285195E+02  0.58803803342E+02  0.18936990349E+03  0.17300000000E+03 0.  1.
         -6    1    1    2    0  502  0.48533457818E+02  0.10889285195E+02  0.30089518539E+03  0.35062941356E+03  0.17300000000E+03 0.  1.
<mgrwt>
<rscale>  2 0.18000854E+03</rscale>
<asrwt>0</asrwt>
<pdfrwt beam="1">  1       21 0.69207561E-01 0.18000854E+03</pdfrwt>
<pdfrwt beam="2">  1       21 0.13869256E-01 0.18000854E+03</pdfrwt>
<totfact> 0.86370223E+04</totfact>
</mgrwt>
</event>
<event>
 4    1  0.4382184E+000  0.1829846E+03  0.7546771E-02  0.1164945E+00
         21   -1    0    0  501  502  0.00000000000E+00  0.00000000000E+00  0.56084340115E+03  0.56084340115E+03  0.00000000000E+00 0. -1.
         21   -1    0    0  502  503 -0.00000000000E+00 -0.00000000000E+00 -0.93204850957E+02  0.93204850957E+02  0.00000000000E+00 0. -1.
          6    1    1    2  501    0 -0.29169975896E+02 -0.51995029992E+02  0.37753135434E+02  0.18683861986E+03  0.17300000000E+03 0. -1.
         -6    1    1    2    0  503  0.29169975896E+02  0.51995029992E+02  0.42988541476E+03  0.46720963224E+03  0.17300000000E+03 0. -1.
<mgrwt>
<rscale>  2 0.18298462E+03</rscale>
<asrwt>0</asrwt>
<pdfrwt beam="1">  1       21 0.86283598E-01 0.18298462E+03</pdfrwt>
<pdfrwt beam="2">  1       21 0.14339208E-01 0.18298462E+03</pdfrwt>
<totfact> 0.49527270E+04</totfact>
</mgrwt>
</event>
<event>
 4    1  0.4382184E+000  0.2103505E+03  0.7546771E-02  0.1141289E+00
         21   -1    0    0  501  502  0.00000000000E+00  0.00000000000E+00  0.14082055504E+03  0.14082055504E+03  0.00000000000E+00 0. -1.
         21   -1    0    0  502  503 -0.00000000000E+00 -0.00000000000E+00 -0.89635265787E+03  0.89635265787E+03  0.00000000000E+00 0. -1.
          6    1    1    2  501    0  0.28321706546E+02  0.11625931712E+03  0.40156909043E+02  0.21414930591E+03  0.17300000000E+03 0. -1.
         -6    1    1    2    0  503 -0.28321706546E+02 -0.11625931712E+03 -0.79568901187E+03  0.82302390700E+03  0.17300000000E+03 0. -1.
<mgrwt>
<rscale>  2 0.21035054E+03</rscale>
<asrwt>0</asrwt>
<pdfrwt beam="1">  1       21 0.21664701E-01 0.21035054E+03</pdfrwt>
<pdfrwt beam="2">  1       21 0.13790040E+00 0.21035054E+03</pdfrwt>
<totfact> 0.72928352E+03</totfact>
</mgrwt>
</event>
<event>
 4    1  0.4382184E+000  0.3493067E+03  0.7546771E-02  0.1062900E+00
         21   -1    0    0  501  502  0.00000000000E+00  0.00000000000E+00  0.23275711807E+03  0.23275711807E+03  0.00000000000E+00 0. -1.
         21   -1    0    0  502  503 -0.00000000000E+00 -0.00000000000E+00 -0.55274465816E+03  0.55274465816E+03  0.00000000000E+00 0.  1.
          6    1    1    2  501    0 -0.30005611588E+03  0.45304647286E+02 -0.24921942392E+03  0.42909847938E+03  0.17300000000E+03 0.  1.
         -6    1    1    2    0  503  0.30005611588E+03 -0.45304647286E+02 -0.70768116165E+02  0.35640329686E+03  0.17300000000E+03 0. -1.
<mgrwt>
<rscale>  2 0.34930672E+03</rscale>
<asrwt>0</asrwt>
<pdfrwt beam="1">  1       21 0.35808788E-01 0.34930672E+03</pdfrwt>
<pdfrwt beam="2">  1       21 0.85037638E-01 0.34930672E+03</pdfrwt>
<totfact> 0.82749945E+03</totfact>
</mgrwt>
</event>
<event>
 4    1  0.4382184E+000  0.1917202E+03  0.7546771E-02  0.1156919E+00
         21   -1    0    0  503  502  0.00000000000E+00  0.00000000000E+00  0.14204844208E+03  0.14204844208E+03  0.00000000000E+00 0.  1.
         21   -1    0    0  501  503 -0.00000000000E+00 -0.00000000000E+00 -0.44689957901E+03  0.44689957901E+03  0.00000000000E+00 0.  1.
          6    1    1    2  501    0  0.10908492207E+02 -0.81906335701E+02 -0.34349031105E+03  0.39337289791E+03  0.17300000000E+03 0.  1.
         -6    1    1    2    0  502 -0.10908492207E+02  0.81906335701E+02  0.38639174120E+02  0.19557512318E+03  0.17300000000E+03 0.  1.
<mgrwt>
<rscale>  2 0.19172022E+03</rscale>
<asrwt>0</asrwt>
<pdfrwt beam="1">  1       21 0.21853607E-01 0.19172022E+03</pdfrwt>
<pdfrwt beam="2">  1       21 0.68753781E-01 0.19172022E+03</pdfrwt>
<totfact> 0.37700504E+04</totfact>
</mgrwt>
</event>
<event>
 4    1  0.4382184E+000  0.2286202E+03  0.7546771E-02  0.1127615E+00
         21   -1    0    0  503  502  0.00000000000E+00  0.00000000000E+00  0.35876265557E+03  0.35876265557E+03  0.00000000000E+00 0. -1.
         21   -1    0    0  501  503 -0.00000000000E+00 -0.00000000000E+00 -0.22068253134E+03  0.22068253134E+03  0.00000000000E+00 0. -1.
          6    1    1    2  501    0 -0.12031657652E+02  0.14897462294E+03 -0.99854208080E+02  0.24947557383E+03  0.17300000000E+03 0. -1.
         -6    1    1    2    0  502  0.12031657652E+02 -0.14897462294E+03  0.23793433230E+03  0.32996961308E+03  0.17300000000E+03 0. -1.
<mgrwt>
<rscale>  2 0.22862021E+03</rscale>
<asrwt>0</asrwt>
<pdfrwt beam="1">  1       21 0.55194255E-01 0.22862021E+03</pdfrwt>
<pdfrwt beam="2">  1       21 0.33951159E-01 0.22862021E+03</pdfrwt>
<totfact> 0.25375207E+04</totfact>
</mgrwt>
</event>
<event>
 4    1  0.4382184E+000  0.1743923E+03  0.7546771E-02  0.1173343E+00
         21   -1    0    0  503  502  0.00000000000E+00  0.00000000000E+00  0.26220623042E+03  0.26220623042E+03  0.00000000000E+00 0.  1.
         21   -1    0    0  501  503 -0.00000000000E+00 -0.00000000000E+00 -0.26932482280E+03  0.26932482280E+03  0.00000000000E+00 0.  1.
          6    1    1    2  501    0 -0.21982571058E+02  0.66703214893E+00 -0.20409154025E+03  0.26845117836E+03  0.17300000000E+03 0.  1.
         -6    1    1    2    0  502  0.21982571058E+02 -0.66703214893E+00  0.19697294787E+03  0.26307987485E+03  0.17300000000E+03 0.  1.
<mgrwt>
<rscale>  2 0.17439231E+03</rscale>
<asrwt>0</asrwt>
<pdfrwt beam="1">  1       21 0.40339420E-01 0.17439231E+03</pdfrwt>
<pdfrwt beam="2">  1       21 0.41434588E-01 0.17439231E+03</pdfrwt>
<totfact> 0.33534877E+04</totfact>
</mgrwt>
</event>
<event>
 4    1  0.4382184E+000  0.1931337E+03  0.7546771E-02  0.1155665E+00
         21   -1    0    0  503  502  0.00000000000E+00  0.00000000000E+00  0.26474365543E+02  0.26474365543E+02  0.00000000000E+00 0. -1.
         21   -1    0    0  501  503 -0.00000000000E+00 -0.00000000000E+00 -0.19418978369E+04  0.19418978369E+04  0.00000000000E+00 0. -1.
          6    1    1    2  501    0  0.13318278475E+02 -0.84818900330E+02 -0.14733119441E+04  0.14859167900E+04  0.17300000000E+03 0. -1.
         -6    1    1    2    0  502 -0.13318278475E+02  0.84818900330E+02 -0.44211152730E+03  0.48245541241E+03  0.17300000000E+03 0. -1.
<mgrwt>
<rscale>  2 0.19313369E+03</rscale>
<asrwt>0</asrwt>
<pdfrwt beam="1">  1       21 0.40729772E-02 0.19313369E+03</pdfrwt>
<pdfrwt beam="2">  1       21 0.29875367E+00 0.19313369E+03</pdfrwt>
<totfact> 0.13185723E+04</totfact>
</mgrwt>
</event>
<event>
 4    1  0.4382184E+000  0.2001999E+03  0.7546771E-02  0.1149570E+00
         21   -1    0    0  501  502  0.00000000000E+00  0.00000000000E+00  0.11521736931E+03  0.11521736931E+03  0.00000000000E+00 0. -1.
         21   -1    0    0  502  503 -0.00000000000E+00 -0.00000000000E+00 -0.71826805090E+03  0.71826805090E+03  0.00000000000E+00 0.  1.
          6    1    1    2  501    0  0.67465205479E+02  0.74829540255E+02 -0.22558793856E+01  0.20021264455E+03  0.17300000000E+03 0. -1.
         -6    1    1    2    0  503 -0.67465205479E+02 -0.74829540255E+02 -0.60079480221E+03  0.63327277567E+03  0.17300000000E+03 0.  1.
<mgrwt>
<rscale>  2 0.20019994E+03</rscale>
<asrwt>0</asrwt>
<pdfrwt beam="1">  1       21 0.17725749E-01 0.20019994E+03</pdfrwt>
<pdfrwt beam="2">  1       21 0.11050278E+00 0.20019994E+03</pdfrwt>
<totfact> 0.18566904E+04</totfact>
</mgrwt>
</event>
<event>
 4    1  0.4382184E+000  0.1836787E+03  0.7546771E-02  0.1164290E+00
         21   -1    0    0  501  502  0.00000000000E+00  0.00000000000E+00  0.10337605365E+03  0.10337605365E+03  0.00000000000E+00 0.  1.
         21   -1    0    0  502  503 -0.00000000000E+00 -0.00000000000E+00 -0.52318812641E+03  0.52318812641E+03  0.00000000000E+00 0.  1.
          6    1    1    2  501    0  0.25515165272E+02  0.56194750804E+02 -0.17751998321E+02  0.18453456891E+03  0.17300000000E+03 0.  1.
         -6    1    1    2    0  503 -0.25515165272E+02 -0.56194750804E+02 -0.40206007444E+03  0.44202961115E+03  0.17300000000E+03 0.  1.
<mgrwt>
<rscale>  2 0.18367872E+03</rscale>
<asrwt>0</asrwt>
<pdfrwt beam="1">  1       21 0.15904008E-01 0.18367872E+03</pdfrwt>
<pdfrwt beam="2">  1       21 0.80490481E-01 0.18367872E+03</pdfrwt>
<totfact> 0.48030898E+04</totfact>
</mgrwt>
</event>
<event>
 4    1  0.4382184E+000  0.1987984E+03  0.7546771E-02  0.1150757E+00
         21   -1    0    0  503  502  0.00000000000E+00  0.00000000000E+00  0.10510650315E+03  0.10510650315E+03  0.00000000000E+00 0.  1.
         21   -1    0    0  501  503 -0.00000000000E+00 -0.00000000000E+00 -0.46670114373E+03  0.46670114373E+03  0.00000000000E+00 0.  1.
          6    1    1    2  501    0 -0.67433103671E+02 -0.71025339816E+02 -0.30683175250E+03  0.36560435816E+03  0.17300000000E+03 0.  1.
         -6    1    1    2    0  502  0.67433103671E+02  0.71025339816E+02 -0.54762888080E+02  0.20620328872E+03  0.17300000000E+03 0.  1.
<mgrwt>
<rscale>  2 0.19879845E+03</rscale>
<asrwt>0</asrwt>
<pdfrwt beam="1">  1       21 0.16170231E-01 0.19879845E+03</pdfrwt>
<pdfrwt beam="2">  1       21 0.71800176E-01 0.19879845E+03</pdfrwt>
<totfact> 0.59735390E+04</totfact>
</mgrwt>
</event>
<event>
 4    1  0.4382184E+000  0.2099879E+03  0.7546771E-02  0.1141576E+00
         21   -1    0    0  503  502  0.00000000000E+00  0.00000000000E+00  0.18248898590E+03  0.18248898590E+03  0.00000000000E+00 0. -1.
         21   -1    0    0  501  503 -0.00000000000E+00 -0.00000000000E+00 -0.30594682831E+03  0.30594682831E+03  0.00000000000E+00 0.  1.
          6    1    1    2  501    0 -0.39209978068E+02  0.11237664377E+03 -0.17370226300E+03  0.27252047375E+03  0.17300000000E+03 0.  1.
         -6    1    1    2    0  502  0.39209978068E+02 -0.11237664377E+03  0.50244420586E+02  0.21591534046E+03  0.17300000000E+03 0.  1.
<mgrwt>
<rscale>  2 0.20998793E+03</rscale>
<asrwt>0</asrwt>
<pdfrwt beam="1">  1       21 0.28075229E-01 0.20998793E+03</pdfrwt>
<pdfrwt beam="2">  1       21 0.47068743E-01 0.20998793E+03</pdfrwt>
<totfact> 0.51922206E+04</totfact>
</mgrwt>
</event>
<event>
 4    1  0.4382184E+000  0.1860184E+03  0.7546771E-02  0.1162102E+00
         21   -1    0    0  501  502  0.00000000000E+00  0.00000000000E+00  0.18559100616E+03  0.18559100616E+03  0.00000000000E+00 0. -1.
         21   -1    0    0  502  503 -0.00000000000E+00 -0.00000000000E+00 -0.22633247520E+03  0.22633247520E+03  0.00000000000E+00 0. -1.
          6    1    1    2  501    0 -0.64204443913E+02 -0.23486769274E+02  0.66090591577E+02  0.19741024605E+03  0.17300000000E+03 0. -1.
         -6    1    1    2    0  503  0.64204443913E+02  0.23486769274E+02 -0.10683206061E+03  0.21451323531E+03  0.17300000000E+03 0. -1.
<mgrwt>
<rscale>  2 0.18601838E+03</rscale>
<asrwt>0</asrwt>
<pdfrwt beam="1">  1       21 0.28552462E-01 0.18601838E+03</pdfrwt>
<pdfrwt beam="2">  1       21 0.34820381E-01 0.18601838E+03</pdfrwt>
<totfact> 0.93502431E+04</totfact>
</mgrwt>
</event>
<event>
 4    1  0.4382184E+000  0.2860201E+03  0.7546771E-02  0.1092446E+00
         21   -1    0    0  501  502  0.00000000000E+00  0.00000000000E+00  0.54919581471E+03  0.54919581471E+03  0.00000000000E+00 0. -1.
         21   -1    0    0  502  503 -0.00000000000E+00 -0.00000000000E+00 -0.16261546499E+03  0.16261546499E+03  0.00000000000E+00 0.  1.
          6    1    1    2  501    0 -0.15046349779E+03 -0.17099487857E+03  0.29643022604E+03  0.41192037042E+03  0.17300000000E+03 0. -1.
         -6    1    1    2    0  503  0.15046349779E+03  0.17099487857E+03  0.90150123685E+02  0.29989090927E+03  0.17300000000E+03 0.  1.
<mgrwt>
<rscale>  2 0.28602013E+03</rscale>
<asrwt>0</asrwt>
<pdfrwt beam="1">  1       21 0.84491663E-01 0.28602013E+03</pdfrwt>
<pdfrwt beam="2">  1       21 0.25017764E-01 0.28602013E+03</pdfrwt>
<totfact> 0.17490222E+04</totfact>
</mgrwt>
</event>
<event>
 4    1  0.4382184E+000  0.2104036E+03  0.7546771E-02  0.1141247E+00
         21   -1    0    0  501  502  0.00000000000E+00  0.00000000000E+00  0.63483484287E+02  0.63483484287E+02  0.00000000000E+00 0. -1.
         21   -1    0    0  502  503 -0.00000000000E+00 -0.00000000000E+00 -0.70317767929E+03  0.70317767929E+03  0.00000000000E+00 0.  1.
          6    1    1    2  501    0 -0.11943558947E+03  0.87066878346E+01 -0.28492452357E+03  0.35419154504E+03  0.17300000000E+03 0. -1.
         -6    1    1    2    0  503  0.11943558947E+03 -0.87066878346E+01 -0.35476967143E+03  0.41246961854E+03  0.17300000000E+03 0.  1.
<mgrwt>
<rscale>  2 0.21040358E+03</rscale>
<asrwt>0</asrwt>
<pdfrwt beam="1">  1       21 0.97666893E-02 0.21040358E+03</pdfrwt>
<pdfrwt beam="2">  1       21 0.10818119E+00 0.21040358E+03</pdfrwt>
<totfact> 0.57015021E+04</totfact>
</mgrwt>
</event>
<event>
 4    1  0.4382184E+000  0.1915359E+03  0.7546771E-02  0.1157083E+00
         21   -1    0    0  501  502  0.00000000000E+00  0.00000000000E+00  0.54258072544E+03  0.54258072544E+03  0.00000000000E+00 0.  1.
         21   -1    0    0  502  503 -0.00000000000E+00 -0.00000000000E+00 -0.18683637083E+03  0.18683637083E+03  0.00000000000E+00 0. -1.
          6    1    1    2  501    0  0.48403156649E+02 -0.66438930512E+02  0.46920827342E+03  0.50679621241E+03  0.17300000000E+03 0.  1.
         -6    1    1    2    0  503 -0.48403156649E+02  0.66438930512E+02 -0.11346391881E+03  0.22262088387E+03  0.17300000000E+03 0. -1.
<mgrwt>
<rscale>  2 0.19153589E+03</rscale>
<asrwt>0</asrwt>
<pdfrwt beam="1">  1       21 0.83473957E-01 0.19153589E+03</pdfrwt>
<pdfrwt beam="2">  1       21 0.28744057E-01 0.19153589E+03</pdfrwt>
<totfact> 0.14473064E+04</totfact>
</mgrwt>
</event>
<event>
 4    1  0.4382184E+000  0.1762800E+03  0.7546771E-02  0.1171453E+00
         21   -1    0    0  501  502  0.00000000000E+00  0.00000000000E+00  0.43676324645E+03  0.43676324645E+03  0.00000000000E+00 0.  1.
         21   -1    0    0  502  503 -0.00000000000E+00 -0.00000000000E+00 -0.82265141413E+02  0.82265141413E+02  0.00000000000E+00 0.  1.
          6    1    1    2  501    0 -0.10520886693E+02 -0.32170378835E+02  0.27265141056E+03  0.32467431991E+03  0.17300000000E+03 0. -1.
         -6    1    1    2    0  503  0.10520886693E+02  0.32170378835E+02  0.81846694477E+02  0.19435406795E+03  0.17300000000E+03 0. -1.
<mgrwt>
<rscale>  2 0.17627995E+03</rscale>
<asrwt>0</asrwt>
<pdfrwt beam="1">  1       21 0.67194344E-01 0.17627995E+03</pdfrwt>
<pdfrwt beam="2">  1       21 0.12656176E-01 0.17627995E+03</pdfrwt>
<totfact> 0.10880037E+05</totfact>
</mgrwt>
</event>
<event>
 4    1  0.4382184E+000  0.1978928E+03  0.7546771E-02  0.1151529E+00
         21   -1    0    0  503  502  0.00000000000E+00  0.00000000000E+00  0.27537683809E+03  0.27537683809E+03  0.00000000000E+00 0.  1.
         21   -1    0    0  501  503 -0.00000000000E+00 -0.00000000000E+00 -0.15022545255E+03  0.15022545255E+03  0.00000000000E+00 0.  1.
          6    1    1    2  501    0  0.92845915714E+02 -0.24742829016E+02  0.11172794786E+03  0.22725471609E+03  0.17300000000E+03 0.  1.
         -6    1    1    2    0  502 -0.92845915714E+02  0.24742829016E+02  0.13423437678E+02  0.19834757455E+03  0.17300000000E+03 0.  1.
<mgrwt>
<rscale>  2 0.19789283E+03</rscale>
<asrwt>0</asrwt>
<pdfrwt beam="1">  1       21 0.42365667E-01 0.19789283E+03</pdfrwt>
<pdfrwt beam="2">  1       21 0.23111608E-01 0.19789283E+03</pdfrwt>
<totfact> 0.94076706E+04</totfact>
</mgrwt>
</event>
<event>
 4    1  0.4382184E+000  0.3024615E+03  0.7546771E-02  0.1084017E+00
         21   -1    0    0  503  502  0.00000000000E+00  0.00000000000E+00  0.18382068009E+03  0.18382068009E+03  0.00000000000E+00 0. -1.
         21   -1    0    0  501  503 -0.00000000000E+00 -0.00000000000E+00 -0.26422784981E+04  0.26422784981E+04  0.00000000000E+00 0. -1.
          6    1    1    2  501    0 -0.24748966705E+03 -0.17401348718E+02 -0.25022676519E+04  0.25204813715E+04  0.17300000000E+03 0. -1.
         -6    1    1    2    0  502  0.24748966705E+03  0.17401348718E+02  0.43809833885E+02  0.30561780671E+03  0.17300000000E+03 0. -1.
<mgrwt>
<rscale>  2 0.30246147E+03</rscale>
<asrwt>0</asrwt>
<pdfrwt beam="1">  1       21 0.28280107E-01 0.30246147E+03</pdfrwt>
<pdfrwt beam="2">  1       21 0.40650435E+00 0.30246147E+03</pdfrwt>
<totfact> 0.80922851E+01</totfact>
</mgrwt>
</event>
<event>
 4    1  0.4382184E+000  0.1805718E+03  0.7546771E-02  0.1167251E+00
         21   -1    0    0  503  502  0.00000000000E+00  0.00000000000E+00  0.30424774798E+02  0.30424774798E+02  0.00000000000E+00 0. -1.
         21   -1    0    0  501  503 -0.00000000000E+00 -0.00000000000E+00 -0.11015217627E+04  0.11015217627E+04  0.00000000000E+00 0. -1.
          6    1    1    2  501    0  0.46954237331E+02 -0.21736782096E+02 -0.62867564932E+03  0.65409422880E+03  0.17300000000E+03 0. -1.
         -6    1    1    2    0  502 -0.46954237331E+02  0.21736782096E+02 -0.44242133860E+03  0.47785230872E+03  0.17300000000E+03 0. -1.
<mgrwt>
<rscale>  2 0.18057184E+03</rscale>
<asrwt>0</asrwt>
<pdfrwt beam="1">  1       21 0.46807349E-02 0.18057184E+03</pdfrwt>
<pdfrwt beam="2">  1       21 0.16946488E+00 0.18057184E+03</pdfrwt>
<totfact> 0.65180234E+04</totfact>
</mgrwt>
</event>
<event>
 4    1  0.4382184E+000  0.3133570E+03  0.7546771E-02  0.1078748E+00
         21   -1    0    0  501  502  0.00000000000E+00  0.00000000000E+00  0.12041866026E+04  0.12041866026E+04  0.00000000000E+00 0.  1.
         21   -1    0    0  502  503 -0.00000000000E+00 -0.00000000000E+00 -0.81917725880E+02  0.81917725880E+02  0.00000000000E+00 0. -1.
          6    1    1    2  501    0  0.23917371216E+03 -0.10516442320E+03  0.60464462535E+03  0.68101963515E+03  0.17300000000E+03 0.  1.
         -6    1    1    2    0  503 -0.23917371216E+03  0.10516442320E+03  0.51762425138E+03  0.60508469334E+03  0.17300000000E+03 0. -1.
<mgrwt>
<rscale>  2 0.31335702E+03</rscale>
<asrwt>0</asrwt>
<pdfrwt beam="1">  1       21 0.18525946E+00 0.31335702E+03</pdfrwt>
<pdfrwt beam="2">  1       21 0.12602728E-01 0.31335702E+03</pdfrwt>
<totfact> 0.83213163E+03</totfact>
</mgrwt>
</event>
<event>
 4    1  0.4382184E+000  0.1750186E+03  0.7546771E-02  0.1172713E+00
         21   -1    0    0  503  502  0.00000000000E+00  0.00000000000E+00  0.25152214914E+03  0.25152214914E+03  0.00000000000E+00 0.  1.
         21   -1    0    0  501  503 -0.00000000000E+00 -0.00000000000E+00 -0.39900538979E+03  0.39900538979E+03  0.00000000000E+00 0. -1.
          6    1    1    2  501    0  0.17256511414E+02 -0.20117467575E+02 -0.34486020243E+03  0.38672995605E+03  0.17300000000E+03 0. -1.
         -6    1    1    2    0  502 -0.17256511414E+02  0.20117467575E+02  0.19737696178E+03  0.26379758287E+03  0.17300000000E+03 0.  1.
<mgrwt>
<rscale>  2 0.17501857E+03</rscale>
<asrwt>0</asrwt>
<pdfrwt beam="1">  1       21 0.38695715E-01 0.17501857E+03</pdfrwt>
<pdfrwt beam="2">  1       21 0.61385445E-01 0.17501857E+03</pdfrwt>
<totfact> 0.16065797E+04</totfact>
</mgrwt>
</event>
<event>
 4    1  0.4382184E+000  0.2752238E+03  0.7546771E-02  0.1098327E+00
         21   -1    0    0  501  502  0.00000000000E+00  0.00000000000E+00  0.15240078507E+03  0.15240078507E+03  0.00000000000E+00 0.  1.
         21   -1    0    0  502  503 -0.00000000000E+00 -0.00000000000E+00 -0.52709956204E+03  0.52709956204E+03  0.00000000000E+00 0. -1.
          6    1    1    2  501    0  0.20381150970E+03 -0.65421819806E+02 -0.10620495655E+03  0.29500447249E+03  0.17300000000E+03 0.  1.
         -6    1    1    2    0  503 -0.20381150970E+03  0.65421819806E+02 -0.26849382042E+03  0.38449587462E+03  0.17300000000E+03 0. -1.
<mgrwt>
<rscale>  2 0.27522381E+03</rscale>
<asrwt>0</asrwt>
<pdfrwt beam="1">  1       21 0.23446275E-01 0.27522381E+03</pdfrwt>
<pdfrwt beam="2">  1       21 0.81092240E-01 0.27522381E+03</pdfrwt>
<totfact> 0.21873880E+04</totfact>
</mgrwt>
</event>
<event>
 4    1  0.4382184E+000  0.2280876E+03  0.7546771E-02  0.1127993E+00
         21   -1    0    0  501  502  0.00000000000E+00  0.00000000000E+00  0.48964102706E+03  0.48964102706E+03  0.00000000000E+00 0.  1.
         21   -1    0    0  502  503 -0.00000000000E+00 -0.00000000000E+00 -0.11773407879E+03  0.11773407879E+03  0.00000000000E+00 0. -1.
          6    1    1    2  501    0  0.20142446308E+02  0.14727260029E+03  0.91102830624E+02  0.24560875939E+03  0.17300000000E+03 0. -1.
         -6    1    1    2    0  503 -0.20142446308E+02 -0.14727260029E+03  0.28080411765E+03  0.36176634646E+03  0.17300000000E+03 0. -1.
<mgrwt>
<rscale>  2 0.22808756E+03</rscale>
<asrwt>0</asrwt>
<pdfrwt beam="1">  1       21 0.75329388E-01 0.22808756E+03</pdfrwt>
<pdfrwt beam="2">  1       21 0.18112935E-01 0.22808756E+03</pdfrwt>
<totfact> 0.42939766E+04</totfact>
</mgrwt>
</event>
<event>
 4    1  0.4382184E+000  0.2225427E+03  0.7546771E-02  0.1132001E+00
         21   -1    0    0  501  502  0.00000000000E+00  0.00000000000E+00  0.22529867570E+03  0.22529867570E+03  0.00000000000E+00 0.  1.
         21   -1    0    0  502  503 -0.00000000000E+00 -0.00000000000E+00 -0.25754549578E+03  0.25754549578E+03  0.00000000000E+00 0.  1.
          6    1    1    2  501    0  0.13894895224E+03 -0.17013329667E+02  0.76275040899E+02  0.23525124140E+03  0.17300000000E+03 0. -1.
         -6    1    1    2    0  503 -0.13894895224E+03  0.17013329667E+02 -0.10852186098E+03  0.24759293008E+03  0.17300000000E+03 0. -1.
<mgrwt>
<rscale>  2 0.22254273E+03</rscale>
<asrwt>0</asrwt>
<pdfrwt beam="1">  1       21 0.34661335E-01 0.22254273E+03</pdfrwt>
<pdfrwt beam="2">  1       21 0.39622384E-01 0.22254273E+03</pdfrwt>
<totfact> 0.48566319E+04</totfact>
</mgrwt>
</event>
<event>
 4    1  0.4382184E+000  0.1842419E+03  0.7546771E-02  0.1163760E+00
         21   -1    0    0  501  502  0.00000000000E+00  0.00000000000E+00  0.36848710653E+03  0.36848710653E+03  0.00000000000E+00 0. -1.
         21   -1    0    0  502  503 -0.00000000000E+00 -0.00000000000E+00 -0.93036362205E+02  0.93036362205E+02  0.00000000000E+00 0. -1.
          6    1    1    2  501    0 -0.60083497088E+02  0.20150702955E+02  0.16062571320E+03  0.24442932965E+03  0.17300000000E+03 0. -1.
         -6    1    1    2    0  503  0.60083497088E+02 -0.20150702955E+02  0.11482503112E+03  0.21709413908E+03  0.17300000000E+03 0. -1.
<mgrwt>
<rscale>  2 0.18424190E+03</rscale>
<asrwt>0</asrwt>
<pdfrwt beam="1">  1       21 0.56690323E-01 0.18424190E+03</pdfrwt>
<pdfrwt beam="2">  1       21 0.14313287E-01 0.18424190E+03</pdfrwt>
<totfact> 0.12532289E+05</totfact>
</mgrwt>
</event>
<event>
 4    1  0.4382184E+000  0.1822710E+03  0.7546771E-02  0.1165623E+00
         21   -1    0    0  501  502  0.00000000000E+00  0.00000000000E+00  0.73720714545E+02  0.73720714545E+02  0.00000000000E+00 0.  1.
         21   -1    0    0  502  503 -0.00000000000E+00 -0.00000000000E+00 -0.45645998588E+03  0.45645998588E+03  0.00000000000E+00 0.  1.
          6    1    1    2  501    0  0.56716434518E+02 -0.87720346543E+01 -0.16147828888E+03  0.24351168415E+03  0.17300000000E+03 0. -1.
         -6    1    1    2    0  503 -0.56716434518E+02  0.87720346543E+01 -0.22126098245E+03  0.28666901627E+03  0.17300000000E+03 0. -1.
<mgrwt>
<rscale>  2 0.18227096E+03</rscale>
<asrwt>0</asrwt>
<pdfrwt beam="1">  1       21 0.11341648E-01 0.18227096E+03</pdfrwt>
<pdfrwt beam="2">  1       21 0.70224613E-01 0.18227096E+03</pdfrwt>
<totfact> 0.11986230E+05</totfact>
</mgrwt>
</event>
<event>
 4    1  0.4382184E+000  0.1842096E+03  0.7546771E-02  0.1163790E+00
         21   -1    0    0  501  502  0.00000000000E+00  0.00000000000E+00  0.22010642956E+03  0.22010642956E+03  0.00000000000E+00 0. -1.
         21   -1    0    0  502  503 -0.00000000000E+00 -0.00000000000E+00 -0.18570111408E+03  0.18570111408E+03  0.00000000000E+00 0.  1.
          6    1    1    2  501    0  0.62661622522E+02 -0.88155870254E+01  0.10081526319E+03  0.20999264464E+03  0.17300000000E+03 0. -1.
         -6    1    1    2    0  503 -0.62661622522E+02  0.88155870254E+01 -0.66409947713E+02  0.19581489899E+03  0.17300000000E+03 0.  1.
<mgrwt>
<rscale>  2 0.18420965E+03</rscale>
<asrwt>0</asrwt>
<pdfrwt beam="1">  1       21 0.33862528E-01 0.18420965E+03</pdfrwt>
<pdfrwt beam="2">  1       21 0.28569402E-01 0.18420965E+03</pdfrwt>
<totfact> 0.98761005E+04</totfact>
</mgrwt>
</event>
<event>
 4    1  0.4382184E+000  0.2103359E+03  0.7546771E-02  0.1141300E+00
         21   -1    0    0  501  502  0.00000000000E+00  0.00000000000E+00  0.11058157793E+03  0.11058157793E+03  0.00000000000E+00 0.  1.
         21   -1    0    0  502  503 -0.00000000000E+00 -0.00000000000E+00 -0.53444430439E+03  0.53444430439E+03  0.00000000000E+00 0.  1.
          6    1    1    2  501    0 -0.37550390123E+01 -0.11957455450E+03 -0.50219341826E+02  0.21624790564E+03  0.17300000000E+03 0.  1.
         -6    1    1    2    0  503  0.37550390123E+01  0.11957455450E+03 -0.37364338464E+03  0.42877797668E+03  0.17300000000E+03 0.  1.
<mgrwt>
<rscale>  2 0.21033586E+03</rscale>
<asrwt>0</asrwt>
<pdfrwt beam="1">  1       21 0.17012550E-01 0.21033586E+03</pdfrwt>
<pdfrwt beam="2">  1       21 0.82222202E-01 0.21033586E+03</pdfrwt>
<totfact> 0.39899190E+04</totfact>
</mgrwt>
</event>
<event>
 4    1  0.4382184E+000  0.1817952E+03  0.7546771E-02  0.1166077E+00
         21   -1    0    0  501  502  0.00000000000E+00  0.00000000000E+00  0.25508548663E+03  0.25508548663E+03  0.00000000000E+00 0. -1.
         21   -1    0    0  502  503 -0.00000000000E+00 -0.00000000000E+00 -0.15437150321E+03  0.15437150321E+03  0.00000000000E+00 0.  1.
          6    1    1    2  501    0  0.85988823708E+01  0.55195494938E+02  0.13243001118E+03  0.22491596498E+03  0.17300000000E+03 0. -1.
         -6    1    1    2    0  503 -0.85988823708E+01 -0.55195494938E+02 -0.31716027757E+02  0.18454102486E+03  0.17300000000E+03 0.  1.
<mgrwt>
<rscale>  2 0.18179517E+03</rscale>
<asrwt>0</asrwt>
<pdfrwt beam="1">  1       21 0.39243921E-01 0.18179517E+03</pdfrwt>
<pdfrwt beam="2">  1       21 0.23749462E-01 0.18179517E+03</pdfrwt>
<totfact> 0.10497002E+05</totfact>
</mgrwt>
</event>
<event>
 4    1  0.4382184E+000  0.2183427E+03  0.7546771E-02  0.1135125E+00
         21   -1    0    0  501  502  0.00000000000E+00  0.00000000000E+00  0.63018618291E+03  0.63018618291E+03  0.00000000000E+00 0.  1.
         21   -1    0    0  502  503 -0.00000000000E+00 -0.00000000000E+00 -0.79240442199E+02  0.79240442199E+02  0.00000000000E+00 0.  1.
          6    1    1    2  501    0  0.13320338139E+03  0.11874660773E+01  0.35097883512E+03  0.41335177947E+03  0.17300000000E+03 0.  1.
         -6    1    1    2    0  503 -0.13320338139E+03 -0.11874660773E+01  0.19996690559E+03  0.29607484564E+03  0.17300000000E+03 0.  1.
<mgrwt>
<rscale>  2 0.21834274E+03</rscale>
<asrwt>0</asrwt>
<pdfrwt beam="1">  1       21 0.96951718E-01 0.21834274E+03</pdfrwt>
<pdfrwt beam="2">  1       21 0.12190838E-01 0.21834274E+03</pdfrwt>
<totfact> 0.49742656E+04</totfact>
</mgrwt>
</event>
<event>
 4    1  0.4382184E+000  0.2369639E+03  0.7546771E-02  0.1121832E+00
         21   -1    0    0  501  502  0.00000000000E+00  0.00000000000E+00  0.22102842348E+03  0.22102842348E+03  0.00000000000E+00 0.  1.
         21   -1    0    0  502  503 -0.00000000000E+00 -0.00000000000E+00 -0.25713319650E+03  0.25713319650E+03  0.00000000000E+00 0.  1.
          6    1    1    2  501    0 -0.96416145600E+02 -0.13010311601E+03 -0.44239423374E+02  0.24105812683E+03  0.17300000000E+03 0.  1.
         -6    1    1    2    0  503  0.96416145600E+02  0.13010311601E+03  0.81346503605E+01  0.23710349315E+03  0.17300000000E+03 0.  1.
<mgrwt>
<rscale>  2 0.23696391E+03</rscale>
<asrwt>0</asrwt>
<pdfrwt beam="1">  1       21 0.34004373E-01 0.23696391E+03</pdfrwt>
<pdfrwt beam="2">  1       21 0.39558953E-01 0.23696391E+03</pdfrwt>
<totfact> 0.50301547E+04</totfact>
</mgrwt>
</event>
<event>
 4    1  0.4382184E+000  0.1957609E+03  0.7546771E-02  0.1153366E+00
         21   -1    0    0  503  502  0.00000000000E+00  0.00000000000E+00  0.23132830474E+03  0.23132830474E+03  0.00000000000E+00 0. -1.
         21   -1    0    0  501  503 -0.00000000000E+00 -0.00000000000E+00 -0.17671016387E+03  0.17671016387E+03  0.00000000000E+00 0. -1.
          6    1    1    2  501    0 -0.91615117831E+02  0.12630280582E+00 -0.23704101799E+02  0.19719084718E+03  0.17300000000E+03 0. -1.
         -6    1    1    2    0  502  0.91615117831E+02 -0.12630280582E+00  0.78322242668E+02  0.21084762143E+03  0.17300000000E+03 0. -1.
<mgrwt>
<rscale>  2 0.19576094E+03</rscale>
<asrwt>0</asrwt>
<pdfrwt beam="1">  1       21 0.35588970E-01 0.19576094E+03</pdfrwt>
<pdfrwt beam="2">  1       21 0.27186179E-01 0.19576094E+03</pdfrwt>
<totfact> 0.98065685E+04</totfact>
</mgrwt>
</event>
<event>
 4    1  0.4382184E+000  0.2953775E+03  0.7546771E-02  0.1087574E+00
         21   -1    0    0  501  502  0.00000000000E+00  0.00000000000E+00  0.20417579074E+03  0.20417579074E+03  0.00000000000E+00 0. -1.
         21   -1    0    0  502  503 -0.00000000000E+00 -0.00000000000E+00 -0.65047448108E+03  0.65047448108E+03  0.00000000000E+00 0.  1.
          6    1    1    2  501    0 -0.21802958009E+03 -0.98903763655E+02 -0.47344235399E+03  0.55802823836E+03  0.17300000000E+03 0.  1.
         -6    1    1    2    0  503  0.21802958009E+03  0.98903763655E+02  0.27143663651E+02  0.29662203346E+03  0.17300000000E+03 0. -1.
<mgrwt>
<rscale>  2 0.29537747E+03</rscale>
<asrwt>0</asrwt>
<pdfrwt beam="1">  1       21 0.31411661E-01 0.29537747E+03</pdfrwt>
<pdfrwt beam="2">  1       21 0.10007300E+00 0.29537747E+03</pdfrwt>
<totfact> 0.74984064E+03</totfact>
</mgrwt>
</event>
<event>
 4    1  0.4382184E+000  0.2394985E+03  0.7546771E-02  0.1120127E+00
         21   -1    0    0  501  502  0.00000000000E+00  0.00000000000E+00  0.12816202399E+03  0.12816202399E+03  0.00000000000E+00 0. -1.
         21   -1    0    0  502  503 -0.00000000000E+00 -0.00000000000E+00 -0.51736456920E+03  0.51736456920E+03  0.00000000000E+00 0.  1.
          6    1    1    2  501    0  0.15610239925E+03  0.55340458299E+02 -0.31316285585E+03  0.39424674972E+03  0.17300000000E+03 0.  1.
         -6    1    1    2    0  503 -0.15610239925E+03 -0.55340458299E+02 -0.76039689369E+02  0.25127984347E+03  0.17300000000E+03 0. -1.
<mgrwt>
<rscale>  2 0.23949849E+03</rscale>
<asrwt>0</asrwt>
<pdfrwt beam="1">  1       21 0.19717235E-01 0.23949849E+03</pdfrwt>
<pdfrwt beam="2">  1       21 0.79594548E-01 0.23949849E+03</pdfrwt>
<totfact> 0.32195419E+04</totfact>
</mgrwt>
</event>
<event>
 4    1  0.4382184E+000  0.2486817E+03  0.7546771E-02  0.1114141E+00
         21   -1    0    0  503  502  0.00000000000E+00  0.00000000000E+00  0.15842153454E+03  0.15842153454E+03  0.00000000000E+00 0. -1.
         21   -1    0    0  501  503 -0.00000000000E+00 -0.00000000000E+00 -0.50143278768E+03  0.50143278768E+03  0.00000000000E+00 0.  1.
          6    1    1    2  501    0 -0.11944302085E+03 -0.13284179998E+03 -0.32678056451E+03  0.41064353933E+03  0.17300000000E+03 0.  1.
         -6    1    1    2    0  502  0.11944302085E+03  0.13284179998E+03 -0.16230688623E+02  0.24921078288E+03  0.17300000000E+03 0. -1.
<mgrwt>
<rscale>  2 0.24868168E+03</rscale>
<asrwt>0</asrwt>
<pdfrwt beam="1">  1       21 0.24372543E-01 0.24868168E+03</pdfrwt>
<pdfrwt beam="2">  1       21 0.77143507E-01 0.24868168E+03</pdfrwt>
<totfact> 0.23028227E+04</totfact>
</mgrwt>
</event>
<event>
 4    1  0.4382184E+000  0.1913278E+03  0.7546771E-02  0.1157269E+00
         21   -1    0    0  501  502  0.00000000000E+00  0.00000000000E+00  0.55283959479E+02  0.55283959479E+02  0.00000000000E+00 0. -1.
         21   -1    0    0  502  503 -0.00000000000E+00 -0.00000000000E+00 -0.12242523121E+04  0.12242523121E+04  0.00000000000E+00 0. -1.
          6    1    1    2  501    0 -0.39243474605E+02 -0.71674836656E+02 -0.15097887301E+03  0.24372310642E+03  0.17300000000E+03 0. -1.
         -6    1    1    2    0  503  0.39243474605E+02  0.71674836656E+02 -0.10179894796E+04  0.10358131651E+04  0.17300000000E+03 0. -1.
<mgrwt>
<rscale>  2 0.19132781E+03</rscale>
<asrwt>0</asrwt>
<pdfrwt beam="1">  1       21 0.85052248E-02 0.19132781E+03</pdfrwt>
<pdfrwt beam="2">  1       21 0.18834650E+00 0.19132781E+03</pdfrwt>
<totfact> 0.17266664E+04</totfact>
</mgrwt>
</event>
<event>
 4    1  0.4382184E+000  0.3919165E+03  0.7546771E-02  0.1046615E+00
         21   -1    0    0  501  502  0.00000000000E+00  0.00000000000E+00  0.98725267235E+03  0.98725267235E+03  0.00000000000E+00 0. -1.
         21   -1    0    0  502  503 -0.00000000000E+00 -0.00000000000E+00 -0.30701241017E+03  0.30701241017E+03  0.00000000000E+00 0.  1.
          6    1    1    2  501    0 -0.18211074531E+03 -0.30084090183E+03  0.79460776894E+03  0.88600230148E+03  0.17300000000E+03 0. -1.
         -6    1    1    2    0  503  0.18211074531E+03  0.30084090183E+03 -0.11436750677E+03  0.40826278103E+03  0.17300000000E+03 0.  1.
<mgrwt>
<rscale>  2 0.39191654E+03</rscale>
<asrwt>0</asrwt>
<pdfrwt beam="1">  1       21 0.15188502E+00 0.39191654E+03</pdfrwt>
<pdfrwt beam="2">  1       21 0.47232679E-01 0.39191654E+03</pdfrwt>
<totfact> 0.10766648E+03</totfact>
</mgrwt>
</event>
<event>
 4    1  0.4382184E+000  0.1877282E+03  0.7546771E-02  0.1160526E+00
         21   -1    0    0  503  502  0.00000000000E+00  0.00000000000E+00  0.22381098498E+03  0.22381098498E+03  0.00000000000E+00 0.  1.
         21   -1    0    0  501  503 -0.00000000000E+00 -0.00000000000E+00 -0.10972917763E+04  0.10972917763E+04  0.00000000000E+00 0.  1.
          6    1    1    2  501    0 -0.72880117409E+02 -0.11715024654E+01 -0.10480623305E+04  0.10647424724E+04  0.17300000000E+03 0.  1.
         -6    1    1    2    0  502  0.72880117409E+02  0.11715024654E+01  0.17458153913E+03  0.25636028892E+03  0.17300000000E+03 0.  1.
<mgrwt>
<rscale>  2 0.18772822E+03</rscale>
<asrwt>0</asrwt>
<pdfrwt beam="1">  1       21 0.34432460E-01 0.18772822E+03</pdfrwt>
<pdfrwt beam="2">  1       21 0.16881412E+00 0.18772822E+03</pdfrwt>
<totfact> 0.17770530E+03</totfact>
</mgrwt>
</event>
<event>
 4    1  0.4382184E+000  0.1905851E+03  0.7546771E-02  0.1157935E+00
         21   -1    0    0  503  502  0.00000000000E+00  0.00000000000E+00  0.14556482063E+04  0.14556482063E+04  0.00000000000E+00 0.  1.
         21   -1    0    0  501  503 -0.00000000000E+00 -0.00000000000E+00 -0.25322781081E+02  0.25322781081E+02  0.00000000000E+00 0. -1.
          6    1    1    2  501    0 -0.54975358077E+02  0.58063710614E+02  0.62567248018E+03  0.65405560691E+03  0.17300000000E+03 0.  1.
         -6    1    1    2    0  502  0.54975358077E+02 -0.58063710614E+02  0.80465294503E+03  0.82691538046E+03  0.17300000000E+03 0. -1.
<mgrwt>
<rscale>  2 0.19058511E+03</rscale>
<asrwt>0</asrwt>
<pdfrwt beam="1">  1       21 0.22394581E+00 0.19058511E+03</pdfrwt>
<pdfrwt beam="2">  1       21 0.38958136E-02 0.19058511E+03</pdfrwt>
<totfact> 0.39034932E+04</totfact>
</mgrwt>
</event>
<event>
 4    1  0.4382184E+000  0.2677444E+03  0.7546771E-02  0.1102578E+00
         21   -1    0    0  503  502  0.00000000000E+00  0.00000000000E+00  0.38640424792E+03  0.38640424792E+03  0.00000000000E+00 0. -1.
         21   -1    0    0  501  503 -0.00000000000E+00 -0.00000000000E+00 -0.18824256693E+03  0.18824256693E+03  0.00000000000E+00 0. -1.
          6    1    1    2  501    0  0.10971181187E+02  0.20405310638E+03  0.64548299247E+02  0.27541517746E+03  0.17300000000E+03 0. -1.
         -6    1    1    2    0  502 -0.10971181187E+02 -0.20405310638E+03  0.13361338174E+03  0.29923163739E+03  0.17300000000E+03 0. -1.
<mgrwt>
<rscale>  2 0.26774435E+03</rscale>
<asrwt>0</asrwt>
<pdfrwt beam="1">  1       21 0.59446807E-01 0.26774435E+03</pdfrwt>
<pdfrwt beam="2">  1       21 0.28960395E-01 0.26774435E+03</pdfrwt>
<totfact> 0.29083044E+04</totfact>
</mgrwt>
</event>
<event>
 4    1  0.4382184E+000  0.1906773E+03  0.7546771E-02  0.1157852E+00
         21   -1    0    0  503  502  0.00000000000E+00  0.00000000000E+00  0.31995696984E+03  0.31995696984E+03  0.00000000000E+00 0. -1.
         21   -1    0    0  501  503 -0.00000000000E+00 -0.00000000000E+00 -0.14499138945E+03  0.14499138945E+03  0.00000000000E+00 0. -1.
          6    1    1    2  501    0 -0.76208714463E+02  0.24920817526E+02 -0.20630069639E+02  0.19179002862E+03  0.17300000000E+03 0. -1.
         -6    1    1    2    0  502  0.76208714463E+02 -0.24920817526E+02  0.19559565003E+03  0.27315833067E+03  0.17300000000E+03 0. -1.
<mgrwt>
<rscale>  2 0.19067725E+03</rscale>
<asrwt>0</asrwt>
<pdfrwt beam="1">  1       21 0.49224149E-01 0.19067725E+03</pdfrwt>
<pdfrwt beam="2">  1       21 0.22306368E-01 0.19067725E+03</pdfrwt>
<totfact> 0.74095233E+04</totfact>
</mgrwt>
</event>
<event>
 4    1  0.4382184E+000  0.1908371E+03  0.7546771E-02  0.1157708E+00
         21   -1    0    0  501  502  0.00000000000E+00  0.00000000000E+00  0.11796401869E+04  0.11796401869E+04  0.00000000000E+00 0.  1.
         21   -1    0    0  502  503 -0.00000000000E+00 -0.00000000000E+00 -0.83604075098E+02  0.83604075098E+02  0.00000000000E+00 0.  1.
          6    1    1    2  501    0  0.76974157009E+02  0.23764949804E+02  0.10496414223E+04  0.10668485877E+04  0.17300000000E+03 0.  1.
         -6    1    1    2    0  503 -0.76974157009E+02 -0.23764949804E+02  0.46394689571E+02  0.19639567436E+03  0.17300000000E+03 0.  1.
<mgrwt>
<rscale>  2 0.19083709E+03</rscale>
<asrwt>0</asrwt>
<pdfrwt beam="1">  1       21 0.18148309E+00 0.19083709E+03</pdfrwt>
<pdfrwt beam="2">  1       21 0.12862166E-01 0.19083709E+03</pdfrwt>
<totfact> 0.92261814E+03</totfact>
</mgrwt>
</event>
<event>
 4    1  0.4382184E+000  0.2072349E+03  0.7546771E-02  0.1143775E+00
         21   -1    0    0  501  502  0.00000000000E+00  0.00000000000E+00  0.30096778779E+03  0.30096778779E+03  0.00000000000E+00 0. -1.
         21   -1    0    0  502  503 -0.00000000000E+00 -0.00000000000E+00 -0.14472949975E+03  0.14472949975E+03  0.00000000000E+00 0.  1.
          6    1    1    2  501    0  0.53590838912E+02 -0.10072406256E+03  0.10454693515E+03  0.23211285282E+03  0.17300000000E+03 0. -1.
         -6    1    1    2    0  503 -0.53590838912E+02  0.10072406256E+03  0.51691352892E+02  0.21358443473E+03  0.17300000000E+03 0. -1.
<mgrwt>
<rscale>  2 0.20723493E+03</rscale>
<asrwt>0</asrwt>
<pdfrwt beam="1">  1       21 0.46302736E-01 0.20723493E+03</pdfrwt>
<pdfrwt beam="2">  1       21 0.22266077E-01 0.20723493E+03</pdfrwt>
<totfact> 0.83800565E+04</totfact>
</mgrwt>
</event>
<event>
 4    1  0.4382184E+000  0.1789864E+03  0.7546771E-02  0.1168788E+00
         21   -1    0    0  501  502  0.00000000000E+00  0.00000000000E+00  0.19382261155E+03  0.19382261155E+03  0.00000000000E+00 0. -1.
         21   -1    0    0  502  503 -0.00000000000E+00 -0.00000000000E+00 -0.18340677737E+03  0.18340677737E+03  0.00000000000E+00 0.  1.
          6    1    1    2  501    0 -0.45351741518E+02 -0.70963988392E+01 -0.54078851840E+02  0.18697770335E+03  0.17300000000E+03 0.  1.
         -6    1    1    2    0  503  0.45351741518E+02  0.70963988392E+01  0.64494686015E+02  0.19025168556E+03  0.17300000000E+03 0. -1.
<mgrwt>
<rscale>  2 0.17898642E+03</rscale>
<asrwt>0</asrwt>
<pdfrwt beam="1">  1       21 0.29818864E-01 0.17898642E+03</pdfrwt>
<pdfrwt beam="2">  1       21 0.28216427E-01 0.17898642E+03</pdfrwt>
<totfact> 0.13003173E+05</totfact>
</mgrwt>
</event>
<event>
 4    1  0.4382184E+000  0.2144648E+03  0.7546771E-02  0.1138078E+00
         21   -1    0    0  503  502  0.00000000000E+00  0.00000000000E+00  0.31506027179E+03  0.31506027179E+03  0.00000000000E+00 0. -1.
         21   -1    0    0  501  503 -0.00000000000E+00 -0.00000000000E+00 -0.22742336689E+03  0.22742336689E+03  0.00000000000E+00 0.  1.
          6    1    1    2  501    0  0.11616648225E+03  0.50709930027E+02 -0.11849127101E+03  0.24502108053E+03  0.17300000000E+03 0.  1.
         -6    1    1    2    0  502 -0.11616648225E+03 -0.50709930027E+02  0.20612817591E+03  0.29746255815E+03  0.17300000000E+03 0. -1.
<mgrwt>
<rscale>  2 0.21446480E+03</rscale>
<asrwt>0</asrwt>
<pdfrwt beam="1">  1       21 0.48470811E-01 0.21446480E+03</pdfrwt>
<pdfrwt beam="2">  1       21 0.34988211E-01 0.21446480E+03</pdfrwt>
<totfact> 0.31638116E+04</totfact>
</mgrwt>
</event>
<event>
 4    1  0.4382184E+000  0.2098656E+03  0.7546771E-02  0.1141672E+00
         21   -1    0    0  503  502  0.00000000000E+00  0.00000000000E+00  0.47411444964E+03  0.47411444964E+03  0.00000000000E+00 0.  1.
         21   -1    0    0  501  503 -0.00000000000E+00 -0.00000000000E+00 -0.14647918387E+03  0.14647918387E+03  0.00000000000E+00 0.  1.
          6    1    1    2  501    0 -0.32409790410E+02 -0.11429854586E+03 -0.23855357614E+02  0.21121702154E+03  0.17300000000E+03 0.  1.
         -6    1    1    2    0  502  0.32409790410E+02  0.11429854586E+03  0.35149062339E+03  0.40937661197E+03  0.17300000000E+03 0.  1.
<mgrwt>
<rscale>  2 0.20986556E+03</rscale>
<asrwt>0</asrwt>
<pdfrwt beam="1">  1       21 0.72940684E-01 0.20986556E+03</pdfrwt>
<pdfrwt beam="2">  1       21 0.22535259E-01 0.20986556E+03</pdfrwt>
<totfact> 0.30912438E+04</totfact>
</mgrwt>
</event>
<event>
 4    1  0.4382184E+000  0.1839383E+03  0.7546771E-02  0.1164045E+00
         21   -1    0    0  503  502  0.00000000000E+00  0.00000000000E+00  0.21150412250E+02  0.21150412250E+02  0.00000000000E+00 0. -1.
         21   -1    0    0  501  503 -0.00000000000E+00 -0.00000000000E+00 -0.17344863558E+04  0.17344863558E+04  0.00000000000E+00 0.  1.
          6    1    1    2  501    0 -0.27442446806E+02  0.56135565801E+02 -0.11014165868E+04  0.11166699546E+04  0.17300000000E+03 0.  1.
         -6    1    1    2    0  502  0.27442446806E+02 -0.56135565801E+02 -0.61191935669E+03  0.63896681348E+03  0.17300000000E+03 0.  1.
<mgrwt>
<rscale>  2 0.18393828E+03</rscale>
<asrwt>0</asrwt>
<pdfrwt beam="1">  1       21 0.32539092E-02 0.18393828E+03</pdfrwt>
<pdfrwt beam="2">  1       21 0.26684408E+00 0.18393828E+03</pdfrwt>
<totfact> 0.29548369E+04</totfact>
</mgrwt>
</event>
<event>
 4    1  0.4382184E+000  0.1847655E+03  0.7546771E-02  0.1163269E+00
         21   -1    0    0  503  502  0.00000000000E+00  0.00000000000E+00  0.86077773304E+02  0.86077773304E+02  0.00000000000E+00 0. -1.
         21   -1    0    0  501  503 -0.00000000000E+00 -0.00000000000E+00 -0.55332285926E+03  0.55332285926E+03  0.00000000000E+00 0. -1.
          6    1    1    2  501    0  0.46924448330E+02  0.44803825589E+02 -0.40376883155E+03  0.44403553458E+03  0.17300000000E+03 0. -1.
         -6    1    1    2    0  502 -0.46924448330E+02 -0.44803825589E+02 -0.63476254412E+02  0.19536509799E+03  0.17300000000E+03 0. -1.
<mgrwt>
<rscale>  2 0.18476549E+03</rscale>
<asrwt>0</asrwt>
<pdfrwt beam="1">  1       21 0.13242734E-01 0.18476549E+03</pdfrwt>
<pdfrwt beam="2">  1       21 0.85126595E-01 0.18476549E+03</pdfrwt>
<totfact> 0.58926146E+04</totfact>
</mgrwt>
</event>
<event>
 4    1  0.4382184E+000  0.1827406E+03  0.7546771E-02  0.1165177E+00
         21   -1    0    0  503  502  0.00000000000E+00  0.00000000000E+00  0.74885679159E+03  0.74885679159E+03  0.00000000000E+00 0.  1.
         21   -1    0    0  501  503 -0.00000000000E+00 -0.00000000000E+00 -0.44633507711E+02  0.44633507711E+02  0.00000000000E+00 0.  1.
          6    1    1    2  501    0 -0.55083913526E+02  0.20757947430E+02  0.34023032067E+03  0.38620046739E+03  0.17300000000E+03 0. -1.
         -6    1    1    2    0  502  0.55083913526E+02 -0.20757947430E+02  0.36399296321E+03  0.40728983191E+03  0.17300000000E+03 0. -1.
<mgrwt>
<rscale>  2 0.18274061E+03</rscale>
<asrwt>0</asrwt>
<pdfrwt beam="1">  1       21 0.11520873E+00 0.18274061E+03</pdfrwt>
<pdfrwt beam="2">  1       21 0.68666940E-02 0.18274061E+03</pdfrwt>
<totfact> 0.91665372E+04</totfact>
</mgrwt>
</event>
<event>
 4    1  0.4382184E+000  0.1757473E+03  0.7546771E-02  0.1171983E+00
         21   -1    0    0  503  502  0.00000000000E+00  0.00000000000E+00  0.23245536350E+03  0.23245536350E+03  0.00000000000E+00 0. -1.
         21   -1    0    0  501  503 -0.00000000000E+00 -0.00000000000E+00 -0.14230720452E+03  0.14230720452E+03  0.00000000000E+00 0. -1.
          6    1    1    2  501    0  0.27132012217E+02 -0.14898519574E+02  0.93319759670E+02  0.19898665663E+03  0.17300000000E+03 0. -1.
         -6    1    1    2    0  502 -0.27132012217E+02  0.14898519574E+02 -0.31716006864E+01  0.17577591139E+03  0.17300000000E+03 0. -1.
<mgrwt>
<rscale>  2 0.17574730E+03</rscale>
<asrwt>0</asrwt>
<pdfrwt beam="1">  1       21 0.35762364E-01 0.17574730E+03</pdfrwt>
<pdfrwt beam="2">  1       21 0.21893416E-01 0.17574730E+03</pdfrwt>
<totfact> 0.14768509E+05</totfact>
</mgrwt>
</event>
<event>
 4    1  0.4382184E+000  0.2120030E+03  0.7546771E-02  0.1139990E+00
         21   -1    0    0  501  502  0.00000000000E+00  0.00000000000E+00  0.68686029994E+02  0.68686029994E+02  0.00000000000E+00 0.  1.
         21   -1    0    0  502  503 -0.00000000000E+00 -0.00000000000E+00 -0.66806517717E+03  0.66806517717E+03  0.00000000000E+00 0.  1.
          6    1    1    2  501    0 -0.83573259604E+02  0.89620284370E+02 -0.24692431098E+03  0.32544876777E+03  0.17300000000E+03 0.  1.
         -6    1    1    2    0  503  0.83573259604E+02 -0.89620284370E+02 -0.35245483619E+03  0.41130243938E+03  0.17300000000E+03 0.  1.
<mgrwt>
<rscale>  2 0.21200303E+03</rscale>
<asrwt>0</asrwt>
<pdfrwt beam="1">  1       21 0.10567082E-01 0.21200303E+03</pdfrwt>
<pdfrwt beam="2">  1       21 0.10277926E+00 0.21200303E+03</pdfrwt>
<totfact> 0.56057395E+04</totfact>
</mgrwt>
</event>
<event>
 4    1  0.4382184E+000  0.1817207E+03  0.7546771E-02  0.1166148E+00
         21   -1    0    0  503  502  0.00000000000E+00  0.00000000000E+00  0.88519584644E+03  0.88519584644E+03  0.00000000000E+00 0. -1.
         21   -1    0    0  501  503 -0.00000000000E+00 -0.00000000000E+00 -0.69857634737E+02  0.69857634737E+02  0.00000000000E+00 0.  1.
          6    1    1    2  501    0  0.55606764622E+02  0.11369682971E+01  0.81695437612E+02  0.19923992947E+03  0.17300000000E+03 0.  1.
         -6    1    1    2    0  502 -0.55606764622E+02 -0.11369682971E+01  0.73364277409E+03  0.75581355171E+03  0.17300000000E+03 0. -1.
<mgrwt>
<rscale>  2 0.18172068E+03</rscale>
<asrwt>0</asrwt>
<pdfrwt beam="1">  1       21 0.13618397E+00 0.18172068E+03</pdfrwt>
<pdfrwt beam="2">  1       21 0.10747329E-01 0.18172068E+03</pdfrwt>
<totfact> 0.27624920E+04</totfact>
</mgrwt>
</event>
<event>
 4    1  0.4382184E+000  0.2713138E+03  0.7546771E-02  0.1100530E+00
         21   -1    0    0  501  502  0.00000000000E+00  0.00000000000E+00  0.60852545098E+03  0.60852545098E+03  0.00000000000E+00 0. -1.
         21   -1    0    0  502  503 -0.00000000000E+00 -0.00000000000E+00 -0.12446543251E+03  0.12446543251E+03  0.00000000000E+00 0.  1.
          6    1    1    2  501    0  0.18841195231E+03 -0.90460579358E+02  0.18058121170E+03  0.32591525618E+03  0.17300000000E+03 0. -1.
         -6    1    1    2    0  503 -0.18841195231E+03  0.90460579358E+02  0.30347880677E+03  0.40707562731E+03  0.17300000000E+03 0.  1.
<mgrwt>
<rscale>  2 0.27131380E+03</rscale>
<asrwt>0</asrwt>
<pdfrwt beam="1">  1       21 0.93619298E-01 0.27131380E+03</pdfrwt>
<pdfrwt beam="2">  1       21 0.19148529E-01 0.27131380E+03</pdfrwt>
<totfact> 0.23032591E+04</totfact>
</mgrwt>
</event>
<event>
 4    1  0.4382184E+000  0.2686224E+03  0.7546771E-02  0.1102071E+00
         21   -1    0    0  503  502  0.00000000000E+00  0.00000000000E+00  0.51179352932E+03  0.51179352932E+03  0.00000000000E+00 0.  1.
         21   -1    0    0  501  503 -0.00000000000E+00 -0.00000000000E+00 -0.14200227615E+03  0.14200227615E+03  0.00000000000E+00 0. -1.
          6    1    1    2  501    0  0.11362649546E+03 -0.17122497057E+03  0.15730067812E+03  0.31129001647E+03  0.17300000000E+03 0. -1.
         -6    1    1    2    0  502 -0.11362649546E+03  0.17122497057E+03  0.21249057505E+03  0.34250578901E+03  0.17300000000E+03 0. -1.
<mgrwt>
<rscale>  2 0.26862236E+03</rscale>
<asrwt>0</asrwt>
<pdfrwt beam="1">  1       21 0.78737465E-01 0.26862236E+03</pdfrwt>
<pdfrwt beam="2">  1       21 0.21846504E-01 0.26862236E+03</pdfrwt>
<totfact> 0.26843347E+04</totfact>
</mgrwt>
</event>
<event>
 4    1  0.4382184E+000  0.2471342E+03  0.7546771E-02  0.1115129E+00
         21   -1    0    0  501  502  0.00000000000E+00  0.00000000000E+00  0.91508448438E+02  0.91508448438E+02  0.00000000000E+00 0.  1.
         21   -1    0    0  502  503 -0.00000000000E+00 -0.00000000000E+00 -0.80175314889E+03  0.80175314889E+03  0.00000000000E+00 0. -1.
          6    1    1    2  501    0  0.15832517456E+03  0.77970827758E+02 -0.17230945929E+03  0.30127373042E+03  0.17300000000E+03 0.  1.
         -6    1    1    2    0  503 -0.15832517456E+03 -0.77970827758E+02 -0.53793524116E+03  0.59198786691E+03  0.17300000000E+03 0. -1.
<mgrwt>
<rscale>  2 0.24713420E+03</rscale>
<asrwt>0</asrwt>
<pdfrwt beam="1">  1       21 0.14078223E-01 0.24713420E+03</pdfrwt>
<pdfrwt beam="2">  1       21 0.12334664E+00 0.24713420E+03</pdfrwt>
<totfact> 0.21032083E+04</totfact>
</mgrwt>
</event>
<event>
 4    1  0.4382184E+000  0.2128497E+03  0.7546771E-02  0.1139329E+00
         21   -1    0    0  501  502  0.00000000000E+00  0.00000000000E+00  0.15386358534E+03  0.15386358534E+03  0.00000000000E+00 0. -1.
         21   -1    0    0  502  503 -0.00000000000E+00 -0.00000000000E+00 -0.35974130405E+03  0.35974130405E+03  0.00000000000E+00 0. -1.
          6    1    1    2  501    0  0.12367360951E+03 -0.89899095888E+01  0.64655863203E+01  0.21294784331E+03  0.17300000000E+03 0. -1.
         -6    1    1    2    0  503 -0.12367360951E+03  0.89899095888E+01 -0.21234330503E+03  0.30065704607E+03  0.17300000000E+03 0. -1.
<mgrwt>
<rscale>  2 0.21284967E+03</rscale>
<asrwt>0</asrwt>
<pdfrwt beam="1">  1       21 0.23671321E-01 0.21284967E+03</pdfrwt>
<pdfrwt beam="2">  1       21 0.55344816E-01 0.21284967E+03</pdfrwt>
<totfact> 0.51234296E+04</totfact>
</mgrwt>
</event>
<event>
 4    1  0.4382184E+000  0.1857026E+03  0.7546771E-02  0.1162395E+00
         21   -1    0    0  503  502  0.00000000000E+00  0.00000000000E+00  0.70818697121E+03  0.70818697121E+03  0.00000000000E+00 0.  1.
         21   -1    0    0  501  503 -0.00000000000E+00 -0.00000000000E+00 -0.62611276853E+02  0.62611276853E+02  0.00000000000E+00 0.  1.
          6    1    1    2  501    0  0.51913489940E+02 -0.43144447472E+02  0.14109425958E+03  0.23322316324E+03  0.17300000000E+03 0.  1.
         -6    1    1    2    0  502 -0.51913489940E+02  0.43144447472E+02  0.50448143478E+03  0.53757508482E+03  0.17300000000E+03 0.  1.
<mgrwt>
<rscale>  2 0.18570259E+03</rscale>
<asrwt>0</asrwt>
<pdfrwt beam="1">  1       21 0.10895184E+00 0.18570259E+03</pdfrwt>
<pdfrwt beam="2">  1       21 0.96325046E-02 0.18570259E+03</pdfrwt>
<totfact> 0.58137519E+04</totfact>
</mgrwt>
</event>
<event>
 4    1  0.4382184E+000  0.2370288E+03  0.7546771E-02  0.1121788E+00
         21   -1    0    0  501  502  0.00000000000E+00  0.00000000000E+00  0.14771430870E+04  0.14771430870E+04  0.00000000000E+00 0.  1.
         21   -1    0    0  502  503 -0.00000000000E+00 -0.00000000000E+00 -0.84779452214E+02  0.84779452214E+02  0.00000000000E+00 0. -1.
          6    1    1    2  501    0  0.13111923531E+03  0.95191424961E+02  0.12760786382E+04  0.12979057563E+04  0.17300000000E+03 0.  1.
         -6    1    1    2    0  503 -0.13111923531E+03 -0.95191424961E+02  0.11628499659E+03  0.26401678296E+03  0.17300000000E+03 0. -1.
<mgrwt>
<rscale>  2 0.23702882E+03</rscale>
<asrwt>0</asrwt>
<pdfrwt beam="1">  1       21 0.22725276E+00 0.23702882E+03</pdfrwt>
<pdfrwt beam="2">  1       21 0.13042994E-01 0.23702882E+03</pdfrwt>
<totfact> 0.44076894E+03</totfact>
</mgrwt>
</event>
<event>
 4    1  0.4382184E+000  0.2072600E+03  0.7546771E-02  0.1143754E+00
         21   -1    0    0  503  502  0.00000000000E+00  0.00000000000E+00  0.22530733762E+03  0.22530733762E+03  0.00000000000E+00 0. -1.
         21   -1    0    0  501  503 -0.00000000000E+00 -0.00000000000E+00 -0.94757507333E+03  0.94757507333E+03  0.00000000000E+00 0. -1.
          6    1    1    2  501    0 -0.78474828870E+02  0.82881850202E+02 -0.88526716031E+03  0.90920550206E+03  0.17300000000E+03 0. -1.
         -6    1    1    2    0  502  0.78474828870E+02 -0.82881850202E+02  0.16299942460E+03  0.26367690889E+03  0.17300000000E+03 0. -1.
<mgrwt>
<rscale>  2 0.20725998E+03</rscale>
<asrwt>0</asrwt>
<pdfrwt beam="1">  1       21 0.34662667E-01 0.20725998E+03</pdfrwt>
<pdfrwt beam="2">  1       21 0.14578078E+00 0.20725998E+03</pdfrwt>
<totfact> 0.25500349E+03</totfact>
</mgrwt>
</event>
<event>
 4    1  0.4382184E+000  0.1783455E+03  0.7546771E-02  0.1169414E+00
         21   -1    0    0  501  502  0.00000000000E+00  0.00000000000E+00  0.57609826941E+03  0.57609826941E+03  0.00000000000E+00 0. -1.
         21   -1    0    0  502  503 -0.00000000000E+00 -0.00000000000E+00 -0.61462484125E+02  0.61462484125E+02  0.00000000000E+00 0. -1.
          6    1    1    2  501    0 -0.77072766250E+01  0.42646242548E+02  0.35898243159E+03  0.40084347357E+03  0.17300000000E+03 0. -1.
         -6    1    1    2    0  503  0.77072766250E+01 -0.42646242548E+02  0.15565335370E+03  0.23671727997E+03  0.17300000000E+03 0. -1.
<mgrwt>
<rscale>  2 0.17834546E+03</rscale>
<asrwt>0</asrwt>
<pdfrwt beam="1">  1       21 0.88630499E-01 0.17834546E+03</pdfrwt>
<pdfrwt beam="2">  1       21 0.94557672E-02 0.17834546E+03</pdfrwt>
<totfact> 0.98050443E+04</totfact>
</mgrwt>
</event>
<event>
 4    1  0.4382184E+000  0.1860957E+03  0.7546771E-02  0.1162031E+00
         21   -1    0    0  501  502  0.00000000000E+00  0.00000000000E+00  0.64061190765E+03  0.64061190765E+03  0.00000000000E+00 0.  1.
         21   -1    0    0  502  503 -0.00000000000E+00 -0.00000000000E+00 -0.10666543810E+03  0.10666543810E+03  0.00000000000E+00 0.  1.
          6    1    1    2  501    0  0.58845431465E+02 -0.35211047131E+02  0.52936759058E+03  0.56112534126E+03  0.17300000000E+03 0. -1.
         -6    1    1    2    0  503 -0.58845431465E+02  0.35211047131E+02  0.45788789782E+01  0.18615200449E+03  0.17300000000E+03 0. -1.
<mgrwt>
<rscale>  2 0.18609568E+03</rscale>
<asrwt>0</asrwt>
<pdfrwt beam="1">  1       21 0.98555676E-01 0.18609568E+03</pdfrwt>
<pdfrwt beam="2">  1       21 0.16410068E-01 0.18609568E+03</pdfrwt>
<totfact> 0.28390320E+04</totfact>
</mgrwt>
</event>
<event>
 4    1  0.4382184E+000  0.1934173E+03  0.7546771E-02  0.1155415E+00
         21   -1    0    0  503  502  0.00000000000E+00  0.00000000000E+00  0.23217204054E+03  0.23217204054E+03  0.00000000000E+00 0.  1.
         21   -1    0    0  501  503 -0.00000000000E+00 -0.00000000000E+00 -0.17369755681E+03  0.17369755681E+03  0.00000000000E+00 0. -1.
          6    1    1    2  501    0  0.83139899726E+02 -0.23853773672E+02 -0.25345829140E+02  0.19507090121E+03  0.17300000000E+03 0. -1.
         -6    1    1    2    0  502 -0.83139899726E+02  0.23853773672E+02  0.83820312867E+02  0.21079869614E+03  0.17300000000E+03 0.  1.
<mgrwt>
<rscale>  2 0.19341728E+03</rscale>
<asrwt>0</asrwt>
<pdfrwt beam="1">  1       21 0.35718775E-01 0.19341728E+03</pdfrwt>
<pdfrwt beam="2">  1       21 0.26722701E-01 0.19341728E+03</pdfrwt>
<totfact> 0.10073296E+05</totfact>
</mgrwt>
</event>
<event>
 4    1  0.4382184E+000  0.2115104E+03  0.7546771E-02  0.1140375E+00
         21   -1    0    0  501  502  0.00000000000E+00  0.00000000000E+00  0.21128005356E+03  0.21128005356E+03  0.00000000000E+00 0. -1.
         21   -1    0    0  502  503 -0.00000000000E+00 -0.00000000000E+00 -0.27890408120E+03  0.27890408120E+03  0.00000000000E+00 0.  1.
          6    1    1    2  501    0  0.88651715254E+00 -0.12168351722E+03  0.86460643164E+02  0.22849968729E+03  0.17300000000E+03 0. -1.
         -6    1    1    2    0  503 -0.88651715254E+00  0.12168351722E+03 -0.15408467080E+03  0.26168444748E+03  0.17300000000E+03 0.  1.
<mgrwt>
<rscale>  2 0.21151044E+03</rscale>
<asrwt>0</asrwt>
<pdfrwt beam="1">  1       21 0.32504624E-01 0.21151044E+03</pdfrwt>
<pdfrwt beam="2">  1       21 0.42908320E-01 0.21151044E+03</pdfrwt>
<totfact> 0.47138824E+04</totfact>
</mgrwt>
</event>
<event>
 4    1  0.4382184E+000  0.1940895E+03  0.7546771E-02  0.1154824E+00
         21   -1    0    0  503  502  0.00000000000E+00  0.00000000000E+00  0.32330244425E+03  0.32330244425E+03  0.00000000000E+00 0.  1.
         21   -1    0    0  501  503 -0.00000000000E+00 -0.00000000000E+00 -0.24294981707E+03  0.24294981707E+03  0.00000000000E+00 0.  1.
          6    1    1    2  501    0  0.87766576208E+02 -0.62262578528E+01 -0.16406748449E+03  0.25414341945E+03  0.17300000000E+03 0.  1.
         -6    1    1    2    0  502 -0.87766576208E+02  0.62262578528E+01  0.24442011166E+03  0.31210884186E+03  0.17300000000E+03 0.  1.
<mgrwt>
<rscale>  2 0.19408951E+03</rscale>
<asrwt>0</asrwt>
<pdfrwt beam="1">  1       21 0.49738838E-01 0.19408951E+03</pdfrwt>
<pdfrwt beam="2">  1       21 0.37376895E-01 0.19408951E+03</pdfrwt>
<totfact> 0.26573948E+04</totfact>
</mgrwt>
</event>
<event>
 4    1  0.4382184E+000  0.3010902E+03  0.7546771E-02  0.1084697E+00
         21   -1    0    0  501  502  0.00000000000E+00  0.00000000000E+00  0.26757190059E+03  0.26757190059E+03  0.00000000000E+00 0. -1.
         21   -1    0    0  502  503 -0.00000000000E+00 -0.00000000000E+00 -0.40177306566E+03  0.40177306566E+03  0.00000000000E+00 0. -1.
          6    1    1    2  501    0 -0.19001939685E+03  0.15690432401E+03  0.65388935516E+02  0.30810882973E+03  0.17300000000E+03 0. -1.
         -6    1    1    2    0  503  0.19001939685E+03 -0.15690432401E+03 -0.19959010059E+03  0.36123613652E+03  0.17300000000E+03 0. -1.
<mgrwt>
<rscale>  2 0.30109025E+03</rscale>
<asrwt>0</asrwt>
<pdfrwt beam="1">  1       21 0.41164908E-01 0.30109025E+03</pdfrwt>
<pdfrwt beam="2">  1       21 0.61811241E-01 0.30109025E+03</pdfrwt>
<totfact> 0.13035130E+04</totfact>
</mgrwt>
</event>
<event>
 4    1  0.4382184E+000  0.1815788E+03  0.7546771E-02  0.1166284E+00
         21   -1    0    0  503  502  0.00000000000E+00  0.00000000000E+00  0.44410316030E+03  0.44410316030E+03  0.00000000000E+00 0.  1.
         21   -1    0    0  501  503 -0.00000000000E+00 -0.00000000000E+00 -0.44351603771E+03  0.44351603771E+03  0.00000000000E+00 0.  1.
          6    1    1    2  501    0  0.48232379736E+02 -0.26748810281E+02 -0.40467073891E+03  0.44354173223E+03  0.17300000000E+03 0.  1.
         -6    1    1    2    0  502 -0.48232379736E+02  0.26748810281E+02  0.40525786149E+03  0.44407746577E+03  0.17300000000E+03 0.  1.
<mgrwt>
<rscale>  2 0.18157880E+03</rscale>
<asrwt>0</asrwt>
<pdfrwt beam="1">  1       21 0.68323563E-01 0.18157880E+03</pdfrwt>
<pdfrwt beam="2">  1       21 0.68233237E-01 0.18157880E+03</pdfrwt>
<totfact> 0.38660979E+03</totfact>
</mgrwt>
</event>
<event>
 4    1  0.4382184E+000  0.2191412E+03  0.7546771E-02  0.1134525E+00
         21   -1    0    0  501  502  0.00000000000E+00  0.00000000000E+00  0.14218540237E+03  0.14218540237E+03  0.00000000000E+00 0. -1.
         21   -1    0    0  502  503 -0.00000000000E+00 -0.00000000000E+00 -0.55075550815E+03  0.55075550815E+03  0.00000000000E+00 0.  1.
          6    1    1    2  501    0  0.92071131670E+02 -0.98065139384E+02  0.11183565052E+02  0.21942638168E+03  0.17300000000E+03 0. -1.
         -6    1    1    2    0  503 -0.92071131670E+02  0.98065139384E+02 -0.41975367083E+03  0.47351452884E+03  0.17300000000E+03 0.  1.
<mgrwt>
<rscale>  2 0.21914120E+03</rscale>
<asrwt>0</asrwt>
<pdfrwt beam="1">  1       21 0.21874677E-01 0.21914120E+03</pdfrwt>
<pdfrwt beam="2">  1       21 0.84731617E-01 0.21914120E+03</pdfrwt>
<totfact> 0.23193090E+04</totfact>
</mgrwt>
</event>
<event>
 4    1  0.4382184E+000  0.1942609E+03  0.7546771E-02  0.1154673E+00
         21   -1    0    0  503  502  0.00000000000E+00  0.00000000000E+00  0.63481645914E+02  0.63481645914E+02  0.00000000000E+00 0. -1.
         21   -1    0    0  501  503 -0.00000000000E+00 -0.00000000000E+00 -0.61354668212E+03  0.61354668212E+03  0.00000000000E+00 0. -1.
          6    1    1    2  501    0 -0.99837621885E+01  0.87798679021E+02 -0.33473894343E+03  0.38702382845E+03  0.17300000000E+03 0. -1.
         -6    1    1    2    0  502  0.99837621885E+01 -0.87798679021E+02 -0.21532609278E+03  0.29000449958E+03  0.17300000000E+03 0. -1.
<mgrwt>
<rscale>  2 0.19426086E+03</rscale>
<asrwt>0</asrwt>
<pdfrwt beam="1">  1       21 0.97664068E-02 0.19426086E+03</pdfrwt>
<pdfrwt beam="2">  1       21 0.94391800E-01 0.19426086E+03</pdfrwt>
<totfact> 0.79503517E+04</totfact>
</mgrwt>
</event>
<event>
 4    1  0.4382184E+000  0.1780590E+03  0.7546771E-02  0.1169695E+00
         21   -1    0    0  503  502  0.00000000000E+00  0.00000000000E+00  0.19681806144E+02  0.19681806144E+02  0.00000000000E+00 0.  1.
         21   -1    0    0  501  503 -0.00000000000E+00 -0.00000000000E+00 -0.19636280704E+04  0.19636280704E+04  0.00000000000E+00 0.  1.
          6    1    1    2  501    0  0.37795541922E+02  0.18641151516E+02 -0.13922778826E+04  0.14036177179E+04  0.17300000000E+03 0.  1.
         -6    1    1    2    0  502 -0.37795541922E+02 -0.18641151516E+02 -0.55166838165E+03  0.57969215867E+03  0.17300000000E+03 0.  1.
<mgrwt>
<rscale>  2 0.17805897E+03</rscale>
<asrwt>0</asrwt>
<pdfrwt beam="1">  1       21 0.30279691E-02 0.17805897E+03</pdfrwt>
<pdfrwt beam="2">  1       21 0.30209674E+00 0.17805897E+03</pdfrwt>
<totfact> 0.21001551E+04</totfact>
</mgrwt>
</event>
<event>
 4    1  0.4382184E+000  0.3423476E+03  0.7546771E-02  0.1065800E+00
         21   -1    0    0  503  502  0.00000000000E+00  0.00000000000E+00  0.41063008560E+03  0.41063008560E+03  0.00000000000E+00 0.  1.
         21   -1    0    0  501  503 -0.00000000000E+00 -0.00000000000E+00 -0.28673943265E+03  0.28673943265E+03  0.00000000000E+00 0. -1.
          6    1    1    2  501    0  0.26496248159E+03 -0.13064366107E+03  0.85601552586E+02  0.35288738804E+03  0.17300000000E+03 0. -1.
         -6    1    1    2    0  502 -0.26496248159E+03  0.13064366107E+03  0.38289100368E+02  0.34448213021E+03  0.17300000000E+03 0.  1.
<mgrwt>
<rscale>  2 0.34234761E+03</rscale>
<asrwt>0</asrwt>
<pdfrwt beam="1">  1       21 0.63173859E-01 0.34234761E+03</pdfrwt>
<pdfrwt beam="2">  1       21 0.44113759E-01 0.34234761E+03</pdfrwt>
<totfact> 0.10593564E+04</totfact>
</mgrwt>
</event>
<event>
 4    1  0.4382184E+000  0.3025663E+03  0.7546771E-02  0.1083965E+00
         21   -1    0    0  503  502  0.00000000000E+00  0.00000000000E+00  0.50794142107E+03  0.50794142107E+03  0.00000000000E+00 0. -1.
         21   -1    0    0  501  503 -0.00000000000E+00 -0.00000000000E+00 -0.19786562899E+03  0.19786562899E+03  0.00000000000E+00 0. -1.
          6    1    1    2  501    0 -0.83628388936E+02 -0.23371710637E+03  0.49680845459E+02  0.30661797020E+03  0.17300000000E+03 0. -1.
         -6    1    1    2    0  502  0.83628388936E+02  0.23371710637E+03  0.26039494662E+03  0.39918907985E+03  0.17300000000E+03 0. -1.
<mgrwt>
<rscale>  2 0.30256635E+03</rscale>
<asrwt>0</asrwt>
<pdfrwt beam="1">  1       21 0.78144833E-01 0.30256635E+03</pdfrwt>
<pdfrwt beam="2">  1       21 0.30440866E-01 0.30256635E+03</pdfrwt>
<totfact> 0.14169588E+04</totfact>
</mgrwt>
</event>
<event>
 4    1  0.4382184E+000  0.3124079E+03  0.7546771E-02  0.1079197E+00
         21   -1    0    0  501  502  0.00000000000E+00  0.00000000000E+00  0.12027912061E+04  0.12027912061E+04  0.00000000000E+00 0.  1.
         21   -1    0    0  502  503 -0.00000000000E+00 -0.00000000000E+00 -0.83377444264E+02  0.83377444264E+02  0.00000000000E+00 0.  1.
          6    1    1    2  501    0 -0.22187130697E+03  0.13580423984E+03  0.66497125263E+03  0.73470091550E+03  0.17300000000E+03 0.  1.
         -6    1    1    2    0  503  0.22187130697E+03 -0.13580423984E+03  0.45444250917E+03  0.55146773482E+03  0.17300000000E+03 0.  1.
<mgrwt>
<rscale>  2 0.31240786E+03</rscale>
<asrwt>0</asrwt>
<pdfrwt beam="1">  1       21 0.18504479E+00 0.31240786E+03</pdfrwt>
<pdfrwt beam="2">  1       21 0.12827300E-01 0.31240786E+03</pdfrwt>
<totfact> 0.80898819E+03</totfact>
</mgrwt>
</event>
<event>
 4    1  0.4382184E+000  0.2028541E+03  0.7546771E-02  0.1147353E+00
         21   -1    0    0  503  502  0.00000000000E+00  0.00000000000E+00  0.43474453326E+03  0.43474453326E+03  0.00000000000E+00 0. -1.
         21   -1    0    0  501  503 -0.00000000000E+00 -0.00000000000E+00 -0.95265848599E+02  0.95265848599E+02  0.00000000000E+00 0. -1.
          6    1    1    2  501    0  0.73619648374E+02  0.76163826285E+02  0.14848056206E+03  0.25138865999E+03  0.17300000000E+03 0. -1.
         -6    1    1    2    0  502 -0.73619648374E+02 -0.76163826285E+02  0.19099812260E+03  0.27862172187E+03  0.17300000000E+03 0. -1.
<mgrwt>
<rscale>  2 0.20285409E+03</rscale>
<asrwt>0</asrwt>
<pdfrwt beam="1">  1       21 0.66883773E-01 0.20285409E+03</pdfrwt>
<pdfrwt beam="2">  1       21 0.14656285E-01 0.20285409E+03</pdfrwt>
<totfact> 0.83421897E+04</totfact>
</mgrwt>
</event>
<event>
 4    1  0.4382184E+000  0.2439299E+03  0.7546771E-02  0.1117202E+00
         21   -1    0    0  501  502  0.00000000000E+00  0.00000000000E+00  0.35050297402E+03  0.35050297402E+03  0.00000000000E+00 0.  1.
         21   -1    0    0  502  503 -0.00000000000E+00 -0.00000000000E+00 -0.33722321393E+03  0.33722321393E+03  0.00000000000E+00 0. -1.
          6    1    1    2  501    0  0.16909052415E+03  0.31324182241E+02  0.24895748846E+03  0.34854216504E+03  0.17300000000E+03 0.  1.
         -6    1    1    2    0  503 -0.16909052415E+03 -0.31324182241E+02 -0.23567772837E+03  0.33918402291E+03  0.17300000000E+03 0. -1.
<mgrwt>
<rscale>  2 0.24392993E+03</rscale>
<asrwt>0</asrwt>
<pdfrwt beam="1">  1       21 0.53923534E-01 0.24392993E+03</pdfrwt>
<pdfrwt beam="2">  1       21 0.51880495E-01 0.24392993E+03</pdfrwt>
<totfact> 0.11113108E+04</totfact>
</mgrwt>
</event>
<event>
 4    1  0.4382184E+000  0.1939687E+03  0.7546771E-02  0.1154930E+00
         21   -1    0    0  501  502  0.00000000000E+00  0.00000000000E+00  0.10326682140E+04  0.10326682140E+04  0.00000000000E+00 0.  1.
         21   -1    0    0  502  503 -0.00000000000E+00 -0.00000000000E+00 -0.67898968189E+02  0.67898968189E+02  0.00000000000E+00 0. -1.
          6    1    1    2  501    0 -0.85391013066E+02  0.20080205754E+02  0.85698762765E+03  0.87866468787E+03  0.17300000000E+03 0.  1.
         -6    1    1    2    0  503  0.85391013066E+02 -0.20080205754E+02  0.10778161819E+03  0.22190249434E+03  0.17300000000E+03 0. -1.
<mgrwt>
<rscale>  2 0.19396866E+03</rscale>
<asrwt>0</asrwt>
<pdfrwt beam="1">  1       21 0.15887202E+00 0.19396866E+03</pdfrwt>
<pdfrwt beam="2">  1       21 0.10445996E-01 0.19396866E+03</pdfrwt>
<totfact> 0.19253435E+04</totfact>
</mgrwt>
</event>
<event>
 4    1  0.4382184E+000  0.1771116E+03  0.7546771E-02  0.1170628E+00
         21   -1    0    0  501  502  0.00000000000E+00  0.00000000000E+00  0.13172254932E+03  0.13172254932E+03  0.00000000000E+00 0. -1.
         21   -1    0    0  502  503 -0.00000000000E+00 -0.00000000000E+00 -0.25687895398E+03  0.25687895398E+03  0.00000000000E+00 0. -1.
          6    1    1    2  501    0  0.37494907113E+02 -0.57997132569E+01 -0.10100553170E+02  0.17739934021E+03  0.17300000000E+03 0.  1.
         -6    1    1    2    0  503 -0.37494907113E+02  0.57997132569E+01 -0.11505585149E+03  0.21120216309E+03  0.17300000000E+03 0.  1.
<mgrwt>
<rscale>  2 0.17711156E+03</rscale>
<asrwt>0</asrwt>
<pdfrwt beam="1">  1       21 0.20265008E-01 0.17711156E+03</pdfrwt>
<pdfrwt beam="2">  1       21 0.39519839E-01 0.17711156E+03</pdfrwt>
<totfact> 0.13973246E+05</totfact>
</mgrwt>
</event>
<event>
 4    1  0.4382184E+000  0.2617006E+03  0.7546771E-02  0.1106126E+00
         21   -1    0    0  503  502  0.00000000000E+00  0.00000000000E+00  0.13898726542E+03  0.13898726542E+03  0.00000000000E+00 0. -1.
         21   -1    0    0  501  503 -0.00000000000E+00 -0.00000000000E+00 -0.10825346092E+04  0.10825346092E+04  0.00000000000E+00 0. -1.
          6    1    1    2  501    0 -0.70820470789E+02  0.18314651377E+03 -0.92258401473E+03  0.95898302843E+03  0.17300000000E+03 0. -1.
         -6    1    1    2    0  502  0.70820470789E+02 -0.18314651377E+03 -0.20963329043E+02  0.26253884618E+03  0.17300000000E+03 0. -1.
<mgrwt>
<rscale>  2 0.26170056E+03</rscale>
<asrwt>0</asrwt>
<pdfrwt beam="1">  1       21 0.21382657E-01 0.26170056E+03</pdfrwt>
<pdfrwt beam="2">  1       21 0.16654378E+00 0.26170056E+03</pdfrwt>
<totfact> 0.43585411E+03</totfact>
</mgrwt>
</event>
<event>
 4    1  0.4382184E+000  0.2036784E+03  0.7546771E-02  0.1146672E+00
         21   -1    0    0  501  502  0.00000000000E+00  0.00000000000E+00  0.12527202798E+03  0.12527202798E+03  0.00000000000E+00 0.  1.
         21   -1    0    0  502  503 -0.00000000000E+00 -0.00000000000E+00 -0.46410208390E+03  0.46410208390E+03  0.00000000000E+00 0.  1.
          6    1    1    2  501    0 -0.73531801607E+02  0.78415276684E+02 -0.11694510645E+02  0.20401383052E+03  0.17300000000E+03 0.  1.
         -6    1    1    2    0  503  0.73531801607E+02 -0.78415276684E+02 -0.32713554528E+03  0.38536028136E+03  0.17300000000E+03 0.  1.
<mgrwt>
<rscale>  2 0.20367838E+03</rscale>
<asrwt>0</asrwt>
<pdfrwt beam="1">  1       21 0.19272619E-01 0.20367838E+03</pdfrwt>
<pdfrwt beam="2">  1       21 0.71400322E-01 0.20367838E+03</pdfrwt>
<totfact> 0.43621413E+04</totfact>
</mgrwt>
</event>
<event>
 4    1  0.4382184E+000  0.1742812E+03  0.7546771E-02  0.1173455E+00
         21   -1    0    0  501  502  0.00000000000E+00  0.00000000000E+00  0.69719749128E+02  0.69719749128E+02  0.00000000000E+00 0. -1.
         21   -1    0    0  502  503 -0.00000000000E+00 -0.00000000000E+00 -0.11353497793E+04  0.11353497793E+04  0.00000000000E+00 0. -1.
          6    1    1    2  501    0  0.20883894643E+02 -0.29661612052E+01 -0.59804500975E+02  0.18425665118E+03  0.17300000000E+03 0. -1.
         -6    1    1    2    0  503 -0.20883894643E+02  0.29661612052E+01 -0.10058255292E+04  0.10208128772E+04  0.17300000000E+03 0. -1.
<mgrwt>
<rscale>  2 0.17428120E+03</rscale>
<asrwt>0</asrwt>
<pdfrwt beam="1">  1       21 0.10726115E-01 0.17428120E+03</pdfrwt>
<pdfrwt beam="2">  1       21 0.17466920E+00 0.17428120E+03</pdfrwt>
<totfact> 0.14391543E+04</totfact>
</mgrwt>
</event>
<event>
 4    1  0.4382184E+000  0.3400812E+03  0.7546771E-02  0.1066761E+00
         21   -1    0    0  503  502  0.00000000000E+00  0.00000000000E+00  0.55546834176E+03  0.55546834176E+03  0.00000000000E+00 0.  1.
         21   -1    0    0  501  503 -0.00000000000E+00 -0.00000000000E+00 -0.24448798178E+03  0.24448798178E+03  0.00000000000E+00 0. -1.
          6    1    1    2  501    0 -0.29213661708E+03  0.19555922238E+02  0.14207649740E+01  0.34008418914E+03  0.17300000000E+03 0. -1.
         -6    1    1    2    0  502  0.29213661708E+03 -0.19555922238E+02  0.30955959501E+03  0.45987213440E+03  0.17300000000E+03 0.  1.
<mgrwt>
<rscale>  2 0.34008122E+03</rscale>
<asrwt>0</asrwt>
<pdfrwt beam="1">  1       21 0.85456668E-01 0.34008122E+03</pdfrwt>
<pdfrwt beam="2">  1       21 0.37613536E-01 0.34008122E+03</pdfrwt>
<totfact> 0.74337349E+03</totfact>
</mgrwt>
</event>
<event>
 4    1  0.4382184E+000  0.2827449E+03  0.7546771E-02  0.1094199E+00
         21   -1    0    0  501  502  0.00000000000E+00  0.00000000000E+00  0.86807610199E+02  0.86807610199E+02  0.00000000000E+00 0.  1.
         21   -1    0    0  502  503 -0.00000000000E+00 -0.00000000000E+00 -0.98744841932E+03  0.98744841932E+03  0.00000000000E+00 0.  1.
          6    1    1    2  501    0  0.18934850566E+02  0.22283890139E+03 -0.31092290096E+03  0.42025915205E+03  0.17300000000E+03 0.  1.
         -6    1    1    2    0  503 -0.18934850566E+02 -0.22283890139E+03 -0.58971790815E+03  0.65399687747E+03  0.17300000000E+03 0.  1.
<mgrwt>
<rscale>  2 0.28274495E+03</rscale>
<asrwt>0</asrwt>
<pdfrwt beam="1">  1       21 0.13355017E-01 0.28274495E+03</pdfrwt>
<pdfrwt beam="2">  1       21 0.15191514E+00 0.28274495E+03</pdfrwt>
<totfact> 0.13243663E+04</totfact>
</mgrwt>
</event>
<event>
 4    1  0.4382184E+000  0.1844301E+03  0.7546771E-02  0.1163583E+00
         21   -1    0    0  503  502  0.00000000000E+00  0.00000000000E+00  0.10247980879E+03  0.10247980879E+03  0.00000000000E+00 0. -1.
         21   -1    0    0  501  503 -0.00000000000E+00 -0.00000000000E+00 -0.36000822973E+03  0.36000822973E+03  0.00000000000E+00 0. -1.
          6    1    1    2  501    0  0.56725249031E+02  0.29457103900E+02 -0.19336286815E+03  0.26721465833E+03  0.17300000000E+03 0. -1.
         -6    1    1    2    0  502 -0.56725249031E+02 -0.29457103900E+02 -0.64165552785E+02  0.19527338019E+03  0.17300000000E+03 0. -1.
<mgrwt>
<rscale>  2 0.18443014E+03</rscale>
<asrwt>0</asrwt>
<pdfrwt beam="1">  1       21 0.15766124E-01 0.18443014E+03</pdfrwt>
<pdfrwt beam="2">  1       21 0.55385881E-01 0.18443014E+03</pdfrwt>
<totfact> 0.11042021E+05</totfact>
</mgrwt>
</event>
<event>
 4    1  0.4382184E+000  0.1738377E+03  0.7546771E-02  0.1173904E+00
         21   -1    0    0  501  502  0.00000000000E+00  0.00000000000E+00  0.72750526500E+03  0.72750526500E+03  0.00000000000E+00 0.  1.
         21   -1    0    0  502  503 -0.00000000000E+00 -0.00000000000E+00 -0.52898846910E+02  0.52898846910E+02  0.00000000000E+00 0.  1.
          6    1    1    2  501    0 -0.14420140886E+02  0.90885148776E+01  0.15647733921E+03  0.23389035733E+03  0.17300000000E+03 0.  1.
         -6    1    1    2    0  503  0.14420140886E+02 -0.90885148776E+01  0.51812907887E+03  0.54651375457E+03  0.17300000000E+03 0.  1.
<mgrwt>
<rscale>  2 0.17383769E+03</rscale>
<asrwt>0</asrwt>
<pdfrwt beam="1">  1       21 0.11192388E+00 0.17383769E+03</pdfrwt>
<pdfrwt beam="2">  1       21 0.81382847E-02 0.17383769E+03</pdfrwt>
<totfact> 0.73584046E+04</totfact>
</mgrwt>
</event>
<event>
 4    1  0.4382184E+000  0.1961542E+03  0.7546771E-02  0.1153025E+00
         21   -1    0    0  503  502  0.00000000000E+00  0.00000000000E+00  0.16180834872E+04  0.16180834872E+04  0.00000000000E+00 0. -1.
         21   -1    0    0  501  503 -0.00000000000E+00 -0.00000000000E+00 -0.74366440679E+02  0.74366440679E+02  0.00000000000E+00 0. -1.
          6    1    1    2  501    0  0.83294661061E+02 -0.40118059211E+02  0.73917780576E+02  0.20961941113E+03  0.17300000000E+03 0. -1.
         -6    1    1    2    0  502 -0.83294661061E+02  0.40118059211E+02  0.14697992659E+04  0.14828305167E+04  0.17300000000E+03 0. -1.
<mgrwt>
<rscale>  2 0.19615417E+03</rscale>
<asrwt>0</asrwt>
<pdfrwt beam="1">  1       21 0.24893589E+00 0.19615417E+03</pdfrwt>
<pdfrwt beam="2">  1       21 0.11440992E-01 0.19615417E+03</pdfrwt>
<totfact> 0.42949044E+03</totfact>
</mgrwt>
</event>
<event>
 4    1  0.4382184E+000  0.1748430E+03  0.7546771E-02  0.1172889E+00
         21   -1    0    0  503  502  0.00000000000E+00  0.00000000000E+00  0.13263957685E+02  0.13263957685E+02  0.00000000000E+00 0. -1.
         21   -1    0    0  501  503 -0.00000000000E+00 -0.00000000000E+00 -0.23048051140E+04  0.23048051140E+04  0.00000000000E+00 0. -1.
          6    1    1    2  501    0 -0.10241047519E+02 -0.23156230312E+02 -0.11515016148E+04  0.11646999867E+04  0.17300000000E+03 0. -1.
         -6    1    1    2    0  502  0.10241047519E+02  0.23156230312E+02 -0.11400395416E+04  0.11533690851E+04  0.17300000000E+03 0. -1.
<mgrwt>
<rscale>  2 0.17484304E+03</rscale>
<asrwt>0</asrwt>
<pdfrwt beam="1">  1       21 0.20406085E-02 0.17484304E+03</pdfrwt>
<pdfrwt beam="2">  1       21 0.35458547E+00 0.17484304E+03</pdfrwt>
<totfact> 0.19986448E+04</totfact>
</mgrwt>
</event>
<event>
 4    1  0.4382184E+000  0.1839309E+03  0.7546771E-02  0.1164052E+00
         21   -1    0    0  503  502  0.00000000000E+00  0.00000000000E+00  0.33127752671E+03  0.33127752671E+03  0.00000000000E+00 0. -1.
         21   -1    0    0  501  503 -0.00000000000E+00 -0.00000000000E+00 -0.15599435602E+03  0.15599435602E+03  0.00000000000E+00 0. -1.
          6    1    1    2  501    0  0.43180249613E+02 -0.45133729826E+02 -0.55534852558E+02  0.19213200507E+03  0.17300000000E+03 0. -1.
         -6    1    1    2    0  502 -0.43180249613E+02  0.45133729826E+02  0.23081802326E+03  0.29513987766E+03  0.17300000000E+03 0. -1.
<mgrwt>
<rscale>  2 0.18393093E+03</rscale>
<asrwt>0</asrwt>
<pdfrwt beam="1">  1       21 0.50965773E-01 0.18393093E+03</pdfrwt>
<pdfrwt beam="2">  1       21 0.23999132E-01 0.18393093E+03</pdfrwt>
<totfact> 0.60177240E+04</totfact>
</mgrwt>
</event>
<event>
 4    1  0.4382184E+000  0.2039108E+03  0.7546771E-02  0.1146481E+00
         21   -1    0    0  503  502  0.00000000000E+00  0.00000000000E+00  0.30436410838E+02  0.30436410838E+02  0.00000000000E+00 0.  1.
         21   -1    0    0  501  503 -0.00000000000E+00 -0.00000000000E+00 -0.17951106929E+04  0.17951106929E+04  0.00000000000E+00 0. -1.
          6    1    1    2  501    0 -0.46953969020E+02  0.97190129318E+02 -0.13285525645E+04  0.13441099334E+04  0.17300000000E+03 0. -1.
         -6    1    1    2    0  502  0.46953969020E+02 -0.97190129318E+02 -0.43612171753E+03  0.48143717030E+03  0.17300000000E+03 0.  1.
<mgrwt>
<rscale>  2 0.20391076E+03</rscale>
<asrwt>0</asrwt>
<pdfrwt beam="1">  1       21 0.46825226E-02 0.20391076E+03</pdfrwt>
<pdfrwt beam="2">  1       21 0.27617100E+00 0.20391076E+03</pdfrwt>
<totfact> 0.13922643E+04</totfact>
</mgrwt>
</event>
<event>
 4    1  0.4382184E+000  0.2125231E+03  0.7546771E-02  0.1139583E+00
         21   -1    0    0  503  502  0.00000000000E+00  0.00000000000E+00  0.25583581284E+03  0.25583581284E+03  0.00000000000E+00 0.  1.
         21   -1    0    0  501  503 -0.00000000000E+00 -0.00000000000E+00 -0.19641750617E+03  0.19641750617E+03  0.00000000000E+00 0. -1.
          6    1    1    2  501    0  0.58032849584E+02  0.10894620227E+03 -0.42220353081E+02  0.21667635966E+03  0.17300000000E+03 0. -1.
         -6    1    1    2    0  502 -0.58032849584E+02 -0.10894620227E+03  0.10163865975E+03  0.23557695935E+03  0.17300000000E+03 0.  1.
<mgrwt>
<rscale>  2 0.21252314E+03</rscale>
<asrwt>0</asrwt>
<pdfrwt beam="1">  1       21 0.39359356E-01 0.21252314E+03</pdfrwt>
<pdfrwt beam="2">  1       21 0.30218078E-01 0.21252314E+03</pdfrwt>
<totfact> 0.64803037E+04</totfact>
</mgrwt>
</event>
<event>
 4    1  0.4382184E+000  0.2184428E+03  0.7546771E-02  0.1135049E+00
         21   -1    0    0  501  502  0.00000000000E+00  0.00000000000E+00  0.31676586553E+03  0.31676586553E+03  0.00000000000E+00 0. -1.
         21   -1    0    0  502  503 -0.00000000000E+00 -0.00000000000E+00 -0.21287485907E+03  0.21287485907E+03  0.00000000000E+00 0. -1.
          6    1    1    2  501    0 -0.38011503688E+02 -0.12784129265E+03  0.19513454509E+03  0.29290742771E+03  0.17300000000E+03 0. -1.
         -6    1    1    2    0  503  0.38011503688E+02  0.12784129265E+03 -0.91243538625E+02  0.23673329690E+03  0.17300000000E+03 0. -1.
<mgrwt>
<rscale>  2 0.21844283E+03</rscale>
<asrwt>0</asrwt>
<pdfrwt beam="1">  1       21 0.48733210E-01 0.21844283E+03</pdfrwt>
<pdfrwt beam="2">  1       21 0.32749978E-01 0.21844283E+03</pdfrwt>
<totfact> 0.35594268E+04</totfact>
</mgrwt>
</event>
<event>
 4    1  0.4382184E+000  0.2000447E+03  0.7546771E-02  0.1149701E+00
         21   -1    0    0  501  502  0.00000000000E+00  0.00000000000E+00  0.98027771542E+02  0.98027771542E+02  0.00000000000E+00 0. -1.
         21   -1    0    0  502  503 -0.00000000000E+00 -0.00000000000E+00 -0.50496248396E+03  0.50496248396E+03  0.00000000000E+00 0.  1.
          6    1    1    2  501    0 -0.61197682227E+02  0.79647409789E+02 -0.71508919194E+02  0.21244150188E+03  0.17300000000E+03 0. -1.
         -6    1    1    2    0  503  0.61197682227E+02 -0.79647409789E+02 -0.33542579322E+03  0.39054875362E+03  0.17300000000E+03 0.  1.
<mgrwt>
<rscale>  2 0.20004466E+03</rscale>
<asrwt>0</asrwt>
<pdfrwt beam="1">  1       21 0.15081196E-01 0.20004466E+03</pdfrwt>
<pdfrwt beam="2">  1       21 0.77686536E-01 0.20004466E+03</pdfrwt>
<totfact> 0.56874092E+04</totfact>
</mgrwt>
</event>
<event>
 4    1  0.4382184E+000  0.1862284E+03  0.7546771E-02  0.1161908E+00
         21   -1    0    0  501  502  0.00000000000E+00  0.00000000000E+00  0.67734890283E+02  0.67734890283E+02  0.00000000000E+00 0.  1.
         21   -1    0    0  502  503 -0.00000000000E+00 -0.00000000000E+00 -0.64611228040E+03  0.64611228040E+03  0.00000000000E+00 0. -1.
          6    1    1    2  501    0  0.56467358804E+02  0.39540366108E+02 -0.45179517511E+03  0.48867154963E+03  0.17300000000E+03 0. -1.
         -6    1    1    2    0  503 -0.56467358804E+02 -0.39540366108E+02 -0.12658221501E+03  0.22517562106E+03  0.17300000000E+03 0.  1.
<mgrwt>
<rscale>  2 0.18622836E+03</rscale>
<asrwt>0</asrwt>
<pdfrwt beam="1">  1       21 0.10420753E-01 0.18622836E+03</pdfrwt>
<pdfrwt beam="2">  1       21 0.99401887E-01 0.18622836E+03</pdfrwt>
<totfact> 0.63007440E+04</totfact>
</mgrwt>
</event>
<event>
 4    1  0.4382184E+000  0.1907790E+03  0.7546771E-02  0.1157761E+00
         21   -1    0    0  503  502  0.00000000000E+00  0.00000000000E+00  0.24923780578E+04  0.24923780578E+04  0.00000000000E+00 0. -1.
         21   -1    0    0  501  503 -0.00000000000E+00 -0.00000000000E+00 -0.20232010359E+02  0.20232010359E+02  0.00000000000E+00 0. -1.
          6    1    1    2  501    0  0.42723981618E+02  0.68134364316E+02  0.57342196527E+03  0.60432555834E+03  0.17300000000E+03 0. -1.
         -6    1    1    2    0  502 -0.42723981618E+02 -0.68134364316E+02  0.18987240822E+04  0.19082845098E+04  0.17300000000E+03 0. -1.
<mgrwt>
<rscale>  2 0.19077901E+03</rscale>
<asrwt>0</asrwt>
<pdfrwt beam="1">  1       21 0.38344253E+00 0.19077901E+03</pdfrwt>
<pdfrwt beam="2">  1       21 0.31126190E-02 0.19077901E+03</pdfrwt>
<totfact> 0.65751876E+03</totfact>
</mgrwt>
</event>
<event>
 4    1  0.4382184E+000  0.2265146E+03  0.7546771E-02  0.1129117E+00
         21   -1    0    0  503  502  0.00000000000E+00  0.00000000000E+00  0.56384611948E+03  0.56384611948E+03  0.00000000000E+00 0.  1.
         21   -1    0    0  501  503 -0.00000000000E+00 -0.00000000000E+00 -0.10118191946E+03  0.10118191946E+03  0.00000000000E+00 0. -1.
          6    1    1    2  501    0  0.37302594415E+02  0.14138029576E+03  0.12584098292E+03  0.25912318414E+03  0.17300000000E+03 0. -1.
         -6    1    1    2    0  502 -0.37302594415E+02 -0.14138029576E+03  0.33682321710E+03  0.40590485481E+03  0.17300000000E+03 0.  1.
<mgrwt>
<rscale>  2 0.22651462E+03</rscale>
<asrwt>0</asrwt>
<pdfrwt beam="1">  1       21 0.86745555E-01 0.22651462E+03</pdfrwt>
<pdfrwt beam="2">  1       21 0.15566450E-01 0.22651462E+03</pdfrwt>
<totfact> 0.41222766E+04</totfact>
</mgrwt>
</event>
<event>
 4    1  0.4382184E+000  0.2563812E+03  0.7546771E-02  0.1109337E+00
         21   -1    0    0  501  502  0.00000000000E+00  0.00000000000E+00  0.10167384534E+03  0.10167384534E+03  0.00000000000E+00 0.  1.
         21   -1    0    0  502  503 -0.00000000000E+00 -0.00000000000E+00 -0.10487509901E+04  0.10487509901E+04  0.00000000000E+00 0. -1.
          6    1    1    2  501    0  0.11413781862E+03  0.15091339674E+03 -0.11729657754E+03  0.28193932336E+03  0.17300000000E+03 0.  1.
         -6    1    1    2    0  503 -0.11413781862E+03 -0.15091339674E+03 -0.82978056727E+03  0.86848551212E+03  0.17300000000E+03 0. -1.
<mgrwt>
<rscale>  2 0.25638115E+03</rscale>
<asrwt>0</asrwt>
<pdfrwt beam="1">  1       21 0.15642130E-01 0.25638115E+03</pdfrwt>
<pdfrwt beam="2">  1       21 0.16134630E+00 0.25638115E+03</pdfrwt>
<totfact> 0.85495947E+03</totfact>
</mgrwt>
</event>
<event>
 4    1  0.4382184E+000  0.2072749E+03  0.7546771E-02  0.1143742E+00
         21   -1    0    0  501  502  0.00000000000E+00  0.00000000000E+00  0.10320471575E+03  0.10320471575E+03  0.00000000000E+00 0. -1.
         21   -1    0    0  502  503 -0.00000000000E+00 -0.00000000000E+00 -0.51213058834E+03  0.51213058834E+03  0.00000000000E+00 0.  1.
          6    1    1    2  501    0  0.10188100746E+03 -0.51518432659E+02 -0.71365202462E+02  0.21921651559E+03  0.17300000000E+03 0. -1.
         -6    1    1    2    0  503 -0.10188100746E+03  0.51518432659E+02 -0.33756067013E+03  0.39611878850E+03  0.17300000000E+03 0.  1.
<mgrwt>
<rscale>  2 0.20727491E+03</rscale>
<asrwt>0</asrwt>
<pdfrwt beam="1">  1       21 0.15877649E-01 0.20727491E+03</pdfrwt>
<pdfrwt beam="2">  1       21 0.78789321E-01 0.20727491E+03</pdfrwt>
<totfact> 0.49973197E+04</totfact>
</mgrwt>
</event>
<event>
 4    1  0.4382184E+000  0.2011875E+03  0.7546771E-02  0.1148741E+00
         21   -1    0    0  503  502  0.00000000000E+00  0.00000000000E+00  0.70141024975E+03  0.70141024975E+03  0.00000000000E+00 0.  1.
         21   -1    0    0  501  503 -0.00000000000E+00 -0.00000000000E+00 -0.15155871930E+03  0.15155871930E+03  0.00000000000E+00 0.  1.
          6    1    1    2  501    0 -0.66643283790E+02  0.78141387002E+02 -0.60683147424E+02  0.21014006762E+03  0.17300000000E+03 0.  1.
         -6    1    1    2    0  502  0.66643283790E+02 -0.78141387002E+02  0.61053467787E+03  0.64282890143E+03  0.17300000000E+03 0.  1.
<mgrwt>
<rscale>  2 0.20118748E+03</rscale>
<asrwt>0</asrwt>
<pdfrwt beam="1">  1       21 0.10790927E+00 0.20118748E+03</pdfrwt>
<pdfrwt beam="2">  1       21 0.23316727E-01 0.20118748E+03</pdfrwt>
<totfact> 0.11761431E+04</totfact>
</mgrwt>
</event>
<event>
 4    1  0.4382184E+000  0.1740646E+03  0.7546771E-02  0.1173674E+00
         21   -1    0    0  501  502  0.00000000000E+00  0.00000000000E+00  0.23742112907E+03  0.23742112907E+03  0.00000000000E+00 0.  1.
         21   -1    0    0  502  503 -0.00000000000E+00 -0.00000000000E+00 -0.13194041910E+03  0.13194041910E+03  0.00000000000E+00 0.  1.
          6    1    1    2  501    0 -0.56015295295E+01 -0.18387523309E+02  0.19301536688E+02  0.17513145767E+03  0.17300000000E+03 0. -1.
         -6    1    1    2    0  503  0.56015295295E+01  0.18387523309E+02  0.86179173290E+02  0.19423009050E+03  0.17300000000E+03 0. -1.
<mgrwt>
<rscale>  2 0.17406458E+03</rscale>
<asrwt>0</asrwt>
<pdfrwt beam="1">  1       21 0.36526328E-01 0.17406458E+03</pdfrwt>
<pdfrwt beam="2">  1       21 0.20298526E-01 0.17406458E+03</pdfrwt>
<totfact> 0.16324765E+05</totfact>
</mgrwt>
</event>
<event>
 4    1  0.4382184E+000  0.1948880E+03  0.7546771E-02  0.1154125E+00
         21   -1    0    0  503  502  0.00000000000E+00  0.00000000000E+00  0.41374317168E+03  0.41374317168E+03  0.00000000000E+00 0. -1.
         21   -1    0    0  501  503 -0.00000000000E+00 -0.00000000000E+00 -0.23907192728E+03  0.23907192728E+03  0.00000000000E+00 0. -1.
          6    1    1    2  501    0 -0.87303059757E+02  0.20748712797E+02 -0.16885127967E+03  0.25786059794E+03  0.17300000000E+03 0. -1.
         -6    1    1    2    0  502  0.87303059757E+02 -0.20748712797E+02  0.34352252408E+03  0.39495450102E+03  0.17300000000E+03 0. -1.
<mgrwt>
<rscale>  2 0.19488800E+03</rscale>
<asrwt>0</asrwt>
<pdfrwt beam="1">  1       21 0.63652796E-01 0.19488800E+03</pdfrwt>
<pdfrwt beam="2">  1       21 0.36780296E-01 0.19488800E+03</pdfrwt>
<totfact> 0.16239164E+04</totfact>
</mgrwt>
</event>
<event>
 4    1  0.4382184E+000  0.2299836E+03  0.7546771E-02  0.1126651E+00
         21   -1    0    0  501  502  0.00000000000E+00  0.00000000000E+00  0.12018634784E+03  0.12018634784E+03  0.00000000000E+00 0. -1.
         21   -1    0    0  502  503 -0.00000000000E+00 -0.00000000000E+00 -0.49162500804E+03  0.49162500804E+03  0.00000000000E+00 0.  1.
          6    1    1    2  501    0  0.14190232191E+03 -0.53171195060E+02 -0.86673882146E+02  0.24577389364E+03  0.17300000000E+03 0. -1.
         -6    1    1    2    0  503 -0.14190232191E+03  0.53171195060E+02 -0.28476477805E+03  0.36603746224E+03  0.17300000000E+03 0.  1.
<mgrwt>
<rscale>  2 0.22998358E+03</rscale>
<asrwt>0</asrwt>
<pdfrwt beam="1">  1       21 0.18490208E-01 0.22998358E+03</pdfrwt>
<pdfrwt beam="2">  1       21 0.75634616E-01 0.22998358E+03</pdfrwt>
<totfact> 0.40916007E+04</totfact>
</mgrwt>
</event>
<event>
 4    1  0.4382184E+000  0.1826363E+03  0.7546771E-02  0.1165276E+00
         21   -1    0    0  501  502  0.00000000000E+00  0.00000000000E+00  0.15944683679E+03  0.15944683679E+03  0.00000000000E+00 0.  1.
         21   -1    0    0  502  503 -0.00000000000E+00 -0.00000000000E+00 -0.21295355311E+03  0.21295355311E+03  0.00000000000E+00 0.  1.
          6    1    1    2  501    0 -0.58533996924E+02 -0.88683813214E+00 -0.20273298001E+01  0.18264754404E+03  0.17300000000E+03 0. -1.
         -6    1    1    2    0  503  0.58533996924E+02  0.88683813214E+00 -0.51479386520E+02  0.18975284587E+03  0.17300000000E+03 0. -1.
<mgrwt>
<rscale>  2 0.18263629E+03</rscale>
<asrwt>0</asrwt>
<pdfrwt beam="1">  1       21 0.24530283E-01 0.18263629E+03</pdfrwt>
<pdfrwt beam="2">  1       21 0.32762085E-01 0.18263629E+03</pdfrwt>
<totfact> 0.14129553E+05</totfact>
</mgrwt>
</event>
<event>
 4    1  0.4382184E+000  0.1768347E+03  0.7546771E-02  0.1170902E+00
         21   -1    0    0  501  502  0.00000000000E+00  0.00000000000E+00  0.10062290616E+03  0.10062290616E+03  0.00000000000E+00 0.  1.
         21   -1    0    0  502  503 -0.00000000000E+00 -0.00000000000E+00 -0.36777464536E+03  0.36777464536E+03  0.00000000000E+00 0.  1.
          6    1    1    2  501    0  0.31839206983E+02  0.18104830158E+02 -0.41371575992E+02  0.18160982153E+03  0.17300000000E+03 0.  1.
         -6    1    1    2    0  503 -0.31839206983E+02 -0.18104830158E+02 -0.22578016321E+03  0.28678772999E+03  0.17300000000E+03 0.  1.
<mgrwt>
<rscale>  2 0.17683473E+03</rscale>
<asrwt>0</asrwt>
<pdfrwt beam="1">  1       21 0.15480447E-01 0.17683473E+03</pdfrwt>
<pdfrwt beam="2">  1       21 0.56580715E-01 0.17683473E+03</pdfrwt>
<totfact> 0.10943022E+05</totfact>
</mgrwt>
</event>
<event>
 4    1  0.4382184E+000  0.1988469E+03  0.7546771E-02  0.1150716E+00
         21   -1    0    0  501  502  0.00000000000E+00  0.00000000000E+00  0.91784534665E+03  0.91784534665E+03  0.00000000000E+00 0. -1.
         21   -1    0    0  502  503 -0.00000000000E+00 -0.00000000000E+00 -0.43409943077E+02  0.43409943077E+02  0.00000000000E+00 0. -1.
          6    1    1    2  501    0 -0.91044842410E+02 -0.36358083643E+02  0.47916826847E+03  0.51878926655E+03  0.17300000000E+03 0. -1.
         -6    1    1    2    0  503  0.91044842410E+02  0.36358083643E+02  0.39526713510E+03  0.44246602318E+03  0.17300000000E+03 0. -1.
<mgrwt>
<rscale>  2 0.19884686E+03</rscale>
<asrwt>0</asrwt>
<pdfrwt beam="1">  1       21 0.14120696E+00 0.19884686E+03</pdfrwt>
<pdfrwt beam="2">  1       21 0.66784535E-02 0.19884686E+03</pdfrwt>
<totfact> 0.57218826E+04</totfact>
</mgrwt>
</event>
<event>
 4    1  0.4382184E+000  0.2355041E+03  0.7546771E-02  0.1122825E+00
         21   -1    0    0  501  502  0.00000000000E+00  0.00000000000E+00  0.10586561843E+03  0.10586561843E+03  0.00000000000E+00 0.  1.
         21   -1    0    0  502  503 -0.00000000000E+00 -0.00000000000E+00 -0.55872534796E+03  0.55872534796E+03  0.00000000000E+00 0.  1.
          6    1    1    2  501    0  0.60105700738E+02 -0.14805564220E+03 -0.14345972781E+03  0.27575870241E+03  0.17300000000E+03 0.  1.
         -6    1    1    2    0  503 -0.60105700738E+02  0.14805564220E+03 -0.30940000172E+03  0.38883226399E+03  0.17300000000E+03 0.  1.
<mgrwt>
<rscale>  2 0.23550407E+03</rscale>
<asrwt>0</asrwt>
<pdfrwt beam="1">  1       21 0.16287019E-01 0.23550407E+03</pdfrwt>
<pdfrwt beam="2">  1       21 0.85957744E-01 0.23550407E+03</pdfrwt>
<totfact> 0.38579310E+04</totfact>
</mgrwt>
</event>
<event>
 4    1  0.4382184E+000  0.1923949E+03  0.7546771E-02  0.1156319E+00
         21   -1    0    0  501  502  0.00000000000E+00  0.00000000000E+00  0.27872191038E+03  0.27872191038E+03  0.00000000000E+00 0. -1.
         21   -1    0    0  502  503 -0.00000000000E+00 -0.00000000000E+00 -0.29760241835E+03  0.29760241835E+03  0.00000000000E+00 0. -1.
          6    1    1    2  501    0  0.80231506118E+02 -0.25489558406E+02  0.20499353904E+03  0.28113726756E+03  0.17300000000E+03 0. -1.
         -6    1    1    2    0  503 -0.80231506118E+02  0.25489558406E+02 -0.22387404701E+03  0.29518706118E+03  0.17300000000E+03 0. -1.
<mgrwt>
<rscale>  2 0.19239494E+03</rscale>
<asrwt>0</asrwt>
<pdfrwt beam="1">  1       21 0.42880294E-01 0.19239494E+03</pdfrwt>
<pdfrwt beam="2">  1       21 0.45784987E-01 0.19239494E+03</pdfrwt>
<totfact> 0.23924610E+04</totfact>
</mgrwt>
</event>
<event>
 4    1  0.4382184E+000  0.2164941E+03  0.7546771E-02  0.1136524E+00
         21   -1    0    0  503  502  0.00000000000E+00  0.00000000000E+00  0.20326415245E+03  0.20326415245E+03  0.00000000000E+00 0. -1.
         21   -1    0    0  501  503 -0.00000000000E+00 -0.00000000000E+00 -0.29470424205E+03  0.29470424205E+03  0.00000000000E+00 0.  1.
          6    1    1    2  501    0 -0.10471923019E+03 -0.77295465334E+02 -0.16185744182E+03  0.27031007678E+03  0.17300000000E+03 0. -1.
         -6    1    1    2    0  502  0.10471923019E+03  0.77295465334E+02  0.70417352226E+02  0.22765831772E+03  0.17300000000E+03 0. -1.
<mgrwt>
<rscale>  2 0.21649412E+03</rscale>
<asrwt>0</asrwt>
<pdfrwt beam="1">  1       21 0.31271408E-01 0.21649412E+03</pdfrwt>
<pdfrwt beam="2">  1       21 0.45339114E-01 0.21649412E+03</pdfrwt>
<totfact> 0.45319054E+04</totfact>
</mgrwt>
</event>
<event>
 4    1  0.4382184E+000  0.1855546E+03  0.7546771E-02  0.1162533E+00
         21   -1    0    0  501  502  0.00000000000E+00  0.00000000000E+00  0.49813775303E+02  0.49813775303E+02  0.00000000000E+00 0. -1.
         21   -1    0    0  502  503 -0.00000000000E+00 -0.00000000000E+00 -0.73646805532E+03  0.73646805532E+03  0.00000000000E+00 0. -1.
          6    1    1    2  501    0  0.26721139953E+02  0.61542668650E+02 -0.24584151453E+03  0.30800741817E+03  0.17300000000E+03 0. -1.
         -6    1    1    2    0  503 -0.26721139953E+02 -0.61542668650E+02 -0.44081276549E+03  0.47827441245E+03  0.17300000000E+03 0. -1.
<mgrwt>
<rscale>  2 0.18555463E+03</rscale>
<asrwt>0</asrwt>
<pdfrwt beam="1">  1       21 0.76636583E-02 0.18555463E+03</pdfrwt>
<pdfrwt beam="2">  1       21 0.11330277E+00 0.18555463E+03</pdfrwt>
<totfact> 0.78854725E+04</totfact>
</mgrwt>
</event>
<event>
 4    1  0.4382184E+000  0.2168778E+03  0.7546771E-02  0.1136232E+00
         21   -1    0    0  501  502  0.00000000000E+00  0.00000000000E+00  0.26709893090E+03  0.26709893090E+03  0.00000000000E+00 0. -1.
         21   -1    0    0  502  503 -0.00000000000E+00 -0.00000000000E+00 -0.17761308740E+03  0.17761308740E+03  0.00000000000E+00 0.  1.
          6    1    1    2  501    0  0.10434378503E+03  0.78862833964E+02  0.24216001143E+02  0.21822554105E+03  0.17300000000E+03 0.  1.
         -6    1    1    2    0  503 -0.10434378503E+03 -0.78862833964E+02  0.65269842356E+02  0.22648647725E+03  0.17300000000E+03 0.  1.
<mgrwt>
<rscale>  2 0.21687778E+03</rscale>
<asrwt>0</asrwt>
<pdfrwt beam="1">  1       21 0.41092143E-01 0.21687778E+03</pdfrwt>
<pdfrwt beam="2">  1       21 0.27325090E-01 0.21687778E+03</pdfrwt>
<totfact> 0.72085826E+04</totfact>
</mgrwt>
</event>
<event>
 4    1  0.4382184E+000  0.2035960E+03  0.7546771E-02  0.1146740E+00
         21   -1    0    0  503  502  0.00000000000E+00  0.00000000000E+00  0.70846740379E+03  0.70846740379E+03  0.00000000000E+00 0. -1.
         21   -1    0    0  501  503 -0.00000000000E+00 -0.00000000000E+00 -0.72665435802E+02  0.72665435802E+02  0.00000000000E+00 0. -1.
          6    1    1    2  501    0  0.52295082308E+02  0.93741907375E+02  0.14550920592E+03  0.25024837630E+03  0.17300000000E+03 0. -1.
         -6    1    1    2    0  502 -0.52295082308E+02 -0.93741907375E+02  0.49029276207E+03  0.53088446329E+03  0.17300000000E+03 0. -1.
<mgrwt>
<rscale>  2 0.20359597E+03</rscale>
<asrwt>0</asrwt>
<pdfrwt beam="1">  1       21 0.10899498E+00 0.20359597E+03</pdfrwt>
<pdfrwt beam="2">  1       21 0.11179298E-01 0.20359597E+03</pdfrwt>
<totfact> 0.44206689E+04</totfact>
</mgrwt>
</event>
<event>
 4    1  0.4382184E+000  0.1827344E+03  0.7546771E-02  0.1165183E+00
         21   -1    0    0  501  502  0.00000000000E+00  0.00000000000E+00  0.26709938371E+03  0.26709938371E+03  0.00000000000E+00 0. -1.
         21   -1    0    0  502  503 -0.00000000000E+00 -0.00000000000E+00 -0.18525044930E+03  0.18525044930E+03  0.00000000000E+00 0. -1.
          6    1    1    2  501    0 -0.48007115445E+01 -0.58649842594E+02  0.16989342579E+03  0.24951077530E+03  0.17300000000E+03 0. -1.
         -6    1    1    2    0  503  0.48007115445E+01  0.58649842594E+02 -0.88044491376E+02  0.20283905770E+03  0.17300000000E+03 0. -1.
<mgrwt>
<rscale>  2 0.18273437E+03</rscale>
<asrwt>0</asrwt>
<pdfrwt beam="1">  1       21 0.41092213E-01 0.18273437E+03</pdfrwt>
<pdfrwt beam="2">  1       21 0.28500069E-01 0.18273437E+03</pdfrwt>
<totfact> 0.67437065E+04</totfact>
</mgrwt>
</event>
<event>
 4    1  0.4382184E+000  0.2244427E+03  0.7546771E-02  0.1130614E+00
         21   -1    0    0  501  502  0.00000000000E+00  0.00000000000E+00  0.64025537496E+02  0.64025537496E+02  0.00000000000E+00 0. -1.
         21   -1    0    0  502  503 -0.00000000000E+00 -0.00000000000E+00 -0.79770476384E+03  0.79770476384E+03  0.00000000000E+00 0. -1.
          6    1    1    2  501    0 -0.13936678954E+03  0.31975515883E+02 -0.31643575254E+03  0.38795118395E+03  0.17300000000E+03 0. -1.
         -6    1    1    2    0  503  0.13936678954E+03 -0.31975515883E+02 -0.41724347381E+03  0.47377911739E+03  0.17300000000E+03 0. -1.
<mgrwt>
<rscale>  2 0.22444272E+03</rscale>
<asrwt>0</asrwt>
<pdfrwt beam="1">  1       21 0.98500821E-02 0.22444272E+03</pdfrwt>
<pdfrwt beam="2">  1       21 0.12272382E+00 0.22444272E+03</pdfrwt>
<totfact> 0.40918108E+04</totfact>
</mgrwt>
</event>
<event>
 4    1  0.4382184E+000  0.1981166E+03  0.7546771E-02  0.1151338E+00
         21   -1    0    0  501  502  0.00000000000E+00  0.00000000000E+00  0.96234733877E+02  0.96234733877E+02  0.00000000000E+00 0. -1.
         21   -1    0    0  502  503 -0.00000000000E+00 -0.00000000000E+00 -0.43174951946E+03  0.43174951946E+03  0.00000000000E+00 0. -1.
          6    1    1    2  501    0  0.24272128821E+02  0.93445404603E+02 -0.10565762738E+03  0.22452998486E+03  0.17300000000E+03 0. -1.
         -6    1    1    2    0  503 -0.24272128821E+02 -0.93445404603E+02 -0.22985715820E+03  0.30345426847E+03  0.17300000000E+03 0. -1.
<mgrwt>
<rscale>  2 0.19811658E+03</rscale>
<asrwt>0</asrwt>
<pdfrwt beam="1">  1       21 0.14805344E-01 0.19811658E+03</pdfrwt>
<pdfrwt beam="2">  1       21 0.66423004E-01 0.19811658E+03</pdfrwt>
<totfact> 0.83319914E+04</totfact>
</mgrwt>
</event>
<event>
 4    1  0.4382184E+000  0.1871092E+03  0.7546771E-02  0.1161095E+00
         21   -1    0    0  501  502  0.00000000000E+00  0.00000000000E+00  0.65909288889E+02  0.65909288889E+02  0.00000000000E+00 0.  1.
         21   -1    0    0  502  503 -0.00000000000E+00 -0.00000000000E+00 -0.53621117037E+03  0.53621117037E+03  0.00000000000E+00 0. -1.
          6    1    1    2  501    0  0.70992825300E+02  0.63933267346E+01 -0.20599578918E+03  0.27828783845E+03  0.17300000000E+03 0. -1.
         -6    1    1    2    0  503 -0.70992825300E+02 -0.63933267346E+01 -0.26430609230E+03  0.32383262081E+03  0.17300000000E+03 0. -1.
<mgrwt>
<rscale>  2 0.18710921E+03</rscale>
<asrwt>0</asrwt>
<pdfrwt beam="1">  1       21 0.10139890E-01 0.18710921E+03</pdfrwt>
<pdfrwt beam="2">  1       21 0.82494029E-01 0.18710921E+03</pdfrwt>
<totfact> 0.10179697E+05</totfact>
</mgrwt>
</event>
<event>
 4    1  0.4382184E+000  0.3237446E+03  0.7546771E-02  0.1073939E+00
         21   -1    0    0  503  502  0.00000000000E+00  0.00000000000E+00  0.11159621926E+03  0.11159621926E+03  0.00000000000E+00 0. -1.
         21   -1    0    0  501  503 -0.00000000000E+00 -0.00000000000E+00 -0.16370142758E+04  0.16370142758E+04  0.00000000000E+00 0.  1.
          6    1    1    2  501    0  0.24642033666E+03 -0.11898980768E+03 -0.13335412563E+04  0.13722765169E+04  0.17300000000E+03 0.  1.
         -6    1    1    2    0  502 -0.24642033666E+03  0.11898980768E+03 -0.19187680028E+03  0.37633397819E+03  0.17300000000E+03 0. -1.
<mgrwt>
<rscale>  2 0.32374459E+03</rscale>
<asrwt>0</asrwt>
<pdfrwt beam="1">  1       21 0.17168648E-01 0.32374459E+03</pdfrwt>
<pdfrwt beam="2">  1       21 0.25184836E+00 0.32374459E+03</pdfrwt>
<totfact> 0.17682196E+03</totfact>
</mgrwt>
</event>
<event>
 4    1  0.4382184E+000  0.2061555E+03  0.7546771E-02  0.1144647E+00
         21   -1    0    0  501  502  0.00000000000E+00  0.00000000000E+00  0.14858345468E+04  0.14858345468E+04  0.00000000000E+00 0.  1.
         21   -1    0    0  502  503 -0.00000000000E+00 -0.00000000000E+00 -0.41753437238E+02  0.41753437238E+02  0.00000000000E+00 0.  1.
          6    1    1    2  501    0  0.67545378420E+02 -0.89491420222E+02  0.11506795662E+04  0.11690010935E+04  0.17300000000E+03 0.  1.
         -6    1    1    2    0  503 -0.67545378420E+02  0.89491420222E+02  0.29340154330E+03  0.35858689052E+03  0.17300000000E+03 0.  1.
<mgrwt>
<rscale>  2 0.20615551E+03</rscale>
<asrwt>0</asrwt>
<pdfrwt beam="1">  1       21 0.22858989E+00 0.20615551E+03</pdfrwt>
<pdfrwt beam="2">  1       21 0.64236069E-02 0.20615551E+03</pdfrwt>
<totfact> 0.15467556E+04</totfact>
</mgrwt>
</event>
<event>
 4    1  0.4382184E+000  0.2135078E+03  0.7546771E-02  0.1138818E+00
         21   -1    0    0  503  502  0.00000000000E+00  0.00000000000E+00  0.31843986693E+03  0.31843986693E+03  0.00000000000E+00 0.  1.
         21   -1    0    0  501  503 -0.00000000000E+00 -0.00000000000E+00 -0.14332761450E+03  0.14332761450E+03  0.00000000000E+00 0. -1.
          6    1    1    2  501    0  0.25429838835E+02  0.12251498385E+03  0.95616653467E+02  0.23394046762E+03  0.17300000000E+03 0.  1.
         -6    1    1    2    0  502 -0.25429838835E+02 -0.12251498385E+03  0.79495598958E+02  0.22782701381E+03  0.17300000000E+03 0. -1.
<mgrwt>
<rscale>  2 0.21350784E+03</rscale>
<asrwt>0</asrwt>
<pdfrwt beam="1">  1       21 0.48990749E-01 0.21350784E+03</pdfrwt>
<pdfrwt beam="2">  1       21 0.22050402E-01 0.21350784E+03</pdfrwt>
<totfact> 0.75727698E+04</totfact>
</mgrwt>
</event>
<event>
 4    1  0.4382184E+000  0.1862531E+03  0.7546771E-02  0.1161885E+00
         21   -1    0    0  501  502  0.00000000000E+00  0.00000000000E+00  0.17724144161E+03  0.17724144161E+03  0.00000000000E+00 0. -1.
         21   -1    0    0  502  503 -0.00000000000E+00 -0.00000000000E+00 -0.18364953203E+04  0.18364953203E+04  0.00000000000E+00 0. -1.
          6    1    1    2  501    0 -0.54779746552E+02 -0.41956888952E+02  0.12207722415E+03  0.22269497035E+03  0.17300000000E+03 0. -1.
         -6    1    1    2    0  503  0.54779746552E+02  0.41956888952E+02 -0.17813311028E+04  0.17910417916E+04  0.17300000000E+03 0. -1.
<mgrwt>
<rscale>  2 0.18625306E+03</rscale>
<asrwt>0</asrwt>
<pdfrwt beam="1">  1       21 0.27267914E-01 0.18625306E+03</pdfrwt>
<pdfrwt beam="2">  1       21 0.28253775E+00 0.18625306E+03</pdfrwt>
<totfact> 0.55677874E+02</totfact>
</mgrwt>
</event>
<event>
 4    1  0.4382184E+000  0.2300767E+03  0.7546771E-02  0.1126586E+00
         21   -1    0    0  503  502  0.00000000000E+00  0.00000000000E+00  0.15419333629E+04  0.15419333629E+04  0.00000000000E+00 0.  1.
         21   -1    0    0  501  503 -0.00000000000E+00 -0.00000000000E+00 -0.35886803648E+02  0.35886803648E+02  0.00000000000E+00 0. -1.
          6    1    1    2  501    0 -0.16915445347E+02  0.15073201779E+03  0.58873234320E+03  0.63209259243E+03  0.17300000000E+03 0.  1.
         -6    1    1    2    0  502  0.16915445347E+02 -0.15073201779E+03  0.91731421610E+03  0.94572757417E+03  0.17300000000E+03 0. -1.
<mgrwt>
<rscale>  2 0.23007667E+03</rscale>
<asrwt>0</asrwt>
<pdfrwt beam="1">  1       21 0.23722047E+00 0.23007667E+03</pdfrwt>
<pdfrwt beam="2">  1       21 0.55210479E-02 0.23007667E+03</pdfrwt>
<totfact> 0.17452875E+04</totfact>
</mgrwt>
</event>
<event>
 4    1  0.4382184E+000  0.1858737E+03  0.7546771E-02  0.1162236E+00
         21   -1    0    0  501  502  0.00000000000E+00  0.00000000000E+00  0.68168514103E+03  0.68168514103E+03  0.00000000000E+00 0.  1.
         21   -1    0    0  502  503 -0.00000000000E+00 -0.00000000000E+00 -0.50899448067E+02  0.50899448067E+02  0.00000000000E+00 0.  1.
          6    1    1    2  501    0 -0.67901633106E+02 -0.30668628294E+01  0.29144106856E+03  0.34566882109E+03  0.17300000000E+03 0.  1.
         -6    1    1    2    0  503  0.67901633106E+02  0.30668628294E+01  0.33934462440E+03  0.38691576801E+03  0.17300000000E+03 0.  1.
<mgrwt>
<rscale>  2 0.18587371E+03</rscale>
<asrwt>0</asrwt>
<pdfrwt beam="1">  1       21 0.10487463E+00 0.18587371E+03</pdfrwt>
<pdfrwt beam="2">  1       21 0.78306848E-02 0.18587371E+03</pdfrwt>
<totfact> 0.91524015E+04</totfact>
</mgrwt>
</event>
<event>
 4    1  0.4382184E+000  0.2050014E+03  0.7546771E-02  0.1145587E+00
         21   -1    0    0  503  502  0.00000000000E+00  0.00000000000E+00  0.30378293473E+03  0.30378293473E+03  0.00000000000E+00 0.  1.
         21   -1    0    0  501  503 -0.00000000000E+00 -0.00000000000E+00 -0.16171567173E+03  0.16171567173E+03  0.00000000000E+00 0.  1.
          6    1    1    2  501    0  0.79707035825E+02  0.75784946497E+02 -0.17454921217E+02  0.20574315043E+03  0.17300000000E+03 0.  1.
         -6    1    1    2    0  502 -0.79707035825E+02 -0.75784946497E+02  0.15952218422E+03  0.25975545602E+03  0.17300000000E+03 0.  1.
<mgrwt>
<rscale>  2 0.20500139E+03</rscale>
<asrwt>0</asrwt>
<pdfrwt beam="1">  1       21 0.46735836E-01 0.20500139E+03</pdfrwt>
<pdfrwt beam="2">  1       21 0.24879334E-01 0.20500139E+03</pdfrwt>
<totfact> 0.66636217E+04</totfact>
</mgrwt>
</event>
<event>
 4    1  0.4382184E+000  0.1767486E+03  0.7546771E-02  0.1170987E+00
         21   -1    0    0  503  502  0.00000000000E+00  0.00000000000E+00  0.26170603037E+03  0.26170603037E+03  0.00000000000E+00 0.  1.
         21   -1    0    0  501  503 -0.00000000000E+00 -0.00000000000E+00 -0.15853455355E+03  0.15853455355E+03  0.00000000000E+00 0.  1.
          6    1    1    2  501    0  0.32253467422E+02 -0.16455767170E+02 -0.52849666435E+02  0.18448080029E+03  0.17300000000E+03 0.  1.
         -6    1    1    2    0  502 -0.32253467422E+02  0.16455767170E+02  0.15602114325E+03  0.23575978363E+03  0.17300000000E+03 0.  1.
<mgrwt>
<rscale>  2 0.17674863E+03</rscale>
<asrwt>0</asrwt>
<pdfrwt beam="1">  1       21 0.40262466E-01 0.17674863E+03</pdfrwt>
<pdfrwt beam="2">  1       21 0.24389931E-01 0.17674863E+03</pdfrwt>
<totfact> 0.94961766E+04</totfact>
</mgrwt>
</event>
<event>
 4    1  0.4382184E+000  0.2242236E+03  0.7546771E-02  0.1130773E+00
         21   -1    0    0  503  502  0.00000000000E+00  0.00000000000E+00  0.10070235270E+03  0.10070235270E+03  0.00000000000E+00 0.  1.
         21   -1    0    0  501  503 -0.00000000000E+00 -0.00000000000E+00 -0.67209223514E+03  0.67209223514E+03  0.00000000000E+00 0. -1.
          6    1    1    2  501    0  0.13426566274E+03  0.48165707325E+02 -0.48164151000E+03  0.53127652659E+03  0.17300000000E+03 0.  1.
         -6    1    1    2    0  502 -0.13426566274E+03 -0.48165707325E+02 -0.89748372444E+02  0.24151806125E+03  0.17300000000E+03 0.  1.
<mgrwt>
<rscale>  2 0.22422356E+03</rscale>
<asrwt>0</asrwt>
<pdfrwt beam="1">  1       21 0.15492670E-01 0.22422356E+03</pdfrwt>
<pdfrwt beam="2">  1       21 0.10339880E+00 0.22422356E+03</pdfrwt>
<totfact> 0.27540427E+04</totfact>
</mgrwt>
</event>
<event>
 4    1  0.4382184E+000  0.1851763E+03  0.7546771E-02  0.1162885E+00
         21   -1    0    0  501  502  0.00000000000E+00  0.00000000000E+00  0.59095358222E+03  0.59095358222E+03  0.00000000000E+00 0. -1.
         21   -1    0    0  502  503 -0.00000000000E+00 -0.00000000000E+00 -0.85327131656E+02  0.85327131656E+02  0.00000000000E+00 0. -1.
          6    1    1    2  501    0  0.40392670484E+02  0.52246436091E+02  0.44408431794E+03  0.48114565295E+03  0.17300000000E+03 0. -1.
         -6    1    1    2    0  503 -0.40392670484E+02 -0.52246436091E+02  0.61542132619E+02  0.19513506092E+03  0.17300000000E+03 0. -1.
<mgrwt>
<rscale>  2 0.18517629E+03</rscale>
<asrwt>0</asrwt>
<pdfrwt beam="1">  1       21 0.90915933E-01 0.18517629E+03</pdfrwt>
<pdfrwt beam="2">  1       21 0.13127251E-01 0.18517629E+03</pdfrwt>
<totfact> 0.51442792E+04</totfact>
</mgrwt>
</event>
<event>
 4    1  0.4382184E+000  0.1886479E+03  0.7546771E-02  0.1159687E+00
         21   -1    0    0  503  502  0.00000000000E+00  0.00000000000E+00  0.19076226295E+03  0.19076226295E+03  0.00000000000E+00 0. -1.
         21   -1    0    0  501  503 -0.00000000000E+00 -0.00000000000E+00 -0.19508706378E+03  0.19508706378E+03  0.00000000000E+00 0. -1.
          6    1    1    2  501    0  0.61596134985E+02 -0.43185102054E+02  0.38178860463E+02  0.19247249744E+03  0.17300000000E+03 0.  1.
         -6    1    1    2    0  502 -0.61596134985E+02  0.43185102054E+02 -0.42503661293E+02  0.19337682929E+03  0.17300000000E+03 0.  1.
<mgrwt>
<rscale>  2 0.18864792E+03</rscale>
<asrwt>0</asrwt>
<pdfrwt beam="1">  1       21 0.29348040E-01 0.18864792E+03</pdfrwt>
<pdfrwt beam="2">  1       21 0.30013395E-01 0.18864792E+03</pdfrwt>
<totfact> 0.11858200E+05</totfact>
</mgrwt>
</event>
<event>
 4    1  0.4382184E+000  0.2883384E+03  0.7546771E-02  0.1091220E+00
         21   -1    0    0  501  502  0.00000000000E+00  0.00000000000E+00  0.10147193064E+03  0.10147193064E+03  0.00000000000E+00 0. -1.
         21   -1    0    0  502  503 -0.00000000000E+00 -0.00000000000E+00 -0.83520447518E+03  0.83520447518E+03  0.00000000000E+00 0. -1.
          6    1    1    2  501    0  0.23042904888E+03  0.10605098718E+02 -0.30229929236E+03  0.41776054966E+03  0.17300000000E+03 0. -1.
         -6    1    1    2    0  503 -0.23042904888E+03 -0.10605098718E+02 -0.43143325219E+03  0.51891585616E+03  0.17300000000E+03 0. -1.
<mgrwt>
<rscale>  2 0.28833837E+03</rscale>
<asrwt>0</asrwt>
<pdfrwt beam="1">  1       21 0.15611067E-01 0.28833837E+03</pdfrwt>
<pdfrwt beam="2">  1       21 0.12849299E+00 0.28833837E+03</pdfrwt>
<totfact> 0.15375961E+04</totfact>
</mgrwt>
</event>
<event>
 4    1  0.4382184E+000  0.1874061E+03  0.7546771E-02  0.1160822E+00
         21   -1    0    0  501  502  0.00000000000E+00  0.00000000000E+00  0.15098843539E+03  0.15098843539E+03  0.00000000000E+00 0.  1.
         21   -1    0    0  502  503 -0.00000000000E+00 -0.00000000000E+00 -0.41758324550E+03  0.41758324550E+03  0.00000000000E+00 0. -1.
          6    1    1    2  501    0 -0.72034823380E+02 -0.17361559540E+01  0.55911331863E+02  0.19556867604E+03  0.17300000000E+03 0.  1.
         -6    1    1    2    0  503  0.72034823380E+02  0.17361559540E+01 -0.32250614198E+03  0.37300300485E+03  0.17300000000E+03 0. -1.
<mgrwt>
<rscale>  2 0.18740606E+03</rscale>
<asrwt>0</asrwt>
<pdfrwt beam="1">  1       21 0.23228990E-01 0.18740606E+03</pdfrwt>
<pdfrwt beam="2">  1       21 0.64243575E-01 0.18740606E+03</pdfrwt>
<totfact> 0.39045728E+04</totfact>
</mgrwt>
</event>
<event>
 4    1  0.4382184E+000  0.1738713E+03  0.7546771E-02  0.1173870E+00
         21   -1    0    0  501  502  0.00000000000E+00  0.00000000000E+00  0.20217849099E+03  0.20217849099E+03  0.00000000000E+00 0.  1.
         21   -1    0    0  502  503 -0.00000000000E+00 -0.00000000000E+00 -0.16168627787E+03  0.16168627787E+03  0.00000000000E+00 0.  1.
          6    1    1    2  501    0  0.63194752887E+01  0.16195351820E+02  0.70136862123E+02  0.18748441166E+03  0.17300000000E+03 0. -1.
         -6    1    1    2    0  503 -0.63194752887E+01 -0.16195351820E+02 -0.29644649003E+02  0.17638035719E+03  0.17300000000E+03 0. -1.
<mgrwt>
<rscale>  2 0.17387129E+03</rscale>
<asrwt>0</asrwt>
<pdfrwt beam="1">  1       21 0.31104383E-01 0.17387129E+03</pdfrwt>
<pdfrwt beam="2">  1       21 0.24874812E-01 0.17387129E+03</pdfrwt>
<totfact> 0.15277290E+05</totfact>
</mgrwt>
</event>
<event>
 4    1  0.4382184E+000  0.2703616E+03  0.7546771E-02  0.1101073E+00
         21   -1    0    0  503  502  0.00000000000E+00  0.00000000000E+00  0.18076859143E+03  0.18076859143E+03  0.00000000000E+00 0. -1.
         21   -1    0    0  501  503 -0.00000000000E+00 -0.00000000000E+00 -0.41380271816E+03  0.41380271816E+03  0.00000000000E+00 0.  1.
          6    1    1    2  501    0  0.46760651704E+02 -0.20243482884E+03 -0.16142750394E+03  0.31488769030E+03  0.17300000000E+03 0.  1.
         -6    1    1    2    0  502 -0.46760651704E+02  0.20243482884E+03 -0.71606622784E+02  0.27968361929E+03  0.17300000000E+03 0.  1.
<mgrwt>
<rscale>  2 0.27036164E+03</rscale>
<asrwt>0</asrwt>
<pdfrwt beam="1">  1       21 0.27810553E-01 0.27036164E+03</pdfrwt>
<pdfrwt beam="2">  1       21 0.63661956E-01 0.27036164E+03</pdfrwt>
<totfact> 0.27090396E+04</totfact>
</mgrwt>
</event>
<event>
 4    1  0.4382184E+000  0.1745603E+03  0.7546771E-02  0.1173174E+00
         21   -1    0    0  501  502  0.00000000000E+00  0.00000000000E+00  0.42103851941E+03  0.42103851941E+03  0.00000000000E+00 0. -1.
         21   -1    0    0  502  503 -0.00000000000E+00 -0.00000000000E+00 -0.16854392288E+03  0.16854392288E+03  0.00000000000E+00 0. -1.
          6    1    1    2  501    0  0.21505113428E+02  0.89337692274E+01  0.34892810064E+03  0.39015650905E+03  0.17300000000E+03 0. -1.
         -6    1    1    2    0  503 -0.21505113428E+02 -0.89337692274E+01 -0.96433504112E+02  0.19942593325E+03  0.17300000000E+03 0. -1.
<mgrwt>
<rscale>  2 0.17456025E+03</rscale>
<asrwt>0</asrwt>
<pdfrwt beam="1">  1       21 0.64775156E-01 0.17456025E+03</pdfrwt>
<pdfrwt beam="2">  1       21 0.25929835E-01 0.17456025E+03</pdfrwt>
<totfact> 0.31325410E+04</totfact>
</mgrwt>
</event>
<event>
 4    1  0.4382184E+000  0.2193134E+03  0.7546771E-02  0.1134396E+00
         21   -1    0    0  503  502  0.00000000000E+00  0.00000000000E+00  0.27303093264E+02  0.27303093264E+02  0.00000000000E+00 0.  1.
         21   -1    0    0  501  503 -0.00000000000E+00 -0.00000000000E+00 -0.19835245584E+04  0.19835245584E+04  0.00000000000E+00 0.  1.
          6    1    1    2  501    0 -0.94610384976E+02  0.96011776760E+02 -0.13143772974E+04  0.13325487106E+04  0.17300000000E+03 0.  1.
         -6    1    1    2    0  502  0.94610384976E+02 -0.96011776760E+02 -0.64184416770E+03  0.67827894103E+03  0.17300000000E+03 0.  1.
<mgrwt>
<rscale>  2 0.21931344E+03</rscale>
<asrwt>0</asrwt>
<pdfrwt beam="1">  1       21 0.42004752E-02 0.21931344E+03</pdfrwt>
<pdfrwt beam="2">  1       21 0.30515767E+00 0.21931344E+03</pdfrwt>
<totfact> 0.11198466E+04</totfact>
</mgrwt>
</event>
<event>
 4    1  0.4382184E+000  0.1905184E+03  0.7546771E-02  0.1157995E+00
         21   -1    0    0  501  502  0.00000000000E+00  0.00000000000E+00  0.20549947088E+03  0.20549947088E+03  0.00000000000E+00 0. -1.
         21   -1    0    0  502  503 -0.00000000000E+00 -0.00000000000E+00 -0.33215683750E+03  0.33215683750E+03  0.00000000000E+00 0. -1.
          6    1    1    2  501    0 -0.78564890037E+02 -0.13994008502E+02 -0.24728151749E+03  0.31216249473E+03  0.17300000000E+03 0. -1.
         -6    1    1    2    0  503  0.78564890037E+02  0.13994008502E+02  0.12062415087E+03  0.22549381365E+03  0.17300000000E+03 0. -1.
<mgrwt>
<rscale>  2 0.19051844E+03</rscale>
<asrwt>0</asrwt>
<pdfrwt beam="1">  1       21 0.31615304E-01 0.19051844E+03</pdfrwt>
<pdfrwt beam="2">  1       21 0.51101051E-01 0.19051844E+03</pdfrwt>
<totfact> 0.35057903E+04</totfact>
</mgrwt>
</event>
<event>
 4    1  0.4382184E+000  0.2205609E+03  0.7546771E-02  0.1133466E+00
         21   -1    0    0  501  502  0.00000000000E+00  0.00000000000E+00  0.33379460276E+03  0.33379460276E+03  0.00000000000E+00 0.  1.
         21   -1    0    0  502  503 -0.00000000000E+00 -0.00000000000E+00 -0.22483548029E+03  0.22483548029E+03  0.00000000000E+00 0.  1.
          6    1    1    2  501    0  0.10149209507E+03  0.91746816579E+02  0.22014753886E+03  0.31162808375E+03  0.17300000000E+03 0.  1.
         -6    1    1    2    0  503 -0.10149209507E+03 -0.91746816579E+02 -0.11118841639E+03  0.24700199929E+03  0.17300000000E+03 0.  1.
<mgrwt>
<rscale>  2 0.22056093E+03</rscale>
<asrwt>0</asrwt>
<pdfrwt beam="1">  1       21 0.51353016E-01 0.22056093E+03</pdfrwt>
<pdfrwt beam="2">  1       21 0.34590074E-01 0.22056093E+03</pdfrwt>
<totfact> 0.28595426E+04</totfact>
</mgrwt>
</event>
<event>
 4    1  0.4382184E+000  0.2345601E+03  0.7546771E-02  0.1123471E+00
         21   -1    0    0  501  502  0.00000000000E+00  0.00000000000E+00  0.14621563091E+03  0.14621563091E+03  0.00000000000E+00 0.  1.
         21   -1    0    0  502  503 -0.00000000000E+00 -0.00000000000E+00 -0.37630758765E+03  0.37630758765E+03  0.00000000000E+00 0. -1.
          6    1    1    2  501    0  0.77145103787E+02  0.13834048750E+03 -0.11293450491E+03  0.26033182656E+03  0.17300000000E+03 0. -1.
         -6    1    1    2    0  503 -0.77145103787E+02 -0.13834048750E+03 -0.11715745183E+03  0.26219139200E+03  0.17300000000E+03 0.  1.
<mgrwt>
<rscale>  2 0.23456014E+03</rscale>
<asrwt>0</asrwt>
<pdfrwt beam="1">  1       21 0.22494713E-01 0.23456014E+03</pdfrwt>
<pdfrwt beam="2">  1       21 0.57893475E-01 0.23456014E+03</pdfrwt>
<totfact> 0.50787833E+04</totfact>
</mgrwt>
</event>
<event>
 4    1  0.4382184E+000  0.1866642E+03  0.7546771E-02  0.1161505E+00
         21   -1    0    0  501  502  0.00000000000E+00  0.00000000000E+00  0.32463200242E+02  0.32463200242E+02  0.00000000000E+00 0.  1.
         21   -1    0    0  502  503 -0.00000000000E+00 -0.00000000000E+00 -0.11945303518E+04  0.11945303518E+04  0.00000000000E+00 0.  1.
          6    1    1    2  501    0  0.36889081528E+02 -0.59612969016E+02 -0.38560972444E+03  0.42841378361E+03  0.17300000000E+03 0.  1.
         -6    1    1    2    0  503 -0.36889081528E+02  0.59612969016E+02 -0.77645742715E+03  0.79857976846E+03  0.17300000000E+03 0.  1.
<mgrwt>
<rscale>  2 0.18666416E+03</rscale>
<asrwt>0</asrwt>
<pdfrwt beam="1">  1       21 0.49943379E-02 0.18666416E+03</pdfrwt>
<pdfrwt beam="2">  1       21 0.18377392E+00 0.18666416E+03</pdfrwt>
<totfact> 0.46415132E+04</totfact>
</mgrwt>
</event>
<event>
 4    1  0.4382184E+000  0.2071615E+03  0.7546771E-02  0.1143834E+00
         21   -1    0    0  501  502  0.00000000000E+00  0.00000000000E+00  0.83566534599E+03  0.83566534599E+03  0.00000000000E+00 0. -1.
         21   -1    0    0  502  503 -0.00000000000E+00 -0.00000000000E+00 -0.55264287975E+02  0.55264287975E+02  0.00000000000E+00 0. -1.
          6    1    1    2  501    0 -0.31885536050E+01 -0.11391533545E+03  0.50867412195E+03  0.54924059652E+03  0.17300000000E+03 0. -1.
         -6    1    1    2    0  503  0.31885536050E+01  0.11391533545E+03  0.27172693606E+03  0.34168903744E+03  0.17300000000E+03 0. -1.
<mgrwt>
<rscale>  2 0.20716146E+03</rscale>
<asrwt>0</asrwt>
<pdfrwt beam="1">  1       21 0.12856389E+00 0.20716146E+03</pdfrwt>
<pdfrwt beam="2">  1       21 0.85021988E-02 0.20716146E+03</pdfrwt>
<totfact> 0.47593538E+04</totfact>
</mgrwt>
</event>
<event>
 4    1  0.4382184E+000  0.2032586E+03  0.7546771E-02  0.1147018E+00
         21   -1    0    0  501  502  0.00000000000E+00  0.00000000000E+00  0.27996990862E+03  0.27996990862E+03  0.00000000000E+00 0. -1.
         21   -1    0    0  502  503 -0.00000000000E+00 -0.00000000000E+00 -0.15003079365E+03  0.15003079365E+03  0.00000000000E+00 0.  1.
          6    1    1    2  501    0 -0.80070147080E+02  0.70525524619E+02  0.92526251919E+02  0.22332752936E+03  0.17300000000E+03 0.  1.
         -6    1    1    2    0  503  0.80070147080E+02 -0.70525524619E+02  0.37412863049E+02  0.20667317290E+03  0.17300000000E+03 0.  1.
<mgrwt>
<rscale>  2 0.20325865E+03</rscale>
<asrwt>0</asrwt>
<pdfrwt beam="1">  1       21 0.43072294E-01 0.20325865E+03</pdfrwt>
<pdfrwt beam="2">  1       21 0.23081661E-01 0.20325865E+03</pdfrwt>
<totfact> 0.90974132E+04</totfact>
</mgrwt>
</event>
<event>
 4    1  0.4382184E+000  0.1874640E+03  0.7546771E-02  0.1160769E+00
         21   -1    0    0  501  502  0.00000000000E+00  0.00000000000E+00  0.35438498475E+03  0.35438498475E+03  0.00000000000E+00 0.  1.
         21   -1    0    0  502  503 -0.00000000000E+00 -0.00000000000E+00 -0.18193355091E+03  0.18193355091E+03  0.00000000000E+00 0.  1.
          6    1    1    2  501    0 -0.67817953153E+02 -0.24788897033E+02  0.26709623285E+03  0.32631757812E+03  0.17300000000E+03 0.  1.
         -6    1    1    2    0  503  0.67817953153E+02  0.24788897033E+02 -0.94644799015E+02  0.21000095754E+03  0.17300000000E+03 0.  1.
<mgrwt>
<rscale>  2 0.18746403E+03</rscale>
<asrwt>0</asrwt>
<pdfrwt beam="1">  1       21 0.54520767E-01 0.18746403E+03</pdfrwt>
<pdfrwt beam="2">  1       21 0.27989777E-01 0.18746403E+03</pdfrwt>
<totfact> 0.38841005E+04</totfact>
</mgrwt>
</event>
<event>
 4    1  0.4382184E+000  0.2476268E+03  0.7546771E-02  0.1114814E+00
         21   -1    0    0  501  502  0.00000000000E+00  0.00000000000E+00  0.31726558431E+02  0.31726558431E+02  0.00000000000E+00 0. -1.
         21   -1    0    0  502  503 -0.00000000000E+00 -0.00000000000E+00 -0.22104932693E+04  0.22104932693E+04  0.00000000000E+00 0.  1.
          6    1    1    2  501    0 -0.14125007027E+03 -0.10695065562E+03 -0.69197480027E+03  0.73494771875E+03  0.17300000000E+03 0. -1.
         -6    1    1    2    0  503  0.14125007027E+03  0.10695065562E+03 -0.14867919106E+04  0.15072721090E+04  0.17300000000E+03 0.  1.
<mgrwt>
<rscale>  2 0.24762679E+03</rscale>
<asrwt>0</asrwt>
<pdfrwt beam="1">  1       21 0.48810109E-02 0.24762679E+03</pdfrwt>
<pdfrwt beam="2">  1       21 0.34007576E+00 0.24762679E+03</pdfrwt>
<totfact> 0.52752550E+03</totfact>
</mgrwt>
</event>
<event>
 4    1  0.4382184E+000  0.2428228E+03  0.7546771E-02  0.1117927E+00
         21   -1    0    0  503  502  0.00000000000E+00  0.00000000000E+00  0.12024819679E+03  0.12024819679E+03  0.00000000000E+00 0. -1.
         21   -1    0    0  501  503 -0.00000000000E+00 -0.00000000000E+00 -0.54737921186E+03  0.54737921186E+03  0.00000000000E+00 0.  1.
          6    1    1    2  501    0  0.16710484250E+03 -0.33314753230E+02 -0.32131967973E+03  0.40275207976E+03  0.17300000000E+03 0.  1.
         -6    1    1    2    0  502 -0.16710484250E+03  0.33314753230E+02 -0.10581133534E+03  0.26487532889E+03  0.17300000000E+03 0. -1.
<mgrwt>
<rscale>  2 0.24282278E+03</rscale>
<asrwt>0</asrwt>
<pdfrwt beam="1">  1       21 0.18499723E-01 0.24282278E+03</pdfrwt>
<pdfrwt beam="2">  1       21 0.84212185E-01 0.24282278E+03</pdfrwt>
<totfact> 0.31836926E+04</totfact>
</mgrwt>
</event>
<event>
 4    1  0.4382184E+000  0.1988272E+03  0.7546771E-02  0.1150732E+00
         21   -1    0    0  501  502  0.00000000000E+00  0.00000000000E+00  0.12213096850E+04  0.12213096850E+04  0.00000000000E+00 0. -1.
         21   -1    0    0  502  503 -0.00000000000E+00 -0.00000000000E+00 -0.38725229123E+02  0.38725229123E+02  0.00000000000E+00 0. -1.
          6    1    1    2  501    0 -0.81646858955E+01 -0.97655539141E+02  0.84654116277E+03  0.86957702746E+03  0.17300000000E+03 0.  1.
         -6    1    1    2    0  503  0.81646858955E+01  0.97655539141E+02  0.33604329315E+03  0.39045788671E+03  0.17300000000E+03 0.  1.
<mgrwt>
<rscale>  2 0.19882723E+03</rscale>
<asrwt>0</asrwt>
<pdfrwt beam="1">  1       21 0.18789377E+00 0.19882723E+03</pdfrwt>
<pdfrwt beam="2">  1       21 0.59577285E-02 0.19882723E+03</pdfrwt>
<totfact> 0.32006706E+04</totfact>
</mgrwt>
</event>
<event>
 4    1  0.4382184E+000  0.2133517E+03  0.7546771E-02  0.1138939E+00
         21   -1    0    0  503  502  0.00000000000E+00  0.00000000000E+00  0.55904886927E+03  0.55904886927E+03  0.00000000000E+00 0. -1.
         21   -1    0    0  501  503 -0.00000000000E+00 -0.00000000000E+00 -0.19058159401E+03  0.19058159401E+03  0.00000000000E+00 0. -1.
          6    1    1    2  501    0  0.11289941860E+03  0.53326089480E+02 -0.99432469114E+02  0.23538429526E+03  0.17300000000E+03 0. -1.
         -6    1    1    2    0  502 -0.11289941860E+03 -0.53326089480E+02  0.46789974438E+03  0.51424616802E+03  0.17300000000E+03 0. -1.
<mgrwt>
<rscale>  2 0.21335171E+03</rscale>
<asrwt>0</asrwt>
<pdfrwt beam="1">  1       21 0.86007518E-01 0.21335171E+03</pdfrwt>
<pdfrwt beam="2">  1       21 0.29320245E-01 0.21335171E+03</pdfrwt>
<totfact> 0.12821099E+04</totfact>
</mgrwt>
</event>
<event>
 4    1  0.4382184E+000  0.3454930E+03  0.7546771E-02  0.1064480E+00
         21   -1    0    0  503  502  0.00000000000E+00  0.00000000000E+00  0.26663356335E+03  0.26663356335E+03  0.00000000000E+00 0. -1.
         21   -1    0    0  501  503 -0.00000000000E+00 -0.00000000000E+00 -0.58769387911E+03  0.58769387911E+03  0.00000000000E+00 0.  1.
          6    1    1    2  501    0 -0.26709107974E+03 -0.13453173963E+03 -0.36903233884E+03  0.50551983240E+03  0.17300000000E+03 0.  1.
         -6    1    1    2    0  502  0.26709107974E+03  0.13453173963E+03  0.47972023074E+02  0.34880761007E+03  0.17300000000E+03 0. -1.
<mgrwt>
<rscale>  2 0.34549303E+03</rscale>
<asrwt>0</asrwt>
<pdfrwt beam="1">  1       21 0.41020549E-01 0.34549303E+03</pdfrwt>
<pdfrwt beam="2">  1       21 0.90414442E-01 0.34549303E+03</pdfrwt>
<totfact> 0.54447547E+03</totfact>
</mgrwt>
</event>
<event>
 4    1  0.4382184E+000  0.2029510E+03  0.7546771E-02  0.1147273E+00
         21   -1    0    0  501  502  0.00000000000E+00  0.00000000000E+00  0.23087464700E+03  0.23087464700E+03  0.00000000000E+00 0.  1.
         21   -1    0    0  502  503 -0.00000000000E+00 -0.00000000000E+00 -0.20414808654E+03  0.20414808654E+03  0.00000000000E+00 0. -1.
          6    1    1    2  501    0  0.10412031781E+03  0.20471096795E+02  0.90603360220E+02  0.22225677778E+03  0.17300000000E+03 0.  1.
         -6    1    1    2    0  503 -0.10412031781E+03 -0.20471096795E+02 -0.63876799759E+02  0.21276595576E+03  0.17300000000E+03 0. -1.
<mgrwt>
<rscale>  2 0.20295100E+03</rscale>
<asrwt>0</asrwt>
<pdfrwt beam="1">  1       21 0.35519177E-01 0.20295100E+03</pdfrwt>
<pdfrwt beam="2">  1       21 0.31407398E-01 0.20295100E+03</pdfrwt>
<totfact> 0.74125344E+04</totfact>
</mgrwt>
</event>
<event>
 4    1  0.4382184E+000  0.1966481E+03  0.7546771E-02  0.1152598E+00
         21   -1    0    0  503  502  0.00000000000E+00  0.00000000000E+00  0.50622771768E+02  0.50622771768E+02  0.00000000000E+00 0.  1.
         21   -1    0    0  501  503 -0.00000000000E+00 -0.00000000000E+00 -0.92041367455E+03  0.92041367455E+03  0.00000000000E+00 0.  1.
          6    1    1    2  501    0  0.45173417941E+01 -0.93386714826E+02 -0.23468026662E+03  0.30617856297E+03  0.17300000000E+03 0.  1.
         -6    1    1    2    0  502 -0.45173417941E+01  0.93386714826E+02 -0.63511063616E+03  0.66485788335E+03  0.17300000000E+03 0.  1.
<mgrwt>
<rscale>  2 0.19664812E+03</rscale>
<asrwt>0</asrwt>
<pdfrwt beam="1">  1       21 0.77881190E-02 0.19664812E+03</pdfrwt>
<pdfrwt beam="2">  1       21 0.14160210E+00 0.19664812E+03</pdfrwt>
<totfact> 0.43587354E+04</totfact>
</mgrwt>
</event>
<event>
 4    1  0.4382184E+000  0.2139405E+03  0.7546771E-02  0.1138483E+00
         21   -1    0    0  503  502  0.00000000000E+00  0.00000000000E+00  0.81077206622E+03  0.81077206622E+03  0.00000000000E+00 0. -1.
         21   -1    0    0  501  503 -0.00000000000E+00 -0.00000000000E+00 -0.56695086071E+02  0.56695086071E+02  0.00000000000E+00 0. -1.
          6    1    1    2  501    0  0.67783889341E+02  0.10605124125E+03  0.34869661182E+03  0.40909638048E+03  0.17300000000E+03 0.  1.
         -6    1    1    2    0  502 -0.67783889341E+02 -0.10605124125E+03  0.40538036833E+03  0.45837077181E+03  0.17300000000E+03 0.  1.
<mgrwt>
<rscale>  2 0.21394046E+03</rscale>
<asrwt>0</asrwt>
<pdfrwt beam="1">  1       21 0.12473416E+00 0.21394046E+03</pdfrwt>
<pdfrwt beam="2">  1       21 0.87223215E-02 0.21394046E+03</pdfrwt>
<totfact> 0.48935338E+04</totfact>
</mgrwt>
</event>
<event>
 4    1  0.4382184E+000  0.1922543E+03  0.7546771E-02  0.1156444E+00
         21   -1    0    0  503  502  0.00000000000E+00  0.00000000000E+00  0.12447885742E+04  0.12447885742E+04  0.00000000000E+00 0.  1.
         21   -1    0    0  501  503 -0.00000000000E+00 -0.00000000000E+00 -0.31594734372E+02  0.31594734372E+02  0.00000000000E+00 0.  1.
          6    1    1    2  501    0 -0.23098119125E+02 -0.80617601072E+02  0.76316351337E+03  0.78700715933E+03  0.17300000000E+03 0.  1.
         -6    1    1    2    0  502  0.23098119125E+02  0.80617601072E+02  0.45003032650E+03  0.48937614927E+03  0.17300000000E+03 0.  1.
<mgrwt>
<rscale>  2 0.19225431E+03</rscale>
<asrwt>0</asrwt>
<pdfrwt beam="1">  1       21 0.19150590E+00 0.19225431E+03</pdfrwt>
<pdfrwt beam="2">  1       21 0.48607293E-02 0.19225431E+03</pdfrwt>
<totfact> 0.43031646E+04</totfact>
</mgrwt>
</event>
<event>
 4    1  0.4382184E+000  0.1918349E+03  0.7546771E-02  0.1156817E+00
         21   -1    0    0  503  502  0.00000000000E+00  0.00000000000E+00  0.35418902943E+03  0.35418902943E+03  0.00000000000E+00 0. -1.
         21   -1    0    0  501  503 -0.00000000000E+00 -0.00000000000E+00 -0.29960764312E+03  0.29960764312E+03  0.00000000000E+00 0.  1.
          6    1    1    2  501    0 -0.59669583742E+02  0.57542823880E+02 -0.23691302195E+03  0.30484162408E+03  0.17300000000E+03 0.  1.
         -6    1    1    2    0  502  0.59669583742E+02 -0.57542823880E+02  0.29149440826E+03  0.34895504847E+03  0.17300000000E+03 0. -1.
<mgrwt>
<rscale>  2 0.19183492E+03</rscale>
<asrwt>0</asrwt>
<pdfrwt beam="1">  1       21 0.54490620E-01 0.19183492E+03</pdfrwt>
<pdfrwt beam="2">  1       21 0.46093484E-01 0.19183492E+03</pdfrwt>
<totfact> 0.14356092E+04</totfact>
</mgrwt>
</event>
<event>
 4    1  0.4382184E+000  0.2897081E+03  0.7546771E-02  0.1090502E+00
         21   -1    0    0  501  502  0.00000000000E+00  0.00000000000E+00  0.11189989991E+04  0.11189989991E+04  0.00000000000E+00 0.  1.
         21   -1    0    0  502  503 -0.00000000000E+00 -0.00000000000E+00 -0.10287591009E+03  0.10287591009E+03  0.00000000000E+00 0. -1.
          6    1    1    2  501    0  0.17358835317E+03 -0.15449545299E+03  0.82605179167E+03  0.87538124487E+03  0.17300000000E+03 0.  1.
         -6    1    1    2    0  503 -0.17358835317E+03  0.15449545299E+03  0.19007129737E+03  0.34649366435E+03  0.17300000000E+03 0. -1.
<mgrwt>
<rscale>  2 0.28970806E+03</rscale>
<asrwt>0</asrwt>
<pdfrwt beam="1">  1       21 0.17215368E+00 0.28970806E+03</pdfrwt>
<pdfrwt beam="2">  1       21 0.15827064E-01 0.28970806E+03</pdfrwt>
<totfact> 0.68537108E+03</totfact>
</mgrwt>
</event>
<event>
 4    1  0.4382184E+000  0.3133141E+03  0.7546771E-02  0.1078768E+00
         21   -1    0    0  501  502  0.00000000000E+00  0.00000000000E+00  0.18407208684E+03  0.18407208684E+03  0.00000000000E+00 0.  1.
         21   -1    0    0  502  503 -0.00000000000E+00 -0.00000000000E+00 -0.53546500502E+03  0.53546500502E+03  0.00000000000E+00 0.  1.
          6    1    1    2  501    0 -0.17055756595E+02  0.26066424978E+03 -0.15282313344E+03  0.34859813548E+03  0.17300000000E+03 0.  1.
         -6    1    1    2    0  503  0.17055756595E+02 -0.26066424978E+03 -0.19856978474E+03  0.37093895638E+03  0.17300000000E+03 0.  1.
<mgrwt>
<rscale>  2 0.31331414E+03</rscale>
<asrwt>0</asrwt>
<pdfrwt beam="1">  1       21 0.28318782E-01 0.31331414E+03</pdfrwt>
<pdfrwt beam="2">  1       21 0.82379232E-01 0.31331414E+03</pdfrwt>
<totfact> 0.14408726E+04</totfact>
</mgrwt>
</event>
<event>
 4    1  0.4382184E+000  0.1747194E+03  0.7546771E-02  0.1173014E+00
         21   -1    0    0  501  502  0.00000000000E+00  0.00000000000E+00  0.47821941990E+02  0.47821941990E+02  0.00000000000E+00 0.  1.
         21   -1    0    0  502  503 -0.00000000000E+00 -0.00000000000E+00 -0.68967379378E+03  0.68967379378E+03  0.00000000000E+00 0.  1.
          6    1    1    2  501    0  0.32643563330E+01 -0.24232152709E+02 -0.22032728690E+03  0.28119560203E+03  0.17300000000E+03 0.  1.
         -6    1    1    2    0  503 -0.32643563330E+01  0.24232152709E+02 -0.42152456489E+03  0.45630013374E+03  0.17300000000E+03 0.  1.
<mgrwt>
<rscale>  2 0.17471936E+03</rscale>
<asrwt>0</asrwt>
<pdfrwt beam="1">  1       21 0.73572216E-02 0.17471936E+03</pdfrwt>
<pdfrwt beam="2">  1       21 0.10610366E+00 0.17471936E+03</pdfrwt>
<totfact> 0.99635932E+04</totfact>
</mgrwt>
</event>
<event>
 4    1  0.4382184E+000  0.1879795E+03  0.7546771E-02  0.1160296E+00
         21   -1    0    0  501  502  0.00000000000E+00  0.00000000000E+00  0.50918210420E+02  0.50918210420E+02  0.00000000000E+00 0. -1.
         21   -1    0    0  502  503 -0.00000000000E+00 -0.00000000000E+00 -0.69613204891E+03  0.69613204891E+03  0.00000000000E+00 0. -1.
          6    1    1    2  501    0 -0.13318320633E+02  0.72318277425E+02 -0.34336652890E+03  0.39145483019E+03  0.17300000000E+03 0. -1.
         -6    1    1    2    0  503  0.13318320633E+02 -0.72318277425E+02 -0.30184730959E+03  0.35559542914E+03  0.17300000000E+03 0. -1.
<mgrwt>
<rscale>  2 0.18797955E+03</rscale>
<asrwt>0</asrwt>
<pdfrwt beam="1">  1       21 0.78335711E-02 0.18797955E+03</pdfrwt>
<pdfrwt beam="2">  1       21 0.10709724E+00 0.18797955E+03</pdfrwt>
<totfact> 0.86892958E+04</totfact>
</mgrwt>
</event>
<event>
 4    1  0.4382184E+000  0.1860138E+03  0.7546771E-02  0.1162107E+00
         21   -1    0    0  501  502  0.00000000000E+00  0.00000000000E+00  0.31768623442E+03  0.31768623442E+03  0.00000000000E+00 0. -1.
         21   -1    0    0  502  503 -0.00000000000E+00 -0.00000000000E+00 -0.50075705067E+03  0.50075705067E+03  0.00000000000E+00 0. -1.
          6    1    1    2  501    0  0.41729918003E+02 -0.54136506703E+02  0.27045741933E+03  0.32825045786E+03  0.17300000000E+03 0. -1.
         -6    1    1    2    0  503 -0.41729918003E+02  0.54136506703E+02 -0.45352823557E+03  0.49019282724E+03  0.17300000000E+03 0. -1.
<mgrwt>
<rscale>  2 0.18601384E+03</rscale>
<asrwt>0</asrwt>
<pdfrwt beam="1">  1       21 0.48874805E-01 0.18601384E+03</pdfrwt>
<pdfrwt beam="2">  1       21 0.77039546E-01 0.18601384E+03</pdfrwt>
<totfact> 0.60122752E+03</totfact>
</mgrwt>
</event>
<event>
 4    1  0.4382184E+000  0.2199377E+03  0.7546771E-02  0.1133930E+00
         21   -1    0    0  503  502  0.00000000000E+00  0.00000000000E+00  0.96248909098E+02  0.96248909098E+02  0.00000000000E+00 0. -1.
         21   -1    0    0  501  503 -0.00000000000E+00 -0.00000000000E+00 -0.65309555996E+03  0.65309555996E+03  0.00000000000E+00 0.  1.
          6    1    1    2  501    0  0.23957060477E+02 -0.13367733694E+03 -0.45829257615E+03  0.50833518127E+03  0.17300000000E+03 0.  1.
         -6    1    1    2    0  502 -0.23957060477E+02  0.13367733694E+03 -0.98554074710E+02  0.24100928779E+03  0.17300000000E+03 0. -1.
<mgrwt>
<rscale>  2 0.21993765E+03</rscale>
<asrwt>0</asrwt>
<pdfrwt beam="1">  1       21 0.14807525E-01 0.21993765E+03</pdfrwt>
<pdfrwt beam="2">  1       21 0.10047624E+00 0.21993765E+03</pdfrwt>
<totfact> 0.32116084E+04</totfact>
</mgrwt>
</event>
<event>
 4    1  0.4382184E+000  0.1833001E+03  0.7546771E-02  0.1164647E+00
         21   -1    0    0  501  502  0.00000000000E+00  0.00000000000E+00  0.46953059788E+03  0.46953059788E+03  0.00000000000E+00 0. -1.
         21   -1    0    0  502  503 -0.00000000000E+00 -0.00000000000E+00 -0.19678170153E+03  0.19678170153E+03  0.00000000000E+00 0.  1.
          6    1    1    2  501    0  0.46444782045E+02  0.38894753745E+02  0.40213947337E+03  0.44194465229E+03  0.17300000000E+03 0. -1.
         -6    1    1    2    0  503 -0.46444782045E+02 -0.38894753745E+02 -0.12939057702E+03  0.22436764711E+03  0.17300000000E+03 0.  1.
<mgrwt>
<rscale>  2 0.18330008E+03</rscale>
<asrwt>0</asrwt>
<pdfrwt beam="1">  1       21 0.72235476E-01 0.18330008E+03</pdfrwt>
<pdfrwt beam="2">  1       21 0.30274108E-01 0.18330008E+03</pdfrwt>
<totfact> 0.18199079E+04</totfact>
</mgrwt>
</event>
<event>
 4    1  0.4382184E+000  0.1994074E+03  0.7546771E-02  0.1150240E+00
         21   -1    0    0  501  502  0.00000000000E+00  0.00000000000E+00  0.47537353395E+02  0.47537353395E+02  0.00000000000E+00 0.  1.
         21   -1    0    0  502  503 -0.00000000000E+00 -0.00000000000E+00 -0.84014658533E+03  0.84014658533E+03  0.00000000000E+00 0.  1.
          6    1    1    2  501    0 -0.29420866943E+02 -0.94703379499E+02 -0.42568697352E+03  0.47007735207E+03  0.17300000000E+03 0.  1.
         -6    1    1    2    0  503  0.29420866943E+02  0.94703379499E+02 -0.36692225841E+03  0.41760658665E+03  0.17300000000E+03 0.  1.
<mgrwt>
<rscale>  2 0.19940742E+03</rscale>
<asrwt>0</asrwt>
<pdfrwt beam="1">  1       21 0.73134383E-02 0.19940742E+03</pdfrwt>
<pdfrwt beam="2">  1       21 0.12925333E+00 0.19940742E+03</pdfrwt>
<totfact> 0.61286684E+04</totfact>
</mgrwt>
</event>
<event>
 4    1  0.4382184E+000  0.2016221E+03  0.7546771E-02  0.1148378E+00
         21   -1    0    0  503  502  0.00000000000E+00  0.00000000000E+00  0.87389772463E+02  0.87389772463E+02  0.00000000000E+00 0. -1.
         21   -1    0    0  501  503 -0.00000000000E+00 -0.00000000000E+00 -0.51358159711E+03  0.51358159711E+03  0.00000000000E+00 0. -1.
          6    1    1    2  501    0 -0.10088298509E+03 -0.23347100278E+02 -0.30534776924E+03  0.36590808129E+03  0.17300000000E+03 0. -1.
         -6    1    1    2    0  502  0.10088298509E+03  0.23347100278E+02 -0.12084405541E+03  0.23506328829E+03  0.17300000000E+03 0. -1.
<mgrwt>
<rscale>  2 0.20162208E+03</rscale>
<asrwt>0</asrwt>
<pdfrwt beam="1">  1       21 0.13444581E-01 0.20162208E+03</pdfrwt>
<pdfrwt beam="2">  1       21 0.79012552E-01 0.20162208E+03</pdfrwt>
<totfact> 0.67387613E+04</totfact>
</mgrwt>
</event>
<event>
 4    1  0.4382184E+000  0.1741925E+03  0.7546771E-02  0.1173545E+00
         21   -1    0    0  503  502  0.00000000000E+00  0.00000000000E+00  0.74354772554E+03  0.74354772554E+03  0.00000000000E+00 0. -1.
         21   -1    0    0  501  503 -0.00000000000E+00 -0.00000000000E+00 -0.42516380559E+02  0.42516380559E+02  0.00000000000E+00 0. -1.
          6    1    1    2  501    0 -0.15027812963E+02 -0.13718762930E+02  0.42928974851E+03  0.46328471569E+03  0.17300000000E+03 0. -1.
         -6    1    1    2    0  502  0.15027812963E+02  0.13718762930E+02  0.27174159647E+03  0.32277939041E+03  0.17300000000E+03 0. -1.
<mgrwt>
<rscale>  2 0.17419254E+03</rscale>
<asrwt>0</asrwt>
<pdfrwt beam="1">  1       21 0.11439195E+00 0.17419254E+03</pdfrwt>
<pdfrwt beam="2">  1       21 0.65409822E-02 0.17419254E+03</pdfrwt>
<totfact> 0.10177896E+05</totfact>
</mgrwt>
</event>
<event>
 4    1  0.4382184E+000  0.2775490E+03  0.7546771E-02  0.1097035E+00
         21   -1    0    0  501  502  0.00000000000E+00  0.00000000000E+00  0.24182163440E+03  0.24182163440E+03  0.00000000000E+00 0.  1.
         21   -1    0    0  502  503 -0.00000000000E+00 -0.00000000000E+00 -0.64251558462E+03  0.64251558462E+03  0.00000000000E+00 0.  1.
          6    1    1    2  501    0  0.18483865828E+03 -0.11375024431E+03  0.11362600932E+03  0.29990718176E+03  0.17300000000E+03 0.  1.
         -6    1    1    2    0  503 -0.18483865828E+03  0.11375024431E+03 -0.51431995954E+03  0.58443003726E+03  0.17300000000E+03 0.  1.
<mgrwt>
<rscale>  2 0.27754900E+03</rscale>
<asrwt>0</asrwt>
<pdfrwt beam="1">  1       21 0.37203329E-01 0.27754900E+03</pdfrwt>
<pdfrwt beam="2">  1       21 0.98848551E-01 0.27754900E+03</pdfrwt>
<totfact> 0.55582247E+03</totfact>
</mgrwt>
</event>
<event>
 4    1  0.4382184E+000  0.1775472E+03  0.7546771E-02  0.1170198E+00
         21   -1    0    0  501  502  0.00000000000E+00  0.00000000000E+00  0.98889077011E+03  0.98889077011E+03  0.00000000000E+00 0.  1.
         21   -1    0    0  502  503 -0.00000000000E+00 -0.00000000000E+00 -0.42391131096E+02  0.42391131096E+02  0.00000000000E+00 0.  1.
          6    1    1    2  501    0  0.39747859122E+02 -0.37551406710E+01  0.73004923889E+03  0.75132874602E+03  0.17300000000E+03 0.  1.
         -6    1    1    2    0  503 -0.39747859122E+02  0.37551406710E+01  0.21645040012E+03  0.27995315518E+03  0.17300000000E+03 0.  1.
<mgrwt>
<rscale>  2 0.17754716E+03</rscale>
<asrwt>0</asrwt>
<pdfrwt beam="1">  1       21 0.15213702E+00 0.17754716E+03</pdfrwt>
<pdfrwt beam="2">  1       21 0.65217133E-02 0.17754716E+03</pdfrwt>
<totfact> 0.49634287E+04</totfact>
</mgrwt>
</event>
<event>
 4    1  0.4382184E+000  0.2114959E+03  0.7546771E-02  0.1140387E+00
         21   -1    0    0  503  502  0.00000000000E+00  0.00000000000E+00  0.10708993560E+03  0.10708993560E+03  0.00000000000E+00 0.  1.
         21   -1    0    0  501  503 -0.00000000000E+00 -0.00000000000E+00 -0.45406488739E+03  0.45406488739E+03  0.00000000000E+00 0.  1.
          6    1    1    2  501    0  0.10252064712E+03  0.65505813467E+02 -0.25290000501E+03  0.32968000730E+03  0.17300000000E+03 0.  1.
         -6    1    1    2    0  502 -0.10252064712E+03 -0.65505813467E+02 -0.94074946786E+02  0.23147481569E+03  0.17300000000E+03 0.  1.
<mgrwt>
<rscale>  2 0.21149585E+03</rscale>
<asrwt>0</asrwt>
<pdfrwt beam="1">  1       21 0.16475374E-01 0.21149585E+03</pdfrwt>
<pdfrwt beam="2">  1       21 0.69856138E-01 0.21149585E+03</pdfrwt>
<totfact> 0.60973226E+04</totfact>
</mgrwt>
</event>
<event>
 4    1  0.4382184E+000  0.1848914E+03  0.7546771E-02  0.1163151E+00
         21   -1    0    0  501  502  0.00000000000E+00  0.00000000000E+00  0.10646212116E+03  0.10646212116E+03  0.00000000000E+00 0.  1.
         21   -1    0    0  502  503 -0.00000000000E+00 -0.00000000000E+00 -0.37402866108E+03  0.37402866108E+03  0.00000000000E+00 0.  1.
          6    1    1    2  501    0 -0.10132234010E+02 -0.64445026058E+02 -0.43407006822E+02  0.18991838192E+03  0.17300000000E+03 0. -1.
         -6    1    1    2    0  503  0.10132234010E+02  0.64445026058E+02 -0.22415953310E+03  0.29057240032E+03  0.17300000000E+03 0. -1.
<mgrwt>
<rscale>  2 0.18489138E+03</rscale>
<asrwt>0</asrwt>
<pdfrwt beam="1">  1       21 0.16378788E-01 0.18489138E+03</pdfrwt>
<pdfrwt beam="2">  1       21 0.57542871E-01 0.18489138E+03</pdfrwt>
<totfact> 0.94945432E+04</totfact>
</mgrwt>
</event>
<event>
 4    1  0.4382184E+000  0.1855089E+03  0.7546771E-02  0.1162576E+00
         21   -1    0    0  503  502  0.00000000000E+00  0.00000000000E+00  0.28345863830E+03  0.28345863830E+03  0.00000000000E+00 0.  1.
         21   -1    0    0  501  503 -0.00000000000E+00 -0.00000000000E+00 -0.12214981430E+03  0.12214981430E+03  0.00000000000E+00 0.  1.
          6    1    1    2  501    0  0.55860350400E+02  0.36934593895E+02  0.96481477994E+02  0.20909858577E+03  0.17300000000E+03 0. -1.
         -6    1    1    2    0  502 -0.55860350400E+02 -0.36934593895E+02  0.64827346002E+02  0.19650986683E+03  0.17300000000E+03 0. -1.
<mgrwt>
<rscale>  2 0.18550888E+03</rscale>
<asrwt>0</asrwt>
<pdfrwt beam="1">  1       21 0.43609021E-01 0.18550888E+03</pdfrwt>
<pdfrwt beam="2">  1       21 0.18792279E-01 0.18550888E+03</pdfrwt>
<totfact> 0.13131871E+05</totfact>
</mgrwt>
</event>
<event>
 4    1  0.4382184E+000  0.1770839E+03  0.7546771E-02  0.1170655E+00
         21   -1    0    0  503  502  0.00000000000E+00  0.00000000000E+00  0.25421365371E+02  0.25421365371E+02  0.00000000000E+00 0.  1.
         21   -1    0    0  501  503 -0.00000000000E+00 -0.00000000000E+00 -0.12939232070E+04  0.12939232070E+04  0.00000000000E+00 0.  1.
          6    1    1    2  501    0 -0.10536613368E+02  0.36313720689E+02 -0.77673635211E+03  0.79666684833E+03  0.17300000000E+03 0. -1.
         -6    1    1    2    0  502  0.10536613368E+02 -0.36313720689E+02 -0.49176548951E+03  0.52267772404E+03  0.17300000000E+03 0. -1.
<mgrwt>
<rscale>  2 0.17708390E+03</rscale>
<asrwt>0</asrwt>
<pdfrwt beam="1">  1       21 0.39109773E-02 0.17708390E+03</pdfrwt>
<pdfrwt beam="2">  1       21 0.19906521E+00 0.17708390E+03</pdfrwt>
<totfact> 0.55958298E+04</totfact>
</mgrwt>
</event>
<event>
 4    1  0.4382184E+000  0.2410219E+03  0.7546771E-02  0.1119114E+00
         21   -1    0    0  501  502  0.00000000000E+00  0.00000000000E+00  0.25665946145E+03  0.25665946145E+03  0.00000000000E+00 0. -1.
         21   -1    0    0  502  503 -0.00000000000E+00 -0.00000000000E+00 -0.35166724222E+03  0.35166724222E+03  0.00000000000E+00 0. -1.
          6    1    1    2  501    0  0.16771946487E+03  0.57220188438E+01  0.13407638856E+03  0.27580434798E+03  0.17300000000E+03 0. -1.
         -6    1    1    2    0  503 -0.16771946487E+03 -0.57220188438E+01 -0.22908416933E+03  0.33252235569E+03  0.17300000000E+03 0. -1.
<mgrwt>
<rscale>  2 0.24102191E+03</rscale>
<asrwt>0</asrwt>
<pdfrwt beam="1">  1       21 0.39486071E-01 0.24102191E+03</pdfrwt>
<pdfrwt beam="2">  1       21 0.54102652E-01 0.24102191E+03</pdfrwt>
<totfact> 0.19434432E+04</totfact>
</mgrwt>
</event>
<event>
 4    1  0.4382184E+000  0.2121831E+03  0.7546771E-02  0.1139849E+00
         21   -1    0    0  503  502  0.00000000000E+00  0.00000000000E+00  0.51429690880E+03  0.51429690880E+03  0.00000000000E+00 0.  1.
         21   -1    0    0  501  503 -0.00000000000E+00 -0.00000000000E+00 -0.12018934006E+03  0.12018934006E+03  0.00000000000E+00 0.  1.
          6    1    1    2  501    0 -0.12197340822E+03 -0.14668885638E+02  0.31707411059E+02  0.21453915362E+03  0.17300000000E+03 0.  1.
         -6    1    1    2    0  502  0.12197340822E+03  0.14668885638E+02  0.36240015768E+03  0.41994709524E+03  0.17300000000E+03 0.  1.
<mgrwt>
<rscale>  2 0.21218315E+03</rscale>
<asrwt>0</asrwt>
<pdfrwt beam="1">  1       21 0.79122600E-01 0.21218315E+03</pdfrwt>
<pdfrwt beam="2">  1       21 0.18490668E-01 0.21218315E+03</pdfrwt>
<totfact> 0.37279746E+04</totfact>
</mgrwt>
</event>
<event>
 4    1  0.4382184E+000  0.1993356E+03  0.7546771E-02  0.1150301E+00
         21   -1    0    0  503  502  0.00000000000E+00  0.00000000000E+00  0.42571340462E+02  0.42571340462E+02  0.00000000000E+00 0.  1.
         21   -1    0    0  501  503 -0.00000000000E+00 -0.00000000000E+00 -0.93999938193E+03  0.93999938193E+03  0.00000000000E+00 0.  1.
          6    1    1    2  501    0  0.45496772531E+02 -0.87953036203E+02 -0.48998057654E+03  0.52897604698E+03  0.17300000000E+03 0.  1.
         -6    1    1    2    0  502 -0.45496772531E+02  0.87953036203E+02 -0.40744746492E+03  0.45359467541E+03  0.17300000000E+03 0.  1.
<mgrwt>
<rscale>  2 0.19933563E+03</rscale>
<asrwt>0</asrwt>
<pdfrwt beam="1">  1       21 0.65494367E-02 0.19933563E+03</pdfrwt>
<pdfrwt beam="2">  1       21 0.14461530E+00 0.19933563E+03</pdfrwt>
<totfact> 0.55599316E+04</totfact>
</mgrwt>
</event>
<event>
 4    1  0.4382184E+000  0.2018987E+03  0.7546771E-02  0.1148147E+00
         21   -1    0    0  503  502  0.00000000000E+00  0.00000000000E+00  0.91680346896E+03  0.91680346896E+03  0.00000000000E+00 0.  1.
         21   -1    0    0  501  503 -0.00000000000E+00 -0.00000000000E+00 -0.50444825190E+02  0.50444825190E+02  0.00000000000E+00 0.  1.
          6    1    1    2  501    0  0.64440193657E+02  0.81740683406E+02  0.59973000090E+03  0.63280261682E+03  0.17300000000E+03 0.  1.
         -6    1    1    2    0  502 -0.64440193657E+02 -0.81740683406E+02  0.26662864287E+03  0.33444567733E+03  0.17300000000E+03 0.  1.
<mgrwt>
<rscale>  2 0.20189868E+03</rscale>
<asrwt>0</asrwt>
<pdfrwt beam="1">  1       21 0.14104667E+00 0.20189868E+03</pdfrwt>
<pdfrwt beam="2">  1       21 0.77607430E-02 0.20189868E+03</pdfrwt>
<totfact> 0.44171097E+04</totfact>
</mgrwt>
</event>
<event>
 4    1  0.4382184E+000  0.1992930E+03  0.7546771E-02  0.1150337E+00
         21   -1    0    0  503  502  0.00000000000E+00  0.00000000000E+00  0.12347418466E+03  0.12347418466E+03  0.00000000000E+00 0.  1.
         21   -1    0    0  501  503 -0.00000000000E+00 -0.00000000000E+00 -0.46742896293E+03  0.46742896293E+03  0.00000000000E+00 0.  1.
          6    1    1    2  501    0 -0.53526382631E+02  0.83208331251E+02 -0.33696412876E+03  0.39148757847E+03  0.17300000000E+03 0.  1.
         -6    1    1    2    0  502  0.53526382631E+02 -0.83208331251E+02 -0.69906495090E+01  0.19941556912E+03  0.17300000000E+03 0.  1.
<mgrwt>
<rscale>  2 0.19929300E+03</rscale>
<asrwt>0</asrwt>
<pdfrwt beam="1">  1       21 0.18996029E-01 0.19929300E+03</pdfrwt>
<pdfrwt beam="2">  1       21 0.71912147E-01 0.19929300E+03</pdfrwt>
<totfact> 0.44206597E+04</totfact>
</mgrwt>
</event>
<event>
 4    1  0.4382184E+000  0.2654270E+03  0.7546771E-02  0.1103926E+00
         21   -1    0    0  503  502  0.00000000000E+00  0.00000000000E+00  0.57158908854E+03  0.57158908854E+03  0.00000000000E+00 0.  1.
         21   -1    0    0  501  503 -0.00000000000E+00 -0.00000000000E+00 -0.51964361642E+03  0.51964361642E+03  0.00000000000E+00 0.  1.
          6    1    1    2  501    0 -0.20094876707E+03  0.11920309687E+02 -0.45056235958E+03  0.52293206121E+03  0.17300000000E+03 0.  1.
         -6    1    1    2    0  502  0.20094876707E+03 -0.11920309687E+02  0.50250783170E+03  0.56830064375E+03  0.17300000000E+03 0.  1.
<mgrwt>
<rscale>  2 0.26542702E+03</rscale>
<asrwt>0</asrwt>
<pdfrwt beam="1">  1       21 0.87936784E-01 0.26542702E+03</pdfrwt>
<pdfrwt beam="2">  1       21 0.79945171E-01 0.26542702E+03</pdfrwt>
<totfact> 0.14380237E+03</totfact>
</mgrwt>
</event>
<event>
 4    1  0.4382184E+000  0.1863915E+03  0.7546771E-02  0.1161757E+00
         21   -1    0    0  503  502  0.00000000000E+00  0.00000000000E+00  0.28310722028E+03  0.28310722028E+03  0.00000000000E+00 0. -1.
         21   -1    0    0  501  503 -0.00000000000E+00 -0.00000000000E+00 -0.20574429814E+03  0.20574429814E+03  0.00000000000E+00 0.  1.
          6    1    1    2  501    0 -0.43891316273E+02 -0.53724835683E+02 -0.11659154188E+03  0.21985311745E+03  0.17300000000E+03 0.  1.
         -6    1    1    2    0  502  0.43891316273E+02  0.53724835683E+02  0.19395446402E+03  0.26899840097E+03  0.17300000000E+03 0. -1.
<mgrwt>
<rscale>  2 0.18639154E+03</rscale>
<asrwt>0</asrwt>
<pdfrwt beam="1">  1       21 0.43554957E-01 0.18639154E+03</pdfrwt>
<pdfrwt beam="2">  1       21 0.31652969E-01 0.18639154E+03</pdfrwt>
<totfact> 0.48757568E+04</totfact>
</mgrwt>
</event>
<event>
 4    1  0.4382184E+000  0.2288417E+03  0.7546771E-02  0.1127458E+00
         21   -1    0    0  503  502  0.00000000000E+00  0.00000000000E+00  0.13253031841E+03  0.13253031841E+03  0.00000000000E+00 0. -1.
         21   -1    0    0  501  503 -0.00000000000E+00 -0.00000000000E+00 -0.43211032474E+03  0.43211032474E+03  0.00000000000E+00 0. -1.
          6    1    1    2  501    0 -0.83507711367E+02  0.12436238045E+03 -0.23236505768E+03  0.32613196648E+03  0.17300000000E+03 0. -1.
         -6    1    1    2    0  502  0.83507711367E+02 -0.12436238045E+03 -0.67214948653E+02  0.23850867668E+03  0.17300000000E+03 0. -1.
<mgrwt>
<rscale>  2 0.22884173E+03</rscale>
<asrwt>0</asrwt>
<pdfrwt beam="1">  1       21 0.20389280E-01 0.22884173E+03</pdfrwt>
<pdfrwt beam="2">  1       21 0.66478511E-01 0.22884173E+03</pdfrwt>
<totfact> 0.45407845E+04</totfact>
</mgrwt>
</event>
<event>
 4    1  0.4382184E+000  0.3853719E+03  0.7546771E-02  0.1048966E+00
         21   -1    0    0  503  502  0.00000000000E+00  0.00000000000E+00  0.48434711906E+03  0.48434711906E+03  0.00000000000E+00 0. -1.
         21   -1    0    0  501  503 -0.00000000000E+00 -0.00000000000E+00 -0.34553399615E+03  0.34553399615E+03  0.00000000000E+00 0.  1.
          6    1    1    2  501    0  0.33985990080E+03 -0.55477396983E+02 -0.69839242979E+02  0.39164909499E+03  0.17300000000E+03 0.  1.
         -6    1    1    2    0  502 -0.33985990080E+03  0.55477396983E+02  0.20865236589E+03  0.43823202021E+03  0.17300000000E+03 0. -1.
<mgrwt>
<rscale>  2 0.38537189E+03</rscale>
<asrwt>0</asrwt>
<pdfrwt beam="1">  1       21 0.74514941E-01 0.38537189E+03</pdfrwt>
<pdfrwt beam="2">  1       21 0.53159077E-01 0.38537189E+03</pdfrwt>
<totfact> 0.48636868E+03</totfact>
</mgrwt>
</event>
<event>
 4    1  0.4382184E+000  0.1921361E+03  0.7546771E-02  0.1156549E+00
         21   -1    0    0  501  502  0.00000000000E+00  0.00000000000E+00  0.56744615483E+03  0.56744615483E+03  0.00000000000E+00 0.  1.
         21   -1    0    0  502  503 -0.00000000000E+00 -0.00000000000E+00 -0.72953431887E+02  0.72953431887E+02  0.00000000000E+00 0. -1.
          6    1    1    2  501    0  0.67419944525E+02 -0.49414926781E+02  0.35259200167E+03  0.40154377539E+03  0.17300000000E+03 0.  1.
         -6    1    1    2    0  503 -0.67419944525E+02  0.49414926781E+02  0.14190072127E+03  0.23885581133E+03  0.17300000000E+03 0. -1.
<mgrwt>
<rscale>  2 0.19213611E+03</rscale>
<asrwt>0</asrwt>
<pdfrwt beam="1">  1       21 0.87299405E-01 0.19213611E+03</pdfrwt>
<pdfrwt beam="2">  1       21 0.11223605E-01 0.19213611E+03</pdfrwt>
<totfact> 0.74546662E+04</totfact>
</mgrwt>
</event>
<event>
 4    1  0.4382184E+000  0.1840820E+03  0.7546771E-02  0.1163910E+00
         21   -1    0    0  503  502  0.00000000000E+00  0.00000000000E+00  0.18987641130E+03  0.18987641130E+03  0.00000000000E+00 0. -1.
         21   -1    0    0  501  503 -0.00000000000E+00 -0.00000000000E+00 -0.25912814135E+03  0.25912814135E+03  0.00000000000E+00 0.  1.
          6    1    1    2  501    0 -0.42354427171E+02 -0.46511015025E+02 -0.15988307973E+03  0.24382118694E+03  0.17300000000E+03 0.  1.
         -6    1    1    2    0  502  0.42354427171E+02  0.46511015025E+02  0.90631349673E+02  0.20518336571E+03  0.17300000000E+03 0. -1.
<mgrwt>
<rscale>  2 0.18408197E+03</rscale>
<asrwt>0</asrwt>
<pdfrwt beam="1">  1       21 0.29211755E-01 0.18408197E+03</pdfrwt>
<pdfrwt beam="2">  1       21 0.39865868E-01 0.18408197E+03</pdfrwt>
<totfact> 0.68310157E+04</totfact>
</mgrwt>
</event>
<event>
 4    1  0.4382184E+000  0.1915903E+03  0.7546771E-02  0.1157035E+00
         21   -1    0    0  501  502  0.00000000000E+00  0.00000000000E+00  0.18938908835E+03  0.18938908835E+03  0.00000000000E+00 0.  1.
         21   -1    0    0  502  503 -0.00000000000E+00 -0.00000000000E+00 -0.29334216137E+03  0.29334216137E+03  0.00000000000E+00 0.  1.
          6    1    1    2  501    0  0.81851273555E+02  0.88435130301E+01  0.88613473229E+02  0.21109046957E+03  0.17300000000E+03 0.  1.
         -6    1    1    2    0  503 -0.81851273555E+02 -0.88435130301E+01 -0.19256654625E+03  0.27164078015E+03  0.17300000000E+03 0.  1.
<mgrwt>
<rscale>  2 0.19159029E+03</rscale>
<asrwt>0</asrwt>
<pdfrwt beam="1">  1       21 0.29136783E-01 0.19159029E+03</pdfrwt>
<pdfrwt beam="2">  1       21 0.45129563E-01 0.19159029E+03</pdfrwt>
<totfact> 0.53161415E+04</totfact>
</mgrwt>
</event>
<event>
 4    1  0.4382184E+000  0.1951143E+03  0.7546771E-02  0.1153928E+00
         21   -1    0    0  501  502  0.00000000000E+00  0.00000000000E+00  0.24752013949E+02  0.24752013949E+02  0.00000000000E+00 0.  1.
         21   -1    0    0  502  503 -0.00000000000E+00 -0.00000000000E+00 -0.15605368162E+04  0.15605368162E+04  0.00000000000E+00 0.  1.
          6    1    1    2  501    0  0.19649830570E+02  0.88059390434E+02 -0.67272067440E+03  0.70044462869E+03  0.17300000000E+03 0.  1.
         -6    1    1    2    0  503 -0.19649830570E+02 -0.88059390434E+02 -0.86306412781E+03  0.88484420142E+03  0.17300000000E+03 0.  1.
<mgrwt>
<rscale>  2 0.19511425E+03</rscale>
<asrwt>0</asrwt>
<pdfrwt beam="1">  1       21 0.38080018E-02 0.19511425E+03</pdfrwt>
<pdfrwt beam="2">  1       21 0.24008261E+00 0.19511425E+03</pdfrwt>
<totfact> 0.32317580E+04</totfact>
</mgrwt>
</event>
<event>
 4    1  0.4382184E+000  0.2001675E+03  0.7546771E-02  0.1149598E+00
         21   -1    0    0  501  502  0.00000000000E+00  0.00000000000E+00  0.14811183022E+03  0.14811183022E+03  0.00000000000E+00 0. -1.
         21   -1    0    0  502  503 -0.00000000000E+00 -0.00000000000E+00 -0.31508591808E+03  0.31508591808E+03  0.00000000000E+00 0. -1.
          6    1    1    2  501    0  0.10063166788E+03  0.33592665880E+01  0.36152900736E+01  0.20020011882E+03  0.17300000000E+03 0. -1.
         -6    1    1    2    0  503 -0.10063166788E+03 -0.33592665880E+01 -0.17058937793E+03  0.26299762949E+03  0.17300000000E+03 0. -1.
<mgrwt>
<rscale>  2 0.20016747E+03</rscale>
<asrwt>0</asrwt>
<pdfrwt beam="1">  1       21 0.22786436E-01 0.20016747E+03</pdfrwt>
<pdfrwt beam="2">  1       21 0.48474756E-01 0.20016747E+03</pdfrwt>
<totfact> 0.73172183E+04</totfact>
</mgrwt>
</event>
<event>
 4    1  0.4382184E+000  0.1903108E+03  0.7546771E-02  0.1158181E+00
         21   -1    0    0  501  502  0.00000000000E+00  0.00000000000E+00  0.19794076773E+02  0.19794076773E+02  0.00000000000E+00 0. -1.
         21   -1    0    0  502  503 -0.00000000000E+00 -0.00000000000E+00 -0.22271269595E+04  0.22271269595E+04  0.00000000000E+00 0.  1.
          6    1    1    2  501    0  0.74258772313E+02 -0.27835648159E+02 -0.62911061010E+03  0.65726581253E+03  0.17300000000E+03 0. -1.
         -6    1    1    2    0  503 -0.74258772313E+02  0.27835648159E+02 -0.15782222726E+04  0.15896552237E+04  0.17300000000E+03 0.  1.
<mgrwt>
<rscale>  2 0.19031077E+03</rscale>
<asrwt>0</asrwt>
<pdfrwt beam="1">  1       21 0.30452430E-02 0.19031077E+03</pdfrwt>
<pdfrwt beam="2">  1       21 0.34263488E+00 0.19031077E+03</pdfrwt>
<totfact> 0.11958923E+04</totfact>
</mgrwt>
</event>
<event>
 4    1  0.4382184E+000  0.1854653E+03  0.7546771E-02  0.1162616E+00
         21   -1    0    0  503  502  0.00000000000E+00  0.00000000000E+00  0.64250188354E+02  0.64250188354E+02  0.00000000000E+00 0.  1.
         21   -1    0    0  501  503 -0.00000000000E+00 -0.00000000000E+00 -0.65680464694E+03  0.65680464694E+03  0.00000000000E+00 0.  1.
          6    1    1    2  501    0  0.60460985153E+02 -0.28510240328E+02 -0.45130114401E+03  0.48792426371E+03  0.17300000000E+03 0.  1.
         -6    1    1    2    0  502 -0.60460985153E+02  0.28510240328E+02 -0.14125331457E+03  0.23313057158E+03  0.17300000000E+03 0.  1.
<mgrwt>
<rscale>  2 0.18546527E+03</rscale>
<asrwt>0</asrwt>
<pdfrwt beam="1">  1       21 0.98846441E-02 0.18546527E+03</pdfrwt>
<pdfrwt beam="2">  1       21 0.10104687E+00 0.18546527E+03</pdfrwt>
<totfact> 0.66551720E+04</totfact>
</mgrwt>
</event>
<event>
 4    1  0.4382184E+000  0.2108612E+03  0.7546771E-02  0.1140886E+00
         21   -1    0    0  501  502  0.00000000000E+00  0.00000000000E+00  0.11928598773E+03  0.11928598773E+03  0.00000000000E+00 0. -1.
         21   -1    0    0  502  503 -0.00000000000E+00 -0.00000000000E+00 -0.39158737294E+03  0.39158737294E+03  0.00000000000E+00 0.  1.
          6    1    1    2  501    0  0.12015964734E+03  0.97517414316E+01 -0.80108418290E+02  0.22556550266E+03  0.17300000000E+03 0. -1.
         -6    1    1    2    0  503 -0.12015964734E+03 -0.97517414316E+01 -0.19219296692E+03  0.28530785801E+03  0.17300000000E+03 0.  1.
<mgrwt>
<rscale>  2 0.21086118E+03</rscale>
<asrwt>0</asrwt>
<pdfrwt beam="1">  1       21 0.18351690E-01 0.21086118E+03</pdfrwt>
<pdfrwt beam="2">  1       21 0.60244212E-01 0.21086118E+03</pdfrwt>
<totfact> 0.69016034E+04</totfact>
</mgrwt>
</event>
<event>
 4    1  0.4382184E+000  0.2890761E+03  0.7546771E-02  0.1090833E+00
         21   -1    0    0  503  502  0.00000000000E+00  0.00000000000E+00  0.15351706046E+04  0.15351706046E+04  0.00000000000E+00 0.  1.
         21   -1    0    0  501  503 -0.00000000000E+00 -0.00000000000E+00 -0.62477419418E+02  0.62477419418E+02  0.00000000000E+00 0. -1.
          6    1    1    2  501    0  0.19686684897E+03  0.12198125625E+03  0.10229745884E+04  0.10630343323E+04  0.17300000000E+03 0. -1.
         -6    1    1    2    0  502 -0.19686684897E+03 -0.12198125625E+03  0.44971859680E+03  0.53461369175E+03  0.17300000000E+03 0.  1.
<mgrwt>
<rscale>  2 0.28907609E+03</rscale>
<asrwt>0</asrwt>
<pdfrwt beam="1">  1       21 0.23618006E+00 0.28907609E+03</pdfrwt>
<pdfrwt beam="2">  1       21 0.96119118E-02 0.28907609E+03</pdfrwt>
<totfact> 0.64676024E+03</totfact>
</mgrwt>
</event>
<event>
 4    1  0.4382184E+000  0.2066114E+03  0.7546771E-02  0.1144278E+00
         21   -1    0    0  501  502  0.00000000000E+00  0.00000000000E+00  0.29647454750E+03  0.29647454750E+03  0.00000000000E+00 0. -1.
         21   -1    0    0  502  503 -0.00000000000E+00 -0.00000000000E+00 -0.78243758574E+03  0.78243758574E+03  0.00000000000E+00 0. -1.
          6    1    1    2  501    0  0.11197685789E+03  0.14847872680E+02  0.24431701944E+03  0.31996731398E+03  0.17300000000E+03 0. -1.
         -6    1    1    2    0  503 -0.11197685789E+03 -0.14847872680E+02 -0.73028005768E+03  0.75894481925E+03  0.17300000000E+03 0. -1.
<mgrwt>
<rscale>  2 0.20661141E+03</rscale>
<asrwt>0</asrwt>
<pdfrwt beam="1">  1       21 0.45611469E-01 0.20661141E+03</pdfrwt>
<pdfrwt beam="2">  1       21 0.12037501E+00 0.20661141E+03</pdfrwt>
<totfact> 0.23853905E+03</totfact>
</mgrwt>
</event>
<event>
 4    1  0.4382184E+000  0.2130782E+03  0.7546771E-02  0.1139151E+00
         21   -1    0    0  501  502  0.00000000000E+00  0.00000000000E+00  0.90975004011E+03  0.90975004011E+03  0.00000000000E+00 0. -1.
         21   -1    0    0  502  503 -0.00000000000E+00 -0.00000000000E+00 -0.64433883912E+02  0.64433883912E+02  0.00000000000E+00 0. -1.
          6    1    1    2  501    0 -0.20901459128E+02 -0.12262322924E+03  0.65394409223E+03  0.68778281681E+03  0.17300000000E+03 0. -1.
         -6    1    1    2    0  503  0.20901459128E+02  0.12262322924E+03  0.19137206397E+03  0.28640110721E+03  0.17300000000E+03 0. -1.
<mgrwt>
<rscale>  2 0.21307822E+03</rscale>
<asrwt>0</asrwt>
<pdfrwt beam="1">  1       21 0.13996154E+00 0.21307822E+03</pdfrwt>
<pdfrwt beam="2">  1       21 0.99129059E-02 0.21307822E+03</pdfrwt>
<totfact> 0.29145975E+04</totfact>
</mgrwt>
</event>
<event>
 4    1  0.4382184E+000  0.1830374E+03  0.7546771E-02  0.1164895E+00
         21   -1    0    0  501  502  0.00000000000E+00  0.00000000000E+00  0.15335166017E+03  0.15335166017E+03  0.00000000000E+00 0.  1.
         21   -1    0    0  502  503 -0.00000000000E+00 -0.00000000000E+00 -0.22449148356E+03  0.22449148356E+03  0.00000000000E+00 0.  1.
          6    1    1    2  501    0 -0.57330869264E+02  0.16937108329E+02 -0.46282611699E+01  0.18309591751E+03  0.17300000000E+03 0.  1.
         -6    1    1    2    0  503  0.57330869264E+02 -0.16937108329E+02 -0.66511562220E+02  0.19474722621E+03  0.17300000000E+03 0.  1.
<mgrwt>
<rscale>  2 0.18303741E+03</rscale>
<asrwt>0</asrwt>
<pdfrwt beam="1">  1       21 0.23592563E-01 0.18303741E+03</pdfrwt>
<pdfrwt beam="2">  1       21 0.34537151E-01 0.18303741E+03</pdfrwt>
<totfact> 0.13709259E+05</totfact>
</mgrwt>
</event>
<event>
 4    1  0.4382184E+000  0.3164087E+03  0.7546771E-02  0.1077314E+00
         21   -1    0    0  503  502  0.00000000000E+00  0.00000000000E+00  0.31549480252E+03  0.31549480252E+03  0.00000000000E+00 0.  1.
         21   -1    0    0  501  503 -0.00000000000E+00 -0.00000000000E+00 -0.47332092318E+03  0.47332092318E+03  0.00000000000E+00 0. -1.
          6    1    1    2  501    0 -0.23884685347E+03  0.11461957983E+03 -0.30533785752E+03  0.43971089903E+03  0.17300000000E+03 0.  1.
         -6    1    1    2    0  502  0.23884685347E+03 -0.11461957983E+03  0.14751173685E+03  0.34910482667E+03  0.17300000000E+03 0. -1.
<mgrwt>
<rscale>  2 0.31640870E+03</rscale>
<asrwt>0</asrwt>
<pdfrwt beam="1">  1       21 0.48537662E-01 0.31640870E+03</pdfrwt>
<pdfrwt beam="2">  1       21 0.72818604E-01 0.31640870E+03</pdfrwt>
<totfact> 0.63972226E+03</totfact>
</mgrwt>
</event>
<event>
 4    1  0.4382184E+000  0.3174544E+03  0.7546771E-02  0.1076827E+00
         21   -1    0    0  503  502  0.00000000000E+00  0.00000000000E+00  0.70183678023E+03  0.70183678023E+03  0.00000000000E+00 0. -1.
         21   -1    0    0  501  503 -0.00000000000E+00 -0.00000000000E+00 -0.54590775171E+03  0.54590775171E+03  0.00000000000E+00 0. -1.
          6    1    1    2  501    0 -0.20181197065E+03 -0.17355186140E+03 -0.45761037081E+03  0.55694216177E+03  0.17300000000E+03 0. -1.
         -6    1    1    2    0  502  0.20181197065E+03  0.17355186140E+03  0.61353939933E+03  0.69080237016E+03  0.17300000000E+03 0. -1.
<mgrwt>
<rscale>  2 0.31745444E+03</rscale>
<asrwt>0</asrwt>
<pdfrwt beam="1">  1       21 0.10797489E+00 0.31745444E+03</pdfrwt>
<pdfrwt beam="2">  1       21 0.83985808E-01 0.31745444E+03</pdfrwt>
<totfact> 0.76013572E+02</totfact>
</mgrwt>
</event>
<event>
 4    1  0.4382184E+000  0.1876319E+03  0.7546771E-02  0.1160615E+00
         21   -1    0    0  501  502  0.00000000000E+00  0.00000000000E+00  0.45590746113E+03  0.45590746113E+03  0.00000000000E+00 0.  1.
         21   -1    0    0  502  503 -0.00000000000E+00 -0.00000000000E+00 -0.96522045830E+02  0.96522045830E+02  0.00000000000E+00 0.  1.
          6    1    1    2  501    0 -0.52164001276E+02 -0.50553429785E+02  0.30320822186E+03  0.35656830775E+03  0.17300000000E+03 0.  1.
         -6    1    1    2    0  503  0.52164001276E+02  0.50553429785E+02  0.56177193445E+02  0.19586119921E+03  0.17300000000E+03 0.  1.
<mgrwt>
<rscale>  2 0.18763191E+03</rscale>
<asrwt>0</asrwt>
<pdfrwt beam="1">  1       21 0.70139608E-01 0.18763191E+03</pdfrwt>
<pdfrwt beam="2">  1       21 0.14849546E-01 0.18763191E+03</pdfrwt>
<totfact> 0.73865948E+04</totfact>
</mgrwt>
</event>
<event>
 4    1  0.4382184E+000  0.2015734E+03  0.7546771E-02  0.1148418E+00
         21   -1    0    0  501  502  0.00000000000E+00  0.00000000000E+00  0.19172977718E+03  0.19172977718E+03  0.00000000000E+00 0.  1.
         21   -1    0    0  502  503 -0.00000000000E+00 -0.00000000000E+00 -0.29892868290E+03  0.29892868290E+03  0.00000000000E+00 0.  1.
          6    1    1    2  501    0 -0.37143202247E+02  0.96556890955E+02  0.78755622315E+02  0.21641233493E+03  0.17300000000E+03 0.  1.
         -6    1    1    2    0  503  0.37143202247E+02 -0.96556890955E+02 -0.18595452804E+03  0.27424612515E+03  0.17300000000E+03 0.  1.
<mgrwt>
<rscale>  2 0.20157344E+03</rscale>
<asrwt>0</asrwt>
<pdfrwt beam="1">  1       21 0.29496889E-01 0.20157344E+03</pdfrwt>
<pdfrwt beam="2">  1       21 0.45989028E-01 0.20157344E+03</pdfrwt>
<totfact> 0.49687090E+04</totfact>
</mgrwt>
</event>
<event>
 4    1  0.4382184E+000  0.1739790E+03  0.7546771E-02  0.1173761E+00
         21   -1    0    0  501  502  0.00000000000E+00  0.00000000000E+00  0.39768346920E+02  0.39768346920E+02  0.00000000000E+00 0.  1.
         21   -1    0    0  502  503 -0.00000000000E+00 -0.00000000000E+00 -0.98492221931E+03  0.98492221931E+03  0.00000000000E+00 0.  1.
          6    1    1    2  501    0 -0.13771384066E+02 -0.12249183738E+02 -0.71680122989E+03  0.73761283659E+03  0.17300000000E+03 0.  1.
         -6    1    1    2    0  503  0.13771384066E+02  0.12249183738E+02 -0.22835264250E+03  0.28707772964E+03  0.17300000000E+03 0.  1.
<mgrwt>
<rscale>  2 0.17397900E+03</rscale>
<asrwt>0</asrwt>
<pdfrwt beam="1">  1       21 0.61182079E-02 0.17397900E+03</pdfrwt>
<pdfrwt beam="2">  1       21 0.15152648E+00 0.17397900E+03</pdfrwt>
<totfact> 0.56079813E+04</totfact>
</mgrwt>
</event>
<event>
 4    1  0.4382184E+000  0.1827710E+03  0.7546771E-02  0.1165148E+00
         21   -1    0    0  501  502  0.00000000000E+00  0.00000000000E+00  0.31911056637E+03  0.31911056637E+03  0.00000000000E+00 0. -1.
         21   -1    0    0  502  503 -0.00000000000E+00 -0.00000000000E+00 -0.10549147691E+03  0.10549147691E+03  0.00000000000E+00 0. -1.
          6    1    1    2  501    0 -0.40206269314E+02  0.43124035448E+02  0.88215819320E+02  0.20294643950E+03  0.17300000000E+03 0. -1.
         -6    1    1    2    0  503  0.40206269314E+02 -0.43124035448E+02  0.12540327014E+03  0.22165560378E+03  0.17300000000E+03 0. -1.
<mgrwt>
<rscale>  2 0.18277097E+03</rscale>
<asrwt>0</asrwt>
<pdfrwt beam="1">  1       21 0.49093933E-01 0.18277097E+03</pdfrwt>
<pdfrwt beam="2">  1       21 0.16229458E-01 0.18277097E+03</pdfrwt>
<totfact> 0.13491641E+05</totfact>
</mgrwt>
</event>
<event>
 4    1  0.4382184E+000  0.1969235E+03  0.7546771E-02  0.1152361E+00
         21   -1    0    0  501  502  0.00000000000E+00  0.00000000000E+00  0.44053111487E+02  0.44053111487E+02  0.00000000000E+00 0.  1.
         21   -1    0    0  502  503 -0.00000000000E+00 -0.00000000000E+00 -0.13084283390E+04  0.13084283390E+04  0.00000000000E+00 0. -1.
          6    1    1    2  501    0  0.83565094800E+02  0.43205862814E+02 -0.24535257882E+03  0.31460572084E+03  0.17300000000E+03 0.  1.
         -6    1    1    2    0  503 -0.83565094800E+02 -0.43205862814E+02 -0.10190226487E+04  0.10378757297E+04  0.17300000000E+03 0. -1.
<mgrwt>
<rscale>  2 0.19692352E+03</rscale>
<asrwt>0</asrwt>
<pdfrwt beam="1">  1       21 0.67774024E-02 0.19692352E+03</pdfrwt>
<pdfrwt beam="2">  1       21 0.20129665E+00 0.19692352E+03</pdfrwt>
<totfact> 0.21000040E+04</totfact>
</mgrwt>
</event>
<event>
 4    1  0.4382184E+000  0.1748958E+03  0.7546771E-02  0.1172836E+00
         21   -1    0    0  501  502  0.00000000000E+00  0.00000000000E+00  0.14114029344E+03  0.14114029344E+03  0.00000000000E+00 0.  1.
         21   -1    0    0  502  503 -0.00000000000E+00 -0.00000000000E+00 -0.51633454256E+03  0.51633454256E+03  0.00000000000E+00 0.  1.
          6    1    1    2  501    0  0.35368777419E+01  0.25437027631E+02  0.62818701303E+02  0.18583525261E+03  0.17300000000E+03 0.  1.
         -6    1    1    2    0  503 -0.35368777419E+01 -0.25437027631E+02 -0.43801295043E+03  0.47163958339E+03  0.17300000000E+03 0.  1.
<mgrwt>
<rscale>  2 0.17489583E+03</rscale>
<asrwt>0</asrwt>
<pdfrwt beam="1">  1       21 0.21713891E-01 0.17489583E+03</pdfrwt>
<pdfrwt beam="2">  1       21 0.79436084E-01 0.17489583E+03</pdfrwt>
<totfact> 0.27929437E+04</totfact>
</mgrwt>
</event>
<event>
 4    1  0.4382184E+000  0.3252932E+03  0.7546771E-02  0.1073239E+00
         21   -1    0    0  501  502  0.00000000000E+00  0.00000000000E+00  0.55833588846E+03  0.55833588846E+03  0.00000000000E+00 0. -1.
         21   -1    0    0  502  503 -0.00000000000E+00 -0.00000000000E+00 -0.20264153498E+03  0.20264153498E+03  0.00000000000E+00 0. -1.
          6    1    1    2  501    0 -0.32600814343E+01  0.27545606260E+03  0.27466921533E+03  0.42574505095E+03  0.17300000000E+03 0. -1.
         -6    1    1    2    0  503  0.32600814343E+01 -0.27545606260E+03  0.81025138149E+02  0.33523237249E+03  0.17300000000E+03 0. -1.
<mgrwt>
<rscale>  2 0.32529321E+03</rscale>
<asrwt>0</asrwt>
<pdfrwt beam="1">  1       21 0.85897828E-01 0.32529321E+03</pdfrwt>
<pdfrwt beam="2">  1       21 0.31175621E-01 0.32529321E+03</pdfrwt>
<totfact> 0.10769630E+04</totfact>
</mgrwt>
</event>
<event>
 4    1  0.4382184E+000  0.2381439E+03  0.7546771E-02  0.1121035E+00
         21   -1    0    0  501  502  0.00000000000E+00  0.00000000000E+00  0.37217723391E+03  0.37217723391E+03  0.00000000000E+00 0. -1.
         21   -1    0    0  502  503 -0.00000000000E+00 -0.00000000000E+00 -0.20088862043E+03  0.20088862043E+03  0.00000000000E+00 0. -1.
          6    1    1    2  501    0 -0.89633975393E+02  0.13692801392E+03  0.22644486019E+03  0.32861802332E+03  0.17300000000E+03 0. -1.
         -6    1    1    2    0  503  0.89633975393E+02 -0.13692801392E+03 -0.55156246716E+02  0.24444783102E+03  0.17300000000E+03 0. -1.
<mgrwt>
<rscale>  2 0.23814393E+03</rscale>
<asrwt>0</asrwt>
<pdfrwt beam="1">  1       21 0.57258036E-01 0.23814393E+03</pdfrwt>
<pdfrwt beam="2">  1       21 0.30905942E-01 0.23814393E+03</pdfrwt>
<totfact> 0.28120064E+04</totfact>
</mgrwt>
</event>
<event>
 4    1  0.4382184E+000  0.1810664E+03  0.7546771E-02  0.1166775E+00
         21   -1    0    0  503  502  0.00000000000E+00  0.00000000000E+00  0.80017058052E+03  0.80017058052E+03  0.00000000000E+00 0. -1.
         21   -1    0    0  501  503 -0.00000000000E+00 -0.00000000000E+00 -0.41015705633E+02  0.41015705633E+02  0.00000000000E+00 0. -1.
          6    1    1    2  501    0 -0.47191174494E+02  0.25080914468E+02  0.36594051190E+03  0.40828607308E+03  0.17300000000E+03 0.  1.
         -6    1    1    2    0  502  0.47191174494E+02 -0.25080914468E+02  0.39321436298E+03  0.43290021307E+03  0.17300000000E+03 0.  1.
<mgrwt>
<rscale>  2 0.18106645E+03</rscale>
<asrwt>0</asrwt>
<pdfrwt beam="1">  1       21 0.12310315E+00 0.18106645E+03</pdfrwt>
<pdfrwt beam="2">  1       21 0.63101092E-02 0.18106645E+03</pdfrwt>
<totfact> 0.90101998E+04</totfact>
</mgrwt>
</event>
<event>
 4    1  0.4382184E+000  0.1757984E+03  0.7546771E-02  0.1171932E+00
         21   -1    0    0  501  502  0.00000000000E+00  0.00000000000E+00  0.19024494335E+02  0.19024494335E+02  0.00000000000E+00 0. -1.
         21   -1    0    0  502  503 -0.00000000000E+00 -0.00000000000E+00 -0.19584366394E+04  0.19584366394E+04  0.00000000000E+00 0. -1.
          6    1    1    2  501    0  0.23834053390E+02  0.20199043923E+02 -0.56142146011E+03  0.58830189474E+03  0.17300000000E+03 0. -1.
         -6    1    1    2    0  503 -0.23834053390E+02 -0.20199043923E+02 -0.13779906850E+04  0.13891592390E+04  0.17300000000E+03 0. -1.
<mgrwt>
<rscale>  2 0.17579836E+03</rscale>
<asrwt>0</asrwt>
<pdfrwt beam="1">  1       21 0.29268467E-02 0.17579836E+03</pdfrwt>
<pdfrwt beam="2">  1       21 0.30129780E+00 0.17579836E+03</pdfrwt>
<totfact> 0.22502524E+04</totfact>
</mgrwt>
</event>
<event>
 4    1  0.4382184E+000  0.1855183E+03  0.7546771E-02  0.1162567E+00
         21   -1    0    0  503  502  0.00000000000E+00  0.00000000000E+00  0.98071232142E+02  0.98071232142E+02  0.00000000000E+00 0. -1.
         21   -1    0    0  501  503 -0.00000000000E+00 -0.00000000000E+00 -0.35176421957E+03  0.35176421957E+03  0.00000000000E+00 0.  1.
          6    1    1    2  501    0 -0.66655941357E+02  0.67101666463E+01 -0.13773897987E+03  0.23106074403E+03  0.17300000000E+03 0.  1.
         -6    1    1    2    0  502  0.66655941357E+02 -0.67101666463E+01 -0.11595400756E+03  0.21877470769E+03  0.17300000000E+03 0.  1.
<mgrwt>
<rscale>  2 0.18551830E+03</rscale>
<asrwt>0</asrwt>
<pdfrwt beam="1">  1       21 0.15087882E-01 0.18551830E+03</pdfrwt>
<pdfrwt beam="2">  1       21 0.54117573E-01 0.18551830E+03</pdfrwt>
<totfact> 0.12558663E+05</totfact>
</mgrwt>
</event>
<event>
 4    1  0.4382184E+000  0.2360426E+03  0.7546771E-02  0.1122458E+00
         21   -1    0    0  501  502  0.00000000000E+00  0.00000000000E+00  0.36632982341E+03  0.36632982341E+03  0.00000000000E+00 0.  1.
         21   -1    0    0  502  503 -0.00000000000E+00 -0.00000000000E+00 -0.26556506837E+03  0.26556506837E+03  0.00000000000E+00 0.  1.
          6    1    1    2  501    0  0.14950081016E+03 -0.58622624275E+02  0.25690820437E+03  0.34888096794E+03  0.17300000000E+03 0.  1.
         -6    1    1    2    0  503 -0.14950081016E+03  0.58622624275E+02 -0.15614344933E+03  0.28301392384E+03  0.17300000000E+03 0.  1.
<mgrwt>
<rscale>  2 0.23604259E+03</rscale>
<asrwt>0</asrwt>
<pdfrwt beam="1">  1       21 0.56358435E-01 0.23604259E+03</pdfrwt>
<pdfrwt beam="2">  1       21 0.40856164E-01 0.23604259E+03</pdfrwt>
<totfact> 0.16665388E+04</totfact>
</mgrwt>
</event>
<event>
 4    1  0.4382184E+000  0.2194260E+03  0.7546771E-02  0.1134312E+00
         21   -1    0    0  501  502  0.00000000000E+00  0.00000000000E+00  0.51810510957E+03  0.51810510957E+03  0.00000000000E+00 0. -1.
         21   -1    0    0  502  503 -0.00000000000E+00 -0.00000000000E+00 -0.29410694945E+03  0.29410694945E+03  0.00000000000E+00 0. -1.
          6    1    1    2  501    0  0.11083646095E+03 -0.77032710367E+02  0.44787230103E+03  0.49873575926E+03  0.17300000000E+03 0. -1.
         -6    1    1    2    0  503 -0.11083646095E+03  0.77032710367E+02 -0.22387414090E+03  0.31347629975E+03  0.17300000000E+03 0. -1.
<mgrwt>
<rscale>  2 0.21942598E+03</rscale>
<asrwt>0</asrwt>
<pdfrwt beam="1">  1       21 0.79708479E-01 0.21942598E+03</pdfrwt>
<pdfrwt beam="2">  1       21 0.45247223E-01 0.21942598E+03</pdfrwt>
<totfact> 0.63726828E+03</totfact>
</mgrwt>
</event>
<event>
 4    1  0.4382184E+000  0.1946768E+03  0.7546771E-02  0.1154310E+00
         21   -1    0    0  501  502  0.00000000000E+00  0.00000000000E+00  0.67867102843E+03  0.67867102843E+03  0.00000000000E+00 0.  1.
         21   -1    0    0  502  503 -0.00000000000E+00 -0.00000000000E+00 -0.65521801741E+02  0.65521801741E+02  0.00000000000E+00 0.  1.
          6    1    1    2  501    0 -0.88928372570E+02 -0.78620740339E+01  0.44958645459E+03  0.48992555333E+03  0.17300000000E+03 0.  1.
         -6    1    1    2    0  503  0.88928372570E+02  0.78620740339E+01  0.16356277211E+03  0.25426727685E+03  0.17300000000E+03 0.  1.
<mgrwt>
<rscale>  2 0.19467683E+03</rscale>
<asrwt>0</asrwt>
<pdfrwt beam="1">  1       21 0.10441092E+00 0.19467683E+03</pdfrwt>
<pdfrwt beam="2">  1       21 0.10080278E-01 0.19467683E+03</pdfrwt>
<totfact> 0.59191210E+04</totfact>
</mgrwt>
</event>
<event>
 4    1  0.4382184E+000  0.2046219E+03  0.7546771E-02  0.1145897E+00
         21   -1    0    0  501  502  0.00000000000E+00  0.00000000000E+00  0.46435955753E+03  0.46435955753E+03  0.00000000000E+00 0.  1.
         21   -1    0    0  502  503 -0.00000000000E+00 -0.00000000000E+00 -0.90430110724E+02  0.90430110724E+02  0.00000000000E+00 0.  1.
          6    1    1    2  501    0 -0.10684596211E+03  0.22914403415E+02  0.20191390696E+03  0.28747061646E+03  0.17300000000E+03 0.  1.
         -6    1    1    2    0  503  0.10684596211E+03 -0.22914403415E+02  0.17201553985E+03  0.26731905179E+03  0.17300000000E+03 0.  1.
<mgrwt>
<rscale>  2 0.20462192E+03</rscale>
<asrwt>0</asrwt>
<pdfrwt beam="1">  1       21 0.71439930E-01 0.20462192E+03</pdfrwt>
<pdfrwt beam="2">  1       21 0.13912325E-01 0.20462192E+03</pdfrwt>
<totfact> 0.79246562E+04</totfact>
</mgrwt>
</event>
<event>
 4    1  0.4382184E+000  0.2701135E+03  0.7546771E-02  0.1101215E+00
         21   -1    0    0  501  502  0.00000000000E+00  0.00000000000E+00  0.96390958773E+03  0.96390958773E+03  0.00000000000E+00 0.  1.
         21   -1    0    0  502  503 -0.00000000000E+00 -0.00000000000E+00 -0.75693816650E+02  0.75693816650E+02  0.00000000000E+00 0. -1.
          6    1    1    2  501    0  0.20543888043E+03  0.28761017222E+02  0.44253755097E+03  0.51846004062E+03  0.17300000000E+03 0. -1.
         -6    1    1    2    0  503 -0.20543888043E+03 -0.28761017222E+02  0.44567822011E+03  0.52114336375E+03  0.17300000000E+03 0.  1.
<mgrwt>
<rscale>  2 0.27011355E+03</rscale>
<asrwt>0</asrwt>
<pdfrwt beam="1">  1       21 0.14829377E+00 0.27011355E+03</pdfrwt>
<pdfrwt beam="2">  1       21 0.11645203E-01 0.27011355E+03</pdfrwt>
<totfact> 0.18214395E+04</totfact>
</mgrwt>
</event>
<event>
 4    1  0.4382184E+000  0.2650709E+03  0.7546771E-02  0.1104134E+00
         21   -1    0    0  503  502  0.00000000000E+00  0.00000000000E+00  0.11051198255E+03  0.11051198255E+03  0.00000000000E+00 0. -1.
         21   -1    0    0  501  503 -0.00000000000E+00 -0.00000000000E+00 -0.64171860841E+03  0.64171860841E+03  0.00000000000E+00 0.  1.
          6    1    1    2  501    0  0.15994790800E+03  0.12145050485E+03 -0.30175070693E+03  0.40164169048E+03  0.17300000000E+03 0.  1.
         -6    1    1    2    0  502 -0.15994790800E+03 -0.12145050485E+03 -0.22945591893E+03  0.35058890047E+03  0.17300000000E+03 0. -1.
<mgrwt>
<rscale>  2 0.26507086E+03</rscale>
<asrwt>0</asrwt>
<pdfrwt beam="1">  1       21 0.17001844E-01 0.26507086E+03</pdfrwt>
<pdfrwt beam="2">  1       21 0.98725938E-01 0.26507086E+03</pdfrwt>
<totfact> 0.25417671E+04</totfact>
</mgrwt>
</event>
<event>
 4    1  0.4382184E+000  0.2600743E+03  0.7546771E-02  0.1107099E+00
         21   -1    0    0  503  502  0.00000000000E+00  0.00000000000E+00  0.79850087484E+03  0.79850087484E+03  0.00000000000E+00 0. -1.
         21   -1    0    0  501  503 -0.00000000000E+00 -0.00000000000E+00 -0.13035824161E+03  0.13035824161E+03  0.00000000000E+00 0. -1.
          6    1    1    2  501    0 -0.27771269845E+02 -0.19219365694E+03  0.59233357972E+02  0.26673439203E+03  0.17300000000E+03 0. -1.
         -6    1    1    2    0  502  0.27771269845E+02  0.19219365694E+03  0.60890927526E+03  0.66212472442E+03  0.17300000000E+03 0. -1.
<mgrwt>
<rscale>  2 0.26007431E+03</rscale>
<asrwt>0</asrwt>
<pdfrwt beam="1">  1       21 0.12284629E+00 0.26007431E+03</pdfrwt>
<pdfrwt beam="2">  1       21 0.20055115E-01 0.26007431E+03</pdfrwt>
<totfact> 0.10964112E+04</totfact>
</mgrwt>
</event>
<event>
 4    1  0.4382184E+000  0.2018031E+03  0.7546771E-02  0.1148227E+00
         21   -1    0    0  501  502  0.00000000000E+00  0.00000000000E+00  0.16677446075E+03  0.16677446075E+03  0.00000000000E+00 0. -1.
         21   -1    0    0  502  503 -0.00000000000E+00 -0.00000000000E+00 -0.96791369390E+03  0.96791369390E+03  0.00000000000E+00 0. -1.
          6    1    1    2  501    0 -0.77426272590E+02 -0.69286769699E+02  0.90016114479E+02  0.22096919470E+03  0.17300000000E+03 0. -1.
         -6    1    1    2    0  503  0.77426272590E+02  0.69286769699E+02 -0.89115534763E+03  0.91371895994E+03  0.17300000000E+03 0. -1.
<mgrwt>
<rscale>  2 0.20180308E+03</rscale>
<asrwt>0</asrwt>
<pdfrwt beam="1">  1       21 0.25657609E-01 0.20180308E+03</pdfrwt>
<pdfrwt beam="2">  1       21 0.14890980E+00 0.20180308E+03</pdfrwt>
<totfact> 0.43573726E+03</totfact>
</mgrwt>
</event>
<event>
 4    1  0.4382184E+000  0.2160354E+03  0.7546771E-02  0.1136874E+00
         21   -1    0    0  503  502  0.00000000000E+00  0.00000000000E+00  0.19484351182E+03  0.19484351182E+03  0.00000000000E+00 0.  1.
         21   -1    0    0  501  503 -0.00000000000E+00 -0.00000000000E+00 -0.83783579125E+03  0.83783579125E+03  0.00000000000E+00 0. -1.
          6    1    1    2  501    0  0.64090610060E+02  0.11240421740E+03 -0.75782786537E+03  0.78801928144E+03  0.17300000000E+03 0. -1.
         -6    1    1    2    0  502 -0.64090610060E+02 -0.11240421740E+03  0.11483558594E+03  0.24466002163E+03  0.17300000000E+03 0.  1.
<mgrwt>
<rscale>  2 0.21603545E+03</rscale>
<asrwt>0</asrwt>
<pdfrwt beam="1">  1       21 0.29975925E-01 0.21603545E+03</pdfrwt>
<pdfrwt beam="2">  1       21 0.12889781E+00 0.21603545E+03</pdfrwt>
<totfact> 0.46258634E+03</totfact>
</mgrwt>
</event>
<event>
 4    1  0.4382184E+000  0.2041313E+03  0.7546771E-02  0.1146299E+00
         21   -1    0    0  501  502  0.00000000000E+00  0.00000000000E+00  0.52980336198E+02  0.52980336198E+02  0.00000000000E+00 0. -1.
         21   -1    0    0  502  503 -0.00000000000E+00 -0.00000000000E+00 -0.82895469829E+03  0.82895469829E+03  0.00000000000E+00 0. -1.
          6    1    1    2  501    0 -0.10676626012E+03 -0.18481429777E+02 -0.28820575459E+03  0.35317439675E+03  0.17300000000E+03 0. -1.
         -6    1    1    2    0  503  0.10676626012E+03  0.18481429777E+02 -0.48776860751E+03  0.52876063774E+03  0.17300000000E+03 0. -1.
<mgrwt>
<rscale>  2 0.20413132E+03</rscale>
<asrwt>0</asrwt>
<pdfrwt beam="1">  1       21 0.81508207E-02 0.20413132E+03</pdfrwt>
<pdfrwt beam="2">  1       21 0.12753150E+00 0.20413132E+03</pdfrwt>
<totfact> 0.52372607E+04</totfact>
</mgrwt>
</event>
<event>
 4    1  0.4382184E+000  0.2306956E+03  0.7546771E-02  0.1126151E+00
         21   -1    0    0  501  502  0.00000000000E+00  0.00000000000E+00  0.13700322365E+03  0.13700322365E+03  0.00000000000E+00 0. -1.
         21   -1    0    0  502  503 -0.00000000000E+00 -0.00000000000E+00 -0.42690178138E+03  0.42690178138E+03  0.00000000000E+00 0.  1.
          6    1    1    2  501    0 -0.12889687011E+03 -0.81713298689E+02 -0.22955616691E+03  0.32544815267E+03  0.17300000000E+03 0.  1.
         -6    1    1    2    0  503  0.12889687011E+03  0.81713298689E+02 -0.60342390817E+02  0.23845685236E+03  0.17300000000E+03 0. -1.
<mgrwt>
<rscale>  2 0.23069561E+03</rscale>
<asrwt>0</asrwt>
<pdfrwt beam="1">  1       21 0.21077419E-01 0.23069561E+03</pdfrwt>
<pdfrwt beam="2">  1       21 0.65677198E-01 0.23069561E+03</pdfrwt>
<totfact> 0.43771142E+04</totfact>
</mgrwt>
</event>
<event>
 4    1  0.4382184E+000  0.2124504E+03  0.7546771E-02  0.1139640E+00
         21   -1    0    0  503  502  0.00000000000E+00  0.00000000000E+00  0.69157529786E+02  0.69157529786E+02  0.00000000000E+00 0.  1.
         21   -1    0    0  501  503 -0.00000000000E+00 -0.00000000000E+00 -0.66462311385E+03  0.66462311385E+03  0.00000000000E+00 0.  1.
          6    1    1    2  501    0  0.11702050787E+03  0.38889203385E+02 -0.24847429169E+03  0.32691687481E+03  0.17300000000E+03 0.  1.
         -6    1    1    2    0  502 -0.11702050787E+03 -0.38889203385E+02 -0.34699129237E+03  0.40686376883E+03  0.17300000000E+03 0.  1.
<mgrwt>
<rscale>  2 0.21245039E+03</rscale>
<asrwt>0</asrwt>
<pdfrwt beam="1">  1       21 0.10639620E-01 0.21245039E+03</pdfrwt>
<pdfrwt beam="2">  1       21 0.10224971E+00 0.21245039E+03</pdfrwt>
<totfact> 0.56057911E+04</totfact>
</mgrwt>
</event>
<event>
 4    1  0.4382184E+000  0.2245840E+03  0.7546771E-02  0.1130511E+00
         21   -1    0    0  501  502  0.00000000000E+00  0.00000000000E+00  0.16261712047E+03  0.16261712047E+03  0.00000000000E+00 0. -1.
         21   -1    0    0  502  503 -0.00000000000E+00 -0.00000000000E+00 -0.35626937942E+03  0.35626937942E+03  0.00000000000E+00 0. -1.
          6    1    1    2  501    0  0.41948696865E+02  0.13692804786E+03 -0.34945259688E+01  0.22461120892E+03  0.17300000000E+03 0. -1.
         -6    1    1    2    0  503 -0.41948696865E+02 -0.13692804786E+03 -0.19015773299E+03  0.29427529097E+03  0.17300000000E+03 0. -1.
<mgrwt>
<rscale>  2 0.22458402E+03</rscale>
<asrwt>0</asrwt>
<pdfrwt beam="1">  1       21 0.25018019E-01 0.22458402E+03</pdfrwt>
<pdfrwt beam="2">  1       21 0.54810673E-01 0.22458402E+03</pdfrwt>
<totfact> 0.46805113E+04</totfact>
</mgrwt>
</event>
<event>
 4    1  0.4382184E+000  0.2067103E+03  0.7546771E-02  0.1144198E+00
         21   -1    0    0  501  502  0.00000000000E+00  0.00000000000E+00  0.58672273982E+03  0.58672273982E+03  0.00000000000E+00 0.  1.
         21   -1    0    0  502  503 -0.00000000000E+00 -0.00000000000E+00 -0.84534648988E+02  0.84534648988E+02  0.00000000000E+00 0. -1.
          6    1    1    2  501    0  0.88077287987E+02  0.71010925392E+02  0.12618910603E+03  0.24218350618E+03  0.17300000000E+03 0. -1.
         -6    1    1    2    0  503 -0.88077287987E+02 -0.71010925392E+02  0.37599898479E+03  0.42907388262E+03  0.17300000000E+03 0.  1.
<mgrwt>
<rscale>  2 0.20671033E+03</rscale>
<asrwt>0</asrwt>
<pdfrwt beam="1">  1       21 0.90265034E-01 0.20671033E+03</pdfrwt>
<pdfrwt beam="2">  1       21 0.13005331E-01 0.20671033E+03</pdfrwt>
<totfact> 0.52631114E+04</totfact>
</mgrwt>
</event>
<event>
 4    1  0.4382184E+000  0.1742182E+03  0.7546771E-02  0.1173519E+00
         21   -1    0    0  501  502  0.00000000000E+00  0.00000000000E+00  0.60541498937E+03  0.60541498937E+03  0.00000000000E+00 0. -1.
         21   -1    0    0  502  503 -0.00000000000E+00 -0.00000000000E+00 -0.52209273237E+02  0.52209273237E+02  0.00000000000E+00 0. -1.
          6    1    1    2  501    0  0.20047651197E+02  0.45899557771E+01  0.34215610463E+03  0.38395673708E+03  0.17300000000E+03 0. -1.
         -6    1    1    2    0  503 -0.20047651197E+02 -0.45899557771E+01  0.21104961150E+03  0.27366752552E+03  0.17300000000E+03 0. -1.
<mgrwt>
<rscale>  2 0.17421819E+03</rscale>
<asrwt>0</asrwt>
<pdfrwt beam="1">  1       21 0.93140763E-01 0.17421819E+03</pdfrwt>
<pdfrwt beam="2">  1       21 0.80321963E-02 0.17421819E+03</pdfrwt>
<totfact> 0.11643956E+05</totfact>
</mgrwt>
</event>
<event>
 4    1  0.4382184E+000  0.2065441E+03  0.7546771E-02  0.1144332E+00
         21   -1    0    0  501  502  0.00000000000E+00  0.00000000000E+00  0.94993375601E+02  0.94993375601E+02  0.00000000000E+00 0. -1.
         21   -1    0    0  502  503 -0.00000000000E+00 -0.00000000000E+00 -0.49051473171E+03  0.49051473171E+03  0.00000000000E+00 0.  1.
          6    1    1    2  501    0 -0.93059499519E+02 -0.63807520157E+02 -0.11268360617E+03  0.23528294706E+03  0.17300000000E+03 0.  1.
         -6    1    1    2    0  503  0.93059499519E+02  0.63807520157E+02 -0.28283774994E+03  0.35022516025E+03  0.17300000000E+03 0.  1.
<mgrwt>
<rscale>  2 0.20654411E+03</rscale>
<asrwt>0</asrwt>
<pdfrwt beam="1">  1       21 0.14614365E-01 0.20654411E+03</pdfrwt>
<pdfrwt beam="2">  1       21 0.75463806E-01 0.20654411E+03</pdfrwt>
<totfact> 0.64084964E+04</totfact>
</mgrwt>
</event>
<event>
 4    1  0.4382184E+000  0.1787329E+03  0.7546771E-02  0.1169035E+00
         21   -1    0    0  501  502  0.00000000000E+00  0.00000000000E+00  0.10832204624E+03  0.10832204624E+03  0.00000000000E+00 0. -1.
         21   -1    0    0  502  503 -0.00000000000E+00 -0.00000000000E+00 -0.16670553459E+04  0.16670553459E+04  0.00000000000E+00 0. -1.
          6    1    1    2  501    0  0.30244659034E+02 -0.33192063580E+02  0.25984809001E+02  0.18061191208E+03  0.17300000000E+03 0. -1.
         -6    1    1    2    0  503 -0.30244659034E+02  0.33192063580E+02 -0.15847181087E+04  0.15947654801E+04  0.17300000000E+03 0. -1.
<mgrwt>
<rscale>  2 0.17873291E+03</rscale>
<asrwt>0</asrwt>
<pdfrwt beam="1">  1       21 0.16664932E-01 0.17873291E+03</pdfrwt>
<pdfrwt beam="2">  1       21 0.25647002E+00 0.17873291E+03</pdfrwt>
<totfact> 0.20051249E+03</totfact>
</mgrwt>
</event>
<event>
 4    1  0.4382184E+000  0.2125389E+03  0.7546771E-02  0.1139571E+00
         21   -1    0    0  501  502  0.00000000000E+00  0.00000000000E+00  0.76582692537E+03  0.76582692537E+03  0.00000000000E+00 0. -1.
         21   -1    0    0  502  503 -0.00000000000E+00 -0.00000000000E+00 -0.62072387881E+02  0.62072387881E+02  0.00000000000E+00 0. -1.
          6    1    1    2  501    0  0.11795387396E+03  0.36478407551E+02  0.44418731022E+03  0.49241766536E+03  0.17300000000E+03 0. -1.
         -6    1    1    2    0  503 -0.11795387396E+03 -0.36478407551E+02  0.25956722727E+03  0.33548164789E+03  0.17300000000E+03 0. -1.
<mgrwt>
<rscale>  2 0.21253892E+03</rscale>
<asrwt>0</asrwt>
<pdfrwt beam="1">  1       21 0.11781952E+00 0.21253892E+03</pdfrwt>
<pdfrwt beam="2">  1       21 0.95495987E-02 0.21253892E+03</pdfrwt>
<totfact> 0.48129689E+04</totfact>
</mgrwt>
</event>
<event>
 4    1  0.4382184E+000  0.2089368E+03  0.7546771E-02  0.1142411E+00
         21   -1    0    0  503  502  0.00000000000E+00  0.00000000000E+00  0.14934969382E+03  0.14934969382E+03  0.00000000000E+00 0.  1.
         21   -1    0    0  501  503 -0.00000000000E+00 -0.00000000000E+00 -0.30277204577E+03  0.30277204577E+03  0.00000000000E+00 0. -1.
          6    1    1    2  501    0  0.11370373653E+03  0.28231804746E+02 -0.11875774978E+03  0.24032889471E+03  0.17300000000E+03 0. -1.
         -6    1    1    2    0  502 -0.11370373653E+03 -0.28231804746E+02 -0.34664602170E+02  0.21179284488E+03  0.17300000000E+03 0. -1.
<mgrwt>
<rscale>  2 0.20893677E+03</rscale>
<asrwt>0</asrwt>
<pdfrwt beam="1">  1       21 0.22976876E-01 0.20893677E+03</pdfrwt>
<pdfrwt beam="2">  1       21 0.46580314E-01 0.20893677E+03</pdfrwt>
<totfact> 0.77934987E+04</totfact>
</mgrwt>
</event>
<event>
 4    1  0.4382184E+000  0.1869947E+03  0.7546771E-02  0.1161200E+00
         21   -1    0    0  501  502  0.00000000000E+00  0.00000000000E+00  0.53685374826E+03  0.53685374826E+03  0.00000000000E+00 0. -1.
         21   -1    0    0  502  503 -0.00000000000E+00 -0.00000000000E+00 -0.71033965184E+02  0.71033965184E+02  0.00000000000E+00 0. -1.
          6    1    1    2  501    0  0.70398837863E+02 -0.90575452536E+01  0.32051153402E+03  0.37107233653E+03  0.17300000000E+03 0. -1.
         -6    1    1    2    0  503 -0.70398837863E+02  0.90575452536E+01  0.14530824905E+03  0.23681537691E+03  0.17300000000E+03 0. -1.
<mgrwt>
<rscale>  2 0.18699475E+03</rscale>
<asrwt>0</asrwt>
<pdfrwt beam="1">  1       21 0.82592882E-01 0.18699475E+03</pdfrwt>
<pdfrwt beam="2">  1       21 0.10928303E-01 0.18699475E+03</pdfrwt>
<totfact> 0.88912929E+04</totfact>
</mgrwt>
</event>
<event>
 4    1  0.4382184E+000  0.1778617E+03  0.7546771E-02  0.1169889E+00
         21   -1    0    0  501  502  0.00000000000E+00  0.00000000000E+00  0.30116429325E+02  0.30116429325E+02  0.00000000000E+00 0.  1.
         21   -1    0    0  502  503 -0.00000000000E+00 -0.00000000000E+00 -0.15344158692E+04  0.15344158692E+04  0.00000000000E+00 0.  1.
          6    1    1    2  501    0 -0.16941123635E+02 -0.37666713449E+02 -0.31280484643E+03  0.35983559430E+03  0.17300000000E+03 0.  1.
         -6    1    1    2    0  503  0.16941123635E+02  0.37666713449E+02 -0.11914945935E+04  0.12046967043E+04  0.17300000000E+03 0.  1.
<mgrwt>
<rscale>  2 0.17786170E+03</rscale>
<asrwt>0</asrwt>
<pdfrwt beam="1">  1       21 0.46332968E-02 0.17786170E+03</pdfrwt>
<pdfrwt beam="2">  1       21 0.23606398E+00 0.17786170E+03</pdfrwt>
<totfact> 0.24913452E+04</totfact>
</mgrwt>
</event>
<event>
 4    1  0.4382184E+000  0.2066863E+03  0.7546771E-02  0.1144217E+00
         21   -1    0    0  503  502  0.00000000000E+00  0.00000000000E+00  0.90062704836E+02  0.90062704836E+02  0.00000000000E+00 0. -1.
         21   -1    0    0  501  503 -0.00000000000E+00 -0.00000000000E+00 -0.52507358505E+03  0.52507358505E+03  0.00000000000E+00 0. -1.
          6    1    1    2  501    0  0.11070113623E+03  0.23140104025E+02 -0.31312199526E+03  0.37518607369E+03  0.17300000000E+03 0.  1.
         -6    1    1    2    0  502 -0.11070113623E+03 -0.23140104025E+02 -0.12188888495E+03  0.23995021619E+03  0.17300000000E+03 0.  1.
<mgrwt>
<rscale>  2 0.20668625E+03</rscale>
<asrwt>0</asrwt>
<pdfrwt beam="1">  1       21 0.13855801E-01 0.20668625E+03</pdfrwt>
<pdfrwt beam="2">  1       21 0.80780551E-01 0.20668625E+03</pdfrwt>
<totfact> 0.60551638E+04</totfact>
</mgrwt>
</event>
<event>
 4    1  0.4382184E+000  0.2138651E+03  0.7546771E-02  0.1138541E+00
         21   -1    0    0  503  502  0.00000000000E+00  0.00000000000E+00  0.89619849246E+03  0.89619849246E+03  0.00000000000E+00 0.  1.
         21   -1    0    0  501  503 -0.00000000000E+00 -0.00000000000E+00 -0.58625496479E+02  0.58625496479E+02  0.00000000000E+00 0.  1.
          6    1    1    2  501    0 -0.93233805509E+02 -0.84360687656E+02  0.24701135725E+03  0.32673059043E+03  0.17300000000E+03 0.  1.
         -6    1    1    2    0  502  0.93233805509E+02  0.84360687656E+02  0.59056163873E+03  0.62809339850E+03  0.17300000000E+03 0.  1.
<mgrwt>
<rscale>  2 0.21386507E+03</rscale>
<asrwt>0</asrwt>
<pdfrwt beam="1">  1       21 0.13787668E+00 0.21386507E+03</pdfrwt>
<pdfrwt beam="2">  1       21 0.90193078E-02 0.21386507E+03</pdfrwt>
<totfact> 0.35779953E+04</totfact>
</mgrwt>
</event>
<event>
 4    1  0.4382184E+000  0.2160684E+03  0.7546771E-02  0.1136849E+00
         21   -1    0    0  501  502  0.00000000000E+00  0.00000000000E+00  0.22802604782E+03  0.22802604782E+03  0.00000000000E+00 0. -1.
         21   -1    0    0  502  503 -0.00000000000E+00 -0.00000000000E+00 -0.26786535982E+03  0.26786535982E+03  0.00000000000E+00 0.  1.
          6    1    1    2  501    0 -0.47695062414E+02  0.12034007394E+03  0.10044744376E+03  0.23827555756E+03  0.17300000000E+03 0. -1.
         -6    1    1    2    0  503  0.47695062414E+02 -0.12034007394E+03 -0.14028675575E+03  0.25761585008E+03  0.17300000000E+03 0.  1.
<mgrwt>
<rscale>  2 0.21606840E+03</rscale>
<asrwt>0</asrwt>
<pdfrwt beam="1">  1       21 0.35080930E-01 0.21606840E+03</pdfrwt>
<pdfrwt beam="2">  1       21 0.41210055E-01 0.21606840E+03</pdfrwt>
<totfact> 0.43912345E+04</totfact>
</mgrwt>
</event>
<event>
 4    1  0.4382184E+000  0.2536601E+03  0.7546771E-02  0.1111013E+00
         21   -1    0    0  501  502  0.00000000000E+00  0.00000000000E+00  0.72416251504E+03  0.72416251504E+03  0.00000000000E+00 0. -1.
         21   -1    0    0  502  503 -0.00000000000E+00 -0.00000000000E+00 -0.20767525545E+03  0.20767525545E+03  0.00000000000E+00 0. -1.
          6    1    1    2  501    0 -0.32648609568E+02 -0.18261570020E+03  0.61066993187E+03  0.66125728076E+03  0.17300000000E+03 0. -1.
         -6    1    1    2    0  503  0.32648609568E+02  0.18261570020E+03 -0.94182672275E+02  0.27058048973E+03  0.17300000000E+03 0. -1.
<mgrwt>
<rscale>  2 0.25366006E+03</rscale>
<asrwt>0</asrwt>
<pdfrwt beam="1">  1       21 0.11140962E+00 0.25366006E+03</pdfrwt>
<pdfrwt beam="2">  1       21 0.31950040E-01 0.25366006E+03</pdfrwt>
<totfact> 0.57165005E+03</totfact>
</mgrwt>
</event>
<event>
 4    1  0.4382184E+000  0.2623613E+03  0.7546771E-02  0.1105733E+00
         21   -1    0    0  501  502  0.00000000000E+00  0.00000000000E+00  0.24624071119E+03  0.24624071119E+03  0.00000000000E+00 0.  1.
         21   -1    0    0  502  503 -0.00000000000E+00 -0.00000000000E+00 -0.45313446691E+03  0.45313446691E+03  0.00000000000E+00 0. -1.
          6    1    1    2  501    0 -0.17348422275E+02 -0.19647771410E+03  0.11299336141E+03  0.28565881680E+03  0.17300000000E+03 0.  1.
         -6    1    1    2    0  503  0.17348422275E+02  0.19647771410E+03 -0.31988711713E+03  0.41371636129E+03  0.17300000000E+03 0. -1.
<mgrwt>
<rscale>  2 0.26236132E+03</rscale>
<asrwt>0</asrwt>
<pdfrwt beam="1">  1       21 0.37883186E-01 0.26236132E+03</pdfrwt>
<pdfrwt beam="2">  1       21 0.69712995E-01 0.26236132E+03</pdfrwt>
<totfact> 0.12060090E+04</totfact>
</mgrwt>
</event>
<event>
 4    1  0.4382184E+000  0.1945041E+03  0.7546771E-02  0.1154460E+00
         21   -1    0    0  501  502  0.00000000000E+00  0.00000000000E+00  0.14712336581E+03  0.14712336581E+03  0.00000000000E+00 0. -1.
         21   -1    0    0  502  503 -0.00000000000E+00 -0.00000000000E+00 -0.35822472674E+03  0.35822472674E+03  0.00000000000E+00 0. -1.
          6    1    1    2  501    0 -0.88276845707E+02 -0.10491061378E+02  0.28669378725E+02  0.19660568947E+03  0.17300000000E+03 0.  1.
         -6    1    1    2    0  503  0.88276845707E+02  0.10491061378E+02 -0.23977073966E+03  0.30874240307E+03  0.17300000000E+03 0.  1.
<mgrwt>
<rscale>  2 0.19450415E+03</rscale>
<asrwt>0</asrwt>
<pdfrwt beam="1">  1       21 0.22634364E-01 0.19450415E+03</pdfrwt>
<pdfrwt beam="2">  1       21 0.55111496E-01 0.19450415E+03</pdfrwt>
<totfact> 0.56773619E+04</totfact>
</mgrwt>
</event>
<event>
 4    1  0.4382184E+000  0.1815716E+03  0.7546771E-02  0.1166291E+00
         21   -1    0    0  501  502  0.00000000000E+00  0.00000000000E+00  0.36636672604E+03  0.36636672604E+03  0.00000000000E+00 0.  1.
         21   -1    0    0  502  503 -0.00000000000E+00 -0.00000000000E+00 -0.11277285086E+03  0.11277285086E+03  0.00000000000E+00 0.  1.
          6    1    1    2  501    0 -0.47466133421E+02 -0.28039221398E+02  0.23448378831E+03  0.29656513406E+03  0.17300000000E+03 0.  1.
         -6    1    1    2    0  503  0.47466133421E+02  0.28039221398E+02  0.19110086876E+02  0.18257444284E+03  0.17300000000E+03 0.  1.
<mgrwt>
<rscale>  2 0.18157156E+03</rscale>
<asrwt>0</asrwt>
<pdfrwt beam="1">  1       21 0.56364111E-01 0.18157156E+03</pdfrwt>
<pdfrwt beam="2">  1       21 0.17349669E-01 0.18157156E+03</pdfrwt>
<totfact> 0.89375562E+04</totfact>
</mgrwt>
</event>
<event>
 4    1  0.4382184E+000  0.2154104E+03  0.7546771E-02  0.1137352E+00
         21   -1    0    0  501  502  0.00000000000E+00  0.00000000000E+00  0.48752860898E+03  0.48752860898E+03  0.00000000000E+00 0.  1.
         21   -1    0    0  502  503 -0.00000000000E+00 -0.00000000000E+00 -0.10300081975E+03  0.10300081975E+03  0.00000000000E+00 0.  1.
          6    1    1    2  501    0  0.11588120225E+03  0.55174338729E+02  0.27363909522E+03  0.34825280347E+03  0.17300000000E+03 0.  1.
         -6    1    1    2    0  503 -0.11588120225E+03 -0.55174338729E+02  0.11088869401E+03  0.24227662526E+03  0.17300000000E+03 0.  1.
<mgrwt>
<rscale>  2 0.21541045E+03</rscale>
<asrwt>0</asrwt>
<pdfrwt beam="1">  1       21 0.75004400E-01 0.21541045E+03</pdfrwt>
<pdfrwt beam="2">  1       21 0.15846280E-01 0.21541045E+03</pdfrwt>
<totfact> 0.55812061E+04</totfact>
</mgrwt>
</event>
<event>
 4    1  0.4382184E+000  0.2408045E+03  0.7546771E-02  0.1119258E+00
         21   -1    0    0  501  502  0.00000000000E+00  0.00000000000E+00  0.63942989895E+03  0.63942989895E+03  0.00000000000E+00 0. -1.
         21   -1    0    0  502  503 -0.00000000000E+00 -0.00000000000E+00 -0.96063649029E+02  0.96063649029E+02  0.00000000000E+00 0. -1.
          6    1    1    2  501    0  0.88381501212E+02  0.14229026879E+03  0.35869910023E+03  0.43203223822E+03  0.17300000000E+03 0. -1.
         -6    1    1    2    0  503 -0.88381501212E+02 -0.14229026879E+03  0.18466714969E+03  0.30346130977E+03  0.17300000000E+03 0. -1.
<mgrwt>
<rscale>  2 0.24080451E+03</rscale>
<asrwt>0</asrwt>
<pdfrwt beam="1">  1       21 0.98373828E-01 0.24080451E+03</pdfrwt>
<pdfrwt beam="2">  1       21 0.14779023E-01 0.24080451E+03</pdfrwt>
<totfact> 0.33546022E+04</totfact>
</mgrwt>
</event>
<event>
 4    1  0.4382184E+000  0.2239292E+03  0.7546771E-02  0.1130987E+00
         21   -1    0    0  501  502  0.00000000000E+00  0.00000000000E+00  0.26475772890E+03  0.26475772890E+03  0.00000000000E+00 0. -1.
         21   -1    0    0  502  503 -0.00000000000E+00 -0.00000000000E+00 -0.32427891438E+03  0.32427891438E+03  0.00000000000E+00 0. -1.
          6    1    1    2  501    0  0.13915668660E+03  0.29166885498E+02  0.16018533991E+03  0.27532459708E+03  0.17300000000E+03 0. -1.
         -6    1    1    2    0  503 -0.13915668660E+03 -0.29166885498E+02 -0.21970652539E+03  0.31371204620E+03  0.17300000000E+03 0. -1.
<mgrwt>
<rscale>  2 0.22392921E+03</rscale>
<asrwt>0</asrwt>
<pdfrwt beam="1">  1       21 0.40731958E-01 0.22392921E+03</pdfrwt>
<pdfrwt beam="2">  1       21 0.49889064E-01 0.22392921E+03</pdfrwt>
<totfact> 0.21837320E+04</totfact>
</mgrwt>
</event>
<event>
 4    1  0.4382184E+000  0.2380335E+03  0.7546771E-02  0.1121110E+00
         21   -1    0    0  501  502  0.00000000000E+00  0.00000000000E+00  0.18995077814E+03  0.18995077814E+03  0.00000000000E+00 0. -1.
         21   -1    0    0  502  503 -0.00000000000E+00 -0.00000000000E+00 -0.35496502402E+03  0.35496502402E+03  0.00000000000E+00 0. -1.
          6    1    1    2  501    0 -0.12954431687E+03  0.99745764827E+02  0.26363814220E+02  0.23948903594E+03  0.17300000000E+03 0. -1.
         -6    1    1    2    0  503  0.12954431687E+03 -0.99745764827E+02 -0.19137806010E+03  0.30542676622E+03  0.17300000000E+03 0. -1.
<mgrwt>
<rscale>  2 0.23803350E+03</rscale>
<asrwt>0</asrwt>
<pdfrwt beam="1">  1       21 0.29223197E-01 0.23803350E+03</pdfrwt>
<pdfrwt beam="2">  1       21 0.54610003E-01 0.23803350E+03</pdfrwt>
<totfact> 0.34716212E+04</totfact>
</mgrwt>
</event>
<event>
 4    1  0.4382184E+000  0.2219191E+03  0.7546771E-02  0.1132460E+00
         21   -1    0    0  501  502  0.00000000000E+00  0.00000000000E+00  0.11424292621E+04  0.11424292621E+04  0.00000000000E+00 0.  1.
         21   -1    0    0  502  503 -0.00000000000E+00 -0.00000000000E+00 -0.75507851409E+02  0.75507851409E+02  0.00000000000E+00 0.  1.
          6    1    1    2  501    0  0.12722082257E+03  0.55981777375E+02  0.93236509682E+03  0.95841158740E+03  0.17300000000E+03 0.  1.
         -6    1    1    2    0  503 -0.12722082257E+03 -0.55981777375E+02  0.13455631385E+03  0.25952552609E+03  0.17300000000E+03 0.  1.
<mgrwt>
<rscale>  2 0.22191912E+03</rscale>
<asrwt>0</asrwt>
<pdfrwt beam="1">  1       21 0.17575834E+00 0.22191912E+03</pdfrwt>
<pdfrwt beam="2">  1       21 0.11616593E-01 0.22191912E+03</pdfrwt>
<totfact> 0.11837834E+04</totfact>
</mgrwt>
</event>
<event>
 4    1  0.4382184E+000  0.2708650E+03  0.7546771E-02  0.1100786E+00
         21   -1    0    0  503  502  0.00000000000E+00  0.00000000000E+00  0.33935383481E+03  0.33935383481E+03  0.00000000000E+00 0. -1.
         21   -1    0    0  501  503 -0.00000000000E+00 -0.00000000000E+00 -0.22116052865E+03  0.22116052865E+03  0.00000000000E+00 0. -1.
          6    1    1    2  501    0 -0.20815409756E+03 -0.10521128421E+02  0.10107529593E+03  0.28910904158E+03  0.17300000000E+03 0. -1.
         -6    1    1    2    0  502  0.20815409756E+03  0.10521128421E+02  0.17118010226E+02  0.27140532189E+03  0.17300000000E+03 0. -1.
<mgrwt>
<rscale>  2 0.27086495E+03</rscale>
<asrwt>0</asrwt>
<pdfrwt beam="1">  1       21 0.52208282E-01 0.27086495E+03</pdfrwt>
<pdfrwt beam="2">  1       21 0.34024697E-01 0.27086495E+03</pdfrwt>
<totfact> 0.27888291E+04</totfact>
</mgrwt>
</event>
<event>
 4    1  0.4382184E+000  0.1833341E+03  0.7546771E-02  0.1164615E+00
         21   -1    0    0  503  502  0.00000000000E+00  0.00000000000E+00  0.16889851058E+03  0.16889851058E+03  0.00000000000E+00 0.  1.
         21   -1    0    0  501  503 -0.00000000000E+00 -0.00000000000E+00 -0.25067022233E+03  0.25067022233E+03  0.00000000000E+00 0.  1.
          6    1    1    2  501    0  0.20364245822E+02  0.57163799408E+02 -0.13612752788E+03  0.22834646115E+03  0.17300000000E+03 0.  1.
         -6    1    1    2    0  502 -0.20364245822E+02 -0.57163799408E+02  0.54355816133E+02  0.19122227176E+03  0.17300000000E+03 0.  1.
<mgrwt>
<rscale>  2 0.18333413E+03</rscale>
<asrwt>0</asrwt>
<pdfrwt beam="1">  1       21 0.25984386E-01 0.18333413E+03</pdfrwt>
<pdfrwt beam="2">  1       21 0.38564649E-01 0.18333413E+03</pdfrwt>
<totfact> 0.91542569E+04</totfact>
</mgrwt>
</event>
<event>
 4    1  0.4382184E+000  0.2550111E+03  0.7546771E-02  0.1110178E+00
         21   -1    0    0  503  502  0.00000000000E+00  0.00000000000E+00  0.11627935922E+03  0.11627935922E+03  0.00000000000E+00 0. -1.
         21   -1    0    0  501  503 -0.00000000000E+00 -0.00000000000E+00 -0.61586376342E+03  0.61586376342E+03  0.00000000000E+00 0. -1.
          6    1    1    2  501    0 -0.14256348401E+03  0.12156196110E+03 -0.36077039402E+03  0.44179852259E+03  0.17300000000E+03 0. -1.
         -6    1    1    2    0  502  0.14256348401E+03 -0.12156196110E+03 -0.13881401018E+03  0.29034460006E+03  0.17300000000E+03 0. -1.
<mgrwt>
<rscale>  2 0.25501109E+03</rscale>
<asrwt>0</asrwt>
<pdfrwt beam="1">  1       21 0.17889133E-01 0.25501109E+03</pdfrwt>
<pdfrwt beam="2">  1       21 0.94748269E-01 0.25501109E+03</pdfrwt>
<totfact> 0.25612300E+04</totfact>
</mgrwt>
</event>
<event>
 4    1  0.4382184E+000  0.1833314E+03  0.7546771E-02  0.1164617E+00
         21   -1    0    0  503  502  0.00000000000E+00  0.00000000000E+00  0.44886222790E+03  0.44886222790E+03  0.00000000000E+00 0.  1.
         21   -1    0    0  501  503 -0.00000000000E+00 -0.00000000000E+00 -0.12534874545E+03  0.12534874545E+03  0.00000000000E+00 0.  1.
          6    1    1    2  501    0  0.60266970735E+02 -0.70201698982E+01 -0.20421586155E+02  0.18446525886E+03  0.17300000000E+03 0.  1.
         -6    1    1    2    0  502 -0.60266970735E+02  0.70201698982E+01  0.34393506860E+03  0.38974571449E+03  0.17300000000E+03 0.  1.
<mgrwt>
<rscale>  2 0.18333137E+03</rscale>
<asrwt>0</asrwt>
<pdfrwt beam="1">  1       21 0.69055727E-01 0.18333137E+03</pdfrwt>
<pdfrwt beam="2">  1       21 0.19284423E-01 0.18333137E+03</pdfrwt>
<totfact> 0.47380322E+04</totfact>
</mgrwt>
</event>
<event>
 4    1  0.4382184E+000  0.1961495E+03  0.7546771E-02  0.1153029E+00
         21   -1    0    0  501  502  0.00000000000E+00  0.00000000000E+00  0.26519523837E+03  0.26519523837E+03  0.00000000000E+00 0.  1.
         21   -1    0    0  502  503 -0.00000000000E+00 -0.00000000000E+00 -0.25644151734E+03  0.25644151734E+03  0.00000000000E+00 0. -1.
          6    1    1    2  501    0  0.86603093442E+01 -0.92036014543E+02  0.17625111507E+03  0.26370264408E+03  0.17300000000E+03 0.  1.
         -6    1    1    2    0  503 -0.86603093442E+01  0.92036014543E+02 -0.16749739404E+03  0.25793411163E+03  0.17300000000E+03 0. -1.
<mgrwt>
<rscale>  2 0.19614951E+03</rscale>
<asrwt>0</asrwt>
<pdfrwt beam="1">  1       21 0.40799268E-01 0.19614951E+03</pdfrwt>
<pdfrwt beam="2">  1       21 0.39452541E-01 0.19614951E+03</pdfrwt>
<totfact> 0.35777296E+04</totfact>
</mgrwt>
</event>
<event>
 4    1  0.4382184E+000  0.2307995E+03  0.7546771E-02  0.1126078E+00
         21   -1    0    0  501  502  0.00000000000E+00  0.00000000000E+00  0.61423661402E+03  0.61423661402E+03  0.00000000000E+00 0. -1.
         21   -1    0    0  502  503 -0.00000000000E+00 -0.00000000000E+00 -0.11643470456E+03  0.11643470456E+03  0.00000000000E+00 0. -1.
          6    1    1    2  501    0  0.46699094683E+02 -0.14546000252E+03  0.43345132139E+03  0.49106869763E+03  0.17300000000E+03 0. -1.
         -6    1    1    2    0  503 -0.46699094683E+02  0.14546000252E+03  0.64350588062E+02  0.23960262094E+03  0.17300000000E+03 0. -1.
<mgrwt>
<rscale>  2 0.23079952E+03</rscale>
<asrwt>0</asrwt>
<pdfrwt beam="1">  1       21 0.94497939E-01 0.23079952E+03</pdfrwt>
<pdfrwt beam="2">  1       21 0.17913032E-01 0.23079952E+03</pdfrwt>
<totfact> 0.26011522E+04</totfact>
</mgrwt>
</event>
<event>
 4    1  0.4382184E+000  0.2055033E+03  0.7546771E-02  0.1145177E+00
         21   -1    0    0  503  502  0.00000000000E+00  0.00000000000E+00  0.67185054859E+03  0.67185054859E+03  0.00000000000E+00 0. -1.
         21   -1    0    0  501  503 -0.00000000000E+00 -0.00000000000E+00 -0.69417448281E+02  0.69417448281E+02  0.00000000000E+00 0.  1.
          6    1    1    2  501    0  0.97245144894E+02  0.53347617046E+02  0.18729007834E+03  0.27804524792E+03  0.17300000000E+03 0.  1.
         -6    1    1    2    0  502 -0.97245144894E+02 -0.53347617046E+02  0.41514302197E+03  0.46322274895E+03  0.17300000000E+03 0. -1.
<mgrwt>
<rscale>  2 0.20550325E+03</rscale>
<asrwt>0</asrwt>
<pdfrwt beam="1">  1       21 0.10336162E+00 0.20550325E+03</pdfrwt>
<pdfrwt beam="2">  1       21 0.10679608E-01 0.20550325E+03</pdfrwt>
<totfact> 0.54443865E+04</totfact>
</mgrwt>
</event>
<event>
 4    1  0.4382184E+000  0.1982620E+03  0.7546771E-02  0.1151214E+00
         21   -1    0    0  501  502  0.00000000000E+00  0.00000000000E+00  0.25977047300E+03  0.25977047300E+03  0.00000000000E+00 0. -1.
         21   -1    0    0  502  503 -0.00000000000E+00 -0.00000000000E+00 -0.26481661992E+03  0.26481661992E+03  0.00000000000E+00 0.  1.
          6    1    1    2  501    0  0.61132832810E+02  0.75110675021E+02  0.16919305932E+03  0.26064176195E+03  0.17300000000E+03 0. -1.
         -6    1    1    2    0  503 -0.61132832810E+02 -0.75110675021E+02 -0.17423920624E+03  0.26394533097E+03  0.17300000000E+03 0.  1.
<mgrwt>
<rscale>  2 0.19826204E+03</rscale>
<asrwt>0</asrwt>
<pdfrwt beam="1">  1       21 0.39964688E-01 0.19826204E+03</pdfrwt>
<pdfrwt beam="2">  1       21 0.40741019E-01 0.19826204E+03</pdfrwt>
<totfact> 0.34918469E+04</totfact>
</mgrwt>
</event>
<event>
 4    1  0.4382184E+000  0.2177807E+03  0.7546771E-02  0.1135548E+00
         21   -1    0    0  503  502  0.00000000000E+00  0.00000000000E+00  0.24045122974E+03  0.24045122974E+03  0.00000000000E+00 0. -1.
         21   -1    0    0  501  503 -0.00000000000E+00 -0.00000000000E+00 -0.38826655546E+03  0.38826655546E+03  0.00000000000E+00 0.  1.
          6    1    1    2  501    0 -0.13227975910E+03  0.12300301252E+01 -0.29440274056E+03  0.36619860908E+03  0.17300000000E+03 0.  1.
         -6    1    1    2    0  502  0.13227975910E+03 -0.12300301252E+01  0.14658741483E+03  0.26251917612E+03  0.17300000000E+03 0. -1.
<mgrwt>
<rscale>  2 0.21778073E+03</rscale>
<asrwt>0</asrwt>
<pdfrwt beam="1">  1       21 0.36992497E-01 0.21778073E+03</pdfrwt>
<pdfrwt beam="2">  1       21 0.59733316E-01 0.21778073E+03</pdfrwt>
<totfact> 0.18162639E+04</totfact>
</mgrwt>
</event>
<event>
 4    1  0.4382184E+000  0.2654201E+03  0.7546771E-02  0.1103930E+00
         21   -1    0    0  501  502  0.00000000000E+00  0.00000000000E+00  0.10570897665E+04  0.10570897665E+04  0.00000000000E+00 0.  1.
         21   -1    0    0  502  503 -0.00000000000E+00 -0.00000000000E+00 -0.71719158092E+02  0.71719158092E+02  0.00000000000E+00 0. -1.
          6    1    1    2  501    0  0.12692369686E+03  0.15623447080E+03  0.34253290796E+03  0.43333200635E+03  0.17300000000E+03 0. -1.
         -6    1    1    2    0  503 -0.12692369686E+03 -0.15623447080E+03  0.64283770046E+03  0.69547691826E+03  0.17300000000E+03 0.  1.
<mgrwt>
<rscale>  2 0.26542011E+03</rscale>
<asrwt>0</asrwt>
<pdfrwt beam="1">  1       21 0.16262918E+00 0.26542011E+03</pdfrwt>
<pdfrwt beam="2">  1       21 0.11033717E-01 0.26542011E+03</pdfrwt>
<totfact> 0.15678161E+04</totfact>
</mgrwt>
</event>
<event>
 4    1  0.4382184E+000  0.1745061E+03  0.7546771E-02  0.1173229E+00
         21   -1    0    0  503  502  0.00000000000E+00  0.00000000000E+00  0.16143335545E+03  0.16143335545E+03  0.00000000000E+00 0. -1.
         21   -1    0    0  501  503 -0.00000000000E+00 -0.00000000000E+00 -0.19018507709E+03  0.19018507709E+03  0.00000000000E+00 0. -1.
          6    1    1    2  501    0  0.16840311797E+02 -0.15484925263E+02 -0.30235175335E+02  0.17710602711E+03  0.17300000000E+03 0. -1.
         -6    1    1    2    0  502 -0.16840311797E+02  0.15484925263E+02  0.14834536903E+01  0.17451240542E+03  0.17300000000E+03 0. -1.
<mgrwt>
<rscale>  2 0.17450610E+03</rscale>
<asrwt>0</asrwt>
<pdfrwt beam="1">  1       21 0.24835901E-01 0.17450610E+03</pdfrwt>
<pdfrwt beam="2">  1       21 0.29259242E-01 0.17450610E+03</pdfrwt>
<totfact> 0.17254995E+05</totfact>
</mgrwt>
</event>
<event>
 4    1  0.4382184E+000  0.2256933E+03  0.7546771E-02  0.1129708E+00
         21   -1    0    0  501  502  0.00000000000E+00  0.00000000000E+00  0.18267700715E+03  0.18267700715E+03  0.00000000000E+00 0.  1.
         21   -1    0    0  502  503 -0.00000000000E+00 -0.00000000000E+00 -0.59001924808E+03  0.59001924808E+03  0.00000000000E+00 0.  1.
          6    1    1    2  501    0  0.12186503313E+03  0.78468865184E+02  0.76905725169E+02  0.23843644786E+03  0.17300000000E+03 0.  1.
         -6    1    1    2    0  503 -0.12186503313E+03 -0.78468865184E+02 -0.48424796610E+03  0.53425980738E+03  0.17300000000E+03 0.  1.
<mgrwt>
<rscale>  2 0.22569326E+03</rscale>
<asrwt>0</asrwt>
<pdfrwt beam="1">  1       21 0.28104156E-01 0.22569326E+03</pdfrwt>
<pdfrwt beam="2">  1       21 0.90772190E-01 0.22569326E+03</pdfrwt>
<totfact> 0.12196141E+04</totfact>
</mgrwt>
</event>
<event>
 4    1  0.4382184E+000  0.1846142E+03  0.7546771E-02  0.1163411E+00
         21   -1    0    0  501  502  0.00000000000E+00  0.00000000000E+00  0.60415507773E+02  0.60415507773E+02  0.00000000000E+00 0.  1.
         21   -1    0    0  502  503 -0.00000000000E+00 -0.00000000000E+00 -0.78432152108E+03  0.78432152108E+03  0.00000000000E+00 0.  1.
          6    1    1    2  501    0 -0.52119317502E+02 -0.37907390859E+02 -0.13816252379E+03  0.23058897744E+03  0.17300000000E+03 0.  1.
         -6    1    1    2    0  503  0.52119317502E+02  0.37907390859E+02 -0.58574348952E+03  0.61414805141E+03  0.17300000000E+03 0.  1.
<mgrwt>
<rscale>  2 0.18461417E+03</rscale>
<asrwt>0</asrwt>
<pdfrwt beam="1">  1       21 0.92946937E-02 0.18461417E+03</pdfrwt>
<pdfrwt beam="2">  1       21 0.12066485E+00 0.18461417E+03</pdfrwt>
<totfact> 0.48286248E+04</totfact>
</mgrwt>
</event>
<event>
 4    1  0.4382184E+000  0.1943632E+03  0.7546771E-02  0.1154584E+00
         21   -1    0    0  501  502  0.00000000000E+00  0.00000000000E+00  0.24717766428E+03  0.24717766428E+03  0.00000000000E+00 0. -1.
         21   -1    0    0  502  503 -0.00000000000E+00 -0.00000000000E+00 -0.19326714844E+03  0.19326714844E+03  0.00000000000E+00 0. -1.
          6    1    1    2  501    0  0.87102243117E+02 -0.16163862959E+02  0.12768390503E+03  0.23255160895E+03  0.17300000000E+03 0. -1.
         -6    1    1    2    0  503 -0.87102243117E+02  0.16163862959E+02 -0.73773389183E+02  0.20789320377E+03  0.17300000000E+03 0. -1.
<mgrwt>
<rscale>  2 0.19436325E+03</rscale>
<asrwt>0</asrwt>
<pdfrwt beam="1">  1       21 0.38027333E-01 0.19436325E+03</pdfrwt>
<pdfrwt beam="2">  1       21 0.29733407E-01 0.19436325E+03</pdfrwt>
<totfact> 0.72262025E+04</totfact>
</mgrwt>
</event>
<event>
 4    1  0.4382184E+000  0.3053962E+03  0.7546771E-02  0.1082574E+00
         21   -1    0    0  503  502  0.00000000000E+00  0.00000000000E+00  0.12285315796E+03  0.12285315796E+03  0.00000000000E+00 0. -1.
         21   -1    0    0  501  503 -0.00000000000E+00 -0.00000000000E+00 -0.81709975789E+03  0.81709975789E+03  0.00000000000E+00 0. -1.
          6    1    1    2  501    0 -0.21169106922E+03 -0.13610564091E+03 -0.47225764730E+03  0.56240033758E+03  0.17300000000E+03 0. -1.
         -6    1    1    2    0  502  0.21169106922E+03  0.13610564091E+03 -0.22198895263E+03  0.37755257828E+03  0.17300000000E+03 0. -1.
<mgrwt>
<rscale>  2 0.30539623E+03</rscale>
<asrwt>0</asrwt>
<pdfrwt beam="1">  1       21 0.18900487E-01 0.30539623E+03</pdfrwt>
<pdfrwt beam="2">  1       21 0.12570765E+00 0.30539623E+03</pdfrwt>
<totfact> 0.11303988E+04</totfact>
</mgrwt>
</event>
<event>
 4    1  0.4382184E+000  0.1832554E+03  0.7546771E-02  0.1164689E+00
         21   -1    0    0  501  502  0.00000000000E+00  0.00000000000E+00  0.13022371062E+04  0.13022371062E+04  0.00000000000E+00 0.  1.
         21   -1    0    0  502  503 -0.00000000000E+00 -0.00000000000E+00 -0.33731408178E+02  0.33731408178E+02  0.00000000000E+00 0.  1.
          6    1    1    2  501    0  0.13892427693E+02 -0.58826267622E+02  0.95840075420E+03  0.97576356509E+03  0.17300000000E+03 0.  1.
         -6    1    1    2    0  503 -0.13892427693E+02  0.58826267622E+02  0.31010494385E+03  0.36020494931E+03  0.17300000000E+03 0.  1.
<mgrwt>
<rscale>  2 0.18325537E+03</rscale>
<asrwt>0</asrwt>
<pdfrwt beam="1">  1       21 0.20034413E+00 0.18325537E+03</pdfrwt>
<pdfrwt beam="2">  1       21 0.51894484E-02 0.18325537E+03</pdfrwt>
<totfact> 0.33959808E+04</totfact>
</mgrwt>
</event>
<event>
 4    1  0.4382184E+000  0.2221453E+03  0.7546771E-02  0.1132294E+00
         21   -1    0    0  501  502  0.00000000000E+00  0.00000000000E+00  0.27503746051E+03  0.27503746051E+03  0.00000000000E+00 0.  1.
         21   -1    0    0  502  503 -0.00000000000E+00 -0.00000000000E+00 -0.20874362924E+03  0.20874362924E+03  0.00000000000E+00 0. -1.
          6    1    1    2  501    0 -0.15823826248E+02 -0.13845261023E+03 -0.57506922937E+02  0.22946800418E+03  0.17300000000E+03 0. -1.
         -6    1    1    2    0  503  0.15823826248E+02  0.13845261023E+03  0.12380075421E+03  0.25431308558E+03  0.17300000000E+03 0.  1.
<mgrwt>
<rscale>  2 0.22214526E+03</rscale>
<asrwt>0</asrwt>
<pdfrwt beam="1">  1       21 0.42313455E-01 0.22214526E+03</pdfrwt>
<pdfrwt beam="2">  1       21 0.32114404E-01 0.22214526E+03</pdfrwt>
<totfact> 0.49430630E+04</totfact>
</mgrwt>
</event>
<event>
 4    1  0.4382184E+000  0.1897119E+03  0.7546771E-02  0.1158721E+00
         21   -1    0    0  503  502  0.00000000000E+00  0.00000000000E+00  0.47263184263E+03  0.47263184263E+03  0.00000000000E+00 0. -1.
         21   -1    0    0  501  503 -0.00000000000E+00 -0.00000000000E+00 -0.79834022198E+02  0.79834022198E+02  0.00000000000E+00 0. -1.
          6    1    1    2  501    0  0.49166046146E+01  0.77700904653E+02  0.25574353367E+03  0.31842637862E+03  0.17300000000E+03 0. -1.
         -6    1    1    2    0  502 -0.49166046146E+01 -0.77700904653E+02  0.13705428675E+03  0.23403948620E+03  0.17300000000E+03 0. -1.
<mgrwt>
<rscale>  2 0.18971190E+03</rscale>
<asrwt>0</asrwt>
<pdfrwt beam="1">  1       21 0.72712589E-01 0.18971190E+03</pdfrwt>
<pdfrwt beam="2">  1       21 0.12282158E-01 0.18971190E+03</pdfrwt>
<totfact> 0.95999266E+04</totfact>
</mgrwt>
</event>
<event>
 4    1  0.4382184E+000  0.1778717E+03  0.7546771E-02  0.1169879E+00
         21   -1    0    0  501  502  0.00000000000E+00  0.00000000000E+00  0.23054669702E+02  0.23054669702E+02  0.00000000000E+00 0. -1.
         21   -1    0    0  502  503 -0.00000000000E+00 -0.00000000000E+00 -0.13830936213E+04  0.13830936213E+04  0.00000000000E+00 0. -1.
          6    1    1    2  501    0 -0.42491460179E+01 -0.41125453415E+02 -0.61796414935E+03  0.64305368986E+03  0.17300000000E+03 0. -1.
         -6    1    1    2    0  503  0.42491460179E+01  0.41125453415E+02 -0.74207480224E+03  0.76309460114E+03  0.17300000000E+03 0. -1.
<mgrwt>
<rscale>  2 0.17787175E+03</rscale>
<asrwt>0</asrwt>
<pdfrwt beam="1">  1       21 0.35468730E-02 0.17787175E+03</pdfrwt>
<pdfrwt beam="2">  1       21 0.21278359E+00 0.17787175E+03</pdfrwt>
<totfact> 0.53953042E+04</totfact>
</mgrwt>
</event>
<event>
 4    1  0.4382184E+000  0.2136071E+03  0.7546771E-02  0.1138741E+00
         21   -1    0    0  503  502  0.00000000000E+00  0.00000000000E+00  0.84696221968E+03  0.84696221968E+03  0.00000000000E+00 0. -1.
         21   -1    0    0  501  503 -0.00000000000E+00 -0.00000000000E+00 -0.30827137583E+03  0.30827137583E+03  0.00000000000E+00 0. -1.
          6    1    1    2  501    0  0.11167515715E+03 -0.56812336276E+02 -0.25537842025E+03  0.33293560910E+03  0.17300000000E+03 0. -1.
         -6    1    1    2    0  502 -0.11167515715E+03  0.56812336276E+02  0.79406926410E+03  0.82229798642E+03  0.17300000000E+03 0. -1.
<mgrwt>
<rscale>  2 0.21360707E+03</rscale>
<asrwt>0</asrwt>
<pdfrwt beam="1">  1       21 0.13030188E+00 0.21360707E+03</pdfrwt>
<pdfrwt beam="2">  1       21 0.47426366E-01 0.21360707E+03</pdfrwt>
<totfact> 0.17924534E+03</totfact>
</mgrwt>
</event>
<event>
 4    1  0.4382184E+000  0.2051570E+03  0.7546771E-02  0.1145460E+00
         21   -1    0    0  501  502  0.00000000000E+00  0.00000000000E+00  0.52227310270E+02  0.52227310270E+02  0.00000000000E+00 0. -1.
         21   -1    0    0  502  503 -0.00000000000E+00 -0.00000000000E+00 -0.11869241778E+04  0.11869241778E+04  0.00000000000E+00 0. -1.
          6    1    1    2  501    0 -0.46577954977E+02  0.99954531584E+02 -0.91839559156E+03  0.94103128368E+03  0.17300000000E+03 0. -1.
         -6    1    1    2    0  503  0.46577954977E+02 -0.99954531584E+02 -0.21630127595E+03  0.29812020437E+03  0.17300000000E+03 0. -1.
<mgrwt>
<rscale>  2 0.20515705E+03</rscale>
<asrwt>0</asrwt>
<pdfrwt beam="1">  1       21 0.80349715E-02 0.20515705E+03</pdfrwt>
<pdfrwt beam="2">  1       21 0.18260370E+00 0.20515705E+03</pdfrwt>
<totfact> 0.20621655E+04</totfact>
</mgrwt>
</event>
<event>
 4    1  0.4382184E+000  0.2439892E+03  0.7546771E-02  0.1117163E+00
         21   -1    0    0  501  502  0.00000000000E+00  0.00000000000E+00  0.13208187931E+03  0.13208187931E+03  0.00000000000E+00 0.  1.
         21   -1    0    0  502  503 -0.00000000000E+00 -0.00000000000E+00 -0.45071502697E+03  0.45071502697E+03  0.00000000000E+00 0.  1.
          6    1    1    2  501    0 -0.17042210288E+03 -0.23623097683E+02 -0.15843577633E+03  0.29091689383E+03  0.17300000000E+03 0.  1.
         -6    1    1    2    0  503  0.17042210288E+03  0.23623097683E+02 -0.16019737133E+03  0.29188001246E+03  0.17300000000E+03 0.  1.
<mgrwt>
<rscale>  2 0.24398923E+03</rscale>
<asrwt>0</asrwt>
<pdfrwt beam="1">  1       21 0.20320290E-01 0.24398923E+03</pdfrwt>
<pdfrwt beam="2">  1       21 0.69340772E-01 0.24398923E+03</pdfrwt>
<totfact> 0.41368746E+04</totfact>
</mgrwt>
</event>
<event>
 4    1  0.4382184E+000  0.2135509E+03  0.7546771E-02  0.1138784E+00
         21   -1    0    0  503  502  0.00000000000E+00  0.00000000000E+00  0.47469864980E+02  0.47469864980E+02  0.00000000000E+00 0. -1.
         21   -1    0    0  501  503 -0.00000000000E+00 -0.00000000000E+00 -0.12802350682E+04  0.12802350682E+04  0.00000000000E+00 0.  1.
          6    1    1    2  501    0  0.10534712595E+03 -0.67653440086E+02 -0.94804038358E+03  0.97179451212E+03  0.17300000000E+03 0.  1.
         -6    1    1    2    0  502 -0.10534712595E+03  0.67653440086E+02 -0.28472481968E+03  0.35591042110E+03  0.17300000000E+03 0.  1.
<mgrwt>
<rscale>  2 0.21355094E+03</rscale>
<asrwt>0</asrwt>
<pdfrwt beam="1">  1       21 0.73030564E-02 0.21355094E+03</pdfrwt>
<pdfrwt beam="2">  1       21 0.19695923E+00 0.21355094E+03</pdfrwt>
<totfact> 0.19443466E+04</totfact>
</mgrwt>
</event>
<event>
 4    1  0.4382184E+000  0.1907707E+03  0.7546771E-02  0.1157768E+00
         21   -1    0    0  501  502  0.00000000000E+00  0.00000000000E+00  0.50464359077E+03  0.50464359077E+03  0.00000000000E+00 0.  1.
         21   -1    0    0  502  503 -0.00000000000E+00 -0.00000000000E+00 -0.11127562027E+03  0.11127562027E+03  0.00000000000E+00 0. -1.
          6    1    1    2  501    0  0.73504829668E+02  0.32580638608E+02  0.37937054459E+03  0.42463568868E+03  0.17300000000E+03 0.  1.
         -6    1    1    2    0  503 -0.73504829668E+02 -0.32580638608E+02  0.13997425907E+02  0.19128352237E+03  0.17300000000E+03 0. -1.
<mgrwt>
<rscale>  2 0.19077069E+03</rscale>
<asrwt>0</asrwt>
<pdfrwt beam="1">  1       21 0.77637475E-01 0.19077069E+03</pdfrwt>
<pdfrwt beam="2">  1       21 0.17119326E-01 0.19077069E+03</pdfrwt>
<totfact> 0.45362106E+04</totfact>
</mgrwt>
</event>
<event>
 4    1  0.4382184E+000  0.1828089E+03  0.7546771E-02  0.1165112E+00
         21   -1    0    0  503  502  0.00000000000E+00  0.00000000000E+00  0.10297006962E+03  0.10297006962E+03  0.00000000000E+00 0. -1.
         21   -1    0    0  501  503 -0.00000000000E+00 -0.00000000000E+00 -0.33143066398E+03  0.33143066398E+03  0.00000000000E+00 0. -1.
          6    1    1    2  501    0 -0.46319075319E+02  0.36669226688E+02 -0.82938353453E+02  0.20074326738E+03  0.17300000000E+03 0. -1.
         -6    1    1    2    0  502  0.46319075319E+02 -0.36669226688E+02 -0.14552224090E+03  0.23365746622E+03  0.17300000000E+03 0. -1.
<mgrwt>
<rscale>  2 0.18280889E+03</rscale>
<asrwt>0</asrwt>
<pdfrwt beam="1">  1       21 0.15841549E-01 0.18280889E+03</pdfrwt>
<pdfrwt beam="2">  1       21 0.50989332E-01 0.18280889E+03</pdfrwt>
<totfact> 0.13031950E+05</totfact>
</mgrwt>
</event>
<event>
 4    1  0.4382184E+000  0.2012172E+03  0.7546771E-02  0.1148716E+00
         21   -1    0    0  503  502  0.00000000000E+00  0.00000000000E+00  0.83439138343E+02  0.83439138343E+02  0.00000000000E+00 0.  1.
         21   -1    0    0  501  503 -0.00000000000E+00 -0.00000000000E+00 -0.49766575499E+03  0.49766575499E+03  0.00000000000E+00 0. -1.
          6    1    1    2  501    0 -0.39234585009E+02  0.94973625532E+02 -0.25301692836E+03  0.32327373578E+03  0.17300000000E+03 0. -1.
         -6    1    1    2    0  502  0.39234585009E+02 -0.94973625532E+02 -0.16120968829E+03  0.25783115755E+03  0.17300000000E+03 0. -1.
<mgrwt>
<rscale>  2 0.20121715E+03</rscale>
<asrwt>0</asrwt>
<pdfrwt beam="1">  1       21 0.12836791E-01 0.20121715E+03</pdfrwt>
<pdfrwt beam="2">  1       21 0.76563960E-01 0.20121715E+03</pdfrwt>
<totfact> 0.78645076E+04</totfact>
</mgrwt>
</event>
<event>
 4    1  0.4382184E+000  0.1782630E+03  0.7546771E-02  0.1169495E+00
         21   -1    0    0  503  502  0.00000000000E+00  0.00000000000E+00  0.42639042393E+02  0.42639042393E+02  0.00000000000E+00 0.  1.
         21   -1    0    0  501  503 -0.00000000000E+00 -0.00000000000E+00 -0.11015012581E+04  0.11015012581E+04  0.00000000000E+00 0.  1.
          6    1    1    2  501    0 -0.42800470314E+02 -0.41017626420E+01 -0.85475899413E+03  0.87314983981E+03  0.17300000000E+03 0.  1.
         -6    1    1    2    0  502  0.42800470314E+02  0.41017626420E+01 -0.20410322153E+03  0.27099046063E+03  0.17300000000E+03 0.  1.
<mgrwt>
<rscale>  2 0.17826302E+03</rscale>
<asrwt>0</asrwt>
<pdfrwt beam="1">  1       21 0.65598532E-02 0.17826302E+03</pdfrwt>
<pdfrwt beam="2">  1       21 0.16946172E+00 0.17826302E+03</pdfrwt>
<totfact> 0.36752376E+04</totfact>
</mgrwt>
</event>
<event>
 4    1  0.4382184E+000  0.1916948E+03  0.7546771E-02  0.1156942E+00
         21   -1    0    0  501  502  0.00000000000E+00  0.00000000000E+00  0.46090393959E+03  0.46090393959E+03  0.00000000000E+00 0. -1.
         21   -1    0    0  502  503 -0.00000000000E+00 -0.00000000000E+00 -0.19617462251E+03  0.19617462251E+03  0.00000000000E+00 0. -1.
          6    1    1    2  501    0 -0.75690006476E+02  0.32998988845E+02  0.38548642666E+03  0.43051910002E+03  0.17300000000E+03 0. -1.
         -6    1    1    2    0  503  0.75690006476E+02 -0.32998988845E+02 -0.12075710957E+03  0.22655946208E+03  0.17300000000E+03 0. -1.
<mgrwt>
<rscale>  2 0.19169484E+03</rscale>
<asrwt>0</asrwt>
<pdfrwt beam="1">  1       21 0.70908298E-01 0.19169484E+03</pdfrwt>
<pdfrwt beam="2">  1       21 0.30180711E-01 0.19169484E+03</pdfrwt>
<totfact> 0.18979451E+04</totfact>
</mgrwt>
</event>
<event>
 4    1  0.4382184E+000  0.1883132E+03  0.7546771E-02  0.1159992E+00
         21   -1    0    0  501  502  0.00000000000E+00  0.00000000000E+00  0.30748336510E+03  0.30748336510E+03  0.00000000000E+00 0.  1.
         21   -1    0    0  502  503 -0.00000000000E+00 -0.00000000000E+00 -0.15723387840E+04  0.15723387840E+04  0.00000000000E+00 0.  1.
          6    1    1    2  501    0  0.42042590181E+02  0.61361745409E+02  0.27235624804E+03  0.33111896508E+03  0.17300000000E+03 0.  1.
         -6    1    1    2    0  503 -0.42042590181E+02 -0.61361745409E+02 -0.15372116669E+04  0.15487031840E+04  0.17300000000E+03 0.  1.
<mgrwt>
<rscale>  2 0.18831315E+03</rscale>
<asrwt>0</asrwt>
<pdfrwt beam="1">  1       21 0.47305134E-01 0.18831315E+03</pdfrwt>
<pdfrwt beam="2">  1       21 0.24189827E+00 0.18831315E+03</pdfrwt>
<totfact> 0.31928317E+02</totfact>
</mgrwt>
</event>
<event>
 4    1  0.4382184E+000  0.2028492E+03  0.7546771E-02  0.1147357E+00
         21   -1    0    0  503  502  0.00000000000E+00  0.00000000000E+00  0.27741169990E+03  0.27741169990E+03  0.00000000000E+00 0. -1.
         21   -1    0    0  501  503 -0.00000000000E+00 -0.00000000000E+00 -0.28838459938E+03  0.28838459938E+03  0.00000000000E+00 0. -1.
          6    1    1    2  501    0 -0.47509572309E+02 -0.94666029489E+02 -0.20263630205E+03  0.28672162023E+03  0.17300000000E+03 0. -1.
         -6    1    1    2    0  502  0.47509572309E+02  0.94666029489E+02  0.19166340256E+03  0.27907467904E+03  0.17300000000E+03 0. -1.
<mgrwt>
<rscale>  2 0.20284925E+03</rscale>
<asrwt>0</asrwt>
<pdfrwt beam="1">  1       21 0.42678723E-01 0.20284925E+03</pdfrwt>
<pdfrwt beam="2">  1       21 0.44366861E-01 0.20284925E+03</pdfrwt>
<totfact> 0.25613599E+04</totfact>
</mgrwt>
</event>
<event>
 4    1  0.4382184E+000  0.2990002E+03  0.7546771E-02  0.1085741E+00
         21   -1    0    0  503  502  0.00000000000E+00  0.00000000000E+00  0.36257577408E+03  0.36257577408E+03  0.00000000000E+00 0.  1.
         21   -1    0    0  501  503 -0.00000000000E+00 -0.00000000000E+00 -0.36382262511E+03  0.36382262511E+03  0.00000000000E+00 0. -1.
          6    1    1    2  501    0  0.10174086339E+03 -0.22163240533E+03 -0.20680846088E+03  0.36355311286E+03  0.17300000000E+03 0. -1.
         -6    1    1    2    0  502 -0.10174086339E+03  0.22163240533E+03  0.20556160985E+03  0.36284528634E+03  0.17300000000E+03 0. -1.
<mgrwt>
<rscale>  2 0.29900021E+03</rscale>
<asrwt>0</asrwt>
<pdfrwt beam="1">  1       21 0.55780889E-01 0.29900021E+03</pdfrwt>
<pdfrwt beam="2">  1       21 0.55972711E-01 0.29900021E+03</pdfrwt>
<totfact> 0.85556988E+03</totfact>
</mgrwt>
</event>
<event>
 4    1  0.4382184E+000  0.4066376E+03  0.7546771E-02  0.1041505E+00
         21   -1    0    0  501  502  0.00000000000E+00  0.00000000000E+00  0.61780644181E+03  0.61780644181E+03  0.00000000000E+00 0. -1.
         21   -1    0    0  502  503 -0.00000000000E+00 -0.00000000000E+00 -0.26912909282E+03  0.26912909282E+03  0.00000000000E+00 0.  1.
          6    1    1    2  501    0  0.20381993797E+03  0.30640258552E+03  0.20724676233E+03  0.45640478966E+03  0.17300000000E+03 0.  1.
         -6    1    1    2    0  503 -0.20381993797E+03 -0.30640258552E+03  0.14143058667E+03  0.43053074498E+03  0.17300000000E+03 0. -1.
<mgrwt>
<rscale>  2 0.40663757E+03</rscale>
<asrwt>0</asrwt>
<pdfrwt beam="1">  1       21 0.95047144E-01 0.40663757E+03</pdfrwt>
<pdfrwt beam="2">  1       21 0.41404476E-01 0.40663757E+03</pdfrwt>
<totfact> 0.46285587E+03</totfact>
</mgrwt>
</event>
<event>
 4    1  0.4382184E+000  0.1782198E+03  0.7546771E-02  0.1169537E+00
         21   -1    0    0  501  502  0.00000000000E+00  0.00000000000E+00  0.13377671179E+03  0.13377671179E+03  0.00000000000E+00 0.  1.
         21   -1    0    0  502  503 -0.00000000000E+00 -0.00000000000E+00 -0.29703798428E+03  0.29703798428E+03  0.00000000000E+00 0.  1.
          6    1    1    2  501    0  0.33685526763E+02  0.26430841998E+02  0.14866610400E+02  0.17883881074E+03  0.17300000000E+03 0.  1.
         -6    1    1    2    0  503 -0.33685526763E+02 -0.26430841998E+02 -0.17812788289E+03  0.25197588533E+03  0.17300000000E+03 0.  1.
<mgrwt>
<rscale>  2 0.17821982E+03</rscale>
<asrwt>0</asrwt>
<pdfrwt beam="1">  1       21 0.20581033E-01 0.17821982E+03</pdfrwt>
<pdfrwt beam="2">  1       21 0.45698151E-01 0.17821982E+03</pdfrwt>
<totfact> 0.10099648E+05</totfact>
</mgrwt>
</event>
<event>
 4    1  0.4382184E+000  0.1909279E+03  0.7546771E-02  0.1157627E+00
         21   -1    0    0  503  502  0.00000000000E+00  0.00000000000E+00  0.54074691775E+02  0.54074691775E+02  0.00000000000E+00 0.  1.
         21   -1    0    0  501  503 -0.00000000000E+00 -0.00000000000E+00 -0.67865400029E+03  0.67865400029E+03  0.00000000000E+00 0.  1.
          6    1    1    2  501    0  0.64057854400E+02 -0.49204174866E+02 -0.28238267396E+03  0.34087158005E+03  0.17300000000E+03 0.  1.
         -6    1    1    2    0  502 -0.64057854400E+02  0.49204174866E+02 -0.34219663456E+03  0.39185711201E+03  0.17300000000E+03 0.  1.
<mgrwt>
<rscale>  2 0.19092789E+03</rscale>
<asrwt>0</asrwt>
<pdfrwt beam="1">  1       21 0.83191836E-02 0.19092789E+03</pdfrwt>
<pdfrwt beam="2">  1       21 0.10440830E+00 0.19092789E+03</pdfrwt>
<totfact> 0.83079605E+04</totfact>
</mgrwt>
</event>
<event>
 4    1  0.4382184E+000  0.1752874E+03  0.7546771E-02  0.1172443E+00
         21   -1    0    0  503  502  0.00000000000E+00  0.00000000000E+00  0.22979836775E+02  0.22979836775E+02  0.00000000000E+00 0.  1.
         21   -1    0    0  501  503 -0.00000000000E+00 -0.00000000000E+00 -0.13371640254E+04  0.13371640254E+04  0.00000000000E+00 0.  1.
          6    1    1    2  501    0 -0.25896416348E+02 -0.11227476701E+02 -0.66275478627E+03  0.68554327897E+03  0.17300000000E+03 0. -1.
         -6    1    1    2    0  502  0.25896416348E+02  0.11227476701E+02 -0.65142940239E+03  0.67460058324E+03  0.17300000000E+03 0. -1.
<mgrwt>
<rscale>  2 0.17528742E+03</rscale>
<asrwt>0</asrwt>
<pdfrwt beam="1">  1       21 0.35353607E-02 0.17528742E+03</pdfrwt>
<pdfrwt beam="2">  1       21 0.20571747E+00 0.17528742E+03</pdfrwt>
<totfact> 0.60155459E+04</totfact>
</mgrwt>
</event>
<event>
 4    1  0.4382184E+000  0.2261904E+03  0.7546771E-02  0.1129350E+00
         21   -1    0    0  503  502  0.00000000000E+00  0.00000000000E+00  0.21936862750E+03  0.21936862750E+03  0.00000000000E+00 0. -1.
         21   -1    0    0  501  503 -0.00000000000E+00 -0.00000000000E+00 -0.43823819085E+03  0.43823819085E+03  0.00000000000E+00 0.  1.
          6    1    1    2  501    0  0.54423447770E+02  0.13517101522E+03 -0.33432612891E+03  0.40365341011E+03  0.17300000000E+03 0.  1.
         -6    1    1    2    0  502 -0.54423447770E+02 -0.13517101522E+03  0.11545656557E+03  0.25395340824E+03  0.17300000000E+03 0. -1.
<mgrwt>
<rscale>  2 0.22619044E+03</rscale>
<asrwt>0</asrwt>
<pdfrwt beam="1">  1       21 0.33749020E-01 0.22619044E+03</pdfrwt>
<pdfrwt beam="2">  1       21 0.67421259E-01 0.22619044E+03</pdfrwt>
<totfact> 0.16679980E+04</totfact>
</mgrwt>
</event>
<event>
 4    1  0.4382184E+000  0.2462639E+03  0.7546771E-02  0.1115689E+00
         21   -1    0    0  501  502  0.00000000000E+00  0.00000000000E+00  0.26961339577E+03  0.26961339577E+03  0.00000000000E+00 0.  1.
         21   -1    0    0  502  503 -0.00000000000E+00 -0.00000000000E+00 -0.23591206140E+03  0.23591206140E+03  0.00000000000E+00 0.  1.
          6    1    1    2  501    0  0.45632616513E+02 -0.16921747456E+03  0.71370139396E+02  0.25639732094E+03  0.17300000000E+03 0.  1.
         -6    1    1    2    0  503 -0.45632616513E+02  0.16921747456E+03 -0.37668805028E+02  0.24912813623E+03  0.17300000000E+03 0.  1.
<mgrwt>
<rscale>  2 0.24626386E+03</rscale>
<asrwt>0</asrwt>
<pdfrwt beam="1">  1       21 0.41478984E-01 0.24626386E+03</pdfrwt>
<pdfrwt beam="2">  1       21 0.36294163E-01 0.24626386E+03</pdfrwt>
<totfact> 0.39947849E+04</totfact>
</mgrwt>
</event>
<event>
 4    1  0.4382184E+000  0.2278649E+03  0.7546771E-02  0.1128152E+00
         21   -1    0    0  501  502  0.00000000000E+00  0.00000000000E+00  0.13757172233E+04  0.13757172233E+04  0.00000000000E+00 0. -1.
         21   -1    0    0  502  503 -0.00000000000E+00 -0.00000000000E+00 -0.53782456777E+02  0.53782456777E+02  0.00000000000E+00 0.  1.
          6    1    1    2  501    0 -0.74067780063E+02 -0.12848095999E+03  0.10513058834E+04  0.10757167162E+04  0.17300000000E+03 0. -1.
         -6    1    1    2    0  503  0.74067780063E+02  0.12848095999E+03  0.27062888312E+03  0.35378296384E+03  0.17300000000E+03 0.  1.
<mgrwt>
<rscale>  2 0.22786486E+03</rscale>
<asrwt>0</asrwt>
<pdfrwt beam="1">  1       21 0.21164878E+00 0.22786486E+03</pdfrwt>
<pdfrwt beam="2">  1       21 0.82742252E-02 0.22786486E+03</pdfrwt>
<totfact> 0.12468606E+04</totfact>
</mgrwt>
</event>
<event>
 4    1  0.4382184E+000  0.1890053E+03  0.7546771E-02  0.1159362E+00
         21   -1    0    0  501  502  0.00000000000E+00  0.00000000000E+00  0.86908277043E+02  0.86908277043E+02  0.00000000000E+00 0. -1.
         21   -1    0    0  502  503 -0.00000000000E+00 -0.00000000000E+00 -0.44561647731E+03  0.44561647731E+03  0.00000000000E+00 0. -1.
          6    1    1    2  501    0 -0.43787873617E+02  0.62262500915E+02 -0.10518828872E+03  0.21630435266E+03  0.17300000000E+03 0. -1.
         -6    1    1    2    0  503  0.43787873617E+02 -0.62262500915E+02 -0.25351991154E+03  0.31622040169E+03  0.17300000000E+03 0. -1.
<mgrwt>
<rscale>  2 0.18900528E+03</rscale>
<asrwt>0</asrwt>
<pdfrwt beam="1">  1       21 0.13370504E-01 0.18900528E+03</pdfrwt>
<pdfrwt beam="2">  1       21 0.68556380E-01 0.18900528E+03</pdfrwt>
<totfact> 0.93870943E+04</totfact>
</mgrwt>
</event>
<event>
 4    1  0.4382184E+000  0.1924681E+03  0.7546771E-02  0.1156254E+00
         21   -1    0    0  503  502  0.00000000000E+00  0.00000000000E+00  0.19427081160E+02  0.19427081160E+02  0.00000000000E+00 0.  1.
         21   -1    0    0  501  503 -0.00000000000E+00 -0.00000000000E+00 -0.20897406630E+04  0.20897406630E+04  0.00000000000E+00 0.  1.
          6    1    1    2  501    0  0.58503612122E+02  0.60764207033E+02 -0.13471645688E+04  0.13608439797E+04  0.17300000000E+03 0.  1.
         -6    1    1    2    0  502 -0.58503612122E+02 -0.60764207033E+02 -0.72314901303E+03  0.74832376451E+03  0.17300000000E+03 0.  1.
<mgrwt>
<rscale>  2 0.19246808E+03</rscale>
<asrwt>0</asrwt>
<pdfrwt beam="1">  1       21 0.29887847E-02 0.19246808E+03</pdfrwt>
<pdfrwt beam="2">  1       21 0.32149824E+00 0.19246808E+03</pdfrwt>
<totfact> 0.16336784E+04</totfact>
</mgrwt>
</event>
<event>
 4    1  0.4382184E+000  0.1748056E+03  0.7546771E-02  0.1172927E+00
         21   -1    0    0  503  502  0.00000000000E+00  0.00000000000E+00  0.43629524052E+03  0.43629524052E+03  0.00000000000E+00 0.  1.
         21   -1    0    0  501  503 -0.00000000000E+00 -0.00000000000E+00 -0.75820902905E+02  0.75820902905E+02  0.00000000000E+00 0.  1.
          6    1    1    2  501    0 -0.24845851942E+02 -0.32703236944E+01  0.25095633669E+03  0.30583671182E+03  0.17300000000E+03 0.  1.
         -6    1    1    2    0  502  0.24845851942E+02  0.32703236944E+01  0.10951800093E+03  0.20627943161E+03  0.17300000000E+03 0.  1.
<mgrwt>
<rscale>  2 0.17480564E+03</rscale>
<asrwt>0</asrwt>
<pdfrwt beam="1">  1       21 0.67122343E-01 0.17480564E+03</pdfrwt>
<pdfrwt beam="2">  1       21 0.11664755E-01 0.17480564E+03</pdfrwt>
<totfact> 0.12623742E+05</totfact>
</mgrwt>
</event>
<event>
 4    1  0.4382184E+000  0.2973070E+03  0.7546771E-02  0.1086595E+00
         21   -1    0    0  503  502  0.00000000000E+00  0.00000000000E+00  0.29113646365E+03  0.29113646365E+03  0.00000000000E+00 0. -1.
         21   -1    0    0  501  503 -0.00000000000E+00 -0.00000000000E+00 -0.45503774979E+03  0.45503774979E+03  0.00000000000E+00 0. -1.
          6    1    1    2  501    0  0.10348238944E+03  0.21852656190E+03 -0.29717509906E+03  0.42036234689E+03  0.17300000000E+03 0. -1.
         -6    1    1    2    0  502 -0.10348238944E+03 -0.21852656190E+03  0.13327381291E+03  0.32581186656E+03  0.17300000000E+03 0. -1.
<mgrwt>
<rscale>  2 0.29730702E+03</rscale>
<asrwt>0</asrwt>
<pdfrwt beam="1">  1       21 0.44790225E-01 0.29730702E+03</pdfrwt>
<pdfrwt beam="2">  1       21 0.70005807E-01 0.29730702E+03</pdfrwt>
<totfact> 0.83370502E+03</totfact>
</mgrwt>
</event>
<event>
 4    1  0.4382184E+000  0.2010638E+03  0.7546771E-02  0.1148845E+00
         21   -1    0    0  503  502  0.00000000000E+00  0.00000000000E+00  0.43665183118E+02  0.43665183118E+02  0.00000000000E+00 0. -1.
         21   -1    0    0  501  503 -0.00000000000E+00 -0.00000000000E+00 -0.93460446109E+03  0.93460446109E+03  0.00000000000E+00 0.  1.
          6    1    1    2  501    0 -0.38034005860E+02 -0.95137145502E+02 -0.49285603766E+03  0.53229102558E+03  0.17300000000E+03 0. -1.
         -6    1    1    2    0  502  0.38034005860E+02  0.95137145502E+02 -0.39808324031E+03  0.44597861863E+03  0.17300000000E+03 0.  1.
<mgrwt>
<rscale>  2 0.20106383E+03</rscale>
<asrwt>0</asrwt>
<pdfrwt beam="1">  1       21 0.67177204E-02 0.20106383E+03</pdfrwt>
<pdfrwt beam="2">  1       21 0.14378530E+00 0.20106383E+03</pdfrwt>
<totfact> 0.53974476E+04</totfact>
</mgrwt>
</event>
<event>
 4    1  0.4382184E+000  0.1880377E+03  0.7546771E-02  0.1160243E+00
         21   -1    0    0  503  502  0.00000000000E+00  0.00000000000E+00  0.62650963760E+03  0.62650963760E+03  0.00000000000E+00 0.  1.
         21   -1    0    0  501  503 -0.00000000000E+00 -0.00000000000E+00 -0.56797840504E+02  0.56797840504E+02  0.00000000000E+00 0.  1.
          6    1    1    2  501    0 -0.10234625944E+02 -0.72968807525E+02  0.25761617359E+03  0.31894245145E+03  0.17300000000E+03 0. -1.
         -6    1    1    2    0  502  0.10234625944E+02  0.72968807525E+02  0.31209562350E+03  0.36436502666E+03  0.17300000000E+03 0. -1.
<mgrwt>
<rscale>  2 0.18803775E+03</rscale>
<asrwt>0</asrwt>
<pdfrwt beam="1">  1       21 0.96386093E-01 0.18803775E+03</pdfrwt>
<pdfrwt beam="2">  1       21 0.87381298E-02 0.18803775E+03</pdfrwt>
<totfact> 0.92288455E+04</totfact>
</mgrwt>
</event>
<event>
 4    1  0.4382184E+000  0.2490616E+03  0.7546771E-02  0.1113899E+00
         21   -1    0    0  503  502  0.00000000000E+00  0.00000000000E+00  0.20928161270E+03  0.20928161270E+03  0.00000000000E+00 0. -1.
         21   -1    0    0  501  503 -0.00000000000E+00 -0.00000000000E+00 -0.85527640775E+03  0.85527640775E+03  0.00000000000E+00 0.  1.
          6    1    1    2  501    0  0.95227865457E+02 -0.15177060239E+03 -0.75326919769E+03  0.79337642157E+03  0.17300000000E+03 0.  1.
         -6    1    1    2    0  502 -0.95227865457E+02  0.15177060239E+03  0.10727440264E+03  0.27118159888E+03  0.17300000000E+03 0. -1.
<mgrwt>
<rscale>  2 0.24906156E+03</rscale>
<asrwt>0</asrwt>
<pdfrwt beam="1">  1       21 0.32197171E-01 0.24906156E+03</pdfrwt>
<pdfrwt beam="2">  1       21 0.13158099E+00 0.24906156E+03</pdfrwt>
<totfact> 0.37249607E+03</totfact>
</mgrwt>
</event>
<event>
 4    1  0.4382184E+000  0.1967584E+03  0.7546771E-02  0.1152503E+00
         21   -1    0    0  503  502  0.00000000000E+00  0.00000000000E+00  0.16655915197E+04  0.16655915197E+04  0.00000000000E+00 0. -1.
         21   -1    0    0  501  503 -0.00000000000E+00 -0.00000000000E+00 -0.25324213348E+02  0.25324213348E+02  0.00000000000E+00 0. -1.
          6    1    1    2  501    0 -0.49131684595E+02  0.79818307082E+02  0.57778065104E+03  0.61036412517E+03  0.17300000000E+03 0. -1.
         -6    1    1    2    0  502  0.49131684595E+02 -0.79818307082E+02  0.10624866553E+04  0.10805516079E+04  0.17300000000E+03 0. -1.
<mgrwt>
<rscale>  2 0.19675844E+03</rscale>
<asrwt>0</asrwt>
<pdfrwt beam="1">  1       21 0.25624476E+00 0.19675844E+03</pdfrwt>
<pdfrwt beam="2">  1       21 0.38960341E-02 0.19675844E+03</pdfrwt>
<totfact> 0.24940422E+04</totfact>
</mgrwt>
</event>
<event>
 4    1  0.4382184E+000  0.2078599E+03  0.7546771E-02  0.1143272E+00
         21   -1    0    0  501  502  0.00000000000E+00  0.00000000000E+00  0.10920577613E+04  0.10920577613E+04  0.00000000000E+00 0.  1.
         21   -1    0    0  502  503 -0.00000000000E+00 -0.00000000000E+00 -0.72355602789E+02  0.72355602789E+02  0.00000000000E+00 0.  1.
          6    1    1    2  501    0  0.76450484251E+01 -0.11497085872E+03  0.90179598230E+03  0.92544137513E+03  0.17300000000E+03 0.  1.
         -6    1    1    2    0  503 -0.76450484251E+01  0.11497085872E+03  0.11790617622E+03  0.23897198897E+03  0.17300000000E+03 0.  1.
<mgrwt>
<rscale>  2 0.20785992E+03</rscale>
<asrwt>0</asrwt>
<pdfrwt beam="1">  1       21 0.16800887E+00 0.20785992E+03</pdfrwt>
<pdfrwt beam="2">  1       21 0.11131632E-01 0.20785992E+03</pdfrwt>
<totfact> 0.14624832E+04</totfact>
</mgrwt>
</event>
<event>
 4    1  0.4382184E+000  0.1791560E+03  0.7546771E-02  0.1168622E+00
         21   -1    0    0  501  502  0.00000000000E+00  0.00000000000E+00  0.38929638290E+03  0.38929638290E+03  0.00000000000E+00 0. -1.
         21   -1    0    0  502  503 -0.00000000000E+00 -0.00000000000E+00 -0.91442185716E+02  0.91442185716E+02  0.00000000000E+00 0. -1.
          6    1    1    2  501    0  0.20273332835E+02  0.41915041366E+02  0.22431055041E+03  0.28707508032E+03  0.17300000000E+03 0. -1.
         -6    1    1    2    0  503 -0.20273332835E+02 -0.41915041366E+02  0.73543646771E+02  0.19366348829E+03  0.17300000000E+03 0. -1.
<mgrwt>
<rscale>  2 0.17915602E+03</rscale>
<asrwt>0</asrwt>
<pdfrwt beam="1">  1       21 0.59891751E-01 0.17915602E+03</pdfrwt>
<pdfrwt beam="2">  1       21 0.14068029E-01 0.17915602E+03</pdfrwt>
<totfact> 0.11521777E+05</totfact>
</mgrwt>
</event>
<event>
 4    1  0.4382184E+000  0.1827806E+03  0.7546771E-02  0.1165139E+00
         21   -1    0    0  501  502  0.00000000000E+00  0.00000000000E+00  0.19407384020E+02  0.19407384020E+02  0.00000000000E+00 0.  1.
         21   -1    0    0  502  503 -0.00000000000E+00 -0.00000000000E+00 -0.19061497844E+04  0.19061497844E+04  0.00000000000E+00 0.  1.
          6    1    1    2  501    0 -0.13073612906E+02  0.57522407535E+02 -0.64367114153E+03  0.66911978387E+03  0.17300000000E+03 0.  1.
         -6    1    1    2    0  503  0.13073612906E+02 -0.57522407535E+02 -0.12430712588E+04  0.12564373845E+04  0.17300000000E+03 0.  1.
<mgrwt>
<rscale>  2 0.18278060E+03</rscale>
<asrwt>0</asrwt>
<pdfrwt beam="1">  1       21 0.29857512E-02 0.18278060E+03</pdfrwt>
<pdfrwt beam="2">  1       21 0.29325383E+00 0.18278060E+03</pdfrwt>
<totfact> 0.24038008E+04</totfact>
</mgrwt>
</event>
<event>
 4    1  0.4382184E+000  0.2495839E+03  0.7546771E-02  0.1113568E+00
         21   -1    0    0  501  502  0.00000000000E+00  0.00000000000E+00  0.10922353128E+03  0.10922353128E+03  0.00000000000E+00 0. -1.
         21   -1    0    0  502  503 -0.00000000000E+00 -0.00000000000E+00 -0.59122323737E+03  0.59122323737E+03  0.00000000000E+00 0.  1.
          6    1    1    2  501    0  0.10795427659E+03  0.14390628987E+03 -0.17514361377E+03  0.30490561087E+03  0.17300000000E+03 0. -1.
         -6    1    1    2    0  503 -0.10795427659E+03 -0.14390628987E+03 -0.30685609232E+03  0.39554115777E+03  0.17300000000E+03 0.  1.
<mgrwt>
<rscale>  2 0.24958395E+03</rscale>
<asrwt>0</asrwt>
<pdfrwt beam="1">  1       21 0.16803620E-01 0.24958395E+03</pdfrwt>
<pdfrwt beam="2">  1       21 0.90957422E-01 0.24958395E+03</pdfrwt>
<totfact> 0.31737514E+04</totfact>
</mgrwt>
</event>
<event>
 4    1  0.4382184E+000  0.1993090E+03  0.7546771E-02  0.1150323E+00
         21   -1    0    0  501  502  0.00000000000E+00  0.00000000000E+00  0.39638831897E+03  0.39638831897E+03  0.00000000000E+00 0. -1.
         21   -1    0    0  502  503 -0.00000000000E+00 -0.00000000000E+00 -0.10115461505E+03  0.10115461505E+03  0.00000000000E+00 0.  1.
          6    1    1    2  501    0  0.15449747605E+02  0.97756822172E+02  0.17159203564E+03  0.26299794235E+03  0.17300000000E+03 0. -1.
         -6    1    1    2    0  503 -0.15449747605E+02 -0.97756822172E+02  0.12364166828E+03  0.23454499167E+03  0.17300000000E+03 0.  1.
<mgrwt>
<rscale>  2 0.19930903E+03</rscale>
<asrwt>0</asrwt>
<pdfrwt beam="1">  1       21 0.60982818E-01 0.19930903E+03</pdfrwt>
<pdfrwt beam="2">  1       21 0.15562249E-01 0.19930903E+03</pdfrwt>
<totfact> 0.91532405E+04</totfact>
</mgrwt>
</event>
<event>
 4    1  0.4382184E+000  0.1773900E+03  0.7546771E-02  0.1170353E+00
         21   -1    0    0  503  502  0.00000000000E+00  0.00000000000E+00  0.70078938830E+02  0.70078938830E+02  0.00000000000E+00 0. -1.
         21   -1    0    0  501  503 -0.00000000000E+00 -0.00000000000E+00 -0.46058185553E+03  0.46058185553E+03  0.00000000000E+00 0. -1.
          6    1    1    2  501    0 -0.34245925514E+02  0.19116183631E+02 -0.23728045711E+03  0.29625871669E+03  0.17300000000E+03 0.  1.
         -6    1    1    2    0  502  0.34245925514E+02 -0.19116183631E+02 -0.15322245959E+03  0.23440207767E+03  0.17300000000E+03 0.  1.
<mgrwt>
<rscale>  2 0.17739000E+03</rscale>
<asrwt>0</asrwt>
<pdfrwt beam="1">  1       21 0.10781375E-01 0.17739000E+03</pdfrwt>
<pdfrwt beam="2">  1       21 0.70858748E-01 0.17739000E+03</pdfrwt>
<totfact> 0.12880380E+05</totfact>
</mgrwt>
</event>
<event>
 4    1  0.4382184E+000  0.2172605E+03  0.7546771E-02  0.1135942E+00
         21   -1    0    0  503  502  0.00000000000E+00  0.00000000000E+00  0.21295909596E+03  0.21295909596E+03  0.00000000000E+00 0.  1.
         21   -1    0    0  501  503 -0.00000000000E+00 -0.00000000000E+00 -0.54777459010E+03  0.54777459010E+03  0.00000000000E+00 0. -1.
          6    1    1    2  501    0  0.71920357685E+02  0.11000266887E+03 -0.46089841218E+03  0.50953848859E+03  0.17300000000E+03 0. -1.
         -6    1    1    2    0  502 -0.71920357685E+02 -0.11000266887E+03  0.12608291804E+03  0.25119519746E+03  0.17300000000E+03 0.  1.
<mgrwt>
<rscale>  2 0.21726050E+03</rscale>
<asrwt>0</asrwt>
<pdfrwt beam="1">  1       21 0.32762938E-01 0.21726050E+03</pdfrwt>
<pdfrwt beam="2">  1       21 0.84273013E-01 0.21726050E+03</pdfrwt>
<totfact> 0.10779089E+04</totfact>
</mgrwt>
</event>
<event>
 4    1  0.4382184E+000  0.1928263E+03  0.7546771E-02  0.1155937E+00
         21   -1    0    0  503  502  0.00000000000E+00  0.00000000000E+00  0.11555126658E+04  0.11555126658E+04  0.00000000000E+00 0.  1.
         21   -1    0    0  501  503 -0.00000000000E+00 -0.00000000000E+00 -0.34786315382E+02  0.34786315382E+02  0.00000000000E+00 0.  1.
          6    1    1    2  501    0 -0.21534934466E+02 -0.82396676751E+02  0.39739207146E+03  0.44170400066E+03  0.17300000000E+03 0.  1.
         -6    1    1    2    0  502  0.21534934466E+02  0.82396676751E+02  0.72333427891E+03  0.74859498048E+03  0.17300000000E+03 0.  1.
<mgrwt>
<rscale>  2 0.19282626E+03</rscale>
<asrwt>0</asrwt>
<pdfrwt beam="1">  1       21 0.17777115E+00 0.19282626E+03</pdfrwt>
<pdfrwt beam="2">  1       21 0.53517417E-02 0.19282626E+03</pdfrwt>
<totfact> 0.45161031E+04</totfact>
</mgrwt>
</event>
<event>
 4    1  0.4382184E+000  0.1892157E+03  0.7546771E-02  0.1159171E+00
         21   -1    0    0  503  502  0.00000000000E+00  0.00000000000E+00  0.35828333318E+03  0.35828333318E+03  0.00000000000E+00 0.  1.
         21   -1    0    0  501  503 -0.00000000000E+00 -0.00000000000E+00 -0.18503334826E+03  0.18503334826E+03  0.00000000000E+00 0. -1.
          6    1    1    2  501    0  0.19172218476E+01 -0.76615373653E+02 -0.97611679423E+02  0.21290991329E+03  0.17300000000E+03 0. -1.
         -6    1    1    2    0  502 -0.19172218476E+01  0.76615373653E+02  0.27086166434E+03  0.33040676814E+03  0.17300000000E+03 0.  1.
<mgrwt>
<rscale>  2 0.18921573E+03</rscale>
<asrwt>0</asrwt>
<pdfrwt beam="1">  1       21 0.55120513E-01 0.18921573E+03</pdfrwt>
<pdfrwt beam="2">  1       21 0.28466669E-01 0.18921573E+03</pdfrwt>
<totfact> 0.36700828E+04</totfact>
</mgrwt>
</event>
<event>
 4    1  0.4382184E+000  0.1799661E+03  0.7546771E-02  0.1167836E+00
         21   -1    0    0  501  502  0.00000000000E+00  0.00000000000E+00  0.98447564826E+03  0.98447564826E+03  0.00000000000E+00 0.  1.
         21   -1    0    0  502  503 -0.00000000000E+00 -0.00000000000E+00 -0.50837674371E+02  0.50837674371E+02  0.00000000000E+00 0.  1.
          6    1    1    2  501    0  0.49311730112E+02 -0.52123226021E+01  0.77432220664E+03  0.79496081333E+03  0.17300000000E+03 0.  1.
         -6    1    1    2    0  503 -0.49311730112E+02  0.52123226021E+01  0.15931576725E+03  0.24035250930E+03  0.17300000000E+03 0.  1.
<mgrwt>
<rscale>  2 0.17996615E+03</rscale>
<asrwt>0</asrwt>
<pdfrwt beam="1">  1       21 0.15145778E+00 0.17996615E+03</pdfrwt>
<pdfrwt beam="2">  1       21 0.78211814E-02 0.17996615E+03</pdfrwt>
<totfact> 0.36648013E+04</totfact>
</mgrwt>
</event>
<event>
 4    1  0.4382184E+000  0.2809672E+03  0.7546771E-02  0.1095162E+00
         21   -1    0    0  503  502  0.00000000000E+00  0.00000000000E+00  0.79236661310E+02  0.79236661310E+02  0.00000000000E+00 0.  1.
         21   -1    0    0  501  503 -0.00000000000E+00 -0.00000000000E+00 -0.19278981960E+04  0.19278981960E+04  0.00000000000E+00 0. -1.
          6    1    1    2  501    0  0.23527337463E+02  0.22013645640E+03 -0.16219548243E+04  0.16461105817E+04  0.17300000000E+03 0. -1.
         -6    1    1    2    0  502 -0.23527337463E+02 -0.22013645640E+03 -0.22670671033E+03  0.36102427557E+03  0.17300000000E+03 0.  1.
<mgrwt>
<rscale>  2 0.28096725E+03</rscale>
<asrwt>0</asrwt>
<pdfrwt beam="1">  1       21 0.12190257E-01 0.28096725E+03</pdfrwt>
<pdfrwt beam="2">  1       21 0.29659969E+00 0.28096725E+03</pdfrwt>
<totfact> 0.18573396E+03</totfact>
</mgrwt>
</event>
<event>
 4    1  0.4382184E+000  0.3376905E+03  0.7546771E-02  0.1067784E+00
         21   -1    0    0  503  502  0.00000000000E+00  0.00000000000E+00  0.42706775349E+03  0.42706775349E+03  0.00000000000E+00 0.  1.
         21   -1    0    0  501  503 -0.00000000000E+00 -0.00000000000E+00 -0.29178335383E+03  0.29178335383E+03  0.00000000000E+00 0. -1.
          6    1    1    2  501    0  0.95957211573E+02  0.27367518939E+03 -0.37070301390E+02  0.33971915310E+03  0.17300000000E+03 0. -1.
         -6    1    1    2    0  502 -0.95957211573E+02 -0.27367518939E+03  0.17235470104E+03  0.37913195422E+03  0.17300000000E+03 0. -1.
<mgrwt>
<rscale>  2 0.33769053E+03</rscale>
<asrwt>0</asrwt>
<pdfrwt beam="1">  1       21 0.65702731E-01 0.33769053E+03</pdfrwt>
<pdfrwt beam="2">  1       21 0.44889747E-01 0.33769053E+03</pdfrwt>
<totfact> 0.93869421E+03</totfact>
</mgrwt>
</event>
<event>
 4    1  0.4382184E+000  0.1775886E+03  0.7546771E-02  0.1170157E+00
         21   -1    0    0  501  502  0.00000000000E+00  0.00000000000E+00  0.21850556491E+03  0.21850556491E+03  0.00000000000E+00 0. -1.
         21   -1    0    0  502  503 -0.00000000000E+00 -0.00000000000E+00 -0.20408369327E+03  0.20408369327E+03  0.00000000000E+00 0. -1.
          6    1    1    2  501    0  0.98136422497E+01 -0.38889669541E+02  0.12153911327E+03  0.21519635226E+03  0.17300000000E+03 0. -1.
         -6    1    1    2    0  503 -0.98136422497E+01  0.38889669541E+02 -0.10711724163E+03  0.20739290592E+03  0.17300000000E+03 0. -1.
<mgrwt>
<rscale>  2 0.17758861E+03</rscale>
<asrwt>0</asrwt>
<pdfrwt beam="1">  1       21 0.33616240E-01 0.17758861E+03</pdfrwt>
<pdfrwt beam="2">  1       21 0.31397492E-01 0.17758861E+03</pdfrwt>
<totfact> 0.83602126E+04</totfact>
</mgrwt>
</event>
<event>
 4    1  0.4382184E+000  0.1816414E+03  0.7546771E-02  0.1166224E+00
         21   -1    0    0  503  502  0.00000000000E+00  0.00000000000E+00  0.50896751716E+02  0.50896751716E+02  0.00000000000E+00 0. -1.
         21   -1    0    0  501  503 -0.00000000000E+00 -0.00000000000E+00 -0.12822308046E+04  0.12822308046E+04  0.00000000000E+00 0.  1.
          6    1    1    2  501    0  0.50502456195E+02  0.22673602555E+02 -0.10843705322E+04  0.10994785316E+04  0.17300000000E+03 0.  1.
         -6    1    1    2    0  502 -0.50502456195E+02 -0.22673602555E+02 -0.14696352064E+03  0.23364902468E+03  0.17300000000E+03 0. -1.
<mgrwt>
<rscale>  2 0.18164138E+03</rscale>
<asrwt>0</asrwt>
<pdfrwt beam="1">  1       21 0.78302697E-02 0.18164138E+03</pdfrwt>
<pdfrwt beam="2">  1       21 0.19726627E+00 0.18164138E+03</pdfrwt>
<totfact> 0.17567535E+04</totfact>
</mgrwt>
</event>
<event>
 4    1  0.4382184E+000  0.2523678E+03  0.7546771E-02  0.1111818E+00
         21   -1    0    0  501  502  0.00000000000E+00  0.00000000000E+00  0.55731939128E+03  0.55731939128E+03  0.00000000000E+00 0.  1.
         21   -1    0    0  502  503 -0.00000000000E+00 -0.00000000000E+00 -0.21744192848E+03  0.21744192848E+03  0.00000000000E+00 0. -1.
          6    1    1    2  501    0 -0.18026867769E+03  0.35548450652E+02  0.43676567676E+03  0.50443408379E+03  0.17300000000E+03 0.  1.
         -6    1    1    2    0  503  0.18026867769E+03 -0.35548450652E+02 -0.96888213967E+02  0.27032723597E+03  0.17300000000E+03 0. -1.
<mgrwt>
<rscale>  2 0.25236776E+03</rscale>
<asrwt>0</asrwt>
<pdfrwt beam="1">  1       21 0.85741444E-01 0.25236776E+03</pdfrwt>
<pdfrwt beam="2">  1       21 0.33452605E-01 0.25236776E+03</pdfrwt>
<totfact> 0.97363305E+03</totfact>
</mgrwt>
</event>
<event>
 4    1  0.4382184E+000  0.2136453E+03  0.7546771E-02  0.1138711E+00
         21   -1    0    0  503  502  0.00000000000E+00  0.00000000000E+00  0.99214709251E+02  0.99214709251E+02  0.00000000000E+00 0. -1.
         21   -1    0    0  501  503 -0.00000000000E+00 -0.00000000000E+00 -0.52212400907E+03  0.52212400907E+03  0.00000000000E+00 0.  1.
          6    1    1    2  501    0  0.19486047865E+02  0.12383708783E+03 -0.31856839676E+03  0.38357548644E+03  0.17300000000E+03 0.  1.
         -6    1    1    2    0  502 -0.19486047865E+02 -0.12383708783E+03 -0.10434090305E+03  0.23776323188E+03  0.17300000000E+03 0. -1.
<mgrwt>
<rscale>  2 0.21364534E+03</rscale>
<asrwt>0</asrwt>
<pdfrwt beam="1">  1       21 0.15263801E-01 0.21364534E+03</pdfrwt>
<pdfrwt beam="2">  1       21 0.80326772E-01 0.21364534E+03</pdfrwt>
<totfact> 0.51257676E+04</totfact>
</mgrwt>
</event>
<event>
 4    1  0.4382184E+000  0.2123952E+03  0.7546771E-02  0.1139683E+00
         21   -1    0    0  503  502  0.00000000000E+00  0.00000000000E+00  0.26059873448E+03  0.26059873448E+03  0.00000000000E+00 0. -1.
         21   -1    0    0  501  503 -0.00000000000E+00 -0.00000000000E+00 -0.51672179356E+03  0.51672179356E+03  0.00000000000E+00 0. -1.
          6    1    1    2  501    0  0.22139646684E+02 -0.12121291005E+03 -0.44500151056E+03  0.49309033444E+03  0.17300000000E+03 0. -1.
         -6    1    1    2    0  502 -0.22139646684E+02  0.12121291005E+03  0.18887845148E+03  0.28423019360E+03  0.17300000000E+03 0. -1.
<mgrwt>
<rscale>  2 0.21239523E+03</rscale>
<asrwt>0</asrwt>
<pdfrwt beam="1">  1       21 0.40092114E-01 0.21239523E+03</pdfrwt>
<pdfrwt beam="2">  1       21 0.79495659E-01 0.21239523E+03</pdfrwt>
<totfact> 0.82490540E+03</totfact>
</mgrwt>
</event>
<event>
 4    1  0.4382184E+000  0.2379712E+03  0.7546771E-02  0.1121152E+00
         21   -1    0    0  503  502  0.00000000000E+00  0.00000000000E+00  0.37729240228E+03  0.37729240228E+03  0.00000000000E+00 0. -1.
         21   -1    0    0  501  503 -0.00000000000E+00 -0.00000000000E+00 -0.15855749363E+03  0.15855749363E+03  0.00000000000E+00 0.  1.
          6    1    1    2  501    0 -0.11084067027E+03 -0.12006523192E+03  0.47476470125E+02  0.24266093488E+03  0.17300000000E+03 0. -1.
         -6    1    1    2    0  502  0.11084067027E+03  0.12006523192E+03  0.17125843853E+03  0.29318896103E+03  0.17300000000E+03 0.  1.
<mgrwt>
<rscale>  2 0.23797125E+03</rscale>
<asrwt>0</asrwt>
<pdfrwt beam="1">  1       21 0.58044985E-01 0.23797125E+03</pdfrwt>
<pdfrwt beam="2">  1       21 0.24393461E-01 0.23797125E+03</pdfrwt>
<totfact> 0.43213977E+04</totfact>
</mgrwt>
</event>
<event>
 4    1  0.4382184E+000  0.1757732E+03  0.7546771E-02  0.1171958E+00
         21   -1    0    0  501  502  0.00000000000E+00  0.00000000000E+00  0.15962868206E+03  0.15962868206E+03  0.00000000000E+00 0.  1.
         21   -1    0    0  502  503 -0.00000000000E+00 -0.00000000000E+00 -0.19990934019E+03  0.19990934019E+03  0.00000000000E+00 0.  1.
          6    1    1    2  501    0 -0.27141704813E+02  0.15184243864E+02  0.11921072070E+02  0.17617702847E+03  0.17300000000E+03 0.  1.
         -6    1    1    2    0  503  0.27141704813E+02 -0.15184243864E+02 -0.52201730207E+02  0.18336099378E+03  0.17300000000E+03 0.  1.
<mgrwt>
<rscale>  2 0.17577324E+03</rscale>
<asrwt>0</asrwt>
<pdfrwt beam="1">  1       21 0.24558259E-01 0.17577324E+03</pdfrwt>
<pdfrwt beam="2">  1       21 0.30755283E-01 0.17577324E+03</pdfrwt>
<totfact> 0.15992580E+05</totfact>
</mgrwt>
</event>
<event>
 4    1  0.4382184E+000  0.2114413E+03  0.7546771E-02  0.1140430E+00
         21   -1    0    0  503  502  0.00000000000E+00  0.00000000000E+00  0.23544421442E+03  0.23544421442E+03  0.00000000000E+00 0. -1.
         21   -1    0    0  501  503 -0.00000000000E+00 -0.00000000000E+00 -0.25969245174E+03  0.25969245174E+03  0.00000000000E+00 0. -1.
          6    1    1    2  501    0 -0.43520945240E+01  0.12148863031E+03 -0.14047975849E+03  0.25385427034E+03  0.17300000000E+03 0. -1.
         -6    1    1    2    0  502  0.43520945240E+01 -0.12148863031E+03  0.11623152118E+03  0.24128239583E+03  0.17300000000E+03 0. -1.
<mgrwt>
<rscale>  2 0.21144131E+03</rscale>
<asrwt>0</asrwt>
<pdfrwt beam="1">  1       21 0.36222187E-01 0.21144131E+03</pdfrwt>
<pdfrwt beam="2">  1       21 0.39952685E-01 0.21144131E+03</pdfrwt>
<totfact> 0.43967007E+04</totfact>
</mgrwt>
</event>
<event>
 4    1  0.4382184E+000  0.1787406E+03  0.7546771E-02  0.1169027E+00
         21   -1    0    0  501  502  0.00000000000E+00  0.00000000000E+00  0.15424292055E+03  0.15424292055E+03  0.00000000000E+00 0. -1.
         21   -1    0    0  502  503 -0.00000000000E+00 -0.00000000000E+00 -0.20763555935E+03  0.20763555935E+03  0.00000000000E+00 0. -1.
          6    1    1    2  501    0  0.33176515480E+02  0.30307190469E+02 -0.35631993871E+02  0.18225763622E+03  0.17300000000E+03 0.  1.
         -6    1    1    2    0  503 -0.33176515480E+02 -0.30307190469E+02 -0.17760644930E+02  0.17962084367E+03  0.17300000000E+03 0.  1.
<mgrwt>
<rscale>  2 0.17874061E+03</rscale>
<asrwt>0</asrwt>
<pdfrwt beam="1">  1       21 0.23729680E-01 0.17874061E+03</pdfrwt>
<pdfrwt beam="2">  1       21 0.31943932E-01 0.17874061E+03</pdfrwt>
<totfact> 0.15834587E+05</totfact>
</mgrwt>
</event>
<event>
 4    1  0.4382184E+000  0.1987651E+03  0.7546771E-02  0.1150785E+00
         21   -1    0    0  503  502  0.00000000000E+00  0.00000000000E+00  0.17312239084E+03  0.17312239084E+03  0.00000000000E+00 0.  1.
         21   -1    0    0  501  503 -0.00000000000E+00 -0.00000000000E+00 -0.62215717645E+03  0.62215717645E+03  0.00000000000E+00 0.  1.
          6    1    1    2  501    0  0.14434475917E+02  0.96799948565E+02 -0.54093520389E+03  0.57629721407E+03  0.17300000000E+03 0.  1.
         -6    1    1    2    0  502 -0.14434475917E+02 -0.96799948565E+02  0.91900418284E+02  0.21898235321E+03  0.17300000000E+03 0.  1.
<mgrwt>
<rscale>  2 0.19876515E+03</rscale>
<asrwt>0</asrwt>
<pdfrwt beam="1">  1       21 0.26634214E-01 0.19876515E+03</pdfrwt>
<pdfrwt beam="2">  1       21 0.95716487E-01 0.19876515E+03</pdfrwt>
<totfact> 0.12160959E+04</totfact>
</mgrwt>
</event>
<event>
 4    1  0.4382184E+000  0.1889220E+03  0.7546771E-02  0.1159437E+00
         21   -1    0    0  501  502  0.00000000000E+00  0.00000000000E+00  0.13178060551E+02  0.13178060551E+02  0.00000000000E+00 0. -1.
         21   -1    0    0  502  503 -0.00000000000E+00 -0.00000000000E+00 -0.30429526780E+04  0.30429526780E+04  0.00000000000E+00 0. -1.
          6    1    1    2  501    0 -0.37552574631E+02  0.65972265326E+02 -0.10082200700E+04  0.10257676370E+04  0.17300000000E+03 0. -1.
         -6    1    1    2    0  503  0.37552574631E+02 -0.65972265326E+02 -0.20215545475E+04  0.20303631015E+04  0.17300000000E+03 0. -1.
<mgrwt>
<rscale>  2 0.18892204E+03</rscale>
<asrwt>0</asrwt>
<pdfrwt beam="1">  1       21 0.20273952E-02 0.18892204E+03</pdfrwt>
<pdfrwt beam="2">  1       21 0.46814628E+00 0.18892204E+03</pdfrwt>
<totfact> 0.38062460E+03</totfact>
</mgrwt>
</event>
<event>
 4    1  0.4382184E+000  0.1823281E+03  0.7546771E-02  0.1165569E+00
         21   -1    0    0  501  502  0.00000000000E+00  0.00000000000E+00  0.42093438412E+03  0.42093438412E+03  0.00000000000E+00 0.  1.
         21   -1    0    0  502  503 -0.00000000000E+00 -0.00000000000E+00 -0.20028555055E+03  0.20028555055E+03  0.00000000000E+00 0.  1.
          6    1    1    2  501    0  0.26804804824E+02  0.50951301282E+02  0.35205903343E+03  0.39647080055E+03  0.17300000000E+03 0.  1.
         -6    1    1    2    0  503 -0.26804804824E+02 -0.50951301282E+02 -0.13141019986E+03  0.22474913413E+03  0.17300000000E+03 0.  1.
<mgrwt>
<rscale>  2 0.18232809E+03</rscale>
<asrwt>0</asrwt>
<pdfrwt beam="1">  1       21 0.64759136E-01 0.18232809E+03</pdfrwt>
<pdfrwt beam="2">  1       21 0.30813162E-01 0.18232809E+03</pdfrwt>
<totfact> 0.22356383E+04</totfact>
</mgrwt>
</event>
<event>
 4    1  0.4382184E+000  0.1903531E+03  0.7546771E-02  0.1158143E+00
         21   -1    0    0  503  502  0.00000000000E+00  0.00000000000E+00  0.52468099051E+03  0.52468099051E+03  0.00000000000E+00 0. -1.
         21   -1    0    0  501  503 -0.00000000000E+00 -0.00000000000E+00 -0.69060751639E+02  0.69060751639E+02  0.00000000000E+00 0. -1.
          6    1    1    2  501    0  0.90261608300E+01 -0.78891314291E+02  0.22665086086E+03  0.29598128957E+03  0.17300000000E+03 0. -1.
         -6    1    1    2    0  502 -0.90261608300E+01  0.78891314291E+02  0.22896937801E+03  0.29776045257E+03  0.17300000000E+03 0. -1.
<mgrwt>
<rscale>  2 0.19035312E+03</rscale>
<asrwt>0</asrwt>
<pdfrwt beam="1">  1       21 0.80720150E-01 0.19035312E+03</pdfrwt>
<pdfrwt beam="2">  1       21 0.10624731E-01 0.19035312E+03</pdfrwt>
<totfact> 0.98331147E+04</totfact>
</mgrwt>
</event>
<event>
 4    1  0.4382184E+000  0.1800955E+03  0.7546771E-02  0.1167711E+00
         21   -1    0    0  501  502  0.00000000000E+00  0.00000000000E+00  0.23498828040E+04  0.23498828040E+04  0.00000000000E+00 0.  1.
         21   -1    0    0  502  503 -0.00000000000E+00 -0.00000000000E+00 -0.20514364928E+02  0.20514364928E+02  0.00000000000E+00 0.  1.
          6    1    1    2  501    0  0.29619921153E+02 -0.40348921853E+02  0.18426098716E+04  0.18513901572E+04  0.17300000000E+03 0.  1.
         -6    1    1    2    0  503 -0.29619921153E+02  0.40348921853E+02  0.48675856744E+03  0.51900701170E+03  0.17300000000E+03 0.  1.
<mgrwt>
<rscale>  2 0.18009546E+03</rscale>
<asrwt>0</asrwt>
<pdfrwt beam="1">  1       21 0.36152022E+00 0.18009546E+03</pdfrwt>
<pdfrwt beam="2">  1       21 0.31560580E-02 0.18009546E+03</pdfrwt>
<totfact> 0.88325805E+03</totfact>
</mgrwt>
</event>
<event>
 4    1  0.4382184E+000  0.2930502E+03  0.7546771E-02  0.1088767E+00
         21   -1    0    0  501  502  0.00000000000E+00  0.00000000000E+00  0.28345619059E+03  0.28345619059E+03  0.00000000000E+00 0.  1.
         21   -1    0    0  502  503 -0.00000000000E+00 -0.00000000000E+00 -0.49850046830E+03  0.49850046830E+03  0.00000000000E+00 0.  1.
          6    1    1    2  501    0  0.15379917578E+03 -0.17970881103E+03  0.13734370726E+03  0.32363828135E+03  0.17300000000E+03 0.  1.
         -6    1    1    2    0  503 -0.15379917578E+03  0.17970881103E+03 -0.35238798498E+03  0.45831837754E+03  0.17300000000E+03 0.  1.
<mgrwt>
<rscale>  2 0.29305024E+03</rscale>
<asrwt>0</asrwt>
<pdfrwt beam="1">  1       21 0.43608644E-01 0.29305024E+03</pdfrwt>
<pdfrwt beam="2">  1       21 0.76692380E-01 0.29305024E+03</pdfrwt>
<totfact> 0.71922306E+03</totfact>
</mgrwt>
</event>
<event>
 4    1  0.4382184E+000  0.2108770E+03  0.7546771E-02  0.1140873E+00
         21   -1    0    0  501  502  0.00000000000E+00  0.00000000000E+00  0.22274534877E+03  0.22274534877E+03  0.00000000000E+00 0.  1.
         21   -1    0    0  502  503 -0.00000000000E+00 -0.00000000000E+00 -0.27646541558E+03  0.27646541558E+03  0.00000000000E+00 0.  1.
          6    1    1    2  501    0  0.66591332309E+02 -0.10052712435E+03  0.10471791813E+03  0.23544627975E+03  0.17300000000E+03 0.  1.
         -6    1    1    2    0  503 -0.66591332309E+02  0.10052712435E+03 -0.15843798493E+03  0.26376448460E+03  0.17300000000E+03 0.  1.
<mgrwt>
<rscale>  2 0.21087700E+03</rscale>
<asrwt>0</asrwt>
<pdfrwt beam="1">  1       21 0.34268515E-01 0.21087700E+03</pdfrwt>
<pdfrwt beam="2">  1       21 0.42533141E-01 0.21087700E+03</pdfrwt>
<totfact> 0.43242589E+04</totfact>
</mgrwt>
</event>
<event>
 4    1  0.4382184E+000  0.2583070E+03  0.7546771E-02  0.1108165E+00
         21   -1    0    0  501  502  0.00000000000E+00  0.00000000000E+00  0.19973943191E+04  0.19973943191E+04  0.00000000000E+00 0. -1.
         21   -1    0    0  502  503 -0.00000000000E+00 -0.00000000000E+00 -0.34851227919E+02  0.34851227919E+02  0.00000000000E+00 0. -1.
          6    1    1    2  501    0 -0.63304841822E+02  0.18106899126E+03  0.11882814807E+04  0.12160326312E+04  0.17300000000E+03 0. -1.
         -6    1    1    2    0  503  0.63304841822E+02 -0.18106899126E+03  0.77426161039E+03  0.81621291580E+03  0.17300000000E+03 0. -1.
<mgrwt>
<rscale>  2 0.25830695E+03</rscale>
<asrwt>0</asrwt>
<pdfrwt beam="1">  1       21 0.30729134E+00 0.25830695E+03</pdfrwt>
<pdfrwt beam="2">  1       21 0.53617289E-02 0.25830695E+03</pdfrwt>
<totfact> 0.69396938E+03</totfact>
</mgrwt>
</event>
<event>
 4    1  0.4382184E+000  0.2447197E+03  0.7546771E-02  0.1116688E+00
         21   -1    0    0  501  502  0.00000000000E+00  0.00000000000E+00  0.53793213486E+02  0.53793213486E+02  0.00000000000E+00 0.  1.
         21   -1    0    0  502  503 -0.00000000000E+00 -0.00000000000E+00 -0.13031721998E+04  0.13031721998E+04  0.00000000000E+00 0.  1.
          6    1    1    2  501    0 -0.14357496492E+03  0.96669444303E+02 -0.36570514709E+03  0.44003182456E+03  0.17300000000E+03 0.  1.
         -6    1    1    2    0  503  0.14357496492E+03 -0.96669444303E+02 -0.88367383922E+03  0.91693358873E+03  0.17300000000E+03 0.  1.
<mgrwt>
<rscale>  2 0.24471974E+03</rscale>
<asrwt>0</asrwt>
<pdfrwt beam="1">  1       21 0.82758791E-02 0.24471974E+03</pdfrwt>
<pdfrwt beam="2">  1       21 0.20048803E+00 0.24471974E+03</pdfrwt>
<totfact> 0.14518164E+04</totfact>
</mgrwt>
</event>
<event>
 4    1  0.4382184E+000  0.2526743E+03  0.7546771E-02  0.1111626E+00
         21   -1    0    0  503  502  0.00000000000E+00  0.00000000000E+00  0.16676586855E+03  0.16676586855E+03  0.00000000000E+00 0. -1.
         21   -1    0    0  501  503 -0.00000000000E+00 -0.00000000000E+00 -0.43551021612E+03  0.43551021612E+03  0.00000000000E+00 0.  1.
          6    1    1    2  501    0  0.14454547661E+03  0.11411361230E+03 -0.23909883339E+03  0.34786860084E+03  0.17300000000E+03 0. -1.
         -6    1    1    2    0  502 -0.14454547661E+03 -0.11411361230E+03 -0.29645514176E+02  0.25440748383E+03  0.17300000000E+03 0. -1.
<mgrwt>
<rscale>  2 0.25267432E+03</rscale>
<asrwt>0</asrwt>
<pdfrwt beam="1">  1       21 0.25656288E-01 0.25267432E+03</pdfrwt>
<pdfrwt beam="2">  1       21 0.67001570E-01 0.25267432E+03</pdfrwt>
<totfact> 0.28523982E+04</totfact>
</mgrwt>
</event>
<event>
 4    1  0.4382184E+000  0.2132152E+03  0.7546771E-02  0.1139045E+00
         21   -1    0    0  503  502  0.00000000000E+00  0.00000000000E+00  0.65444809511E+03  0.65444809511E+03  0.00000000000E+00 0. -1.
         21   -1    0    0  501  503 -0.00000000000E+00 -0.00000000000E+00 -0.10519715295E+03  0.10519715295E+03  0.00000000000E+00 0. -1.
          6    1    1    2  501    0  0.73618195540E+02  0.10055879585E+03  0.53258246307E+02  0.21976612782E+03  0.17300000000E+03 0. -1.
         -6    1    1    2    0  502 -0.73618195540E+02 -0.10055879585E+03  0.49599269585E+03  0.53987912024E+03  0.17300000000E+03 0. -1.
<mgrwt>
<rscale>  2 0.21321517E+03</rscale>
<asrwt>0</asrwt>
<pdfrwt beam="1">  1       21 0.10068432E+00 0.21321517E+03</pdfrwt>
<pdfrwt beam="2">  1       21 0.16184178E-01 0.21321517E+03</pdfrwt>
<totfact> 0.27256366E+04</totfact>
</mgrwt>
</event>
<event>
 4    1  0.4382184E+000  0.2140098E+03  0.7546771E-02  0.1138429E+00
         21   -1    0    0  501  502  0.00000000000E+00  0.00000000000E+00  0.14817103605E+04  0.14817103605E+04  0.00000000000E+00 0. -1.
         21   -1    0    0  502  503 -0.00000000000E+00 -0.00000000000E+00 -0.11834468667E+03  0.11834468667E+03  0.00000000000E+00 0.  1.
          6    1    1    2  501    0 -0.12189487792E+03  0.31825214806E+02  0.13693392903E+04  0.13859618673E+04  0.17300000000E+03 0. -1.
         -6    1    1    2    0  503  0.12189487792E+03 -0.31825214806E+02 -0.59736165307E+01  0.21409317984E+03  0.17300000000E+03 0.  1.
<mgrwt>
<rscale>  2 0.21400983E+03</rscale>
<asrwt>0</asrwt>
<pdfrwt beam="1">  1       21 0.22795543E+00 0.21400983E+03</pdfrwt>
<pdfrwt beam="2">  1       21 0.18206876E-01 0.21400983E+03</pdfrwt>
<totfact> 0.24192649E+03</totfact>
</mgrwt>
</event>
<event>
 4    1  0.4382184E+000  0.1817919E+03  0.7546771E-02  0.1166080E+00
         21   -1    0    0  503  502  0.00000000000E+00  0.00000000000E+00  0.57279012887E+02  0.57279012887E+02  0.00000000000E+00 0. -1.
         21   -1    0    0  501  503 -0.00000000000E+00 -0.00000000000E+00 -0.57708819386E+03  0.57708819386E+03  0.00000000000E+00 0.  1.
          6    1    1    2  501    0 -0.10950297983E+02  0.54766541707E+02 -0.26444016537E+03  0.32090011558E+03  0.17300000000E+03 0. -1.
         -6    1    1    2    0  502  0.10950297983E+02 -0.54766541707E+02 -0.25536901560E+03  0.31346709117E+03  0.17300000000E+03 0. -1.
<mgrwt>
<rscale>  2 0.18179187E+03</rscale>
<asrwt>0</asrwt>
<pdfrwt beam="1">  1       21 0.88121559E-02 0.18179187E+03</pdfrwt>
<pdfrwt beam="2">  1       21 0.88782799E-01 0.18179187E+03</pdfrwt>
<totfact> 0.11035700E+05</totfact>
</mgrwt>
</event>
<event>
 4    1  0.4382184E+000  0.1898649E+03  0.7546771E-02  0.1158583E+00
         21   -1    0    0  503  502  0.00000000000E+00  0.00000000000E+00  0.91046338663E+03  0.91046338663E+03  0.00000000000E+00 0.  1.
         21   -1    0    0  501  503 -0.00000000000E+00 -0.00000000000E+00 -0.12020474039E+04  0.12020474039E+04  0.00000000000E+00 0. -1.
          6    1    1    2  501    0  0.10349415605E+02 -0.77540827827E+02 -0.11845059486E+04  0.11996262054E+04  0.17300000000E+03 0. -1.
         -6    1    1    2    0  502 -0.10349415605E+02  0.77540827827E+02  0.89292193132E+03  0.91288458515E+03  0.17300000000E+03 0.  1.
<mgrwt>
<rscale>  2 0.18986493E+03</rscale>
<asrwt>0</asrwt>
<pdfrwt beam="1">  1       21 0.14007129E+00 0.18986493E+03</pdfrwt>
<pdfrwt beam="2">  1       21 0.18493037E+00 0.18986493E+03</pdfrwt>
<totfact> 0.60490166E+01</totfact>
</mgrwt>
</event>
<event>
 4    1  0.4382184E+000  0.2294838E+03  0.7546771E-02  0.1127004E+00
         21   -1    0    0  503  502  0.00000000000E+00  0.00000000000E+00  0.19290162847E+04  0.19290162847E+04  0.00000000000E+00 0.  1.
         21   -1    0    0  501  503 -0.00000000000E+00 -0.00000000000E+00 -0.28193027210E+02  0.28193027210E+02  0.00000000000E+00 0.  1.
          6    1    1    2  501    0  0.13255395789E+03  0.71855775889E+02  0.77627681971E+03  0.80948656882E+03  0.17300000000E+03 0.  1.
         -6    1    1    2    0  502 -0.13255395789E+03 -0.71855775889E+02  0.11245464378E+04  0.11477227431E+04  0.17300000000E+03 0.  1.
<mgrwt>
<rscale>  2 0.22948378E+03</rscale>
<asrwt>0</asrwt>
<pdfrwt beam="1">  1       21 0.29677163E+00 0.22948378E+03</pdfrwt>
<pdfrwt beam="2">  1       21 0.43373903E-02 0.22948378E+03</pdfrwt>
<totfact> 0.11752845E+04</totfact>
</mgrwt>
</event>
<event>
 4    1  0.4382184E+000  0.2289488E+03  0.7546771E-02  0.1127382E+00
         21   -1    0    0  501  502  0.00000000000E+00  0.00000000000E+00  0.40707472060E+03  0.40707472060E+03  0.00000000000E+00 0. -1.
         21   -1    0    0  502  503 -0.00000000000E+00 -0.00000000000E+00 -0.13662114557E+03  0.13662114557E+03  0.00000000000E+00 0.  1.
          6    1    1    2  501    0  0.58961149768E+02 -0.13788453028E+03  0.20040945743E+03  0.30427210109E+03  0.17300000000E+03 0. -1.
         -6    1    1    2    0  503 -0.58961149768E+02  0.13788453028E+03  0.70044117600E+02  0.23942376507E+03  0.17300000000E+03 0.  1.
<mgrwt>
<rscale>  2 0.22894882E+03</rscale>
<asrwt>0</asrwt>
<pdfrwt beam="1">  1       21 0.62626879E-01 0.22894882E+03</pdfrwt>
<pdfrwt beam="2">  1       21 0.21018638E-01 0.22894882E+03</pdfrwt>
<totfact> 0.48849951E+04</totfact>
</mgrwt>
</event>
<event>
 4    1  0.4382184E+000  0.2020521E+03  0.7546771E-02  0.1148019E+00
         21   -1    0    0  501  502  0.00000000000E+00  0.00000000000E+00  0.89091641475E+02  0.89091641475E+02  0.00000000000E+00 0.  1.
         21   -1    0    0  502  503 -0.00000000000E+00 -0.00000000000E+00 -0.51724279539E+03  0.51724279539E+03  0.00000000000E+00 0.  1.
          6    1    1    2  501    0  0.96470293240E+02  0.39869085337E+02 -0.11167948443E+03  0.23086222880E+03  0.17300000000E+03 0.  1.
         -6    1    1    2    0  503 -0.96470293240E+02 -0.39869085337E+02 -0.31647166948E+03  0.37547220807E+03  0.17300000000E+03 0.  1.
<mgrwt>
<rscale>  2 0.20205213E+03</rscale>
<asrwt>0</asrwt>
<pdfrwt beam="1">  1       21 0.13706407E-01 0.20205213E+03</pdfrwt>
<pdfrwt beam="2">  1       21 0.79575813E-01 0.20205213E+03</pdfrwt>
<totfact> 0.64028597E+04</totfact>
</mgrwt>
</event>
<event>
 4    1  0.4382184E+000  0.1772431E+03  0.7546771E-02  0.1170498E+00
         21   -1    0    0  503  502  0.00000000000E+00  0.00000000000E+00  0.92851368543E+02  0.92851368543E+02  0.00000000000E+00 0.  1.
         21   -1    0    0  501  503 -0.00000000000E+00 -0.00000000000E+00 -0.36871951566E+03  0.36871951566E+03  0.00000000000E+00 0.  1.
          6    1    1    2  501    0  0.23657691862E+01 -0.38477745041E+02 -0.20418104609E+03  0.27037942471E+03  0.17300000000E+03 0. -1.
         -6    1    1    2    0  502 -0.23657691862E+01  0.38477745041E+02 -0.71687101028E+02  0.19119145949E+03  0.17300000000E+03 0. -1.
<mgrwt>
<rscale>  2 0.17724315E+03</rscale>
<asrwt>0</asrwt>
<pdfrwt beam="1">  1       21 0.14284826E-01 0.17724315E+03</pdfrwt>
<pdfrwt beam="2">  1       21 0.56726078E-01 0.17724315E+03</pdfrwt>
<totfact> 0.12592107E+05</totfact>
</mgrwt>
</event>
<event>
 4    1  0.4382184E+000  0.2004537E+03  0.7546771E-02  0.1149357E+00
         21   -1    0    0  503  502  0.00000000000E+00  0.00000000000E+00  0.33708652140E+03  0.33708652140E+03  0.00000000000E+00 0.  1.
         21   -1    0    0  501  503 -0.00000000000E+00 -0.00000000000E+00 -0.11930034376E+03  0.11930034376E+03  0.00000000000E+00 0. -1.
          6    1    1    2  501    0  0.97480867154E+02 -0.27389053624E+02  0.11541587629E+03  0.23130608340E+03  0.17300000000E+03 0.  1.
         -6    1    1    2    0  502 -0.97480867154E+02  0.27389053624E+02  0.10237030134E+03  0.22508078176E+03  0.17300000000E+03 0.  1.
<mgrwt>
<rscale>  2 0.20045368E+03</rscale>
<asrwt>0</asrwt>
<pdfrwt beam="1">  1       21 0.51859464E-01 0.20045368E+03</pdfrwt>
<pdfrwt beam="2">  1       21 0.18353899E-01 0.20045368E+03</pdfrwt>
<totfact> 0.95302797E+04</totfact>
</mgrwt>
</event>
<event>
 4    1  0.4382184E+000  0.2107781E+03  0.7546771E-02  0.1140951E+00
         21   -1    0    0  501  502  0.00000000000E+00  0.00000000000E+00  0.40745450684E+03  0.40745450684E+03  0.00000000000E+00 0.  1.
         21   -1    0    0  502  503 -0.00000000000E+00 -0.00000000000E+00 -0.13075400392E+03  0.13075400392E+03  0.00000000000E+00 0.  1.
          6    1    1    2  501    0  0.57486891490E+02 -0.10580005403E+03  0.24802294068E+03  0.32548851474E+03  0.17300000000E+03 0.  1.
         -6    1    1    2    0  503 -0.57486891490E+02  0.10580005403E+03  0.28677562241E+02  0.21271999601E+03  0.17300000000E+03 0.  1.
<mgrwt>
<rscale>  2 0.21077807E+03</rscale>
<asrwt>0</asrwt>
<pdfrwt beam="1">  1       21 0.62685308E-01 0.21077807E+03</pdfrwt>
<pdfrwt beam="2">  1       21 0.20116001E-01 0.21077807E+03</pdfrwt>
<totfact> 0.53376932E+04</totfact>
</mgrwt>
</event>
<event>
 4    1  0.4382184E+000  0.1838508E+03  0.7546771E-02  0.1164127E+00
         21   -1    0    0  503  502  0.00000000000E+00  0.00000000000E+00  0.84916399348E+03  0.84916399348E+03  0.00000000000E+00 0. -1.
         21   -1    0    0  501  503 -0.00000000000E+00 -0.00000000000E+00 -0.44036678786E+02  0.44036678786E+02  0.00000000000E+00 0. -1.
          6    1    1    2  501    0  0.51457659684E+02  0.34988696517E+02  0.26412402171E+03  0.32181143309E+03  0.17300000000E+03 0. -1.
         -6    1    1    2    0  502 -0.51457659684E+02 -0.34988696517E+02  0.54100329298E+03  0.57138923917E+03  0.17300000000E+03 0. -1.
<mgrwt>
<rscale>  2 0.18385075E+03</rscale>
<asrwt>0</asrwt>
<pdfrwt beam="1">  1       21 0.13064060E+00 0.18385075E+03</pdfrwt>
<pdfrwt beam="2">  1       21 0.67748743E-02 0.18385075E+03</pdfrwt>
<totfact> 0.68622046E+04</totfact>
</mgrwt>
</event>
<event>
 4    1  0.4382184E+000  0.1877241E+03  0.7546771E-02  0.1160530E+00
         21   -1    0    0  503  502  0.00000000000E+00  0.00000000000E+00  0.11604528927E+03  0.11604528927E+03  0.00000000000E+00 0. -1.
         21   -1    0    0  501  503 -0.00000000000E+00 -0.00000000000E+00 -0.35426464560E+03  0.35426464560E+03  0.00000000000E+00 0. -1.
          6    1    1    2  501    0 -0.26363485214E+02 -0.67943325001E+02 -0.20797061279E+03  0.28016442413E+03  0.17300000000E+03 0. -1.
         -6    1    1    2    0  502  0.26363485214E+02  0.67943325001E+02 -0.30248743536E+02  0.19014551073E+03  0.17300000000E+03 0. -1.
<mgrwt>
<rscale>  2 0.18772408E+03</rscale>
<asrwt>0</asrwt>
<pdfrwt beam="1">  1       21 0.17853122E-01 0.18772408E+03</pdfrwt>
<pdfrwt beam="2">  1       21 0.54502252E-01 0.18772408E+03</pdfrwt>
<totfact> 0.90810466E+04</totfact>
</mgrwt>
</event>
<event>
 4    1  0.4382184E+000  0.2120995E+03  0.7546771E-02  0.1139914E+00
         21   -1    0    0  501  502  0.00000000000E+00  0.00000000000E+00  0.81634605751E+03  0.81634605751E+03  0.00000000000E+00 0.  1.
         21   -1    0    0  502  503 -0.00000000000E+00 -0.00000000000E+00 -0.12305466782E+03  0.12305466782E+03  0.00000000000E+00 0.  1.
          6    1    1    2  501    0  0.67113172009E+02  0.10272796151E+03  0.69567331281E+03  0.72728781792E+03  0.17300000000E+03 0.  1.
         -6    1    1    2    0  503 -0.67113172009E+02 -0.10272796151E+03 -0.23819231142E+01  0.21211290741E+03  0.17300000000E+03 0.  1.
<mgrwt>
<rscale>  2 0.21209953E+03</rscale>
<asrwt>0</asrwt>
<pdfrwt beam="1">  1       21 0.12559170E+00 0.21209953E+03</pdfrwt>
<pdfrwt beam="2">  1       21 0.18931488E-01 0.21209953E+03</pdfrwt>
<totfact> 0.11892219E+04</totfact>
</mgrwt>
</event>
<event>
 4    1  0.4382184E+000  0.1743305E+03  0.7546771E-02  0.1173406E+00
         21   -1    0    0  503  502  0.00000000000E+00  0.00000000000E+00  0.54802020874E+03  0.54802020874E+03  0.00000000000E+00 0.  1.
         21   -1    0    0  501  503 -0.00000000000E+00 -0.00000000000E+00 -0.10474859991E+03  0.10474859991E+03  0.00000000000E+00 0.  1.
          6    1    1    2  501    0  0.29876940410E+01 -0.21288598552E+02 -0.22595934477E+01  0.17434516485E+03  0.17300000000E+03 0.  1.
         -6    1    1    2    0  502 -0.29876940410E+01  0.21288598552E+02  0.44553120228E+03  0.47842364380E+03  0.17300000000E+03 0.  1.
<mgrwt>
<rscale>  2 0.17433052E+03</rscale>
<asrwt>0</asrwt>
<pdfrwt beam="1">  1       21 0.84310800E-01 0.17433052E+03</pdfrwt>
<pdfrwt beam="2">  1       21 0.16115170E-01 0.17433052E+03</pdfrwt>
<totfact> 0.42408377E+04</totfact>
</mgrwt>
</event>
<event>
 4    1  0.4382184E+000  0.2484672E+03  0.7546771E-02  0.1114277E+00
         21   -1    0    0  501  502  0.00000000000E+00  0.00000000000E+00  0.15305118093E+03  0.15305118093E+03  0.00000000000E+00 0. -1.
         21   -1    0    0  502  503 -0.00000000000E+00 -0.00000000000E+00 -0.41344059541E+03  0.41344059541E+03  0.00000000000E+00 0. -1.
          6    1    1    2  501    0 -0.73674294842E+02  0.16241634516E+03 -0.85984288255E+02  0.26292445440E+03  0.17300000000E+03 0. -1.
         -6    1    1    2    0  503  0.73674294842E+02 -0.16241634516E+03 -0.17440512622E+03  0.30356732194E+03  0.17300000000E+03 0. -1.
<mgrwt>
<rscale>  2 0.24846724E+03</rscale>
<asrwt>0</asrwt>
<pdfrwt beam="1">  1       21 0.23546336E-01 0.24846724E+03</pdfrwt>
<pdfrwt beam="2">  1       21 0.63606244E-01 0.24846724E+03</pdfrwt>
<totfact> 0.37757676E+04</totfact>
</mgrwt>
</event>
<event>
 4    1  0.4382184E+000  0.3106252E+03  0.7546771E-02  0.1080047E+00
         21   -1    0    0  503  502  0.00000000000E+00  0.00000000000E+00  0.10870129311E+03  0.10870129311E+03  0.00000000000E+00 0. -1.
         21   -1    0    0  501  503 -0.00000000000E+00 -0.00000000000E+00 -0.89193152828E+03  0.89193152828E+03  0.00000000000E+00 0. -1.
          6    1    1    2  501    0 -0.25451336068E+03 -0.42213018861E+02 -0.42630564156E+03  0.52746989464E+03  0.17300000000E+03 0. -1.
         -6    1    1    2    0  502  0.25451336068E+03  0.42213018861E+02 -0.35692459362E+03  0.47316292675E+03  0.17300000000E+03 0. -1.
<mgrwt>
<rscale>  2 0.31062516E+03</rscale>
<asrwt>0</asrwt>
<pdfrwt beam="1">  1       21 0.16723277E-01 0.31062516E+03</pdfrwt>
<pdfrwt beam="2">  1       21 0.13722023E+00 0.31062516E+03</pdfrwt>
<totfact> 0.11313475E+04</totfact>
</mgrwt>
</event>
<event>
 4    1  0.4382184E+000  0.2461678E+03  0.7546771E-02  0.1115751E+00
         21   -1    0    0  501  502  0.00000000000E+00  0.00000000000E+00  0.15872701245E+04  0.15872701245E+04  0.00000000000E+00 0. -1.
         21   -1    0    0  502  503 -0.00000000000E+00 -0.00000000000E+00 -0.64997051500E+02  0.64997051500E+02  0.00000000000E+00 0. -1.
          6    1    1    2  501    0  0.55463859550E+02 -0.16611241820E+03  0.12918086904E+04  0.13150544734E+04  0.17300000000E+03 0. -1.
         -6    1    1    2    0  503 -0.55463859550E+02  0.16611241820E+03  0.23046438256E+03  0.33721270264E+03  0.17300000000E+03 0. -1.
<mgrwt>
<rscale>  2 0.24616778E+03</rscale>
<asrwt>0</asrwt>
<pdfrwt beam="1">  1       21 0.24419537E+00 0.24616778E+03</pdfrwt>
<pdfrwt beam="2">  1       21 0.99995476E-02 0.24616778E+03</pdfrwt>
<totfact> 0.55618999E+03</totfact>
</mgrwt>
</event>
<event>
 4    1  0.4382184E+000  0.2326170E+03  0.7546771E-02  0.1124811E+00
         21   -1    0    0  501  502  0.00000000000E+00  0.00000000000E+00  0.12454681450E+04  0.12454681450E+04  0.00000000000E+00 0. -1.
         21   -1    0    0  502  503 -0.00000000000E+00 -0.00000000000E+00 -0.74812262038E+02  0.74812262038E+02  0.00000000000E+00 0. -1.
          6    1    1    2  501    0 -0.43009034216E+02 -0.14943864596E+03  0.10127734374E+04  0.10391442255E+04  0.17300000000E+03 0. -1.
         -6    1    1    2    0  503  0.43009034216E+02  0.14943864596E+03  0.15788244552E+03  0.28113618148E+03  0.17300000000E+03 0. -1.
<mgrwt>
<rscale>  2 0.23261704E+03</rscale>
<asrwt>0</asrwt>
<pdfrwt beam="1">  1       21 0.19161047E+00 0.23261704E+03</pdfrwt>
<pdfrwt beam="2">  1       21 0.11509580E-01 0.23261704E+03</pdfrwt>
<totfact> 0.93271187E+03</totfact>
</mgrwt>
</event>
<event>
 4    1  0.4382184E+000  0.2597747E+03  0.7546771E-02  0.1107279E+00
         21   -1    0    0  501  502  0.00000000000E+00  0.00000000000E+00  0.16810030597E+03  0.16810030597E+03  0.00000000000E+00 0.  1.
         21   -1    0    0  502  503 -0.00000000000E+00 -0.00000000000E+00 -0.40848264257E+03  0.40848264257E+03  0.00000000000E+00 0.  1.
          6    1    1    2  501    0  0.10554096089E+03 -0.16252693378E+03 -0.82348459117E+02  0.27251452686E+03  0.17300000000E+03 0.  1.
         -6    1    1    2    0  503 -0.10554096089E+03  0.16252693378E+03 -0.15803387749E+03  0.30406842168E+03  0.17300000000E+03 0.  1.
<mgrwt>
<rscale>  2 0.25977471E+03</rscale>
<asrwt>0</asrwt>
<pdfrwt beam="1">  1       21 0.25861585E-01 0.25977471E+03</pdfrwt>
<pdfrwt beam="2">  1       21 0.62843484E-01 0.25977471E+03</pdfrwt>
<totfact> 0.32224648E+04</totfact>
</mgrwt>
</event>
<event>
 4    1  0.4382184E+000  0.2496185E+03  0.7546771E-02  0.1113546E+00
         21   -1    0    0  501  502  0.00000000000E+00  0.00000000000E+00  0.69770656116E+02  0.69770656116E+02  0.00000000000E+00 0. -1.
         21   -1    0    0  502  503 -0.00000000000E+00 -0.00000000000E+00 -0.90171651593E+03  0.90171651593E+03  0.00000000000E+00 0.  1.
          6    1    1    2  501    0  0.11300709020E+03  0.14003497968E+03 -0.46356536664E+03  0.52649999726E+03  0.17300000000E+03 0. -1.
         -6    1    1    2    0  503 -0.11300709020E+03 -0.14003497968E+03 -0.36838049317E+03  0.44498717478E+03  0.17300000000E+03 0.  1.
<mgrwt>
<rscale>  2 0.24961850E+03</rscale>
<asrwt>0</asrwt>
<pdfrwt beam="1">  1       21 0.10733948E-01 0.24961850E+03</pdfrwt>
<pdfrwt beam="2">  1       21 0.13872560E+00 0.24961850E+03</pdfrwt>
<totfact> 0.25382165E+04</totfact>
</mgrwt>
</event>
<event>
 4    1  0.4382184E+000  0.3053709E+03  0.7546771E-02  0.1082586E+00
         21   -1    0    0  503  502  0.00000000000E+00  0.00000000000E+00  0.25816617539E+03  0.25816617539E+03  0.00000000000E+00 0.  1.
         21   -1    0    0  501  503 -0.00000000000E+00 -0.00000000000E+00 -0.37046628687E+03  0.37046628687E+03  0.00000000000E+00 0.  1.
          6    1    1    2  501    0 -0.83375551639E+02 -0.23742553038E+03 -0.64579840851E+01  0.30543914393E+03  0.17300000000E+03 0.  1.
         -6    1    1    2    0  502  0.83375551639E+02  0.23742553038E+03 -0.10584212740E+03  0.32319331834E+03  0.17300000000E+03 0.  1.
<mgrwt>
<rscale>  2 0.30537086E+03</rscale>
<asrwt>0</asrwt>
<pdfrwt beam="1">  1       21 0.39717873E-01 0.30537086E+03</pdfrwt>
<pdfrwt beam="2">  1       21 0.56994813E-01 0.30537086E+03</pdfrwt>
<totfact> 0.16692184E+04</totfact>
</mgrwt>
</event>
<event>
 4    1  0.4382184E+000  0.1778045E+03  0.7546771E-02  0.1169945E+00
         21   -1    0    0  503  502  0.00000000000E+00  0.00000000000E+00  0.40894184132E+02  0.40894184132E+02  0.00000000000E+00 0.  1.
         21   -1    0    0  501  503 -0.00000000000E+00 -0.00000000000E+00 -0.11346577443E+04  0.11346577443E+04  0.00000000000E+00 0.  1.
          6    1    1    2  501    0 -0.16498269877E+02 -0.37592993818E+02 -0.87868527664E+03  0.89649441799E+03  0.17300000000E+03 0.  1.
         -6    1    1    2    0  502  0.16498269877E+02  0.37592993818E+02 -0.21507828354E+03  0.27905751046E+03  0.17300000000E+03 0.  1.
<mgrwt>
<rscale>  2 0.17780446E+03</rscale>
<asrwt>0</asrwt>
<pdfrwt beam="1">  1       21 0.62914127E-02 0.17780446E+03</pdfrwt>
<pdfrwt beam="2">  1       21 0.17456274E+00 0.17780446E+03</pdfrwt>
<totfact> 0.36396705E+04</totfact>
</mgrwt>
</event>
<event>
 4    1  0.4382184E+000  0.2393675E+03  0.7546771E-02  0.1120215E+00
         21   -1    0    0  501  502  0.00000000000E+00  0.00000000000E+00  0.23216687288E+03  0.23216687288E+03  0.00000000000E+00 0.  1.
         21   -1    0    0  502  503 -0.00000000000E+00 -0.00000000000E+00 -0.45764755731E+03  0.45764755731E+03  0.00000000000E+00 0.  1.
          6    1    1    2  501    0 -0.16054709462E+03  0.39905509569E+02  0.12137491008E+03  0.26838160906E+03  0.17300000000E+03 0.  1.
         -6    1    1    2    0  503  0.16054709462E+03 -0.39905509569E+02 -0.34685559451E+03  0.42143282113E+03  0.17300000000E+03 0.  1.
<mgrwt>
<rscale>  2 0.23936754E+03</rscale>
<asrwt>0</asrwt>
<pdfrwt beam="1">  1       21 0.35717981E-01 0.23936754E+03</pdfrwt>
<pdfrwt beam="2">  1       21 0.70407316E-01 0.23936754E+03</pdfrwt>
<totfact> 0.13440025E+04</totfact>
</mgrwt>
</event>
<event>
 4    1  0.4382184E+000  0.1761190E+03  0.7546771E-02  0.1171613E+00
         21   -1    0    0  503  502  0.00000000000E+00  0.00000000000E+00  0.70904760741E+02  0.70904760741E+02  0.00000000000E+00 0.  1.
         21   -1    0    0  501  503 -0.00000000000E+00 -0.00000000000E+00 -0.45293766593E+03  0.45293766593E+03  0.00000000000E+00 0.  1.
          6    1    1    2  501    0  0.29496291306E+02 -0.14794800403E+02 -0.23943590598E+03  0.29723302373E+03  0.17300000000E+03 0.  1.
         -6    1    1    2    0  502 -0.29496291306E+02  0.14794800403E+02 -0.14259699920E+03  0.22660940294E+03  0.17300000000E+03 0.  1.
<mgrwt>
<rscale>  2 0.17611904E+03</rscale>
<asrwt>0</asrwt>
<pdfrwt beam="1">  1       21 0.10908425E-01 0.17611904E+03</pdfrwt>
<pdfrwt beam="2">  1       21 0.69682716E-01 0.17611904E+03</pdfrwt>
<totfact> 0.13095160E+05</totfact>
</mgrwt>
</event>
<event>
 4    1  0.4382184E+000  0.2149975E+03  0.7546771E-02  0.1137669E+00
         21   -1    0    0  501  502  0.00000000000E+00  0.00000000000E+00  0.77862179181E+02  0.77862179181E+02  0.00000000000E+00 0.  1.
         21   -1    0    0  502  503 -0.00000000000E+00 -0.00000000000E+00 -0.71262168459E+03  0.71262168459E+03  0.00000000000E+00 0. -1.
          6    1    1    2  501    0 -0.11873677202E+03  0.46866742734E+02 -0.15589513575E+03  0.26556958778E+03  0.17300000000E+03 0. -1.
         -6    1    1    2    0  503  0.11873677202E+03 -0.46866742734E+02 -0.47886436966E+03  0.52491427599E+03  0.17300000000E+03 0. -1.
<mgrwt>
<rscale>  2 0.21499747E+03</rscale>
<asrwt>0</asrwt>
<pdfrwt beam="1">  1       21 0.11978797E-01 0.21499747E+03</pdfrwt>
<pdfrwt beam="2">  1       21 0.10963411E+00 0.21499747E+03</pdfrwt>
<totfact> 0.38291735E+04</totfact>
</mgrwt>
</event>
<event>
 4    1  0.4382184E+000  0.1893764E+03  0.7546771E-02  0.1159025E+00
         21   -1    0    0  501  502  0.00000000000E+00  0.00000000000E+00  0.48593009183E+03  0.48593009183E+03  0.00000000000E+00 0. -1.
         21   -1    0    0  502  503 -0.00000000000E+00 -0.00000000000E+00 -0.97630871501E+02  0.97630871501E+02  0.00000000000E+00 0. -1.
          6    1    1    2  501    0  0.40023875199E+02  0.65821848067E+02  0.50004759447E+02  0.19586705245E+03  0.17300000000E+03 0. -1.
         -6    1    1    2    0  503 -0.40023875199E+02 -0.65821848067E+02  0.33829446089E+03  0.38769391088E+03  0.17300000000E+03 0. -1.
<mgrwt>
<rscale>  2 0.18937641E+03</rscale>
<asrwt>0</asrwt>
<pdfrwt beam="1">  1       21 0.74758474E-01 0.18937641E+03</pdfrwt>
<pdfrwt beam="2">  1       21 0.15020134E-01 0.18937641E+03</pdfrwt>
<totfact> 0.62760705E+04</totfact>
</mgrwt>
</event>
<event>
 4    1  0.4382184E+000  0.1751230E+03  0.7546771E-02  0.1172608E+00
         21   -1    0    0  501  502  0.00000000000E+00  0.00000000000E+00  0.14482942152E+03  0.14482942152E+03  0.00000000000E+00 0.  1.
         21   -1    0    0  502  503 -0.00000000000E+00 -0.00000000000E+00 -0.43655384014E+03  0.43655384014E+03  0.00000000000E+00 0.  1.
          6    1    1    2  501    0  0.40226267670E+01 -0.26886259345E+02 -0.35446142306E+03  0.39536180001E+03  0.17300000000E+03 0.  1.
         -6    1    1    2    0  503 -0.40226267670E+01  0.26886259345E+02  0.62737004438E+02  0.18602146165E+03  0.17300000000E+03 0.  1.
<mgrwt>
<rscale>  2 0.17512296E+03</rscale>
<asrwt>0</asrwt>
<pdfrwt beam="1">  1       21 0.22281450E-01 0.17512296E+03</pdfrwt>
<pdfrwt beam="2">  1       21 0.67162128E-01 0.17512296E+03</pdfrwt>
<totfact> 0.38591389E+04</totfact>
</mgrwt>
</event>
<event>
 4    1  0.4382184E+000  0.2456100E+03  0.7546771E-02  0.1116111E+00
         21   -1    0    0  501  502  0.00000000000E+00  0.00000000000E+00  0.41200696307E+03  0.41200696307E+03  0.00000000000E+00 0.  1.
         21   -1    0    0  502  503 -0.00000000000E+00 -0.00000000000E+00 -0.19062779189E+03  0.19062779189E+03  0.00000000000E+00 0. -1.
          6    1    1    2  501    0 -0.13728920763E+03 -0.10745664614E+03  0.25580113079E+03  0.35462441519E+03  0.17300000000E+03 0.  1.
         -6    1    1    2    0  503  0.13728920763E+03  0.10745664614E+03 -0.34421959616E+02  0.24801033977E+03  0.17300000000E+03 0. -1.
<mgrwt>
<rscale>  2 0.24560997E+03</rscale>
<asrwt>0</asrwt>
<pdfrwt beam="1">  1       21 0.63385686E-01 0.24560997E+03</pdfrwt>
<pdfrwt beam="2">  1       21 0.29327353E-01 0.24560997E+03</pdfrwt>
<totfact> 0.24928758E+04</totfact>
</mgrwt>
</event>
<event>
 4    1  0.4382184E+000  0.2371699E+03  0.7546771E-02  0.1121693E+00
         21   -1    0    0  501  502  0.00000000000E+00  0.00000000000E+00  0.28681939342E+02  0.28681939342E+02  0.00000000000E+00 0.  1.
         21   -1    0    0  502  503 -0.00000000000E+00 -0.00000000000E+00 -0.20932216158E+04  0.20932216158E+04  0.00000000000E+00 0. -1.
          6    1    1    2  501    0  0.77520907225E+02  0.14251684186E+03 -0.12987686710E+04  0.13202460385E+04  0.17300000000E+03 0. -1.
         -6    1    1    2    0  503 -0.77520907225E+02 -0.14251684186E+03 -0.76577100547E+03  0.80165751670E+03  0.17300000000E+03 0.  1.
<mgrwt>
<rscale>  2 0.23716986E+03</rscale>
<asrwt>0</asrwt>
<pdfrwt beam="1">  1       21 0.44126046E-02 0.23716986E+03</pdfrwt>
<pdfrwt beam="2">  1       21 0.32203420E+00 0.23716986E+03</pdfrwt>
<totfact> 0.80756314E+03</totfact>
</mgrwt>
</event>
<event>
 4    1  0.4382184E+000  0.1922593E+03  0.7546771E-02  0.1156439E+00
         21   -1    0    0  503  502  0.00000000000E+00  0.00000000000E+00  0.31325776639E+02  0.31325776639E+02  0.00000000000E+00 0.  1.
         21   -1    0    0  501  503 -0.00000000000E+00 -0.00000000000E+00 -0.13633283841E+04  0.13633283841E+04  0.00000000000E+00 0.  1.
          6    1    1    2  501    0 -0.81491574699E+02  0.19843772557E+02 -0.92173034374E+03  0.94156809558E+03  0.17300000000E+03 0.  1.
         -6    1    1    2    0  502  0.81491574699E+02 -0.19843772557E+02 -0.41027226373E+03  0.45308606516E+03  0.17300000000E+03 0.  1.
<mgrwt>
<rscale>  2 0.19225934E+03</rscale>
<asrwt>0</asrwt>
<pdfrwt beam="1">  1       21 0.48193505E-02 0.19225934E+03</pdfrwt>
<pdfrwt beam="2">  1       21 0.20974282E+00 0.19225934E+03</pdfrwt>
<totfact> 0.33354831E+04</totfact>
</mgrwt>
</event>
<event>
 4    1  0.4382184E+000  0.4576778E+03  0.7546771E-02  0.1025457E+00
         21   -1    0    0  501  502  0.00000000000E+00  0.00000000000E+00  0.86822476716E+03  0.86822476716E+03  0.00000000000E+00 0.  1.
         21   -1    0    0  502  503 -0.00000000000E+00 -0.00000000000E+00 -0.28616726881E+03  0.28616726881E+03  0.00000000000E+00 0. -1.
          6    1    1    2  501    0 -0.40061895746E+03 -0.13800168518E+03  0.51967574719E+03  0.69248241595E+03  0.17300000000E+03 0.  1.
         -6    1    1    2    0  503  0.40061895746E+03  0.13800168518E+03  0.62381751164E+02  0.46190962002E+03  0.17300000000E+03 0. -1.
<mgrwt>
<rscale>  2 0.45767785E+03</rscale>
<asrwt>0</asrwt>
<pdfrwt beam="1">  1       21 0.13357304E+00 0.45767785E+03</pdfrwt>
<pdfrwt beam="2">  1       21 0.44025734E-01 0.45767785E+03</pdfrwt>
<totfact> 0.17074616E+03</totfact>
</mgrwt>
</event>
<event>
 4    1  0.4382184E+000  0.1885309E+03  0.7546771E-02  0.1159793E+00
         21   -1    0    0  501  502  0.00000000000E+00  0.00000000000E+00  0.21109093767E+03  0.21109093767E+03  0.00000000000E+00 0. -1.
         21   -1    0    0  502  503 -0.00000000000E+00 -0.00000000000E+00 -0.37249770480E+03  0.37249770480E+03  0.00000000000E+00 0. -1.
          6    1    1    2  501    0 -0.52812408531E+02  0.53157703215E+02  0.13529642100E+03  0.23205390201E+03  0.17300000000E+03 0. -1.
         -6    1    1    2    0  503  0.52812408531E+02 -0.53157703215E+02 -0.29670318812E+03  0.35153474046E+03  0.17300000000E+03 0. -1.
<mgrwt>
<rscale>  2 0.18853088E+03</rscale>
<asrwt>0</asrwt>
<pdfrwt beam="1">  1       21 0.32475529E-01 0.18853088E+03</pdfrwt>
<pdfrwt beam="2">  1       21 0.57307339E-01 0.18853088E+03</pdfrwt>
<totfact> 0.26142018E+04</totfact>
</mgrwt>
</event>
<event>
 4    1  0.4382184E+000  0.1955338E+03  0.7546771E-02  0.1153563E+00
         21   -1    0    0  503  502  0.00000000000E+00  0.00000000000E+00  0.24291322085E+03  0.24291322085E+03  0.00000000000E+00 0.  1.
         21   -1    0    0  501  503 -0.00000000000E+00 -0.00000000000E+00 -0.16781326853E+03  0.16781326853E+03  0.00000000000E+00 0.  1.
          6    1    1    2  501    0 -0.68605640853E+02  0.59981032830E+02  0.88717691794E+02  0.21471908880E+03  0.17300000000E+03 0.  1.
         -6    1    1    2    0  502  0.68605640853E+02 -0.59981032830E+02 -0.13617739474E+02  0.19600740059E+03  0.17300000000E+03 0.  1.
<mgrwt>
<rscale>  2 0.19553378E+03</rscale>
<asrwt>0</asrwt>
<pdfrwt beam="1">  1       21 0.37371265E-01 0.19553378E+03</pdfrwt>
<pdfrwt beam="2">  1       21 0.25817426E-01 0.19553378E+03</pdfrwt>
<totfact> 0.98245423E+04</totfact>
</mgrwt>
</event>
<event>
 4    1  0.4382184E+000  0.2226889E+03  0.7546771E-02  0.1131894E+00
         21   -1    0    0  501  502  0.00000000000E+00  0.00000000000E+00  0.12704206811E+04  0.12704206811E+04  0.00000000000E+00 0.  1.
         21   -1    0    0  502  503 -0.00000000000E+00 -0.00000000000E+00 -0.39510313756E+02  0.39510313756E+02  0.00000000000E+00 0.  1.
          6    1    1    2  501    0 -0.12335734275E+03  0.66665808163E+02  0.68732321126E+03  0.72249813891E+03  0.17300000000E+03 0.  1.
         -6    1    1    2    0  503  0.12335734275E+03 -0.66665808163E+02  0.54358715611E+03  0.58743285598E+03  0.17300000000E+03 0.  1.
<mgrwt>
<rscale>  2 0.22268894E+03</rscale>
<asrwt>0</asrwt>
<pdfrwt beam="1">  1       21 0.19544930E+00 0.22268894E+03</pdfrwt>
<pdfrwt beam="2">  1       21 0.60785108E-02 0.22268894E+03</pdfrwt>
<totfact> 0.27138507E+04</totfact>
</mgrwt>
</event>
<event>
 4    1  0.4382184E+000  0.1938376E+03  0.7546771E-02  0.1155045E+00
         21   -1    0    0  503  502  0.00000000000E+00  0.00000000000E+00  0.15261291375E+03  0.15261291375E+03  0.00000000000E+00 0.  1.
         21   -1    0    0  501  503 -0.00000000000E+00 -0.00000000000E+00 -0.42956242024E+03  0.42956242024E+03  0.00000000000E+00 0.  1.
          6    1    1    2  501    0 -0.86181630406E+02 -0.14722422889E+02 -0.32865612462E+03  0.38155978746E+03  0.17300000000E+03 0.  1.
         -6    1    1    2    0  502  0.86181630406E+02  0.14722422889E+02  0.51706618126E+02  0.20061554654E+03  0.17300000000E+03 0.  1.
<mgrwt>
<rscale>  2 0.19383762E+03</rscale>
<asrwt>0</asrwt>
<pdfrwt beam="1">  1       21 0.23478910E-01 0.19383762E+03</pdfrwt>
<pdfrwt beam="2">  1       21 0.66086525E-01 0.19383762E+03</pdfrwt>
<totfact> 0.35860500E+04</totfact>
</mgrwt>
</event>
<event>
 4    1  0.4382184E+000  0.2017318E+03  0.7546771E-02  0.1148286E+00
         21   -1    0    0  503  502  0.00000000000E+00  0.00000000000E+00  0.18247082609E+03  0.18247082609E+03  0.00000000000E+00 0.  1.
         21   -1    0    0  501  503 -0.00000000000E+00 -0.00000000000E+00 -0.35364069506E+03  0.35364069506E+03  0.00000000000E+00 0.  1.
          6    1    1    2  501    0  0.99306650345E+02 -0.30081877376E+02 -0.24849207593E+03  0.32006880815E+03  0.17300000000E+03 0.  1.
         -6    1    1    2    0  502 -0.99306650345E+02  0.30081877376E+02  0.77322206958E+02  0.21604271299E+03  0.17300000000E+03 0.  1.
<mgrwt>
<rscale>  2 0.20173183E+03</rscale>
<asrwt>0</asrwt>
<pdfrwt beam="1">  1       21 0.28072435E-01 0.20173183E+03</pdfrwt>
<pdfrwt beam="2">  1       21 0.54406261E-01 0.20173183E+03</pdfrwt>
<totfact> 0.38507865E+04</totfact>
</mgrwt>
</event>
<event>
 4    1  0.4382184E+000  0.2067310E+03  0.7546771E-02  0.1144181E+00
         21   -1    0    0  503  502  0.00000000000E+00  0.00000000000E+00  0.17478285525E+03  0.17478285525E+03  0.00000000000E+00 0. -1.
         21   -1    0    0  501  503 -0.00000000000E+00 -0.00000000000E+00 -0.86566609960E+03  0.86566609960E+03  0.00000000000E+00 0. -1.
          6    1    1    2  501    0 -0.11155385528E+03  0.19090356140E+02 -0.78611098496E+03  0.81283958134E+03  0.17300000000E+03 0. -1.
         -6    1    1    2    0  502  0.11155385528E+03 -0.19090356140E+02  0.95227740606E+02  0.22760937350E+03  0.17300000000E+03 0. -1.
<mgrwt>
<rscale>  2 0.20673100E+03</rscale>
<asrwt>0</asrwt>
<pdfrwt beam="1">  1       21 0.26889670E-01 0.20673100E+03</pdfrwt>
<pdfrwt beam="2">  1       21 0.13317940E+00 0.20673100E+03</pdfrwt>
<totfact> 0.52958916E+03</totfact>
</mgrwt>
</event>
<event>
 4    1  0.4382184E+000  0.1991351E+03  0.7546771E-02  0.1150471E+00
         21   -1    0    0  503  502  0.00000000000E+00  0.00000000000E+00  0.21799451271E+03  0.21799451271E+03  0.00000000000E+00 0.  1.
         21   -1    0    0  501  503 -0.00000000000E+00 -0.00000000000E+00 -0.24764904894E+03  0.24764904894E+03  0.00000000000E+00 0.  1.
          6    1    1    2  501    0  0.93864689028E+02 -0.30252364198E+02 -0.13478438524E+03  0.24046125653E+03  0.17300000000E+03 0.  1.
         -6    1    1    2    0  502 -0.93864689028E+02  0.30252364198E+02  0.10512984901E+03  0.22518230512E+03  0.17300000000E+03 0.  1.
<mgrwt>
<rscale>  2 0.19913509E+03</rscale>
<asrwt>0</asrwt>
<pdfrwt beam="1">  1       21 0.33537617E-01 0.19913509E+03</pdfrwt>
<pdfrwt beam="2">  1       21 0.38099854E-01 0.19913509E+03</pdfrwt>
<totfact> 0.56716447E+04</totfact>
</mgrwt>
</event>
<event>
 4    1  0.4382184E+000  0.2321552E+03  0.7546771E-02  0.1125132E+00
         21   -1    0    0  503  502  0.00000000000E+00  0.00000000000E+00  0.20381548355E+03  0.20381548355E+03  0.00000000000E+00 0.  1.
         21   -1    0    0  501  503 -0.00000000000E+00 -0.00000000000E+00 -0.35326995635E+03  0.35326995635E+03  0.00000000000E+00 0.  1.
          6    1    1    2  501    0 -0.12075493605E+03 -0.96877660972E+02 -0.21440566690E+03  0.31601554673E+03  0.17300000000E+03 0.  1.
         -6    1    1    2    0  502  0.12075493605E+03  0.96877660972E+02  0.64951194101E+02  0.24106989316E+03  0.17300000000E+03 0.  1.
<mgrwt>
<rscale>  2 0.23215520E+03</rscale>
<asrwt>0</asrwt>
<pdfrwt beam="1">  1       21 0.31356228E-01 0.23215520E+03</pdfrwt>
<pdfrwt beam="2">  1       21 0.54349224E-01 0.23215520E+03</pdfrwt>
<totfact> 0.30629712E+04</totfact>
</mgrwt>
</event>
<event>
 4    1  0.4382184E+000  0.1847878E+03  0.7546771E-02  0.1163248E+00
         21   -1    0    0  501  502  0.00000000000E+00  0.00000000000E+00  0.27294302068E+02  0.27294302068E+02  0.00000000000E+00 0.  1.
         21   -1    0    0  502  503 -0.00000000000E+00 -0.00000000000E+00 -0.18833864362E+04  0.18833864362E+04  0.00000000000E+00 0.  1.
          6    1    1    2  501    0 -0.60216552698E+02  0.24321083028E+02 -0.37448904149E+03  0.41759859973E+03  0.17300000000E+03 0.  1.
         -6    1    1    2    0  503  0.60216552698E+02 -0.24321083028E+02 -0.14816030926E+04  0.14930821385E+04  0.17300000000E+03 0.  1.
<mgrwt>
<rscale>  2 0.18478785E+03</rscale>
<asrwt>0</asrwt>
<pdfrwt beam="1">  1       21 0.41991236E-02 0.18478785E+03</pdfrwt>
<pdfrwt beam="2">  1       21 0.28975174E+00 0.18478785E+03</pdfrwt>
<totfact> 0.14237240E+04</totfact>
</mgrwt>
</event>
<event>
 4    1  0.4382184E+000  0.1843646E+03  0.7546771E-02  0.1163645E+00
         21   -1    0    0  501  502  0.00000000000E+00  0.00000000000E+00  0.78494919713E+02  0.78494919713E+02  0.00000000000E+00 0.  1.
         21   -1    0    0  502  503 -0.00000000000E+00 -0.00000000000E+00 -0.46432130403E+03  0.46432130403E+03  0.00000000000E+00 0.  1.
          6    1    1    2  501    0 -0.33763756520E+02  0.54049043088E+02 -0.12245076551E+03  0.22132437798E+03  0.17300000000E+03 0. -1.
         -6    1    1    2    0  503  0.33763756520E+02 -0.54049043088E+02 -0.26337561881E+03  0.32149184577E+03  0.17300000000E+03 0. -1.
<mgrwt>
<rscale>  2 0.18436456E+03</rscale>
<asrwt>0</asrwt>
<pdfrwt beam="1">  1       21 0.12076141E-01 0.18436456E+03</pdfrwt>
<pdfrwt beam="2">  1       21 0.71434047E-01 0.18436456E+03</pdfrwt>
<totfact> 0.10312603E+05</totfact>
</mgrwt>
</event>
<event>
 4    1  0.4382184E+000  0.2162268E+03  0.7546771E-02  0.1136728E+00
         21   -1    0    0  501  502  0.00000000000E+00  0.00000000000E+00  0.13339967946E+04  0.13339967946E+04  0.00000000000E+00 0. -1.
         21   -1    0    0  502  503 -0.00000000000E+00 -0.00000000000E+00 -0.35346189159E+02  0.35346189159E+02  0.00000000000E+00 0. -1.
          6    1    1    2  501    0  0.29212921282E+02 -0.12637891290E+03  0.58644716245E+03  0.62503943775E+03  0.17300000000E+03 0. -1.
         -6    1    1    2    0  503 -0.29212921282E+02  0.12637891290E+03  0.71220344299E+03  0.74430354601E+03  0.17300000000E+03 0. -1.
<mgrwt>
<rscale>  2 0.21622679E+03</rscale>
<asrwt>0</asrwt>
<pdfrwt beam="1">  1       21 0.20523024E+00 0.21622679E+03</pdfrwt>
<pdfrwt beam="2">  1       21 0.54378763E-02 0.21622679E+03</pdfrwt>
<totfact> 0.28520581E+04</totfact>
</mgrwt>
</event>
<event>
 4    1  0.4382184E+000  0.2082399E+03  0.7546771E-02  0.1142967E+00
         21   -1    0    0  503  502  0.00000000000E+00  0.00000000000E+00  0.44365770941E+03  0.44365770941E+03  0.00000000000E+00 0.  1.
         21   -1    0    0  501  503 -0.00000000000E+00 -0.00000000000E+00 -0.13603824356E+03  0.13603824356E+03  0.00000000000E+00 0.  1.
          6    1    1    2  501    0  0.14055411413E+02  0.11505338736E+03  0.22657557249E-01  0.20823985461E+03  0.17300000000E+03 0.  1.
         -6    1    1    2    0  502 -0.14055411413E+02 -0.11505338736E+03  0.30759680830E+03  0.37145609836E+03  0.17300000000E+03 0.  1.
<mgrwt>
<rscale>  2 0.20823985E+03</rscale>
<asrwt>0</asrwt>
<pdfrwt beam="1">  1       21 0.68255031E-01 0.20823985E+03</pdfrwt>
<pdfrwt beam="2">  1       21 0.20928961E-01 0.20823985E+03</pdfrwt>
<totfact> 0.41198327E+04</totfact>
</mgrwt>
</event>
<event>
 4    1  0.4382184E+000  0.1954380E+03  0.7546771E-02  0.1153646E+00
         21   -1    0    0  503  502  0.00000000000E+00  0.00000000000E+00  0.20570517917E+03  0.20570517917E+03  0.00000000000E+00 0.  1.
         21   -1    0    0  501  503 -0.00000000000E+00 -0.00000000000E+00 -0.53410815151E+03  0.53410815151E+03  0.00000000000E+00 0. -1.
          6    1    1    2  501    0 -0.75267577500E+02  0.51007980457E+02 -0.46296812284E+03  0.50252910866E+03  0.17300000000E+03 0. -1.
         -6    1    1    2    0  502  0.75267577500E+02 -0.51007980457E+02  0.13456515049E+03  0.23728422202E+03  0.17300000000E+03 0.  1.
<mgrwt>
<rscale>  2 0.19543803E+03</rscale>
<asrwt>0</asrwt>
<pdfrwt beam="1">  1       21 0.31646950E-01 0.19543803E+03</pdfrwt>
<pdfrwt beam="2">  1       21 0.82170486E-01 0.19543803E+03</pdfrwt>
<totfact> 0.12402195E+04</totfact>
</mgrwt>
</event>
<event>
 4    1  0.4382184E+000  0.3913103E+03  0.7546771E-02  0.1046831E+00
         21   -1    0    0  501  502  0.00000000000E+00  0.00000000000E+00  0.85625446780E+03  0.85625446780E+03  0.00000000000E+00 0.  1.
         21   -1    0    0  502  503 -0.00000000000E+00 -0.00000000000E+00 -0.73561392317E+03  0.73561392317E+03  0.00000000000E+00 0. -1.
          6    1    1    2  501    0  0.34627819581E+03 -0.57324926462E+02  0.75278180181E+03  0.84841273989E+03  0.17300000000E+03 0.  1.
         -6    1    1    2    0  503 -0.34627819581E+03  0.57324926462E+02 -0.63214125717E+03  0.74345565107E+03  0.17300000000E+03 0. -1.
<mgrwt>
<rscale>  2 0.39131028E+03</rscale>
<asrwt>0</asrwt>
<pdfrwt beam="1">  1       21 0.13173146E+00 0.39131028E+03</pdfrwt>
<pdfrwt beam="2">  1       21 0.11317137E+00 0.39131028E+03</pdfrwt>
<totfact> 0.21535100E+02</totfact>
</mgrwt>
</event>
<event>
 4    1  0.4382184E+000  0.1825674E+03  0.7546771E-02  0.1165341E+00
         21   -1    0    0  503  502  0.00000000000E+00  0.00000000000E+00  0.21643955768E+03  0.21643955768E+03  0.00000000000E+00 0. -1.
         21   -1    0    0  501  503 -0.00000000000E+00 -0.00000000000E+00 -0.16846553509E+03  0.16846553509E+03  0.00000000000E+00 0. -1.
          6    1    1    2  501    0 -0.24611719849E+02 -0.52878272321E+02  0.80388928982E+02  0.19948240108E+03  0.17300000000E+03 0.  1.
         -6    1    1    2    0  502  0.24611719849E+02  0.52878272321E+02 -0.32414906384E+02  0.18542269169E+03  0.17300000000E+03 0.  1.
<mgrwt>
<rscale>  2 0.18256738E+03</rscale>
<asrwt>0</asrwt>
<pdfrwt beam="1">  1       21 0.33298394E-01 0.18256738E+03</pdfrwt>
<pdfrwt beam="2">  1       21 0.25917775E-01 0.18256738E+03</pdfrwt>
<totfact> 0.12321392E+05</totfact>
</mgrwt>
</event>
<event>
 4    1  0.4382184E+000  0.2363254E+03  0.7546771E-02  0.1122265E+00
         21   -1    0    0  501  502  0.00000000000E+00  0.00000000000E+00  0.32982146186E+03  0.32982146186E+03  0.00000000000E+00 0. -1.
         21   -1    0    0  502  503 -0.00000000000E+00 -0.00000000000E+00 -0.21835748849E+03  0.21835748849E+03  0.00000000000E+00 0. -1.
          6    1    1    2  501    0  0.78521686235E+02 -0.14055270317E+03  0.18560354277E+03  0.30049690957E+03  0.17300000000E+03 0. -1.
         -6    1    1    2    0  503 -0.78521686235E+02  0.14055270317E+03 -0.74139569397E+02  0.24768204078E+03  0.17300000000E+03 0. -1.
<mgrwt>
<rscale>  2 0.23632545E+03</rscale>
<asrwt>0</asrwt>
<pdfrwt beam="1">  1       21 0.50741763E-01 0.23632545E+03</pdfrwt>
<pdfrwt beam="2">  1       21 0.33593460E-01 0.23632545E+03</pdfrwt>
<totfact> 0.30839435E+04</totfact>
</mgrwt>
</event>
<event>
 4    1  0.4382184E+000  0.3990677E+03  0.7546771E-02  0.1044103E+00
         21   -1    0    0  503  502  0.00000000000E+00  0.00000000000E+00  0.18453910123E+04  0.18453910123E+04  0.00000000000E+00 0.  1.
         21   -1    0    0  501  503 -0.00000000000E+00 -0.00000000000E+00 -0.10367285840E+03  0.10367285840E+03  0.00000000000E+00 0. -1.
          6    1    1    2  501    0 -0.31811036153E+03 -0.16772548267E+03  0.47191308013E+03  0.61802669428E+03  0.17300000000E+03 0.  1.
         -6    1    1    2    0  502  0.31811036153E+03  0.16772548267E+03  0.12698050737E+04  0.13310371764E+04  0.17300000000E+03 0. -1.
<mgrwt>
<rscale>  2 0.39906771E+03</rscale>
<asrwt>0</asrwt>
<pdfrwt beam="1">  1       21 0.28390628E+00 0.39906771E+03</pdfrwt>
<pdfrwt beam="2">  1       21 0.15949672E-01 0.39906771E+03</pdfrwt>
<totfact> 0.12416119E+03</totfact>
</mgrwt>
</event>
<event>
 4    1  0.4382184E+000  0.2060682E+03  0.7546771E-02  0.1144718E+00
         21   -1    0    0  503  502  0.00000000000E+00  0.00000000000E+00  0.40049474099E+03  0.40049474099E+03  0.00000000000E+00 0. -1.
         21   -1    0    0  501  503 -0.00000000000E+00 -0.00000000000E+00 -0.15958152623E+03  0.15958152623E+03  0.00000000000E+00 0.  1.
          6    1    1    2  501    0 -0.10669458822E+03  0.33931549654E+02 -0.41767563009E+02  0.21025844700E+03  0.17300000000E+03 0.  1.
         -6    1    1    2    0  502  0.10669458822E+03 -0.33931549654E+02  0.28268077778E+03  0.34981782022E+03  0.17300000000E+03 0. -1.
<mgrwt>
<rscale>  2 0.20606816E+03</rscale>
<asrwt>0</asrwt>
<pdfrwt beam="1">  1       21 0.61614575E-01 0.20606816E+03</pdfrwt>
<pdfrwt beam="2">  1       21 0.24551004E-01 0.20606816E+03</pdfrwt>
<totfact> 0.38104041E+04</totfact>
</mgrwt>
</event>
<event>
 4    1  0.4382184E+000  0.2111118E+03  0.7546771E-02  0.1140689E+00
         21   -1    0    0  501  502  0.00000000000E+00  0.00000000000E+00  0.69158621486E+02  0.69158621486E+02  0.00000000000E+00 0.  1.
         21   -1    0    0  502  503 -0.00000000000E+00 -0.00000000000E+00 -0.64626707429E+03  0.64626707429E+03  0.00000000000E+00 0.  1.
          6    1    1    2  501    0  0.10861827721E+03 -0.53303351396E+02 -0.30760448399E+03  0.37308001285E+03  0.17300000000E+03 0.  1.
         -6    1    1    2    0  503 -0.10861827721E+03  0.53303351396E+02 -0.26950396881E+03  0.34234568293E+03  0.17300000000E+03 0.  1.
<mgrwt>
<rscale>  2 0.21111177E+03</rscale>
<asrwt>0</asrwt>
<pdfrwt beam="1">  1       21 0.10639788E-01 0.21111177E+03</pdfrwt>
<pdfrwt beam="2">  1       21 0.99425703E-01 0.21111177E+03</pdfrwt>
<totfact> 0.59969951E+04</totfact>
</mgrwt>
</event>
<event>
 4    1  0.4382184E+000  0.2106009E+03  0.7546771E-02  0.1141091E+00
         21   -1    0    0  503  502  0.00000000000E+00  0.00000000000E+00  0.16873957361E+03  0.16873957361E+03  0.00000000000E+00 0. -1.
         21   -1    0    0  501  503 -0.00000000000E+00 -0.00000000000E+00 -0.77943337139E+03  0.77943337139E+03  0.00000000000E+00 0. -1.
          6    1    1    2  501    0 -0.11897920315E+03  0.16360977609E+02 -0.69130435367E+03  0.72267173860E+03  0.17300000000E+03 0. -1.
         -6    1    1    2    0  502  0.11897920315E+03 -0.16360977609E+02  0.80610555886E+02  0.22550120640E+03  0.17300000000E+03 0. -1.
<mgrwt>
<rscale>  2 0.21060088E+03</rscale>
<asrwt>0</asrwt>
<pdfrwt beam="1">  1       21 0.25959934E-01 0.21060088E+03</pdfrwt>
<pdfrwt beam="2">  1       21 0.11991283E+00 0.21060088E+03</pdfrwt>
<totfact> 0.73568196E+03</totfact>
</mgrwt>
</event>
<event>
 4    1  0.4382184E+000  0.2403053E+03  0.7546771E-02  0.1119590E+00
         21   -1    0    0  503  502  0.00000000000E+00  0.00000000000E+00  0.42396485754E+03  0.42396485754E+03  0.00000000000E+00 0.  1.
         21   -1    0    0  501  503 -0.00000000000E+00 -0.00000000000E+00 -0.13623845135E+03  0.13623845135E+03  0.00000000000E+00 0. -1.
          6    1    1    2  501    0  0.69237396485E+02  0.15173598346E+03  0.14817541976E+03  0.28231645501E+03  0.17300000000E+03 0.  1.
         -6    1    1    2    0  502 -0.69237396485E+02 -0.15173598346E+03  0.13955098643E+03  0.27788685388E+03  0.17300000000E+03 0. -1.
<mgrwt>
<rscale>  2 0.24030528E+03</rscale>
<asrwt>0</asrwt>
<pdfrwt beam="1">  1       21 0.65225362E-01 0.24030528E+03</pdfrwt>
<pdfrwt beam="2">  1       21 0.20959762E-01 0.24030528E+03</pdfrwt>
<totfact> 0.44722722E+04</totfact>
</mgrwt>
</event>
<event>
 4    1  0.4382184E+000  0.2733460E+03  0.7546771E-02  0.1099380E+00
         21   -1    0    0  503  502  0.00000000000E+00  0.00000000000E+00  0.74059727813E+03  0.74059727813E+03  0.00000000000E+00 0. -1.
         21   -1    0    0  501  503 -0.00000000000E+00 -0.00000000000E+00 -0.23986866738E+03  0.23986866738E+03  0.00000000000E+00 0.  1.
          6    1    1    2  501    0 -0.11856841140E+03  0.17530143056E+03 -0.12279262824E+03  0.29965995610E+03  0.17300000000E+03 0.  1.
         -6    1    1    2    0  502  0.11856841140E+03 -0.17530143056E+03  0.62352123899E+03  0.68080598941E+03  0.17300000000E+03 0. -1.
<mgrwt>
<rscale>  2 0.27334604E+03</rscale>
<asrwt>0</asrwt>
<pdfrwt beam="1">  1       21 0.11393804E+00 0.27334604E+03</pdfrwt>
<pdfrwt beam="2">  1       21 0.36902872E-01 0.27334604E+03</pdfrwt>
<totfact> 0.40101438E+03</totfact>
</mgrwt>
</event>
<event>
 4    1  0.4382184E+000  0.2644993E+03  0.7546771E-02  0.1104470E+00
         21   -1    0    0  503  502  0.00000000000E+00  0.00000000000E+00  0.44105579948E+03  0.44105579948E+03  0.00000000000E+00 0. -1.
         21   -1    0    0  501  503 -0.00000000000E+00 -0.00000000000E+00 -0.41866150946E+03  0.41866150946E+03  0.00000000000E+00 0. -1.
          6    1    1    2  501    0 -0.14854025605E+03 -0.13403973567E+03 -0.32758169577E+03  0.42103399602E+03  0.17300000000E+03 0. -1.
         -6    1    1    2    0  502  0.14854025605E+03  0.13403973567E+03  0.34997598578E+03  0.43868331291E+03  0.17300000000E+03 0. -1.
<mgrwt>
<rscale>  2 0.26449926E+03</rscale>
<asrwt>0</asrwt>
<pdfrwt beam="1">  1       21 0.67854738E-01 0.26449926E+03</pdfrwt>
<pdfrwt beam="2">  1       21 0.64409463E-01 0.26449926E+03</pdfrwt>
<totfact> 0.41948258E+03</totfact>
</mgrwt>
</event>
<event>
 4    1  0.4382184E+000  0.2422911E+03  0.7546771E-02  0.1118276E+00
         21   -1    0    0  503  502  0.00000000000E+00  0.00000000000E+00  0.33337784040E+02  0.33337784040E+02  0.00000000000E+00 0. -1.
         21   -1    0    0  501  503 -0.00000000000E+00 -0.00000000000E+00 -0.17636056038E+04  0.17636056038E+04  0.00000000000E+00 0. -1.
          6    1    1    2  501    0 -0.15856620792E+03 -0.60272008829E+02 -0.90023668261E+03  0.93227197859E+03  0.17300000000E+03 0. -1.
         -6    1    1    2    0  502  0.15856620792E+03  0.60272008829E+02 -0.83003113715E+03  0.86467140925E+03  0.17300000000E+03 0. -1.
<mgrwt>
<rscale>  2 0.24229106E+03</rscale>
<asrwt>0</asrwt>
<pdfrwt beam="1">  1       21 0.51288884E-02 0.24229106E+03</pdfrwt>
<pdfrwt beam="2">  1       21 0.27132402E+00 0.24229106E+03</pdfrwt>
<totfact> 0.12310418E+04</totfact>
</mgrwt>
</event>
<event>
 4    1  0.4382184E+000  0.2722142E+03  0.7546771E-02  0.1100019E+00
         21   -1    0    0  501  502  0.00000000000E+00  0.00000000000E+00  0.96021916777E+03  0.96021916777E+03  0.00000000000E+00 0. -1.
         21   -1    0    0  502  503 -0.00000000000E+00 -0.00000000000E+00 -0.78095009200E+02  0.78095009200E+02  0.00000000000E+00 0. -1.
          6    1    1    2  501    0  0.19428157561E+03 -0.80163756592E+02  0.49754943920E+03  0.56714724979E+03  0.17300000000E+03 0. -1.
         -6    1    1    2    0  503 -0.19428157561E+03  0.80163756592E+02  0.38457471937E+03  0.47116692718E+03  0.17300000000E+03 0. -1.
<mgrwt>
<rscale>  2 0.27221418E+03</rscale>
<asrwt>0</asrwt>
<pdfrwt beam="1">  1       21 0.14772602E+00 0.27221418E+03</pdfrwt>
<pdfrwt beam="2">  1       21 0.12014617E-01 0.27221418E+03</pdfrwt>
<totfact> 0.17375984E+04</totfact>
</mgrwt>
</event>
<event>
 4    1  0.4382184E+000  0.2936328E+03  0.7546771E-02  0.1088468E+00
         21   -1    0    0  501  502  0.00000000000E+00  0.00000000000E+00  0.29112330948E+04  0.29112330948E+04  0.00000000000E+00 0. -1.
         21   -1    0    0  502  503 -0.00000000000E+00 -0.00000000000E+00 -0.35607300746E+03  0.35607300746E+03  0.00000000000E+00 0. -1.
          6    1    1    2  501    0  0.23237194005E+03  0.47901187776E+02  0.28418187704E+04  0.28569484010E+04  0.17300000000E+03 0. -1.
         -6    1    1    2    0  503 -0.23237194005E+03 -0.47901187776E+02 -0.28665868312E+03  0.41035770118E+03  0.17300000000E+03 0. -1.
<mgrwt>
<rscale>  2 0.29363284E+03</rscale>
<asrwt>0</asrwt>
<pdfrwt beam="1">  1       21 0.44788200E+00 0.29363284E+03</pdfrwt>
<pdfrwt beam="2">  1       21 0.54780465E-01 0.29363284E+03</pdfrwt>
<totfact> 0.11398029E+01</totfact>
</mgrwt>
</event>
<event>
 4    1  0.4382184E+000  0.1869011E+03  0.7546771E-02  0.1161286E+00
         21   -1    0    0  503  502  0.00000000000E+00  0.00000000000E+00  0.11970839562E+03  0.11970839562E+03  0.00000000000E+00 0.  1.
         21   -1    0    0  501  503 -0.00000000000E+00 -0.00000000000E+00 -0.17986334095E+04  0.17986334095E+04  0.00000000000E+00 0.  1.
          6    1    1    2  501    0  0.70731087565E+02 -0.37272185166E+00 -0.17173845319E+04  0.17275247194E+04  0.17300000000E+03 0.  1.
         -6    1    1    2    0  502 -0.70731087565E+02  0.37272185166E+00  0.38459518054E+02  0.19081708571E+03  0.17300000000E+03 0.  1.
<mgrwt>
<rscale>  2 0.18690111E+03</rscale>
<asrwt>0</asrwt>
<pdfrwt beam="1">  1       21 0.18416679E-01 0.18690111E+03</pdfrwt>
<pdfrwt beam="2">  1       21 0.27671280E+00 0.18690111E+03</pdfrwt>
<totfact> 0.12604022E+03</totfact>
</mgrwt>
</event>
<event>
 4    1  0.4382184E+000  0.2767794E+03  0.7546771E-02  0.1097461E+00
         21   -1    0    0  501  502  0.00000000000E+00  0.00000000000E+00  0.52863234920E+03  0.52863234920E+03  0.00000000000E+00 0.  1.
         21   -1    0    0  502  503 -0.00000000000E+00 -0.00000000000E+00 -0.14527148331E+03  0.14527148331E+03  0.00000000000E+00 0. -1.
          6    1    1    2  501    0 -0.21574723819E+03  0.11443908874E+02  0.17499226514E+03  0.32745858776E+03  0.17300000000E+03 0. -1.
         -6    1    1    2    0  503  0.21574723819E+03 -0.11443908874E+02  0.20836860075E+03  0.34644524475E+03  0.17300000000E+03 0. -1.
<mgrwt>
<rscale>  2 0.27677940E+03</rscale>
<asrwt>0</asrwt>
<pdfrwt beam="1">  1       21 0.81328053E-01 0.27677940E+03</pdfrwt>
<pdfrwt beam="2">  1       21 0.22349459E-01 0.27677940E+03</pdfrwt>
<totfact> 0.23793142E+04</totfact>
</mgrwt>
</event>
<event>
 4    1  0.4382184E+000  0.2193137E+03  0.7546771E-02  0.1134396E+00
         21   -1    0    0  503  502  0.00000000000E+00  0.00000000000E+00  0.14688378956E+03  0.14688378956E+03  0.00000000000E+00 0. -1.
         21   -1    0    0  501  503 -0.00000000000E+00 -0.00000000000E+00 -0.81398323409E+03  0.81398323409E+03  0.00000000000E+00 0. -1.
          6    1    1    2  501    0 -0.13287190527E+03 -0.22684286354E+02 -0.70498016391E+03  0.73830586586E+03  0.17300000000E+03 0. -1.
         -6    1    1    2    0  502  0.13287190527E+03  0.22684286354E+02  0.37880719377E+02  0.22256115779E+03  0.17300000000E+03 0. -1.
<mgrwt>
<rscale>  2 0.21931375E+03</rscale>
<asrwt>0</asrwt>
<pdfrwt beam="1">  1       21 0.22597507E-01 0.21931375E+03</pdfrwt>
<pdfrwt beam="2">  1       21 0.12522819E+00 0.21931375E+03</pdfrwt>
<totfact> 0.85479442E+03</totfact>
</mgrwt>
</event>
<event>
 4    1  0.4382184E+000  0.2592013E+03  0.7546771E-02  0.1107624E+00
         21   -1    0    0  501  502  0.00000000000E+00  0.00000000000E+00  0.93456057963E+03  0.93456057963E+03  0.00000000000E+00 0. -1.
         21   -1    0    0  502  503 -0.00000000000E+00 -0.00000000000E+00 -0.73405633473E+02  0.73405633473E+02  0.00000000000E+00 0.  1.
          6    1    1    2  501    0  0.17321864583E+03 -0.85156411087E+02  0.35815286436E+03  0.44210721308E+03  0.17300000000E+03 0.  1.
         -6    1    1    2    0  503 -0.17321864583E+03  0.85156411087E+02  0.50300208180E+03  0.56585900002E+03  0.17300000000E+03 0. -1.
<mgrwt>
<rscale>  2 0.25920130E+03</rscale>
<asrwt>0</asrwt>
<pdfrwt beam="1">  1       21 0.14377854E+00 0.25920130E+03</pdfrwt>
<pdfrwt beam="2">  1       21 0.11293175E-01 0.25920130E+03</pdfrwt>
<totfact> 0.21003124E+04</totfact>
</mgrwt>
</event>
<event>
 4    1  0.4382184E+000  0.2773514E+03  0.7546771E-02  0.1097144E+00
         21   -1    0    0  503  502  0.00000000000E+00  0.00000000000E+00  0.55830784216E+03  0.55830784216E+03  0.00000000000E+00 0. -1.
         21   -1    0    0  501  503 -0.00000000000E+00 -0.00000000000E+00 -0.29093686472E+03  0.29093686472E+03  0.00000000000E+00 0. -1.
          6    1    1    2  501    0  0.17839322411E+03  0.12316920423E+03 -0.17440007739E+03  0.32762658969E+03  0.17300000000E+03 0. -1.
         -6    1    1    2    0  502 -0.17839322411E+03 -0.12316920423E+03  0.44177105483E+03  0.52161811718E+03  0.17300000000E+03 0. -1.
<mgrwt>
<rscale>  2 0.27735139E+03</rscale>
<asrwt>0</asrwt>
<pdfrwt beam="1">  1       21 0.85893514E-01 0.27735139E+03</pdfrwt>
<pdfrwt beam="2">  1       21 0.44759518E-01 0.27735139E+03</pdfrwt>
<totfact> 0.52999247E+03</totfact>
</mgrwt>
</event>
<event>
 4    1  0.4382184E+000  0.1943527E+03  0.7546771E-02  0.1154593E+00
         21   -1    0    0  503  502  0.00000000000E+00  0.00000000000E+00  0.78876206431E+03  0.78876206431E+03  0.00000000000E+00 0.  1.
         21   -1    0    0  501  503 -0.00000000000E+00 -0.00000000000E+00 -0.54017876776E+02  0.54017876776E+02  0.00000000000E+00 0.  1.
          6    1    1    2  501    0 -0.68230777917E+02 -0.56467037599E+02  0.22543084242E+03  0.29764413333E+03  0.17300000000E+03 0.  1.
         -6    1    1    2    0  502  0.68230777917E+02  0.56467037599E+02  0.50931334510E+03  0.54513580775E+03  0.17300000000E+03 0.  1.
<mgrwt>
<rscale>  2 0.19435268E+03</rscale>
<asrwt>0</asrwt>
<pdfrwt beam="1">  1       21 0.12134800E+00 0.19435268E+03</pdfrwt>
<pdfrwt beam="2">  1       21 0.83104431E-02 0.19435268E+03</pdfrwt>
<totfact> 0.57633847E+04</totfact>
</mgrwt>
</event>
<event>
 4    1  0.4382184E+000  0.1861289E+03  0.7546771E-02  0.1162000E+00
         21   -1    0    0  503  502  0.00000000000E+00  0.00000000000E+00  0.11849261333E+03  0.11849261333E+03  0.00000000000E+00 0.  1.
         21   -1    0    0  501  503 -0.00000000000E+00 -0.00000000000E+00 -0.51597987923E+03  0.51597987923E+03  0.00000000000E+00 0. -1.
          6    1    1    2  501    0  0.29851739916E+02  0.61837248105E+02 -0.40758165274E+03  0.44807005622E+03  0.17300000000E+03 0. -1.
         -6    1    1    2    0  502 -0.29851739916E+02 -0.61837248105E+02  0.10094386844E+02  0.18640243634E+03  0.17300000000E+03 0.  1.
<mgrwt>
<rscale>  2 0.18612891E+03</rscale>
<asrwt>0</asrwt>
<pdfrwt beam="1">  1       21 0.18229633E-01 0.18612891E+03</pdfrwt>
<pdfrwt beam="2">  1       21 0.79381519E-01 0.18612891E+03</pdfrwt>
<totfact> 0.38515033E+04</totfact>
</mgrwt>
</event>
<event>
 4    1  0.4382184E+000  0.2509903E+03  0.7546771E-02  0.1112681E+00
         21   -1    0    0  503  502  0.00000000000E+00  0.00000000000E+00  0.35900919525E+03  0.35900919525E+03  0.00000000000E+00 0. -1.
         21   -1    0    0  501  503 -0.00000000000E+00 -0.00000000000E+00 -0.29920643452E+03  0.29920643452E+03  0.00000000000E+00 0.  1.
          6    1    1    2  501    0 -0.83431284386E+02  0.16157453670E+03 -0.18173863378E+03  0.30987907501E+03  0.17300000000E+03 0.  1.
         -6    1    1    2    0  502  0.83431284386E+02 -0.16157453670E+03  0.24154139450E+03  0.34833655476E+03  0.17300000000E+03 0. -1.
<mgrwt>
<rscale>  2 0.25099026E+03</rscale>
<asrwt>0</asrwt>
<pdfrwt beam="1">  1       21 0.55232184E-01 0.25099026E+03</pdfrwt>
<pdfrwt beam="2">  1       21 0.46031759E-01 0.25099026E+03</pdfrwt>
<totfact> 0.13511037E+04</totfact>
</mgrwt>
</event>
<event>
 4    1  0.4382184E+000  0.1794804E+03  0.7546771E-02  0.1168307E+00
         21   -1    0    0  501  502  0.00000000000E+00  0.00000000000E+00  0.86212679127E+02  0.86212679127E+02  0.00000000000E+00 0. -1.
         21   -1    0    0  502  503 -0.00000000000E+00 -0.00000000000E+00 -0.72838880090E+03  0.72838880090E+03  0.00000000000E+00 0. -1.
          6    1    1    2  501    0 -0.36426906167E+02 -0.30940452580E+02 -0.36845645515E+02  0.18322345017E+03  0.17300000000E+03 0. -1.
         -6    1    1    2    0  503  0.36426906167E+02  0.30940452580E+02 -0.60533047625E+03  0.63137802985E+03  0.17300000000E+03 0. -1.
<mgrwt>
<rscale>  2 0.17948045E+03</rscale>
<asrwt>0</asrwt>
<pdfrwt beam="1">  1       21 0.13263489E-01 0.17948045E+03</pdfrwt>
<pdfrwt beam="2">  1       21 0.11205981E+00 0.17948045E+03</pdfrwt>
<totfact> 0.30843463E+04</totfact>
</mgrwt>
</event>
<event>
 4    1  0.4382184E+000  0.2614052E+03  0.7546771E-02  0.1106302E+00
         21   -1    0    0  503  502  0.00000000000E+00  0.00000000000E+00  0.16297625972E+03  0.16297625972E+03  0.00000000000E+00 0. -1.
         21   -1    0    0  501  503 -0.00000000000E+00 -0.00000000000E+00 -0.41949575748E+03  0.41949575748E+03  0.00000000000E+00 0. -1.
          6    1    1    2  501    0  0.69252157668E+02 -0.18332434700E+03 -0.12165406949E+03  0.28832688076E+03  0.17300000000E+03 0. -1.
         -6    1    1    2    0  502 -0.69252157668E+02  0.18332434700E+03 -0.13486542826E+03  0.29414513643E+03  0.17300000000E+03 0. -1.
<mgrwt>
<rscale>  2 0.26140520E+03</rscale>
<asrwt>0</asrwt>
<pdfrwt beam="1">  1       21 0.25073271E-01 0.26140520E+03</pdfrwt>
<pdfrwt beam="2">  1       21 0.64537809E-01 0.26140520E+03</pdfrwt>
<totfact> 0.32250552E+04</totfact>
</mgrwt>
</event>
<event>
 4    1  0.4382184E+000  0.2562638E+03  0.7546771E-02  0.1109409E+00
         21   -1    0    0  501  502  0.00000000000E+00  0.00000000000E+00  0.19394735410E+04  0.19394735410E+04  0.00000000000E+00 0. -1.
         21   -1    0    0  502  503 -0.00000000000E+00 -0.00000000000E+00 -0.33860569117E+02  0.33860569117E+02  0.00000000000E+00 0. -1.
          6    1    1    2  501    0 -0.16210948788E+03 -0.97276226982E+02  0.95001015893E+03  0.98396669277E+03  0.17300000000E+03 0. -1.
         -6    1    1    2    0  503  0.16210948788E+03  0.97276226982E+02  0.95560281295E+03  0.98936741735E+03  0.17300000000E+03 0. -1.
<mgrwt>
<rscale>  2 0.25626383E+03</rscale>
<asrwt>0</asrwt>
<pdfrwt beam="1">  1       21 0.29838046E+00 0.25626383E+03</pdfrwt>
<pdfrwt beam="2">  1       21 0.52093199E-02 0.25626383E+03</pdfrwt>
<totfact> 0.82346634E+03</totfact>
</mgrwt>
</event>
<event>
 4    1  0.4382184E+000  0.1956144E+03  0.7546771E-02  0.1153493E+00
         21   -1    0    0  501  502  0.00000000000E+00  0.00000000000E+00  0.37913243175E+03  0.37913243175E+03  0.00000000000E+00 0. -1.
         21   -1    0    0  502  503 -0.00000000000E+00 -0.00000000000E+00 -0.28141969587E+03  0.28141969587E+03  0.00000000000E+00 0.  1.
          6    1    1    2  501    0  0.32053058643E+02  0.85490409270E+02  0.31335820241E+03  0.36940272287E+03  0.17300000000E+03 0. -1.
         -6    1    1    2    0  503 -0.32053058643E+02 -0.85490409270E+02 -0.21564546653E+03  0.29114940474E+03  0.17300000000E+03 0.  1.
<mgrwt>
<rscale>  2 0.19561444E+03</rscale>
<asrwt>0</asrwt>
<pdfrwt beam="1">  1       21 0.58328066E-01 0.19561444E+03</pdfrwt>
<pdfrwt beam="2">  1       21 0.43295338E-01 0.19561444E+03</pdfrwt>
<totfact> 0.14092220E+04</totfact>
</mgrwt>
</event>
<event>
 4    1  0.4382184E+000  0.2386626E+03  0.7546771E-02  0.1120687E+00
         21   -1    0    0  501  502  0.00000000000E+00  0.00000000000E+00  0.23544559780E+03  0.23544559780E+03  0.00000000000E+00 0.  1.
         21   -1    0    0  502  503 -0.00000000000E+00 -0.00000000000E+00 -0.52936340942E+03  0.52936340942E+03  0.00000000000E+00 0.  1.
          6    1    1    2  501    0 -0.15402159237E+03  0.57516818861E+02  0.13482717269E+03  0.27411348355E+03  0.17300000000E+03 0.  1.
         -6    1    1    2    0  503  0.15402159237E+03 -0.57516818861E+02 -0.42874498431E+03  0.49069552366E+03  0.17300000000E+03 0.  1.
<mgrwt>
<rscale>  2 0.23866260E+03</rscale>
<asrwt>0</asrwt>
<pdfrwt beam="1">  1       21 0.36222400E-01 0.23866260E+03</pdfrwt>
<pdfrwt beam="2">  1       21 0.81440524E-01 0.23866260E+03</pdfrwt>
<totfact> 0.94217564E+03</totfact>
</mgrwt>
</event>
<event>
 4    1  0.4382184E+000  0.1871911E+03  0.7546771E-02  0.1161019E+00
         21   -1    0    0  501  502  0.00000000000E+00  0.00000000000E+00  0.52230830380E+03  0.52230830380E+03  0.00000000000E+00 0. -1.
         21   -1    0    0  502  503 -0.00000000000E+00 -0.00000000000E+00 -0.49198047072E+03  0.49198047072E+03  0.00000000000E+00 0. -1.
          6    1    1    2  501    0  0.70676743245E+02 -0.10783840309E+02  0.48646380033E+03  0.52123653198E+03  0.17300000000E+03 0. -1.
         -6    1    1    2    0  503 -0.70676743245E+02  0.10783840309E+02 -0.45613596724E+03  0.49305224253E+03  0.17300000000E+03 0. -1.
<mgrwt>
<rscale>  2 0.18719106E+03</rscale>
<asrwt>0</asrwt>
<pdfrwt beam="1">  1       21 0.80355124E-01 0.18719106E+03</pdfrwt>
<pdfrwt beam="2">  1       21 0.75689303E-01 0.18719106E+03</pdfrwt>
<totfact> 0.21316564E+03</totfact>
</mgrwt>
</event>
<event>
 4    1  0.4382184E+000  0.1753729E+03  0.7546771E-02  0.1172358E+00
         21   -1    0    0  503  502  0.00000000000E+00  0.00000000000E+00  0.11122414068E+03  0.11122414068E+03  0.00000000000E+00 0.  1.
         21   -1    0    0  501  503 -0.00000000000E+00 -0.00000000000E+00 -0.46608988358E+03  0.46608988358E+03  0.00000000000E+00 0.  1.
          6    1    1    2  501    0 -0.27921468960E+02 -0.68586570642E+01 -0.36152382950E+03  0.40181479428E+03  0.17300000000E+03 0. -1.
         -6    1    1    2    0  502  0.27921468960E+02  0.68586570642E+01  0.66580866096E+01  0.17549922998E+03  0.17300000000E+03 0. -1.
<mgrwt>
<rscale>  2 0.17537289E+03</rscale>
<asrwt>0</asrwt>
<pdfrwt beam="1">  1       21 0.17111407E-01 0.17537289E+03</pdfrwt>
<pdfrwt beam="2">  1       21 0.71706134E-01 0.17537289E+03</pdfrwt>
<totfact> 0.54598765E+04</totfact>
</mgrwt>
</event>
<event>
 4    1  0.4382184E+000  0.1885127E+03  0.7546771E-02  0.1159810E+00
         21   -1    0    0  501  502  0.00000000000E+00  0.00000000000E+00  0.21124780148E+03  0.21124780148E+03  0.00000000000E+00 0. -1.
         21   -1    0    0  502  503 -0.00000000000E+00 -0.00000000000E+00 -0.17273245577E+03  0.17273245577E+03  0.00000000000E+00 0. -1.
          6    1    1    2  501    0 -0.74729070077E+02  0.48602723942E+01 -0.11758032474E+02  0.18887908166E+03  0.17300000000E+03 0. -1.
         -6    1    1    2    0  503  0.74729070077E+02 -0.48602723942E+01  0.50273378188E+02  0.19510117559E+03  0.17300000000E+03 0. -1.
<mgrwt>
<rscale>  2 0.18851275E+03</rscale>
<asrwt>0</asrwt>
<pdfrwt beam="1">  1       21 0.32499662E-01 0.18851275E+03</pdfrwt>
<pdfrwt beam="2">  1       21 0.26574224E-01 0.18851275E+03</pdfrwt>
<totfact> 0.12294249E+05</totfact>
</mgrwt>
</event>
<event>
 4    1  0.4382184E+000  0.2031094E+03  0.7546771E-02  0.1147142E+00
         21   -1    0    0  503  502  0.00000000000E+00  0.00000000000E+00  0.13796292837E+04  0.13796292837E+04  0.00000000000E+00 0.  1.
         21   -1    0    0  501  503 -0.00000000000E+00 -0.00000000000E+00 -0.60473784032E+02  0.60473784032E+02  0.00000000000E+00 0.  1.
          6    1    1    2  501    0  0.10535494689E+03  0.14992110023E+02  0.14761110300E+03  0.25108258786E+03  0.17300000000E+03 0.  1.
         -6    1    1    2    0  502 -0.10535494689E+03 -0.14992110023E+02  0.11715443967E+04  0.11890204799E+04  0.17300000000E+03 0.  1.
<mgrwt>
<rscale>  2 0.20310940E+03</rscale>
<asrwt>0</asrwt>
<pdfrwt beam="1">  1       21 0.21225064E+00 0.20310940E+03</pdfrwt>
<pdfrwt beam="2">  1       21 0.93036601E-02 0.20310940E+03</pdfrwt>
<totfact> 0.10260077E+04</totfact>
</mgrwt>
</event>
<event>
 4    1  0.4382184E+000  0.1780912E+03  0.7546771E-02  0.1169663E+00
         21   -1    0    0  501  502  0.00000000000E+00  0.00000000000E+00  0.49244485771E+03  0.49244485771E+03  0.00000000000E+00 0.  1.
         21   -1    0    0  502  503 -0.00000000000E+00 -0.00000000000E+00 -0.69540518915E+02  0.69540518915E+02  0.00000000000E+00 0.  1.
          6    1    1    2  501    0  0.27807239752E+02  0.31846984529E+02  0.28780408999E+03  0.33844891375E+03  0.17300000000E+03 0.  1.
         -6    1    1    2    0  503 -0.27807239752E+02 -0.31846984529E+02  0.13510024881E+03  0.22353646287E+03  0.17300000000E+03 0.  1.
<mgrwt>
<rscale>  2 0.17809119E+03</rscale>
<asrwt>0</asrwt>
<pdfrwt beam="1">  1       21 0.75760745E-01 0.17809119E+03</pdfrwt>
<pdfrwt beam="2">  1       21 0.10698542E-01 0.17809119E+03</pdfrwt>
<totfact> 0.11254012E+05</totfact>
</mgrwt>
</event>
<event>
 4    1  0.4382184E+000  0.1851685E+03  0.7546771E-02  0.1162893E+00
         21   -1    0    0  501  502  0.00000000000E+00  0.00000000000E+00  0.35085776816E+02  0.35085776816E+02  0.00000000000E+00 0.  1.
         21   -1    0    0  502  503 -0.00000000000E+00 -0.00000000000E+00 -0.11980547620E+04  0.11980547620E+04  0.00000000000E+00 0.  1.
          6    1    1    2  501    0 -0.28215877456E+02 -0.59684366161E+02 -0.31678414042E+03  0.36693262451E+03  0.17300000000E+03 0.  1.
         -6    1    1    2    0  503  0.28215877456E+02  0.59684366161E+02 -0.84618484473E+03  0.86620791428E+03  0.17300000000E+03 0.  1.
<mgrwt>
<rscale>  2 0.18516846E+03</rscale>
<asrwt>0</asrwt>
<pdfrwt beam="1">  1       21 0.53978120E-02 0.18516846E+03</pdfrwt>
<pdfrwt beam="2">  1       21 0.18431611E+00 0.18516846E+03</pdfrwt>
<totfact> 0.40380927E+04</totfact>
</mgrwt>
</event>
<event>
 4    1  0.4382184E+000  0.2309298E+03  0.7546771E-02  0.1125987E+00
         21   -1    0    0  501  502  0.00000000000E+00  0.00000000000E+00  0.58678246200E+02  0.58678246200E+02  0.00000000000E+00 0. -1.
         21   -1    0    0  502  503 -0.00000000000E+00 -0.00000000000E+00 -0.94897538506E+03  0.94897538506E+03  0.00000000000E+00 0. -1.
          6    1    1    2  501    0  0.14560826701E+03 -0.46880520369E+02 -0.34152188382E+03  0.41226902350E+03  0.17300000000E+03 0. -1.
         -6    1    1    2    0  503 -0.14560826701E+03  0.46880520369E+02 -0.54877525504E+03  0.59538460775E+03  0.17300000000E+03 0. -1.
<mgrwt>
<rscale>  2 0.23092975E+03</rscale>
<asrwt>0</asrwt>
<pdfrwt beam="1">  1       21 0.90274228E-02 0.23092975E+03</pdfrwt>
<pdfrwt beam="2">  1       21 0.14599621E+00 0.23092975E+03</pdfrwt>
<totfact> 0.30483276E+04</totfact>
</mgrwt>
</event>
<event>
 4    1  0.4382184E+000  0.2202275E+03  0.7546771E-02  0.1133714E+00
         21   -1    0    0  503  502  0.00000000000E+00  0.00000000000E+00  0.49033054884E+02  0.49033054884E+02  0.00000000000E+00 0. -1.
         21   -1    0    0  501  503 -0.00000000000E+00 -0.00000000000E+00 -0.12498175179E+04  0.12498175179E+04  0.00000000000E+00 0. -1.
          6    1    1    2  501    0 -0.51613659653E+02 -0.12612363116E+03 -0.89698785721E+03  0.92362728207E+03  0.17300000000E+03 0. -1.
         -6    1    1    2    0  502  0.51613659653E+02  0.12612363116E+03 -0.30379660584E+03  0.37522329075E+03  0.17300000000E+03 0. -1.
<mgrwt>
<rscale>  2 0.22022747E+03</rscale>
<asrwt>0</asrwt>
<pdfrwt beam="1">  1       21 0.75435466E-02 0.22022747E+03</pdfrwt>
<pdfrwt beam="2">  1       21 0.19227963E+00 0.22022747E+03</pdfrwt>
<totfact> 0.19631855E+04</totfact>
</mgrwt>
</event>
<event>
 4    1  0.4382184E+000  0.1994174E+03  0.7546771E-02  0.1150231E+00
         21   -1    0    0  503  502  0.00000000000E+00  0.00000000000E+00  0.33676980012E+03  0.33676980012E+03  0.00000000000E+00 0.  1.
         21   -1    0    0  501  503 -0.00000000000E+00 -0.00000000000E+00 -0.12972164248E+03  0.12972164248E+03  0.00000000000E+00 0.  1.
          6    1    1    2  501    0 -0.99179302276E+02 -0.13265865579E+01  0.33663750599E+02  0.20223882401E+03  0.17300000000E+03 0.  1.
         -6    1    1    2    0  502  0.99179302276E+02  0.13265865579E+01  0.17338440704E+03  0.26425261860E+03  0.17300000000E+03 0.  1.
<mgrwt>
<rscale>  2 0.19941739E+03</rscale>
<asrwt>0</asrwt>
<pdfrwt beam="1">  1       21 0.51810738E-01 0.19941739E+03</pdfrwt>
<pdfrwt beam="2">  1       21 0.19957176E-01 0.19941739E+03</pdfrwt>
<totfact> 0.81741659E+04</totfact>
</mgrwt>
</event>
<event>
 4    1  0.4382184E+000  0.1774274E+03  0.7546771E-02  0.1170316E+00
         21   -1    0    0  503  502  0.00000000000E+00  0.00000000000E+00  0.85422303320E+02  0.85422303320E+02  0.00000000000E+00 0.  1.
         21   -1    0    0  501  503 -0.00000000000E+00 -0.00000000000E+00 -0.40815455653E+03  0.40815455653E+03  0.00000000000E+00 0.  1.
          6    1    1    2  501    0  0.26271353152E+02 -0.29347955614E+02 -0.23826273476E+03  0.29706837138E+03  0.17300000000E+03 0.  1.
         -6    1    1    2    0  502 -0.26271353152E+02  0.29347955614E+02 -0.84469518445E+02  0.19650848847E+03  0.17300000000E+03 0.  1.
<mgrwt>
<rscale>  2 0.17742741E+03</rscale>
<asrwt>0</asrwt>
<pdfrwt beam="1">  1       21 0.13141893E-01 0.17742741E+03</pdfrwt>
<pdfrwt beam="2">  1       21 0.62793009E-01 0.17742741E+03</pdfrwt>
<totfact> 0.11774866E+05</totfact>
</mgrwt>
</event>
<event>
 4    1  0.4382184E+000  0.1830584E+03  0.7546771E-02  0.1164876E+00
         21   -1    0    0  501  502  0.00000000000E+00  0.00000000000E+00  0.92501160482E+03  0.92501160482E+03  0.00000000000E+00 0.  1.
         21   -1    0    0  502  503 -0.00000000000E+00 -0.00000000000E+00 -0.40478984761E+02  0.40478984761E+02  0.00000000000E+00 0.  1.
          6    1    1    2  501    0  0.56622175804E+02  0.19372897356E+02  0.59872509277E+03  0.62608475197E+03  0.17300000000E+03 0.  1.
         -6    1    1    2    0  503 -0.56622175804E+02 -0.19372897356E+02  0.28580752729E+03  0.33940583761E+03  0.17300000000E+03 0.  1.
<mgrwt>
<rscale>  2 0.18305841E+03</rscale>
<asrwt>0</asrwt>
<pdfrwt beam="1">  1       21 0.14230946E+00 0.18305841E+03</pdfrwt>
<pdfrwt beam="2">  1       21 0.62275368E-02 0.18305841E+03</pdfrwt>
<totfact> 0.63765568E+04</totfact>
</mgrwt>
</event>
<event>
 4    1  0.4382184E+000  0.1815663E+03  0.7546771E-02  0.1166296E+00
         21   -1    0    0  503  502  0.00000000000E+00  0.00000000000E+00  0.96926953238E+02  0.96926953238E+02  0.00000000000E+00 0.  1.
         21   -1    0    0  501  503 -0.00000000000E+00 -0.00000000000E+00 -0.37212810903E+03  0.37212810903E+03  0.00000000000E+00 0.  1.
          6    1    1    2  501    0 -0.29850357789E+02  0.46327903340E+02 -0.20638830753E+03  0.27488625279E+03  0.17300000000E+03 0. -1.
         -6    1    1    2    0  502  0.29850357789E+02 -0.46327903340E+02 -0.68812848264E+02  0.19416880948E+03  0.17300000000E+03 0. -1.
<mgrwt>
<rscale>  2 0.18156629E+03</rscale>
<asrwt>0</asrwt>
<pdfrwt beam="1">  1       21 0.14911839E-01 0.18156629E+03</pdfrwt>
<pdfrwt beam="2">  1       21 0.57250478E-01 0.18156629E+03</pdfrwt>
<totfact> 0.11404790E+05</totfact>
</mgrwt>
</event>
<event>
 4    1  0.4382184E+000  0.3097836E+03  0.7546771E-02  0.1080450E+00
         21   -1    0    0  503  502  0.00000000000E+00  0.00000000000E+00  0.70858231246E+02  0.70858231246E+02  0.00000000000E+00 0. -1.
         21   -1    0    0  501  503 -0.00000000000E+00 -0.00000000000E+00 -0.13852081684E+04  0.13852081684E+04  0.00000000000E+00 0.  1.
          6    1    1    2  501    0 -0.47666975386E+02 -0.25251677387E+03 -0.76586167300E+03  0.82614161244E+03  0.17300000000E+03 0. -1.
         -6    1    1    2    0  502  0.47666975386E+02  0.25251677387E+03 -0.54848826414E+03  0.62992478720E+03  0.17300000000E+03 0.  1.
<mgrwt>
<rscale>  2 0.30978357E+03</rscale>
<asrwt>0</asrwt>
<pdfrwt beam="1">  1       21 0.10901266E-01 0.30978357E+03</pdfrwt>
<pdfrwt beam="2">  1       21 0.21310895E+00 0.30978357E+03</pdfrwt>
<totfact> 0.71017686E+03</totfact>
</mgrwt>
</event>
<event>
 4    1  0.4382184E+000  0.3575735E+03  0.7546771E-02  0.1059549E+00
         21   -1    0    0  503  502  0.00000000000E+00  0.00000000000E+00  0.45210801448E+03  0.45210801448E+03  0.00000000000E+00 0.  1.
         21   -1    0    0  501  503 -0.00000000000E+00 -0.00000000000E+00 -0.32792470807E+03  0.32792470807E+03  0.00000000000E+00 0. -1.
          6    1    1    2  501    0 -0.23485305083E+03  0.20681846444E+03 -0.82576975527E+02  0.36698472667E+03  0.17300000000E+03 0. -1.
         -6    1    1    2    0  502  0.23485305083E+03 -0.20681846444E+03  0.20676028194E+03  0.41304799589E+03  0.17300000000E+03 0.  1.
<mgrwt>
<rscale>  2 0.35757353E+03</rscale>
<asrwt>0</asrwt>
<pdfrwt beam="1">  1       21 0.69555080E-01 0.35757353E+03</pdfrwt>
<pdfrwt beam="2">  1       21 0.50449955E-01 0.35757353E+03</pdfrwt>
<totfact> 0.64199896E+03</totfact>
</mgrwt>
</event>
<event>
 4    1  0.4382184E+000  0.1855278E+03  0.7546771E-02  0.1162558E+00
         21   -1    0    0  503  502  0.00000000000E+00  0.00000000000E+00  0.74898660020E+03  0.74898660020E+03  0.00000000000E+00 0.  1.
         21   -1    0    0  501  503 -0.00000000000E+00 -0.00000000000E+00 -0.90352939552E+02  0.90352939552E+02  0.00000000000E+00 0.  1.
          6    1    1    2  501    0  0.56605151091E+02 -0.35880422431E+02  0.35137416011E+02  0.18882580821E+03  0.17300000000E+03 0.  1.
         -6    1    1    2    0  502 -0.56605151091E+02  0.35880422431E+02  0.62349624463E+03  0.65051373153E+03  0.17300000000E+03 0.  1.
<mgrwt>
<rscale>  2 0.18552775E+03</rscale>
<asrwt>0</asrwt>
<pdfrwt beam="1">  1       21 0.11522870E+00 0.18552775E+03</pdfrwt>
<pdfrwt beam="2">  1       21 0.13900453E-01 0.18552775E+03</pdfrwt>
<totfact> 0.26389992E+04</totfact>
</mgrwt>
</event>
<event>
 4    1  0.4382184E+000  0.1855408E+03  0.7546771E-02  0.1162546E+00
         21   -1    0    0  503  502  0.00000000000E+00  0.00000000000E+00  0.17009534620E+03  0.17009534620E+03  0.00000000000E+00 0.  1.
         21   -1    0    0  501  503 -0.00000000000E+00 -0.00000000000E+00 -0.28102588587E+03  0.28102588587E+03  0.00000000000E+00 0. -1.
          6    1    1    2  501    0 -0.36243488960E+02 -0.56416423471E+02  0.63852093321E+02  0.19622052174E+03  0.17300000000E+03 0.  1.
         -6    1    1    2    0  502  0.36243488960E+02  0.56416423471E+02 -0.17478263299E+03  0.25490071033E+03  0.17300000000E+03 0. -1.
<mgrwt>
<rscale>  2 0.18554084E+03</rscale>
<asrwt>0</asrwt>
<pdfrwt beam="1">  1       21 0.26168515E-01 0.18554084E+03</pdfrwt>
<pdfrwt beam="2">  1       21 0.43234751E-01 0.18554084E+03</pdfrwt>
<totfact> 0.71597059E+04</totfact>
</mgrwt>
</event>
<event>
 4    1  0.4382184E+000  0.1805102E+03  0.7546771E-02  0.1167310E+00
         21   -1    0    0  503  502  0.00000000000E+00  0.00000000000E+00  0.82567825179E+03  0.82567825179E+03  0.00000000000E+00 0. -1.
         21   -1    0    0  501  503 -0.00000000000E+00 -0.00000000000E+00 -0.39571882188E+02  0.39571882188E+02  0.00000000000E+00 0. -1.
          6    1    1    2  501    0  0.87337450970E+01 -0.50780509585E+02  0.37038488628E+03  0.41203022030E+03  0.17300000000E+03 0. -1.
         -6    1    1    2    0  502 -0.87337450970E+01  0.50780509585E+02  0.41572148332E+03  0.45321991368E+03  0.17300000000E+03 0. -1.
<mgrwt>
<rscale>  2 0.18051022E+03</rscale>
<asrwt>0</asrwt>
<pdfrwt beam="1">  1       21 0.12702741E+00 0.18051022E+03</pdfrwt>
<pdfrwt beam="2">  1       21 0.60879825E-02 0.18051022E+03</pdfrwt>
<totfact> 0.88606992E+04</totfact>
</mgrwt>
</event>
<event>
 4    1  0.4382184E+000  0.2027467E+03  0.7546771E-02  0.1147442E+00
         21   -1    0    0  501  502  0.00000000000E+00  0.00000000000E+00  0.20660835568E+03  0.20660835568E+03  0.00000000000E+00 0.  1.
         21   -1    0    0  502  503 -0.00000000000E+00 -0.00000000000E+00 -0.21134204548E+03  0.21134204548E+03  0.00000000000E+00 0.  1.
          6    1    1    2  501    0  0.88713815893E+02  0.57507325140E+02  0.48220971867E+02  0.20840224496E+03  0.17300000000E+03 0.  1.
         -6    1    1    2    0  503 -0.88713815893E+02 -0.57507325140E+02 -0.52954661676E+02  0.20954815620E+03  0.17300000000E+03 0.  1.
<mgrwt>
<rscale>  2 0.20274672E+03</rscale>
<asrwt>0</asrwt>
<pdfrwt beam="1">  1       21 0.31785901E-01 0.20274672E+03</pdfrwt>
<pdfrwt beam="2">  1       21 0.32514161E-01 0.20274672E+03</pdfrwt>
<totfact> 0.86261028E+04</totfact>
</mgrwt>
</event>
<event>
 4    1  0.4382184E+000  0.1885967E+03  0.7546771E-02  0.1159733E+00
         21   -1    0    0  503  502  0.00000000000E+00  0.00000000000E+00  0.16072401500E+03  0.16072401500E+03  0.00000000000E+00 0.  1.
         21   -1    0    0  501  503 -0.00000000000E+00 -0.00000000000E+00 -0.23397406833E+03  0.23397406833E+03  0.00000000000E+00 0. -1.
          6    1    1    2  501    0  0.40541442429E+01 -0.74988501007E+02 -0.82550884405E+02  0.20587219308E+03  0.17300000000E+03 0. -1.
         -6    1    1    2    0  502 -0.40541442429E+01  0.74988501007E+02  0.93008310717E+01  0.18882589025E+03  0.17300000000E+03 0.  1.
<mgrwt>
<rscale>  2 0.18859669E+03</rscale>
<asrwt>0</asrwt>
<pdfrwt beam="1">  1       21 0.24726772E-01 0.18859669E+03</pdfrwt>
<pdfrwt beam="2">  1       21 0.35996010E-01 0.18859669E+03</pdfrwt>
<totfact> 0.11528408E+05</totfact>
</mgrwt>
</event>
<event>
 4    1  0.4382184E+000  0.1987246E+03  0.7546771E-02  0.1150820E+00
         21   -1    0    0  501  502  0.00000000000E+00  0.00000000000E+00  0.13812368186E+03  0.13812368186E+03  0.00000000000E+00 0. -1.
         21   -1    0    0  502  503 -0.00000000000E+00 -0.00000000000E+00 -0.28774619657E+03  0.28774619657E+03  0.00000000000E+00 0. -1.
          6    1    1    2  501    0  0.66322240373E+02  0.71859789616E+02 -0.57819042326E+02  0.20696499846E+03  0.17300000000E+03 0. -1.
         -6    1    1    2    0  503 -0.66322240373E+02 -0.71859789616E+02 -0.91803472379E+02  0.21890487997E+03  0.17300000000E+03 0. -1.
<mgrwt>
<rscale>  2 0.19872461E+03</rscale>
<asrwt>0</asrwt>
<pdfrwt beam="1">  1       21 0.21249797E-01 0.19872461E+03</pdfrwt>
<pdfrwt beam="2">  1       21 0.44268646E-01 0.19872461E+03</pdfrwt>
<totfact> 0.10073371E+05</totfact>
</mgrwt>
</event>
<event>
 4    1  0.4382184E+000  0.1795908E+03  0.7546771E-02  0.1168200E+00
         21   -1    0    0  503  502  0.00000000000E+00  0.00000000000E+00  0.12571159571E+03  0.12571159571E+03  0.00000000000E+00 0.  1.
         21   -1    0    0  501  503 -0.00000000000E+00 -0.00000000000E+00 -0.25781915954E+03  0.25781915954E+03  0.00000000000E+00 0.  1.
          6    1    1    2  501    0  0.41420406922E+02  0.24661937753E+02 -0.79442805333E+02  0.19637724054E+03  0.17300000000E+03 0. -1.
         -6    1    1    2    0  502 -0.41420406922E+02 -0.24661937753E+02 -0.52664758495E+02  0.18715351472E+03  0.17300000000E+03 0. -1.
<mgrwt>
<rscale>  2 0.17959082E+03</rscale>
<asrwt>0</asrwt>
<pdfrwt beam="1">  1       21 0.19340246E-01 0.17959082E+03</pdfrwt>
<pdfrwt beam="2">  1       21 0.39664486E-01 0.17959082E+03</pdfrwt>
<totfact> 0.15119009E+05</totfact>
</mgrwt>
</event>
<event>
 4    1  0.4382184E+000  0.2006576E+03  0.7546771E-02  0.1149185E+00
         21   -1    0    0  503  502  0.00000000000E+00  0.00000000000E+00  0.21635676811E+04  0.21635676811E+04  0.00000000000E+00 0. -1.
         21   -1    0    0  501  503 -0.00000000000E+00 -0.00000000000E+00 -0.30641649852E+02  0.30641649852E+02  0.00000000000E+00 0.  1.
          6    1    1    2  501    0  0.57445513297E+02  0.83871728301E+02  0.37898456095E+03  0.42882718109E+03  0.17300000000E+03 0.  1.
         -6    1    1    2    0  502 -0.57445513297E+02 -0.83871728301E+02  0.17539414703E+04  0.17653821499E+04  0.17300000000E+03 0. -1.
<mgrwt>
<rscale>  2 0.20065755E+03</rscale>
<asrwt>0</asrwt>
<pdfrwt beam="1">  1       21 0.33285645E+00 0.20065755E+03</pdfrwt>
<pdfrwt beam="2">  1       21 0.47141017E-02 0.20065755E+03</pdfrwt>
<totfact> 0.64882502E+03</totfact>
</mgrwt>
</event>
<event>
 4    1  0.4382184E+000  0.1859447E+03  0.7546771E-02  0.1162171E+00
         21   -1    0    0  503  502  0.00000000000E+00  0.00000000000E+00  0.10279171956E+03  0.10279171956E+03  0.00000000000E+00 0. -1.
         21   -1    0    0  501  503 -0.00000000000E+00 -0.00000000000E+00 -0.42170633869E+03  0.42170633869E+03  0.00000000000E+00 0. -1.
          6    1    1    2  501    0 -0.63712547577E+02 -0.24230780017E+02 -0.27743270846E+03  0.33398252521E+03  0.17300000000E+03 0. -1.
         -6    1    1    2    0  502  0.63712547577E+02  0.24230780017E+02 -0.41481910667E+02  0.19051553305E+03  0.17300000000E+03 0. -1.
<mgrwt>
<rscale>  2 0.18594467E+03</rscale>
<asrwt>0</asrwt>
<pdfrwt beam="1">  1       21 0.15814111E-01 0.18594467E+03</pdfrwt>
<pdfrwt beam="2">  1       21 0.64877898E-01 0.18594467E+03</pdfrwt>
<totfact> 0.78172971E+04</totfact>
</mgrwt>
</event>
<event>
 4    1  0.4382184E+000  0.2263522E+03  0.7546771E-02  0.1129234E+00
         21   -1    0    0  503  502  0.00000000000E+00  0.00000000000E+00  0.12144495544E+04  0.12144495544E+04  0.00000000000E+00 0. -1.
         21   -1    0    0  501  503 -0.00000000000E+00 -0.00000000000E+00 -0.18609682470E+03  0.18609682470E+03  0.00000000000E+00 0. -1.
          6    1    1    2  501    0 -0.32009081884E+02 -0.14241402529E+03 -0.10162629361E+03  0.24811940568E+03  0.17300000000E+03 0. -1.
         -6    1    1    2    0  502  0.32009081884E+02  0.14241402529E+03  0.11299790233E+04  0.11524269734E+04  0.17300000000E+03 0. -1.
<mgrwt>
<rscale>  2 0.22635224E+03</rscale>
<asrwt>0</asrwt>
<pdfrwt beam="1">  1       21 0.18683839E+00 0.22635224E+03</pdfrwt>
<pdfrwt beam="2">  1       21 0.28630282E-01 0.22635224E+03</pdfrwt>
<totfact> 0.18487343E+03</totfact>
</mgrwt>
</event>
<event>
 4    1  0.4382184E+000  0.2358102E+03  0.7546771E-02  0.1122616E+00
         21   -1    0    0  503  502  0.00000000000E+00  0.00000000000E+00  0.15174315429E+03  0.15174315429E+03  0.00000000000E+00 0. -1.
         21   -1    0    0  501  503 -0.00000000000E+00 -0.00000000000E+00 -0.10250847583E+04  0.10250847583E+04  0.00000000000E+00 0. -1.
          6    1    1    2  501    0 -0.71628194535E+02 -0.14334178013E+03 -0.90832640436E+03  0.93843663667E+03  0.17300000000E+03 0. -1.
         -6    1    1    2    0  502  0.71628194535E+02  0.14334178013E+03  0.34984800352E+02  0.23839127593E+03  0.17300000000E+03 0. -1.
<mgrwt>
<rscale>  2 0.23581023E+03</rscale>
<asrwt>0</asrwt>
<pdfrwt beam="1">  1       21 0.23345102E-01 0.23581023E+03</pdfrwt>
<pdfrwt beam="2">  1       21 0.15770534E+00 0.23581023E+03</pdfrwt>
<totfact> 0.43602388E+03</totfact>
</mgrwt>
</event>
