<event>
 4    1  0.6352740E-002  0.3821365E+03  0.7818608E-02  0.1050147E+00
         -2   -1    0    0    0  501 -0.00000000000E+00  0.00000000000E+00  0.23858196857E+03  0.23858196857E+03  0.00000000000E+00 0.  1.
          2   -1    0    0  502    0  0.00000000000E+00 -0.00000000000E+00 -0.76467335777E+03  0.76467335777E+03  0.00000000000E+00 0. -1.
          6    1    1    2  502    0  0.33858438003E+03  0.42484578636E+02 -0.48713895035E+03  0.61913865876E+03  0.17200000000E+03 0. -1.
         -6    1    1    2    0  501 -0.33858438003E+03 -0.42484578636E+02 -0.38952438849E+02  0.38411666758E+03  0.17200000000E+03 0.  1.
</event>
<event>
 4    1  0.6352740E-002  0.5715314E+03  0.7818608E-02  0.9966296E-01
          2   -1    0    0  502    0  0.00000000000E+00  0.00000000000E+00  0.29269138335E+04  0.29269138335E+04  0.00000000000E+00 0. -1.
         -2   -1    0    0    0  501 -0.00000000000E+00 -0.00000000000E+00 -0.61879316075E+03  0.61879316075E+03  0.00000000000E+00 0.  1.
          6    1    1    2  502    0  0.54443294139E+03  0.25629849331E+02  0.27591013232E+04  0.28176742588E+04  0.17200000000E+03 0. -1.
         -6    1    1    2    0  501 -0.54443294139E+03 -0.25629849331E+02 -0.45098065046E+03  0.72803273548E+03  0.17200000000E+03 0.  1.
</event>
<event>
 4    1  0.6352740E-002  0.2290556E+03  0.7818608E-02  0.1127306E+00
          1   -1    0    0  502    0  0.00000000000E+00  0.00000000000E+00  0.57760076759E+03  0.57760076759E+03  0.00000000000E+00 0. -1.
         -1   -1    0    0    0  501 -0.00000000000E+00 -0.00000000000E+00 -0.14552820540E+03  0.14552820540E+03  0.00000000000E+00 0.  1.
          6    1    1    2  502    0 -0.13998875384E+03 -0.57320227075E+02  0.43769163342E+03  0.49400447933E+03  0.17200000000E+03 0. -1.
         -6    1    1    2    0  501  0.13998875384E+03  0.57320227075E+02 -0.56190712295E+01  0.22912449366E+03  0.17200000000E+03 0.  1.
</event>
<event>
 4    1  0.6352740E-002  0.1940616E+03  0.7818608E-02  0.1154848E+00
          2   -1    0    0  502    0  0.00000000000E+00  0.00000000000E+00  0.11586334551E+04  0.11586334551E+04  0.00000000000E+00 0. -1.
         -2   -1    0    0    0  501 -0.00000000000E+00 -0.00000000000E+00 -0.33236834042E+02  0.33236834042E+02  0.00000000000E+00 0.  1.
          6    1    1    2  502    0  0.73328598827E+02 -0.51950000248E+02  0.47419125829E+03  0.51236435802E+03  0.17200000000E+03 0.  1.
         -6    1    1    2    0  501 -0.73328598827E+02  0.51950000248E+02  0.65120536275E+03  0.67950593111E+03  0.17200000000E+03 0. -1.
</event>
<event>
 4    1  0.6352740E-002  0.1982771E+03  0.7818608E-02  0.1151201E+00
         -3   -1    0    0    0  501 -0.00000000000E+00  0.00000000000E+00  0.70902190329E+02  0.70902190329E+02  0.00000000000E+00 0.  1.
          3   -1    0    0  502    0  0.00000000000E+00 -0.00000000000E+00 -0.13994257127E+04  0.13994257127E+04  0.00000000000E+00 0. -1.
          6    1    1    2  502    0 -0.81865226054E+02 -0.55026466781E+02 -0.12355085237E+04  0.12513173616E+04  0.17200000000E+03 0. -1.
         -6    1    1    2    0  501  0.81865226054E+02  0.55026466781E+02 -0.93014998672E+02  0.21901054144E+03  0.17200000000E+03 0.  1.
</event>
<event>
 4    1  0.6352740E-002  0.2301218E+03  0.7818608E-02  0.1126554E+00
          1   -1    0    0  502    0  0.00000000000E+00  0.00000000000E+00  0.19834753113E+04  0.19834753113E+04  0.00000000000E+00 0. -1.
         -1   -1    0    0    0  501 -0.00000000000E+00 -0.00000000000E+00 -0.28916842691E+02  0.28916842691E+02  0.00000000000E+00 0.  1.
          6    1    1    2  502    0  0.85936452483E+02  0.12643949855E+03  0.12559628149E+04  0.12768706329E+04  0.17200000000E+03 0. -1.
         -6    1    1    2    0  501 -0.85936452483E+02 -0.12643949855E+03  0.69859565367E+03  0.73552152109E+03  0.17200000000E+03 0.  1.
</event>
<event>
 4    1  0.6352740E-002  0.3867008E+03  0.7818608E-02  0.1048485E+00
          1   -1    0    0  502    0  0.00000000000E+00  0.00000000000E+00  0.89002870566E+03  0.89002870566E+03  0.00000000000E+00 0. -1.
         -1   -1    0    0    0  501 -0.00000000000E+00 -0.00000000000E+00 -0.29879409486E+03  0.29879409486E+03  0.00000000000E+00 0.  1.
          6    1    1    2  502    0  0.24128938889E+03 -0.24846112852E+03  0.68886984984E+03  0.78998681735E+03  0.17200000000E+03 0. -1.
         -6    1    1    2    0  501 -0.24128938889E+03  0.24846112852E+03 -0.97635239035E+02  0.39883598318E+03  0.17200000000E+03 0.  1.
</event>
<event>
 4    1  0.6352740E-002  0.1762641E+03  0.7818608E-02  0.1171468E+00
          2   -1    0    0  502    0  0.00000000000E+00  0.00000000000E+00  0.85678668769E+03  0.85678668769E+03  0.00000000000E+00 0. -1.
         -2   -1    0    0    0  501 -0.00000000000E+00 -0.00000000000E+00 -0.43363072088E+02  0.43363072088E+02  0.00000000000E+00 0.  1.
          6    1    1    2  502    0  0.36107965853E+02  0.13462437256E+02  0.22458296214E+03  0.28549348381E+03  0.17200000000E+03 0.  1.
         -6    1    1    2    0  501 -0.36107965853E+02 -0.13462437256E+02  0.58884065346E+03  0.61465627597E+03  0.17200000000E+03 0. -1.
</event>
<event>
 4    1  0.6352740E-002  0.1732524E+03  0.7818608E-02  0.1174498E+00
         -1   -1    0    0    0  501 -0.00000000000E+00  0.00000000000E+00  0.20278572107E+03  0.20278572107E+03  0.00000000000E+00 0.  1.
          1   -1    0    0  502    0  0.00000000000E+00 -0.00000000000E+00 -0.42491455703E+03  0.42491455703E+03  0.00000000000E+00 0. -1.
          6    1    1    2  502    0 -0.94308269761E+01 -0.18532853590E+02 -0.36441883465E+03  0.40350649834E+03  0.17200000000E+03 0. -1.
         -6    1    1    2    0  501  0.94308269761E+01  0.18532853590E+02  0.14228999868E+03  0.22419377977E+03  0.17200000000E+03 0.  1.
</event>
<event>
 4    1  0.6352740E-002  0.1790825E+03  0.7818608E-02  0.1168694E+00
         -2   -1    0    0    0  501 -0.00000000000E+00  0.00000000000E+00  0.83478114722E+02  0.83478114722E+02  0.00000000000E+00 0.  1.
          2   -1    0    0  502    0  0.00000000000E+00 -0.00000000000E+00 -0.38495638252E+03  0.38495638252E+03  0.00000000000E+00 0. -1.
          6    1    1    2  502    0  0.11232122444E+02 -0.48583824134E+02 -0.16126353398E+03  0.24099061379E+03  0.17200000000E+03 0. -1.
         -6    1    1    2    0  501 -0.11232122444E+02  0.48583824134E+02 -0.14021473382E+03  0.22744388346E+03  0.17200000000E+03 0. -1.
</event>
<event>
 4    1  0.6352740E-002  0.1847100E+03  0.7818608E-02  0.1163321E+00
          2   -1    0    0  502    0  0.00000000000E+00  0.00000000000E+00  0.13942486843E+03  0.13942486843E+03  0.00000000000E+00 0. -1.
         -2   -1    0    0    0  501 -0.00000000000E+00 -0.00000000000E+00 -0.32748982589E+03  0.32748982589E+03  0.00000000000E+00 0.  1.
          6    1    1    2  502    0 -0.38920746951E+01 -0.67220861093E+02 -0.21141061472E+03  0.28073517847E+03  0.17200000000E+03 0.  1.
         -6    1    1    2    0  501  0.38920746951E+01  0.67220861093E+02  0.23345657261E+02  0.18617951586E+03  0.17200000000E+03 0. -1.
</event>
<event>
 4    1  0.6352740E-002  0.3144776E+03  0.7818608E-02  0.1078219E+00
          1   -1    0    0  502    0  0.00000000000E+00  0.00000000000E+00  0.21086137210E+04  0.21086137210E+04  0.00000000000E+00 0. -1.
         -1   -1    0    0    0  501 -0.00000000000E+00 -0.00000000000E+00 -0.79453604586E+02  0.79453604586E+02  0.00000000000E+00 0.  1.
          6    1    1    2  502    0  0.22151899988E+03 -0.14227269014E+03  0.17148515692E+04  0.17434483330E+04  0.17200000000E+03 0. -1.
         -6    1    1    2    0  501 -0.22151899988E+03  0.14227269014E+03  0.31430854724E+03  0.44461899255E+03  0.17200000000E+03 0.  1.
</event>
<event>
 4    1  0.6352740E-002  0.4405534E+03  0.7818608E-02  0.1030577E+00
         -2   -1    0    0    0  501 -0.00000000000E+00  0.00000000000E+00  0.46335776989E+03  0.46335776989E+03  0.00000000000E+00 0.  1.
          2   -1    0    0  502    0  0.00000000000E+00 -0.00000000000E+00 -0.46436650764E+03  0.46436650764E+03  0.00000000000E+00 0. -1.
          6    1    1    2  502    0  0.35202945709E+03 -0.20144109994E+03  0.14468722493E+03  0.46370426833E+03  0.17200000000E+03 0. -1.
         -6    1    1    2    0  501 -0.35202945709E+03  0.20144109994E+03 -0.14569596268E+03  0.46402000921E+03  0.17200000000E+03 0.  1.
</event>
<event>
 4    1  0.6352740E-002  0.3819133E+03  0.7818608E-02  0.1050229E+00
         -4   -1    0    0    0  501 -0.00000000000E+00  0.00000000000E+00  0.78743048124E+03  0.78743048124E+03  0.00000000000E+00 0.  1.
          4   -1    0    0  502    0  0.00000000000E+00 -0.00000000000E+00 -0.22864419088E+03  0.22864419088E+03  0.00000000000E+00 0. -1.
          6    1    1    2  502    0  0.33543320598E+03  0.61305020943E+02  0.58023158694E+02  0.38629577814E+03  0.17200000000E+03 0. -1.
         -6    1    1    2    0  501 -0.33543320598E+03 -0.61305020943E+02  0.50076313166E+03  0.62977889397E+03  0.17200000000E+03 0.  1.
</event>
<event>
 4    1  0.6352740E-002  0.3571329E+03  0.7818608E-02  0.1059725E+00
         -2   -1    0    0    0  501 -0.00000000000E+00  0.00000000000E+00  0.17727515930E+04  0.17727515930E+04  0.00000000000E+00 0.  1.
          2   -1    0    0  502    0  0.00000000000E+00 -0.00000000000E+00 -0.22733566531E+03  0.22733566531E+03  0.00000000000E+00 0. -1.
          6    1    1    2  502    0 -0.20940616561E+03 -0.23261338426E+03 -0.54081644814E+02  0.36120458612E+03  0.17200000000E+03 0. -1.
         -6    1    1    2    0  501  0.20940616561E+03  0.23261338426E+03  0.15994975725E+04  0.16388826722E+04  0.17200000000E+03 0.  1.
</event>
<event>
 4    1  0.6352740E-002  0.4104391E+03  0.7818608E-02  0.1040224E+00
         -2   -1    0    0    0  501 -0.00000000000E+00  0.00000000000E+00  0.17119561355E+03  0.17119561355E+03  0.00000000000E+00 0.  1.
          2   -1    0    0  502    0  0.00000000000E+00 -0.00000000000E+00 -0.10561610553E+04  0.10561610553E+04  0.00000000000E+00 0. -1.
          6    1    1    2  502    0 -0.20593129828E+03  0.31059388810E+03 -0.60286660061E+03  0.72932050641E+03  0.17200000000E+03 0. -1.
         -6    1    1    2    0  501  0.20593129828E+03 -0.31059388810E+03 -0.28209884114E+03  0.49803616245E+03  0.17200000000E+03 0.  1.
</event>
<event>
 4    1  0.6352740E-002  0.4704508E+03  0.7818608E-02  0.1021793E+00
          1   -1    0    0  502    0  0.00000000000E+00  0.00000000000E+00  0.43182447768E+03  0.43182447768E+03  0.00000000000E+00 0. -1.
         -1   -1    0    0    0  501 -0.00000000000E+00 -0.00000000000E+00 -0.61800036892E+03  0.61800036892E+03  0.00000000000E+00 0.  1.
          6    1    1    2  502    0 -0.34301299841E+03  0.27218017714E+03  0.12375890019E+03  0.48645681338E+03  0.17200000000E+03 0. -1.
         -6    1    1    2    0  501  0.34301299841E+03 -0.27218017714E+03 -0.30993479142E+03  0.56336803321E+03  0.17200000000E+03 0.  1.
</event>
<event>
 4    1  0.6352740E-002  0.2120056E+03  0.7818608E-02  0.1139988E+00
          1   -1    0    0  502    0  0.00000000000E+00  0.00000000000E+00  0.10189040546E+04  0.10189040546E+04  0.00000000000E+00 0. -1.
         -1   -1    0    0    0  501 -0.00000000000E+00 -0.00000000000E+00 -0.53148125208E+02  0.53148125208E+02  0.00000000000E+00 0.  1.
          6    1    1    2  502    0  0.10808704441E+02 -0.12347282131E+03  0.26186284360E+03  0.33692508745E+03  0.17200000000E+03 0.  1.
         -6    1    1    2    0  501 -0.10808704441E+02  0.12347282131E+03  0.70389308578E+03  0.73512709235E+03  0.17200000000E+03 0. -1.
</event>
<event>
 4    1  0.6352740E-002  0.2379990E+03  0.7818608E-02  0.1121133E+00
         -1   -1    0    0    0  501 -0.00000000000E+00  0.00000000000E+00  0.37083562926E+02  0.37083562926E+02  0.00000000000E+00 0.  1.
          1   -1    0    0  502    0  0.00000000000E+00 -0.00000000000E+00 -0.15359654833E+04  0.15359654833E+04  0.00000000000E+00 0. -1.
          6    1    1    2  502    0  0.32468513499E+02 -0.16126157875E+03 -0.69089732277E+03  0.73074113868E+03  0.17200000000E+03 0. -1.
         -6    1    1    2    0  501 -0.32468513499E+02  0.16126157875E+03 -0.80798459761E+03  0.84230790755E+03  0.17200000000E+03 0. -1.
</event>
<event>
 4    1  0.6352740E-002  0.2060706E+03  0.7818608E-02  0.1144716E+00
          2   -1    0    0  502    0  0.00000000000E+00  0.00000000000E+00  0.12575077451E+04  0.12575077451E+04  0.00000000000E+00 0. -1.
         -2   -1    0    0    0  501 -0.00000000000E+00 -0.00000000000E+00 -0.42244083491E+02  0.42244083491E+02  0.00000000000E+00 0.  1.
          6    1    1    2  502    0  0.74397779910E+02 -0.85709193503E+02  0.89871228231E+03  0.92203517389E+03  0.17200000000E+03 0. -1.
         -6    1    1    2    0  501 -0.74397779910E+02  0.85709193503E+02  0.31655137930E+03  0.37771665470E+03  0.17200000000E+03 0.  1.
</event>
<event>
 4    1  0.6352740E-002  0.3365423E+03  0.7818608E-02  0.1068278E+00
          3   -1    0    0  502    0  0.00000000000E+00  0.00000000000E+00  0.85661656131E+03  0.85661656131E+03  0.00000000000E+00 0. -1.
         -3   -1    0    0    0  501 -0.00000000000E+00 -0.00000000000E+00 -0.14521132490E+03  0.14521132490E+03  0.00000000000E+00 0.  1.
          6    1    1    2  502    0 -0.28857372091E+03  0.20047807790E+02  0.20586814707E+03  0.39451540017E+03  0.17200000000E+03 0. -1.
         -6    1    1    2    0  501  0.28857372091E+03 -0.20047807790E+02  0.50553708934E+03  0.60731248604E+03  0.17200000000E+03 0.  1.
</event>
<event>
 4    1  0.6352740E-002  0.2012602E+03  0.7818608E-02  0.1148680E+00
          2   -1    0    0  502    0  0.00000000000E+00  0.00000000000E+00  0.10886487553E+04  0.10886487553E+04  0.00000000000E+00 0. -1.
         -2   -1    0    0    0  501 -0.00000000000E+00 -0.00000000000E+00 -0.37208533392E+02  0.37208533392E+02  0.00000000000E+00 0.  1.
          6    1    1    2  502    0 -0.76021437223E+02  0.71710542499E+02  0.52898519753E+03  0.56597791479E+03  0.17200000000E+03 0. -1.
         -6    1    1    2    0  501  0.76021437223E+02 -0.71710542499E+02  0.52245502435E+03  0.55987937388E+03  0.17200000000E+03 0. -1.
</event>
<event>
 4    1  0.6352740E-002  0.2149939E+03  0.7818608E-02  0.1137671E+00
          2   -1    0    0  502    0  0.00000000000E+00  0.00000000000E+00  0.20510165013E+02  0.20510165013E+02  0.00000000000E+00 0. -1.
         -2   -1    0    0    0  501 -0.00000000000E+00 -0.00000000000E+00 -0.28798441412E+04  0.28798441412E+04  0.00000000000E+00 0.  1.
          6    1    1    2  502    0  0.25445521317E+02 -0.12645518817E+03 -0.75343316928E+03  0.78350745353E+03  0.17200000000E+03 0. -1.
         -6    1    1    2    0  501 -0.25445521317E+02  0.12645518817E+03 -0.21059008070E+04  0.21168468527E+04  0.17200000000E+03 0.  1.
</event>
<event>
 4    1  0.6352740E-002  0.2506660E+03  0.7818608E-02  0.1112885E+00
         -2   -1    0    0    0  501 -0.00000000000E+00  0.00000000000E+00  0.58443609346E+02  0.58443609346E+02  0.00000000000E+00 0.  1.
          2   -1    0    0  502    0  0.00000000000E+00 -0.00000000000E+00 -0.18615088083E+04  0.18615088083E+04  0.00000000000E+00 0. -1.
          6    1    1    2  502    0 -0.42947504897E+02  0.17721443222E+03 -0.15254810506E+04  0.15459385107E+04  0.17200000000E+03 0. -1.
         -6    1    1    2    0  501  0.42947504897E+02 -0.17721443222E+03 -0.27758414836E+03  0.37401390694E+03  0.17200000000E+03 0.  1.
</event>
<event>
 4    1  0.6352740E-002  0.5058772E+03  0.7818608E-02  0.1012256E+00
         -2   -1    0    0    0  501 -0.00000000000E+00  0.00000000000E+00  0.28603861094E+03  0.28603861094E+03  0.00000000000E+00 0.  1.
          2   -1    0    0  502    0  0.00000000000E+00 -0.00000000000E+00 -0.89637800412E+03  0.89637800412E+03  0.00000000000E+00 0. -1.
          6    1    1    2  502    0  0.34421770604E+03  0.32839293110E+03 -0.27940441051E+03  0.57790879121E+03  0.17200000000E+03 0. -1.
         -6    1    1    2    0  501 -0.34421770604E+03 -0.32839293110E+03 -0.33093498267E+03  0.60450782385E+03  0.17200000000E+03 0.  1.
</event>
<event>
 4    1  0.6352740E-002  0.3275433E+03  0.7818608E-02  0.1072229E+00
         -1   -1    0    0    0  501 -0.00000000000E+00  0.00000000000E+00  0.69926613134E+02  0.69926613134E+02  0.00000000000E+00 0.  1.
          1   -1    0    0  502    0  0.00000000000E+00 -0.00000000000E+00 -0.16515390875E+04  0.16515390875E+04  0.00000000000E+00 0. -1.
          6    1    1    2  502    0 -0.58370068652E+02 -0.27256837471E+03 -0.56142320497E+03  0.64998507589E+03  0.17200000000E+03 0. -1.
         -6    1    1    2    0  501  0.58370068652E+02  0.27256837471E+03 -0.10201892694E+04  0.10714806247E+04  0.17200000000E+03 0.  1.
</event>
<event>
 4    1  0.6352740E-002  0.3418040E+03  0.7818608E-02  0.1066030E+00
          1   -1    0    0  502    0  0.00000000000E+00  0.00000000000E+00  0.78762048909E+03  0.78762048909E+03  0.00000000000E+00 0. -1.
         -1   -1    0    0    0  501 -0.00000000000E+00 -0.00000000000E+00 -0.34949454743E+03  0.34949454743E+03  0.00000000000E+00 0.  1.
          6    1    1    2  502    0 -0.29496105888E+03 -0.15619313827E+02  0.65041004235E+03  0.73475384478E+03  0.17200000000E+03 0. -1.
         -6    1    1    2    0  501  0.29496105888E+03  0.15619313827E+02 -0.21228410069E+03  0.40236119175E+03  0.17200000000E+03 0.  1.
</event>
<event>
 4    1  0.6352740E-002  0.2926914E+03  0.7818608E-02  0.1088952E+00
          1   -1    0    0  502    0  0.00000000000E+00  0.00000000000E+00  0.58347961135E+03  0.58347961135E+03  0.00000000000E+00 0. -1.
         -1   -1    0    0    0  501 -0.00000000000E+00 -0.00000000000E+00 -0.22301061738E+03  0.22301061738E+03  0.00000000000E+00 0.  1.
          6    1    1    2  502    0 -0.15989543987E+03 -0.17469318780E+03  0.41592841256E+03  0.50859090233E+03  0.17200000000E+03 0. -1.
         -6    1    1    2    0  501  0.15989543987E+03  0.17469318780E+03 -0.55459418593E+02  0.29789932640E+03  0.17200000000E+03 0.  1.
</event>
<event>
 4    1  0.6352740E-002  0.1821432E+03  0.7818608E-02  0.1165745E+00
          2   -1    0    0  502    0  0.00000000000E+00  0.00000000000E+00  0.88050270467E+03  0.88050270467E+03  0.00000000000E+00 0. -1.
         -2   -1    0    0    0  501 -0.00000000000E+00 -0.00000000000E+00 -0.48288948152E+02  0.48288948152E+02  0.00000000000E+00 0.  1.
          6    1    1    2  502    0  0.30091007265E+01 -0.59858809438E+02  0.63379199066E+03  0.65944553921E+03  0.17200000000E+03 0.  1.
         -6    1    1    2    0  501 -0.30091007265E+01  0.59858809438E+02  0.19842176586E+03  0.26934611362E+03  0.17200000000E+03 0.  1.
</event>
<event>
 4    1  0.6352740E-002  0.2520011E+03  0.7818608E-02  0.1112047E+00
         -2   -1    0    0    0  501 -0.00000000000E+00  0.00000000000E+00  0.14988735255E+03  0.14988735255E+03  0.00000000000E+00 0.  1.
          2   -1    0    0  502    0  0.00000000000E+00 -0.00000000000E+00 -0.54147601712E+03  0.54147601712E+03  0.00000000000E+00 0. -1.
          6    1    1    2  502    0  0.54508833056E+02 -0.17592424208E+03 -0.34563298888E+02  0.25436032211E+03  0.17200000000E+03 0. -1.
         -6    1    1    2    0  501 -0.54508833056E+02  0.17592424208E+03 -0.35702536569E+03  0.43700304756E+03  0.17200000000E+03 0.  1.
</event>
<event>
 4    1  0.6352740E-002  0.1829505E+03  0.7818608E-02  0.1164978E+00
          2   -1    0    0  502    0  0.00000000000E+00  0.00000000000E+00  0.81694642605E+03  0.81694642605E+03  0.00000000000E+00 0. -1.
         -2   -1    0    0    0  501 -0.00000000000E+00 -0.00000000000E+00 -0.45784670457E+02  0.45784670457E+02  0.00000000000E+00 0.  1.
          6    1    1    2  502    0 -0.10115175138E+02  0.61518846875E+02  0.24570716360E+03  0.30633787806E+03  0.17200000000E+03 0.  1.
         -6    1    1    2    0  501  0.10115175138E+02 -0.61518846875E+02  0.52545459199E+03  0.55639321845E+03  0.17200000000E+03 0. -1.
</event>
<event>
 4    1  0.6352740E-002  0.2183514E+03  0.7818608E-02  0.1135118E+00
         -2   -1    0    0    0  501 -0.00000000000E+00  0.00000000000E+00  0.16972102610E+03  0.16972102610E+03  0.00000000000E+00 0.  1.
          2   -1    0    0  502    0  0.00000000000E+00 -0.00000000000E+00 -0.38526107549E+03  0.38526107549E+03  0.00000000000E+00 0. -1.
          6    1    1    2  502    0 -0.55656108391E+02 -0.12245706314E+03 -0.25218346132E+03  0.33357732668E+03  0.17200000000E+03 0. -1.
         -6    1    1    2    0  501  0.55656108391E+02  0.12245706314E+03  0.36643411926E+02  0.22140477491E+03  0.17200000000E+03 0.  1.
</event>
<event>
 4    1  0.6352740E-002  0.2986704E+03  0.7818608E-02  0.1085907E+00
          1   -1    0    0  502    0  0.00000000000E+00  0.00000000000E+00  0.41797397848E+03  0.41797397848E+03  0.00000000000E+00 0. -1.
         -1   -1    0    0    0  501 -0.00000000000E+00 -0.00000000000E+00 -0.26661204092E+03  0.26661204092E+03  0.00000000000E+00 0.  1.
          6    1    1    2  502    0 -0.24410307779E+03  0.58040131993E+01  0.22857183774E+03  0.37609717383E+03  0.17200000000E+03 0. -1.
         -6    1    1    2    0  501  0.24410307779E+03 -0.58040131993E+01 -0.77209900180E+02  0.30848884557E+03  0.17200000000E+03 0.  1.
</event>
<event>
 4    1  0.6352740E-002  0.2062731E+03  0.7818608E-02  0.1144552E+00
          3   -1    0    0  502    0  0.00000000000E+00  0.00000000000E+00  0.75896980108E+02  0.75896980108E+02  0.00000000000E+00 0. -1.
         -3   -1    0    0    0  501 -0.00000000000E+00 -0.00000000000E+00 -0.79281114149E+03  0.79281114149E+03  0.00000000000E+00 0.  1.
          6    1    1    2  502    0 -0.33258725663E+02  0.10889655707E+03 -0.12339031792E+03  0.24036175555E+03  0.17200000000E+03 0. -1.
         -6    1    1    2    0  501  0.33258725663E+02 -0.10889655707E+03 -0.59352384345E+03  0.62834636605E+03  0.17200000000E+03 0.  1.
</event>
<event>
 4    1  0.6352740E-002  0.2187689E+03  0.7818608E-02  0.1134804E+00
         -2   -1    0    0    0  501 -0.00000000000E+00  0.00000000000E+00  0.92336891921E+02  0.92336891921E+02  0.00000000000E+00 0.  1.
          2   -1    0    0  502    0  0.00000000000E+00 -0.00000000000E+00 -0.13406629142E+04  0.13406629142E+04  0.00000000000E+00 0. -1.
          6    1    1    2  502    0 -0.31016070509E+02 -0.13158201587E+03 -0.11853188490E+04  0.12053383746E+04  0.17200000000E+03 0. -1.
         -6    1    1    2    0  501  0.31016070509E+02  0.13158201587E+03 -0.63007173338E+02  0.22766143156E+03  0.17200000000E+03 0.  1.
</event>
<event>
 4    1  0.6352740E-002  0.1895146E+03  0.7818608E-02  0.1158900E+00
          3   -1    0    0  502    0  0.00000000000E+00  0.00000000000E+00  0.26303459781E+02  0.26303459781E+02  0.00000000000E+00 0. -1.
         -3   -1    0    0    0  501 -0.00000000000E+00 -0.00000000000E+00 -0.13989059299E+04  0.13989059299E+04  0.00000000000E+00 0.  1.
          6    1    1    2  502    0  0.34613074687E+02  0.71649936191E+02 -0.57608126972E+03  0.60645313719E+03  0.17200000000E+03 0. -1.
         -6    1    1    2    0  501 -0.34613074687E+02 -0.71649936191E+02 -0.79652120042E+03  0.81875625250E+03  0.17200000000E+03 0.  1.
</event>
<event>
 4    1  0.6352740E-002  0.2015194E+03  0.7818608E-02  0.1148463E+00
         -2   -1    0    0    0  501 -0.00000000000E+00  0.00000000000E+00  0.87427179919E+02  0.87427179919E+02  0.00000000000E+00 0.  1.
          2   -1    0    0  502    0  0.00000000000E+00 -0.00000000000E+00 -0.80306828916E+03  0.80306828916E+03  0.00000000000E+00 0. -1.
          6    1    1    2  502    0  0.69146790754E+02 -0.79023944374E+02 -0.64692023494E+03  0.67758088287E+03  0.17200000000E+03 0. -1.
         -6    1    1    2    0  501 -0.69146790754E+02  0.79023944374E+02 -0.68720874301E+02  0.21291458621E+03  0.17200000000E+03 0.  1.
</event>
<event>
 4    1  0.6352740E-002  0.3691380E+03  0.7818608E-02  0.1055023E+00
         -2   -1    0    0    0  501 -0.00000000000E+00  0.00000000000E+00  0.30005547973E+03  0.30005547973E+03  0.00000000000E+00 0.  1.
          2   -1    0    0  502    0  0.00000000000E+00 -0.00000000000E+00 -0.72988374590E+03  0.72988374590E+03  0.00000000000E+00 0. -1.
          6    1    1    2  502    0  0.12519130663E+03  0.30167197532E+03 -0.53144714702E+03  0.64706948160E+03  0.17200000000E+03 0. -1.
         -6    1    1    2    0  501 -0.12519130663E+03 -0.30167197532E+03  0.10161888085E+03  0.38286974403E+03  0.17200000000E+03 0.  1.
</event>
<event>
 4    1  0.6352740E-002  0.2606412E+03  0.7818608E-02  0.1106759E+00
          2   -1    0    0  502    0  0.00000000000E+00  0.00000000000E+00  0.18572841514E+04  0.18572841514E+04  0.00000000000E+00 0. -1.
         -2   -1    0    0    0  501 -0.00000000000E+00 -0.00000000000E+00 -0.44335440429E+02  0.44335440429E+02  0.00000000000E+00 0.  1.
          6    1    1    2  502    0 -0.98907221361E+02  0.16901834121E+03  0.50872817624E+03  0.57161017783E+03  0.17200000000E+03 0. -1.
         -6    1    1    2    0  501  0.98907221361E+02 -0.16901834121E+03  0.13042205348E+04  0.13300094140E+04  0.17200000000E+03 0. -1.
</event>
<event>
 4    1  0.6352740E-002  0.2994956E+03  0.7818608E-02  0.1085493E+00
          2   -1    0    0  502    0  0.00000000000E+00  0.00000000000E+00  0.76757555726E+03  0.76757555726E+03  0.00000000000E+00 0. -1.
         -2   -1    0    0    0  501 -0.00000000000E+00 -0.00000000000E+00 -0.11694529021E+03  0.11694529021E+03  0.00000000000E+00 0.  1.
          6    1    1    2  502    0  0.23952822263E+03 -0.52343317551E+02  0.33737561649E+03  0.45113179774E+03  0.17200000000E+03 0. -1.
         -6    1    1    2    0  501 -0.23952822263E+03  0.52343317551E+02  0.31325465056E+03  0.43338904973E+03  0.17200000000E+03 0. -1.
</event>
<event>
 4    1  0.6352740E-002  0.3295065E+03  0.7818608E-02  0.1071355E+00
          2   -1    0    0  502    0  0.00000000000E+00  0.00000000000E+00  0.21402389969E+03  0.21402389969E+03  0.00000000000E+00 0. -1.
         -2   -1    0    0    0  501 -0.00000000000E+00 -0.00000000000E+00 -0.75982274670E+03  0.75982274670E+03  0.00000000000E+00 0.  1.
          6    1    1    2  502    0 -0.13878040352E+03  0.24439829303E+03  0.78079843012E+01  0.32959898461E+03  0.17200000000E+03 0. -1.
         -6    1    1    2    0  501  0.13878040352E+03 -0.24439829303E+03 -0.55360683131E+03  0.64424766178E+03  0.17200000000E+03 0.  1.
</event>
<event>
 4    1  0.6352740E-002  0.4008546E+03  0.7818608E-02  0.1043484E+00
          2   -1    0    0  502    0  0.00000000000E+00  0.00000000000E+00  0.39240204513E+04  0.39240204513E+04  0.00000000000E+00 0. -1.
         -2   -1    0    0    0  501 -0.00000000000E+00 -0.00000000000E+00 -0.41470573582E+02  0.41470573582E+02  0.00000000000E+00 0.  1.
          6    1    1    2  502    0 -0.36131379982E+03 -0.23509864735E+02  0.17188975726E+04  0.17650193316E+04  0.17200000000E+03 0. -1.
         -6    1    1    2    0  501  0.36131379982E+03  0.23509864735E+02  0.21636523052E+04  0.22004716934E+04  0.17200000000E+03 0.  1.
</event>
<event>
 4    1  0.6352740E-002  0.2413595E+03  0.7818608E-02  0.1118890E+00
          2   -1    0    0  502    0  0.00000000000E+00  0.00000000000E+00  0.23625708086E+03  0.23625708086E+03  0.00000000000E+00 0. -1.
         -2   -1    0    0    0  501 -0.00000000000E+00 -0.00000000000E+00 -0.49955170787E+03  0.49955170787E+03  0.00000000000E+00 0.  1.
          6    1    1    2  502    0  0.14175119622E+03 -0.92612186799E+02  0.13016342582E+03  0.27422059768E+03  0.17200000000E+03 0. -1.
         -6    1    1    2    0  501 -0.14175119622E+03  0.92612186799E+02 -0.39345805283E+03  0.46158819104E+03  0.17200000000E+03 0.  1.
</event>
<event>
 4    1  0.6352740E-002  0.1720033E+03  0.7818608E-02  0.1175775E+00
          3   -1    0    0  502    0  0.00000000000E+00  0.00000000000E+00  0.14648643429E+04  0.14648643429E+04  0.00000000000E+00 0. -1.
         -3   -1    0    0    0  501 -0.00000000000E+00 -0.00000000000E+00 -0.20233063265E+02  0.20233063265E+02  0.00000000000E+00 0.  1.
          6    1    1    2  502    0  0.97157362671E+00 -0.42119363092E+00  0.69074651132E+03  0.71183977429E+03  0.17200000000E+03 0.  1.
         -6    1    1    2    0  501 -0.97157362671E+00  0.42119363092E+00  0.75388476835E+03  0.77325763191E+03  0.17200000000E+03 0. -1.
</event>
<event>
 4    1  0.6352740E-002  0.2129958E+03  0.7818608E-02  0.1139215E+00
          2   -1    0    0  502    0  0.00000000000E+00  0.00000000000E+00  0.58543965618E+03  0.58543965618E+03  0.00000000000E+00 0. -1.
         -2   -1    0    0    0  501 -0.00000000000E+00 -0.00000000000E+00 -0.77497894975E+02  0.77497894975E+02  0.00000000000E+00 0.  1.
          6    1    1    2  502    0 -0.10800880034E+03 -0.64166149325E+02  0.25121100838E+03  0.32935416560E+03  0.17200000000E+03 0. -1.
         -6    1    1    2    0  501  0.10800880034E+03  0.64166149325E+02  0.25673075283E+03  0.33358338555E+03  0.17200000000E+03 0. -1.
</event>
<event>
 4    1  0.6352740E-002  0.1807226E+03  0.7818608E-02  0.1167106E+00
         -2   -1    0    0    0  501 -0.00000000000E+00  0.00000000000E+00  0.14794996855E+02  0.14794996855E+02  0.00000000000E+00 0.  1.
          2   -1    0    0  502    0  0.00000000000E+00 -0.00000000000E+00 -0.22099844092E+04  0.22099844092E+04  0.00000000000E+00 0. -1.
          6    1    1    2  502    0  0.32961085569E+02  0.44611984747E+02 -0.11345313794E+04  0.11488351114E+04  0.17200000000E+03 0.  1.
         -6    1    1    2    0  501 -0.32961085569E+02 -0.44611984747E+02 -0.10606580329E+04  0.10759442946E+04  0.17200000000E+03 0.  1.
</event>
<event>
 4    1  0.6352740E-002  0.1878235E+03  0.7818608E-02  0.1160439E+00
         -2   -1    0    0    0  501 -0.00000000000E+00  0.00000000000E+00  0.23235977151E+02  0.23235977151E+02  0.00000000000E+00 0.  1.
          2   -1    0    0  502    0  0.00000000000E+00 -0.00000000000E+00 -0.17265066204E+04  0.17265066204E+04  0.00000000000E+00 0. -1.
          6    1    1    2  502    0  0.72412564399E+02  0.21215285951E+02 -0.11554965989E+04  0.11706622305E+04  0.17200000000E+03 0. -1.
         -6    1    1    2    0  501 -0.72412564399E+02 -0.21215285951E+02 -0.54777404427E+03  0.57908036697E+03  0.17200000000E+03 0.  1.
</event>
<event>
 4    1  0.6352740E-002  0.5140353E+03  0.7818608E-02  0.1010179E+00
         -2   -1    0    0    0  501 -0.00000000000E+00  0.00000000000E+00  0.81482533006E+03  0.81482533006E+03  0.00000000000E+00 0.  1.
          2   -1    0    0  502    0  0.00000000000E+00 -0.00000000000E+00 -0.38747716932E+03  0.38747716932E+03  0.00000000000E+00 0. -1.
          6    1    1    2  502    0  0.48253552219E+03  0.42517816883E+02 -0.29102282445E+02  0.51485846383E+03  0.17200000000E+03 0. -1.
         -6    1    1    2    0  501 -0.48253552219E+03 -0.42517816883E+02  0.45645044318E+03  0.68744403555E+03  0.17200000000E+03 0.  1.
</event>
<event>
 4    1  0.6352740E-002  0.4380750E+03  0.7818608E-02  0.1031339E+00
          2   -1    0    0  502    0  0.00000000000E+00  0.00000000000E+00  0.10434196470E+04  0.10434196470E+04  0.00000000000E+00 0. -1.
         -2   -1    0    0    0  501 -0.00000000000E+00 -0.00000000000E+00 -0.18906729079E+03  0.18906729079E+03  0.00000000000E+00 0.  1.
          6    1    1    2  502    0  0.10526000846E+03  0.38890367980E+03  0.52881782510E+03  0.68670083274E+03  0.17200000000E+03 0. -1.
         -6    1    1    2    0  501 -0.10526000846E+03 -0.38890367980E+03  0.32553453115E+03  0.54578610510E+03  0.17200000000E+03 0.  1.
</event>
<event>
 4    1  0.6352740E-002  0.2297156E+03  0.7818608E-02  0.1126840E+00
          1   -1    0    0  502    0  0.00000000000E+00  0.00000000000E+00  0.60716522500E+03  0.60716522500E+03  0.00000000000E+00 0. -1.
         -1   -1    0    0    0  501 -0.00000000000E+00 -0.00000000000E+00 -0.92235545519E+02  0.92235545519E+02  0.00000000000E+00 0.  1.
          6    1    1    2  502    0  0.11629655894E+03 -0.98287250417E+02  0.34148673973E+03  0.41156101204E+03  0.17200000000E+03 0. -1.
         -6    1    1    2    0  501 -0.11629655894E+03  0.98287250417E+02  0.17344293975E+03  0.28783975849E+03  0.17200000000E+03 0.  1.
</event>
<event>
 4    1  0.6352740E-002  0.1899304E+03  0.7818608E-02  0.1158524E+00
         -1   -1    0    0    0  501 -0.00000000000E+00  0.00000000000E+00  0.15522005380E+03  0.15522005380E+03  0.00000000000E+00 0.  1.
          1   -1    0    0  502    0  0.00000000000E+00 -0.00000000000E+00 -0.29027919633E+03  0.29027919633E+03  0.00000000000E+00 0. -1.
          6    1    1    2  502    0  0.94244414662E+01  0.80004614900E+02 -0.16699225385E+03  0.25290308687E+03  0.17200000000E+03 0. -1.
         -6    1    1    2    0  501 -0.94244414662E+01 -0.80004614900E+02  0.31933111321E+02  0.19259616326E+03  0.17200000000E+03 0.  1.
</event>
<event>
 4    1  0.6352740E-002  0.4851195E+03  0.7818608E-02  0.1017738E+00
         -2   -1    0    0    0  501 -0.00000000000E+00  0.00000000000E+00  0.19819197884E+03  0.19819197884E+03  0.00000000000E+00 0.  1.
          2   -1    0    0  502    0  0.00000000000E+00 -0.00000000000E+00 -0.12316731397E+04  0.12316731397E+04  0.00000000000E+00 0. -1.
          6    1    1    2  502    0 -0.15620520956E+03  0.42586011022E+03 -0.65222699243E+03  0.81285973613E+03  0.17200000000E+03 0. -1.
         -6    1    1    2    0  501  0.15620520956E+03 -0.42586011022E+03 -0.38125416842E+03  0.61700538240E+03  0.17200000000E+03 0.  1.
</event>
<event>
 4    1  0.6352740E-002  0.2052669E+03  0.7818608E-02  0.1145370E+00
          2   -1    0    0  502    0  0.00000000000E+00  0.00000000000E+00  0.18654155386E+04  0.18654155386E+04  0.00000000000E+00 0. -1.
         -2   -1    0    0    0  501 -0.00000000000E+00 -0.00000000000E+00 -0.36859399331E+02  0.36859399331E+02  0.00000000000E+00 0.  1.
          6    1    1    2  502    0  0.77126072970E+02  0.81253222622E+02  0.15061320692E+04  0.15200553697E+04  0.17200000000E+03 0. -1.
         -6    1    1    2    0  501 -0.77126072970E+02 -0.81253222622E+02  0.32242407007E+03  0.38221956815E+03  0.17200000000E+03 0.  1.
</event>
<event>
 4    1  0.6352740E-002  0.1816662E+03  0.7818608E-02  0.1166200E+00
         -2   -1    0    0    0  501 -0.00000000000E+00  0.00000000000E+00  0.48761609173E+02  0.48761609173E+02  0.00000000000E+00 0.  1.
          2   -1    0    0  502    0  0.00000000000E+00 -0.00000000000E+00 -0.91396783629E+03  0.91396783629E+03  0.00000000000E+00 0. -1.
          6    1    1    2  502    0 -0.58095711605E+02  0.65958321193E+01 -0.18740200168E+03  0.26100215888E+03  0.17200000000E+03 0.  1.
         -6    1    1    2    0  501  0.58095711605E+02 -0.65958321193E+01 -0.67780422544E+03  0.70172728658E+03  0.17200000000E+03 0. -1.
</event>
<event>
 4    1  0.6352740E-002  0.1873897E+03  0.7818608E-02  0.1160837E+00
         -1   -1    0    0    0  501 -0.00000000000E+00  0.00000000000E+00  0.11578025499E+03  0.11578025499E+03  0.00000000000E+00 0.  1.
          1   -1    0    0  502    0  0.00000000000E+00 -0.00000000000E+00 -0.30702960200E+03  0.30702960200E+03  0.00000000000E+00 0. -1.
          6    1    1    2  502    0  0.67970260915E+02 -0.30181662466E+02 -0.72290628168E+02  0.20085025277E+03  0.17200000000E+03 0.  1.
         -6    1    1    2    0  501 -0.67970260915E+02  0.30181662466E+02 -0.11895871884E+03  0.22195960422E+03  0.17200000000E+03 0.  1.
</event>
<event>
 4    1  0.6352740E-002  0.3534268E+03  0.7818608E-02  0.1061217E+00
         -2   -1    0    0    0  501 -0.00000000000E+00  0.00000000000E+00  0.10069879882E+03  0.10069879882E+03  0.00000000000E+00 0.  1.
          2   -1    0    0  502    0  0.00000000000E+00 -0.00000000000E+00 -0.13067343003E+04  0.13067343003E+04  0.00000000000E+00 0. -1.
          6    1    1    2  502    0  0.30776219249E+03  0.24676507631E+02 -0.76152628550E+03  0.83954319762E+03  0.17200000000E+03 0.  1.
         -6    1    1    2    0  501 -0.30776219249E+03 -0.24676507631E+02 -0.44450921603E+03  0.56788990155E+03  0.17200000000E+03 0.  1.
</event>
<event>
 4    1  0.6352740E-002  0.3046202E+03  0.7818608E-02  0.1082954E+00
          2   -1    0    0  502    0  0.00000000000E+00  0.00000000000E+00  0.29580925975E+04  0.29580925975E+04  0.00000000000E+00 0. -1.
         -2   -1    0    0    0  501 -0.00000000000E+00 -0.00000000000E+00 -0.33393384458E+02  0.33393384458E+02  0.00000000000E+00 0.  1.
          6    1    1    2  502    0  0.86683737137E+02  0.23599875235E+03  0.18305924205E+04  0.18557645571E+04  0.17200000000E+03 0. -1.
         -6    1    1    2    0  501 -0.86683737137E+02 -0.23599875235E+03  0.10941067926E+04  0.11357214249E+04  0.17200000000E+03 0.  1.
</event>
<event>
 4    1  0.6352740E-002  0.4207932E+03  0.7818608E-02  0.1036808E+00
          1   -1    0    0  502    0  0.00000000000E+00  0.00000000000E+00  0.11336668847E+04  0.11336668847E+04  0.00000000000E+00 0. -1.
         -1   -1    0    0    0  501 -0.00000000000E+00 -0.00000000000E+00 -0.20036164961E+03  0.20036164961E+03  0.00000000000E+00 0.  1.
          6    1    1    2  502    0 -0.18075421678E+03  0.33883743742E+03  0.77983833807E+03  0.88612342787E+03  0.17200000000E+03 0. -1.
         -6    1    1    2    0  501  0.18075421678E+03 -0.33883743742E+03  0.15346689700E+03  0.44790510642E+03  0.17200000000E+03 0.  1.
</event>
<event>
 4    1  0.6352740E-002  0.2448818E+03  0.7818608E-02  0.1116583E+00
         -2   -1    0    0    0  501 -0.00000000000E+00  0.00000000000E+00  0.35682981793E+03  0.35682981793E+03  0.00000000000E+00 0.  1.
          2   -1    0    0  502    0  0.00000000000E+00 -0.00000000000E+00 -0.23063599299E+03  0.23063599299E+03  0.00000000000E+00 0. -1.
          6    1    1    2  502    0  0.83812684996E+02 -0.15283501666E+03 -0.89909478009E+02  0.26086552612E+03  0.17200000000E+03 0. -1.
         -6    1    1    2    0  501 -0.83812684996E+02  0.15283501666E+03  0.21610330295E+03  0.32660028480E+03  0.17200000000E+03 0.  1.
</event>
<event>
 4    1  0.6352740E-002  0.3655704E+03  0.7818608E-02  0.1056400E+00
          1   -1    0    0  502    0  0.00000000000E+00  0.00000000000E+00  0.31630312427E+03  0.31630312427E+03  0.00000000000E+00 0. -1.
         -1   -1    0    0    0  501 -0.00000000000E+00 -0.00000000000E+00 -0.10311735913E+04  0.10311735913E+04  0.00000000000E+00 0.  1.
          6    1    1    2  502    0  0.74768049033E+02  0.31379520423E+03  0.16018772151E+03  0.39912629264E+03  0.17200000000E+03 0. -1.
         -6    1    1    2    0  501 -0.74768049033E+02 -0.31379520423E+03 -0.87505818853E+03  0.94835042293E+03  0.17200000000E+03 0.  1.
</event>
<event>
 4    1  0.6352740E-002  0.1782784E+03  0.7818608E-02  0.1169480E+00
         -3   -1    0    0    0  501 -0.00000000000E+00  0.00000000000E+00  0.15270231044E+03  0.15270231044E+03  0.00000000000E+00 0.  1.
          3   -1    0    0  502    0  0.00000000000E+00 -0.00000000000E+00 -0.39008554076E+03  0.39008554076E+03  0.00000000000E+00 0. -1.
          6    1    1    2  502    0 -0.29612125770E+02 -0.36363467698E+02 -0.30404182675E+03  0.35245512081E+03  0.17200000000E+03 0. -1.
         -6    1    1    2    0  501  0.29612125770E+02  0.36363467698E+02  0.66658596432E+02  0.19033273038E+03  0.17200000000E+03 0.  1.
</event>
<event>
 4    1  0.6352740E-002  0.2809612E+03  0.7818608E-02  0.1095165E+00
         -2   -1    0    0    0  501 -0.00000000000E+00  0.00000000000E+00  0.61785383261E+03  0.61785383261E+03  0.00000000000E+00 0.  1.
          2   -1    0    0  502    0  0.00000000000E+00 -0.00000000000E+00 -0.13877822170E+03  0.13877822170E+03  0.00000000000E+00 0. -1.
          6    1    1    2  502    0  0.24396388753E+01  0.22214692093E+03  0.13295684547E+03  0.31083231665E+03  0.17200000000E+03 0. -1.
         -6    1    1    2    0  501 -0.24396388753E+01 -0.22214692093E+03  0.34611876544E+03  0.44579973766E+03  0.17200000000E+03 0.  1.
</event>
<event>
 4    1  0.6352740E-002  0.1813396E+03  0.7818608E-02  0.1166513E+00
         -2   -1    0    0    0  501 -0.00000000000E+00  0.00000000000E+00  0.41847290730E+02  0.41847290730E+02  0.00000000000E+00 0.  1.
          2   -1    0    0  502    0  0.00000000000E+00 -0.00000000000E+00 -0.17205969719E+04  0.17205969719E+04  0.00000000000E+00 0. -1.
          6    1    1    2  502    0  0.12441163289E+02  0.56082831536E+02 -0.14889088313E+04  0.14999111889E+04  0.17200000000E+03 0. -1.
         -6    1    1    2    0  501 -0.12441163289E+02 -0.56082831536E+02 -0.18984084981E+03  0.26253307372E+03  0.17200000000E+03 0.  1.
</event>
<event>
 4    1  0.6352740E-002  0.2258406E+03  0.7818608E-02  0.1129602E+00
          1   -1    0    0  502    0  0.00000000000E+00  0.00000000000E+00  0.16403851130E+04  0.16403851130E+04  0.00000000000E+00 0. -1.
         -1   -1    0    0    0  501 -0.00000000000E+00 -0.00000000000E+00 -0.33638698895E+02  0.33638698895E+02  0.00000000000E+00 0.  1.
          6    1    1    2  502    0 -0.27624138244E+02 -0.14372499735E+03  0.10336461604E+04  0.10580304121E+04  0.17200000000E+03 0. -1.
         -6    1    1    2    0  501  0.27624138244E+02  0.14372499735E+03  0.57310025370E+03  0.61599339986E+03  0.17200000000E+03 0. -1.
</event>
<event>
 4    1  0.6352740E-002  0.3762209E+03  0.7818608E-02  0.1052339E+00
         -2   -1    0    0    0  501 -0.00000000000E+00  0.00000000000E+00  0.35911634344E+03  0.35911634344E+03  0.00000000000E+00 0.  1.
          2   -1    0    0  502    0  0.00000000000E+00 -0.00000000000E+00 -0.41218677866E+03  0.41218677866E+03  0.00000000000E+00 0. -1.
          6    1    1    2  502    0  0.32947136812E+03  0.58367879210E+02  0.54159547176E+02  0.38009926110E+03  0.17200000000E+03 0. -1.
         -6    1    1    2    0  501 -0.32947136812E+03 -0.58367879210E+02 -0.10722998239E+03  0.39120386100E+03  0.17200000000E+03 0.  1.
</event>
<event>
 4    1  0.6352740E-002  0.2749909E+03  0.7818608E-02  0.1098457E+00
         -2   -1    0    0    0  501 -0.00000000000E+00  0.00000000000E+00  0.47626304279E+02  0.47626304279E+02  0.00000000000E+00 0.  1.
          2   -1    0    0  502    0  0.00000000000E+00 -0.00000000000E+00 -0.19204134510E+04  0.19204134510E+04  0.00000000000E+00 0. -1.
          6    1    1    2  502    0  0.15300361050E+02 -0.21401375147E+03 -0.13459284784E+04  0.13737334005E+04  0.17200000000E+03 0. -1.
         -6    1    1    2    0  501 -0.15300361050E+02  0.21401375147E+03 -0.52685866832E+03  0.59430635471E+03  0.17200000000E+03 0.  1.
</event>
<event>
 4    1  0.6352740E-002  0.2628506E+03  0.7818608E-02  0.1105443E+00
         -4   -1    0    0    0  501 -0.00000000000E+00  0.00000000000E+00  0.68459716124E+03  0.68459716124E+03  0.00000000000E+00 0.  1.
          4   -1    0    0  502    0  0.00000000000E+00 -0.00000000000E+00 -0.11346336436E+03  0.11346336436E+03  0.00000000000E+00 0. -1.
          6    1    1    2  502    0  0.49534076569E+02 -0.19249109156E+03  0.41823370517E+03  0.49397355923E+03  0.17200000000E+03 0. -1.
         -6    1    1    2    0  501 -0.49534076569E+02  0.19249109156E+03  0.15290009171E+03  0.30408696637E+03  0.17200000000E+03 0.  1.
</event>
<event>
 4    1  0.6352740E-002  0.2918583E+03  0.7818608E-02  0.1089383E+00
          2   -1    0    0  502    0  0.00000000000E+00  0.00000000000E+00  0.11165164110E+04  0.11165164110E+04  0.00000000000E+00 0. -1.
         -2   -1    0    0    0  501 -0.00000000000E+00 -0.00000000000E+00 -0.36989095685E+03  0.36989095685E+03  0.00000000000E+00 0.  1.
          6    1    1    2  502    0 -0.84523410593E+02 -0.22012052237E+03  0.10354503470E+04  0.10757967616E+04  0.17200000000E+03 0. -1.
         -6    1    1    2    0  501  0.84523410593E+02  0.22012052237E+03 -0.28882489276E+03  0.41061060628E+03  0.17200000000E+03 0.  1.
</event>
<event>
 4    1  0.6352740E-002  0.3366339E+03  0.7818608E-02  0.1068239E+00
          2   -1    0    0  502    0  0.00000000000E+00  0.00000000000E+00  0.62406233284E+03  0.62406233284E+03  0.00000000000E+00 0. -1.
         -2   -1    0    0    0  501 -0.00000000000E+00 -0.00000000000E+00 -0.28864051159E+03  0.28864051159E+03  0.00000000000E+00 0.  1.
          6    1    1    2  502    0  0.25930345852E+03 -0.12845261569E+03  0.44563025885E+03  0.55848785634E+03  0.17200000000E+03 0. -1.
         -6    1    1    2    0  501 -0.25930345852E+03  0.12845261569E+03 -0.11020843760E+03  0.35421498810E+03  0.17200000000E+03 0.  1.
</event>
<event>
 4    1  0.6352740E-002  0.1837787E+03  0.7818608E-02  0.1164195E+00
         -1   -1    0    0    0  501 -0.00000000000E+00  0.00000000000E+00  0.18399361021E+03  0.18399361021E+03  0.00000000000E+00 0.  1.
          1   -1    0    0  502    0  0.00000000000E+00 -0.00000000000E+00 -0.19286763190E+03  0.19286763190E+03  0.00000000000E+00 0. -1.
          6    1    1    2  502    0 -0.46316937155E+02  0.45225727260E+02 -0.45822231309E+02  0.18940512653E+03  0.17200000000E+03 0. -1.
         -6    1    1    2    0  501  0.46316937155E+02 -0.45225727260E+02  0.36948209621E+02  0.18745611558E+03  0.17200000000E+03 0.  1.
</event>
<event>
 4    1  0.6352740E-002  0.2094031E+03  0.7818608E-02  0.1142040E+00
          2   -1    0    0  502    0  0.00000000000E+00  0.00000000000E+00  0.37739736820E+04  0.37739736820E+04  0.00000000000E+00 0. -1.
         -2   -1    0    0    0  501 -0.00000000000E+00 -0.00000000000E+00 -0.22011326304E+02  0.22011326304E+02  0.00000000000E+00 0.  1.
          6    1    1    2  502    0 -0.52163505748E+02  0.10744583025E+03  0.31801345646E+04  0.31870214130E+04  0.17200000000E+03 0. -1.
         -6    1    1    2    0  501  0.52163505748E+02 -0.10744583025E+03  0.57182779110E+03  0.60896359534E+03  0.17200000000E+03 0.  1.
</event>
<event>
 4    1  0.6352740E-002  0.2717946E+03  0.7818608E-02  0.1100257E+00
          2   -1    0    0  502    0  0.00000000000E+00  0.00000000000E+00  0.13982983813E+04  0.13982983813E+04  0.00000000000E+00 0. -1.
         -2   -1    0    0    0  501 -0.00000000000E+00 -0.00000000000E+00 -0.98095669168E+02  0.98095669168E+02  0.00000000000E+00 0.  1.
          6    1    1    2  502    0  0.53396945082E+02  0.20356098803E+03  0.11583483580E+04  0.11898080636E+04  0.17200000000E+03 0. -1.
         -6    1    1    2    0  501 -0.53396945082E+02 -0.20356098803E+03  0.14185435413E+03  0.30658598693E+03  0.17200000000E+03 0.  1.
</event>
<event>
 4    1  0.6352740E-002  0.2534930E+03  0.7818608E-02  0.1111117E+00
          2   -1    0    0  502    0  0.00000000000E+00  0.00000000000E+00  0.44771321862E+03  0.44771321862E+03  0.00000000000E+00 0. -1.
         -2   -1    0    0    0  501 -0.00000000000E+00 -0.00000000000E+00 -0.14454812069E+03  0.14454812069E+03  0.00000000000E+00 0.  1.
          6    1    1    2  502    0  0.36785391310E+02  0.18254189477E+03  0.17647819421E+03  0.30887418375E+03  0.17200000000E+03 0. -1.
         -6    1    1    2    0  501 -0.36785391310E+02 -0.18254189477E+03  0.12668690372E+03  0.28338715555E+03  0.17200000000E+03 0. -1.
</event>
<event>
 4    1  0.6352740E-002  0.3360755E+03  0.7818608E-02  0.1068480E+00
         -2   -1    0    0    0  501 -0.00000000000E+00  0.00000000000E+00  0.29503150160E+03  0.29503150160E+03  0.00000000000E+00 0.  1.
          2   -1    0    0  502    0  0.00000000000E+00 -0.00000000000E+00 -0.44804715904E+03  0.44804715904E+03  0.00000000000E+00 0. -1.
          6    1    1    2  502    0  0.28724928758E+03  0.29165070239E+02 -0.21825866178E+03  0.40072883348E+03  0.17200000000E+03 0. -1.
         -6    1    1    2    0  501 -0.28724928758E+03 -0.29165070239E+02  0.65243004337E+02  0.34234982716E+03  0.17200000000E+03 0.  1.
</event>
<event>
 4    1  0.6352740E-002  0.1776422E+03  0.7818608E-02  0.1170105E+00
          2   -1    0    0  502    0  0.00000000000E+00  0.00000000000E+00  0.48505552523E+02  0.48505552523E+02  0.00000000000E+00 0. -1.
         -2   -1    0    0    0  501 -0.00000000000E+00 -0.00000000000E+00 -0.68361958618E+03  0.68361958618E+03  0.00000000000E+00 0.  1.
          6    1    1    2  502    0 -0.40091112572E+02  0.19117259854E+02 -0.23708182042E+03  0.29625083376E+03  0.17200000000E+03 0. -1.
         -6    1    1    2    0  501  0.40091112572E+02 -0.19117259854E+02 -0.39803221324E+03  0.43587430494E+03  0.17200000000E+03 0. -1.
</event>
<event>
 4    1  0.6352740E-002  0.1810445E+03  0.7818608E-02  0.1166796E+00
          2   -1    0    0  502    0  0.00000000000E+00  0.00000000000E+00  0.15548707106E+04  0.15548707106E+04  0.00000000000E+00 0. -1.
         -2   -1    0    0    0  501 -0.00000000000E+00 -0.00000000000E+00 -0.31969522231E+02  0.31969522231E+02  0.00000000000E+00 0.  1.
          6    1    1    2  502    0  0.52499091092E+02  0.20903344915E+02  0.12245071477E+04  0.12378185889E+04  0.17200000000E+03 0. -1.
         -6    1    1    2    0  501 -0.52499091092E+02 -0.20903344915E+02  0.29839404074E+03  0.34902164395E+03  0.17200000000E+03 0.  1.
</event>
<event>
 4    1  0.6352740E-002  0.1168210E+04  0.7818608E-02  0.9141146E-01
         -2   -1    0    0    0  501 -0.00000000000E+00  0.00000000000E+00  0.39152218105E+03  0.39152218105E+03  0.00000000000E+00 0.  1.
          2   -1    0    0  502    0  0.00000000000E+00 -0.00000000000E+00 -0.35465264305E+04  0.35465264305E+04  0.00000000000E+00 0. -1.
          6    1    1    2  502    0 -0.87273443271E+03  0.75727519693E+03 -0.13195607538E+04  0.17623721789E+04  0.17200000000E+03 0. -1.
         -6    1    1    2    0  501  0.87273443271E+03 -0.75727519693E+03 -0.18354434956E+04  0.21756764327E+04  0.17200000000E+03 0.  1.
</event>
<event>
 4    1  0.6352740E-002  0.2369447E+03  0.7818608E-02  0.1121845E+00
          2   -1    0    0  502    0  0.00000000000E+00  0.00000000000E+00  0.70533274737E+03  0.70533274737E+03  0.00000000000E+00 0. -1.
         -2   -1    0    0    0  501 -0.00000000000E+00 -0.00000000000E+00 -0.79679606856E+02  0.79679606856E+02  0.00000000000E+00 0.  1.
          6    1    1    2  502    0  0.12932677019E+03  0.99163274867E+02  0.32542142113E+03  0.40254424589E+03  0.17200000000E+03 0. -1.
         -6    1    1    2    0  501 -0.12932677019E+03 -0.99163274867E+02  0.30023171939E+03  0.38246810834E+03  0.17200000000E+03 0.  1.
</event>
<event>
 4    1  0.6352740E-002  0.1801432E+03  0.7818608E-02  0.1167664E+00
          2   -1    0    0  502    0  0.00000000000E+00  0.00000000000E+00  0.86333347866E+03  0.86333347866E+03  0.00000000000E+00 0. -1.
         -2   -1    0    0    0  501 -0.00000000000E+00 -0.00000000000E+00 -0.41438030270E+02  0.41438030270E+02  0.00000000000E+00 0.  1.
          6    1    1    2  502    0  0.44447880844E+02  0.29865947380E+02  0.27306762800E+03  0.32713532121E+03  0.17200000000E+03 0.  1.
         -6    1    1    2    0  501 -0.44447880844E+02 -0.29865947380E+02  0.54882782039E+03  0.57763618772E+03  0.17200000000E+03 0. -1.
</event>
<event>
 4    1  0.6352740E-002  0.1870274E+03  0.7818608E-02  0.1161170E+00
          2   -1    0    0  502    0  0.00000000000E+00  0.00000000000E+00  0.14836442329E+04  0.14836442329E+04  0.00000000000E+00 0. -1.
         -2   -1    0    0    0  501 -0.00000000000E+00 -0.00000000000E+00 -0.17151301420E+03  0.17151301420E+03  0.00000000000E+00 0.  1.
          6    1    1    2  502    0  0.13966305417E+02  0.72112338918E+02  0.14246619413E+04  0.14368858320E+04  0.17200000000E+03 0. -1.
         -6    1    1    2    0  501 -0.13966305417E+02 -0.72112338918E+02 -0.11253072264E+03  0.21827141510E+03  0.17200000000E+03 0.  1.
</event>
<event>
 4    1  0.6352740E-002  0.2164050E+03  0.7818608E-02  0.1136592E+00
          2   -1    0    0  502    0  0.00000000000E+00  0.00000000000E+00  0.18055143951E+03  0.18055143951E+03  0.00000000000E+00 0. -1.
         -2   -1    0    0    0  501 -0.00000000000E+00 -0.00000000000E+00 -0.32352385836E+03  0.32352385836E+03  0.00000000000E+00 0.  1.
          6    1    1    2  502    0  0.28279532345E+02 -0.12824730988E+03 -0.18371284715E+03  0.28386883352E+03  0.17200000000E+03 0.  1.
         -6    1    1    2    0  501 -0.28279532345E+02  0.12824730988E+03  0.40740428300E+02  0.22020646434E+03  0.17200000000E+03 0. -1.
</event>
<event>
 4    1  0.6352740E-002  0.2077977E+03  0.7818608E-02  0.1143322E+00
         -1   -1    0    0    0  501 -0.00000000000E+00  0.00000000000E+00  0.37802324086E+02  0.37802324086E+02  0.00000000000E+00 0.  1.
          1   -1    0    0  502    0  0.00000000000E+00 -0.00000000000E+00 -0.16366917808E+04  0.16366917808E+04  0.00000000000E+00 0. -1.
          6    1    1    2  502    0  0.40665840354E+02  0.10928024105E+03 -0.12596225687E+04  0.12766475227E+04  0.17200000000E+03 0. -1.
         -6    1    1    2    0  501 -0.40665840354E+02 -0.10928024105E+03 -0.33926688808E+03  0.39784658225E+03  0.17200000000E+03 0.  1.
</event>
<event>
 4    1  0.6352740E-002  0.1980625E+03  0.7818608E-02  0.1151384E+00
         -1   -1    0    0    0  501 -0.00000000000E+00  0.00000000000E+00  0.26133711424E+02  0.26133711424E+02  0.00000000000E+00 0.  1.
          1   -1    0    0  502    0  0.00000000000E+00 -0.00000000000E+00 -0.15020104777E+04  0.15020104777E+04  0.00000000000E+00 0. -1.
          6    1    1    2  502    0 -0.54443922314E+01 -0.98056656767E+02 -0.75697226455E+03  0.78245495630E+03  0.17200000000E+03 0. -1.
         -6    1    1    2    0  501  0.54443922314E+01  0.98056656767E+02 -0.71890450169E+03  0.74568923279E+03  0.17200000000E+03 0.  1.
</event>
<event>
 4    1  0.6352740E-002  0.2483674E+03  0.7818608E-02  0.1114341E+00
          1   -1    0    0  502    0  0.00000000000E+00  0.00000000000E+00  0.48688235476E+03  0.48688235476E+03  0.00000000000E+00 0. -1.
         -1   -1    0    0    0  501 -0.00000000000E+00 -0.00000000000E+00 -0.13556673146E+03  0.13556673146E+03  0.00000000000E+00 0.  1.
          6    1    1    2  502    0  0.39440231325E+02  0.17477652590E+03  0.96049034878E+02  0.26629266410E+03  0.17200000000E+03 0. -1.
         -6    1    1    2    0  501 -0.39440231325E+02 -0.17477652590E+03  0.25526658842E+03  0.35615642212E+03  0.17200000000E+03 0. -1.
</event>
<event>
 4    1  0.6352740E-002  0.1755362E+03  0.7818608E-02  0.1172194E+00
         -1   -1    0    0    0  501 -0.00000000000E+00  0.00000000000E+00  0.58851705044E+02  0.58851705044E+02  0.00000000000E+00 0.  1.
          1   -1    0    0  502    0  0.00000000000E+00 -0.00000000000E+00 -0.56083642113E+03  0.56083642113E+03  0.00000000000E+00 0. -1.
          6    1    1    2  502    0  0.71638539963E+00 -0.35049043956E+02 -0.33086310240E+03  0.37454417793E+03  0.17200000000E+03 0. -1.
         -6    1    1    2    0  501 -0.71638539963E+00  0.35049043956E+02 -0.17112161368E+03  0.24514394824E+03  0.17200000000E+03 0.  1.
</event>
<event>
 4    1  0.6352740E-002  0.2615563E+03  0.7818608E-02  0.1106212E+00
          1   -1    0    0  502    0  0.00000000000E+00  0.00000000000E+00  0.12162320810E+04  0.12162320810E+04  0.00000000000E+00 0. -1.
         -1   -1    0    0    0  501 -0.00000000000E+00 -0.00000000000E+00 -0.67440187077E+02  0.67440187077E+02  0.00000000000E+00 0.  1.
          6    1    1    2  502    0  0.83155546398E+02 -0.17864175496E+03  0.83585562469E+03  0.87582323949E+03  0.17200000000E+03 0. -1.
         -6    1    1    2    0  501 -0.83155546398E+02  0.17864175496E+03  0.31293626924E+03  0.40784902858E+03  0.17200000000E+03 0.  1.
</event>
<event>
 4    1  0.6352740E-002  0.3043388E+03  0.7818608E-02  0.1083092E+00
         -2   -1    0    0    0  501 -0.00000000000E+00  0.00000000000E+00  0.22465105714E+03  0.22465105714E+03  0.00000000000E+00 0.  1.
          2   -1    0    0  502    0  0.00000000000E+00 -0.00000000000E+00 -0.41999548167E+03  0.41999548167E+03  0.00000000000E+00 0. -1.
          6    1    1    2  502    0  0.15702312414E+03  0.19591290916E+03 -0.14132135851E+03  0.33555007951E+03  0.17200000000E+03 0. -1.
         -6    1    1    2    0  501 -0.15702312414E+03 -0.19591290916E+03 -0.54023066025E+02  0.30909645930E+03  0.17200000000E+03 0.  1.
</event>
<event>
 4    1  0.6352740E-002  0.2551218E+03  0.7818608E-02  0.1110110E+00
          2   -1    0    0  502    0  0.00000000000E+00  0.00000000000E+00  0.45940471633E+03  0.45940471633E+03  0.00000000000E+00 0. -1.
         -2   -1    0    0    0  501 -0.00000000000E+00 -0.00000000000E+00 -0.19234404183E+03  0.19234404183E+03  0.00000000000E+00 0.  1.
          6    1    1    2  502    0 -0.17743171737E+03 -0.63412337696E+02  0.30078301951E+03  0.39440786468E+03  0.17200000000E+03 0. -1.
         -6    1    1    2    0  501  0.17743171737E+03  0.63412337696E+02 -0.33722345007E+02  0.25734089347E+03  0.17200000000E+03 0.  1.
</event>
<event>
 4    1  0.6352740E-002  0.8426445E+03  0.7818608E-02  0.9500263E-01
         -2   -1    0    0    0  501 -0.00000000000E+00  0.00000000000E+00  0.47263492357E+03  0.47263492357E+03  0.00000000000E+00 0.  1.
          2   -1    0    0  502    0  0.00000000000E+00 -0.00000000000E+00 -0.24190653175E+04  0.24190653175E+04  0.00000000000E+00 0. -1.
          6    1    1    2  502    0  0.19922903316E+03  0.80048330558E+03 -0.18632836560E+04  0.20449634991E+04  0.17200000000E+03 0. -1.
         -6    1    1    2    0  501 -0.19922903316E+03 -0.80048330558E+03 -0.83146737997E+02  0.84673674198E+03  0.17200000000E+03 0.  1.
</event>
<event>
 4    1  0.6352740E-002  0.4372645E+03  0.7818608E-02  0.1031589E+00
         -3   -1    0    0    0  501 -0.00000000000E+00  0.00000000000E+00  0.10921476313E+04  0.10921476313E+04  0.00000000000E+00 0.  1.
          3   -1    0    0  502    0  0.00000000000E+00 -0.00000000000E+00 -0.17527151319E+03  0.17527151319E+03  0.00000000000E+00 0. -1.
          6    1    1    2  502    0  0.39590643143E+03 -0.69816783438E+02  0.48002300014E+03  0.64932454625E+03  0.17200000000E+03 0. -1.
         -6    1    1    2    0  501 -0.39590643143E+03  0.69816783438E+02  0.43685311795E+03  0.61809459822E+03  0.17200000000E+03 0. -1.
</event>
<event>
 4    1  0.6352740E-002  0.2669936E+03  0.7818608E-02  0.1103013E+00
         -1   -1    0    0    0  501 -0.00000000000E+00  0.00000000000E+00  0.13957299106E+04  0.13957299106E+04  0.00000000000E+00 0.  1.
          1   -1    0    0  502    0  0.00000000000E+00 -0.00000000000E+00 -0.61236975238E+02  0.61236975238E+02  0.00000000000E+00 0. -1.
          6    1    1    2  502    0 -0.13529999051E+02 -0.20376092894E+03  0.37047494895E+03  0.45665880572E+03  0.17200000000E+03 0. -1.
         -6    1    1    2    0  501  0.13529999051E+02  0.20376092894E+03  0.96401798640E+03  0.10003080801E+04  0.17200000000E+03 0.  1.
</event>
<event>
 4    1  0.6352740E-002  0.2421687E+03  0.7818608E-02  0.1118357E+00
         -2   -1    0    0    0  501 -0.00000000000E+00  0.00000000000E+00  0.12558308748E+03  0.12558308748E+03  0.00000000000E+00 0.  1.
          2   -1    0    0  502    0  0.00000000000E+00 -0.00000000000E+00 -0.62566257894E+03  0.62566257894E+03  0.00000000000E+00 0. -1.
          6    1    1    2  502    0 -0.62768935713E+02 -0.15849831488E+03 -0.43920313815E+03  0.50154267184E+03  0.17200000000E+03 0. -1.
         -6    1    1    2    0  501  0.62768935713E+02  0.15849831488E+03 -0.60876353308E+02  0.24970299458E+03  0.17200000000E+03 0.  1.
</event>
<event>
 4    1  0.6352740E-002  0.2632682E+03  0.7818608E-02  0.1105195E+00
         -4   -1    0    0    0  501 -0.00000000000E+00  0.00000000000E+00  0.24052486824E+04  0.24052486824E+04  0.00000000000E+00 0.  1.
          4   -1    0    0  502    0  0.00000000000E+00 -0.00000000000E+00 -0.88002937871E+02  0.88002937871E+02  0.00000000000E+00 0. -1.
          6    1    1    2  502    0  0.11785930768E+03  0.16073370441E+03  0.13627261403E+03  0.29644622696E+03  0.17200000000E+03 0. -1.
         -6    1    1    2    0  501 -0.11785930768E+03 -0.16073370441E+03  0.21809731305E+04  0.21968053933E+04  0.17200000000E+03 0.  1.
</event>
<event>
 4    1  0.6352740E-002  0.2130938E+03  0.7818608E-02  0.1139139E+00
         -1   -1    0    0    0  501 -0.00000000000E+00  0.00000000000E+00  0.45805418810E+03  0.45805418810E+03  0.00000000000E+00 0.  1.
          1   -1    0    0  502    0  0.00000000000E+00 -0.00000000000E+00 -0.16202894868E+03  0.16202894868E+03  0.00000000000E+00 0. -1.
          6    1    1    2  502    0 -0.44393179816E+02 -0.11770385162E+03  0.34117828749E+03  0.40225809495E+03  0.17200000000E+03 0.  1.
         -6    1    1    2    0  501  0.44393179816E+02  0.11770385162E+03 -0.45153048070E+02  0.21782504183E+03  0.17200000000E+03 0. -1.
</event>
<event>
 4    1  0.6352740E-002  0.2889661E+03  0.7818608E-02  0.1090890E+00
          1   -1    0    0  502    0  0.00000000000E+00  0.00000000000E+00  0.19560794180E+03  0.19560794180E+03  0.00000000000E+00 0. -1.
         -1   -1    0    0    0  501 -0.00000000000E+00 -0.00000000000E+00 -0.52816542990E+03  0.52816542990E+03  0.00000000000E+00 0.  1.
          6    1    1    2  502    0 -0.93709852086E+02 -0.21245207948E+03 -0.78048343484E+01  0.28907151000E+03  0.17200000000E+03 0. -1.
         -6    1    1    2    0  501  0.93709852086E+02  0.21245207948E+03 -0.32475265375E+03  0.43470186171E+03  0.17200000000E+03 0.  1.
</event>
<event>
 4    1  0.6352740E-002  0.1796566E+03  0.7818608E-02  0.1168136E+00
         -2   -1    0    0    0  501 -0.00000000000E+00  0.00000000000E+00  0.21578188162E+02  0.21578188162E+02  0.00000000000E+00 0.  1.
          2   -1    0    0  502    0  0.00000000000E+00 -0.00000000000E+00 -0.20882152381E+04  0.20882152381E+04  0.00000000000E+00 0. -1.
          6    1    1    2  502    0  0.51507558074E+02  0.62810767967E+01 -0.15951917856E+04  0.16052767093E+04  0.17200000000E+03 0. -1.
         -6    1    1    2    0  501 -0.51507558074E+02 -0.62810767967E+01 -0.47144526437E+03  0.50451671702E+03  0.17200000000E+03 0.  1.
</event>
<event>
 4    1  0.6352740E-002  0.1905595E+03  0.7818608E-02  0.1157958E+00
          1   -1    0    0  502    0  0.00000000000E+00  0.00000000000E+00  0.99905878478E+03  0.99905878478E+03  0.00000000000E+00 0. -1.
         -1   -1    0    0    0  501 -0.00000000000E+00 -0.00000000000E+00 -0.37680262437E+02  0.37680262437E+02  0.00000000000E+00 0.  1.
          6    1    1    2  502    0 -0.73813992832E+02 -0.35783154165E+02  0.57819178698E+03  0.60878459425E+03  0.17200000000E+03 0. -1.
         -6    1    1    2    0  501  0.73813992832E+02  0.35783154165E+02  0.38318673536E+03  0.42795445297E+03  0.17200000000E+03 0.  1.
</event>
<event>
 4    1  0.6352740E-002  0.1990840E+03  0.7818608E-02  0.1150514E+00
          2   -1    0    0  502    0  0.00000000000E+00  0.00000000000E+00  0.28258369074E+03  0.28258369074E+03  0.00000000000E+00 0. -1.
         -2   -1    0    0    0  501 -0.00000000000E+00 -0.00000000000E+00 -0.14245066113E+03  0.14245066113E+03  0.00000000000E+00 0.  1.
          6    1    1    2  502    0 -0.22559973020E+02  0.97680468577E+02  0.43696123159E+02  0.20382290721E+03  0.17200000000E+03 0.  1.
         -6    1    1    2    0  501  0.22559973020E+02 -0.97680468577E+02  0.96436906448E+02  0.22121144466E+03  0.17200000000E+03 0. -1.
</event>
<event>
 4    1  0.6352740E-002  0.2449405E+03  0.7818608E-02  0.1116545E+00
         -1   -1    0    0    0  501 -0.00000000000E+00  0.00000000000E+00  0.54130255072E+02  0.54130255072E+02  0.00000000000E+00 0.  1.
          1   -1    0    0  502    0  0.00000000000E+00 -0.00000000000E+00 -0.18201131532E+04  0.18201131532E+04  0.00000000000E+00 0. -1.
          6    1    1    2  502    0 -0.25977467970E+01  0.17437060949E+03 -0.14690098195E+04  0.14892903369E+04  0.17200000000E+03 0. -1.
         -6    1    1    2    0  501  0.25977467970E+01 -0.17437060949E+03 -0.29697307862E+03  0.38495307138E+03  0.17200000000E+03 0.  1.
</event>
<event>
 4    1  0.6352740E-002  0.4175523E+03  0.7818608E-02  0.1037866E+00
          1   -1    0    0  502    0  0.00000000000E+00  0.00000000000E+00  0.75530061499E+03  0.75530061499E+03  0.00000000000E+00 0. -1.
         -1   -1    0    0    0  501 -0.00000000000E+00 -0.00000000000E+00 -0.23930928053E+03  0.23930928053E+03  0.00000000000E+00 0.  1.
          6    1    1    2  502    0  0.90071094924E+02  0.36966623161E+03  0.35157733525E+03  0.54585396179E+03  0.17200000000E+03 0. -1.
         -6    1    1    2    0  501 -0.90071094924E+02 -0.36966623161E+03  0.16441399921E+03  0.44875593374E+03  0.17200000000E+03 0.  1.
</event>
<event>
 4    1  0.6352740E-002  0.3066869E+03  0.7818608E-02  0.1081945E+00
         -2   -1    0    0    0  501 -0.00000000000E+00  0.00000000000E+00  0.15417382333E+03  0.15417382333E+03  0.00000000000E+00 0.  1.
          2   -1    0    0  502    0  0.00000000000E+00 -0.00000000000E+00 -0.63044511972E+03  0.63044511972E+03  0.00000000000E+00 0. -1.
          6    1    1    2  502    0  0.37385646423E+02 -0.25114770439E+03 -0.30866226508E+03  0.43511981093E+03  0.17200000000E+03 0. -1.
         -6    1    1    2    0  501 -0.37385646423E+02  0.25114770439E+03 -0.16760903131E+03  0.34949913212E+03  0.17200000000E+03 0.  1.
</event>
<event>
 4    1  0.6352740E-002  0.1811134E+03  0.7818608E-02  0.1166730E+00
         -2   -1    0    0    0  501 -0.00000000000E+00  0.00000000000E+00  0.59078606598E+02  0.59078606598E+02  0.00000000000E+00 0.  1.
          2   -1    0    0  502    0  0.00000000000E+00 -0.00000000000E+00 -0.63610080991E+03  0.63610080991E+03  0.00000000000E+00 0. -1.
          6    1    1    2  502    0  0.49250857854E+02  0.28149978317E+02 -0.41244967355E+03  0.45046287470E+03  0.17200000000E+03 0. -1.
         -6    1    1    2    0  501 -0.49250857854E+02 -0.28149978317E+02 -0.16457252977E+03  0.24471654180E+03  0.17200000000E+03 0.  1.
</event>
<event>
 4    1  0.6352740E-002  0.1935031E+03  0.7818608E-02  0.1155339E+00
          2   -1    0    0  502    0  0.00000000000E+00  0.00000000000E+00  0.76855492695E+03  0.76855492695E+03  0.00000000000E+00 0. -1.
         -2   -1    0    0    0  501 -0.00000000000E+00 -0.00000000000E+00 -0.70470954827E+02  0.70470954827E+02  0.00000000000E+00 0.  1.
          6    1    1    2  502    0 -0.55758960502E+01 -0.88478048855E+02  0.58211203411E+03  0.61343123168E+03  0.17200000000E+03 0. -1.
         -6    1    1    2    0  501  0.55758960502E+01  0.88478048855E+02  0.11597193802E+03  0.22559465010E+03  0.17200000000E+03 0.  1.
</event>
<event>
 4    1  0.6352740E-002  0.4912534E+03  0.7818608E-02  0.1016087E+00
          1   -1    0    0  502    0  0.00000000000E+00  0.00000000000E+00  0.84100369968E+03  0.84100369968E+03  0.00000000000E+00 0. -1.
         -1   -1    0    0    0  501 -0.00000000000E+00 -0.00000000000E+00 -0.31623515936E+03  0.31623515936E+03  0.00000000000E+00 0.  1.
          6    1    1    2  502    0 -0.38030267678E+03  0.25906709957E+03  0.86317437488E+02  0.49877909746E+03  0.17200000000E+03 0. -1.
         -6    1    1    2    0  501  0.38030267678E+03 -0.25906709957E+03  0.43845110283E+03  0.65845976158E+03  0.17200000000E+03 0.  1.
</event>
<event>
 4    1  0.6352740E-002  0.2646310E+03  0.7818608E-02  0.1104392E+00
         -4   -1    0    0    0  501 -0.00000000000E+00  0.00000000000E+00  0.64055313457E+03  0.64055313457E+03  0.00000000000E+00 0.  1.
          4   -1    0    0  502    0  0.00000000000E+00 -0.00000000000E+00 -0.11094193478E+03  0.11094193478E+03  0.00000000000E+00 0. -1.
          6    1    1    2  502    0  0.12616559844E+03  0.15661363421E+03  0.21946782861E+03  0.34379603902E+03  0.17200000000E+03 0. -1.
         -6    1    1    2    0  501 -0.12616559844E+03 -0.15661363421E+03  0.31014337118E+03  0.40769903034E+03  0.17200000000E+03 0.  1.
</event>
<event>
 4    1  0.6352740E-002  0.2154936E+03  0.7818608E-02  0.1137288E+00
          2   -1    0    0  502    0  0.00000000000E+00  0.00000000000E+00  0.93171513627E+03  0.93171513627E+03  0.00000000000E+00 0. -1.
         -2   -1    0    0    0  501 -0.00000000000E+00 -0.00000000000E+00 -0.57683058616E+02  0.57683058616E+02  0.00000000000E+00 0.  1.
          6    1    1    2  502    0  0.64603381382E+02  0.11260503937E+03  0.61942058377E+03  0.65583485069E+03  0.17200000000E+03 0. -1.
         -6    1    1    2    0  501 -0.64603381382E+02 -0.11260503937E+03  0.25461149389E+03  0.33356334420E+03  0.17200000000E+03 0.  1.
</event>
<event>
 4    1  0.6352740E-002  0.1797679E+03  0.7818608E-02  0.1168028E+00
         -2   -1    0    0    0  501 -0.00000000000E+00  0.00000000000E+00  0.93398275949E+03  0.93398275949E+03  0.00000000000E+00 0.  1.
          2   -1    0    0  502    0  0.00000000000E+00 -0.00000000000E+00 -0.34692715849E+02  0.34692715849E+02  0.00000000000E+00 0. -1.
          6    1    1    2  502    0  0.37918678777E+02  0.35981393739E+02  0.47458439888E+03  0.50749072755E+03  0.17200000000E+03 0. -1.
         -6    1    1    2    0  501 -0.37918678777E+02 -0.35981393739E+02  0.42470564476E+03  0.46118474779E+03  0.17200000000E+03 0. -1.
</event>
<event>
 4    1  0.6352740E-002  0.2576033E+03  0.7818608E-02  0.1108592E+00
          1   -1    0    0  502    0  0.00000000000E+00  0.00000000000E+00  0.10941927298E+04  0.10941927298E+04  0.00000000000E+00 0. -1.
         -1   -1    0    0    0  501 -0.00000000000E+00 -0.00000000000E+00 -0.61826852016E+02  0.61826852016E+02  0.00000000000E+00 0.  1.
          6    1    1    2  502    0  0.18801225493E+03  0.37773732849E+02  0.59603161657E+03  0.64931744998E+03  0.17200000000E+03 0. -1.
         -6    1    1    2    0  501 -0.18801225493E+03 -0.37773732849E+02  0.43633426119E+03  0.50670213181E+03  0.17200000000E+03 0.  1.
</event>
<event>
 4    1  0.6352740E-002  0.2848106E+03  0.7818608E-02  0.1093090E+00
          2   -1    0    0  502    0  0.00000000000E+00  0.00000000000E+00  0.16276341626E+04  0.16276341626E+04  0.00000000000E+00 0. -1.
         -2   -1    0    0    0  501 -0.00000000000E+00 -0.00000000000E+00 -0.69369332716E+02  0.69369332716E+02  0.00000000000E+00 0.  1.
          6    1    1    2  502    0  0.18286829960E+03  0.13450749432E+03  0.12293696549E+04  0.12619298037E+04  0.17200000000E+03 0. -1.
         -6    1    1    2    0  501 -0.18286829960E+03 -0.13450749432E+03  0.32889517498E+03  0.43507369163E+03  0.17200000000E+03 0.  1.
</event>
<event>
 4    1  0.6352740E-002  0.2329276E+03  0.7818608E-02  0.1124596E+00
         -2   -1    0    0    0  501 -0.00000000000E+00  0.00000000000E+00  0.24890886093E+03  0.24890886093E+03  0.00000000000E+00 0.  1.
          2   -1    0    0  502    0  0.00000000000E+00 -0.00000000000E+00 -0.77953549173E+03  0.77953549173E+03  0.00000000000E+00 0. -1.
          6    1    1    2  502    0 -0.23013122832E+02 -0.15537581346E+03 -0.70176096232E+03  0.73940766527E+03  0.17200000000E+03 0. -1.
         -6    1    1    2    0  501  0.23013122832E+02  0.15537581346E+03  0.17113433153E+03  0.28903668739E+03  0.17200000000E+03 0.  1.
</event>
<event>
 4    1  0.6352740E-002  0.4395221E+03  0.7818608E-02  0.1030894E+00
          2   -1    0    0  502    0  0.00000000000E+00  0.00000000000E+00  0.11523841339E+04  0.11523841339E+04  0.00000000000E+00 0. -1.
         -2   -1    0    0    0  501 -0.00000000000E+00 -0.00000000000E+00 -0.16765276546E+03  0.16765276546E+03  0.00000000000E+00 0.  1.
          6    1    1    2  502    0  0.51877664458E+02 -0.40112889530E+03  0.49919821080E+03  0.66511543087E+03  0.17200000000E+03 0. -1.
         -6    1    1    2    0  501 -0.51877664458E+02  0.40112889530E+03  0.48553315760E+03  0.65492146846E+03  0.17200000000E+03 0.  1.
</event>
<event>
 4    1  0.6352740E-002  0.3499504E+03  0.7818608E-02  0.1062635E+00
          1   -1    0    0  502    0  0.00000000000E+00  0.00000000000E+00  0.14141345047E+04  0.14141345047E+04  0.00000000000E+00 0. -1.
         -1   -1    0    0    0  501 -0.00000000000E+00 -0.00000000000E+00 -0.26073479208E+03  0.26073479208E+03  0.00000000000E+00 0.  1.
          6    1    1    2  502    0  0.26879557012E+03  0.14363226423E+03  0.12610732492E+04  0.13087287823E+04  0.17200000000E+03 0. -1.
         -6    1    1    2    0  501 -0.26879557012E+03 -0.14363226423E+03 -0.10767353658E+03  0.36614051445E+03  0.17200000000E+03 0.  1.
</event>
<event>
 4    1  0.6352740E-002  0.1927036E+03  0.7818608E-02  0.1156045E+00
          1   -1    0    0  502    0  0.00000000000E+00  0.00000000000E+00  0.86022285849E+03  0.86022285849E+03  0.00000000000E+00 0. -1.
         -1   -1    0    0    0  501 -0.00000000000E+00 -0.00000000000E+00 -0.46939341727E+02  0.46939341727E+02  0.00000000000E+00 0.  1.
          6    1    1    2  502    0 -0.18843124257E+02 -0.84826969845E+02  0.27808476155E+03  0.33832796626E+03  0.17200000000E+03 0. -1.
         -6    1    1    2    0  501  0.18843124257E+02  0.84826969845E+02  0.53519875521E+03  0.56883423396E+03  0.17200000000E+03 0. -1.
</event>
<event>
 4    1  0.6352740E-002  0.1727544E+03  0.7818608E-02  0.1175005E+00
         -2   -1    0    0    0  501 -0.00000000000E+00  0.00000000000E+00  0.21136638579E+02  0.21136638579E+02  0.00000000000E+00 0.  1.
          2   -1    0    0  502    0  0.00000000000E+00 -0.00000000000E+00 -0.14145210413E+04  0.14145210413E+04  0.00000000000E+00 0. -1.
          6    1    1    2  502    0 -0.68853979141E+01 -0.14583931016E+02 -0.66615155759E+03  0.68818747259E+03  0.17200000000E+03 0.  1.
         -6    1    1    2    0  501  0.68853979141E+01  0.14583931016E+02 -0.72723284511E+03  0.74747020727E+03  0.17200000000E+03 0. -1.
</event>
<event>
 4    1  0.6352740E-002  0.2967291E+03  0.7818608E-02  0.1086887E+00
          2   -1    0    0  502    0  0.00000000000E+00  0.00000000000E+00  0.72304752239E+03  0.72304752239E+03  0.00000000000E+00 0. -1.
         -2   -1    0    0    0  501 -0.00000000000E+00 -0.00000000000E+00 -0.12282055527E+03  0.12282055527E+03  0.00000000000E+00 0.  1.
          6    1    1    2  502    0 -0.19493055931E+03  0.14306034266E+03  0.26106745740E+03  0.39522702578E+03  0.17200000000E+03 0. -1.
         -6    1    1    2    0  501  0.19493055931E+03 -0.14306034266E+03  0.33915950972E+03  0.45064105187E+03  0.17200000000E+03 0.  1.
</event>
<event>
 4    1  0.6352740E-002  0.1877576E+03  0.7818608E-02  0.1160499E+00
         -2   -1    0    0    0  501 -0.00000000000E+00  0.00000000000E+00  0.82170883481E+02  0.82170883481E+02  0.00000000000E+00 0.  1.
          2   -1    0    0  502    0  0.00000000000E+00 -0.00000000000E+00 -0.79055744382E+03  0.79055744382E+03  0.00000000000E+00 0. -1.
          6    1    1    2  502    0  0.28911316984E+01  0.75236725688E+02 -0.64928648812E+03  0.67588894590E+03  0.17200000000E+03 0. -1.
         -6    1    1    2    0  501 -0.28911316984E+01 -0.75236725688E+02 -0.59100072222E+02  0.19683938140E+03  0.17200000000E+03 0.  1.
</event>
<event>
 4    1  0.6352740E-002  0.2094512E+03  0.7818608E-02  0.1142001E+00
          1   -1    0    0  502    0  0.00000000000E+00  0.00000000000E+00  0.75381845964E+03  0.75381845964E+03  0.00000000000E+00 0. -1.
         -1   -1    0    0    0  501 -0.00000000000E+00 -0.00000000000E+00 -0.74024758383E+02  0.74024758383E+02  0.00000000000E+00 0.  1.
          6    1    1    2  502    0 -0.10747019732E+03 -0.52306283006E+02  0.53129715536E+03  0.57109233741E+03  0.17200000000E+03 0. -1.
         -6    1    1    2    0  501  0.10747019732E+03  0.52306283006E+02  0.14849654590E+03  0.25675088062E+03  0.17200000000E+03 0.  1.
</event>
<event>
 4    1  0.6352740E-002  0.2519803E+03  0.7818608E-02  0.1112060E+00
         -2   -1    0    0    0  501 -0.00000000000E+00  0.00000000000E+00  0.39111284744E+02  0.39111284744E+02  0.00000000000E+00 0.  1.
          2   -1    0    0  502    0  0.00000000000E+00 -0.00000000000E+00 -0.24724193085E+04  0.24724193085E+04  0.00000000000E+00 0. -1.
          6    1    1    2  502    0 -0.16929972794E+03 -0.72440848642E+02 -0.19525236242E+04  0.19687159718E+04  0.17200000000E+03 0. -1.
         -6    1    1    2    0  501  0.16929972794E+03  0.72440848642E+02 -0.48078439954E+03  0.54281462146E+03  0.17200000000E+03 0.  1.
</event>
<event>
 4    1  0.6352740E-002  0.1864080E+03  0.7818608E-02  0.1161742E+00
         -1   -1    0    0    0  501 -0.00000000000E+00  0.00000000000E+00  0.16327489038E+02  0.16327489038E+02  0.00000000000E+00 0.  1.
          1   -1    0    0  502    0  0.00000000000E+00 -0.00000000000E+00 -0.22632726368E+04  0.22632726368E+04  0.00000000000E+00 0. -1.
          6    1    1    2  502    0 -0.28468368411E+02  0.65980886770E+02 -0.84500973971E+03  0.86532617297E+03  0.17200000000E+03 0. -1.
         -6    1    1    2    0  501  0.28468368411E+02 -0.65980886770E+02 -0.14019354081E+04  0.14142739529E+04  0.17200000000E+03 0.  1.
</event>
<event>
 4    1  0.6352740E-002  0.1736319E+03  0.7818608E-02  0.1174112E+00
         -1   -1    0    0    0  501 -0.00000000000E+00  0.00000000000E+00  0.24536072932E+02  0.24536072932E+02  0.00000000000E+00 0.  1.
          1   -1    0    0  502    0  0.00000000000E+00 -0.00000000000E+00 -0.13998426171E+04  0.13998426171E+04  0.00000000000E+00 0. -1.
          6    1    1    2  502    0 -0.20186013626E+02  0.12512530465E+02 -0.93665691029E+03  0.95261440581E+03  0.17200000000E+03 0. -1.
         -6    1    1    2    0  501  0.20186013626E+02 -0.12512530465E+02 -0.43864963387E+03  0.47176428421E+03  0.17200000000E+03 0.  1.
</event>
<event>
 4    1  0.6352740E-002  0.2112137E+03  0.7818608E-02  0.1140608E+00
         -2   -1    0    0    0  501 -0.00000000000E+00  0.00000000000E+00  0.44095476369E+02  0.44095476369E+02  0.00000000000E+00 0.  1.
          2   -1    0    0  502    0  0.00000000000E+00 -0.00000000000E+00 -0.11044044151E+04  0.11044044151E+04  0.00000000000E+00 0. -1.
          6    1    1    2  502    0  0.76886901170E+02  0.95475800994E+02 -0.36377639345E+03  0.42064770126E+03  0.17200000000E+03 0. -1.
         -6    1    1    2    0  501 -0.76886901170E+02 -0.95475800994E+02 -0.69653254525E+03  0.72785219018E+03  0.17200000000E+03 0. -1.
</event>
<event>
 4    1  0.6352740E-002  0.2440859E+03  0.7818608E-02  0.1117100E+00
          2   -1    0    0  502    0  0.00000000000E+00  0.00000000000E+00  0.37064627558E+03  0.37064627558E+03  0.00000000000E+00 0. -1.
         -2   -1    0    0    0  501 -0.00000000000E+00 -0.00000000000E+00 -0.16438156992E+03  0.16438156992E+03  0.00000000000E+00 0.  1.
          6    1    1    2  502    0 -0.57059474572E+02  0.16351808557E+03  0.63319672344E+02  0.25216528083E+03  0.17200000000E+03 0. -1.
         -6    1    1    2    0  501  0.57059474572E+02 -0.16351808557E+03  0.14294503331E+03  0.28286256468E+03  0.17200000000E+03 0.  1.
</event>
<event>
 4    1  0.6352740E-002  0.1930404E+03  0.7818608E-02  0.1155747E+00
         -1   -1    0    0    0  501 -0.00000000000E+00  0.00000000000E+00  0.42738957110E+02  0.42738957110E+02  0.00000000000E+00 0.  1.
          1   -1    0    0  502    0  0.00000000000E+00 -0.00000000000E+00 -0.89112103436E+03  0.89112103436E+03  0.00000000000E+00 0. -1.
          6    1    1    2  502    0  0.83626478917E+02  0.26214816142E+02 -0.35563629384E+03  0.40465019221E+03  0.17200000000E+03 0. -1.
         -6    1    1    2    0  501 -0.83626478917E+02 -0.26214816142E+02 -0.49274578341E+03  0.52920979926E+03  0.17200000000E+03 0.  1.
</event>
<event>
 4    1  0.6352740E-002  0.4000034E+03  0.7818608E-02  0.1043779E+00
         -2   -1    0    0    0  501 -0.00000000000E+00  0.00000000000E+00  0.65627784470E+02  0.65627784470E+02  0.00000000000E+00 0.  1.
          2   -1    0    0  502    0  0.00000000000E+00 -0.00000000000E+00 -0.25999096465E+04  0.25999096465E+04  0.00000000000E+00 0. -1.
          6    1    1    2  502    0  0.35259248317E+03  0.78084929946E+02 -0.15996990325E+04  0.16489510939E+04  0.17200000000E+03 0. -1.
         -6    1    1    2    0  501 -0.35259248317E+03 -0.78084929946E+02 -0.93458282950E+03  0.10165863370E+04  0.17200000000E+03 0.  1.
</event>
<event>
 4    1  0.6352740E-002  0.2663734E+03  0.7818608E-02  0.1103373E+00
          1   -1    0    0  502    0  0.00000000000E+00  0.00000000000E+00  0.15987645528E+04  0.15987645528E+04  0.00000000000E+00 0. -1.
         -1   -1    0    0    0  501 -0.00000000000E+00 -0.00000000000E+00 -0.11904265330E+03  0.11904265330E+03  0.00000000000E+00 0.  1.
          6    1    1    2  502    0 -0.17031243501E+03 -0.11119572377E+03  0.14200691217E+04  0.14448360200E+04  0.17200000000E+03 0. -1.
         -6    1    1    2    0  501  0.17031243501E+03  0.11119572377E+03  0.59652777795E+02  0.27297118603E+03  0.17200000000E+03 0.  1.
</event>
<event>
 4    1  0.6352740E-002  0.1964146E+03  0.7818608E-02  0.1152800E+00
         -2   -1    0    0    0  501 -0.00000000000E+00  0.00000000000E+00  0.19517821421E+03  0.19517821421E+03  0.00000000000E+00 0.  1.
          2   -1    0    0  502    0  0.00000000000E+00 -0.00000000000E+00 -0.24731907912E+03  0.24731907912E+03  0.00000000000E+00 0. -1.
          6    1    1    2  502    0 -0.35829645328E+02 -0.87811830787E+02 -0.12521219277E+03  0.23293083593E+03  0.17200000000E+03 0.  1.
         -6    1    1    2    0  501  0.35829645328E+02  0.87811830787E+02  0.73071327854E+02  0.20956645739E+03  0.17200000000E+03 0.  1.
</event>
<event>
 4    1  0.6352740E-002  0.1749542E+03  0.7818608E-02  0.1172778E+00
         -2   -1    0    0    0  501 -0.00000000000E+00  0.00000000000E+00  0.21039384856E+02  0.21039384856E+02  0.00000000000E+00 0.  1.
          2   -1    0    0  502    0  0.00000000000E+00 -0.00000000000E+00 -0.17374204201E+04  0.17374204201E+04  0.00000000000E+00 0. -1.
          6    1    1    2  502    0 -0.17438708496E+02  0.26848938484E+02 -0.12127750035E+04  0.12253294182E+04  0.17200000000E+03 0. -1.
         -6    1    1    2    0  501  0.17438708496E+02 -0.26848938484E+02 -0.50360603181E+03  0.53313038680E+03  0.17200000000E+03 0.  1.
</event>
<event>
 4    1  0.6352740E-002  0.1809328E+03  0.7818608E-02  0.1166903E+00
         -1   -1    0    0    0  501 -0.00000000000E+00  0.00000000000E+00  0.22532819374E+03  0.22532819374E+03  0.00000000000E+00 0.  1.
          1   -1    0    0  502    0  0.00000000000E+00 -0.00000000000E+00 -0.19505272265E+03  0.19505272265E+03  0.00000000000E+00 0. -1.
          6    1    1    2  502    0  0.27696465548E+02  0.48842505144E+02 -0.91035056232E+02  0.20254398529E+03  0.17200000000E+03 0. -1.
         -6    1    1    2    0  501 -0.27696465548E+02 -0.48842505144E+02  0.12131052732E+03  0.21783693110E+03  0.17200000000E+03 0.  1.
</event>
<event>
 4    1  0.6352740E-002  0.2872382E+03  0.7818608E-02  0.1091800E+00
          2   -1    0    0  502    0  0.00000000000E+00  0.00000000000E+00  0.22852814622E+04  0.22852814622E+04  0.00000000000E+00 0. -1.
         -2   -1    0    0    0  501 -0.00000000000E+00 -0.00000000000E+00 -0.36103800259E+02  0.36103800259E+02  0.00000000000E+00 0.  1.
          6    1    1    2  502    0  0.61628511297E+02  0.22163875560E+03  0.11295936911E+04  0.11655418132E+04  0.17200000000E+03 0. -1.
         -6    1    1    2    0  501 -0.61628511297E+02 -0.22163875560E+03  0.11195839709E+04  0.11558434493E+04  0.17200000000E+03 0.  1.
</event>
<event>
 4    1  0.6352740E-002  0.3256345E+03  0.7818608E-02  0.1073085E+00
          2   -1    0    0  502    0  0.00000000000E+00  0.00000000000E+00  0.11395677345E+04  0.11395677345E+04  0.00000000000E+00 0. -1.
         -2   -1    0    0    0  501 -0.00000000000E+00 -0.00000000000E+00 -0.19102910367E+03  0.19102910367E+03  0.00000000000E+00 0.  1.
          6    1    1    2  502    0  0.27503978477E+03 -0.28406666159E+02  0.95073477496E+03  0.10049549414E+04  0.17200000000E+03 0. -1.
         -6    1    1    2    0  501 -0.27503978477E+03  0.28406666159E+02 -0.21961441451E+01  0.32564189678E+03  0.17200000000E+03 0.  1.
</event>
<event>
 4    1  0.6352740E-002  0.2663128E+03  0.7818608E-02  0.1103409E+00
         -2   -1    0    0    0  501 -0.00000000000E+00  0.00000000000E+00  0.14439907055E+03  0.14439907055E+03  0.00000000000E+00 0.  1.
          2   -1    0    0  502    0  0.00000000000E+00 -0.00000000000E+00 -0.70255842311E+03  0.70255842311E+03  0.00000000000E+00 0. -1.
          6    1    1    2  502    0  0.14590063350E+03 -0.14160336936E+03 -0.51137747721E+03  0.57656693737E+03  0.17200000000E+03 0. -1.
         -6    1    1    2    0  501 -0.14590063350E+03  0.14160336936E+03 -0.46781875353E+02  0.27039055629E+03  0.17200000000E+03 0.  1.
</event>
<event>
 4    1  0.6352740E-002  0.3867270E+03  0.7818608E-02  0.1048475E+00
         -2   -1    0    0    0  501 -0.00000000000E+00  0.00000000000E+00  0.11133048255E+03  0.11133048255E+03  0.00000000000E+00 0.  1.
          2   -1    0    0  502    0  0.00000000000E+00 -0.00000000000E+00 -0.14978792825E+04  0.14978792825E+04  0.00000000000E+00 0. -1.
          6    1    1    2  502    0  0.33075552642E+03  0.10283274218E+03 -0.43485532696E+03  0.58194239105E+03  0.17200000000E+03 0. -1.
         -6    1    1    2    0  501 -0.33075552642E+03 -0.10283274218E+03 -0.95169347295E+03  0.10272673739E+04  0.17200000000E+03 0.  1.
</event>
<event>
 4    1  0.6352740E-002  0.1934287E+03  0.7818608E-02  0.1155405E+00
          2   -1    0    0  502    0  0.00000000000E+00  0.00000000000E+00  0.85054143963E+03  0.85054143963E+03  0.00000000000E+00 0. -1.
         -2   -1    0    0    0  501 -0.00000000000E+00 -0.00000000000E+00 -0.52375761640E+02  0.52375761640E+02  0.00000000000E+00 0.  1.
          6    1    1    2  502    0 -0.87409105866E+02  0.13795017269E+02  0.57973543873E+03  0.61115287221E+03  0.17200000000E+03 0. -1.
         -6    1    1    2    0  501  0.87409105866E+02 -0.13795017269E+02  0.21843023926E+03  0.29176432906E+03  0.17200000000E+03 0.  1.
</event>
<event>
 4    1  0.6352740E-002  0.4018094E+03  0.7818608E-02  0.1043155E+00
          2   -1    0    0  502    0  0.00000000000E+00  0.00000000000E+00  0.33216168215E+03  0.33216168215E+03  0.00000000000E+00 0. -1.
         -2   -1    0    0    0  501 -0.00000000000E+00 -0.00000000000E+00 -0.61118748707E+03  0.61118748707E+03  0.00000000000E+00 0.  1.
          6    1    1    2  502    0  0.57536275415E+02  0.35854758388E+03  0.73904641351E+02  0.40854949382E+03  0.17200000000E+03 0. -1.
         -6    1    1    2    0  501 -0.57536275415E+02 -0.35854758388E+03 -0.35293044627E+03  0.53479967539E+03  0.17200000000E+03 0.  1.
</event>
<event>
 4    1  0.6352740E-002  0.2610302E+03  0.7818608E-02  0.1106526E+00
         -1   -1    0    0    0  501 -0.00000000000E+00  0.00000000000E+00  0.46214993741E+02  0.46214993741E+02  0.00000000000E+00 0.  1.
          1   -1    0    0  502    0  0.00000000000E+00 -0.00000000000E+00 -0.15095103552E+04  0.15095103552E+04  0.00000000000E+00 0. -1.
          6    1    1    2  502    0  0.18731471955E+03  0.58872531830E+02 -0.85037514112E+03  0.88953620488E+03  0.17200000000E+03 0. -1.
         -6    1    1    2    0  501 -0.18731471955E+03 -0.58872531830E+02 -0.61292022039E+03  0.66618914411E+03  0.17200000000E+03 0.  1.
</event>
<event>
 4    1  0.6352740E-002  0.4196903E+03  0.7818608E-02  0.1037167E+00
         -1   -1    0    0    0  501 -0.00000000000E+00  0.00000000000E+00  0.37061872575E+03  0.37061872575E+03  0.00000000000E+00 0.  1.
          1   -1    0    0  502    0  0.00000000000E+00 -0.00000000000E+00 -0.16713038618E+04  0.16713038618E+04  0.00000000000E+00 0. -1.
          6    1    1    2  502    0 -0.37666365410E+03  0.68413913394E+02 -0.15140273383E+04  0.15711202223E+04  0.17200000000E+03 0. -1.
         -6    1    1    2    0  501  0.37666365410E+03 -0.68413913394E+02  0.21334220223E+03  0.47080236524E+03  0.17200000000E+03 0.  1.
</event>
<event>
 4    1  0.6352740E-002  0.2073905E+03  0.7818608E-02  0.1143649E+00
         -1   -1    0    0    0  501 -0.00000000000E+00  0.00000000000E+00  0.47401639289E+03  0.47401639289E+03  0.00000000000E+00 0.  1.
          1   -1    0    0  502    0  0.00000000000E+00 -0.00000000000E+00 -0.91102346884E+02  0.91102346884E+02  0.00000000000E+00 0. -1.
          6    1    1    2  502    0 -0.11190765409E+03 -0.30058519217E+02  0.17356405596E+03  0.27043542509E+03  0.17200000000E+03 0.  1.
         -6    1    1    2    0  501  0.11190765409E+03  0.30058519217E+02  0.20934999004E+03  0.29468331468E+03  0.17200000000E+03 0.  1.
</event>
<event>
 4    1  0.6352740E-002  0.3044870E+03  0.7818608E-02  0.1083019E+00
         -1   -1    0    0    0  501 -0.00000000000E+00  0.00000000000E+00  0.37797136820E+03  0.37797136820E+03  0.00000000000E+00 0.  1.
          1   -1    0    0  502    0  0.00000000000E+00 -0.00000000000E+00 -0.24821942076E+03  0.24821942076E+03  0.00000000000E+00 0. -1.
          6    1    1    2  502    0 -0.17417913813E+03  0.18107994672E+03  0.30858338413E+02  0.30604665709E+03  0.17200000000E+03 0. -1.
         -6    1    1    2    0  501  0.17417913813E+03 -0.18107994672E+03  0.98893609035E+02  0.32014413187E+03  0.17200000000E+03 0.  1.
</event>
<event>
 4    1  0.6352740E-002  0.3314407E+03  0.7818608E-02  0.1070501E+00
         -1   -1    0    0    0  501 -0.00000000000E+00  0.00000000000E+00  0.10165370307E+04  0.10165370307E+04  0.00000000000E+00 0.  1.
          1   -1    0    0  502    0  0.00000000000E+00 -0.00000000000E+00 -0.11018463211E+03  0.11018463211E+03  0.00000000000E+00 0. -1.
          6    1    1    2  502    0 -0.12896507719E+03  0.25226361018E+03  0.37505460261E+03  0.50051860614E+03  0.17200000000E+03 0. -1.
         -6    1    1    2    0  501  0.12896507719E+03 -0.25226361018E+03  0.53129779597E+03  0.62620305665E+03  0.17200000000E+03 0.  1.
</event>
<event>
 4    1  0.6352740E-002  0.7749747E+03  0.7818608E-02  0.9596964E-01
          1   -1    0    0  502    0  0.00000000000E+00  0.00000000000E+00  0.52442938187E+03  0.52442938187E+03  0.00000000000E+00 0. -1.
         -1   -1    0    0    0  501 -0.00000000000E+00 -0.00000000000E+00 -0.11861704292E+04  0.11861704292E+04  0.00000000000E+00 0.  1.
          6    1    1    2  502    0 -0.20732377058E+03  0.72664895390E+03 -0.17194782813E+03  0.79382107786E+03  0.17200000000E+03 0. -1.
         -6    1    1    2    0  501  0.20732377058E+03 -0.72664895390E+03 -0.48979321918E+03  0.91677873318E+03  0.17200000000E+03 0.  1.
</event>
<event>
 4    1  0.6352740E-002  0.1733250E+03  0.7818608E-02  0.1174424E+00
          2   -1    0    0  502    0  0.00000000000E+00  0.00000000000E+00  0.19045885511E+04  0.19045885511E+04  0.00000000000E+00 0. -1.
         -2   -1    0    0    0  501 -0.00000000000E+00 -0.00000000000E+00 -0.25339462546E+02  0.25339462546E+02  0.00000000000E+00 0.  1.
          6    1    1    2  502    0 -0.66259432881E+00 -0.21380287602E+02  0.15325258077E+04  0.15422959855E+04  0.17200000000E+03 0. -1.
         -6    1    1    2    0  501  0.66259432881E+00  0.21380287602E+02  0.34672328082E+03  0.38763202807E+03  0.17200000000E+03 0.  1.
</event>
<event>
 4    1  0.6352740E-002  0.1952063E+03  0.7818608E-02  0.1153848E+00
         -4   -1    0    0    0  501 -0.00000000000E+00  0.00000000000E+00  0.30920276207E+02  0.30920276207E+02  0.00000000000E+00 0.  1.
          4   -1    0    0  502    0  0.00000000000E+00 -0.00000000000E+00 -0.14112162535E+04  0.14112162535E+04  0.00000000000E+00 0. -1.
          6    1    1    2  502    0 -0.71212444953E+02  0.58739279967E+02 -0.94683740038E+03  0.96675052526E+03  0.17200000000E+03 0. -1.
         -6    1    1    2    0  501  0.71212444953E+02 -0.58739279967E+02 -0.43345857692E+03  0.47538600446E+03  0.17200000000E+03 0. -1.
</event>
<event>
 4    1  0.6352740E-002  0.1765169E+03  0.7818608E-02  0.1171217E+00
         -2   -1    0    0    0  501 -0.00000000000E+00  0.00000000000E+00  0.72281510340E+02  0.72281510340E+02  0.00000000000E+00 0.  1.
          2   -1    0    0  502    0  0.00000000000E+00 -0.00000000000E+00 -0.44752526902E+03  0.44752526902E+03  0.00000000000E+00 0. -1.
          6    1    1    2  502    0 -0.38988041217E+02  0.73593140598E+01 -0.23746274290E+03  0.29588305312E+03  0.17200000000E+03 0. -1.
         -6    1    1    2    0  501  0.38988041217E+02 -0.73593140598E+01 -0.13778101578E+03  0.22392372623E+03  0.17200000000E+03 0.  1.
</event>
<event>
 4    1  0.6352740E-002  0.1826006E+03  0.7818608E-02  0.1165310E+00
         -2   -1    0    0    0  501 -0.00000000000E+00  0.00000000000E+00  0.36864333125E+02  0.36864333125E+02  0.00000000000E+00 0.  1.
          2   -1    0    0  502    0  0.00000000000E+00 -0.00000000000E+00 -0.92053424154E+03  0.92053424154E+03  0.00000000000E+00 0. -1.
          6    1    1    2  502    0 -0.55421945311E+02 -0.26218156430E+02 -0.37861375154E+03  0.42034671000E+03  0.17200000000E+03 0. -1.
         -6    1    1    2    0  501  0.55421945311E+02  0.26218156430E+02 -0.50505615687E+03  0.53705186467E+03  0.17200000000E+03 0. -1.
</event>
<event>
 4    1  0.6352740E-002  0.1765752E+03  0.7818608E-02  0.1171159E+00
         -2   -1    0    0    0  501 -0.00000000000E+00  0.00000000000E+00  0.30894286036E+02  0.30894286036E+02  0.00000000000E+00 0.  1.
          2   -1    0    0  502    0  0.00000000000E+00 -0.00000000000E+00 -0.24935731132E+04  0.24935731132E+04  0.00000000000E+00 0. -1.
          6    1    1    2  502    0 -0.22193922963E+01 -0.39873327453E+02 -0.22052046491E+04  0.22122627223E+04  0.17200000000E+03 0. -1.
         -6    1    1    2    0  501  0.22193922963E+01  0.39873327453E+02 -0.25747417803E+03  0.31220467693E+03  0.17200000000E+03 0.  1.
</event>
<event>
 4    1  0.6352740E-002  0.1837689E+03  0.7818608E-02  0.1164205E+00
         -1   -1    0    0    0  501 -0.00000000000E+00  0.00000000000E+00  0.44907812795E+02  0.44907812795E+02  0.00000000000E+00 0.  1.
          1   -1    0    0  502    0  0.00000000000E+00 -0.00000000000E+00 -0.13855370867E+04  0.13855370867E+04  0.00000000000E+00 0. -1.
          6    1    1    2  502    0 -0.11059630772E+02  0.63754847414E+02 -0.11539473105E+04  0.11684885072E+04  0.17200000000E+03 0. -1.
         -6    1    1    2    0  501  0.11059630772E+02 -0.63754847414E+02 -0.18668196332E+03  0.26195639223E+03  0.17200000000E+03 0.  1.
</event>
<event>
 4    1  0.6352740E-002  0.2478662E+03  0.7818608E-02  0.1114661E+00
         -2   -1    0    0    0  501 -0.00000000000E+00  0.00000000000E+00  0.68342125726E+02  0.68342125726E+02  0.00000000000E+00 0.  1.
          2   -1    0    0  502    0  0.00000000000E+00 -0.00000000000E+00 -0.13235236584E+04  0.13235236584E+04  0.00000000000E+00 0. -1.
          6    1    1    2  502    0 -0.87588032570E+02  0.15550566471E+03 -0.10217454093E+04  0.10513806906E+04  0.17200000000E+03 0. -1.
         -6    1    1    2    0  501  0.87588032570E+02 -0.15550566471E+03 -0.23343612342E+03  0.34048509354E+03  0.17200000000E+03 0.  1.
</event>
<event>
 4    1  0.6352740E-002  0.2593228E+03  0.7818608E-02  0.1107551E+00
         -2   -1    0    0    0  501 -0.00000000000E+00  0.00000000000E+00  0.28806563143E+03  0.28806563143E+03  0.00000000000E+00 0.  1.
          2   -1    0    0  502    0  0.00000000000E+00 -0.00000000000E+00 -0.26090835020E+03  0.26090835020E+03  0.00000000000E+00 0. -1.
          6    1    1    2  502    0  0.17913182589E+03 -0.74673177418E+02 -0.75471008794E+02  0.27008177954E+03  0.17200000000E+03 0. -1.
         -6    1    1    2    0  501 -0.17913182589E+03  0.74673177418E+02  0.10262829003E+03  0.27889220209E+03  0.17200000000E+03 0. -1.
</event>
<event>
 4    1  0.6352740E-002  0.3193411E+03  0.7818608E-02  0.1075953E+00
          1   -1    0    0  502    0  0.00000000000E+00  0.00000000000E+00  0.30011433210E+03  0.30011433210E+03  0.00000000000E+00 0. -1.
         -1   -1    0    0    0  501 -0.00000000000E+00 -0.00000000000E+00 -0.42102548407E+03  0.42102548407E+03  0.00000000000E+00 0.  1.
          6    1    1    2  502    0 -0.26553533975E+02 -0.26774921320E+03 -0.21882907025E+03  0.38712387335E+03  0.17200000000E+03 0.  1.
         -6    1    1    2    0  501  0.26553533975E+02  0.26774921320E+03  0.97917918273E+02  0.33401594281E+03  0.17200000000E+03 0.  1.
</event>
<event>
 4    1  0.6352740E-002  0.1764203E+03  0.7818608E-02  0.1171313E+00
         -2   -1    0    0    0  501 -0.00000000000E+00  0.00000000000E+00  0.14592065920E+03  0.14592065920E+03  0.00000000000E+00 0.  1.
          2   -1    0    0  502    0  0.00000000000E+00 -0.00000000000E+00 -0.23829732304E+03  0.23829732304E+03  0.00000000000E+00 0. -1.
          6    1    1    2  502    0 -0.31342508299E+02  0.23617355533E+02 -0.10841537509E+03  0.20707009892E+03  0.17200000000E+03 0. -1.
         -6    1    1    2    0  501  0.31342508299E+02 -0.23617355533E+02  0.16038711252E+02  0.17714788333E+03  0.17200000000E+03 0.  1.
</event>
<event>
 4    1  0.6352740E-002  0.2878797E+03  0.7818608E-02  0.1091461E+00
         -1   -1    0    0    0  501 -0.00000000000E+00  0.00000000000E+00  0.21136278896E+03  0.21136278896E+03  0.00000000000E+00 0.  1.
          1   -1    0    0  502    0  0.00000000000E+00 -0.00000000000E+00 -0.14627172121E+04  0.14627172121E+04  0.00000000000E+00 0. -1.
          6    1    1    2  502    0  0.18223208935E+03 -0.14171164645E+03 -0.13417938040E+04  0.13723284364E+04  0.17200000000E+03 0. -1.
         -6    1    1    2    0  501 -0.18223208935E+03  0.14171164645E+03  0.90439380833E+02  0.30175156459E+03  0.17200000000E+03 0.  1.
</event>
<event>
 4    1  0.6352740E-002  0.2544856E+03  0.7818608E-02  0.1110502E+00
         -3   -1    0    0    0  501 -0.00000000000E+00  0.00000000000E+00  0.33693864532E+03  0.33693864532E+03  0.00000000000E+00 0.  1.
          3   -1    0    0  502    0  0.00000000000E+00 -0.00000000000E+00 -0.53280685599E+03  0.53280685599E+03  0.00000000000E+00 0. -1.
          6    1    1    2  502    0 -0.17758742593E+03  0.60346084430E+02 -0.44562848730E+03  0.51317413463E+03  0.17200000000E+03 0. -1.
         -6    1    1    2    0  501  0.17758742593E+03 -0.60346084430E+02  0.24976027663E+03  0.35657136668E+03  0.17200000000E+03 0.  1.
</event>
<event>
 4    1  0.6352740E-002  0.1829785E+03  0.7818608E-02  0.1164951E+00
          1   -1    0    0  502    0  0.00000000000E+00  0.00000000000E+00  0.13914808333E+04  0.13914808333E+04  0.00000000000E+00 0. -1.
         -1   -1    0    0    0  501 -0.00000000000E+00 -0.00000000000E+00 -0.30582926103E+02  0.30582926103E+02  0.00000000000E+00 0.  1.
          6    1    1    2  502    0 -0.62340048445E+02  0.32938848570E+01  0.10087864477E+04  0.10252469110E+04  0.17200000000E+03 0. -1.
         -6    1    1    2    0  501  0.62340048445E+02 -0.32938848570E+01  0.35211145948E+03  0.39681684845E+03  0.17200000000E+03 0.  1.
</event>
<event>
 4    1  0.6352740E-002  0.2065715E+03  0.7818608E-02  0.1144310E+00
          2   -1    0    0  502    0  0.00000000000E+00  0.00000000000E+00  0.17029102600E+04  0.17029102600E+04  0.00000000000E+00 0. -1.
         -2   -1    0    0    0  501 -0.00000000000E+00 -0.00000000000E+00 -0.25058339909E+02  0.25058339909E+02  0.00000000000E+00 0.  1.
          6    1    1    2  502    0 -0.85940752476E+02 -0.75511329147E+02  0.83652198346E+03  0.86165004647E+03  0.17200000000E+03 0. -1.
         -6    1    1    2    0  501  0.85940752476E+02  0.75511329147E+02  0.84132993665E+03  0.86631855346E+03  0.17200000000E+03 0.  1.
</event>
<event>
 4    1  0.6352740E-002  0.3272828E+03  0.7818608E-02  0.1072346E+00
         -2   -1    0    0    0  501 -0.00000000000E+00  0.00000000000E+00  0.21139894942E+03  0.21139894942E+03  0.00000000000E+00 0.  1.
          2   -1    0    0  502    0  0.00000000000E+00 -0.00000000000E+00 -0.10295084335E+04  0.10295084335E+04  0.00000000000E+00 0. -1.
          6    1    1    2  502    0  0.13478642234E+03  0.24364449094E+03  0.33094929170E+02  0.32895180794E+03  0.17200000000E+03 0.  1.
         -6    1    1    2    0  501 -0.13478642234E+03 -0.24364449094E+03 -0.85120441329E+03  0.91195557503E+03  0.17200000000E+03 0. -1.
</event>
<event>
 4    1  0.6352740E-002  0.2135820E+03  0.7818608E-02  0.1138760E+00
         -2   -1    0    0    0  501 -0.00000000000E+00  0.00000000000E+00  0.32712938974E+02  0.32712938974E+02  0.00000000000E+00 0.  1.
          2   -1    0    0  502    0  0.00000000000E+00 -0.00000000000E+00 -0.14132841823E+04  0.14132841823E+04  0.00000000000E+00 0. -1.
          6    1    1    2  502    0 -0.58027517202E+02  0.11254366285E+03 -0.77370084555E+03  0.80263956245E+03  0.17200000000E+03 0. -1.
         -6    1    1    2    0  501  0.58027517202E+02 -0.11254366285E+03 -0.60687039775E+03  0.64335755880E+03  0.17200000000E+03 0.  1.
</event>
<event>
 4    1  0.6352740E-002  0.1802058E+03  0.7818608E-02  0.1167604E+00
         -2   -1    0    0    0  501 -0.00000000000E+00  0.00000000000E+00  0.54708562194E+02  0.54708562194E+02  0.00000000000E+00 0.  1.
          2   -1    0    0  502    0  0.00000000000E+00 -0.00000000000E+00 -0.69927060259E+03  0.69927060259E+03  0.00000000000E+00 0. -1.
          6    1    1    2  502    0 -0.46074104176E+02  0.27700033888E+02 -0.46884158895E+03  0.50228134595E+03  0.17200000000E+03 0. -1.
         -6    1    1    2    0  501  0.46074104176E+02 -0.27700033888E+02 -0.17572045144E+03  0.25169781884E+03  0.17200000000E+03 0.  1.
</event>
<event>
 4    1  0.6352740E-002  0.2179247E+03  0.7818608E-02  0.1135440E+00
         -2   -1    0    0    0  501 -0.00000000000E+00  0.00000000000E+00  0.80443479545E+02  0.80443479545E+02  0.00000000000E+00 0.  1.
          2   -1    0    0  502    0  0.00000000000E+00 -0.00000000000E+00 -0.86736161805E+03  0.86736161805E+03  0.00000000000E+00 0. -1.
          6    1    1    2  502    0  0.22748943562E+02 -0.13186977926E+03 -0.66126786083E+03  0.69625163331E+03  0.17200000000E+03 0. -1.
         -6    1    1    2    0  501 -0.22748943562E+02  0.13186977926E+03 -0.12565027768E+03  0.25155346429E+03  0.17200000000E+03 0.  1.
</event>
<event>
 4    1  0.6352740E-002  0.3529130E+03  0.7818608E-02  0.1061426E+00
         -2   -1    0    0    0  501 -0.00000000000E+00  0.00000000000E+00  0.18488082437E+03  0.18488082437E+03  0.00000000000E+00 0.  1.
          2   -1    0    0  502    0  0.00000000000E+00 -0.00000000000E+00 -0.77829504587E+03  0.77829504587E+03  0.00000000000E+00 0. -1.
          6    1    1    2  502    0  0.24831129492E+03 -0.18249687062E+03 -0.12013050162E+03  0.37279879881E+03  0.17200000000E+03 0. -1.
         -6    1    1    2    0  501 -0.24831129492E+03  0.18249687062E+03 -0.47328371987E+03  0.59037707143E+03  0.17200000000E+03 0.  1.
</event>
<event>
 4    1  0.6352740E-002  0.1744880E+03  0.7818608E-02  0.1173247E+00
          1   -1    0    0  502    0  0.00000000000E+00  0.00000000000E+00  0.25909616720E+04  0.25909616720E+04  0.00000000000E+00 0. -1.
         -1   -1    0    0    0  501 -0.00000000000E+00 -0.00000000000E+00 -0.21926239467E+02  0.21926239467E+02  0.00000000000E+00 0.  1.
          6    1    1    2  502    0  0.28067246170E+02  0.86196937634E+01  0.39453069713E+03  0.43139371855E+03  0.17200000000E+03 0.  1.
         -6    1    1    2    0  501 -0.28067246170E+02 -0.86196937634E+01  0.21745047355E+04  0.21814941930E+04  0.17200000000E+03 0. -1.
</event>
<event>
 4    1  0.6352740E-002  0.2830814E+03  0.7818608E-02  0.1094018E+00
          1   -1    0    0  502    0  0.00000000000E+00  0.00000000000E+00  0.21508498187E+04  0.21508498187E+04  0.00000000000E+00 0. -1.
         -1   -1    0    0    0  501 -0.00000000000E+00 -0.00000000000E+00 -0.37473656141E+02  0.37473656141E+02  0.00000000000E+00 0.  1.
          6    1    1    2  502    0  0.78932750206E+02  0.21052481392E+03  0.11398071577E+04  0.11744340906E+04  0.17200000000E+03 0. -1.
         -6    1    1    2    0  501 -0.78932750206E+02 -0.21052481392E+03  0.97356900486E+03  0.10138893843E+04  0.17200000000E+03 0.  1.
</event>
<event>
 4    1  0.6352740E-002  0.2519120E+03  0.7818608E-02  0.1112102E+00
         -1   -1    0    0    0  501 -0.00000000000E+00  0.00000000000E+00  0.62123213808E+02  0.62123213808E+02  0.00000000000E+00 0.  1.
          1   -1    0    0  502    0  0.00000000000E+00 -0.00000000000E+00 -0.10221040191E+04  0.10221040191E+04  0.00000000000E+00 0. -1.
          6    1    1    2  502    0 -0.17995960714E+03 -0.38602913233E+02 -0.49303088520E+03  0.55365973203E+03  0.17200000000E+03 0. -1.
         -6    1    1    2    0  501  0.17995960714E+03  0.38602913233E+02 -0.46694992007E+03  0.53056750085E+03  0.17200000000E+03 0.  1.
</event>
<event>
 4    1  0.6352740E-002  0.4124147E+03  0.7818608E-02  0.1039564E+00
          2   -1    0    0  502    0  0.00000000000E+00  0.00000000000E+00  0.19410483478E+03  0.19410483478E+03  0.00000000000E+00 0. -1.
         -2   -1    0    0    0  501 -0.00000000000E+00 -0.00000000000E+00 -0.10903182461E+04  0.10903182461E+04  0.00000000000E+00 0.  1.
          6    1    1    2  502    0  0.88598716430E+02  0.36421438024E+03 -0.16354934379E+03  0.44366004460E+03  0.17200000000E+03 0. -1.
         -6    1    1    2    0  501 -0.88598716430E+02 -0.36421438024E+03 -0.73266406753E+03  0.84076303628E+03  0.17200000000E+03 0.  1.
</event>
<event>
 4    1  0.6352740E-002  0.2661992E+03  0.7818608E-02  0.1103475E+00
         -1   -1    0    0    0  501 -0.00000000000E+00  0.00000000000E+00  0.62215067815E+02  0.62215067815E+02  0.00000000000E+00 0.  1.
          1   -1    0    0  502    0  0.00000000000E+00 -0.00000000000E+00 -0.31161210936E+04  0.31161210936E+04  0.00000000000E+00 0. -1.
          6    1    1    2  502    0  0.17132112835E+03  0.10921110991E+03 -0.27927994153E+04  0.28054572835E+04  0.17200000000E+03 0. -1.
         -6    1    1    2    0  501 -0.17132112835E+03 -0.10921110991E+03 -0.26110661050E+03  0.37287887792E+03  0.17200000000E+03 0.  1.
</event>
<event>
 4    1  0.6352740E-002  0.2315700E+03  0.7818608E-02  0.1125540E+00
          2   -1    0    0  502    0  0.00000000000E+00  0.00000000000E+00  0.37079040998E+03  0.37079040998E+03  0.00000000000E+00 0. -1.
         -2   -1    0    0    0  501 -0.00000000000E+00 -0.00000000000E+00 -0.16318775154E+03  0.16318775154E+03  0.00000000000E+00 0.  1.
          6    1    1    2  502    0 -0.10077416273E+03  0.11783563903E+03  0.13748143974E+02  0.23197776006E+03  0.17200000000E+03 0.  1.
         -6    1    1    2    0  501  0.10077416273E+03 -0.11783563903E+03  0.19385451447E+03  0.30200040146E+03  0.17200000000E+03 0. -1.
</event>
<event>
 4    1  0.6352740E-002  0.1799943E+03  0.7818608E-02  0.1167809E+00
          1   -1    0    0  502    0  0.00000000000E+00  0.00000000000E+00  0.76170126875E+03  0.76170126875E+03  0.00000000000E+00 0. -1.
         -1   -1    0    0    0  501 -0.00000000000E+00 -0.00000000000E+00 -0.78262730384E+02  0.78262730384E+02  0.00000000000E+00 0.  1.
          6    1    1    2  502    0 -0.25377721009E+02 -0.46582200166E+02  0.62548773938E+03  0.65087083374E+03  0.17200000000E+03 0. -1.
         -6    1    1    2    0  501  0.25377721009E+02  0.46582200166E+02  0.57950798983E+02  0.18909316539E+03  0.17200000000E+03 0.  1.
</event>
<event>
 4    1  0.6352740E-002  0.3114664E+03  0.7818608E-02  0.1079645E+00
         -1   -1    0    0    0  501 -0.00000000000E+00  0.00000000000E+00  0.75803753372E+02  0.75803753372E+02  0.00000000000E+00 0.  1.
          1   -1    0    0  502    0  0.00000000000E+00 -0.00000000000E+00 -0.12978501456E+04  0.12978501456E+04  0.00000000000E+00 0. -1.
          6    1    1    2  502    0  0.14854652821E+03  0.21298185215E+03 -0.52995684617E+03  0.61470773477E+03  0.17200000000E+03 0. -1.
         -6    1    1    2    0  501 -0.14854652821E+03 -0.21298185215E+03 -0.69208954608E+03  0.75894616422E+03  0.17200000000E+03 0.  1.
</event>
<event>
 4    1  0.6352740E-002  0.2681140E+03  0.7818608E-02  0.1102364E+00
         -2   -1    0    0    0  501 -0.00000000000E+00  0.00000000000E+00  0.23226549915E+03  0.23226549915E+03  0.00000000000E+00 0.  1.
          2   -1    0    0  502    0  0.00000000000E+00 -0.00000000000E+00 -0.38724155873E+03  0.38724155873E+03  0.00000000000E+00 0. -1.
          6    1    1    2  502    0  0.17387177871E+03  0.10986219232E+03 -0.21628015813E+03  0.34447380674E+03  0.17200000000E+03 0. -1.
         -6    1    1    2    0  501 -0.17387177871E+03 -0.10986219232E+03  0.61304098546E+02  0.27503325114E+03  0.17200000000E+03 0.  1.
</event>
<event>
 4    1  0.6352740E-002  0.1902693E+03  0.7818608E-02  0.1158219E+00
         -2   -1    0    0    0  501 -0.00000000000E+00  0.00000000000E+00  0.65332520940E+02  0.65332520940E+02  0.00000000000E+00 0.  1.
          2   -1    0    0  502    0  0.00000000000E+00 -0.00000000000E+00 -0.63077033861E+03  0.63077033861E+03  0.00000000000E+00 0. -1.
          6    1    1    2  502    0 -0.81312311972E+02 -0.25883835734E+01 -0.40404390594E+03  0.44660258590E+03  0.17200000000E+03 0. -1.
         -6    1    1    2    0  501  0.81312311972E+02  0.25883835734E+01 -0.16139391174E+03  0.24950027366E+03  0.17200000000E+03 0.  1.
</event>
<event>
 4    1  0.6352740E-002  0.4077202E+03  0.7818608E-02  0.1041139E+00
         -1   -1    0    0    0  501 -0.00000000000E+00  0.00000000000E+00  0.13697088064E+04  0.13697088064E+04  0.00000000000E+00 0.  1.
          1   -1    0    0  502    0  0.00000000000E+00 -0.00000000000E+00 -0.17252575721E+03  0.17252575721E+03  0.00000000000E+00 0. -1.
          6    1    1    2  502    0 -0.20252553279E+03 -0.30924930808E+03  0.17867903072E+03  0.44515381836E+03  0.17200000000E+03 0. -1.
         -6    1    1    2    0  501  0.20252553279E+03  0.30924930808E+03  0.10185040185E+04  0.10970807453E+04  0.17200000000E+03 0.  1.
</event>
<event>
 4    1  0.6352740E-002  0.1983731E+03  0.7818608E-02  0.1151119E+00
          2   -1    0    0  502    0  0.00000000000E+00  0.00000000000E+00  0.25725689953E+03  0.25725689953E+03  0.00000000000E+00 0. -1.
         -2   -1    0    0    0  501 -0.00000000000E+00 -0.00000000000E+00 -0.16686331445E+03  0.16686331445E+03  0.00000000000E+00 0.  1.
          6    1    1    2  502    0  0.60900295764E+02  0.77839787802E+02  0.10639300828E+03  0.22510297821E+03  0.17200000000E+03 0. -1.
         -6    1    1    2    0  501 -0.60900295764E+02 -0.77839787802E+02 -0.15999423199E+02  0.19901723577E+03  0.17200000000E+03 0.  1.
</event>
<event>
 4    1  0.6352740E-002  0.3494857E+03  0.7818608E-02  0.1062826E+00
          2   -1    0    0  502    0  0.00000000000E+00  0.00000000000E+00  0.14691297069E+04  0.14691297069E+04  0.00000000000E+00 0. -1.
         -2   -1    0    0    0  501 -0.00000000000E+00 -0.00000000000E+00 -0.87643043889E+02  0.87643043889E+02  0.00000000000E+00 0.  1.
          6    1    1    2  502    0  0.27614421901E+03 -0.12767398170E+03  0.51426411480E+03  0.62177797891E+03  0.17200000000E+03 0.  1.
         -6    1    1    2    0  501 -0.27614421901E+03  0.12767398170E+03  0.86722254817E+03  0.93499477183E+03  0.17200000000E+03 0. -1.
</event>
<event>
 4    1  0.6352740E-002  0.1743920E+03  0.7818608E-02  0.1173344E+00
         -2   -1    0    0    0  501 -0.00000000000E+00  0.00000000000E+00  0.20183826700E+02  0.20183826700E+02  0.00000000000E+00 0.  1.
          2   -1    0    0  502    0  0.00000000000E+00 -0.00000000000E+00 -0.15099342666E+04  0.15099342666E+04  0.00000000000E+00 0. -1.
          6    1    1    2  502    0 -0.28088181860E+02  0.62945831613E+01 -0.70990255244E+03  0.73100902983E+03  0.17200000000E+03 0. -1.
         -6    1    1    2    0  501  0.28088181860E+02 -0.62945831613E+01 -0.77984788747E+03  0.79910906348E+03  0.17200000000E+03 0.  1.
</event>
<event>
 4    1  0.6352740E-002  0.2088411E+03  0.7818608E-02  0.1142487E+00
          1   -1    0    0  502    0  0.00000000000E+00  0.00000000000E+00  0.20198712918E+03  0.20198712918E+03  0.00000000000E+00 0. -1.
         -1   -1    0    0    0  501 -0.00000000000E+00 -0.00000000000E+00 -0.21969836056E+03  0.21969836056E+03  0.00000000000E+00 0.  1.
          6    1    1    2  502    0  0.61727858964E+02 -0.10109539170E+03 -0.36477713808E+02  0.21200290186E+03  0.17200000000E+03 0.  1.
         -6    1    1    2    0  501 -0.61727858964E+02  0.10109539170E+03  0.18766482434E+02  0.20968258787E+03  0.17200000000E+03 0. -1.
</event>
<event>
 4    1  0.6352740E-002  0.1914356E+03  0.7818608E-02  0.1157173E+00
         -1   -1    0    0    0  501 -0.00000000000E+00  0.00000000000E+00  0.13547895689E+02  0.13547895689E+02  0.00000000000E+00 0.  1.
          1   -1    0    0  502    0  0.00000000000E+00 -0.00000000000E+00 -0.27098957544E+04  0.27098957544E+04  0.00000000000E+00 0. -1.
          6    1    1    2  502    0 -0.83096909002E+02 -0.12588889357E+02 -0.14058263401E+04  0.14188006467E+04  0.17200000000E+03 0. -1.
         -6    1    1    2    0  501  0.83096909002E+02  0.12588889357E+02 -0.12905215186E+04  0.13046430034E+04  0.17200000000E+03 0. -1.
</event>
<event>
 4    1  0.6352740E-002  0.2518093E+03  0.7818608E-02  0.1112167E+00
         -2   -1    0    0    0  501 -0.00000000000E+00  0.00000000000E+00  0.21359767028E+03  0.21359767028E+03  0.00000000000E+00 0.  1.
          2   -1    0    0  502    0  0.00000000000E+00 -0.00000000000E+00 -0.85491509300E+03  0.85491509300E+03  0.00000000000E+00 0. -1.
          6    1    1    2  502    0 -0.33642080811E+02 -0.18080971421E+03 -0.75230495947E+03  0.79332886901E+03  0.17200000000E+03 0. -1.
         -6    1    1    2    0  501  0.33642080811E+02  0.18080971421E+03  0.11098753676E+03  0.27518389428E+03  0.17200000000E+03 0.  1.
</event>
<event>
 4    1  0.6352740E-002  0.1739731E+03  0.7818608E-02  0.1173767E+00
          2   -1    0    0  502    0  0.00000000000E+00  0.00000000000E+00  0.76245020008E+03  0.76245020008E+03  0.00000000000E+00 0. -1.
         -2   -1    0    0    0  501 -0.00000000000E+00 -0.00000000000E+00 -0.52116872741E+02  0.52116872741E+02  0.00000000000E+00 0.  1.
          6    1    1    2  502    0  0.76205065929E+01 -0.24991073650E+02  0.55399327114E+03  0.58066786578E+03  0.17200000000E+03 0. -1.
         -6    1    1    2    0  501 -0.76205065929E+01  0.24991073650E+02  0.15634005621E+03  0.23389920705E+03  0.17200000000E+03 0.  1.
</event>
<event>
 4    1  0.6352740E-002  0.2118187E+03  0.7818608E-02  0.1140134E+00
         -2   -1    0    0    0  501 -0.00000000000E+00  0.00000000000E+00  0.26319751128E+02  0.26319751128E+02  0.00000000000E+00 0.  1.
          2   -1    0    0  502    0  0.00000000000E+00 -0.00000000000E+00 -0.20265680169E+04  0.20265680169E+04  0.00000000000E+00 0. -1.
          6    1    1    2  502    0 -0.10717163783E+03  0.61622898979E+02 -0.14091936061E+04  0.14250241265E+04  0.17200000000E+03 0.  1.
         -6    1    1    2    0  501  0.10717163783E+03 -0.61622898979E+02 -0.59105465968E+03  0.62786364154E+03  0.17200000000E+03 0.  1.
</event>
<event>
 4    1  0.6352740E-002  0.2353707E+03  0.7818608E-02  0.1122916E+00
          2   -1    0    0  502    0  0.00000000000E+00  0.00000000000E+00  0.37515373885E+03  0.37515373885E+03  0.00000000000E+00 0. -1.
         -2   -1    0    0    0  501 -0.00000000000E+00 -0.00000000000E+00 -0.15189873362E+03  0.15189873362E+03  0.00000000000E+00 0.  1.
          6    1    1    2  502    0  0.14196545845E+03  0.75240695095E+02  0.67663517161E+02  0.24490346087E+03  0.17200000000E+03 0. -1.
         -6    1    1    2    0  501 -0.14196545845E+03 -0.75240695095E+02  0.15559148807E+03  0.28214901160E+03  0.17200000000E+03 0.  1.
</event>
<event>
 4    1  0.6352740E-002  0.2228430E+03  0.7818608E-02  0.1131781E+00
          2   -1    0    0  502    0  0.00000000000E+00  0.00000000000E+00  0.31954261196E+04  0.31954261196E+04  0.00000000000E+00 0. -1.
         -2   -1    0    0    0  501 -0.00000000000E+00 -0.00000000000E+00 -0.15553400344E+02  0.15553400344E+02  0.00000000000E+00 0.  1.
          6    1    1    2  502    0 -0.13262481508E+03 -0.49856465171E+02  0.16358988702E+04  0.16510070025E+04  0.17200000000E+03 0.  1.
         -6    1    1    2    0  501  0.13262481508E+03  0.49856465171E+02  0.15439738490E+04  0.15599725174E+04  0.17200000000E+03 0. -1.
</event>
<event>
 4    1  0.6352740E-002  0.1727813E+03  0.7818608E-02  0.1174978E+00
          2   -1    0    0  502    0  0.00000000000E+00  0.00000000000E+00  0.56062675919E+03  0.56062675919E+03  0.00000000000E+00 0. -1.
         -2   -1    0    0    0  501 -0.00000000000E+00 -0.00000000000E+00 -0.57616753276E+02  0.57616753276E+02  0.00000000000E+00 0.  1.
          6    1    1    2  502    0 -0.84270830404E+00 -0.16390703044E+02  0.33660613986E+03  0.37836101635E+03  0.17200000000E+03 0. -1.
         -6    1    1    2    0  501  0.84270830404E+00  0.16390703044E+02  0.16640386605E+03  0.23988249611E+03  0.17200000000E+03 0.  1.
</event>
<event>
 4    1  0.6352740E-002  0.1303418E+04  0.7818608E-02  0.9026859E-01
          2   -1    0    0  502    0  0.00000000000E+00  0.00000000000E+00  0.17686189783E+04  0.17686189783E+04  0.00000000000E+00 0. -1.
         -2   -1    0    0    0  501 -0.00000000000E+00 -0.00000000000E+00 -0.16893080563E+04  0.16893080563E+04  0.00000000000E+00 0.  1.
          6    1    1    2  502    0 -0.36664293557E+01  0.12920146257E+04  0.11752264262E+04  0.17550089426E+04  0.17200000000E+03 0. -1.
         -6    1    1    2    0  501  0.36664293557E+01 -0.12920146257E+04 -0.10959155042E+04  0.17029180920E+04  0.17200000000E+03 0.  1.
</event>
<event>
 4    1  0.6352740E-002  0.2079634E+03  0.7818608E-02  0.1143189E+00
         -2   -1    0    0    0  501 -0.00000000000E+00  0.00000000000E+00  0.27402109460E+02  0.27402109460E+02  0.00000000000E+00 0.  1.
          2   -1    0    0  502    0  0.00000000000E+00 -0.00000000000E+00 -0.15953355942E+04  0.15953355942E+04  0.00000000000E+00 0. -1.
          6    1    1    2  502    0 -0.59536543202E+02  0.10059914572E+03 -0.86780706236E+03  0.89237765861E+03  0.17200000000E+03 0. -1.
         -6    1    1    2    0  501  0.59536543202E+02 -0.10059914572E+03 -0.70012642236E+03  0.73036004503E+03  0.17200000000E+03 0.  1.
</event>
<event>
 4    1  0.6352740E-002  0.1957318E+03  0.7818608E-02  0.1153391E+00
          2   -1    0    0  502    0  0.00000000000E+00  0.00000000000E+00  0.18646440710E+04  0.18646440710E+04  0.00000000000E+00 0. -1.
         -2   -1    0    0    0  501 -0.00000000000E+00 -0.00000000000E+00 -0.36289210038E+02  0.36289210038E+02  0.00000000000E+00 0.  1.
          6    1    1    2  502    0  0.85148082482E+02 -0.38428308551E+02  0.15402073766E+04  0.15525945040E+04  0.17200000000E+03 0. -1.
         -6    1    1    2    0  501 -0.85148082482E+02  0.38428308551E+02  0.28814748427E+03  0.34833877697E+03  0.17200000000E+03 0.  1.
</event>
<event>
 4    1  0.6352740E-002  0.7017374E+03  0.7818608E-02  0.9714266E-01
         -1   -1    0    0    0  501 -0.00000000000E+00  0.00000000000E+00  0.27967075611E+03  0.27967075611E+03  0.00000000000E+00 0.  1.
          1   -1    0    0  502    0  0.00000000000E+00 -0.00000000000E+00 -0.19319784465E+04  0.19319784465E+04  0.00000000000E+00 0. -1.
          6    1    1    2  502    0 -0.16943959433E+03 -0.65889419350E+03 -0.11553465211E+04  0.13517621530E+04  0.17200000000E+03 0. -1.
         -6    1    1    2    0  501  0.16943959433E+03  0.65889419350E+03 -0.49696116927E+03  0.85988704963E+03  0.17200000000E+03 0.  1.
</event>
<event>
 4    1  0.6352740E-002  0.3751621E+03  0.7818608E-02  0.1052736E+00
         -2   -1    0    0    0  501 -0.00000000000E+00  0.00000000000E+00  0.71229574027E+02  0.71229574027E+02  0.00000000000E+00 0.  1.
          2   -1    0    0  502    0  0.00000000000E+00 -0.00000000000E+00 -0.19819627420E+04  0.19819627420E+04  0.00000000000E+00 0. -1.
          6    1    1    2  502    0  0.19033747103E+03  0.27374125670E+03 -0.89885880007E+03  0.97400912263E+03  0.17200000000E+03 0. -1.
         -6    1    1    2    0  501 -0.19033747103E+03 -0.27374125670E+03 -0.10118743679E+04  0.10791831934E+04  0.17200000000E+03 0.  1.
</event>
<event>
 4    1  0.6352740E-002  0.2126159E+03  0.7818608E-02  0.1139511E+00
         -1   -1    0    0    0  501 -0.00000000000E+00  0.00000000000E+00  0.19026070479E+02  0.19026070479E+02  0.00000000000E+00 0.  1.
          1   -1    0    0  502    0  0.00000000000E+00 -0.00000000000E+00 -0.26301182607E+04  0.26301182607E+04  0.00000000000E+00 0. -1.
          6    1    1    2  502    0  0.68154305595E+02  0.10476876349E+03 -0.17172885948E+04  0.17304004222E+04  0.17200000000E+03 0.  1.
         -6    1    1    2    0  501 -0.68154305595E+02 -0.10476876349E+03 -0.89380359538E+03  0.91874390898E+03  0.17200000000E+03 0.  1.
</event>
<event>
 4    1  0.6352740E-002  0.3811848E+03  0.7818608E-02  0.1050497E+00
          2   -1    0    0  502    0  0.00000000000E+00  0.00000000000E+00  0.97540183569E+03  0.97540183569E+03  0.00000000000E+00 0. -1.
         -2   -1    0    0    0  501 -0.00000000000E+00 -0.00000000000E+00 -0.14976465776E+03  0.14976465776E+03  0.00000000000E+00 0.  1.
          6    1    1    2  502    0 -0.26208705004E+03  0.21685995961E+03  0.45389755916E+03  0.59272663015E+03  0.17200000000E+03 0.  1.
         -6    1    1    2    0  501  0.26208705004E+03 -0.21685995961E+03  0.37173961877E+03  0.53243986331E+03  0.17200000000E+03 0.  1.
</event>
<event>
 4    1  0.6352740E-002  0.1905207E+03  0.7818608E-02  0.1157993E+00
         -2   -1    0    0    0  501 -0.00000000000E+00  0.00000000000E+00  0.72566630615E+02  0.72566630615E+02  0.00000000000E+00 0.  1.
          2   -1    0    0  502    0  0.00000000000E+00 -0.00000000000E+00 -0.61135155130E+03  0.61135155130E+03  0.00000000000E+00 0. -1.
          6    1    1    2  502    0  0.45377424926E+02  0.68227772461E+02 -0.12358557389E+03  0.22709366724E+03  0.17200000000E+03 0.  1.
         -6    1    1    2    0  501 -0.45377424926E+02 -0.68227772461E+02 -0.41519934679E+03  0.45682451467E+03  0.17200000000E+03 0. -1.
</event>
<event>
 4    1  0.6352740E-002  0.3342677E+03  0.7818608E-02  0.1069264E+00
         -2   -1    0    0    0  501 -0.00000000000E+00  0.00000000000E+00  0.22238604560E+03  0.22238604560E+03  0.00000000000E+00 0.  1.
          2   -1    0    0  502    0  0.00000000000E+00 -0.00000000000E+00 -0.55511200022E+03  0.55511200022E+03  0.00000000000E+00 0. -1.
          6    1    1    2  502    0  0.13411522907E+03  0.25330614841E+03 -0.28611496296E+03  0.43999621762E+03  0.17200000000E+03 0. -1.
         -6    1    1    2    0  501 -0.13411522907E+03 -0.25330614841E+03 -0.46610991657E+02  0.33750182819E+03  0.17200000000E+03 0.  1.
</event>
<event>
 4    1  0.6352740E-002  0.1847773E+03  0.7818608E-02  0.1163258E+00
          2   -1    0    0  502    0  0.00000000000E+00  0.00000000000E+00  0.49267854469E+02  0.49267854469E+02  0.00000000000E+00 0. -1.
         -2   -1    0    0    0  501 -0.00000000000E+00 -0.00000000000E+00 -0.87611896986E+03  0.87611896986E+03  0.00000000000E+00 0.  1.
          6    1    1    2  502    0 -0.51852357388E+02  0.43243428342E+02 -0.62495826601E+03  0.65170199886E+03  0.17200000000E+03 0.  1.
         -6    1    1    2    0  501  0.51852357388E+02 -0.43243428342E+02 -0.20189284938E+03  0.27368482547E+03  0.17200000000E+03 0. -1.
</event>
<event>
 4    1  0.6352740E-002  0.6454558E+03  0.7818608E-02  0.9815344E-01
          1   -1    0    0  502    0  0.00000000000E+00  0.00000000000E+00  0.84532472543E+03  0.84532472543E+03  0.00000000000E+00 0. -1.
         -1   -1    0    0    0  501 -0.00000000000E+00 -0.00000000000E+00 -0.11914453518E+04  0.11914453518E+04  0.00000000000E+00 0.  1.
          6    1    1    2  502    0 -0.11804190913E+02  0.62200467760E+03  0.60675126671E+03  0.88586695250E+03  0.17200000000E+03 0. -1.
         -6    1    1    2    0  501  0.11804190913E+02 -0.62200467760E+03 -0.95287189304E+03  0.11509031247E+04  0.17200000000E+03 0.  1.
</event>
<event>
 4    1  0.6352740E-002  0.3078630E+03  0.7818608E-02  0.1081375E+00
         -2   -1    0    0    0  501 -0.00000000000E+00  0.00000000000E+00  0.42291595729E+02  0.42291595729E+02  0.00000000000E+00 0.  1.
          2   -1    0    0  502    0  0.00000000000E+00 -0.00000000000E+00 -0.28615910870E+04  0.28615910870E+04  0.00000000000E+00 0. -1.
          6    1    1    2  502    0  0.18065592152E+03 -0.18044122846E+03 -0.20857542891E+04  0.21083525685E+04  0.17200000000E+03 0. -1.
         -6    1    1    2    0  501 -0.18065592152E+03  0.18044122846E+03 -0.73354520224E+03  0.79553011422E+03  0.17200000000E+03 0.  1.
</event>
<event>
 4    1  0.6352740E-002  0.2889278E+03  0.7818608E-02  0.1090910E+00
          1   -1    0    0  502    0  0.00000000000E+00  0.00000000000E+00  0.44807649188E+03  0.44807649188E+03  0.00000000000E+00 0. -1.
         -1   -1    0    0    0  501 -0.00000000000E+00 -0.00000000000E+00 -0.21473554381E+03  0.21473554381E+03  0.00000000000E+00 0.  1.
          6    1    1    2  502    0  0.15519785441E+02  0.23163426829E+03  0.23725568982E+03  0.37385767391E+03  0.17200000000E+03 0. -1.
         -6    1    1    2    0  501 -0.15519785441E+02 -0.23163426829E+03 -0.39147417485E+01  0.28895436178E+03  0.17200000000E+03 0.  1.
</event>
<event>
 4    1  0.6352740E-002  0.1809543E+03  0.7818608E-02  0.1166883E+00
         -2   -1    0    0    0  501 -0.00000000000E+00  0.00000000000E+00  0.24632521973E+02  0.24632521973E+02  0.00000000000E+00 0.  1.
          2   -1    0    0  502    0  0.00000000000E+00 -0.00000000000E+00 -0.16815055547E+04  0.16815055547E+04  0.00000000000E+00 0. -1.
          6    1    1    2  502    0  0.40214566602E+02  0.39284313537E+02 -0.12188471908E+04  0.12322065343E+04  0.17200000000E+03 0.  1.
         -6    1    1    2    0  501 -0.40214566602E+02 -0.39284313537E+02 -0.43802584192E+03  0.47393154236E+03  0.17200000000E+03 0.  1.
</event>
<event>
 4    1  0.6352740E-002  0.1878910E+03  0.7818608E-02  0.1160377E+00
         -3   -1    0    0    0  501 -0.00000000000E+00  0.00000000000E+00  0.18601588675E+03  0.18601588675E+03  0.00000000000E+00 0.  1.
          3   -1    0    0  502    0  0.00000000000E+00 -0.00000000000E+00 -0.19825460696E+03  0.19825460696E+03  0.00000000000E+00 0. -1.
          6    1    1    2  502    0 -0.47829195102E+02 -0.58578107523E+02  0.33593102410E+02  0.19087043541E+03  0.17200000000E+03 0.  1.
         -6    1    1    2    0  501  0.47829195102E+02  0.58578107523E+02 -0.45831822626E+02  0.19340005830E+03  0.17200000000E+03 0.  1.
</event>
<event>
 4    1  0.6352740E-002  0.3913816E+03  0.7818608E-02  0.1046805E+00
          2   -1    0    0  502    0  0.00000000000E+00  0.00000000000E+00  0.27684810025E+04  0.27684810025E+04  0.00000000000E+00 0. -1.
         -2   -1    0    0    0  501 -0.00000000000E+00 -0.00000000000E+00 -0.46092366707E+03  0.46092366707E+03  0.00000000000E+00 0.  1.
          6    1    1    2  502    0  0.15687740774E+03  0.31461886308E+03  0.26684682872E+04  0.26970173432E+04  0.17200000000E+03 0. -1.
         -6    1    1    2    0  501 -0.15687740774E+03 -0.31461886308E+03 -0.36091095179E+03  0.53238732628E+03  0.17200000000E+03 0.  1.
</event>
<event>
 4    1  0.6352740E-002  0.2989570E+03  0.7818608E-02  0.1085763E+00
          1   -1    0    0  502    0  0.00000000000E+00  0.00000000000E+00  0.21628398724E+04  0.21628398724E+04  0.00000000000E+00 0. -1.
         -1   -1    0    0    0  501 -0.00000000000E+00 -0.00000000000E+00 -0.91897672215E+02  0.91897672215E+02  0.00000000000E+00 0.  1.
          6    1    1    2  502    0 -0.23079983544E+03  0.80763518661E+02  0.18718050602E+04  0.18955288163E+04  0.17200000000E+03 0. -1.
         -6    1    1    2    0  501  0.23079983544E+03 -0.80763518661E+02  0.19913713999E+03  0.35920872833E+03  0.17200000000E+03 0.  1.
</event>
<event>
 4    1  0.6352740E-002  0.1793738E+03  0.7818608E-02  0.1168410E+00
          2   -1    0    0  502    0  0.00000000000E+00  0.00000000000E+00  0.60388074792E+03  0.60388074792E+03  0.00000000000E+00 0. -1.
         -2   -1    0    0    0  501 -0.00000000000E+00 -0.00000000000E+00 -0.67840592382E+02  0.67840592382E+02  0.00000000000E+00 0.  1.
          6    1    1    2  502    0  0.42153139952E+02  0.28531787759E+02  0.11242375981E+03  0.21169329675E+03  0.17200000000E+03 0.  1.
         -6    1    1    2    0  501 -0.42153139952E+02 -0.28531787759E+02  0.42361639573E+03  0.46002804355E+03  0.17200000000E+03 0.  1.
</event>
<event>
 4    1  0.6352740E-002  0.2387904E+03  0.7818608E-02  0.1120601E+00
          2   -1    0    0  502    0  0.00000000000E+00  0.00000000000E+00  0.16107601407E+04  0.16107601407E+04  0.00000000000E+00 0. -1.
         -2   -1    0    0    0  501 -0.00000000000E+00 -0.00000000000E+00 -0.39459088812E+02  0.39459088812E+02  0.00000000000E+00 0.  1.
          6    1    1    2  502    0 -0.90040718107E+02  0.13903064904E+03  0.10502897907E+04  0.10770930771E+04  0.17200000000E+03 0. -1.
         -6    1    1    2    0  501  0.90040718107E+02 -0.13903064904E+03  0.52101126117E+03  0.57312615239E+03  0.17200000000E+03 0.  1.
</event>
<event>
 4    1  0.6352740E-002  0.2433474E+03  0.7818608E-02  0.1117583E+00
         -1   -1    0    0    0  501 -0.00000000000E+00  0.00000000000E+00  0.91678516772E+02  0.91678516772E+02  0.00000000000E+00 0.  1.
          1   -1    0    0  502    0  0.00000000000E+00 -0.00000000000E+00 -0.71342817861E+03  0.71342817861E+03  0.00000000000E+00 0. -1.
          6    1    1    2  502    0 -0.92764871154E+02  0.14501255749E+03 -0.18705440991E+03  0.30693210229E+03  0.17200000000E+03 0.  1.
         -6    1    1    2    0  501  0.92764871154E+02 -0.14501255749E+03 -0.43469525193E+03  0.49817459309E+03  0.17200000000E+03 0.  1.
</event>
<event>
 4    1  0.6352740E-002  0.2422475E+03  0.7818608E-02  0.1118305E+00
         -2   -1    0    0    0  501 -0.00000000000E+00  0.00000000000E+00  0.50132896902E+02  0.50132896902E+02  0.00000000000E+00 0.  1.
          2   -1    0    0  502    0  0.00000000000E+00 -0.00000000000E+00 -0.14069192234E+04  0.14069192234E+04  0.00000000000E+00 0. -1.
          6    1    1    2  502    0  0.16777381026E+03  0.30851578657E+02 -0.97699409011E+03  0.10065790200E+04  0.17200000000E+03 0. -1.
         -6    1    1    2    0  501 -0.16777381026E+03 -0.30851578657E+02 -0.37979223643E+03  0.45047310038E+03  0.17200000000E+03 0.  1.
</event>
<event>
 4    1  0.6352740E-002  0.2112058E+03  0.7818608E-02  0.1140615E+00
         -3   -1    0    0    0  501 -0.00000000000E+00  0.00000000000E+00  0.25237209051E+04  0.25237209051E+04  0.00000000000E+00 0.  1.
          3   -1    0    0  502    0  0.00000000000E+00 -0.00000000000E+00 -0.18059339904E+02  0.18059339904E+02  0.00000000000E+00 0. -1.
          6    1    1    2  502    0  0.86171338708E+02 -0.87168731605E+02  0.14381258422E+04  0.14535521406E+04  0.17200000000E+03 0.  1.
         -6    1    1    2    0  501 -0.86171338708E+02  0.87168731605E+02  0.10675357230E+04  0.10882281044E+04  0.17200000000E+03 0.  1.
</event>
<event>
 4    1  0.6352740E-002  0.2812937E+03  0.7818608E-02  0.1094984E+00
         -2   -1    0    0    0  501 -0.00000000000E+00  0.00000000000E+00  0.78102963995E+02  0.78102963995E+02  0.00000000000E+00 0.  1.
          2   -1    0    0  502    0  0.00000000000E+00 -0.00000000000E+00 -0.12851059499E+04  0.12851059499E+04  0.00000000000E+00 0. -1.
          6    1    1    2  502    0 -0.19673218685E+02  0.22170956696E+03 -0.28991915311E+03  0.40395455555E+03  0.17200000000E+03 0. -1.
         -6    1    1    2    0  501  0.19673218685E+02 -0.22170956696E+03 -0.91708383276E+03  0.95925435830E+03  0.17200000000E+03 0. -1.
</event>
<event>
 4    1  0.6352740E-002  0.2191128E+03  0.7818608E-02  0.1134546E+00
         -1   -1    0    0    0  501 -0.00000000000E+00  0.00000000000E+00  0.86858178579E+02  0.86858178579E+02  0.00000000000E+00 0.  1.
          1   -1    0    0  502    0  0.00000000000E+00 -0.00000000000E+00 -0.63312260822E+03  0.63312260822E+03  0.00000000000E+00 0. -1.
          6    1    1    2  502    0  0.94000936414E+02 -0.97929699659E+02 -0.40139929768E+03  0.45730930266E+03  0.17200000000E+03 0. -1.
         -6    1    1    2    0  501 -0.94000936414E+02  0.97929699659E+02 -0.14486513196E+03  0.26267148414E+03  0.17200000000E+03 0.  1.
</event>
<event>
 4    1  0.6352740E-002  0.2019363E+03  0.7818608E-02  0.1148116E+00
          2   -1    0    0  502    0  0.00000000000E+00  0.00000000000E+00  0.41667604638E+03  0.41667604638E+03  0.00000000000E+00 0. -1.
         -2   -1    0    0    0  501 -0.00000000000E+00 -0.00000000000E+00 -0.40446806873E+03  0.40446806873E+03  0.00000000000E+00 0.  1.
          6    1    1    2  502    0 -0.79198022720E+02  0.70156511520E+02  0.36357026188E+03  0.41588652086E+03  0.17200000000E+03 0. -1.
         -6    1    1    2    0  501  0.79198022720E+02 -0.70156511520E+02 -0.35136228424E+03  0.40525759425E+03  0.17200000000E+03 0.  1.
</event>
<event>
 4    1  0.6352740E-002  0.2439848E+03  0.7818608E-02  0.1117166E+00
          1   -1    0    0  502    0  0.00000000000E+00  0.00000000000E+00  0.86548955807E+03  0.86548955807E+03  0.00000000000E+00 0. -1.
         -1   -1    0    0    0  501 -0.00000000000E+00 -0.00000000000E+00 -0.70443510550E+02  0.70443510550E+02  0.00000000000E+00 0.  1.
          6    1    1    2  502    0  0.10029742828E+03 -0.14101425601E+03  0.46943040754E+03  0.52904962153E+03  0.17200000000E+03 0. -1.
         -6    1    1    2    0  501 -0.10029742828E+03  0.14101425601E+03  0.32561563998E+03  0.40688344709E+03  0.17200000000E+03 0.  1.
</event>
<event>
 4    1  0.6352740E-002  0.3671494E+03  0.7818608E-02  0.1055788E+00
          1   -1    0    0  502    0  0.00000000000E+00  0.00000000000E+00  0.13536895534E+04  0.13536895534E+04  0.00000000000E+00 0. -1.
         -1   -1    0    0    0  501 -0.00000000000E+00 -0.00000000000E+00 -0.34395925505E+03  0.34395925505E+03  0.00000000000E+00 0.  1.
          6    1    1    2  502    0  0.81983450832E+02  0.31383659986E+03  0.12203453941E+04  0.12743788991E+04  0.17200000000E+03 0. -1.
         -6    1    1    2    0  501 -0.81983450832E+02 -0.31383659986E+03 -0.21061509572E+03  0.42326990936E+03  0.17200000000E+03 0.  1.
</event>
<event>
 4    1  0.6352740E-002  0.2396848E+03  0.7818608E-02  0.1120003E+00
         -1   -1    0    0    0  501 -0.00000000000E+00  0.00000000000E+00  0.53513125330E+02  0.53513125330E+02  0.00000000000E+00 0.  1.
          1   -1    0    0  502    0  0.00000000000E+00 -0.00000000000E+00 -0.15238368260E+04  0.15238368260E+04  0.00000000000E+00 0. -1.
          6    1    1    2  502    0 -0.16391300550E+03  0.31580310280E+02 -0.30644012801E+03  0.38904285294E+03  0.17200000000E+03 0.  1.
         -6    1    1    2    0  501  0.16391300550E+03 -0.31580310280E+02 -0.11638835726E+04  0.11883070984E+04  0.17200000000E+03 0. -1.
</event>
<event>
 4    1  0.6352740E-002  0.3261811E+03  0.7818608E-02  0.1072839E+00
         -2   -1    0    0    0  501 -0.00000000000E+00  0.00000000000E+00  0.20354640269E+03  0.20354640269E+03  0.00000000000E+00 0.  1.
          2   -1    0    0  502    0  0.00000000000E+00 -0.00000000000E+00 -0.59754986428E+03  0.59754986428E+03  0.00000000000E+00 0. -1.
          6    1    1    2  502    0 -0.26391794069E+03 -0.84601789642E+02 -0.33876277664E+03  0.47027051903E+03  0.17200000000E+03 0. -1.
         -6    1    1    2    0  501  0.26391794069E+03  0.84601789642E+02 -0.55240684952E+02  0.33082574795E+03  0.17200000000E+03 0.  1.
</event>
<event>
 4    1  0.6352740E-002  0.4444131E+03  0.7818608E-02  0.1029401E+00
         -1   -1    0    0    0  501 -0.00000000000E+00  0.00000000000E+00  0.62273470033E+02  0.62273470033E+02  0.00000000000E+00 0.  1.
          1   -1    0    0  502    0  0.00000000000E+00 -0.00000000000E+00 -0.31877295623E+04  0.31877295623E+04  0.00000000000E+00 0. -1.
          6    1    1    2  502    0 -0.72597181956E+02 -0.40329720324E+03 -0.16785233622E+04  0.17363593126E+04  0.17200000000E+03 0. -1.
         -6    1    1    2    0  501  0.72597181956E+02  0.40329720324E+03 -0.14469327300E+04  0.15136437197E+04  0.17200000000E+03 0.  1.
</event>
<event>
 4    1  0.6352740E-002  0.2811049E+03  0.7818608E-02  0.1095087E+00
          1   -1    0    0  502    0  0.00000000000E+00  0.00000000000E+00  0.15409998552E+04  0.15409998552E+04  0.00000000000E+00 0. -1.
         -1   -1    0    0    0  501 -0.00000000000E+00 -0.00000000000E+00 -0.51543695472E+02  0.51543695472E+02  0.00000000000E+00 0.  1.
          6    1    1    2  502    0 -0.86005427789E+02 -0.20503417594E+03  0.80185888760E+03  0.84970443245E+03  0.17200000000E+03 0. -1.
         -6    1    1    2    0  501  0.86005427789E+02  0.20503417594E+03  0.68759727209E+03  0.74283911818E+03  0.17200000000E+03 0.  1.
</event>
<event>
 4    1  0.6352740E-002  0.2658834E+03  0.7818608E-02  0.1103659E+00
          1   -1    0    0  502    0  0.00000000000E+00  0.00000000000E+00  0.27354076678E+04  0.27354076678E+04  0.00000000000E+00 0. -1.
         -1   -1    0    0    0  501 -0.00000000000E+00 -0.00000000000E+00 -0.66361874161E+02  0.66361874161E+02  0.00000000000E+00 0.  1.
          6    1    1    2  502    0 -0.16934561716E+02 -0.20204754416E+03  0.24291499961E+04  0.24436578511E+04  0.17200000000E+03 0. -1.
         -6    1    1    2    0  501  0.16934561716E+02  0.20204754416E+03  0.23989579752E+03  0.35811169088E+03  0.17200000000E+03 0.  1.
</event>
<event>
 4    1  0.6352740E-002  0.2125800E+03  0.7818608E-02  0.1139539E+00
         -1   -1    0    0    0  501 -0.00000000000E+00  0.00000000000E+00  0.55591161490E+03  0.55591161490E+03  0.00000000000E+00 0.  1.
          1   -1    0    0  502    0  0.00000000000E+00 -0.00000000000E+00 -0.82063136495E+02  0.82063136495E+02  0.00000000000E+00 0. -1.
          6    1    1    2  502    0 -0.11697487260E+03 -0.43853538486E+02  0.26787898370E+03  0.34197865952E+03  0.17200000000E+03 0.  1.
         -6    1    1    2    0  501  0.11697487260E+03  0.43853538486E+02  0.20596949471E+03  0.29599609188E+03  0.17200000000E+03 0. -1.
</event>
<event>
 4    1  0.6352740E-002  0.2261539E+03  0.7818608E-02  0.1129376E+00
         -2   -1    0    0    0  501 -0.00000000000E+00  0.00000000000E+00  0.89148540014E+02  0.89148540014E+02  0.00000000000E+00 0.  1.
          2   -1    0    0  502    0  0.00000000000E+00 -0.00000000000E+00 -0.62149676454E+03  0.62149676454E+03  0.00000000000E+00 0. -1.
          6    1    1    2  502    0 -0.13183292009E+03 -0.64665748489E+02 -0.16764860932E+03  0.28151666745E+03  0.17200000000E+03 0.  1.
         -6    1    1    2    0  501  0.13183292009E+03  0.64665748489E+02 -0.36469961521E+03  0.42912863710E+03  0.17200000000E+03 0. -1.
</event>
<event>
 4    1  0.6352740E-002  0.2638502E+03  0.7818608E-02  0.1104852E+00
          2   -1    0    0  502    0  0.00000000000E+00  0.00000000000E+00  0.13160530599E+04  0.13160530599E+04  0.00000000000E+00 0. -1.
         -2   -1    0    0    0  501 -0.00000000000E+00 -0.00000000000E+00 -0.64381508405E+02  0.64381508405E+02  0.00000000000E+00 0.  1.
          6    1    1    2  502    0 -0.65824704421E+02 -0.18894451838E+03  0.91733510054E+03  0.95452637963E+03  0.17200000000E+03 0. -1.
         -6    1    1    2    0  501  0.65824704421E+02  0.18894451838E+03  0.33433645095E+03  0.42590818867E+03  0.17200000000E+03 0.  1.
</event>
<event>
 4    1  0.6352740E-002  0.3714767E+03  0.7818608E-02  0.1054130E+00
         -2   -1    0    0    0  501 -0.00000000000E+00  0.00000000000E+00  0.22757252285E+03  0.22757252285E+03  0.00000000000E+00 0.  1.
          2   -1    0    0  502    0  0.00000000000E+00 -0.00000000000E+00 -0.10278198421E+04  0.10278198421E+04  0.00000000000E+00 0. -1.
          6    1    1    2  502    0 -0.22296997810E+03 -0.24227115345E+03 -0.80206245246E+03  0.88391125153E+03  0.17200000000E+03 0. -1.
         -6    1    1    2    0  501  0.22296997810E+03  0.24227115345E+03  0.18151331968E+01  0.37148111343E+03  0.17200000000E+03 0.  1.
</event>
<event>
 4    1  0.6352740E-002  0.3330183E+03  0.7818608E-02  0.1069809E+00
         -2   -1    0    0    0  501 -0.00000000000E+00  0.00000000000E+00  0.97277620461E+02  0.97277620461E+02  0.00000000000E+00 0.  1.
          2   -1    0    0  502    0  0.00000000000E+00 -0.00000000000E+00 -0.11468824796E+04  0.11468824796E+04  0.00000000000E+00 0. -1.
          6    1    1    2  502    0  0.15911260025E+02 -0.28471749393E+03 -0.57282208031E+03  0.66259063926E+03  0.17200000000E+03 0. -1.
         -6    1    1    2    0  501 -0.15911260025E+02  0.28471749393E+03 -0.47678277881E+03  0.58156946078E+03  0.17200000000E+03 0.  1.
</event>
<event>
 4    1  0.6352740E-002  0.3380321E+03  0.7818608E-02  0.1067637E+00
          3   -1    0    0  502    0  0.00000000000E+00  0.00000000000E+00  0.26221942505E+03  0.26221942505E+03  0.00000000000E+00 0. -1.
         -3   -1    0    0    0  501 -0.00000000000E+00 -0.00000000000E+00 -0.48202806612E+03  0.48202806612E+03  0.00000000000E+00 0.  1.
          6    1    1    2  502    0 -0.24212784446E+03 -0.16141810296E+03  0.53811841347E+01  0.33807492390E+03  0.17200000000E+03 0. -1.
         -6    1    1    2    0  501  0.24212784446E+03  0.16141810296E+03 -0.22518982521E+03  0.40617256727E+03  0.17200000000E+03 0.  1.
</event>
<event>
 4    1  0.6352740E-002  0.2005403E+03  0.7818608E-02  0.1149284E+00
         -4   -1    0    0    0  501 -0.00000000000E+00  0.00000000000E+00  0.11877614858E+04  0.11877614858E+04  0.00000000000E+00 0.  1.
          4   -1    0    0  502    0  0.00000000000E+00 -0.00000000000E+00 -0.61187085774E+02  0.61187085774E+02  0.00000000000E+00 0. -1.
          6    1    1    2  502    0  0.19769856016E+02 -0.10120055189E+03  0.98062660913E+03  0.10009220476E+04  0.17200000000E+03 0.  1.
         -6    1    1    2    0  501 -0.19769856016E+02  0.10120055189E+03  0.14594779089E+03  0.24802652394E+03  0.17200000000E+03 0. -1.
</event>
<event>
 4    1  0.6352740E-002  0.2323414E+03  0.7818608E-02  0.1125003E+00
         -2   -1    0    0    0  501 -0.00000000000E+00  0.00000000000E+00  0.16582305344E+03  0.16582305344E+03  0.00000000000E+00 0.  1.
          2   -1    0    0  502    0  0.00000000000E+00 -0.00000000000E+00 -0.83295312610E+03  0.83295312610E+03  0.00000000000E+00 0. -1.
          6    1    1    2  502    0 -0.15464474574E+03  0.21989534963E+02 -0.72333418188E+03  0.75973342411E+03  0.17200000000E+03 0. -1.
         -6    1    1    2    0  501  0.15464474574E+03 -0.21989534963E+02  0.56204109219E+02  0.23904275543E+03  0.17200000000E+03 0.  1.
</event>
<event>
 4    1  0.6352740E-002  0.1864325E+03  0.7818608E-02  0.1161719E+00
          1   -1    0    0  502    0  0.00000000000E+00  0.00000000000E+00  0.11581662625E+03  0.11581662625E+03  0.00000000000E+00 0. -1.
         -1   -1    0    0    0  501 -0.00000000000E+00 -0.00000000000E+00 -0.46804388615E+03  0.46804388615E+03  0.00000000000E+00 0.  1.
          6    1    1    2  502    0 -0.45592678649E+01 -0.71779518279E+02 -0.12449017113E+01  0.18643668080E+03  0.17200000000E+03 0.  1.
         -6    1    1    2    0  501  0.45592678649E+01  0.71779518279E+02 -0.35098235819E+03  0.39742383160E+03  0.17200000000E+03 0.  1.
</event>
<event>
 4    1  0.6352740E-002  0.1791487E+03  0.7818608E-02  0.1168629E+00
         -1   -1    0    0    0  501 -0.00000000000E+00  0.00000000000E+00  0.22502201886E+03  0.22502201886E+03  0.00000000000E+00 0.  1.
          1   -1    0    0  502    0  0.00000000000E+00 -0.00000000000E+00 -0.14736677603E+03  0.14736677603E+03  0.00000000000E+00 0. -1.
          6    1    1    2  502    0  0.42621208896E+02 -0.26337938985E+02  0.72219264422E+02  0.19315764710E+03  0.17200000000E+03 0.  1.
         -6    1    1    2    0  501 -0.42621208896E+02  0.26337938985E+02  0.54359784007E+01  0.17923114779E+03  0.17200000000E+03 0.  1.
</event>
<event>
 4    1  0.6352740E-002  0.2160691E+03  0.7818608E-02  0.1136848E+00
          1   -1    0    0  502    0  0.00000000000E+00  0.00000000000E+00  0.16263793376E+03  0.16263793376E+03  0.00000000000E+00 0. -1.
         -1   -1    0    0    0  501 -0.00000000000E+00 -0.00000000000E+00 -0.32718208629E+03  0.32718208629E+03  0.00000000000E+00 0.  1.
          6    1    1    2  502    0 -0.19084250762E+02  0.12937407624E+03  0.34981010818E+01  0.21609742465E+03  0.17200000000E+03 0. -1.
         -6    1    1    2    0  501  0.19084250762E+02 -0.12937407624E+03 -0.16804225361E+03  0.27372259539E+03  0.17200000000E+03 0.  1.
</event>
<event>
 4    1  0.6352740E-002  0.2405636E+03  0.7818608E-02  0.1119418E+00
          2   -1    0    0  502    0  0.00000000000E+00  0.00000000000E+00  0.49994630918E+03  0.49994630918E+03  0.00000000000E+00 0. -1.
         -2   -1    0    0    0  501 -0.00000000000E+00 -0.00000000000E+00 -0.13155395678E+03  0.13155395678E+03  0.00000000000E+00 0.  1.
          6    1    1    2  502    0 -0.15257490364E+03 -0.70765512067E+02  0.29362141524E+03  0.37958450232E+03  0.17200000000E+03 0. -1.
         -6    1    1    2    0  501  0.15257490364E+03  0.70765512067E+02  0.74770937162E+02  0.25191576363E+03  0.17200000000E+03 0.  1.
</event>
<event>
 4    1  0.6352740E-002  0.1808493E+03  0.7818608E-02  0.1166984E+00
          2   -1    0    0  502    0  0.00000000000E+00  0.00000000000E+00  0.34545680009E+03  0.34545680009E+03  0.00000000000E+00 0. -1.
         -2   -1    0    0    0  501 -0.00000000000E+00 -0.00000000000E+00 -0.12055231346E+03  0.12055231346E+03  0.00000000000E+00 0.  1.
          6    1    1    2  502    0 -0.21590994902E+02  0.51539388657E+02  0.45010223210E+01  0.18090533117E+03  0.17200000000E+03 0.  1.
         -6    1    1    2    0  501  0.21590994902E+02 -0.51539388657E+02  0.22040346432E+03  0.28510378238E+03  0.17200000000E+03 0.  1.
</event>
<event>
 4    1  0.6352740E-002  0.3410578E+03  0.7818608E-02  0.1066346E+00
          2   -1    0    0  502    0  0.00000000000E+00  0.00000000000E+00  0.13984340098E+04  0.13984340098E+04  0.00000000000E+00 0. -1.
         -2   -1    0    0    0  501 -0.00000000000E+00 -0.00000000000E+00 -0.18926335405E+03  0.18926335405E+03  0.00000000000E+00 0.  1.
          6    1    1    2  502    0 -0.28207941513E+03  0.84661938545E+02  0.11989185223E+04  0.12464854846E+04  0.17200000000E+03 0. -1.
         -6    1    1    2    0  501  0.28207941513E+03 -0.84661938545E+02  0.10252133452E+02  0.34121187921E+03  0.17200000000E+03 0.  1.
</event>
<event>
 4    1  0.6352740E-002  0.2091504E+03  0.7818608E-02  0.1142241E+00
         -3   -1    0    0    0  501 -0.00000000000E+00  0.00000000000E+00  0.82672416956E+03  0.82672416956E+03  0.00000000000E+00 0.  1.
          3   -1    0    0  502    0  0.00000000000E+00 -0.00000000000E+00 -0.59530112231E+02  0.59530112231E+02  0.00000000000E+00 0. -1.
          6    1    1    2  502    0  0.57675793181E+02  0.10408351455E+03  0.23585049312E+03  0.31522901235E+03  0.17200000000E+03 0. -1.
         -6    1    1    2    0  501 -0.57675793181E+02 -0.10408351455E+03  0.53134356420E+03  0.57102526944E+03  0.17200000000E+03 0.  1.
</event>
<event>
 4    1  0.6352740E-002  0.1760140E+03  0.7818608E-02  0.1171717E+00
         -1   -1    0    0    0  501 -0.00000000000E+00  0.00000000000E+00  0.55623573669E+03  0.55623573669E+03  0.00000000000E+00 0.  1.
          1   -1    0    0  502    0  0.00000000000E+00 -0.00000000000E+00 -0.21782160437E+03  0.21782160437E+03  0.00000000000E+00 0. -1.
          6    1    1    2  502    0  0.21448896559E+02  0.30608654145E+02 -0.16469295375E+03  0.24104919391E+03  0.17200000000E+03 0. -1.
         -6    1    1    2    0  501 -0.21448896559E+02 -0.30608654145E+02  0.50310708607E+03  0.53300814714E+03  0.17200000000E+03 0.  1.
</event>
<event>
 4    1  0.6352740E-002  0.3838622E+03  0.7818608E-02  0.1049515E+00
         -1   -1    0    0    0  501 -0.00000000000E+00  0.00000000000E+00  0.15639100751E+03  0.15639100751E+03  0.00000000000E+00 0.  1.
          1   -1    0    0  502    0  0.00000000000E+00 -0.00000000000E+00 -0.96389885240E+03  0.96389885240E+03  0.00000000000E+00 0. -1.
          6    1    1    2  502    0  0.10510556630E+02  0.34300980102E+03 -0.31969314807E+03  0.49955370514E+03  0.17200000000E+03 0.  1.
         -6    1    1    2    0  501 -0.10510556630E+02 -0.34300980102E+03 -0.48781469682E+03  0.62073615476E+03  0.17200000000E+03 0. -1.
</event>
<event>
 4    1  0.6352740E-002  0.3487914E+03  0.7818608E-02  0.1063112E+00
          2   -1    0    0  502    0  0.00000000000E+00  0.00000000000E+00  0.12413357012E+04  0.12413357012E+04  0.00000000000E+00 0. -1.
         -2   -1    0    0    0  501 -0.00000000000E+00 -0.00000000000E+00 -0.11775381249E+03  0.11775381249E+03  0.00000000000E+00 0.  1.
          6    1    1    2  502    0  0.73155073816E+02  0.29448225987E+03  0.28348941709E+03  0.44946825895E+03  0.17200000000E+03 0.  1.
         -6    1    1    2    0  501 -0.73155073816E+02 -0.29448225987E+03  0.84009247161E+03  0.90962125473E+03  0.17200000000E+03 0.  1.
</event>
<event>
 4    1  0.6352740E-002  0.2856827E+03  0.7818608E-02  0.1092625E+00
          1   -1    0    0  502    0  0.00000000000E+00  0.00000000000E+00  0.43073282759E+03  0.43073282759E+03  0.00000000000E+00 0. -1.
         -1   -1    0    0    0  501 -0.00000000000E+00 -0.00000000000E+00 -0.19794967483E+04  0.19794967483E+04  0.00000000000E+00 0.  1.
          6    1    1    2  502    0 -0.12873812641E+03  0.18830048606E+03  0.37160521508E+03  0.46872701449E+03  0.17200000000E+03 0. -1.
         -6    1    1    2    0  501  0.12873812641E+03 -0.18830048606E+03 -0.19203691358E+04  0.19415025614E+04  0.17200000000E+03 0.  1.
</event>
<event>
 4    1  0.6352740E-002  0.3077833E+03  0.7818608E-02  0.1081413E+00
         -1   -1    0    0    0  501 -0.00000000000E+00  0.00000000000E+00  0.18610628458E+03  0.18610628458E+03  0.00000000000E+00 0.  1.
          1   -1    0    0  502    0  0.00000000000E+00 -0.00000000000E+00 -0.52455161832E+03  0.52455161832E+03  0.00000000000E+00 0. -1.
          6    1    1    2  502    0 -0.25108664439E+03 -0.45848045905E+02 -0.23037887788E+03  0.38445412428E+03  0.17200000000E+03 0. -1.
         -6    1    1    2    0  501  0.25108664439E+03  0.45848045905E+02 -0.10806645585E+03  0.32620377862E+03  0.17200000000E+03 0.  1.
</event>
<event>
 4    1  0.6352740E-002  0.1885570E+03  0.7818608E-02  0.1159769E+00
          2   -1    0    0  502    0  0.00000000000E+00  0.00000000000E+00  0.14198789522E+03  0.14198789522E+03  0.00000000000E+00 0. -1.
         -2   -1    0    0    0  501 -0.00000000000E+00 -0.00000000000E+00 -0.27591611659E+03  0.27591611659E+03  0.00000000000E+00 0.  1.
          6    1    1    2  502    0  0.45929727088E+02 -0.62130605171E+02 -0.34213147718E+01  0.18858806252E+03  0.17200000000E+03 0. -1.
         -6    1    1    2    0  501 -0.45929727088E+02  0.62130605171E+02 -0.13050690660E+03  0.22931594929E+03  0.17200000000E+03 0.  1.
</event>
<event>
 4    1  0.6352740E-002  0.9432535E+03  0.7818608E-02  0.9373071E-01
         -2   -1    0    0    0  501 -0.00000000000E+00  0.00000000000E+00  0.12966412367E+04  0.12966412367E+04  0.00000000000E+00 0.  1.
          2   -1    0    0  502    0  0.00000000000E+00 -0.00000000000E+00 -0.68733390747E+03  0.68733390747E+03  0.00000000000E+00 0. -1.
          6    1    1    2  502    0 -0.85352783475E+03 -0.36281306016E+03  0.34532863598E+03  0.10044794414E+04  0.17200000000E+03 0. -1.
         -6    1    1    2    0  501  0.85352783475E+03  0.36281306016E+03  0.26397869325E+03  0.97949570280E+03  0.17200000000E+03 0.  1.
</event>
<event>
 4    1  0.6352740E-002  0.2329905E+03  0.7818608E-02  0.1124552E+00
         -1   -1    0    0    0  501 -0.00000000000E+00  0.00000000000E+00  0.45624805885E+02  0.45624805885E+02  0.00000000000E+00 0.  1.
          1   -1    0    0  502    0  0.00000000000E+00 -0.00000000000E+00 -0.13809985351E+04  0.13809985351E+04  0.00000000000E+00 0. -1.
          6    1    1    2  502    0 -0.14658362152E+03 -0.56690331840E+02 -0.93309918159E+03  0.96174769795E+03  0.17200000000E+03 0. -1.
         -6    1    1    2    0  501  0.14658362152E+03  0.56690331840E+02 -0.40227454763E+03  0.46487564304E+03  0.17200000000E+03 0.  1.
</event>
<event>
 4    1  0.6352740E-002  0.2241038E+03  0.7818608E-02  0.1130860E+00
          1   -1    0    0  502    0  0.00000000000E+00  0.00000000000E+00  0.11024708565E+04  0.11024708565E+04  0.00000000000E+00 0. -1.
         -1   -1    0    0    0  501 -0.00000000000E+00 -0.00000000000E+00 -0.46661848347E+02  0.46661848347E+02  0.00000000000E+00 0.  1.
          6    1    1    2  502    0  0.14365901303E+03  0.78901098705E+00  0.61641540042E+03  0.65588907632E+03  0.17200000000E+03 0. -1.
         -6    1    1    2    0  501 -0.14365901303E+03 -0.78901098705E+00  0.43939360772E+03  0.49324362851E+03  0.17200000000E+03 0.  1.
</event>
<event>
 4    1  0.6352740E-002  0.1883577E+03  0.7818608E-02  0.1159951E+00
         -2   -1    0    0    0  501 -0.00000000000E+00  0.00000000000E+00  0.18892955745E+02  0.18892955745E+02  0.00000000000E+00 0.  1.
          2   -1    0    0  502    0  0.00000000000E+00 -0.00000000000E+00 -0.19171738631E+04  0.19171738631E+04  0.00000000000E+00 0. -1.
          6    1    1    2  502    0 -0.69076989479E+01 -0.76464959457E+02 -0.10877363749E+04  0.11039243759E+04  0.17200000000E+03 0. -1.
         -6    1    1    2    0  501  0.69076989479E+01  0.76464959457E+02 -0.81054453246E+03  0.83214244299E+03  0.17200000000E+03 0.  1.
</event>
<event>
 4    1  0.6352740E-002  0.1762495E+03  0.7818608E-02  0.1171483E+00
         -2   -1    0    0    0  501 -0.00000000000E+00  0.00000000000E+00  0.22306560959E+02  0.22306560959E+02  0.00000000000E+00 0.  1.
          2   -1    0    0  502    0  0.00000000000E+00 -0.00000000000E+00 -0.24036834918E+04  0.24036834918E+04  0.00000000000E+00 0. -1.
          6    1    1    2  502    0  0.24254972125E+02  0.29859087090E+02 -0.19774013765E+04  0.19852405578E+04  0.17200000000E+03 0. -1.
         -6    1    1    2    0  501 -0.24254972125E+02 -0.29859087090E+02 -0.40397555432E+03  0.44074949489E+03  0.17200000000E+03 0.  1.
</event>
<event>
 4    1  0.6352740E-002  0.2010877E+03  0.7818608E-02  0.1148825E+00
          2   -1    0    0  502    0  0.00000000000E+00  0.00000000000E+00  0.86449670646E+03  0.86449670646E+03  0.00000000000E+00 0. -1.
         -2   -1    0    0    0  501 -0.00000000000E+00 -0.00000000000E+00 -0.50310772485E+02  0.50310772485E+02  0.00000000000E+00 0.  1.
          6    1    1    2  502    0  0.36840340099E+02 -0.97442647632E+02  0.28582372285E+03  0.34947314744E+03  0.17200000000E+03 0.  1.
         -6    1    1    2    0  501 -0.36840340099E+02  0.97442647632E+02  0.52836221112E+03  0.56533433151E+03  0.17200000000E+03 0. -1.
</event>
<event>
 4    1  0.6352740E-002  0.4571950E+03  0.7818608E-02  0.1025598E+00
         -1   -1    0    0    0  501 -0.00000000000E+00  0.00000000000E+00  0.28513482340E+03  0.28513482340E+03  0.00000000000E+00 0.  1.
          1   -1    0    0  502    0  0.00000000000E+00 -0.00000000000E+00 -0.75239835658E+03  0.75239835658E+03  0.00000000000E+00 0. -1.
          6    1    1    2  502    0 -0.31182861938E+03 -0.28671623072E+03 -0.31675216238E+03  0.55620069867E+03  0.17200000000E+03 0. -1.
         -6    1    1    2    0  501  0.31182861938E+03  0.28671623072E+03 -0.15051137080E+03  0.48133248131E+03  0.17200000000E+03 0.  1.
</event>
<event>
 4    1  0.6352740E-002  0.1745444E+03  0.7818608E-02  0.1173190E+00
          2   -1    0    0  502    0  0.00000000000E+00  0.00000000000E+00  0.67506692639E+03  0.67506692639E+03  0.00000000000E+00 0. -1.
         -2   -1    0    0    0  501 -0.00000000000E+00 -0.00000000000E+00 -0.73933254057E+02  0.73933254057E+02  0.00000000000E+00 0.  1.
          6    1    1    2  502    0  0.21925649724E+02 -0.20025566920E+02  0.53431754582E+03  0.56210408041E+03  0.17200000000E+03 0. -1.
         -6    1    1    2    0  501 -0.21925649724E+02  0.20025566920E+02  0.66816126516E+02  0.18689610004E+03  0.17200000000E+03 0.  1.
</event>
<event>
 4    1  0.6352740E-002  0.2221945E+03  0.7818608E-02  0.1132257E+00
          2   -1    0    0  502    0  0.00000000000E+00  0.00000000000E+00  0.69121215935E+03  0.69121215935E+03  0.00000000000E+00 0. -1.
         -2   -1    0    0    0  501 -0.00000000000E+00 -0.00000000000E+00 -0.71833863558E+02  0.71833863558E+02  0.00000000000E+00 0.  1.
          6    1    1    2  502    0  0.97052505646E+02 -0.10181949334E+03  0.28093455450E+03  0.35818238649E+03  0.17200000000E+03 0. -1.
         -6    1    1    2    0  501 -0.97052505646E+02  0.10181949334E+03  0.33844374129E+03  0.40486363642E+03  0.17200000000E+03 0.  1.
</event>
<event>
 4    1  0.6352740E-002  0.2165285E+03  0.7818608E-02  0.1136498E+00
          2   -1    0    0  502    0  0.00000000000E+00  0.00000000000E+00  0.49024829174E+04  0.49024829174E+04  0.00000000000E+00 0. -1.
         -2   -1    0    0    0  501 -0.00000000000E+00 -0.00000000000E+00 -0.98157770357E+01  0.98157770357E+01  0.00000000000E+00 0.  1.
          6    1    1    2  502    0  0.50404755941E+02  0.12149051195E+03  0.28401428688E+04  0.28483848229E+04  0.17200000000E+03 0. -1.
         -6    1    1    2    0  501 -0.50404755941E+02 -0.12149051195E+03  0.20525242716E+04  0.20639138716E+04  0.17200000000E+03 0.  1.
</event>
<event>
 4    1  0.6352740E-002  0.3011671E+03  0.7818608E-02  0.1084659E+00
          2   -1    0    0  502    0  0.00000000000E+00  0.00000000000E+00  0.26863397490E+04  0.26863397490E+04  0.00000000000E+00 0. -1.
         -2   -1    0    0    0  501 -0.00000000000E+00 -0.00000000000E+00 -0.30507922859E+03  0.30507922859E+03  0.00000000000E+00 0.  1.
          6    1    1    2  502    0  0.24572909239E+03 -0.27107640266E+02  0.26011462178E+04  0.26185231062E+04  0.17200000000E+03 0. -1.
         -6    1    1    2    0  501 -0.24572909239E+03  0.27107640266E+02 -0.21988569741E+03  0.37289587143E+03  0.17200000000E+03 0.  1.
</event>
<event>
 4    1  0.6352740E-002  0.2228854E+03  0.7818608E-02  0.1131750E+00
          2   -1    0    0  502    0  0.00000000000E+00  0.00000000000E+00  0.14493895074E+03  0.14493895074E+03  0.00000000000E+00 0. -1.
         -2   -1    0    0    0  501 -0.00000000000E+00 -0.00000000000E+00 -0.48930547160E+03  0.48930547160E+03  0.00000000000E+00 0.  1.
          6    1    1    2  502    0  0.97314722601E+01 -0.14141852476E+03  0.13716370735E+01  0.22288961861E+03  0.17200000000E+03 0. -1.
         -6    1    1    2    0  501 -0.97314722601E+01  0.14141852476E+03 -0.34573815794E+03  0.41135480373E+03  0.17200000000E+03 0.  1.
</event>
<event>
 4    1  0.6352740E-002  0.3274728E+03  0.7818608E-02  0.1072261E+00
         -2   -1    0    0    0  501 -0.00000000000E+00  0.00000000000E+00  0.10874943398E+03  0.10874943398E+03  0.00000000000E+00 0.  1.
          2   -1    0    0  502    0  0.00000000000E+00 -0.00000000000E+00 -0.10586670522E+04  0.10586670522E+04  0.00000000000E+00 0. -1.
          6    1    1    2  502    0  0.68567903200E+02 -0.27009788703E+03 -0.62777490789E+03  0.70805350144E+03  0.17200000000E+03 0. -1.
         -6    1    1    2    0  501 -0.68567903200E+02  0.27009788703E+03 -0.32214271030E+03  0.45936298471E+03  0.17200000000E+03 0.  1.
</event>
<event>
 4    1  0.6352740E-002  0.2114307E+03  0.7818608E-02  0.1140438E+00
         -2   -1    0    0    0  501 -0.00000000000E+00  0.00000000000E+00  0.79179221264E+02  0.79179221264E+02  0.00000000000E+00 0.  1.
          2   -1    0    0  502    0  0.00000000000E+00 -0.00000000000E+00 -0.58455707289E+03  0.58455707289E+03  0.00000000000E+00 0. -1.
          6    1    1    2  502    0 -0.10732926016E+02  0.12248981663E+03 -0.31404046066E+03  0.37858204105E+03  0.17200000000E+03 0. -1.
         -6    1    1    2    0  501  0.10732926016E+02 -0.12248981663E+03 -0.19133739097E+03  0.28515425310E+03  0.17200000000E+03 0.  1.
</event>
<event>
 4    1  0.6352740E-002  0.7988549E+03  0.7818608E-02  0.9561676E-01
          2   -1    0    0  502    0  0.00000000000E+00  0.00000000000E+00  0.26339036591E+04  0.26339036591E+04  0.00000000000E+00 0. -1.
         -2   -1    0    0    0  501 -0.00000000000E+00 -0.00000000000E+00 -0.24261577075E+03  0.24261577075E+03  0.00000000000E+00 0.  1.
          6    1    1    2  502    0 -0.53179539048E+03 -0.57077043150E+03  0.11429627883E+04  0.13944651872E+04  0.17200000000E+03 0. -1.
         -6    1    1    2    0  501  0.53179539048E+03  0.57077043150E+03  0.12483251001E+04  0.14820542427E+04  0.17200000000E+03 0.  1.
</event>
<event>
 4    1  0.6352740E-002  0.1869436E+03  0.7818608E-02  0.1161247E+00
         -4   -1    0    0    0  501 -0.00000000000E+00  0.00000000000E+00  0.82187128535E+02  0.82187128535E+02  0.00000000000E+00 0.  1.
          4   -1    0    0  502    0  0.00000000000E+00 -0.00000000000E+00 -0.48898601965E+03  0.48898601965E+03  0.00000000000E+00 0. -1.
          6    1    1    2  502    0 -0.59542777698E+02 -0.42644563100E+02 -0.30652639926E+03  0.35903528320E+03  0.17200000000E+03 0. -1.
         -6    1    1    2    0  501  0.59542777698E+02  0.42644563100E+02 -0.10027249185E+03  0.21213786498E+03  0.17200000000E+03 0.  1.
</event>
<event>
 4    1  0.6352740E-002  0.2127225E+03  0.7818608E-02  0.1139428E+00
          1   -1    0    0  502    0  0.00000000000E+00  0.00000000000E+00  0.29551198064E+03  0.29551198064E+03  0.00000000000E+00 0. -1.
         -1   -1    0    0    0  501 -0.00000000000E+00 -0.00000000000E+00 -0.15359590794E+03  0.15359590794E+03  0.00000000000E+00 0.  1.
          6    1    1    2  502    0 -0.65717748836E+01 -0.12499464480E+03  0.58550202129E+02  0.22063312449E+03  0.17200000000E+03 0.  1.
         -6    1    1    2    0  501  0.65717748836E+01  0.12499464480E+03  0.83365870572E+02  0.22847476410E+03  0.17200000000E+03 0.  1.
</event>
<event>
 4    1  0.6352740E-002  0.2838527E+03  0.7818608E-02  0.1093603E+00
         -2   -1    0    0    0  501 -0.00000000000E+00  0.00000000000E+00  0.24873320180E+03  0.24873320180E+03  0.00000000000E+00 0.  1.
          2   -1    0    0  502    0  0.00000000000E+00 -0.00000000000E+00 -0.46372347116E+03  0.46372347116E+03  0.00000000000E+00 0. -1.
          6    1    1    2  502    0  0.69809614684E+02  0.21474395968E+03 -0.30308263276E+03  0.41524863973E+03  0.17200000000E+03 0. -1.
         -6    1    1    2    0  501 -0.69809614684E+02 -0.21474395968E+03  0.88092363402E+02  0.29720803322E+03  0.17200000000E+03 0.  1.
</event>
<event>
 4    1  0.6352740E-002  0.3018126E+03  0.7818608E-02  0.1084338E+00
          2   -1    0    0  502    0  0.00000000000E+00  0.00000000000E+00  0.82349176069E+03  0.82349176069E+03  0.00000000000E+00 0. -1.
         -2   -1    0    0    0  501 -0.00000000000E+00 -0.00000000000E+00 -0.11110187172E+03  0.11110187172E+03  0.00000000000E+00 0.  1.
          6    1    1    2  502    0  0.98717003515E+02  0.22751213860E+03  0.32527146791E+03  0.44372553209E+03  0.17200000000E+03 0. -1.
         -6    1    1    2    0  501 -0.98717003515E+02 -0.22751213860E+03  0.38711842105E+03  0.49086810032E+03  0.17200000000E+03 0.  1.
</event>
<event>
 4    1  0.6352740E-002  0.2140896E+03  0.7818608E-02  0.1138368E+00
         -3   -1    0    0    0  501 -0.00000000000E+00  0.00000000000E+00  0.52458536117E+03  0.52458536117E+03  0.00000000000E+00 0.  1.
          3   -1    0    0  502    0  0.00000000000E+00 -0.00000000000E+00 -0.89128734411E+02  0.89128734411E+02  0.00000000000E+00 0. -1.
          6    1    1    2  502    0  0.54765780461E+02 -0.11511331511E+03  0.17465472675E+03  0.27629447986E+03  0.17200000000E+03 0. -1.
         -6    1    1    2    0  501 -0.54765780461E+02  0.11511331511E+03  0.26080190000E+03  0.33741961572E+03  0.17200000000E+03 0.  1.
</event>
<event>
 4    1  0.6352740E-002  0.2872395E+03  0.7818608E-02  0.1091799E+00
          2   -1    0    0  502    0  0.00000000000E+00  0.00000000000E+00  0.17424227021E+04  0.17424227021E+04  0.00000000000E+00 0. -1.
         -2   -1    0    0    0  501 -0.00000000000E+00 -0.00000000000E+00 -0.49527669468E+02  0.49527669468E+02  0.00000000000E+00 0.  1.
          6    1    1    2  502    0  0.12884178281E+03  0.19058417088E+03  0.10342523599E+04  0.10733985630E+04  0.17200000000E+03 0. -1.
         -6    1    1    2    0  501 -0.12884178281E+03 -0.19058417088E+03  0.65864267270E+03  0.71855180849E+03  0.17200000000E+03 0.  1.
</event>
<event>
 4    1  0.6352740E-002  0.2271984E+03  0.7818608E-02  0.1128627E+00
          3   -1    0    0  502    0  0.00000000000E+00  0.00000000000E+00  0.75903068097E+02  0.75903068097E+02  0.00000000000E+00 0. -1.
         -3   -1    0    0    0  501 -0.00000000000E+00 -0.00000000000E+00 -0.68035174316E+03  0.68035174316E+03  0.00000000000E+00 0.  1.
          6    1    1    2  502    0  0.94439537589E+02 -0.11452634254E+03 -0.30997117160E+03  0.38431918586E+03  0.17200000000E+03 0. -1.
         -6    1    1    2    0  501 -0.94439537589E+02  0.11452634254E+03 -0.29447750347E+03  0.37193562540E+03  0.17200000000E+03 0.  1.
</event>
<event>
 4    1  0.6352740E-002  0.2384829E+03  0.7818608E-02  0.1120808E+00
          1   -1    0    0  502    0  0.00000000000E+00  0.00000000000E+00  0.23663536369E+03  0.23663536369E+03  0.00000000000E+00 0. -1.
         -1   -1    0    0    0  501 -0.00000000000E+00 -0.00000000000E+00 -0.25475133723E+03  0.25475133723E+03  0.00000000000E+00 0.  1.
          6    1    1    2  502    0  0.14212331427E+03  0.84208408077E+02  0.49369085260E+02  0.24353931721E+03  0.17200000000E+03 0. -1.
         -6    1    1    2    0  501 -0.14212331427E+03 -0.84208408077E+02 -0.67485058793E+02  0.24784738371E+03  0.17200000000E+03 0.  1.
</event>
<event>
 4    1  0.6352740E-002  0.7697077E+03  0.7818608E-02  0.9604929E-01
          1   -1    0    0  502    0  0.00000000000E+00  0.00000000000E+00  0.47200402811E+03  0.47200402811E+03  0.00000000000E+00 0. -1.
         -1   -1    0    0    0  501 -0.00000000000E+00 -0.00000000000E+00 -0.14114861637E+04  0.14114861637E+04  0.00000000000E+00 0.  1.
          6    1    1    2  502    0  0.65393338078E+03  0.36774595372E+03 -0.15635239711E+03  0.78542728820E+03  0.17200000000E+03 0. -1.
         -6    1    1    2    0  501 -0.65393338078E+03 -0.36774595372E+03 -0.78312973846E+03  0.10980629036E+04  0.17200000000E+03 0.  1.
</event>
<event>
 4    1  0.6352740E-002  0.1769275E+03  0.7818608E-02  0.1170810E+00
         -2   -1    0    0    0  501 -0.00000000000E+00  0.00000000000E+00  0.10583826592E+02  0.10583826592E+02  0.00000000000E+00 0.  1.
          2   -1    0    0  502    0  0.00000000000E+00 -0.00000000000E+00 -0.30466568737E+04  0.30466568737E+04  0.00000000000E+00 0. -1.
          6    1    1    2  502    0 -0.39919207289E+02  0.11216339754E+02 -0.12567735806E+04  0.12691663336E+04  0.17200000000E+03 0.  1.
         -6    1    1    2    0  501  0.39919207289E+02 -0.11216339754E+02 -0.17792994665E+04  0.17880743667E+04  0.17200000000E+03 0. -1.
</event>
<event>
 4    1  0.6352740E-002  0.2198424E+03  0.7818608E-02  0.1134001E+00
         -2   -1    0    0    0  501 -0.00000000000E+00  0.00000000000E+00  0.84188986271E+02  0.84188986271E+02  0.00000000000E+00 0.  1.
          2   -1    0    0  502    0  0.00000000000E+00 -0.00000000000E+00 -0.80885600928E+03  0.80885600928E+03  0.00000000000E+00 0. -1.
          6    1    1    2  502    0 -0.10103955521E+03  0.92399546240E+02 -0.60290302331E+03  0.64173415320E+03  0.17200000000E+03 0. -1.
         -6    1    1    2    0  501  0.10103955521E+03 -0.92399546240E+02 -0.12176399970E+03  0.25131084235E+03  0.17200000000E+03 0.  1.
</event>
<event>
 4    1  0.6352740E-002  0.3621212E+03  0.7818608E-02  0.1057747E+00
          2   -1    0    0  502    0  0.00000000000E+00  0.00000000000E+00  0.31471989576E+04  0.31471989576E+04  0.00000000000E+00 0. -1.
         -2   -1    0    0    0  501 -0.00000000000E+00 -0.00000000000E+00 -0.47675275664E+02  0.47675275664E+02  0.00000000000E+00 0.  1.
          6    1    1    2  502    0  0.41151580481E+02 -0.31599733195E+03  0.21168905473E+04  0.21476399502E+04  0.17200000000E+03 0. -1.
         -6    1    1    2    0  501 -0.41151580481E+02  0.31599733195E+03  0.98263313465E+03  0.10472342831E+04  0.17200000000E+03 0.  1.
</event>
<event>
 4    1  0.6352740E-002  0.1740327E+03  0.7818608E-02  0.1173706E+00
         -2   -1    0    0    0  501 -0.00000000000E+00  0.00000000000E+00  0.10034216204E+02  0.10034216204E+02  0.00000000000E+00 0.  1.
          2   -1    0    0  502    0  0.00000000000E+00 -0.00000000000E+00 -0.31155508738E+04  0.31155508738E+04  0.00000000000E+00 0. -1.
          6    1    1    2  502    0  0.37670273248E+01  0.26252364486E+02 -0.18287113931E+04  0.18369737985E+04  0.17200000000E+03 0. -1.
         -6    1    1    2    0  501 -0.37670273248E+01 -0.26252364486E+02 -0.12768052645E+04  0.12886112915E+04  0.17200000000E+03 0.  1.
</event>
<event>
 4    1  0.6352740E-002  0.1834459E+03  0.7818608E-02  0.1164509E+00
         -3   -1    0    0    0  501 -0.00000000000E+00  0.00000000000E+00  0.10983755003E+03  0.10983755003E+03  0.00000000000E+00 0.  1.
          3   -1    0    0  502    0  0.00000000000E+00 -0.00000000000E+00 -0.30664077504E+03  0.30664077504E+03  0.00000000000E+00 0. -1.
          6    1    1    2  502    0 -0.25021626936E+02 -0.58671165097E+02 -0.92367092096E+02  0.20538760218E+03  0.17200000000E+03 0.  1.
         -6    1    1    2    0  501  0.25021626936E+02  0.58671165097E+02 -0.10443613292E+03  0.21109072288E+03  0.17200000000E+03 0. -1.
</event>
<event>
 4    1  0.6352740E-002  0.2620857E+03  0.7818608E-02  0.1105897E+00
         -1   -1    0    0    0  501 -0.00000000000E+00  0.00000000000E+00  0.10527810310E+04  0.10527810310E+04  0.00000000000E+00 0.  1.
          1   -1    0    0  502    0  0.00000000000E+00 -0.00000000000E+00 -0.80191823992E+02  0.80191823992E+02  0.00000000000E+00 0. -1.
          6    1    1    2  502    0 -0.12731747302E+03  0.15131151687E+03  0.73086052808E+03  0.77643159749E+03  0.17200000000E+03 0.  1.
         -6    1    1    2    0  501  0.12731747302E+03 -0.15131151687E+03  0.24172867888E+03  0.35654125746E+03  0.17200000000E+03 0.  1.
</event>
<event>
 4    1  0.6352740E-002  0.1878737E+03  0.7818608E-02  0.1160393E+00
         -1   -1    0    0    0  501 -0.00000000000E+00  0.00000000000E+00  0.96156706788E+03  0.96156706788E+03  0.00000000000E+00 0.  1.
          1   -1    0    0  502    0  0.00000000000E+00 -0.00000000000E+00 -0.36900608573E+03  0.36900608573E+03  0.00000000000E+00 0. -1.
          6    1    1    2  502    0 -0.35911553552E+02  0.66504803271E+02 -0.33504943390E+03  0.38412843125E+03  0.17200000000E+03 0. -1.
         -6    1    1    2    0  501  0.35911553552E+02 -0.66504803271E+02  0.92761041605E+03  0.94644472237E+03  0.17200000000E+03 0.  1.
</event>
<event>
 4    1  0.6352740E-002  0.2051985E+03  0.7818608E-02  0.1145426E+00
         -2   -1    0    0    0  501 -0.00000000000E+00  0.00000000000E+00  0.57307881305E+02  0.57307881305E+02  0.00000000000E+00 0.  1.
          2   -1    0    0  502    0  0.00000000000E+00 -0.00000000000E+00 -0.86847710735E+03  0.86847710735E+03  0.00000000000E+00 0. -1.
          6    1    1    2  502    0  0.69079538579E+02 -0.88036523847E+02 -0.22393839403E+03  0.30373477987E+03  0.17200000000E+03 0.  1.
         -6    1    1    2    0  501 -0.69079538579E+02  0.88036523847E+02 -0.58723083202E+03  0.62205020879E+03  0.17200000000E+03 0.  1.
</event>
<event>
 4    1  0.6352740E-002  0.2749593E+03  0.7818608E-02  0.1098474E+00
          2   -1    0    0  502    0  0.00000000000E+00  0.00000000000E+00  0.26944881935E+03  0.26944881935E+03  0.00000000000E+00 0. -1.
         -2   -1    0    0    0  501 -0.00000000000E+00 -0.00000000000E+00 -0.90842871886E+03  0.90842871886E+03  0.00000000000E+00 0.  1.
          6    1    1    2  502    0  0.17928092647E+03  0.11780057794E+03  0.17012126143E+03  0.32333244556E+03  0.17200000000E+03 0. -1.
         -6    1    1    2    0  501 -0.17928092647E+03 -0.11780057794E+03 -0.80910116094E+03  0.85454509266E+03  0.17200000000E+03 0.  1.
</event>
<event>
 4    1  0.6352740E-002  0.9167165E+03  0.7818608E-02  0.9404923E-01
         -2   -1    0    0    0  501 -0.00000000000E+00  0.00000000000E+00  0.12198810257E+04  0.12198810257E+04  0.00000000000E+00 0.  1.
          2   -1    0    0  502    0  0.00000000000E+00 -0.00000000000E+00 -0.68904619269E+03  0.68904619269E+03  0.00000000000E+00 0. -1.
          6    1    1    2  502    0  0.58839280723E+03  0.68160037487E+03  0.27958540913E+03  0.95840344721E+03  0.17200000000E+03 0. -1.
         -6    1    1    2    0  501 -0.58839280723E+03 -0.68160037487E+03  0.25124942391E+03  0.95052377121E+03  0.17200000000E+03 0.  1.
</event>
<event>
 4    1  0.6352740E-002  0.1790704E+03  0.7818608E-02  0.1168706E+00
          2   -1    0    0  502    0  0.00000000000E+00  0.00000000000E+00  0.15702072669E+04  0.15702072669E+04  0.00000000000E+00 0. -1.
         -2   -1    0    0    0  501 -0.00000000000E+00 -0.00000000000E+00 -0.59090793568E+02  0.59090793568E+02  0.00000000000E+00 0.  1.
          6    1    1    2  502    0 -0.48359786696E+02  0.11980124899E+02  0.14145697785E+04  0.14258589869E+04  0.17200000000E+03 0. -1.
         -6    1    1    2    0  501  0.48359786696E+02 -0.11980124899E+02  0.96546694844E+02  0.20343907355E+03  0.17200000000E+03 0.  1.
</event>
<event>
 4    1  0.6352740E-002  0.2059919E+03  0.7818608E-02  0.1144780E+00
         -4   -1    0    0    0  501 -0.00000000000E+00  0.00000000000E+00  0.12379239552E+03  0.12379239552E+03  0.00000000000E+00 0.  1.
          4   -1    0    0  502    0  0.00000000000E+00 -0.00000000000E+00 -0.57251530571E+03  0.57251530571E+03  0.00000000000E+00 0. -1.
          6    1    1    2  502    0 -0.11107327036E+03  0.22613697725E+02 -0.38158307483E+01  0.20602721004E+03  0.17200000000E+03 0.  1.
         -6    1    1    2    0  501  0.11107327036E+03 -0.22613697725E+02 -0.44490707944E+03  0.49028049120E+03  0.17200000000E+03 0. -1.
</event>
<event>
 4    1  0.6352740E-002  0.3550740E+03  0.7818608E-02  0.1060552E+00
          1   -1    0    0  502    0  0.00000000000E+00  0.00000000000E+00  0.40491732433E+03  0.40491732433E+03  0.00000000000E+00 0. -1.
         -1   -1    0    0    0  501 -0.00000000000E+00 -0.00000000000E+00 -0.69735884133E+03  0.69735884133E+03  0.00000000000E+00 0.  1.
          6    1    1    2  502    0  0.15813805132E+03 -0.26736845692E+03  0.26381508713E+03  0.44235272717E+03  0.17200000000E+03 0.  1.
         -6    1    1    2    0  501 -0.15813805132E+03  0.26736845692E+03 -0.55625660413E+03  0.65992343849E+03  0.17200000000E+03 0.  1.
</event>
<event>
 4    1  0.6352740E-002  0.1746617E+03  0.7818608E-02  0.1173072E+00
         -1   -1    0    0    0  501 -0.00000000000E+00  0.00000000000E+00  0.22012115150E+02  0.22012115150E+02  0.00000000000E+00 0.  1.
          1   -1    0    0  502    0  0.00000000000E+00 -0.00000000000E+00 -0.13978620732E+04  0.13978620732E+04  0.00000000000E+00 0. -1.
          6    1    1    2  502    0 -0.83949029445E+01 -0.29192804986E+02 -0.75358564100E+03  0.77356189965E+03  0.17200000000E+03 0.  1.
         -6    1    1    2    0  501  0.83949029445E+01  0.29192804986E+02 -0.62226431700E+03  0.64631228866E+03  0.17200000000E+03 0.  1.
</event>
<event>
 4    1  0.6352740E-002  0.2790140E+03  0.7818608E-02  0.1096229E+00
          2   -1    0    0  502    0  0.00000000000E+00  0.00000000000E+00  0.74012207075E+02  0.74012207075E+02  0.00000000000E+00 0. -1.
         -2   -1    0    0    0  501 -0.00000000000E+00 -0.00000000000E+00 -0.16502174921E+04  0.16502174921E+04  0.00000000000E+00 0.  1.
          6    1    1    2  502    0 -0.39016081776E+02  0.21620025613E+03 -0.26896429440E+03  0.38754431624E+03  0.17200000000E+03 0. -1.
         -6    1    1    2    0  501  0.39016081776E+02 -0.21620025613E+03 -0.13072409906E+04  0.13366853829E+04  0.17200000000E+03 0.  1.
</event>
<event>
 4    1  0.6352740E-002  0.3194760E+03  0.7818608E-02  0.1075891E+00
          2   -1    0    0  502    0  0.00000000000E+00  0.00000000000E+00  0.16722095401E+03  0.16722095401E+03  0.00000000000E+00 0. -1.
         -2   -1    0    0    0  501 -0.00000000000E+00 -0.00000000000E+00 -0.73989020975E+03  0.73989020975E+03  0.00000000000E+00 0.  1.
          6    1    1    2  502    0  0.94298877481E+02  0.25216791400E+03 -0.96562304449E+02  0.33375022665E+03  0.17200000000E+03 0. -1.
         -6    1    1    2    0  501 -0.94298877481E+02 -0.25216791400E+03 -0.47610695129E+03  0.57336093712E+03  0.17200000000E+03 0.  1.
</event>
<event>
 4    1  0.6352740E-002  0.3893901E+03  0.7818608E-02  0.1047517E+00
         -1   -1    0    0    0  501 -0.00000000000E+00  0.00000000000E+00  0.84107639537E+03  0.84107639537E+03  0.00000000000E+00 0.  1.
          1   -1    0    0  502    0  0.00000000000E+00 -0.00000000000E+00 -0.30048176857E+03  0.30048176857E+03  0.00000000000E+00 0. -1.
          6    1    1    2  502    0 -0.16150630611E+03  0.30976817991E+03 -0.90716966481E+02  0.39981768371E+03  0.17200000000E+03 0. -1.
         -6    1    1    2    0  501  0.16150630611E+03 -0.30976817991E+03  0.63131159328E+03  0.74174048023E+03  0.17200000000E+03 0.  1.
</event>
<event>
 4    1  0.6352740E-002  0.2427728E+03  0.7818608E-02  0.1117959E+00
          2   -1    0    0  502    0  0.00000000000E+00  0.00000000000E+00  0.37509183524E+03  0.37509183524E+03  0.00000000000E+00 0. -1.
         -2   -1    0    0    0  501 -0.00000000000E+00 -0.00000000000E+00 -0.18043872805E+03  0.18043872805E+03  0.00000000000E+00 0.  1.
          6    1    1    2  502    0 -0.16674013132E+03  0.39399904967E+02  0.19715661696E+03  0.31274487289E+03  0.17200000000E+03 0. -1.
         -6    1    1    2    0  501  0.16674013132E+03 -0.39399904967E+02 -0.25035097646E+01  0.24278569040E+03  0.17200000000E+03 0.  1.
</event>
<event>
 4    1  0.6352740E-002  0.3094291E+03  0.7818608E-02  0.1080620E+00
         -2   -1    0    0    0  501 -0.00000000000E+00  0.00000000000E+00  0.31293593669E+02  0.31293593669E+02  0.00000000000E+00 0.  1.
          2   -1    0    0  502    0  0.00000000000E+00 -0.00000000000E+00 -0.30691762589E+04  0.30691762589E+04  0.00000000000E+00 0. -1.
          6    1    1    2  502    0  0.19365125209E+03  0.16929728848E+03 -0.16054623940E+04  0.16350094428E+04  0.17200000000E+03 0. -1.
         -6    1    1    2    0  501 -0.19365125209E+03 -0.16929728848E+03 -0.14324202712E+04  0.14654604098E+04  0.17200000000E+03 0.  1.
</event>
<event>
 4    1  0.6352740E-002  0.2237550E+03  0.7818608E-02  0.1131114E+00
         -2   -1    0    0    0  501 -0.00000000000E+00  0.00000000000E+00  0.23821377845E+03  0.23821377845E+03  0.00000000000E+00 0.  1.
          2   -1    0    0  502    0  0.00000000000E+00 -0.00000000000E+00 -0.41232542101E+03  0.41232542101E+03  0.00000000000E+00 0. -1.
          6    1    1    2  502    0 -0.13750810431E+03 -0.39671431166E+02 -0.31480771983E+03  0.38622558391E+03  0.17200000000E+03 0. -1.
         -6    1    1    2    0  501  0.13750810431E+03  0.39671431166E+02  0.14069607727E+03  0.26431361555E+03  0.17200000000E+03 0.  1.
</event>
<event>
 4    1  0.6352740E-002  0.2163484E+03  0.7818608E-02  0.1136635E+00
          2   -1    0    0  502    0  0.00000000000E+00  0.00000000000E+00  0.98028325581E+03  0.98028325581E+03  0.00000000000E+00 0. -1.
         -2   -1    0    0    0  501 -0.00000000000E+00 -0.00000000000E+00 -0.47873081574E+02  0.47873081574E+02  0.00000000000E+00 0.  1.
          6    1    1    2  502    0  0.28991285625E+02  0.12799269303E+03  0.49247600511E+03  0.53790263033E+03  0.17200000000E+03 0.  1.
         -6    1    1    2    0  501 -0.28991285625E+02 -0.12799269303E+03  0.43993416913E+03  0.49025370705E+03  0.17200000000E+03 0. -1.
</event>
<event>
 4    1  0.6352740E-002  0.3040012E+03  0.7818608E-02  0.1083257E+00
         -1   -1    0    0    0  501 -0.00000000000E+00  0.00000000000E+00  0.42576088730E+02  0.42576088730E+02  0.00000000000E+00 0.  1.
          1   -1    0    0  502    0  0.00000000000E+00 -0.00000000000E+00 -0.27314959865E+04  0.27314959865E+04  0.00000000000E+00 0. -1.
          6    1    1    2  502    0  0.16538196022E+03 -0.18836551037E+03 -0.19729792583E+04  0.19962624858E+04  0.17200000000E+03 0. -1.
         -6    1    1    2    0  501 -0.16538196022E+03  0.18836551037E+03 -0.71594063942E+03  0.77780958944E+03  0.17200000000E+03 0.  1.
</event>
<event>
 4    1  0.6352740E-002  0.2281025E+03  0.7818608E-02  0.1127982E+00
          1   -1    0    0  502    0  0.00000000000E+00  0.00000000000E+00  0.60446225679E+03  0.60446225679E+03  0.00000000000E+00 0. -1.
         -1   -1    0    0    0  501 -0.00000000000E+00 -0.00000000000E+00 -0.92421339601E+02  0.92421339601E+02  0.00000000000E+00 0.  1.
          6    1    1    2  502    0 -0.14833458704E+03 -0.21062313557E+02  0.34730779557E+03  0.41551591501E+03  0.17200000000E+03 0. -1.
         -6    1    1    2    0  501  0.14833458704E+03  0.21062313557E+02  0.16473312162E+03  0.28136768138E+03  0.17200000000E+03 0.  1.
</event>
<event>
 4    1  0.6352740E-002  0.3731944E+03  0.7818608E-02  0.1053478E+00
          2   -1    0    0  502    0  0.00000000000E+00  0.00000000000E+00  0.31684202505E+04  0.31684202505E+04  0.00000000000E+00 0. -1.
         -2   -1    0    0    0  501 -0.00000000000E+00 -0.00000000000E+00 -0.46606442975E+02  0.46606442975E+02  0.00000000000E+00 0.  1.
          6    1    1    2  502    0 -0.31670941903E+03  0.96877137705E+02  0.19441853588E+04  0.19796794552E+04  0.17200000000E+03 0. -1.
         -6    1    1    2    0  501  0.31670941903E+03 -0.96877137705E+02  0.11776284488E+04  0.12353472384E+04  0.17200000000E+03 0.  1.
</event>
<event>
 4    1  0.6352740E-002  0.3595117E+03  0.7818608E-02  0.1058777E+00
         -1   -1    0    0    0  501 -0.00000000000E+00  0.00000000000E+00  0.64514063391E+03  0.64514063391E+03  0.00000000000E+00 0.  1.
          1   -1    0    0  502    0  0.00000000000E+00 -0.00000000000E+00 -0.42152689861E+03  0.42152689861E+03  0.00000000000E+00 0. -1.
          6    1    1    2  502    0  0.28766817560E+03 -0.13004493314E+03 -0.27452837151E+03  0.45234333272E+03  0.17200000000E+03 0.  1.
         -6    1    1    2    0  501 -0.28766817560E+03  0.13004493314E+03  0.49814210681E+03  0.61432419981E+03  0.17200000000E+03 0.  1.
</event>
<event>
 4    1  0.6352740E-002  0.1771567E+03  0.7818608E-02  0.1170584E+00
         -1   -1    0    0    0  501 -0.00000000000E+00  0.00000000000E+00  0.15966001256E+03  0.15966001256E+03  0.00000000000E+00 0.  1.
          1   -1    0    0  502    0  0.00000000000E+00 -0.00000000000E+00 -0.59018690285E+03  0.59018690285E+03  0.00000000000E+00 0. -1.
          6    1    1    2  502    0 -0.19691119112E+02 -0.37586690096E+02 -0.52144868277E+03  0.55072064444E+03  0.17200000000E+03 0. -1.
         -6    1    1    2    0  501  0.19691119112E+02  0.37586690096E+02  0.90921792477E+02  0.19912627097E+03  0.17200000000E+03 0.  1.
</event>
<event>
 4    1  0.6352740E-002  0.1776728E+03  0.7818608E-02  0.1170075E+00
          1   -1    0    0  502    0  0.00000000000E+00  0.00000000000E+00  0.12894129974E+04  0.12894129974E+04  0.00000000000E+00 0. -1.
         -1   -1    0    0    0  501 -0.00000000000E+00 -0.00000000000E+00 -0.24501114304E+02  0.24501114304E+02  0.00000000000E+00 0.  1.
          6    1    1    2  502    0 -0.18331497731E+02  0.40590274850E+02  0.65072884827E+03  0.67454847727E+03  0.17200000000E+03 0. -1.
         -6    1    1    2    0  501  0.18331497731E+02 -0.40590274850E+02  0.61418303479E+03  0.63936563439E+03  0.17200000000E+03 0. -1.
</event>
<event>
 4    1  0.6352740E-002  0.3128967E+03  0.7818608E-02  0.1078966E+00
         -2   -1    0    0    0  501 -0.00000000000E+00  0.00000000000E+00  0.86281055182E+02  0.86281055182E+02  0.00000000000E+00 0.  1.
          2   -1    0    0  502    0  0.00000000000E+00 -0.00000000000E+00 -0.11923169969E+04  0.11923169969E+04  0.00000000000E+00 0. -1.
          6    1    1    2  502    0  0.19267657905E+03  0.17662404160E+03 -0.41250030207E+03  0.51774589848E+03  0.17200000000E+03 0. -1.
         -6    1    1    2    0  501 -0.19267657905E+03 -0.17662404160E+03 -0.69353563967E+03  0.76085215362E+03  0.17200000000E+03 0. -1.
</event>
<event>
 4    1  0.6352740E-002  0.3882829E+03  0.7818608E-02  0.1047914E+00
         -1   -1    0    0    0  501 -0.00000000000E+00  0.00000000000E+00  0.21491817383E+03  0.21491817383E+03  0.00000000000E+00 0.  1.
          1   -1    0    0  502    0  0.00000000000E+00 -0.00000000000E+00 -0.19625390795E+04  0.19625390795E+04  0.00000000000E+00 0. -1.
          6    1    1    2  502    0 -0.21514797411E+01  0.34810198379E+03 -0.17465324915E+04  0.17891728155E+04  0.17200000000E+03 0. -1.
         -6    1    1    2    0  501  0.21514797411E+01 -0.34810198379E+03 -0.10884141637E+01  0.38828443779E+03  0.17200000000E+03 0.  1.
</event>
<event>
 4    1  0.6352740E-002  0.1731231E+03  0.7818608E-02  0.1174630E+00
         -2   -1    0    0    0  501 -0.00000000000E+00  0.00000000000E+00  0.12742497455E+02  0.12742497455E+02  0.00000000000E+00 0.  1.
          2   -1    0    0  502    0  0.00000000000E+00 -0.00000000000E+00 -0.26209765215E+04  0.26209765215E+04  0.00000000000E+00 0. -1.
          6    1    1    2  502    0 -0.14592263362E+02  0.13216043949E+02 -0.17258972617E+04  0.17345584325E+04  0.17200000000E+03 0. -1.
         -6    1    1    2    0  501  0.14592263362E+02 -0.13216043949E+02 -0.88233676234E+03  0.89916058640E+03  0.17200000000E+03 0.  1.
</event>
<event>
 4    1  0.6352740E-002  0.2718216E+03  0.7818608E-02  0.1100242E+00
          1   -1    0    0  502    0  0.00000000000E+00  0.00000000000E+00  0.48294618099E+03  0.48294618099E+03  0.00000000000E+00 0. -1.
         -1   -1    0    0    0  501 -0.00000000000E+00 -0.00000000000E+00 -0.20432791927E+03  0.20432791927E+03  0.00000000000E+00 0.  1.
          6    1    1    2  502    0 -0.14381581632E+03 -0.15368792024E+03  0.31155397842E+03  0.41346444505E+03  0.17200000000E+03 0. -1.
         -6    1    1    2    0  501  0.14381581632E+03  0.15368792024E+03 -0.32935716700E+02  0.27380965521E+03  0.17200000000E+03 0.  1.
</event>
<event>
 4    1  0.6352740E-002  0.4148483E+03  0.7818608E-02  0.1038756E+00
         -1   -1    0    0    0  501 -0.00000000000E+00  0.00000000000E+00  0.57982792719E+03  0.57982792719E+03  0.00000000000E+00 0.  1.
          1   -1    0    0  502    0  0.00000000000E+00 -0.00000000000E+00 -0.31089398089E+03  0.31089398089E+03  0.00000000000E+00 0. -1.
          6    1    1    2  502    0  0.16755313826E+03  0.33829137283E+03  0.39677831539E+02  0.41674145149E+03  0.17200000000E+03 0. -1.
         -6    1    1    2    0  501 -0.16755313826E+03 -0.33829137283E+03  0.22925611477E+03  0.47398045659E+03  0.17200000000E+03 0.  1.
</event>
<event>
 4    1  0.6352740E-002  0.2437520E+03  0.7818608E-02  0.1117318E+00
          2   -1    0    0  502    0  0.00000000000E+00  0.00000000000E+00  0.63563888834E+03  0.63563888834E+03  0.00000000000E+00 0. -1.
         -2   -1    0    0    0  501 -0.00000000000E+00 -0.00000000000E+00 -0.12243833967E+03  0.12243833967E+03  0.00000000000E+00 0.  1.
          6    1    1    2  502    0 -0.15987942575E+03 -0.65342376857E+02  0.44095923483E+03  0.50384531731E+03  0.17200000000E+03 0. -1.
         -6    1    1    2    0  501  0.15987942575E+03  0.65342376857E+02  0.72241313838E+02  0.25423191070E+03  0.17200000000E+03 0. -1.
</event>
<event>
 4    1  0.6352740E-002  0.1866917E+03  0.7818608E-02  0.1161480E+00
         -2   -1    0    0    0  501 -0.00000000000E+00  0.00000000000E+00  0.91438928480E+02  0.91438928480E+02  0.00000000000E+00 0.  1.
          2   -1    0    0  502    0  0.00000000000E+00 -0.00000000000E+00 -0.52148820517E+03  0.52148820517E+03  0.00000000000E+00 0. -1.
          6    1    1    2  502    0  0.72528087540E+02  0.30759937192E+01 -0.37399401360E+03  0.41800156391E+03  0.17200000000E+03 0. -1.
         -6    1    1    2    0  501 -0.72528087540E+02 -0.30759937192E+01 -0.56055263089E+02  0.19492556974E+03  0.17200000000E+03 0.  1.
</event>
<event>
 4    1  0.6352740E-002  0.2722196E+03  0.7818608E-02  0.1100016E+00
          1   -1    0    0  502    0  0.00000000000E+00  0.00000000000E+00  0.40310932978E+02  0.40310932978E+02  0.00000000000E+00 0. -1.
         -1   -1    0    0    0  501 -0.00000000000E+00 -0.00000000000E+00 -0.19898724585E+04  0.19898724585E+04  0.00000000000E+00 0.  1.
          6    1    1    2  502    0 -0.15915979656E+03 -0.13851955865E+03 -0.69462109486E+03  0.74605762136E+03  0.17200000000E+03 0. -1.
         -6    1    1    2    0  501  0.15915979656E+03  0.13851955865E+03 -0.12549404306E+04  0.12841257701E+04  0.17200000000E+03 0.  1.
</event>
<event>
 4    1  0.6352740E-002  0.2535355E+03  0.7818608E-02  0.1111091E+00
         -1   -1    0    0    0  501 -0.00000000000E+00  0.00000000000E+00  0.98509786318E+02  0.98509786318E+02  0.00000000000E+00 0.  1.
          1   -1    0    0  502    0  0.00000000000E+00 -0.00000000000E+00 -0.80165524015E+03  0.80165524015E+03  0.00000000000E+00 0. -1.
          6    1    1    2  502    0 -0.14315470512E+03  0.11917616748E+03 -0.54569673807E+03  0.60171850431E+03  0.17200000000E+03 0. -1.
         -6    1    1    2    0  501  0.14315470512E+03 -0.11917616748E+03 -0.15744871577E+03  0.29844652216E+03  0.17200000000E+03 0.  1.
</event>
<event>
 4    1  0.6352740E-002  0.1913208E+03  0.7818608E-02  0.1157275E+00
         -2   -1    0    0    0  501 -0.00000000000E+00  0.00000000000E+00  0.17949175920E+02  0.17949175920E+02  0.00000000000E+00 0.  1.
          2   -1    0    0  502    0  0.00000000000E+00 -0.00000000000E+00 -0.29829214312E+04  0.29829214312E+04  0.00000000000E+00 0. -1.
          6    1    1    2  502    0  0.94305900817E+01  0.83250819064E+02 -0.23263974187E+04  0.23342511828E+04  0.17200000000E+03 0. -1.
         -6    1    1    2    0  501 -0.94305900817E+01 -0.83250819064E+02 -0.63857483663E+03  0.66661942432E+03  0.17200000000E+03 0.  1.
</event>
<event>
 4    1  0.6352740E-002  0.1739981E+03  0.7818608E-02  0.1173741E+00
         -1   -1    0    0    0  501 -0.00000000000E+00  0.00000000000E+00  0.32495311485E+02  0.32495311485E+02  0.00000000000E+00 0.  1.
          1   -1    0    0  502    0  0.00000000000E+00 -0.00000000000E+00 -0.93168555818E+03  0.93168555818E+03  0.00000000000E+00 0. -1.
          6    1    1    2  502    0  0.21794240819E+02  0.14709373531E+02 -0.44892891528E+03  0.48146913253E+03  0.17200000000E+03 0. -1.
         -6    1    1    2    0  501 -0.21794240819E+02 -0.14709373531E+02 -0.45026133142E+03  0.48271173714E+03  0.17200000000E+03 0. -1.
</event>
<event>
 4    1  0.6352740E-002  0.2169426E+03  0.7818608E-02  0.1136183E+00
         -2   -1    0    0    0  501 -0.00000000000E+00  0.00000000000E+00  0.12954808177E+03  0.12954808177E+03  0.00000000000E+00 0.  1.
          2   -1    0    0  502    0  0.00000000000E+00 -0.00000000000E+00 -0.13878515642E+04  0.13878515642E+04  0.00000000000E+00 0. -1.
          6    1    1    2  502    0 -0.11367660702E+03 -0.67511031933E+02 -0.12810300667E+04  0.12992698496E+04  0.17200000000E+03 0. -1.
         -6    1    1    2    0  501  0.11367660702E+03  0.67511031933E+02  0.22726584252E+02  0.21812979633E+03  0.17200000000E+03 0.  1.
</event>
<event>
 4    1  0.6352740E-002  0.1766976E+03  0.7818608E-02  0.1171038E+00
         -2   -1    0    0    0  501 -0.00000000000E+00  0.00000000000E+00  0.83005748961E+02  0.83005748961E+02  0.00000000000E+00 0.  1.
          2   -1    0    0  502    0  0.00000000000E+00 -0.00000000000E+00 -0.47640142869E+03  0.47640142869E+03  0.00000000000E+00 0. -1.
          6    1    1    2  502    0  0.26835383991E+02 -0.30297161282E+02 -0.68384644056E+02  0.18946903535E+03  0.17200000000E+03 0.  1.
         -6    1    1    2    0  501 -0.26835383991E+02  0.30297161282E+02 -0.32501103567E+03  0.36993814230E+03  0.17200000000E+03 0. -1.
</event>
<event>
 4    1  0.6352740E-002  0.5057647E+03  0.7818608E-02  0.1012285E+00
         -2   -1    0    0    0  501 -0.00000000000E+00  0.00000000000E+00  0.47910056626E+03  0.47910056626E+03  0.00000000000E+00 0.  1.
          2   -1    0    0  502    0  0.00000000000E+00 -0.00000000000E+00 -0.69802335484E+03  0.69802335484E+03  0.00000000000E+00 0. -1.
          6    1    1    2  502    0  0.45395942174E+03  0.14189690031E+03 -0.39484273533E+03  0.64163749310E+03  0.17200000000E+03 0. -1.
         -6    1    1    2    0  501 -0.45395942174E+03 -0.14189690031E+03  0.17591994675E+03  0.53548642800E+03  0.17200000000E+03 0.  1.
</event>
<event>
 4    1  0.6352740E-002  0.2506530E+03  0.7818608E-02  0.1112893E+00
          2   -1    0    0  502    0  0.00000000000E+00  0.00000000000E+00  0.14513349994E+04  0.14513349994E+04  0.00000000000E+00 0. -1.
         -2   -1    0    0    0  501 -0.00000000000E+00 -0.00000000000E+00 -0.49356399845E+02  0.49356399845E+02  0.00000000000E+00 0.  1.
          6    1    1    2  502    0  0.15969223605E+03  0.87984719219E+02  0.96407000009E+03  0.99612142139E+03  0.17200000000E+03 0. -1.
         -6    1    1    2    0  501 -0.15969223605E+03 -0.87984719219E+02  0.43790859947E+03  0.50456997786E+03  0.17200000000E+03 0.  1.
</event>
<event>
 4    1  0.6352740E-002  0.2393965E+03  0.7818608E-02  0.1120196E+00
         -1   -1    0    0    0  501 -0.00000000000E+00  0.00000000000E+00  0.42526237446E+03  0.42526237446E+03  0.00000000000E+00 0.  1.
          1   -1    0    0  502    0  0.00000000000E+00 -0.00000000000E+00 -0.19583476223E+03  0.19583476223E+03  0.00000000000E+00 0. -1.
          6    1    1    2  502    0 -0.14270602270E+03 -0.85800067572E+02 -0.58705033828E+02  0.24648923203E+03  0.17200000000E+03 0. -1.
         -6    1    1    2    0  501  0.14270602270E+03  0.85800067572E+02  0.28813264605E+03  0.37460790466E+03  0.17200000000E+03 0.  1.
</event>
<event>
 4    1  0.6352740E-002  0.7365583E+03  0.7818608E-02  0.9656677E-01
          1   -1    0    0  502    0  0.00000000000E+00  0.00000000000E+00  0.15866117919E+04  0.15866117919E+04  0.00000000000E+00 0. -1.
         -1   -1    0    0    0  501 -0.00000000000E+00 -0.00000000000E+00 -0.49478789904E+03  0.49478789904E+03  0.00000000000E+00 0.  1.
          6    1    1    2  502    0  0.37539479810E+00  0.71619412281E+03  0.11243445207E+04  0.13441237903E+04  0.17200000000E+03 0. -1.
         -6    1    1    2    0  501 -0.37539479810E+00 -0.71619412281E+03 -0.32520627786E+02  0.73727590067E+03  0.17200000000E+03 0.  1.
</event>
<event>
 4    1  0.6352740E-002  0.2533321E+03  0.7818608E-02  0.1111217E+00
          2   -1    0    0  502    0  0.00000000000E+00  0.00000000000E+00  0.20822691995E+04  0.20822691995E+04  0.00000000000E+00 0. -1.
         -2   -1    0    0    0  501 -0.00000000000E+00 -0.00000000000E+00 -0.10674610262E+03  0.10674610262E+03  0.00000000000E+00 0.  1.
          6    1    1    2  502    0 -0.10948415496E+03 -0.15035417927E+03  0.19108346868E+04  0.19275545023E+04  0.17200000000E+03 0. -1.
         -6    1    1    2    0  501  0.10948415496E+03  0.15035417927E+03  0.64688410126E+02  0.26146079977E+03  0.17200000000E+03 0.  1.
</event>
<event>
 4    1  0.6352740E-002  0.3179237E+03  0.7818608E-02  0.1076609E+00
         -2   -1    0    0    0  501 -0.00000000000E+00  0.00000000000E+00  0.87745453952E+02  0.87745453952E+02  0.00000000000E+00 0.  1.
          2   -1    0    0  502    0  0.00000000000E+00 -0.00000000000E+00 -0.22239358575E+04  0.22239358575E+04  0.00000000000E+00 0. -1.
          6    1    1    2  502    0 -0.25304680951E+03 -0.86364130347E+02 -0.26560799473E+03  0.41427413349E+03  0.17200000000E+03 0. -1.
         -6    1    1    2    0  501  0.25304680951E+03  0.86364130347E+02 -0.18705824088E+04  0.18974071780E+04  0.17200000000E+03 0.  1.
</event>
<event>
 4    1  0.6352740E-002  0.2094699E+03  0.7818608E-02  0.1141986E+00
         -2   -1    0    0    0  501 -0.00000000000E+00  0.00000000000E+00  0.44923244292E+02  0.44923244292E+02  0.00000000000E+00 0.  1.
          2   -1    0    0  502    0  0.00000000000E+00 -0.00000000000E+00 -0.11460053902E+04  0.11460053902E+04  0.00000000000E+00 0. -1.
          6    1    1    2  502    0 -0.85322326997E+02  0.83748151290E+02 -0.77939893468E+03  0.80705659758E+03  0.17200000000E+03 0. -1.
         -6    1    1    2    0  501  0.85322326997E+02 -0.83748151290E+02 -0.32168321121E+03  0.38387203689E+03  0.17200000000E+03 0.  1.
</event>
<event>
 4    1  0.6352740E-002  0.5975808E+03  0.7818608E-02  0.9910438E-01
          1   -1    0    0  502    0  0.00000000000E+00  0.00000000000E+00  0.10161346608E+04  0.10161346608E+04  0.00000000000E+00 0. -1.
         -1   -1    0    0    0  501 -0.00000000000E+00 -0.00000000000E+00 -0.43830053747E+03  0.43830053747E+03  0.00000000000E+00 0.  1.
          6    1    1    2  502    0  0.22019142565E+03 -0.52823717863E+03  0.61266595598E+03  0.85584014537E+03  0.17200000000E+03 0. -1.
         -6    1    1    2    0  501 -0.22019142565E+03  0.52823717863E+03 -0.34831832624E+02  0.59859505292E+03  0.17200000000E+03 0.  1.
</event>
<event>
 4    1  0.6352740E-002  0.3012834E+03  0.7818608E-02  0.1084601E+00
          1   -1    0    0  502    0  0.00000000000E+00  0.00000000000E+00  0.18968974815E+04  0.18968974815E+04  0.00000000000E+00 0. -1.
         -1   -1    0    0    0  501 -0.00000000000E+00 -0.00000000000E+00 -0.96059096989E+02  0.96059096989E+02  0.00000000000E+00 0.  1.
          6    1    1    2  502    0  0.24722580140E+03  0.81890253564E+01  0.16063318173E+04  0.16343419362E+04  0.17200000000E+03 0. -1.
         -6    1    1    2    0  501 -0.24722580140E+03 -0.81890253564E+01  0.19450656723E+03  0.35861464235E+03  0.17200000000E+03 0.  1.
</event>
<event>
 4    1  0.6352740E-002  0.3524534E+03  0.7818608E-02  0.1061613E+00
         -1   -1    0    0    0  501 -0.00000000000E+00  0.00000000000E+00  0.19925770684E+03  0.19925770684E+03  0.00000000000E+00 0.  1.
          1   -1    0    0  502    0  0.00000000000E+00 -0.00000000000E+00 -0.78761562461E+03  0.78761562461E+03  0.00000000000E+00 0. -1.
          6    1    1    2  502    0 -0.29651276896E+03 -0.81973005379E+02 -0.51946834665E+03  0.62775055470E+03  0.17200000000E+03 0. -1.
         -6    1    1    2    0  501  0.29651276896E+03  0.81973005379E+02 -0.68889571128E+02  0.35912277674E+03  0.17200000000E+03 0.  1.
</event>
<event>
 4    1  0.6352740E-002  0.2948219E+03  0.7818608E-02  0.1087858E+00
          1   -1    0    0  502    0  0.00000000000E+00  0.00000000000E+00  0.11618411977E+04  0.11618411977E+04  0.00000000000E+00 0. -1.
         -1   -1    0    0    0  501 -0.00000000000E+00 -0.00000000000E+00 -0.88052146340E+02  0.88052146340E+02  0.00000000000E+00 0.  1.
          6    1    1    2  502    0 -0.36006270109E+02  0.23672664267E+03  0.29456001337E+03  0.41675599134E+03  0.17200000000E+03 0. -1.
         -6    1    1    2    0  501  0.36006270109E+02 -0.23672664267E+03  0.77922903803E+03  0.83313735275E+03  0.17200000000E+03 0. -1.
</event>
<event>
 4    1  0.6352740E-002  0.2807175E+03  0.7818608E-02  0.1095298E+00
         -2   -1    0    0    0  501 -0.00000000000E+00  0.00000000000E+00  0.73590077467E+02  0.73590077467E+02  0.00000000000E+00 0.  1.
          2   -1    0    0  502    0  0.00000000000E+00 -0.00000000000E+00 -0.11674968722E+04  0.11674968722E+04  0.00000000000E+00 0. -1.
          6    1    1    2  502    0 -0.13888677514E+03  0.17299930147E+03 -0.36839169699E+03  0.46315735666E+03  0.17200000000E+03 0.  1.
         -6    1    1    2    0  501  0.13888677514E+03 -0.17299930147E+03 -0.72551509770E+03  0.77792959296E+03  0.17200000000E+03 0. -1.
</event>
<event>
 4    1  0.6352740E-002  0.2102108E+03  0.7818608E-02  0.1141399E+00
          2   -1    0    0  502    0  0.00000000000E+00  0.00000000000E+00  0.76040521132E+03  0.76040521132E+03  0.00000000000E+00 0. -1.
         -2   -1    0    0    0  501 -0.00000000000E+00 -0.00000000000E+00 -0.60178773831E+02  0.60178773831E+02  0.00000000000E+00 0.  1.
          6    1    1    2  502    0 -0.68554295900E+01  0.12065484767E+03  0.27407556784E+03  0.34540701508E+03  0.17200000000E+03 0. -1.
         -6    1    1    2    0  501  0.68554295900E+01 -0.12065484767E+03  0.42615086965E+03  0.47517697007E+03  0.17200000000E+03 0.  1.
</event>
<event>
 4    1  0.6352740E-002  0.2107459E+03  0.7818608E-02  0.1140977E+00
         -1   -1    0    0    0  501 -0.00000000000E+00  0.00000000000E+00  0.24980734995E+03  0.24980734995E+03  0.00000000000E+00 0.  1.
          1   -1    0    0  502    0  0.00000000000E+00 -0.00000000000E+00 -0.31923138968E+03  0.31923138968E+03  0.00000000000E+00 0. -1.
          6    1    1    2  502    0 -0.11826399247E+03  0.29042086271E+02 -0.22409625446E+03  0.30762468359E+03  0.17200000000E+03 0. -1.
         -6    1    1    2    0  501  0.11826399247E+03 -0.29042086271E+02  0.15467221473E+03  0.26141405605E+03  0.17200000000E+03 0.  1.
</event>
<event>
 4    1  0.6352740E-002  0.2850441E+03  0.7818608E-02  0.1092965E+00
          2   -1    0    0  502    0  0.00000000000E+00  0.00000000000E+00  0.62906743964E+03  0.62906743964E+03  0.00000000000E+00 0. -1.
         -2   -1    0    0    0  501 -0.00000000000E+00 -0.00000000000E+00 -0.15272011389E+03  0.15272011389E+03  0.00000000000E+00 0.  1.
          6    1    1    2  502    0  0.12281078360E+03  0.19126845573E+03  0.39170705404E+03  0.48444249082E+03  0.17200000000E+03 0. -1.
         -6    1    1    2    0  501 -0.12281078360E+03 -0.19126845573E+03  0.84640271715E+02  0.29734506272E+03  0.17200000000E+03 0.  1.
</event>
<event>
 4    1  0.6352740E-002  0.1844191E+03  0.7818608E-02  0.1163593E+00
         -1   -1    0    0    0  501 -0.00000000000E+00  0.00000000000E+00  0.14124934755E+03  0.14124934755E+03  0.00000000000E+00 0.  1.
          1   -1    0    0  502    0  0.00000000000E+00 -0.00000000000E+00 -0.26048656402E+03  0.26048656402E+03  0.00000000000E+00 0. -1.
          6    1    1    2  502    0  0.23036168089E+01 -0.66491303672E+02 -0.11486369141E+03  0.21726497122E+03  0.17200000000E+03 0. -1.
         -6    1    1    2    0  501 -0.23036168089E+01  0.66491303672E+02 -0.43735250637E+01  0.18447094036E+03  0.17200000000E+03 0. -1.
</event>
<event>
 4    1  0.6352740E-002  0.1752257E+03  0.7818608E-02  0.1172505E+00
          2   -1    0    0  502    0  0.00000000000E+00  0.00000000000E+00  0.86545587291E+03  0.86545587291E+03  0.00000000000E+00 0. -1.
         -2   -1    0    0    0  501 -0.00000000000E+00 -0.00000000000E+00 -0.35638322479E+02  0.35638322479E+02  0.00000000000E+00 0.  1.
          6    1    1    2  502    0  0.22023254545E+01  0.33394377381E+02  0.44519390503E+03  0.47843667058E+03  0.17200000000E+03 0.  1.
         -6    1    1    2    0  501 -0.22023254545E+01 -0.33394377381E+02  0.38462364540E+03  0.42265752481E+03  0.17200000000E+03 0.  1.
</event>
<event>
 4    1  0.6352740E-002  0.2191063E+03  0.7818608E-02  0.1134551E+00
         -2   -1    0    0    0  501 -0.00000000000E+00  0.00000000000E+00  0.62285348300E+02  0.62285348300E+02  0.00000000000E+00 0.  1.
          2   -1    0    0  502    0  0.00000000000E+00 -0.00000000000E+00 -0.11375232660E+04  0.11375232660E+04  0.00000000000E+00 0. -1.
          6    1    1    2  502    0 -0.11885194735E+03  0.65557366527E+02 -0.87825454118E+03  0.90517323911E+03  0.17200000000E+03 0. -1.
         -6    1    1    2    0  501  0.11885194735E+03 -0.65557366527E+02 -0.19698337655E+03  0.29463537522E+03  0.17200000000E+03 0.  1.
</event>
<event>
 4    1  0.6352740E-002  0.2578078E+03  0.7818608E-02  0.1108468E+00
          1   -1    0    0  502    0  0.00000000000E+00  0.00000000000E+00  0.10338309187E+04  0.10338309187E+04  0.00000000000E+00 0. -1.
         -1   -1    0    0    0  501 -0.00000000000E+00 -0.00000000000E+00 -0.77224743189E+02  0.77224743189E+02  0.00000000000E+00 0.  1.
          6    1    1    2  502    0 -0.16793942904E+03  0.93151517185E+02  0.25094592221E+03  0.35977592034E+03  0.17200000000E+03 0. -1.
         -6    1    1    2    0  501  0.16793942904E+03 -0.93151517185E+02  0.70566025330E+03  0.75127974155E+03  0.17200000000E+03 0.  1.
</event>
<event>
 4    1  0.6352740E-002  0.3004794E+03  0.7818608E-02  0.1085001E+00
         -1   -1    0    0    0  501 -0.00000000000E+00  0.00000000000E+00  0.87411821180E+02  0.87411821180E+02  0.00000000000E+00 0.  1.
          1   -1    0    0  502    0  0.00000000000E+00 -0.00000000000E+00 -0.16100774300E+04  0.16100774300E+04  0.00000000000E+00 0. -1.
          6    1    1    2  502    0 -0.24513602410E+03  0.24742888610E+02 -0.12695009280E+04  0.13045767463E+04  0.17200000000E+03 0. -1.
         -6    1    1    2    0  501  0.24513602410E+03 -0.24742888610E+02 -0.25316468078E+03  0.39291250482E+03  0.17200000000E+03 0.  1.
</event>
<event>
 4    1  0.6352740E-002  0.2004582E+03  0.7818608E-02  0.1149353E+00
         -2   -1    0    0    0  501 -0.00000000000E+00  0.00000000000E+00  0.20716397934E+03  0.20716397934E+03  0.00000000000E+00 0.  1.
          2   -1    0    0  502    0  0.00000000000E+00 -0.00000000000E+00 -0.20430962401E+03  0.20430962401E+03  0.00000000000E+00 0. -1.
          6    1    1    2  502    0  0.35175379147E+02  0.96758449000E+02  0.47711009177E+02  0.20605786844E+03  0.17200000000E+03 0.  1.
         -6    1    1    2    0  501 -0.35175379147E+02 -0.96758449000E+02 -0.44856653854E+02  0.20541573490E+03  0.17200000000E+03 0. -1.
</event>
<event>
 4    1  0.6352740E-002  0.2364677E+03  0.7818608E-02  0.1122169E+00
          2   -1    0    0  502    0  0.00000000000E+00  0.00000000000E+00  0.18739691210E+04  0.18739691210E+04  0.00000000000E+00 0. -1.
         -2   -1    0    0    0  501 -0.00000000000E+00 -0.00000000000E+00 -0.32195921766E+02  0.32195921766E+02  0.00000000000E+00 0.  1.
          6    1    1    2  502    0  0.46523143094E+02  0.15546240825E+03  0.66300379226E+03  0.70391121015E+03  0.17200000000E+03 0. -1.
         -6    1    1    2    0  501 -0.46523143094E+02 -0.15546240825E+03  0.11787694069E+04  0.12022538326E+04  0.17200000000E+03 0.  1.
</event>
<event>
 4    1  0.6352740E-002  0.2125848E+03  0.7818608E-02  0.1139535E+00
          2   -1    0    0  502    0  0.00000000000E+00  0.00000000000E+00  0.46971935748E+03  0.46971935748E+03  0.00000000000E+00 0. -1.
         -2   -1    0    0    0  501 -0.00000000000E+00 -0.00000000000E+00 -0.99047002118E+02  0.99047002118E+02  0.00000000000E+00 0.  1.
          6    1    1    2  502    0  0.84980524810E+01 -0.12464383097E+03  0.23345499357E+03  0.31574283130E+03  0.17200000000E+03 0. -1.
         -6    1    1    2    0  501 -0.84980524810E+01  0.12464383097E+03  0.13721736179E+03  0.25302352830E+03  0.17200000000E+03 0.  1.
</event>
<event>
 4    1  0.6352740E-002  0.1813535E+03  0.7818608E-02  0.1166500E+00
         -1   -1    0    0    0  501 -0.00000000000E+00  0.00000000000E+00  0.30256852364E+02  0.30256852364E+02  0.00000000000E+00 0.  1.
          1   -1    0    0  502    0  0.00000000000E+00 -0.00000000000E+00 -0.13612767844E+04  0.13612767844E+04  0.00000000000E+00 0. -1.
          6    1    1    2  502    0 -0.35937268947E+02 -0.44873017182E+02 -0.35319826806E+03  0.39703663752E+03  0.17200000000E+03 0.  1.
         -6    1    1    2    0  501  0.35937268947E+02  0.44873017182E+02 -0.97782166394E+03  0.99449699922E+03  0.17200000000E+03 0.  1.
</event>
<event>
 4    1  0.6352740E-002  0.2180755E+03  0.7818608E-02  0.1135326E+00
         -2   -1    0    0    0  501 -0.00000000000E+00  0.00000000000E+00  0.40256886146E+03  0.40256886146E+03  0.00000000000E+00 0.  1.
          2   -1    0    0  502    0  0.00000000000E+00 -0.00000000000E+00 -0.12908358056E+03  0.12908358056E+03  0.00000000000E+00 0. -1.
          6    1    1    2  502    0 -0.22964847783E+02  0.13208153862E+03  0.59319891965E+02  0.22599948376E+03  0.17200000000E+03 0. -1.
         -6    1    1    2    0  501  0.22964847783E+02 -0.13208153862E+03  0.21416538893E+03  0.30565295826E+03  0.17200000000E+03 0.  1.
</event>
<event>
 4    1  0.6352740E-002  0.6073594E+03  0.7818608E-02  0.9890254E-01
         -1   -1    0    0    0  501 -0.00000000000E+00  0.00000000000E+00  0.86214301135E+03  0.86214301135E+03  0.00000000000E+00 0.  1.
          1   -1    0    0  502    0  0.00000000000E+00 -0.00000000000E+00 -0.78097888827E+03  0.78097888827E+03  0.00000000000E+00 0. -1.
          6    1    1    2  502    0 -0.26634637654E+03  0.51803578551E+03 -0.51184408490E+03  0.79427314861E+03  0.17200000000E+03 0. -1.
         -6    1    1    2    0  501  0.26634637654E+03 -0.51803578551E+03  0.59300820798E+03  0.84884875101E+03  0.17200000000E+03 0.  1.
</event>
<event>
 4    1  0.6352740E-002  0.2207904E+03  0.7818608E-02  0.1133295E+00
         -1   -1    0    0    0  501 -0.00000000000E+00  0.00000000000E+00  0.15044176249E+03  0.15044176249E+03  0.00000000000E+00 0.  1.
          1   -1    0    0  502    0  0.00000000000E+00 -0.00000000000E+00 -0.70824885707E+03  0.70824885707E+03  0.00000000000E+00 0. -1.
          6    1    1    2  502    0 -0.96778338902E+02 -0.98986704907E+02 -0.59513147770E+03  0.63476758769E+03  0.17200000000E+03 0. -1.
         -6    1    1    2    0  501  0.96778338902E+02  0.98986704907E+02  0.37324383118E+02  0.22392303188E+03  0.17200000000E+03 0.  1.
</event>
<event>
 4    1  0.6352740E-002  0.3097193E+03  0.7818608E-02  0.1080480E+00
         -2   -1    0    0    0  501 -0.00000000000E+00  0.00000000000E+00  0.10799650094E+04  0.10799650094E+04  0.00000000000E+00 0.  1.
          2   -1    0    0  502    0  0.00000000000E+00 -0.00000000000E+00 -0.14360404390E+03  0.14360404390E+03  0.00000000000E+00 0. -1.
          6    1    1    2  502    0  0.11718754165E+03  0.22936679903E+03  0.90322027912E+02  0.32262070166E+03  0.17200000000E+03 0. -1.
         -6    1    1    2    0  501 -0.11718754165E+03 -0.22936679903E+03  0.84603893762E+03  0.90094835168E+03  0.17200000000E+03 0.  1.
</event>
<event>
 4    1  0.6352740E-002  0.1973412E+03  0.7818608E-02  0.1152002E+00
         -1   -1    0    0    0  501 -0.00000000000E+00  0.00000000000E+00  0.28838382572E+02  0.28838382572E+02  0.00000000000E+00 0.  1.
          1   -1    0    0  502    0  0.00000000000E+00 -0.00000000000E+00 -0.13530938314E+04  0.13530938314E+04  0.00000000000E+00 0. -1.
          6    1    1    2  502    0  0.70207861073E+02 -0.66561308773E+02 -0.69291837829E+03  0.72047167227E+03  0.17200000000E+03 0. -1.
         -6    1    1    2    0  501 -0.70207861073E+02  0.66561308773E+02 -0.63133707049E+03  0.66146054165E+03  0.17200000000E+03 0.  1.
</event>
<event>
 4    1  0.6352740E-002  0.1851713E+03  0.7818608E-02  0.1162890E+00
          2   -1    0    0  502    0  0.00000000000E+00  0.00000000000E+00  0.15884172133E+04  0.15884172133E+04  0.00000000000E+00 0. -1.
         -2   -1    0    0    0  501 -0.00000000000E+00 -0.00000000000E+00 -0.24592307895E+02  0.24592307895E+02  0.00000000000E+00 0.  1.
          6    1    1    2  502    0 -0.62988389816E+02 -0.27145068110E+02  0.10638720096E+04  0.10798666792E+04  0.17200000000E+03 0. -1.
         -6    1    1    2    0  501  0.62988389816E+02  0.27145068110E+02  0.49995289577E+03  0.53314284199E+03  0.17200000000E+03 0.  1.
</event>
<event>
 4    1  0.6352740E-002  0.2483285E+03  0.7818608E-02  0.1114366E+00
         -2   -1    0    0    0  501 -0.00000000000E+00  0.00000000000E+00  0.24348283692E+03  0.24348283692E+03  0.00000000000E+00 0.  1.
          2   -1    0    0  502    0  0.00000000000E+00 -0.00000000000E+00 -0.25447111781E+03  0.25447111781E+03  0.00000000000E+00 0. -1.
          6    1    1    2  502    0  0.89756826193E+02 -0.15500572606E+03  0.11606418555E+02  0.24859962170E+03  0.17200000000E+03 0. -1.
         -6    1    1    2    0  501 -0.89756826193E+02  0.15500572606E+03 -0.22594699448E+02  0.24935433303E+03  0.17200000000E+03 0.  1.
</event>
<event>
 4    1  0.6352740E-002  0.2254677E+03  0.7818608E-02  0.1129871E+00
          2   -1    0    0  502    0  0.00000000000E+00  0.00000000000E+00  0.33071115777E+03  0.33071115777E+03  0.00000000000E+00 0. -1.
         -2   -1    0    0    0  501 -0.00000000000E+00 -0.00000000000E+00 -0.35197006760E+03  0.35197006760E+03  0.00000000000E+00 0.  1.
          6    1    1    2  502    0 -0.14173256103E+03 -0.34110776577E+02  0.24555096150E+03  0.33336307328E+03  0.17200000000E+03 0.  1.
         -6    1    1    2    0  501  0.14173256103E+03  0.34110776577E+02 -0.26680987133E+03  0.34931815208E+03  0.17200000000E+03 0.  1.
</event>
<event>
 4    1  0.6352740E-002  0.3402699E+03  0.7818608E-02  0.1066681E+00
          2   -1    0    0  502    0  0.00000000000E+00  0.00000000000E+00  0.40428190695E+04  0.40428190695E+04  0.00000000000E+00 0. -1.
         -2   -1    0    0    0  501 -0.00000000000E+00 -0.00000000000E+00 -0.28640565608E+02  0.28640565608E+02  0.00000000000E+00 0.  1.
          6    1    1    2  502    0  0.12386095187E+03 -0.26619179110E+03  0.20204930700E+04  0.20489450580E+04  0.17200000000E+03 0.  1.
         -6    1    1    2    0  501 -0.12386095187E+03  0.26619179110E+03  0.19936854339E+04  0.20225145771E+04  0.17200000000E+03 0. -1.
</event>
<event>
 4    1  0.6352740E-002  0.1789666E+03  0.7818608E-02  0.1168807E+00
         -1   -1    0    0    0  501 -0.00000000000E+00  0.00000000000E+00  0.15532773134E+03  0.15532773134E+03  0.00000000000E+00 0.  1.
          1   -1    0    0  502    0  0.00000000000E+00 -0.00000000000E+00 -0.22774577213E+03  0.22774577213E+03  0.00000000000E+00 0. -1.
          6    1    1    2  502    0  0.66265228860E+01 -0.49001533112E+02  0.22699302074E+02  0.18040044171E+03  0.17200000000E+03 0.  1.
         -6    1    1    2    0  501 -0.66265228860E+01  0.49001533112E+02 -0.95117342865E+02  0.20267306177E+03  0.17200000000E+03 0. -1.
</event>
<event>
 4    1  0.6352740E-002  0.3017060E+03  0.7818608E-02  0.1084391E+00
         -1   -1    0    0    0  501 -0.00000000000E+00  0.00000000000E+00  0.82099940686E+02  0.82099940686E+02  0.00000000000E+00 0.  1.
          1   -1    0    0  502    0  0.00000000000E+00 -0.00000000000E+00 -0.11103849759E+04  0.11103849759E+04  0.00000000000E+00 0. -1.
          6    1    1    2  502    0  0.18578008986E+03 -0.16409831695E+03 -0.49110954485E+03  0.57638102368E+03  0.17200000000E+03 0. -1.
         -6    1    1    2    0  501 -0.18578008986E+03  0.16409831695E+03 -0.53717549042E+03  0.61610389296E+03  0.17200000000E+03 0.  1.
</event>
<event>
 4    1  0.6352740E-002  0.3442306E+03  0.7818608E-02  0.1065008E+00
          1   -1    0    0  502    0  0.00000000000E+00  0.00000000000E+00  0.33523105654E+03  0.33523105654E+03  0.00000000000E+00 0. -1.
         -1   -1    0    0    0  501 -0.00000000000E+00 -0.00000000000E+00 -0.40130037594E+03  0.40130037594E+03  0.00000000000E+00 0.  1.
          6    1    1    2  502    0 -0.22429612868E+03  0.19647374051E+03  0.94101996843E+02  0.35686113526E+03  0.17200000000E+03 0. -1.
         -6    1    1    2    0  501  0.22429612868E+03 -0.19647374051E+03 -0.16017131623E+03  0.37967029722E+03  0.17200000000E+03 0.  1.
</event>
<event>
 4    1  0.6352740E-002  0.2710396E+03  0.7818608E-02  0.1100686E+00
          2   -1    0    0  502    0  0.00000000000E+00  0.00000000000E+00  0.19273172631E+04  0.19273172631E+04  0.00000000000E+00 0. -1.
         -2   -1    0    0    0  501 -0.00000000000E+00 -0.00000000000E+00 -0.16342178635E+03  0.16342178635E+03  0.00000000000E+00 0.  1.
          6    1    1    2  502    0 -0.16796532729E+03 -0.12516424483E+03  0.17973240914E+04  0.18176458206E+04  0.17200000000E+03 0. -1.
         -6    1    1    2    0  501  0.16796532729E+03  0.12516424483E+03 -0.33428614734E+02  0.27309322884E+03  0.17200000000E+03 0.  1.
</event>
<event>
 4    1  0.6352740E-002  0.2262131E+03  0.7818608E-02  0.1129334E+00
         -1   -1    0    0    0  501 -0.00000000000E+00  0.00000000000E+00  0.38271678099E+02  0.38271678099E+02  0.00000000000E+00 0.  1.
          1   -1    0    0  502    0  0.00000000000E+00 -0.00000000000E+00 -0.13449770317E+04  0.13449770317E+04  0.00000000000E+00 0. -1.
          6    1    1    2  502    0  0.13967159271E+03  0.45609478895E+02 -0.70634160387E+03  0.74168109032E+03  0.17200000000E+03 0. -1.
         -6    1    1    2    0  501 -0.13967159271E+03 -0.45609478895E+02 -0.60036374969E+03  0.64156761945E+03  0.17200000000E+03 0.  1.
</event>
<event>
 4    1  0.6352740E-002  0.3362490E+03  0.7818608E-02  0.1068405E+00
          1   -1    0    0  502    0  0.00000000000E+00  0.00000000000E+00  0.25847368503E+04  0.25847368503E+04  0.00000000000E+00 0. -1.
         -1   -1    0    0    0  501 -0.00000000000E+00 -0.00000000000E+00 -0.64221293388E+02  0.64221293388E+02  0.00000000000E+00 0.  1.
          6    1    1    2  502    0 -0.42963445168E+02 -0.28571582787E+03  0.51233709714E+03  0.61282354150E+03  0.17200000000E+03 0.  1.
         -6    1    1    2    0  501  0.42963445168E+02  0.28571582787E+03  0.20081784598E+04  0.20361346022E+04  0.17200000000E+03 0. -1.
</event>
<event>
 4    1  0.6352740E-002  0.2421181E+03  0.7818608E-02  0.1118390E+00
         -2   -1    0    0    0  501 -0.00000000000E+00  0.00000000000E+00  0.27271724422E+02  0.27271724422E+02  0.00000000000E+00 0.  1.
          2   -1    0    0  502    0  0.00000000000E+00 -0.00000000000E+00 -0.34959912029E+04  0.34959912029E+04  0.00000000000E+00 0. -1.
          6    1    1    2  502    0  0.52965431037E+02  0.16196250573E+03 -0.64108831800E+03  0.68528492003E+03  0.17200000000E+03 0. -1.
         -6    1    1    2    0  501 -0.52965431037E+02 -0.16196250573E+03 -0.28276311604E+04  0.28379780073E+04  0.17200000000E+03 0. -1.
</event>
<event>
 4    1  0.6352740E-002  0.1872939E+03  0.7818608E-02  0.1160925E+00
         -1   -1    0    0    0  501 -0.00000000000E+00  0.00000000000E+00  0.45605054032E+02  0.45605054032E+02  0.00000000000E+00 0.  1.
          1   -1    0    0  502    0  0.00000000000E+00 -0.00000000000E+00 -0.93628225549E+03  0.93628225549E+03  0.00000000000E+00 0. -1.
          6    1    1    2  502    0  0.31522435084E+02  0.67092103957E+02 -0.65273663016E+03  0.67907593292E+03  0.17200000000E+03 0. -1.
         -6    1    1    2    0  501 -0.31522435084E+02 -0.67092103957E+02 -0.23794057130E+03  0.30281137660E+03  0.17200000000E+03 0.  1.
</event>
<event>
 4    1  0.6352740E-002  0.2717567E+03  0.7818608E-02  0.1100278E+00
         -2   -1    0    0    0  501 -0.00000000000E+00  0.00000000000E+00  0.21427933684E+03  0.21427933684E+03  0.00000000000E+00 0.  1.
          2   -1    0    0  502    0  0.00000000000E+00 -0.00000000000E+00 -0.53136031213E+03  0.53136031213E+03  0.00000000000E+00 0. -1.
          6    1    1    2  502    0  0.20807707567E+03 -0.31170798644E+02 -0.37953774581E+03  0.46679823115E+03  0.17200000000E+03 0. -1.
         -6    1    1    2    0  501 -0.20807707567E+03  0.31170798644E+02  0.62456770522E+02  0.27884141782E+03  0.17200000000E+03 0.  1.
</event>
<event>
 4    1  0.6352740E-002  0.1757953E+03  0.7818608E-02  0.1171936E+00
          2   -1    0    0  502    0  0.00000000000E+00  0.00000000000E+00  0.67242562570E+03  0.67242562570E+03  0.00000000000E+00 0. -1.
         -2   -1    0    0    0  501 -0.00000000000E+00 -0.00000000000E+00 -0.52490001864E+02  0.52490001864E+02  0.00000000000E+00 0.  1.
          6    1    1    2  502    0  0.78916409170E+01 -0.35464122528E+02  0.43782066640E+03  0.47179541955E+03  0.17200000000E+03 0. -1.
         -6    1    1    2    0  501 -0.78916409170E+01  0.35464122528E+02  0.18211495744E+03  0.25312020802E+03  0.17200000000E+03 0.  1.
</event>
<event>
 4    1  0.6352740E-002  0.6159609E+03  0.7818608E-02  0.9872835E-01
         -1   -1    0    0    0  501 -0.00000000000E+00  0.00000000000E+00  0.12032547205E+04  0.12032547205E+04  0.00000000000E+00 0.  1.
          1   -1    0    0  502    0  0.00000000000E+00 -0.00000000000E+00 -0.41493656083E+03  0.41493656083E+03  0.00000000000E+00 0. -1.
          6    1    1    2  502    0  0.22495391899E+03 -0.54700969391E+03 -0.22824499449E+01  0.61596516174E+03  0.17200000000E+03 0. -1.
         -6    1    1    2    0  501 -0.22495391899E+03  0.54700969391E+03  0.79060060965E+03  0.10022261196E+04  0.17200000000E+03 0.  1.
</event>
<event>
 4    1  0.6352740E-002  0.2300414E+03  0.7818608E-02  0.1126611E+00
         -2   -1    0    0    0  501 -0.00000000000E+00  0.00000000000E+00  0.68697662663E+02  0.68697662663E+02  0.00000000000E+00 0.  1.
          2   -1    0    0  502    0  0.00000000000E+00 -0.00000000000E+00 -0.77589540977E+03  0.77589540977E+03  0.00000000000E+00 0. -1.
          6    1    1    2  502    0 -0.14464222958E+03 -0.49129009357E+02 -0.38940348693E+03  0.45227658548E+03  0.17200000000E+03 0. -1.
         -6    1    1    2    0  501  0.14464222958E+03  0.49129009357E+02 -0.31779426018E+03  0.39231648696E+03  0.17200000000E+03 0.  1.
</event>
<event>
 4    1  0.6352740E-002  0.1830818E+03  0.7818608E-02  0.1164853E+00
         -1   -1    0    0    0  501 -0.00000000000E+00  0.00000000000E+00  0.34226014310E+02  0.34226014310E+02  0.00000000000E+00 0.  1.
          1   -1    0    0  502    0  0.00000000000E+00 -0.00000000000E+00 -0.10539875300E+04  0.10539875300E+04  0.00000000000E+00 0. -1.
          6    1    1    2  502    0 -0.59882979156E+02 -0.18680780791E+02 -0.65468153541E+03  0.67979912884E+03  0.17200000000E+03 0. -1.
         -6    1    1    2    0  501  0.59882979156E+02  0.18680780791E+02 -0.36507998029E+03  0.40841441548E+03  0.17200000000E+03 0.  1.
</event>
<event>
 4    1  0.6352740E-002  0.1819073E+03  0.7818608E-02  0.1165970E+00
          2   -1    0    0  502    0  0.00000000000E+00  0.00000000000E+00  0.98702863079E+03  0.98702863079E+03  0.00000000000E+00 0. -1.
         -2   -1    0    0    0  501 -0.00000000000E+00 -0.00000000000E+00 -0.58874236089E+02  0.58874236089E+02  0.00000000000E+00 0.  1.
          6    1    1    2  502    0 -0.59212320930E+02 -0.41759385018E+00  0.80722399590E+03  0.82746652675E+03  0.17200000000E+03 0. -1.
         -6    1    1    2    0  501  0.59212320930E+02  0.41759385018E+00  0.12093039880E+03  0.21843634013E+03  0.17200000000E+03 0.  1.
</event>
<event>
 4    1  0.6352740E-002  0.1977650E+03  0.7818608E-02  0.1151639E+00
         -2   -1    0    0    0  501 -0.00000000000E+00  0.00000000000E+00  0.79831326291E+03  0.79831326291E+03  0.00000000000E+00 0.  1.
          2   -1    0    0  502    0  0.00000000000E+00 -0.00000000000E+00 -0.13602355572E+03  0.13602355572E+03  0.00000000000E+00 0. -1.
          6    1    1    2  502    0  0.69808813015E+02 -0.68218123260E+02 -0.42539331905E+02  0.20228835230E+03  0.17200000000E+03 0. -1.
         -6    1    1    2    0  501 -0.69808813015E+02  0.68218123260E+02  0.70482903909E+03  0.73204846633E+03  0.17200000000E+03 0.  1.
</event>
<event>
 4    1  0.6352740E-002  0.1941974E+03  0.7818608E-02  0.1154729E+00
          2   -1    0    0  502    0  0.00000000000E+00  0.00000000000E+00  0.27160874233E+04  0.27160874233E+04  0.00000000000E+00 0. -1.
         -2   -1    0    0    0  501 -0.00000000000E+00 -0.00000000000E+00 -0.14457237625E+02  0.14457237625E+02  0.00000000000E+00 0.  1.
          6    1    1    2  502    0  0.81190376620E+02  0.39201486005E+02  0.10791721806E+04  0.10965059184E+04  0.17200000000E+03 0. -1.
         -6    1    1    2    0  501 -0.81190376620E+02 -0.39201486005E+02  0.16224580052E+04  0.16340387426E+04  0.17200000000E+03 0.  1.
</event>
<event>
 4    1  0.6352740E-002  0.2585526E+03  0.7818608E-02  0.1108016E+00
         -1   -1    0    0    0  501 -0.00000000000E+00  0.00000000000E+00  0.90637667249E+02  0.90637667249E+02  0.00000000000E+00 0.  1.
          1   -1    0    0  502    0  0.00000000000E+00 -0.00000000000E+00 -0.74187170624E+03  0.74187170624E+03  0.00000000000E+00 0. -1.
          6    1    1    2  502    0  0.17257470627E+03  0.86506800554E+02 -0.35740181678E+03  0.44111848117E+03  0.17200000000E+03 0. -1.
         -6    1    1    2    0  501 -0.17257470627E+03 -0.86506800554E+02 -0.29383222221E+03  0.39139089232E+03  0.17200000000E+03 0.  1.
</event>
<event>
 4    1  0.6352740E-002  0.2563483E+03  0.7818608E-02  0.1109357E+00
          2   -1    0    0  502    0  0.00000000000E+00  0.00000000000E+00  0.59632311775E+03  0.59632311775E+03  0.00000000000E+00 0. -1.
         -2   -1    0    0    0  501 -0.00000000000E+00 -0.00000000000E+00 -0.16172438661E+03  0.16172438661E+03  0.00000000000E+00 0.  1.
          6    1    1    2  502    0 -0.17941404484E+03  0.62777709329E+02  0.43123724233E+03  0.50167718649E+03  0.17200000000E+03 0. -1.
         -6    1    1    2    0  501  0.17941404484E+03 -0.62777709329E+02  0.33614888036E+01  0.25637031786E+03  0.17200000000E+03 0.  1.
</event>
<event>
 4    1  0.6352740E-002  0.2025546E+03  0.7818608E-02  0.1147601E+00
         -4   -1    0    0    0  501 -0.00000000000E+00  0.00000000000E+00  0.39757652704E+03  0.39757652704E+03  0.00000000000E+00 0.  1.
          4   -1    0    0  502    0  0.00000000000E+00 -0.00000000000E+00 -0.12404911155E+03  0.12404911155E+03  0.00000000000E+00 0. -1.
          6    1    1    2  502    0 -0.69181167575E+02 -0.81598559959E+02  0.29829616007E+02  0.20473926083E+03  0.17200000000E+03 0.  1.
         -6    1    1    2    0  501  0.69181167575E+02  0.81598559959E+02  0.24369779949E+03  0.31688637776E+03  0.17200000000E+03 0. -1.
</event>
<event>
 4    1  0.6352740E-002  0.1942627E+03  0.7818608E-02  0.1154672E+00
          1   -1    0    0  502    0  0.00000000000E+00  0.00000000000E+00  0.33287658765E+03  0.33287658765E+03  0.00000000000E+00 0. -1.
         -1   -1    0    0    0  501 -0.00000000000E+00 -0.00000000000E+00 -0.12600882983E+03  0.12600882983E+03  0.00000000000E+00 0.  1.
          6    1    1    2  502    0  0.88141096486E+02 -0.19624842169E+02  0.30766557936E+02  0.19668393022E+03  0.17200000000E+03 0.  1.
         -6    1    1    2    0  501 -0.88141096486E+02  0.19624842169E+02  0.17610119988E+03  0.26220148726E+03  0.17200000000E+03 0. -1.
</event>
<event>
 4    1  0.6352740E-002  0.2956706E+03  0.7818608E-02  0.1087425E+00
          2   -1    0    0  502    0  0.00000000000E+00  0.00000000000E+00  0.25709419556E+03  0.25709419556E+03  0.00000000000E+00 0. -1.
         -2   -1    0    0    0  501 -0.00000000000E+00 -0.00000000000E+00 -0.56442087167E+03  0.56442087167E+03  0.00000000000E+00 0.  1.
          6    1    1    2  502    0  0.22273030787E+03 -0.90710106731E+02  0.10532572539E+03  0.31387039035E+03  0.17200000000E+03 0. -1.
         -6    1    1    2    0  501 -0.22273030787E+03  0.90710106731E+02 -0.41265240149E+03  0.50764467688E+03  0.17200000000E+03 0.  1.
</event>
<event>
 4    1  0.6352740E-002  0.2622417E+03  0.7818608E-02  0.1105804E+00
          2   -1    0    0  502    0  0.00000000000E+00  0.00000000000E+00  0.74387011453E+03  0.74387011453E+03  0.00000000000E+00 0. -1.
         -2   -1    0    0    0  501 -0.00000000000E+00 -0.00000000000E+00 -0.92452061442E+02  0.92452061442E+02  0.00000000000E+00 0.  1.
          6    1    1    2  502    0  0.18364524989E+03  0.73899587389E+02  0.32772517150E+03  0.41973147947E+03  0.17200000000E+03 0. -1.
         -6    1    1    2    0  501 -0.18364524989E+03 -0.73899587389E+02  0.32369288159E+03  0.41659069651E+03  0.17200000000E+03 0.  1.
</event>
<event>
 4    1  0.6352740E-002  0.1843875E+03  0.7818608E-02  0.1163623E+00
          2   -1    0    0  502    0  0.00000000000E+00  0.00000000000E+00  0.71726362931E+03  0.71726362931E+03  0.00000000000E+00 0. -1.
         -2   -1    0    0    0  501 -0.00000000000E+00 -0.00000000000E+00 -0.81020395823E+02  0.81020395823E+02  0.00000000000E+00 0.  1.
          6    1    1    2  502    0  0.54742982063E+02 -0.37655763962E+02  0.57523671496E+03  0.60406624544E+03  0.17200000000E+03 0. -1.
         -6    1    1    2    0  501 -0.54742982063E+02  0.37655763962E+02  0.61006518525E+02  0.19421777969E+03  0.17200000000E+03 0. -1.
</event>
<event>
 4    1  0.6352740E-002  0.3783339E+03  0.7818608E-02  0.1051551E+00
         -1   -1    0    0    0  501 -0.00000000000E+00  0.00000000000E+00  0.60539423910E+03  0.60539423910E+03  0.00000000000E+00 0.  1.
          1   -1    0    0  502    0  0.00000000000E+00 -0.00000000000E+00 -0.23686411899E+03  0.23686411899E+03  0.00000000000E+00 0. -1.
          6    1    1    2  502    0  0.19604702367E+03  0.27407684841E+03  0.16634602628E+03  0.41328870634E+03  0.17200000000E+03 0. -1.
         -6    1    1    2    0  501 -0.19604702367E+03 -0.27407684841E+03  0.20218409383E+03  0.42896965175E+03  0.17200000000E+03 0.  1.
</event>
<event>
 4    1  0.6352740E-002  0.2474819E+03  0.7818608E-02  0.1114907E+00
          2   -1    0    0  502    0  0.00000000000E+00  0.00000000000E+00  0.92504387255E+03  0.92504387255E+03  0.00000000000E+00 0. -1.
         -2   -1    0    0    0  501 -0.00000000000E+00 -0.00000000000E+00 -0.19185267645E+03  0.19185267645E+03  0.00000000000E+00 0.  1.
          6    1    1    2  502    0 -0.54368119288E+01  0.17785878411E+03  0.81852159981E+03  0.85511690158E+03  0.17200000000E+03 0. -1.
         -6    1    1    2    0  501  0.54368119288E+01 -0.17785878411E+03 -0.85330403705E+02  0.26177964742E+03  0.17200000000E+03 0.  1.
</event>
<event>
 4    1  0.6352740E-002  0.3072719E+03  0.7818608E-02  0.1081661E+00
         -1   -1    0    0    0  501 -0.00000000000E+00  0.00000000000E+00  0.89484321948E+02  0.89484321948E+02  0.00000000000E+00 0.  1.
          1   -1    0    0  502    0  0.00000000000E+00 -0.00000000000E+00 -0.11670939032E+04  0.11670939032E+04  0.00000000000E+00 0. -1.
          6    1    1    2  502    0  0.25160543888E+03 -0.39073581814E+02 -0.73342111261E+03  0.79518712898E+03  0.17200000000E+03 0. -1.
         -6    1    1    2    0  501 -0.25160543888E+03  0.39073581814E+02 -0.34418846862E+03  0.46139109614E+03  0.17200000000E+03 0.  1.
</event>
<event>
 4    1  0.6352740E-002  0.2226537E+03  0.7818608E-02  0.1131920E+00
         -2   -1    0    0    0  501 -0.00000000000E+00  0.00000000000E+00  0.56349457010E+02  0.56349457010E+02  0.00000000000E+00 0.  1.
          2   -1    0    0  502    0  0.00000000000E+00 -0.00000000000E+00 -0.10448365253E+04  0.10448365253E+04  0.00000000000E+00 0. -1.
          6    1    1    2  502    0  0.26003961547E+02 -0.13897649325E+03 -0.71308692968E+03  0.74703924995E+03  0.17200000000E+03 0. -1.
         -6    1    1    2    0  501 -0.26003961547E+02  0.13897649325E+03 -0.27540013862E+03  0.35414673237E+03  0.17200000000E+03 0. -1.
</event>
<event>
 4    1  0.6352740E-002  0.2843188E+03  0.7818608E-02  0.1093353E+00
          2   -1    0    0  502    0  0.00000000000E+00  0.00000000000E+00  0.22610117732E+03  0.22610117732E+03  0.00000000000E+00 0. -1.
         -2   -1    0    0    0  501 -0.00000000000E+00 -0.00000000000E+00 -0.62546363031E+03  0.62546363031E+03  0.00000000000E+00 0.  1.
          6    1    1    2  502    0  0.20687374341E+03  0.91958859675E+02  0.78997024292E+02  0.29508932111E+03  0.17200000000E+03 0. -1.
         -6    1    1    2    0  501 -0.20687374341E+03 -0.91958859675E+02 -0.47835947728E+03  0.55647548651E+03  0.17200000000E+03 0.  1.
</event>
<event>
 4    1  0.6352740E-002  0.3098730E+03  0.7818608E-02  0.1080407E+00
          2   -1    0    0  502    0  0.00000000000E+00  0.00000000000E+00  0.15255749316E+04  0.15255749316E+04  0.00000000000E+00 0. -1.
         -2   -1    0    0    0  501 -0.00000000000E+00 -0.00000000000E+00 -0.73597117197E+02  0.73597117197E+02  0.00000000000E+00 0.  1.
          6    1    1    2  502    0  0.23351062493E+03  0.10913337249E+03  0.42173718684E+03  0.52333885745E+03  0.17200000000E+03 0. -1.
         -6    1    1    2    0  501 -0.23351062493E+03 -0.10913337249E+03  0.10302406276E+04  0.10758331914E+04  0.17200000000E+03 0.  1.
</event>
<event>
 4    1  0.6352740E-002  0.3212547E+03  0.7818608E-02  0.1075073E+00
          1   -1    0    0  502    0  0.00000000000E+00  0.00000000000E+00  0.26025522012E+04  0.26025522012E+04  0.00000000000E+00 0. -1.
         -1   -1    0    0    0  501 -0.00000000000E+00 -0.00000000000E+00 -0.56597964763E+02  0.56597964763E+02  0.00000000000E+00 0.  1.
          6    1    1    2  502    0 -0.20073363945E+03 -0.18255571157E+03  0.20004307576E+04  0.20260621407E+04  0.17200000000E+03 0. -1.
         -6    1    1    2    0  501  0.20073363945E+03  0.18255571157E+03  0.54552347886E+03  0.63308802534E+03  0.17200000000E+03 0.  1.
</event>
<event>
 4    1  0.6352740E-002  0.2230892E+03  0.7818608E-02  0.1131601E+00
          1   -1    0    0  502    0  0.00000000000E+00  0.00000000000E+00  0.69489949212E+03  0.69489949212E+03  0.00000000000E+00 0. -1.
         -1   -1    0    0    0  501 -0.00000000000E+00 -0.00000000000E+00 -0.10469228695E+03  0.10469228695E+03  0.00000000000E+00 0.  1.
          6    1    1    2  502    0 -0.92677541472E+02 -0.10768318615E+03  0.51980833038E+03  0.56565846198E+03  0.17200000000E+03 0. -1.
         -6    1    1    2    0  501  0.92677541472E+02  0.10768318615E+03  0.70398874788E+02  0.23393331709E+03  0.17200000000E+03 0.  1.
</event>
<event>
 4    1  0.6352740E-002  0.4118438E+03  0.7818608E-02  0.1039754E+00
         -1   -1    0    0    0  501 -0.00000000000E+00  0.00000000000E+00  0.45530949161E+03  0.45530949161E+03  0.00000000000E+00 0.  1.
          1   -1    0    0  502    0  0.00000000000E+00 -0.00000000000E+00 -0.38908564844E+03  0.38908564844E+03  0.00000000000E+00 0. -1.
          6    1    1    2  502    0  0.21487902805E+03 -0.30636310017E+03 -0.53984012258E+02  0.41536684921E+03  0.17200000000E+03 0. -1.
         -6    1    1    2    0  501 -0.21487902805E+03  0.30636310017E+03  0.12020785543E+03  0.42902829085E+03  0.17200000000E+03 0.  1.
</event>
<event>
 4    1  0.6352740E-002  0.2125025E+03  0.7818608E-02  0.1139599E+00
          1   -1    0    0  502    0  0.00000000000E+00  0.00000000000E+00  0.85050548530E+02  0.85050548530E+02  0.00000000000E+00 0. -1.
         -1   -1    0    0    0  501 -0.00000000000E+00 -0.00000000000E+00 -0.57934941055E+03  0.57934941055E+03  0.00000000000E+00 0.  1.
          6    1    1    2  502    0 -0.12404871072E+03 -0.13609872967E+02 -0.34316993683E+03  0.40363711030E+03  0.17200000000E+03 0.  1.
         -6    1    1    2    0  501  0.12404871072E+03  0.13609872967E+02 -0.15112892519E+03  0.26076284878E+03  0.17200000000E+03 0.  1.
</event>
<event>
 4    1  0.6352740E-002  0.2931264E+03  0.7818608E-02  0.1088728E+00
          1   -1    0    0  502    0  0.00000000000E+00  0.00000000000E+00  0.34308715115E+03  0.34308715115E+03  0.00000000000E+00 0. -1.
         -1   -1    0    0    0  501 -0.00000000000E+00 -0.00000000000E+00 -0.25568369567E+03  0.25568369567E+03  0.00000000000E+00 0.  1.
          6    1    1    2  502    0 -0.22023772101E+03  0.88512333920E+02  0.86572047698E+02  0.30564326666E+03  0.17200000000E+03 0. -1.
         -6    1    1    2    0  501  0.22023772101E+03 -0.88512333920E+02  0.83140778154E+00  0.29312758016E+03  0.17200000000E+03 0.  1.
</event>
<event>
 4    1  0.6352740E-002  0.1855555E+03  0.7818608E-02  0.1162532E+00
          2   -1    0    0  502    0  0.00000000000E+00  0.00000000000E+00  0.25900959661E+03  0.25900959661E+03  0.00000000000E+00 0. -1.
         -2   -1    0    0    0  501 -0.00000000000E+00 -0.00000000000E+00 -0.14420863318E+03  0.14420863318E+03  0.00000000000E+00 0.  1.
          6    1    1    2  502    0  0.56328515531E+02 -0.40913938777E+02  0.11377596211E+03  0.21765987596E+03  0.17200000000E+03 0. -1.
         -6    1    1    2    0  501 -0.56328515531E+02  0.40913938777E+02  0.10250013148E+01  0.18555835383E+03  0.17200000000E+03 0.  1.
</event>
<event>
 4    1  0.6352740E-002  0.1728017E+03  0.7818608E-02  0.1174957E+00
         -2   -1    0    0    0  501 -0.00000000000E+00  0.00000000000E+00  0.38955498728E+03  0.38955498728E+03  0.00000000000E+00 0.  1.
          2   -1    0    0  502    0  0.00000000000E+00 -0.00000000000E+00 -0.84159449704E+02  0.84159449704E+02  0.00000000000E+00 0. -1.
          6    1    1    2  502    0 -0.16232003107E+02 -0.35999457965E+01  0.81958356224E+02  0.19125273773E+03  0.17200000000E+03 0. -1.
         -6    1    1    2    0  501  0.16232003107E+02  0.35999457965E+01  0.22343718135E+03  0.28246169925E+03  0.17200000000E+03 0.  1.
</event>
<event>
 4    1  0.6352740E-002  0.1957506E+03  0.7818608E-02  0.1153375E+00
         -1   -1    0    0    0  501 -0.00000000000E+00  0.00000000000E+00  0.71551740903E+02  0.71551740903E+02  0.00000000000E+00 0.  1.
          1   -1    0    0  502    0  0.00000000000E+00 -0.00000000000E+00 -0.59018893975E+03  0.59018893975E+03  0.00000000000E+00 0. -1.
          6    1    1    2  502    0  0.93425480871E+02 -0.24408578599E+01 -0.15862932300E+03  0.25195543332E+03  0.17200000000E+03 0.  1.
         -6    1    1    2    0  501 -0.93425480871E+02  0.24408578599E+01 -0.36000787585E+03  0.40978524734E+03  0.17200000000E+03 0. -1.
</event>
<event>
 4    1  0.6352740E-002  0.2099347E+03  0.7818608E-02  0.1141618E+00
          1   -1    0    0  502    0  0.00000000000E+00  0.00000000000E+00  0.94191360218E+02  0.94191360218E+02  0.00000000000E+00 0. -1.
         -1   -1    0    0    0  501 -0.00000000000E+00 -0.00000000000E+00 -0.50591517520E+03  0.50591517520E+03  0.00000000000E+00 0.  1.
          6    1    1    2  502    0  0.60505722814E+02  0.10405601117E+03 -0.12361677620E+03  0.24362615482E+03  0.17200000000E+03 0. -1.
         -6    1    1    2    0  501 -0.60505722814E+02 -0.10405601117E+03 -0.28810703877E+03  0.35648038059E+03  0.17200000000E+03 0. -1.
</event>
<event>
 4    1  0.6352740E-002  0.4644443E+03  0.7818608E-02  0.1023500E+00
         -2   -1    0    0    0  501 -0.00000000000E+00  0.00000000000E+00  0.12850402178E+03  0.12850402178E+03  0.00000000000E+00 0.  1.
          2   -1    0    0  502    0  0.00000000000E+00 -0.00000000000E+00 -0.23964525855E+04  0.23964525855E+04  0.00000000000E+00 0. -1.
          6    1    1    2  502    0 -0.40381131825E+03 -0.15185815522E+03 -0.18249349117E+04  0.18831080457E+04  0.17200000000E+03 0. -1.
         -6    1    1    2    0  501  0.40381131825E+03  0.15185815522E+03 -0.44301365205E+03  0.64184856155E+03  0.17200000000E+03 0.  1.
</event>
<event>
 4    1  0.6352740E-002  0.2551372E+03  0.7818608E-02  0.1110101E+00
          2   -1    0    0  502    0  0.00000000000E+00  0.00000000000E+00  0.55206645876E+03  0.55206645876E+03  0.00000000000E+00 0. -1.
         -2   -1    0    0    0  501 -0.00000000000E+00 -0.00000000000E+00 -0.12351275011E+03  0.12351275011E+03  0.00000000000E+00 0.  1.
          6    1    1    2  502    0  0.22916103708E+01  0.18842964736E+03  0.28621064070E+03  0.38342080581E+03  0.17200000000E+03 0. -1.
         -6    1    1    2    0  501 -0.22916103708E+01 -0.18842964736E+03  0.14234306795E+03  0.29215840305E+03  0.17200000000E+03 0.  1.
</event>
<event>
 4    1  0.6352740E-002  0.3863860E+03  0.7818608E-02  0.1048598E+00
          2   -1    0    0  502    0  0.00000000000E+00  0.00000000000E+00  0.22817860067E+04  0.22817860067E+04  0.00000000000E+00 0. -1.
         -2   -1    0    0    0  501 -0.00000000000E+00 -0.00000000000E+00 -0.92383697121E+02  0.92383697121E+02  0.00000000000E+00 0.  1.
          6    1    1    2  502    0  0.19493831670E+03 -0.28584817026E+03  0.17359171290E+04  0.17783988312E+04  0.17200000000E+03 0. -1.
         -6    1    1    2    0  501 -0.19493831670E+03  0.28584817026E+03  0.45348518058E+03  0.59577087270E+03  0.17200000000E+03 0.  1.
</event>
<event>
 4    1  0.6352740E-002  0.2240056E+03  0.7818608E-02  0.1130931E+00
         -2   -1    0    0    0  501 -0.00000000000E+00  0.00000000000E+00  0.32762802499E+03  0.32762802499E+03  0.00000000000E+00 0.  1.
          2   -1    0    0  502    0  0.00000000000E+00 -0.00000000000E+00 -0.12502297818E+04  0.12502297818E+04  0.00000000000E+00 0. -1.
          6    1    1    2  502    0  0.14188738709E+03  0.21505285668E+02 -0.12003285124E+04  0.12210516147E+04  0.17200000000E+03 0. -1.
         -6    1    1    2    0  501 -0.14188738709E+03 -0.21505285668E+02  0.27772675563E+03  0.35680619210E+03  0.17200000000E+03 0.  1.
</event>
<event>
 4    1  0.6352740E-002  0.3013369E+03  0.7818608E-02  0.1084574E+00
          1   -1    0    0  502    0  0.00000000000E+00  0.00000000000E+00  0.95310440936E+03  0.95310440936E+03  0.00000000000E+00 0. -1.
         -1   -1    0    0    0  501 -0.00000000000E+00 -0.00000000000E+00 -0.11782770355E+03  0.11782770355E+03  0.00000000000E+00 0.  1.
          6    1    1    2  502    0 -0.13323173436E+03  0.20849272211E+03  0.65192038612E+03  0.71819502926E+03  0.17200000000E+03 0. -1.
         -6    1    1    2    0  501  0.13323173436E+03 -0.20849272211E+03  0.18335631968E+03  0.35273708365E+03  0.17200000000E+03 0.  1.
</event>
<event>
 4    1  0.6352740E-002  0.2945371E+03  0.7818608E-02  0.1088004E+00
         -2   -1    0    0    0  501 -0.00000000000E+00  0.00000000000E+00  0.28505731538E+03  0.28505731538E+03  0.00000000000E+00 0.  1.
          2   -1    0    0  502    0  0.00000000000E+00 -0.00000000000E+00 -0.30852347770E+03  0.30852347770E+03  0.00000000000E+00 0. -1.
          6    1    1    2  502    0 -0.46232307371E+02 -0.23458624374E+03 -0.46325167643E+02  0.29815793324E+03  0.17200000000E+03 0. -1.
         -6    1    1    2    0  501  0.46232307371E+02  0.23458624374E+03  0.22859005329E+02  0.29542285985E+03  0.17200000000E+03 0. -1.
</event>
<event>
 4    1  0.6352740E-002  0.2659974E+03  0.7818608E-02  0.1103592E+00
          2   -1    0    0  502    0  0.00000000000E+00  0.00000000000E+00  0.65463225668E+03  0.65463225668E+03  0.00000000000E+00 0. -1.
         -2   -1    0    0    0  501 -0.00000000000E+00 -0.00000000000E+00 -0.23761396516E+03  0.23761396516E+03  0.00000000000E+00 0.  1.
          6    1    1    2  502    0 -0.57630231406E+02  0.19454918398E+03  0.53789543332E+03  0.60007176716E+03  0.17200000000E+03 0. -1.
         -6    1    1    2    0  501  0.57630231406E+02 -0.19454918398E+03 -0.12087714180E+03  0.29217445468E+03  0.17200000000E+03 0.  1.
</event>
<event>
 4    1  0.6352740E-002  0.3613393E+03  0.7818608E-02  0.1058055E+00
          2   -1    0    0  502    0  0.00000000000E+00  0.00000000000E+00  0.61158346456E+03  0.61158346456E+03  0.00000000000E+00 0. -1.
         -2   -1    0    0    0  501 -0.00000000000E+00 -0.00000000000E+00 -0.25372399094E+03  0.25372399094E+03  0.00000000000E+00 0.  1.
          6    1    1    2  502    0  0.21253011158E+03 -0.23624787336E+03  0.35122118515E+03  0.50390716099E+03  0.17200000000E+03 0. -1.
         -6    1    1    2    0  501 -0.21253011158E+03  0.23624787336E+03  0.66382884785E+01  0.36140029451E+03  0.17200000000E+03 0.  1.
</event>
<event>
 4    1  0.6352740E-002  0.4298641E+03  0.7818608E-02  0.1033903E+00
          1   -1    0    0  502    0  0.00000000000E+00  0.00000000000E+00  0.47564443842E+03  0.47564443842E+03  0.00000000000E+00 0. -1.
         -1   -1    0    0    0  501 -0.00000000000E+00 -0.00000000000E+00 -0.39621038530E+03  0.39621038530E+03  0.00000000000E+00 0.  1.
          6    1    1    2  502    0  0.29105743647E+03 -0.26548949504E+03  0.10056848758E+03  0.44147154381E+03  0.17200000000E+03 0. -1.
         -6    1    1    2    0  501 -0.29105743647E+03  0.26548949504E+03 -0.21134434466E+02  0.43038327991E+03  0.17200000000E+03 0.  1.
</event>
<event>
 4    1  0.6352740E-002  0.1771127E+03  0.7818608E-02  0.1170627E+00
         -3   -1    0    0    0  501 -0.00000000000E+00  0.00000000000E+00  0.78792140045E+03  0.78792140045E+03  0.00000000000E+00 0.  1.
          3   -1    0    0  502    0  0.00000000000E+00 -0.00000000000E+00 -0.41289534669E+02  0.41289534669E+02  0.00000000000E+00 0. -1.
          6    1    1    2  502    0  0.40451427766E+02 -0.12190120459E+02  0.29489204268E+03  0.34399161891E+03  0.17200000000E+03 0. -1.
         -6    1    1    2    0  501 -0.40451427766E+02  0.12190120459E+02  0.45173982310E+03  0.48521931620E+03  0.17200000000E+03 0.  1.
</event>
<event>
 4    1  0.6352740E-002  0.2705485E+03  0.7818608E-02  0.1100966E+00
          1   -1    0    0  502    0  0.00000000000E+00  0.00000000000E+00  0.89310077264E+03  0.89310077264E+03  0.00000000000E+00 0. -1.
         -1   -1    0    0    0  501 -0.00000000000E+00 -0.00000000000E+00 -0.20314451917E+03  0.20314451917E+03  0.00000000000E+00 0.  1.
          6    1    1    2  502    0  0.20403193462E+03 -0.44536191821E+02  0.76833132867E+03  0.81457322159E+03  0.17200000000E+03 0. -1.
         -6    1    1    2    0  501 -0.20403193462E+03  0.44536191821E+02 -0.78375075199E+02  0.28167207021E+03  0.17200000000E+03 0.  1.
</event>
<event>
 4    1  0.6352740E-002  0.5295493E+03  0.7818608E-02  0.1006342E+00
         -2   -1    0    0    0  501 -0.00000000000E+00  0.00000000000E+00  0.29669890078E+03  0.29669890078E+03  0.00000000000E+00 0.  1.
          2   -1    0    0  502    0  0.00000000000E+00 -0.00000000000E+00 -0.21735157287E+04  0.21735157287E+04  0.00000000000E+00 0. -1.
          6    1    1    2  502    0  0.44355148723E+03  0.23259511456E+03 -0.18669228689E+04  0.19405729586E+04  0.17200000000E+03 0. -1.
         -6    1    1    2    0  501 -0.44355148723E+03 -0.23259511456E+03 -0.98939590326E+01  0.52964167091E+03  0.17200000000E+03 0.  1.
</event>
<event>
 4    1  0.6352740E-002  0.2048558E+03  0.7818608E-02  0.1145706E+00
         -2   -1    0    0    0  501 -0.00000000000E+00  0.00000000000E+00  0.96545420993E+02  0.96545420993E+02  0.00000000000E+00 0.  1.
          2   -1    0    0  502    0  0.00000000000E+00 -0.00000000000E+00 -0.51090364056E+03  0.51090364056E+03  0.00000000000E+00 0. -1.
          6    1    1    2  502    0  0.46373715491E+02  0.10115029339E+03 -0.32449822944E+03  0.38375122704E+03  0.17200000000E+03 0. -1.
         -6    1    1    2    0  501 -0.46373715491E+02 -0.10115029339E+03 -0.89859990126E+02  0.22369783452E+03  0.17200000000E+03 0.  1.
</event>
<event>
 4    1  0.6352740E-002  0.2970665E+03  0.7818608E-02  0.1086716E+00
         -1   -1    0    0    0  501 -0.00000000000E+00  0.00000000000E+00  0.50857947809E+02  0.50857947809E+02  0.00000000000E+00 0.  1.
          1   -1    0    0  502    0  0.00000000000E+00 -0.00000000000E+00 -0.20051461041E+04  0.20051461041E+04  0.00000000000E+00 0. -1.
          6    1    1    2  502    0 -0.21404178964E+03  0.11336050134E+03 -0.13543365113E+04  0.13865337633E+04  0.17200000000E+03 0. -1.
         -6    1    1    2    0  501  0.21404178964E+03 -0.11336050134E+03 -0.59995164499E+03  0.66947028859E+03  0.17200000000E+03 0.  1.
</event>
<event>
 4    1  0.6352740E-002  0.3167709E+03  0.7818608E-02  0.1077145E+00
          1   -1    0    0  502    0  0.00000000000E+00  0.00000000000E+00  0.11198799114E+04  0.11198799114E+04  0.00000000000E+00 0. -1.
         -1   -1    0    0    0  501 -0.00000000000E+00 -0.00000000000E+00 -0.92118947181E+02  0.92118947181E+02  0.00000000000E+00 0.  1.
          6    1    1    2  502    0  0.26574720343E+03  0.11756822559E+02  0.41371682059E+03  0.52106180694E+03  0.17200000000E+03 0. -1.
         -6    1    1    2    0  501 -0.26574720343E+03 -0.11756822559E+02  0.61404414361E+03  0.69093705163E+03  0.17200000000E+03 0.  1.
</event>
<event>
 4    1  0.6352740E-002  0.3123686E+03  0.7818608E-02  0.1079216E+00
         -1   -1    0    0    0  501 -0.00000000000E+00  0.00000000000E+00  0.13715934186E+03  0.13715934186E+03  0.00000000000E+00 0.  1.
          1   -1    0    0  502    0  0.00000000000E+00 -0.00000000000E+00 -0.76736776229E+03  0.76736776229E+03  0.00000000000E+00 0. -1.
          6    1    1    2  502    0  0.26057793502E+03 -0.94497505675E+01 -0.19295602785E+03  0.36715962018E+03  0.17200000000E+03 0. -1.
         -6    1    1    2    0  501 -0.26057793502E+03  0.94497505675E+01 -0.43725239258E+03  0.53736748397E+03  0.17200000000E+03 0.  1.
</event>
<event>
 4    1  0.6352740E-002  0.2782093E+03  0.7818608E-02  0.1096671E+00
         -3   -1    0    0    0  501 -0.00000000000E+00  0.00000000000E+00  0.46512150101E+03  0.46512150101E+03  0.00000000000E+00 0.  1.
          3   -1    0    0  502    0  0.00000000000E+00 -0.00000000000E+00 -0.27798326231E+03  0.27798326231E+03  0.00000000000E+00 0. -1.
          6    1    1    2  502    0  0.65723981549E+02 -0.20855882694E+03 -0.14182339348E+03  0.31227279898E+03  0.17200000000E+03 0. -1.
         -6    1    1    2    0  501 -0.65723981549E+02  0.20855882694E+03  0.32896163219E+03  0.43083196434E+03  0.17200000000E+03 0.  1.
</event>
<event>
 4    1  0.6352740E-002  0.6197487E+03  0.7818608E-02  0.9865260E-01
          2   -1    0    0  502    0  0.00000000000E+00  0.00000000000E+00  0.80445838256E+03  0.80445838256E+03  0.00000000000E+00 0. -1.
         -2   -1    0    0    0  501 -0.00000000000E+00 -0.00000000000E+00 -0.57384313495E+03  0.57384313495E+03  0.00000000000E+00 0.  1.
          6    1    1    2  502    0  0.40373680033E+03 -0.43760831888E+03  0.39775743196E+03  0.73640981755E+03  0.17200000000E+03 0. -1.
         -6    1    1    2    0  501 -0.40373680033E+03  0.43760831888E+03 -0.16714218435E+03  0.64189169997E+03  0.17200000000E+03 0.  1.
</event>
<event>
 4    1  0.6352740E-002  0.1898048E+03  0.7818608E-02  0.1158638E+00
          2   -1    0    0  502    0  0.00000000000E+00  0.00000000000E+00  0.13270343891E+04  0.13270343891E+04  0.00000000000E+00 0. -1.
         -2   -1    0    0    0  501 -0.00000000000E+00 -0.00000000000E+00 -0.27932415442E+02  0.27932415442E+02  0.00000000000E+00 0.  1.
          6    1    1    2  502    0 -0.70317823793E+02 -0.38694472783E+02  0.76310845937E+03  0.78635893797E+03  0.17200000000E+03 0. -1.
         -6    1    1    2    0  501  0.70317823793E+02  0.38694472783E+02  0.53599351431E+03  0.56860786659E+03  0.17200000000E+03 0. -1.
</event>
<event>
 4    1  0.6352740E-002  0.4285328E+03  0.7818608E-02  0.1034324E+00
          2   -1    0    0  502    0  0.00000000000E+00  0.00000000000E+00  0.61926812699E+03  0.61926812699E+03  0.00000000000E+00 0. -1.
         -2   -1    0    0    0  501 -0.00000000000E+00 -0.00000000000E+00 -0.33815869313E+03  0.33815869313E+03  0.00000000000E+00 0.  1.
          6    1    1    2  502    0 -0.21019837704E+03  0.33147099267E+03  0.30848830778E+03  0.52802027682E+03  0.17200000000E+03 0. -1.
         -6    1    1    2    0  501  0.21019837704E+03 -0.33147099267E+03 -0.27378873918E+02  0.42940654330E+03  0.17200000000E+03 0.  1.
</event>
<event>
 4    1  0.6352740E-002  0.1774313E+03  0.7818608E-02  0.1170312E+00
          2   -1    0    0  502    0  0.00000000000E+00  0.00000000000E+00  0.67549570479E+03  0.67549570479E+03  0.00000000000E+00 0. -1.
         -2   -1    0    0    0  501 -0.00000000000E+00 -0.00000000000E+00 -0.48302215051E+02  0.48302215051E+02  0.00000000000E+00 0.  1.
          6    1    1    2  502    0  0.33677409230E+02 -0.27635323454E+02  0.38142273710E+03  0.42067229927E+03  0.17200000000E+03 0. -1.
         -6    1    1    2    0  501 -0.33677409230E+02  0.27635323454E+02  0.24577075264E+03  0.30312562057E+03  0.17200000000E+03 0. -1.
</event>
<event>
 4    1  0.6352740E-002  0.1907958E+03  0.7818608E-02  0.1157745E+00
          2   -1    0    0  502    0  0.00000000000E+00  0.00000000000E+00  0.23193181607E+02  0.23193181607E+02  0.00000000000E+00 0. -1.
         -2   -1    0    0    0  501 -0.00000000000E+00 -0.00000000000E+00 -0.16060891670E+04  0.16060891670E+04  0.00000000000E+00 0.  1.
          6    1    1    2  502    0 -0.26835985689E+02 -0.78095349955E+02 -0.66858793326E+03  0.69527899315E+03  0.17200000000E+03 0. -1.
         -6    1    1    2    0  501  0.26835985689E+02  0.78095349955E+02 -0.91430805213E+03  0.93400335545E+03  0.17200000000E+03 0.  1.
</event>
<event>
 4    1  0.6352740E-002  0.1915135E+03  0.7818608E-02  0.1157103E+00
          2   -1    0    0  502    0  0.00000000000E+00  0.00000000000E+00  0.88460667008E+02  0.88460667008E+02  0.00000000000E+00 0. -1.
         -2   -1    0    0    0  501 -0.00000000000E+00 -0.00000000000E+00 -0.43893987531E+03  0.43893987531E+03  0.00000000000E+00 0.  1.
          6    1    1    2  502    0 -0.40610693635E+02 -0.73784698100E+02 -0.23731279004E+03  0.30495043929E+03  0.17200000000E+03 0. -1.
         -6    1    1    2    0  501  0.40610693635E+02  0.73784698100E+02 -0.11316641826E+03  0.22245010302E+03  0.17200000000E+03 0. -1.
</event>
<event>
 4    1  0.6352740E-002  0.1896061E+03  0.7818608E-02  0.1158817E+00
         -1   -1    0    0    0  501 -0.00000000000E+00  0.00000000000E+00  0.40340425656E+02  0.40340425656E+02  0.00000000000E+00 0.  1.
          1   -1    0    0  502    0  0.00000000000E+00 -0.00000000000E+00 -0.13865604893E+04  0.13865604893E+04  0.00000000000E+00 0. -1.
          6    1    1    2  502    0 -0.93532754835E+01 -0.79240140350E+02 -0.24666318002E+03  0.31111606835E+03  0.17200000000E+03 0.  1.
         -6    1    1    2    0  501  0.93532754835E+01  0.79240140350E+02 -0.10995568836E+04  0.11157848466E+04  0.17200000000E+03 0.  1.
</event>
<event>
 4    1  0.6352740E-002  0.2205422E+03  0.7818608E-02  0.1133479E+00
         -1   -1    0    0    0  501 -0.00000000000E+00  0.00000000000E+00  0.18676939155E+03  0.18676939155E+03  0.00000000000E+00 0.  1.
          1   -1    0    0  502    0  0.00000000000E+00 -0.00000000000E+00 -0.19764758244E+04  0.19764758244E+04  0.00000000000E+00 0. -1.
          6    1    1    2  502    0  0.77749790232E+02 -0.11406072303E+03 -0.19027021537E+04  0.19154410364E+04  0.17200000000E+03 0. -1.
         -6    1    1    2    0  501 -0.77749790232E+02  0.11406072303E+03  0.11299572089E+03  0.24780417946E+03  0.17200000000E+03 0.  1.
</event>
<event>
 4    1  0.6352740E-002  0.2679754E+03  0.7818608E-02  0.1102444E+00
          2   -1    0    0  502    0  0.00000000000E+00  0.00000000000E+00  0.36758778471E+03  0.36758778471E+03  0.00000000000E+00 0. -1.
         -2   -1    0    0    0  501 -0.00000000000E+00 -0.00000000000E+00 -0.42157374438E+03  0.42157374438E+03  0.00000000000E+00 0.  1.
          6    1    1    2  502    0  0.18009275475E+03 -0.98961572372E+02  0.26204948141E+03  0.37480758240E+03  0.17200000000E+03 0. -1.
         -6    1    1    2    0  501 -0.18009275475E+03  0.98961572372E+02 -0.31603544108E+03  0.41435394669E+03  0.17200000000E+03 0.  1.
</event>
<event>
 4    1  0.6352740E-002  0.1994817E+03  0.7818608E-02  0.1150177E+00
         -2   -1    0    0    0  501 -0.00000000000E+00  0.00000000000E+00  0.12636188616E+02  0.12636188616E+02  0.00000000000E+00 0.  1.
          2   -1    0    0  502    0  0.00000000000E+00 -0.00000000000E+00 -0.40133874331E+04  0.40133874331E+04  0.00000000000E+00 0. -1.
          6    1    1    2  502    0 -0.90369567193E+02 -0.45191789362E+02 -0.29345183119E+04  0.29412906486E+04  0.17200000000E+03 0. -1.
         -6    1    1    2    0  501  0.90369567193E+02  0.45191789362E+02 -0.10662329326E+04  0.10847329731E+04  0.17200000000E+03 0.  1.
</event>
<event>
 4    1  0.6352740E-002  0.5456002E+03  0.7818608E-02  0.1002517E+00
          2   -1    0    0  502    0  0.00000000000E+00  0.00000000000E+00  0.15267856165E+04  0.15267856165E+04  0.00000000000E+00 0. -1.
         -2   -1    0    0    0  501 -0.00000000000E+00 -0.00000000000E+00 -0.20405393611E+03  0.20405393611E+03  0.00000000000E+00 0.  1.
          6    1    1    2  502    0  0.48201895363E+03 -0.18908537185E+03  0.47878400211E+03  0.72588819400E+03  0.17200000000E+03 0. -1.
         -6    1    1    2    0  501 -0.48201895363E+03  0.18908537185E+03  0.84394767832E+03  0.10049513587E+04  0.17200000000E+03 0.  1.
</event>
<event>
 4    1  0.6352740E-002  0.1795695E+03  0.7818608E-02  0.1168220E+00
          1   -1    0    0  502    0  0.00000000000E+00  0.00000000000E+00  0.36559826150E+03  0.36559826150E+03  0.00000000000E+00 0. -1.
         -1   -1    0    0    0  501 -0.00000000000E+00 -0.00000000000E+00 -0.14846006271E+03  0.14846006271E+03  0.00000000000E+00 0.  1.
          6    1    1    2  502    0 -0.37855551582E+02  0.35045343011E+02  0.27232530611E+03  0.32619977192E+03  0.17200000000E+03 0. -1.
         -6    1    1    2    0  501  0.37855551582E+02 -0.35045343011E+02 -0.55187107319E+02  0.18785855228E+03  0.17200000000E+03 0.  1.
</event>
<event>
 4    1  0.6352740E-002  0.4749330E+03  0.7818608E-02  0.1020537E+00
          2   -1    0    0  502    0  0.00000000000E+00  0.00000000000E+00  0.94994715030E+03  0.94994715030E+03  0.00000000000E+00 0. -1.
         -2   -1    0    0    0  501 -0.00000000000E+00 -0.00000000000E+00 -0.94015943663E+03  0.94015943663E+03  0.00000000000E+00 0.  1.
          6    1    1    2  502    0 -0.18034084400E+03  0.40429511277E+03  0.82193627955E+03  0.94928425978E+03  0.17200000000E+03 0. -1.
         -6    1    1    2    0  501  0.18034084400E+03 -0.40429511277E+03 -0.81214856587E+03  0.94082232715E+03  0.17200000000E+03 0.  1.
</event>
<event>
 4    1  0.6352740E-002  0.2006248E+03  0.7818608E-02  0.1149213E+00
          2   -1    0    0  502    0  0.00000000000E+00  0.00000000000E+00  0.46427440006E+03  0.46427440006E+03  0.00000000000E+00 0. -1.
         -2   -1    0    0    0  501 -0.00000000000E+00 -0.00000000000E+00 -0.11203630371E+03  0.11203630371E+03  0.00000000000E+00 0.  1.
          6    1    1    2  502    0  0.49181209448E+02 -0.90815880684E+02  0.39074764895E+02  0.20439460071E+03  0.17200000000E+03 0. -1.
         -6    1    1    2    0  501 -0.49181209448E+02  0.90815880684E+02  0.31316333146E+03  0.37191610306E+03  0.17200000000E+03 0.  1.
</event>
<event>
 4    1  0.6352740E-002  0.2662281E+03  0.7818608E-02  0.1103458E+00
         -2   -1    0    0    0  501 -0.00000000000E+00  0.00000000000E+00  0.64880501622E+02  0.64880501622E+02  0.00000000000E+00 0.  1.
          2   -1    0    0  502    0  0.00000000000E+00 -0.00000000000E+00 -0.13440050515E+04  0.13440050515E+04  0.00000000000E+00 0. -1.
          6    1    1    2  502    0 -0.20197192423E+03  0.22377881397E+02 -0.33478767452E+03  0.42773848876E+03  0.17200000000E+03 0. -1.
         -6    1    1    2    0  501  0.20197192423E+03 -0.22377881397E+02 -0.94433687534E+03  0.98114706435E+03  0.17200000000E+03 0. -1.
</event>
<event>
 4    1  0.6352740E-002  0.2477467E+03  0.7818608E-02  0.1114737E+00
          2   -1    0    0  502    0  0.00000000000E+00  0.00000000000E+00  0.25348358484E+04  0.25348358484E+04  0.00000000000E+00 0. -1.
         -2   -1    0    0    0  501 -0.00000000000E+00 -0.00000000000E+00 -0.37204066841E+02  0.37204066841E+02  0.00000000000E+00 0.  1.
          6    1    1    2  502    0  0.32419498187E+02 -0.17533801503E+03  0.20087197798E+04  0.20239401170E+04  0.17200000000E+03 0. -1.
         -6    1    1    2    0  501 -0.32419498187E+02  0.17533801503E+03  0.48891200171E+03  0.54809979821E+03  0.17200000000E+03 0.  1.
</event>
<event>
 4    1  0.6352740E-002  0.2827212E+03  0.7818608E-02  0.1094212E+00
          1   -1    0    0  502    0  0.00000000000E+00  0.00000000000E+00  0.16988045705E+03  0.16988045705E+03  0.00000000000E+00 0. -1.
         -1   -1    0    0    0  501 -0.00000000000E+00 -0.00000000000E+00 -0.85181047088E+03  0.85181047088E+03  0.00000000000E+00 0.  1.
          6    1    1    2  502    0  0.14676007934E+03  0.16973136850E+03  0.81686822605E+00  0.28272234721E+03  0.17200000000E+03 0. -1.
         -6    1    1    2    0  501 -0.14676007934E+03 -0.16973136850E+03 -0.68274688206E+03  0.73896858072E+03  0.17200000000E+03 0.  1.
</event>
<event>
 4    1  0.6352740E-002  0.1918373E+03  0.7818608E-02  0.1156815E+00
         -1   -1    0    0    0  501 -0.00000000000E+00  0.00000000000E+00  0.96833555158E+03  0.96833555158E+03  0.00000000000E+00 0.  1.
          1   -1    0    0  502    0  0.00000000000E+00 -0.00000000000E+00 -0.16569674105E+03  0.16569674105E+03  0.00000000000E+00 0. -1.
          6    1    1    2  502    0  0.71509546989E+02 -0.45868614007E+02 -0.96440522172E+02  0.21471450668E+03  0.17200000000E+03 0. -1.
         -6    1    1    2    0  501 -0.71509546989E+02  0.45868614007E+02  0.89907933270E+03  0.91931778595E+03  0.17200000000E+03 0.  1.
</event>
<event>
 4    1  0.6352740E-002  0.1817094E+03  0.7818608E-02  0.1166159E+00
         -2   -1    0    0    0  501 -0.00000000000E+00  0.00000000000E+00  0.75216463318E+02  0.75216463318E+02  0.00000000000E+00 0.  1.
          2   -1    0    0  502    0  0.00000000000E+00 -0.00000000000E+00 -0.81909471133E+03  0.81909471133E+03  0.00000000000E+00 0. -1.
          6    1    1    2  502    0 -0.14512817799E+02 -0.56777520220E+02 -0.67655362101E+03  0.70053059233E+03  0.17200000000E+03 0. -1.
         -6    1    1    2    0  501  0.14512817799E+02  0.56777520220E+02 -0.67324626997E+02  0.19378058232E+03  0.17200000000E+03 0.  1.
</event>
<event>
 4    1  0.6352740E-002  0.3112877E+03  0.7818608E-02  0.1079730E+00
         -1   -1    0    0    0  501 -0.00000000000E+00  0.00000000000E+00  0.21825353833E+03  0.21825353833E+03  0.00000000000E+00 0.  1.
          1   -1    0    0  502    0  0.00000000000E+00 -0.00000000000E+00 -0.44887241035E+03  0.44887241035E+03  0.00000000000E+00 0. -1.
          6    1    1    2  502    0 -0.14642498369E+03  0.21418630432E+03 -0.15013593142E+03  0.34560215091E+03  0.17200000000E+03 0. -1.
         -6    1    1    2    0  501  0.14642498369E+03 -0.21418630432E+03 -0.80482940597E+02  0.32152379778E+03  0.17200000000E+03 0.  1.
</event>
<event>
 4    1  0.6352740E-002  0.3729222E+03  0.7818608E-02  0.1053581E+00
         -2   -1    0    0    0  501 -0.00000000000E+00  0.00000000000E+00  0.26325592718E+03  0.26325592718E+03  0.00000000000E+00 0.  1.
          2   -1    0    0  502    0  0.00000000000E+00 -0.00000000000E+00 -0.67820615562E+03  0.67820615562E+03  0.00000000000E+00 0. -1.
          6    1    1    2  502    0 -0.21718160434E+03 -0.24963790162E+03 -0.42880557337E+03  0.56828263298E+03  0.17200000000E+03 0. -1.
         -6    1    1    2    0  501  0.21718160434E+03  0.24963790162E+03  0.13855344931E+02  0.37317944983E+03  0.17200000000E+03 0.  1.
</event>
<event>
 4    1  0.6352740E-002  0.3226162E+03  0.7818608E-02  0.1074451E+00
         -1   -1    0    0    0  501 -0.00000000000E+00  0.00000000000E+00  0.13929923841E+03  0.13929923841E+03  0.00000000000E+00 0.  1.
          1   -1    0    0  502    0  0.00000000000E+00 -0.00000000000E+00 -0.79062547748E+03  0.79062547748E+03  0.00000000000E+00 0. -1.
          6    1    1    2  502    0 -0.24834748278E+03  0.11322883490E+03 -0.43466091872E+03  0.54130523323E+03  0.17200000000E+03 0. -1.
         -6    1    1    2    0  501  0.24834748278E+03 -0.11322883490E+03 -0.21666532035E+03  0.38861948265E+03  0.17200000000E+03 0.  1.
</event>
<event>
 4    1  0.6352740E-002  0.2091580E+03  0.7818608E-02  0.1142235E+00
          2   -1    0    0  502    0  0.00000000000E+00  0.00000000000E+00  0.18450658091E+04  0.18450658091E+04  0.00000000000E+00 0. -1.
         -2   -1    0    0    0  501 -0.00000000000E+00 -0.00000000000E+00 -0.23748912244E+02  0.23748912244E+02  0.00000000000E+00 0.  1.
          6    1    1    2  502    0  0.13577488712E+02 -0.11823156211E+03  0.87297786028E+03  0.89768446295E+03  0.17200000000E+03 0.  1.
         -6    1    1    2    0  501 -0.13577488712E+02  0.11823156211E+03  0.94833903657E+03  0.97113025839E+03  0.17200000000E+03 0. -1.
</event>
<event>
 4    1  0.6352740E-002  0.3117332E+03  0.7818608E-02  0.1079518E+00
         -2   -1    0    0    0  501 -0.00000000000E+00  0.00000000000E+00  0.15949881542E+03  0.15949881542E+03  0.00000000000E+00 0.  1.
          2   -1    0    0  502    0  0.00000000000E+00 -0.00000000000E+00 -0.16813193967E+04  0.16813193967E+04  0.00000000000E+00 0. -1.
          6    1    1    2  502    0 -0.68406798818E+02 -0.25082679815E+03 -0.14958700090E+04  0.15280067594E+04  0.17200000000E+03 0. -1.
         -6    1    1    2    0  501  0.68406798818E+02  0.25082679815E+03 -0.25950572291E+02  0.31281145279E+03  0.17200000000E+03 0.  1.
</event>
<event>
 4    1  0.6352740E-002  0.2799310E+03  0.7818608E-02  0.1095727E+00
          2   -1    0    0  502    0  0.00000000000E+00  0.00000000000E+00  0.96077054197E+02  0.96077054197E+02  0.00000000000E+00 0. -1.
         -2   -1    0    0    0  501 -0.00000000000E+00 -0.00000000000E+00 -0.11330677389E+04  0.11330677389E+04  0.00000000000E+00 0.  1.
          6    1    1    2  502    0 -0.50450461832E+02 -0.21501659532E+03 -0.19319222853E+03  0.34012442213E+03  0.17200000000E+03 0. -1.
         -6    1    1    2    0  501  0.50450461832E+02  0.21501659532E+03 -0.84379845612E+03  0.88902037092E+03  0.17200000000E+03 0.  1.
</event>
<event>
 4    1  0.6352740E-002  0.2694321E+03  0.7818608E-02  0.1101605E+00
         -1   -1    0    0    0  501 -0.00000000000E+00  0.00000000000E+00  0.14731576930E+03  0.14731576930E+03  0.00000000000E+00 0.  1.
          1   -1    0    0  502    0  0.00000000000E+00 -0.00000000000E+00 -0.53253700715E+03  0.53253700715E+03  0.00000000000E+00 0. -1.
          6    1    1    2  502    0  0.20576251388E+03 -0.25911772709E+02 -0.28549448470E+03  0.39255666200E+03  0.17200000000E+03 0. -1.
         -6    1    1    2    0  501 -0.20576251388E+03  0.25911772709E+02 -0.99726753139E+02  0.28729611445E+03  0.17200000000E+03 0.  1.
</event>
<event>
 4    1  0.6352740E-002  0.2314089E+03  0.7818608E-02  0.1125652E+00
          1   -1    0    0  502    0  0.00000000000E+00  0.00000000000E+00  0.35540690107E+03  0.35540690107E+03  0.00000000000E+00 0. -1.
         -1   -1    0    0    0  501 -0.00000000000E+00 -0.00000000000E+00 -0.15107471468E+03  0.15107471468E+03  0.00000000000E+00 0.  1.
          6    1    1    2  502    0 -0.15402034287E+03  0.15613889762E+02  0.11523221178E+03  0.25851213164E+03  0.17200000000E+03 0. -1.
         -6    1    1    2    0  501  0.15402034287E+03 -0.15613889762E+02  0.89099974613E+02  0.24796948411E+03  0.17200000000E+03 0.  1.
</event>
<event>
 4    1  0.6352740E-002  0.2274320E+03  0.7818608E-02  0.1128460E+00
          2   -1    0    0  502    0  0.00000000000E+00  0.00000000000E+00  0.57875106146E+03  0.57875106146E+03  0.00000000000E+00 0. -1.
         -2   -1    0    0    0  501 -0.00000000000E+00 -0.00000000000E+00 -0.91769652106E+02  0.91769652106E+02  0.00000000000E+00 0.  1.
          6    1    1    2  502    0  0.13620725917E+03 -0.59907290220E+02  0.18932255677E+03  0.29591946771E+03  0.17200000000E+03 0. -1.
         -6    1    1    2    0  501 -0.13620725917E+03  0.59907290220E+02  0.29765885259E+03  0.37460124585E+03  0.17200000000E+03 0.  1.
</event>
<event>
 4    1  0.6352740E-002  0.2032522E+03  0.7818608E-02  0.1147024E+00
         -1   -1    0    0    0  501 -0.00000000000E+00  0.00000000000E+00  0.58548362259E+02  0.58548362259E+02  0.00000000000E+00 0.  1.
          1   -1    0    0  502    0  0.00000000000E+00 -0.00000000000E+00 -0.86416235696E+03  0.86416235696E+03  0.00000000000E+00 0. -1.
          6    1    1    2  502    0  0.10520265348E+03 -0.25688104606E+02 -0.60043283827E+03  0.63390146734E+03  0.17200000000E+03 0. -1.
         -6    1    1    2    0  501 -0.10520265348E+03  0.25688104606E+02 -0.20518115643E+03  0.28880925188E+03  0.17200000000E+03 0.  1.
</event>
<event>
 4    1  0.6352740E-002  0.2678612E+03  0.7818608E-02  0.1102510E+00
         -1   -1    0    0    0  501 -0.00000000000E+00  0.00000000000E+00  0.39942499075E+02  0.39942499075E+02  0.00000000000E+00 0.  1.
          1   -1    0    0  502    0  0.00000000000E+00 -0.00000000000E+00 -0.18169888552E+04  0.18169888552E+04  0.00000000000E+00 0. -1.
          6    1    1    2  502    0 -0.19012508318E+03  0.77576416248E+02 -0.78950573266E+03  0.83370795218E+03  0.17200000000E+03 0.  1.
         -6    1    1    2    0  501  0.19012508318E+03 -0.77576416248E+02 -0.98754062342E+03  0.10232234021E+04  0.17200000000E+03 0.  1.
</event>
<event>
 4    1  0.6352740E-002  0.1809364E+03  0.7818608E-02  0.1166900E+00
         -2   -1    0    0    0  501 -0.00000000000E+00  0.00000000000E+00  0.24945796212E+02  0.24945796212E+02  0.00000000000E+00 0.  1.
          2   -1    0    0  502    0  0.00000000000E+00 -0.00000000000E+00 -0.17378483513E+04  0.17378483513E+04  0.00000000000E+00 0. -1.
          6    1    1    2  502    0 -0.49560739766E+02 -0.26414514437E+02 -0.42033040018E+03  0.45761953500E+03  0.17200000000E+03 0.  1.
         -6    1    1    2    0  501  0.49560739766E+02  0.26414514437E+02 -0.12925721549E+04  0.13051746125E+04  0.17200000000E+03 0. -1.
</event>
<event>
 4    1  0.6352740E-002  0.2231455E+03  0.7818608E-02  0.1131559E+00
         -2   -1    0    0    0  501 -0.00000000000E+00  0.00000000000E+00  0.39584603776E+02  0.39584603776E+02  0.00000000000E+00 0.  1.
          2   -1    0    0  502    0  0.00000000000E+00 -0.00000000000E+00 -0.14811946508E+04  0.14811946508E+04  0.00000000000E+00 0. -1.
          6    1    1    2  502    0 -0.10214393647E+03 -0.98876270679E+02 -0.10160338579E+04  0.10402493456E+04  0.17200000000E+03 0. -1.
         -6    1    1    2    0  501  0.10214393647E+03  0.98876270679E+02 -0.42557618919E+03  0.48052990903E+03  0.17200000000E+03 0.  1.
</event>
<event>
 4    1  0.6352740E-002  0.2890050E+03  0.7818608E-02  0.1090870E+00
         -1   -1    0    0    0  501 -0.00000000000E+00  0.00000000000E+00  0.16112088028E+03  0.16112088028E+03  0.00000000000E+00 0.  1.
          1   -1    0    0  502    0  0.00000000000E+00 -0.00000000000E+00 -0.10810965809E+04  0.10810965809E+04  0.00000000000E+00 0. -1.
          6    1    1    2  502    0 -0.21625961391E+03  0.84685865309E+02 -0.90808819152E+03  0.95296803723E+03  0.17200000000E+03 0. -1.
         -6    1    1    2    0  501  0.21625961391E+03 -0.84685865309E+02 -0.11887509118E+02  0.28924942397E+03  0.17200000000E+03 0.  1.
</event>
<event>
 4    1  0.6352740E-002  0.1774634E+03  0.7818608E-02  0.1170281E+00
         -2   -1    0    0    0  501 -0.00000000000E+00  0.00000000000E+00  0.53778109805E+03  0.53778109805E+03  0.00000000000E+00 0.  1.
          2   -1    0    0  502    0  0.00000000000E+00 -0.00000000000E+00 -0.63317539223E+03  0.63317539223E+03  0.00000000000E+00 0. -1.
          6    1    1    2  502    0  0.77974991020E+00  0.43687907729E+02 -0.60544361389E+03  0.63091616788E+03  0.17200000000E+03 0. -1.
         -6    1    1    2    0  501 -0.77974991020E+00 -0.43687907729E+02  0.51004931971E+03  0.54004032241E+03  0.17200000000E+03 0.  1.
</event>
<event>
 4    1  0.6352740E-002  0.4221472E+03  0.7818608E-02  0.1036370E+00
         -1   -1    0    0    0  501 -0.00000000000E+00  0.00000000000E+00  0.22929452553E+03  0.22929452553E+03  0.00000000000E+00 0.  1.
          1   -1    0    0  502    0  0.00000000000E+00 -0.00000000000E+00 -0.78004532812E+03  0.78004532812E+03  0.00000000000E+00 0. -1.
          6    1    1    2  502    0 -0.32100871617E+03 -0.21348920691E+03 -0.24490792260E+03  0.48804521089E+03  0.17200000000E+03 0. -1.
         -6    1    1    2    0  501  0.32100871617E+03  0.21348920691E+03 -0.30584287999E+03  0.52129464276E+03  0.17200000000E+03 0. -1.
</event>
<event>
 4    1  0.6352740E-002  0.1887978E+03  0.7818608E-02  0.1159550E+00
         -2   -1    0    0    0  501 -0.00000000000E+00  0.00000000000E+00  0.27633153332E+03  0.27633153332E+03  0.00000000000E+00 0.  1.
          2   -1    0    0  502    0  0.00000000000E+00 -0.00000000000E+00 -0.12905463184E+03  0.12905463184E+03  0.00000000000E+00 0. -1.
          6    1    1    2  502    0 -0.77151024381E+02 -0.10408876227E+02  0.78094944626E+02  0.20431212799E+03  0.17200000000E+03 0. -1.
         -6    1    1    2    0  501  0.77151024381E+02  0.10408876227E+02  0.69181956856E+02  0.20107403717E+03  0.17200000000E+03 0. -1.
</event>
<event>
 4    1  0.6352740E-002  0.2015083E+03  0.7818608E-02  0.1148473E+00
          2   -1    0    0  502    0  0.00000000000E+00  0.00000000000E+00  0.20337029405E+04  0.20337029405E+04  0.00000000000E+00 0. -1.
         -2   -1    0    0    0  501 -0.00000000000E+00 -0.00000000000E+00 -0.20699647108E+02  0.20699647108E+02  0.00000000000E+00 0.  1.
          6    1    1    2  502    0 -0.85132567446E+02 -0.61433080019E+02  0.81316197946E+03  0.83775771092E+03  0.17200000000E+03 0. -1.
         -6    1    1    2    0  501  0.85132567446E+02  0.61433080019E+02  0.11998413139E+04  0.12166448766E+04  0.17200000000E+03 0.  1.
</event>
<event>
 4    1  0.6352740E-002  0.1982341E+03  0.7818608E-02  0.1151238E+00
         -3   -1    0    0    0  501 -0.00000000000E+00  0.00000000000E+00  0.10749645105E+04  0.10749645105E+04  0.00000000000E+00 0.  1.
          3   -1    0    0  502    0  0.00000000000E+00 -0.00000000000E+00 -0.36556679862E+02  0.36556679862E+02  0.00000000000E+00 0. -1.
          6    1    1    2  502    0  0.94885484517E+02 -0.26636223989E+02  0.52095444045E+03  0.55739597471E+03  0.17200000000E+03 0. -1.
         -6    1    1    2    0  501 -0.94885484517E+02  0.26636223989E+02  0.51745339017E+03  0.55412521563E+03  0.17200000000E+03 0.  1.
</event>
<event>
 4    1  0.6352740E-002  0.2790240E+03  0.7818608E-02  0.1096223E+00
          2   -1    0    0  502    0  0.00000000000E+00  0.00000000000E+00  0.22906535027E+04  0.22906535027E+04  0.00000000000E+00 0. -1.
         -2   -1    0    0    0  501 -0.00000000000E+00 -0.00000000000E+00 -0.34005646017E+02  0.34005646017E+02  0.00000000000E+00 0.  1.
          6    1    1    2  502    0  0.98606484096E+02  0.19633429079E+03  0.11017356850E+04  0.11365192089E+04  0.17200000000E+03 0. -1.
         -6    1    1    2    0  501 -0.98606484096E+02 -0.19633429079E+03  0.11549121716E+04  0.11881399398E+04  0.17200000000E+03 0.  1.
</event>
<event>
 4    1  0.6352740E-002  0.1894228E+03  0.7818608E-02  0.1158983E+00
         -2   -1    0    0    0  501 -0.00000000000E+00  0.00000000000E+00  0.17374085558E+02  0.17374085558E+02  0.00000000000E+00 0.  1.
          2   -1    0    0  502    0  0.00000000000E+00 -0.00000000000E+00 -0.24567039163E+04  0.24567039163E+04  0.00000000000E+00 0. -1.
          6    1    1    2  502    0  0.65798301945E+01 -0.79080283235E+02 -0.17134912845E+04  0.17239296295E+04  0.17200000000E+03 0. -1.
         -6    1    1    2    0  501 -0.65798301945E+01  0.79080283235E+02 -0.72583854626E+03  0.75014837239E+03  0.17200000000E+03 0.  1.
</event>
<event>
 4    1  0.6352740E-002  0.1885704E+03  0.7818608E-02  0.1159757E+00
         -2   -1    0    0    0  501 -0.00000000000E+00  0.00000000000E+00  0.11296340185E+03  0.11296340185E+03  0.00000000000E+00 0.  1.
          2   -1    0    0  502    0  0.00000000000E+00 -0.00000000000E+00 -0.34224412972E+03  0.34224412972E+03  0.00000000000E+00 0. -1.
          6    1    1    2  502    0 -0.64680323198E+02 -0.42323113578E+02 -0.17911403885E+03  0.26007812108E+03  0.17200000000E+03 0. -1.
         -6    1    1    2    0  501  0.64680323198E+02  0.42323113578E+02 -0.50166689018E+02  0.19512941049E+03  0.17200000000E+03 0.  1.
</event>
<event>
 4    1  0.6352740E-002  0.2671646E+03  0.7818608E-02  0.1102913E+00
         -2   -1    0    0    0  501 -0.00000000000E+00  0.00000000000E+00  0.15793671429E+03  0.15793671429E+03  0.00000000000E+00 0.  1.
          2   -1    0    0  502    0  0.00000000000E+00 -0.00000000000E+00 -0.59535367297E+03  0.59535367297E+03  0.00000000000E+00 0. -1.
          6    1    1    2  502    0 -0.12237275760E+03 -0.16376143768E+03 -0.40357146097E+03  0.48399052096E+03  0.17200000000E+03 0. -1.
         -6    1    1    2    0  501  0.12237275760E+03  0.16376143768E+03 -0.33845497712E+02  0.26929986630E+03  0.17200000000E+03 0.  1.
</event>
<event>
 4    1  0.6352740E-002  0.1887146E+03  0.7818608E-02  0.1159626E+00
         -2   -1    0    0    0  501 -0.00000000000E+00  0.00000000000E+00  0.55305610390E+02  0.55305610390E+02  0.00000000000E+00 0.  1.
          2   -1    0    0  502    0  0.00000000000E+00 -0.00000000000E+00 -0.10664547414E+04  0.10664547414E+04  0.00000000000E+00 0. -1.
          6    1    1    2  502    0 -0.35784672759E+01  0.77565438249E+02 -0.85861343452E+03  0.87910763423E+03  0.17200000000E+03 0. -1.
         -6    1    1    2    0  501  0.35784672759E+01 -0.77565438249E+02 -0.15253569653E+03  0.24265271759E+03  0.17200000000E+03 0.  1.
</event>
<event>
 4    1  0.6352740E-002  0.1812075E+03  0.7818608E-02  0.1166640E+00
          2   -1    0    0  502    0  0.00000000000E+00  0.00000000000E+00  0.24396113554E+03  0.24396113554E+03  0.00000000000E+00 0. -1.
         -2   -1    0    0    0  501 -0.00000000000E+00 -0.00000000000E+00 -0.13472374933E+03  0.13472374933E+03  0.00000000000E+00 0.  1.
          6    1    1    2  502    0 -0.11492701989E+02 -0.55857555754E+02  0.60453324213E+02  0.19102553008E+03  0.17200000000E+03 0.  1.
         -6    1    1    2    0  501  0.11492701989E+02  0.55857555754E+02  0.48784061996E+02  0.18765935479E+03  0.17200000000E+03 0.  1.
</event>
<event>
 4    1  0.6352740E-002  0.1837947E+03  0.7818608E-02  0.1164180E+00
         -3   -1    0    0    0  501 -0.00000000000E+00  0.00000000000E+00  0.13742528540E+03  0.13742528540E+03  0.00000000000E+00 0.  1.
          3   -1    0    0  502    0  0.00000000000E+00 -0.00000000000E+00 -0.28438922666E+03  0.28438922666E+03  0.00000000000E+00 0. -1.
          6    1    1    2  502    0 -0.17114029190E+02 -0.62478903337E+02 -0.15116246089E+03  0.23797183224E+03  0.17200000000E+03 0. -1.
         -6    1    1    2    0  501  0.17114029190E+02  0.62478903337E+02  0.41985196283E+01  0.18384267982E+03  0.17200000000E+03 0.  1.
</event>
<event>
 4    1  0.6352740E-002  0.2127900E+03  0.7818608E-02  0.1139375E+00
         -2   -1    0    0    0  501 -0.00000000000E+00  0.00000000000E+00  0.13791932462E+03  0.13791932462E+03  0.00000000000E+00 0.  1.
          2   -1    0    0  502    0  0.00000000000E+00 -0.00000000000E+00 -0.39489239292E+03  0.39489239292E+03  0.00000000000E+00 0. -1.
          6    1    1    2  502    0  0.90094742429E+02  0.87054617429E+02 -0.23788247739E+03  0.31916710682E+03  0.17200000000E+03 0. -1.
         -6    1    1    2    0  501 -0.90094742429E+02 -0.87054617429E+02 -0.19090590908E+02  0.21364461072E+03  0.17200000000E+03 0.  1.
</event>
<event>
 4    1  0.6352740E-002  0.1798007E+03  0.7818608E-02  0.1167996E+00
         -2   -1    0    0    0  501 -0.00000000000E+00  0.00000000000E+00  0.19709245370E+03  0.19709245370E+03  0.00000000000E+00 0.  1.
          2   -1    0    0  502    0  0.00000000000E+00 -0.00000000000E+00 -0.24577207678E+03  0.24577207678E+03  0.00000000000E+00 0. -1.
          6    1    1    2  502    0 -0.33604221578E+02 -0.40187787342E+02 -0.15204480774E+03  0.23546958513E+03  0.17200000000E+03 0. -1.
         -6    1    1    2    0  501  0.33604221578E+02  0.40187787342E+02  0.10336518466E+03  0.20739494536E+03  0.17200000000E+03 0.  1.
</event>
<event>
 4    1  0.6352740E-002  0.3398826E+03  0.7818608E-02  0.1066846E+00
          2   -1    0    0  502    0  0.00000000000E+00  0.00000000000E+00  0.16557159597E+04  0.16557159597E+04  0.00000000000E+00 0. -1.
         -2   -1    0    0    0  501 -0.00000000000E+00 -0.00000000000E+00 -0.13448740827E+03  0.13448740827E+03  0.00000000000E+00 0.  1.
          6    1    1    2  502    0  0.26954047748E+03 -0.11525668263E+03  0.13815410095E+04  0.14227352996E+04  0.17200000000E+03 0. -1.
         -6    1    1    2    0  501 -0.26954047748E+03  0.11525668263E+03  0.13968754195E+03  0.36746806836E+03  0.17200000000E+03 0.  1.
</event>
<event>
 4    1  0.6352740E-002  0.2156303E+03  0.7818608E-02  0.1137183E+00
          2   -1    0    0  502    0  0.00000000000E+00  0.00000000000E+00  0.28516243381E+03  0.28516243381E+03  0.00000000000E+00 0. -1.
         -2   -1    0    0    0  501 -0.00000000000E+00 -0.00000000000E+00 -0.24098735737E+03  0.24098735737E+03  0.00000000000E+00 0.  1.
          6    1    1    2  502    0 -0.57860652875E+02  0.11646699270E+03  0.17169334970E+03  0.27563566872E+03  0.17200000000E+03 0. -1.
         -6    1    1    2    0  501  0.57860652875E+02 -0.11646699270E+03 -0.12751827326E+03  0.25051412247E+03  0.17200000000E+03 0.  1.
</event>
<event>
 4    1  0.6352740E-002  0.2701582E+03  0.7818608E-02  0.1101189E+00
         -1   -1    0    0    0  501 -0.00000000000E+00  0.00000000000E+00  0.25502514034E+03  0.25502514034E+03  0.00000000000E+00 0.  1.
          1   -1    0    0  502    0  0.00000000000E+00 -0.00000000000E+00 -0.84869102042E+03  0.84869102042E+03  0.00000000000E+00 0. -1.
          6    1    1    2  502    0  0.13457861877E+03  0.15902852595E+03 -0.74611027950E+03  0.79351498151E+03  0.17200000000E+03 0. -1.
         -6    1    1    2    0  501 -0.13457861877E+03 -0.15902852595E+03  0.15244439942E+03  0.31020117926E+03  0.17200000000E+03 0.  1.
</event>
<event>
 4    1  0.6352740E-002  0.1822602E+03  0.7818608E-02  0.1165633E+00
          1   -1    0    0  502    0  0.00000000000E+00  0.00000000000E+00  0.21851202562E+04  0.21851202562E+04  0.00000000000E+00 0. -1.
         -1   -1    0    0    0  501 -0.00000000000E+00 -0.00000000000E+00 -0.15545026507E+02  0.15545026507E+02  0.00000000000E+00 0.  1.
          6    1    1    2  502    0 -0.24629310942E+02 -0.55028812694E+02  0.92139762450E+03  0.93925095455E+03  0.17200000000E+03 0. -1.
         -6    1    1    2    0  501  0.24629310942E+02  0.55028812694E+02  0.12481776052E+04  0.12614143282E+04  0.17200000000E+03 0. -1.
</event>
<event>
 4    1  0.6352740E-002  0.2036583E+03  0.7818608E-02  0.1146689E+00
          2   -1    0    0  502    0  0.00000000000E+00  0.00000000000E+00  0.11208443941E+04  0.11208443941E+04  0.00000000000E+00 0. -1.
         -2   -1    0    0    0  501 -0.00000000000E+00 -0.00000000000E+00 -0.45413053211E+02  0.45413053211E+02  0.00000000000E+00 0.  1.
          6    1    1    2  502    0 -0.64840019891E+02 -0.87684022481E+02  0.28680171092E+03  0.35175550794E+03  0.17200000000E+03 0. -1.
         -6    1    1    2    0  501  0.64840019891E+02  0.87684022481E+02  0.78862962996E+03  0.81450193937E+03  0.17200000000E+03 0.  1.
</event>
<event>
 4    1  0.6352740E-002  0.2573389E+03  0.7818608E-02  0.1108753E+00
          2   -1    0    0  502    0  0.00000000000E+00  0.00000000000E+00  0.24153514305E+04  0.24153514305E+04  0.00000000000E+00 0. -1.
         -2   -1    0    0    0  501 -0.00000000000E+00 -0.00000000000E+00 -0.59490550817E+02  0.59490550817E+02  0.00000000000E+00 0.  1.
          6    1    1    2  502    0  0.16548000740E+03  0.96206487633E+02  0.20865088933E+04  0.21023184066E+04  0.17200000000E+03 0. -1.
         -6    1    1    2    0  501 -0.16548000740E+03 -0.96206487633E+02  0.26935198636E+03  0.37252357465E+03  0.17200000000E+03 0.  1.
</event>
<event>
 4    1  0.6352740E-002  0.1913076E+03  0.7818608E-02  0.1157287E+00
          3   -1    0    0  502    0  0.00000000000E+00  0.00000000000E+00  0.94019543603E+02  0.94019543603E+02  0.00000000000E+00 0. -1.
         -3   -1    0    0    0  501 -0.00000000000E+00 -0.00000000000E+00 -0.78115015490E+03  0.78115015490E+03  0.00000000000E+00 0.  1.
          6    1    1    2  502    0  0.35525818251E+02 -0.75845236974E+02 -0.33627872678E+02  0.19424061768E+03  0.17200000000E+03 0. -1.
         -6    1    1    2    0  501 -0.35525818251E+02  0.75845236974E+02 -0.65350273862E+03  0.68092908082E+03  0.17200000000E+03 0.  1.
</event>
<event>
 4    1  0.6352740E-002  0.4959527E+03  0.7818608E-02  0.1014841E+00
         -2   -1    0    0    0  501 -0.00000000000E+00  0.00000000000E+00  0.38793805737E+03  0.38793805737E+03  0.00000000000E+00 0.  1.
          2   -1    0    0  502    0  0.00000000000E+00 -0.00000000000E+00 -0.78892370073E+03  0.78892370073E+03  0.00000000000E+00 0. -1.
          6    1    1    2  502    0  0.46317162706E+03 -0.43094475330E+02  0.60229227962E+02  0.49959648700E+03  0.17200000000E+03 0. -1.
         -6    1    1    2    0  501 -0.46317162706E+03  0.43094475330E+02 -0.46121487132E+03  0.67726527110E+03  0.17200000000E+03 0.  1.
</event>
<event>
 4    1  0.6352740E-002  0.1752470E+03  0.7818608E-02  0.1172484E+00
         -3   -1    0    0    0  501 -0.00000000000E+00  0.00000000000E+00  0.91994568215E+02  0.91994568215E+02  0.00000000000E+00 0.  1.
          3   -1    0    0  502    0  0.00000000000E+00 -0.00000000000E+00 -0.33427446516E+03  0.33427446516E+03  0.00000000000E+00 0. -1.
          6    1    1    2  502    0  0.13378316119E+02  0.30798439340E+02 -0.11346152275E+03  0.20877030525E+03  0.17200000000E+03 0.  1.
         -6    1    1    2    0  501 -0.13378316119E+02 -0.30798439340E+02 -0.12881837420E+03  0.21749872813E+03  0.17200000000E+03 0.  1.
</event>
<event>
 4    1  0.6352740E-002  0.2559319E+03  0.7818608E-02  0.1109612E+00
          1   -1    0    0  502    0  0.00000000000E+00  0.00000000000E+00  0.25804010712E+04  0.25804010712E+04  0.00000000000E+00 0. -1.
         -1   -1    0    0    0  501 -0.00000000000E+00 -0.00000000000E+00 -0.31950632637E+02  0.31950632637E+02  0.00000000000E+00 0.  1.
          6    1    1    2  502    0 -0.14372537217E+02  0.18897244108E+03  0.18663729153E+04  0.18838389029E+04  0.17200000000E+03 0. -1.
         -6    1    1    2    0  501  0.14372537217E+02 -0.18897244108E+03  0.68207752332E+03  0.72851280094E+03  0.17200000000E+03 0. -1.
</event>
<event>
 4    1  0.6352740E-002  0.1803239E+03  0.7818608E-02  0.1167490E+00
          2   -1    0    0  502    0  0.00000000000E+00  0.00000000000E+00  0.22208425580E+03  0.22208425580E+03  0.00000000000E+00 0. -1.
         -2   -1    0    0    0  501 -0.00000000000E+00 -0.00000000000E+00 -0.27797082743E+03  0.27797082743E+03  0.00000000000E+00 0.  1.
          6    1    1    2  502    0 -0.45093420779E+02  0.29987972801E+02 -0.19994848937E+03  0.26925098610E+03  0.17200000000E+03 0.  1.
         -6    1    1    2    0  501  0.45093420779E+02 -0.29987972801E+02  0.14406191775E+03  0.23080409714E+03  0.17200000000E+03 0. -1.
</event>
<event>
 4    1  0.6352740E-002  0.1946569E+03  0.7818608E-02  0.1154327E+00
         -3   -1    0    0    0  501 -0.00000000000E+00  0.00000000000E+00  0.26468974699E+03  0.26468974699E+03  0.00000000000E+00 0.  1.
          3   -1    0    0  502    0  0.00000000000E+00 -0.00000000000E+00 -0.15515618147E+03  0.15515618147E+03  0.00000000000E+00 0. -1.
          6    1    1    2  502    0 -0.13146478488E+02 -0.90191405300E+02 -0.36194878617E+01  0.19469057548E+03  0.17200000000E+03 0. -1.
         -6    1    1    2    0  501  0.13146478488E+02  0.90191405300E+02  0.11315305338E+03  0.22515535298E+03  0.17200000000E+03 0.  1.
</event>
<event>
 4    1  0.6352740E-002  0.4121328E+03  0.7818608E-02  0.1039658E+00
          1   -1    0    0  502    0  0.00000000000E+00  0.00000000000E+00  0.75020222012E+03  0.75020222012E+03  0.00000000000E+00 0. -1.
         -1   -1    0    0    0  501 -0.00000000000E+00 -0.00000000000E+00 -0.23765097056E+03  0.23765097056E+03  0.00000000000E+00 0.  1.
          6    1    1    2  502    0 -0.25365798915E+03  0.27554863262E+03  0.14885419662E+03  0.43819059352E+03  0.17200000000E+03 0. -1.
         -6    1    1    2    0  501  0.25365798915E+03 -0.27554863262E+03  0.36369705294E+03  0.54966259716E+03  0.17200000000E+03 0.  1.
</event>
<event>
 4    1  0.6352740E-002  0.2237492E+03  0.7818608E-02  0.1131118E+00
         -2   -1    0    0    0  501 -0.00000000000E+00  0.00000000000E+00  0.26304588263E+03  0.26304588263E+03  0.00000000000E+00 0.  1.
          2   -1    0    0  502    0  0.00000000000E+00 -0.00000000000E+00 -0.19488396771E+03  0.19488396771E+03  0.00000000000E+00 0. -1.
          6    1    1    2  502    0  0.68092735968E+00 -0.14310563418E+03 -0.94649517087E+00  0.22375116100E+03  0.17200000000E+03 0. -1.
         -6    1    1    2    0  501 -0.68092735968E+00  0.14310563418E+03  0.69108410091E+02  0.23417868934E+03  0.17200000000E+03 0.  1.
</event>
<event>
 4    1  0.6352740E-002  0.9781547E+03  0.7818608E-02  0.9332834E-01
         -2   -1    0    0    0  501 -0.00000000000E+00  0.00000000000E+00  0.64131504759E+03  0.64131504759E+03  0.00000000000E+00 0.  1.
          2   -1    0    0  502    0  0.00000000000E+00 -0.00000000000E+00 -0.14920255230E+04  0.14920255230E+04  0.00000000000E+00 0. -1.
          6    1    1    2  502    0  0.13318602612E+03 -0.95365826794E+03 -0.43459579032E+03  0.10703551329E+04  0.17200000000E+03 0. -1.
         -6    1    1    2    0  501 -0.13318602612E+03  0.95365826794E+03 -0.41611468505E+03  0.10629854377E+04  0.17200000000E+03 0.  1.
</event>
<event>
 4    1  0.6352740E-002  0.2206859E+03  0.7818608E-02  0.1133373E+00
         -1   -1    0    0    0  501 -0.00000000000E+00  0.00000000000E+00  0.10092065150E+03  0.10092065150E+03  0.00000000000E+00 0.  1.
          1   -1    0    0  502    0  0.00000000000E+00 -0.00000000000E+00 -0.12302872741E+04  0.12302872741E+04  0.00000000000E+00 0. -1.
          6    1    1    2  502    0 -0.35884091174E+02  0.13353123494E+03 -0.10835771575E+04  0.11058217374E+04  0.17200000000E+03 0. -1.
         -6    1    1    2    0  501  0.35884091174E+02 -0.13353123494E+03 -0.45789465104E+02  0.22538618817E+03  0.17200000000E+03 0.  1.
</event>
<event>
 4    1  0.6352740E-002  0.2424728E+03  0.7818608E-02  0.1118156E+00
          2   -1    0    0  502    0  0.00000000000E+00  0.00000000000E+00  0.23302138625E+03  0.23302138625E+03  0.00000000000E+00 0. -1.
         -2   -1    0    0    0  501 -0.00000000000E+00 -0.00000000000E+00 -0.39568901514E+03  0.39568901514E+03  0.00000000000E+00 0.  1.
          6    1    1    2  502    0  0.94325708901E+02 -0.14251924354E+03 -0.27056383466E+03  0.36331510121E+03  0.17200000000E+03 0.  1.
         -6    1    1    2    0  501 -0.94325708901E+02  0.14251924354E+03  0.10789620578E+03  0.26539530018E+03  0.17200000000E+03 0. -1.
</event>
<event>
 4    1  0.6352740E-002  0.5834971E+03  0.7818608E-02  0.9940248E-01
         -2   -1    0    0    0  501 -0.00000000000E+00  0.00000000000E+00  0.40145721747E+03  0.40145721747E+03  0.00000000000E+00 0.  1.
          2   -1    0    0  502    0  0.00000000000E+00 -0.00000000000E+00 -0.11091636527E+04  0.11091636527E+04  0.00000000000E+00 0. -1.
          6    1    1    2  502    0 -0.55156609526E+03 -0.81607013960E+02 -0.72030377468E+03  0.92698780466E+03  0.17200000000E+03 0. -1.
         -6    1    1    2    0  501  0.55156609526E+03  0.81607013960E+02  0.12597339464E+02  0.58363306549E+03  0.17200000000E+03 0.  1.
</event>
<event>
 4    1  0.6352740E-002  0.1723303E+03  0.7818608E-02  0.1175439E+00
          1   -1    0    0  502    0  0.00000000000E+00  0.00000000000E+00  0.92921414846E+02  0.92921414846E+02  0.00000000000E+00 0. -1.
         -1   -1    0    0    0  501 -0.00000000000E+00 -0.00000000000E+00 -0.32216522930E+03  0.32216522930E+03  0.00000000000E+00 0.  1.
          6    1    1    2  502    0 -0.60158569749E+01  0.88054740920E+01 -0.96103927590E+02  0.19731622287E+03  0.17200000000E+03 0. -1.
         -6    1    1    2    0  501  0.60158569749E+01 -0.88054740920E+01 -0.13313988687E+03  0.21777042128E+03  0.17200000000E+03 0.  1.
</event>
<event>
 4    1  0.6352740E-002  0.6587357E+03  0.7818608E-02  0.9790524E-01
         -2   -1    0    0    0  501 -0.00000000000E+00  0.00000000000E+00  0.97593498379E+03  0.97593498379E+03  0.00000000000E+00 0.  1.
          2   -1    0    0  502    0  0.00000000000E+00 -0.00000000000E+00 -0.47191539445E+03  0.47191539445E+03  0.00000000000E+00 0. -1.
          6    1    1    2  502    0  0.62297618892E+03 -0.12747312825E+03  0.42607190242E+03  0.78451895861E+03  0.17200000000E+03 0.  1.
         -6    1    1    2    0  501 -0.62297618892E+03  0.12747312825E+03  0.77947686918E+02  0.66333141964E+03  0.17200000000E+03 0.  1.
</event>
<event>
 4    1  0.6352740E-002  0.2984925E+03  0.7818608E-02  0.1085997E+00
          1   -1    0    0  502    0  0.00000000000E+00  0.00000000000E+00  0.63026640429E+03  0.63026640429E+03  0.00000000000E+00 0. -1.
         -1   -1    0    0    0  501 -0.00000000000E+00 -0.00000000000E+00 -0.24365209069E+03  0.24365209069E+03  0.00000000000E+00 0.  1.
          6    1    1    2  502    0 -0.62796075520E+02 -0.23573380477E+03 -0.89809698627E+02  0.31171069244E+03  0.17200000000E+03 0.  1.
         -6    1    1    2    0  501  0.62796075520E+02  0.23573380477E+03  0.47642401223E+03  0.56220780254E+03  0.17200000000E+03 0.  1.
</event>
<event>
 4    1  0.6352740E-002  0.2889568E+03  0.7818608E-02  0.1090895E+00
          2   -1    0    0  502    0  0.00000000000E+00  0.00000000000E+00  0.16074045873E+04  0.16074045873E+04  0.00000000000E+00 0. -1.
         -2   -1    0    0    0  501 -0.00000000000E+00 -0.00000000000E+00 -0.84782930206E+02  0.84782930206E+02  0.00000000000E+00 0.  1.
          6    1    1    2  502    0 -0.10997230277E+03 -0.20449474701E+03  0.12878791502E+04  0.13198972363E+04  0.17200000000E+03 0. -1.
         -6    1    1    2    0  501  0.10997230277E+03  0.20449474701E+03  0.23474250693E+03  0.37229028122E+03  0.17200000000E+03 0.  1.
</event>
<event>
 4    1  0.6352740E-002  0.2271099E+03  0.7818608E-02  0.1128691E+00
          2   -1    0    0  502    0  0.00000000000E+00  0.00000000000E+00  0.35974599623E+04  0.35974599623E+04  0.00000000000E+00 0. -1.
         -2   -1    0    0    0  501 -0.00000000000E+00 -0.00000000000E+00 -0.16669720360E+02  0.16669720360E+02  0.00000000000E+00 0.  1.
          6    1    1    2  502    0  0.40134515299E+02 -0.14277297703E+03  0.11144894567E+04  0.11373942375E+04  0.17200000000E+03 0.  1.
         -6    1    1    2    0  501 -0.40134515299E+02  0.14277297703E+03  0.24663007852E+04  0.24767354452E+04  0.17200000000E+03 0.  1.
</event>
<event>
 4    1  0.6352740E-002  0.2023816E+03  0.7818608E-02  0.1147745E+00
          2   -1    0    0  502    0  0.00000000000E+00  0.00000000000E+00  0.17727875356E+04  0.17727875356E+04  0.00000000000E+00 0. -1.
         -2   -1    0    0    0  501 -0.00000000000E+00 -0.00000000000E+00 -0.24669512464E+02  0.24669512464E+02  0.00000000000E+00 0.  1.
          6    1    1    2  502    0  0.93941321854E+02  0.50491024273E+02  0.64765212582E+03  0.67853635979E+03  0.17200000000E+03 0.  1.
         -6    1    1    2    0  501 -0.93941321854E+02 -0.50491024273E+02  0.11004658973E+04  0.11189206883E+04  0.17200000000E+03 0. -1.
</event>
<event>
 4    1  0.6352740E-002  0.2500592E+03  0.7818608E-02  0.1113267E+00
         -1   -1    0    0    0  501 -0.00000000000E+00  0.00000000000E+00  0.49536746075E+03  0.49536746075E+03  0.00000000000E+00 0.  1.
          1   -1    0    0  502    0  0.00000000000E+00 -0.00000000000E+00 -0.28525626275E+03  0.28525626275E+03  0.00000000000E+00 0. -1.
          6    1    1    2  502    0  0.30416080622E+02 -0.17894265482E+03 -0.18637174567E+03  0.31187183146E+03  0.17200000000E+03 0. -1.
         -6    1    1    2    0  501 -0.30416080622E+02  0.17894265482E+03  0.39648294367E+03  0.46875189204E+03  0.17200000000E+03 0.  1.
</event>
<event>
 4    1  0.6352740E-002  0.3081051E+03  0.7818608E-02  0.1081258E+00
         -2   -1    0    0    0  501 -0.00000000000E+00  0.00000000000E+00  0.57080009904E+03  0.57080009904E+03  0.00000000000E+00 0.  1.
          2   -1    0    0  502    0  0.00000000000E+00 -0.00000000000E+00 -0.18707211235E+03  0.18707211235E+03  0.00000000000E+00 0. -1.
          6    1    1    2  502    0 -0.78025219294E+02 -0.24342721504E+03  0.65618486391E+02  0.31501512603E+03  0.17200000000E+03 0. -1.
         -6    1    1    2    0  501  0.78025219294E+02  0.24342721504E+03  0.31810950030E+03  0.44285708536E+03  0.17200000000E+03 0.  1.
</event>
<event>
 4    1  0.6352740E-002  0.3251654E+03  0.7818608E-02  0.1073296E+00
          2   -1    0    0  502    0  0.00000000000E+00  0.00000000000E+00  0.30020527203E+04  0.30020527203E+04  0.00000000000E+00 0. -1.
         -2   -1    0    0    0  501 -0.00000000000E+00 -0.00000000000E+00 -0.37049416910E+02  0.37049416910E+02  0.00000000000E+00 0.  1.
          6    1    1    2  502    0  0.27401413706E+03 -0.32631553831E+02  0.11448488734E+04  0.11901308788E+04  0.17200000000E+03 0. -1.
         -6    1    1    2    0  501 -0.27401413706E+03  0.32631553831E+02  0.18201544299E+04  0.18489712584E+04  0.17200000000E+03 0.  1.
</event>
<event>
 4    1  0.6352740E-002  0.2430467E+03  0.7818608E-02  0.1117780E+00
         -2   -1    0    0    0  501 -0.00000000000E+00  0.00000000000E+00  0.74018063435E+02  0.74018063435E+02  0.00000000000E+00 0.  1.
          2   -1    0    0  502    0  0.00000000000E+00 -0.00000000000E+00 -0.83266894656E+03  0.83266894656E+03  0.00000000000E+00 0. -1.
          6    1    1    2  502    0 -0.80212566591E+02 -0.15183433172E+03 -0.47173398330E+03  0.53066436768E+03  0.17200000000E+03 0.  1.
         -6    1    1    2    0  501  0.80212566591E+02  0.15183433172E+03 -0.28691689983E+03  0.37602264231E+03  0.17200000000E+03 0.  1.
</event>
<event>
 4    1  0.6352740E-002  0.1890840E+03  0.7818608E-02  0.1159290E+00
         -2   -1    0    0    0  501 -0.00000000000E+00  0.00000000000E+00  0.87615215324E+02  0.87615215324E+02  0.00000000000E+00 0.  1.
          2   -1    0    0  502    0  0.00000000000E+00 -0.00000000000E+00 -0.51332854365E+03  0.51332854365E+03  0.00000000000E+00 0. -1.
          6    1    1    2  502    0 -0.68544285470E+02 -0.38346499939E+02 -0.34892073643E+03  0.39686074817E+03  0.17200000000E+03 0. -1.
         -6    1    1    2    0  501  0.68544285470E+02  0.38346499939E+02 -0.76792591897E+02  0.20408301080E+03  0.17200000000E+03 0.  1.
</event>
<event>
 4    1  0.6352740E-002  0.1891555E+03  0.7818608E-02  0.1159225E+00
         -1   -1    0    0    0  501 -0.00000000000E+00  0.00000000000E+00  0.31035343586E+03  0.31035343586E+03  0.00000000000E+00 0.  1.
          1   -1    0    0  502    0  0.00000000000E+00 -0.00000000000E+00 -0.12016866666E+03  0.12016866666E+03  0.00000000000E+00 0. -1.
          6    1    1    2  502    0  0.64150848352E+02  0.45612386981E+02  0.51707454791E+02  0.19609559422E+03  0.17200000000E+03 0. -1.
         -6    1    1    2    0  501 -0.64150848352E+02 -0.45612386981E+02  0.13847731441E+03  0.23442650831E+03  0.17200000000E+03 0.  1.
</event>
<event>
 4    1  0.6352740E-002  0.3303403E+03  0.7818608E-02  0.1070986E+00
         -1   -1    0    0    0  501 -0.00000000000E+00  0.00000000000E+00  0.17947537486E+03  0.17947537486E+03  0.00000000000E+00 0.  1.
          1   -1    0    0  502    0  0.00000000000E+00 -0.00000000000E+00 -0.10383592822E+04  0.10383592822E+04  0.00000000000E+00 0. -1.
          6    1    1    2  502    0 -0.25572512385E+03 -0.11893441403E+03 -0.82144521204E+03  0.88537956278E+03  0.17200000000E+03 0. -1.
         -6    1    1    2    0  501  0.25572512385E+03  0.11893441403E+03 -0.37438695303E+02  0.33245509428E+03  0.17200000000E+03 0.  1.
</event>
<event>
 4    1  0.6352740E-002  0.2030879E+03  0.7818608E-02  0.1147160E+00
         -2   -1    0    0    0  501 -0.00000000000E+00  0.00000000000E+00  0.49578901628E+02  0.49578901628E+02  0.00000000000E+00 0.  1.
          2   -1    0    0  502    0  0.00000000000E+00 -0.00000000000E+00 -0.16089868882E+04  0.16089868882E+04  0.00000000000E+00 0. -1.
          6    1    1    2  502    0  0.16397121335E+02  0.10673243970E+03 -0.13560208153E+04  0.13711444602E+04  0.17200000000E+03 0. -1.
         -6    1    1    2    0  501 -0.16397121335E+02 -0.10673243970E+03 -0.20338717127E+03  0.28742132960E+03  0.17200000000E+03 0.  1.
</event>
<event>
 4    1  0.6352740E-002  0.2252769E+03  0.7818608E-02  0.1130009E+00
         -2   -1    0    0    0  501 -0.00000000000E+00  0.00000000000E+00  0.35536228928E+03  0.35536228928E+03  0.00000000000E+00 0.  1.
          2   -1    0    0  502    0  0.00000000000E+00 -0.00000000000E+00 -0.15787027706E+03  0.15787027706E+03  0.00000000000E+00 0. -1.
          6    1    1    2  502    0  0.12980204022E+03  0.65704826306E+02  0.17800235460E+03  0.28711414471E+03  0.17200000000E+03 0. -1.
         -6    1    1    2    0  501 -0.12980204022E+03 -0.65704826306E+02  0.19489657622E+02  0.22611842163E+03  0.17200000000E+03 0.  1.
</event>
<event>
 4    1  0.6352740E-002  0.3005784E+03  0.7818608E-02  0.1084952E+00
         -2   -1    0    0    0  501 -0.00000000000E+00  0.00000000000E+00  0.31209633182E+03  0.31209633182E+03  0.00000000000E+00 0.  1.
          2   -1    0    0  502    0  0.00000000000E+00 -0.00000000000E+00 -0.72691111496E+03  0.72691111496E+03  0.00000000000E+00 0. -1.
          6    1    1    2  502    0  0.24632971239E+03 -0.92211750050E+01 -0.61040282405E+03  0.68039618229E+03  0.17200000000E+03 0. -1.
         -6    1    1    2    0  501 -0.24632971239E+03  0.92211750050E+01  0.19558804091E+03  0.35861126449E+03  0.17200000000E+03 0.  1.
</event>
<event>
 4    1  0.6352740E-002  0.3178590E+03  0.7818608E-02  0.1076639E+00
          1   -1    0    0  502    0  0.00000000000E+00  0.00000000000E+00  0.12856022554E+04  0.12856022554E+04  0.00000000000E+00 0. -1.
         -1   -1    0    0    0  501 -0.00000000000E+00 -0.00000000000E+00 -0.10429014716E+03  0.10429014716E+03  0.00000000000E+00 0.  1.
          6    1    1    2  502    0 -0.18698866929E+03 -0.19101198262E+03  0.93564473899E+03  0.98816264732E+03  0.17200000000E+03 0. -1.
         -6    1    1    2    0  501  0.18698866929E+03  0.19101198262E+03  0.24566736927E+03  0.40172975528E+03  0.17200000000E+03 0.  1.
</event>
<event>
 4    1  0.6352740E-002  0.2482991E+03  0.7818608E-02  0.1114384E+00
          3   -1    0    0  502    0  0.00000000000E+00  0.00000000000E+00  0.64704395144E+03  0.64704395144E+03  0.00000000000E+00 0. -1.
         -3   -1    0    0    0  501 -0.00000000000E+00 -0.00000000000E+00 -0.12660614280E+03  0.12660614280E+03  0.00000000000E+00 0.  1.
          6    1    1    2  502    0  0.17882005014E+03  0.95824411831E+01  0.45262477244E+03  0.51625731776E+03  0.17200000000E+03 0. -1.
         -6    1    1    2    0  501 -0.17882005014E+03 -0.95824411831E+01  0.67813036200E+02  0.25739277649E+03  0.17200000000E+03 0.  1.
</event>
<event>
 4    1  0.6352740E-002  0.2001648E+03  0.7818608E-02  0.1149600E+00
          1   -1    0    0  502    0  0.00000000000E+00  0.00000000000E+00  0.39433441918E+04  0.39433441918E+04  0.00000000000E+00 0. -1.
         -1   -1    0    0    0  501 -0.00000000000E+00 -0.00000000000E+00 -0.10166494025E+02  0.10166494025E+02  0.00000000000E+00 0.  1.
          6    1    1    2  502    0 -0.72853186671E+02 -0.71932921066E+02  0.19181692032E+04  0.19285847204E+04  0.17200000000E+03 0.  1.
         -6    1    1    2    0  501  0.72853186671E+02  0.71932921066E+02  0.20150084946E+04  0.20249259654E+04  0.17200000000E+03 0.  1.
</event>
<event>
 4    1  0.6352740E-002  0.2313161E+03  0.7818608E-02  0.1125717E+00
         -2   -1    0    0    0  501 -0.00000000000E+00  0.00000000000E+00  0.10935462427E+03  0.10935462427E+03  0.00000000000E+00 0.  1.
          2   -1    0    0  502    0  0.00000000000E+00 -0.00000000000E+00 -0.67300516073E+03  0.67300516073E+03  0.00000000000E+00 0. -1.
          6    1    1    2  502    0 -0.57769624179E+02  0.14347762580E+03 -0.48620067892E+03  0.53842200806E+03  0.17200000000E+03 0. -1.
         -6    1    1    2    0  501  0.57769624179E+02 -0.14347762580E+03 -0.77449857545E+02  0.24393777694E+03  0.17200000000E+03 0.  1.
</event>
<event>
 4    1  0.6352740E-002  0.1997864E+03  0.7818608E-02  0.1149919E+00
          2   -1    0    0  502    0  0.00000000000E+00  0.00000000000E+00  0.80845189720E+03  0.80845189720E+03  0.00000000000E+00 0. -1.
         -2   -1    0    0    0  501 -0.00000000000E+00 -0.00000000000E+00 -0.66973608050E+02  0.66973608050E+02  0.00000000000E+00 0.  1.
          6    1    1    2  502    0 -0.17311914299E+02  0.10015430922E+03  0.59513668267E+03  0.62777564391E+03  0.17200000000E+03 0. -1.
         -6    1    1    2    0  501  0.17311914299E+02 -0.10015430922E+03  0.14634160648E+03  0.24764986134E+03  0.17200000000E+03 0. -1.
</event>
<event>
 4    1  0.6352740E-002  0.1772181E+03  0.7818608E-02  0.1170523E+00
         -2   -1    0    0    0  501 -0.00000000000E+00  0.00000000000E+00  0.65620557134E+02  0.65620557134E+02  0.00000000000E+00 0.  1.
          2   -1    0    0  502    0  0.00000000000E+00 -0.00000000000E+00 -0.49173660134E+03  0.49173660134E+03  0.00000000000E+00 0. -1.
          6    1    1    2  502    0  0.23603577045E+02 -0.35568630868E+02 -0.16751583284E+03  0.24386022759E+03  0.17200000000E+03 0.  1.
         -6    1    1    2    0  501 -0.23603577045E+02  0.35568630868E+02 -0.25860021137E+03  0.31349693088E+03  0.17200000000E+03 0.  1.
</event>
<event>
 4    1  0.6352740E-002  0.5341224E+03  0.7818608E-02  0.1005237E+00
          1   -1    0    0  502    0  0.00000000000E+00  0.00000000000E+00  0.28266127253E+03  0.28266127253E+03  0.00000000000E+00 0. -1.
         -1   -1    0    0    0  501 -0.00000000000E+00 -0.00000000000E+00 -0.10101648589E+04  0.10101648589E+04  0.00000000000E+00 0.  1.
          6    1    1    2  502    0 -0.83331831228E+02  0.49875700755E+03 -0.38279223385E+03  0.65712756826E+03  0.17200000000E+03 0. -1.
         -6    1    1    2    0  501  0.83331831228E+02 -0.49875700755E+03 -0.34471135257E+03  0.63569856321E+03  0.17200000000E+03 0.  1.
</event>
<event>
 4    1  0.6352740E-002  0.2437201E+03  0.7818608E-02  0.1117339E+00
         -1   -1    0    0    0  501 -0.00000000000E+00  0.00000000000E+00  0.26983567220E+03  0.26983567220E+03  0.00000000000E+00 0.  1.
          1   -1    0    0  502    0  0.00000000000E+00 -0.00000000000E+00 -0.23416877467E+03  0.23416877467E+03  0.00000000000E+00 0. -1.
          6    1    1    2  502    0  0.43622805803E+02 -0.16707046060E+03 -0.43864722991E+02  0.24763602710E+03  0.17200000000E+03 0. -1.
         -6    1    1    2    0  501 -0.43622805803E+02  0.16707046060E+03  0.79531620523E+02  0.25636841977E+03  0.17200000000E+03 0.  1.
</event>
<event>
 4    1  0.6352740E-002  0.1967505E+03  0.7818608E-02  0.1152510E+00
          3   -1    0    0  502    0  0.00000000000E+00  0.00000000000E+00  0.27688178477E+03  0.27688178477E+03  0.00000000000E+00 0. -1.
         -3   -1    0    0    0  501 -0.00000000000E+00 -0.00000000000E+00 -0.14553315750E+03  0.14553315750E+03  0.00000000000E+00 0.  1.
          6    1    1    2  502    0 -0.54298074638E+02  0.78603318307E+02  0.23789452448E+02  0.19818350236E+03  0.17200000000E+03 0.  1.
         -6    1    1    2    0  501  0.54298074638E+02 -0.78603318307E+02  0.10755917483E+03  0.22423143992E+03  0.17200000000E+03 0. -1.
</event>
<event>
 4    1  0.6352740E-002  0.1988660E+03  0.7818608E-02  0.1150699E+00
          2   -1    0    0  502    0  0.00000000000E+00  0.00000000000E+00  0.58738930986E+03  0.58738930986E+03  0.00000000000E+00 0. -1.
         -2   -1    0    0    0  501 -0.00000000000E+00 -0.00000000000E+00 -0.68031994288E+02  0.68031994288E+02  0.00000000000E+00 0.  1.
          6    1    1    2  502    0 -0.99406275809E+02 -0.90591243176E+01  0.22633936702E+03  0.30129252308E+03  0.17200000000E+03 0.  1.
         -6    1    1    2    0  501  0.99406275809E+02  0.90591243176E+01  0.29301794856E+03  0.35412878107E+03  0.17200000000E+03 0. -1.
</event>
<event>
 4    1  0.6352740E-002  0.2601198E+03  0.7818608E-02  0.1107071E+00
         -1   -1    0    0    0  501 -0.00000000000E+00  0.00000000000E+00  0.12140134910E+03  0.12140134910E+03  0.00000000000E+00 0.  1.
          1   -1    0    0  502    0  0.00000000000E+00 -0.00000000000E+00 -0.69575281297E+03  0.69575281297E+03  0.00000000000E+00 0. -1.
          6    1    1    2  502    0  0.94725587284E+02  0.17060289726E+03 -0.46940945619E+03  0.53666332370E+03  0.17200000000E+03 0. -1.
         -6    1    1    2    0  501 -0.94725587284E+02 -0.17060289726E+03 -0.10494200768E+03  0.28049083838E+03  0.17200000000E+03 0.  1.
</event>
<event>
 4    1  0.6352740E-002  0.5118460E+03  0.7818608E-02  0.1010732E+00
          2   -1    0    0  502    0  0.00000000000E+00  0.00000000000E+00  0.13993304284E+04  0.13993304284E+04  0.00000000000E+00 0. -1.
         -2   -1    0    0    0  501 -0.00000000000E+00 -0.00000000000E+00 -0.25607819530E+03  0.25607819530E+03  0.00000000000E+00 0.  1.
          6    1    1    2  502    0 -0.46987983265E+03 -0.10777397560E+03  0.10008249400E+04  0.11241160294E+04  0.17200000000E+03 0. -1.
         -6    1    1    2    0  501  0.46987983265E+03  0.10777397560E+03  0.14242729306E+03  0.53129259430E+03  0.17200000000E+03 0.  1.
</event>
<event>
 4    1  0.6352740E-002  0.1817545E+03  0.7818608E-02  0.1166116E+00
          2   -1    0    0  502    0  0.00000000000E+00  0.00000000000E+00  0.19615914876E+04  0.19615914876E+04  0.00000000000E+00 0. -1.
         -2   -1    0    0    0  501 -0.00000000000E+00 -0.00000000000E+00 -0.20498108481E+02  0.20498108481E+02  0.00000000000E+00 0.  1.
          6    1    1    2  502    0 -0.43866022837E+02  0.39070094669E+02  0.13891660384E+04  0.14010057040E+04  0.17200000000E+03 0. -1.
         -6    1    1    2    0  501  0.43866022837E+02 -0.39070094669E+02  0.55192734065E+03  0.58108389207E+03  0.17200000000E+03 0.  1.
</event>
<event>
 4    1  0.6352740E-002  0.5223250E+03  0.7818608E-02  0.1008111E+00
          2   -1    0    0  502    0  0.00000000000E+00  0.00000000000E+00  0.23485976923E+04  0.23485976923E+04  0.00000000000E+00 0. -1.
         -2   -1    0    0    0  501 -0.00000000000E+00 -0.00000000000E+00 -0.11669648401E+03  0.11669648401E+03  0.00000000000E+00 0.  1.
          6    1    1    2  502    0  0.41233179361E+03  0.27059545250E+03  0.10327155964E+04  0.11572920590E+04  0.17200000000E+03 0. -1.
         -6    1    1    2    0  501 -0.41233179361E+03 -0.27059545250E+03  0.11991856119E+04  0.13080021172E+04  0.17200000000E+03 0. -1.
</event>
<event>
 4    1  0.6352740E-002  0.2246602E+03  0.7818608E-02  0.1130456E+00
         -2   -1    0    0    0  501 -0.00000000000E+00  0.00000000000E+00  0.61590203235E+03  0.61590203235E+03  0.00000000000E+00 0.  1.
          2   -1    0    0  502    0  0.00000000000E+00 -0.00000000000E+00 -0.16390682530E+03  0.16390682530E+03  0.00000000000E+00 0. -1.
          6    1    1    2  502    0  0.14266100336E+03  0.23152710474E+02 -0.49714828721E+02  0.23009514136E+03  0.17200000000E+03 0. -1.
         -6    1    1    2    0  501 -0.14266100336E+03 -0.23152710474E+02  0.50171003577E+03  0.54971371629E+03  0.17200000000E+03 0.  1.
</event>
<event>
 4    1  0.6352740E-002  0.2070504E+03  0.7818608E-02  0.1143923E+00
         -1   -1    0    0    0  501 -0.00000000000E+00  0.00000000000E+00  0.16046213210E+03  0.16046213210E+03  0.00000000000E+00 0.  1.
          1   -1    0    0  502    0  0.00000000000E+00 -0.00000000000E+00 -0.47880346669E+03  0.47880346669E+03  0.00000000000E+00 0. -1.
          6    1    1    2  502    0 -0.10691517102E+03 -0.43069700965E+02 -0.37167612044E+03  0.42545621565E+03  0.17200000000E+03 0. -1.
         -6    1    1    2    0  501  0.10691517102E+03  0.43069700965E+02  0.53334785853E+02  0.21380938314E+03  0.17200000000E+03 0.  1.
</event>
<event>
 4    1  0.6352740E-002  0.2710418E+03  0.7818608E-02  0.1100685E+00
         -2   -1    0    0    0  501 -0.00000000000E+00  0.00000000000E+00  0.10032170276E+04  0.10032170276E+04  0.00000000000E+00 0.  1.
          2   -1    0    0  502    0  0.00000000000E+00 -0.00000000000E+00 -0.76459171794E+02  0.76459171794E+02  0.00000000000E+00 0. -1.
          6    1    1    2  502    0  0.12850857815E+03  0.16542426553E+03  0.35240413200E+03  0.44458105508E+03  0.17200000000E+03 0. -1.
         -6    1    1    2    0  501 -0.12850857815E+03 -0.16542426553E+03  0.57435372381E+03  0.63509514432E+03  0.17200000000E+03 0.  1.
</event>
<event>
 4    1  0.6352740E-002  0.3379657E+03  0.7818608E-02  0.1067666E+00
          2   -1    0    0  502    0  0.00000000000E+00  0.00000000000E+00  0.39158409048E+03  0.39158409048E+03  0.00000000000E+00 0. -1.
         -2   -1    0    0    0  501 -0.00000000000E+00 -0.00000000000E+00 -0.30859619149E+03  0.30859619149E+03  0.00000000000E+00 0.  1.
          6    1    1    2  502    0 -0.28975495013E+03  0.26055834245E+02 -0.40450242127E+02  0.34037781907E+03  0.17200000000E+03 0. -1.
         -6    1    1    2    0  501  0.28975495013E+03 -0.26055834245E+02  0.12343814112E+03  0.35980246290E+03  0.17200000000E+03 0.  1.
</event>
<event>
 4    1  0.6352740E-002  0.1728323E+03  0.7818608E-02  0.1174926E+00
         -2   -1    0    0    0  501 -0.00000000000E+00  0.00000000000E+00  0.75877856685E+03  0.75877856685E+03  0.00000000000E+00 0.  1.
          2   -1    0    0  502    0  0.00000000000E+00 -0.00000000000E+00 -0.58552452937E+02  0.58552452937E+02  0.00000000000E+00 0. -1.
          6    1    1    2  502    0 -0.15121597450E+02  0.76391007201E+01  0.11618692379E+03  0.20825565977E+03  0.17200000000E+03 0. -1.
         -6    1    1    2    0  501  0.15121597450E+02 -0.76391007201E+01  0.58403919013E+03  0.60907536001E+03  0.17200000000E+03 0.  1.
</event>
<event>
 4    1  0.6352740E-002  0.2085565E+03  0.7818608E-02  0.1142714E+00
          2   -1    0    0  502    0  0.00000000000E+00  0.00000000000E+00  0.37807788760E+03  0.37807788760E+03  0.00000000000E+00 0. -1.
         -2   -1    0    0    0  501 -0.00000000000E+00 -0.00000000000E+00 -0.25960609765E+03  0.25960609765E+03  0.00000000000E+00 0.  1.
          6    1    1    2  502    0 -0.97442257314E+02  0.66459084835E+02  0.29716329161E+03  0.36304521116E+03  0.17200000000E+03 0. -1.
         -6    1    1    2    0  501  0.97442257314E+02 -0.66459084835E+02 -0.17869150166E+03  0.27463877409E+03  0.17200000000E+03 0.  1.
</event>
<event>
 4    1  0.6352740E-002  0.2735143E+03  0.7818608E-02  0.1099285E+00
         -2   -1    0    0    0  501 -0.00000000000E+00  0.00000000000E+00  0.14385017522E+03  0.14385017522E+03  0.00000000000E+00 0.  1.
          2   -1    0    0  502    0  0.00000000000E+00 -0.00000000000E+00 -0.20379068991E+04  0.20379068991E+04  0.00000000000E+00 0. -1.
          6    1    1    2  502    0  0.20923615628E+03  0.38030477415E+02 -0.18884817953E+04  0.19081859389E+04  0.17200000000E+03 0. -1.
         -6    1    1    2    0  501 -0.20923615628E+03 -0.38030477415E+02 -0.55749286068E+01  0.27357113542E+03  0.17200000000E+03 0.  1.
</event>
<event>
 4    1  0.6352740E-002  0.1945077E+03  0.7818608E-02  0.1154457E+00
         -2   -1    0    0    0  501 -0.00000000000E+00  0.00000000000E+00  0.11868536667E+03  0.11868536667E+03  0.00000000000E+00 0.  1.
          2   -1    0    0  502    0  0.00000000000E+00 -0.00000000000E+00 -0.11778989264E+04  0.11778989264E+04  0.00000000000E+00 0. -1.
          6    1    1    2  502    0  0.46724885071E+00  0.90824058752E+02 -0.10832706001E+04  0.11005945761E+04  0.17200000000E+03 0. -1.
         -6    1    1    2    0  501 -0.46724885071E+00 -0.90824058752E+02  0.24057040336E+02  0.19598971697E+03  0.17200000000E+03 0.  1.
</event>
<event>
 4    1  0.6352740E-002  0.1725172E+03  0.7818608E-02  0.1175248E+00
         -1   -1    0    0    0  501 -0.00000000000E+00  0.00000000000E+00  0.14489668698E+03  0.14489668698E+03  0.00000000000E+00 0.  1.
          1   -1    0    0  502    0  0.00000000000E+00 -0.00000000000E+00 -0.62345789179E+03  0.62345789179E+03  0.00000000000E+00 0. -1.
          6    1    1    2  502    0 -0.28468467761E+01 -0.13041386965E+02 -0.55387058819E+03  0.58011620454E+03  0.17200000000E+03 0. -1.
         -6    1    1    2    0  501  0.28468467761E+01  0.13041386965E+02  0.75309383376E+02  0.18823837424E+03  0.17200000000E+03 0.  1.
</event>
<event>
 4    1  0.6352740E-002  0.2074380E+03  0.7818608E-02  0.1143611E+00
          1   -1    0    0  502    0  0.00000000000E+00  0.00000000000E+00  0.40714708741E+03  0.40714708741E+03  0.00000000000E+00 0. -1.
         -1   -1    0    0    0  501 -0.00000000000E+00 -0.00000000000E+00 -0.10730578802E+03  0.10730578802E+03  0.00000000000E+00 0.  1.
          6    1    1    2  502    0  0.11212682825E+03  0.29564875189E+02  0.11833552386E+03  0.23881751122E+03  0.17200000000E+03 0. -1.
         -6    1    1    2    0  501 -0.11212682825E+03 -0.29564875189E+02  0.18150577553E+03  0.27563536422E+03  0.17200000000E+03 0. -1.
</event>
<event>
 4    1  0.6352740E-002  0.5047970E+03  0.7818608E-02  0.1012534E+00
          1   -1    0    0  502    0  0.00000000000E+00  0.00000000000E+00  0.10558039140E+04  0.10558039140E+04  0.00000000000E+00 0. -1.
         -1   -1    0    0    0  501 -0.00000000000E+00 -0.00000000000E+00 -0.28046260695E+03  0.28046260695E+03  0.00000000000E+00 0.  1.
          6    1    1    2  502    0 -0.28286433895E+03  0.38108232587E+03  0.63717324340E+03  0.81290203311E+03  0.17200000000E+03 0. -1.
         -6    1    1    2    0  501  0.28286433895E+03 -0.38108232587E+03  0.13816806369E+03  0.52336448787E+03  0.17200000000E+03 0.  1.
</event>
<event>
 4    1  0.6352740E-002  0.1782596E+03  0.7818608E-02  0.1169498E+00
          2   -1    0    0  502    0  0.00000000000E+00  0.00000000000E+00  0.43368012360E+03  0.43368012360E+03  0.00000000000E+00 0. -1.
         -2   -1    0    0    0  501 -0.00000000000E+00 -0.00000000000E+00 -0.83165195887E+02  0.83165195887E+02  0.00000000000E+00 0.  1.
          6    1    1    2  502    0 -0.39262187204E+02  0.25514159635E+02  0.86125376438E+02  0.19797492809E+03  0.17200000000E+03 0.  1.
         -6    1    1    2    0  501  0.39262187204E+02 -0.25514159635E+02  0.26438955127E+03  0.31887039139E+03  0.17200000000E+03 0. -1.
</event>
<event>
 4    1  0.6352740E-002  0.2959165E+03  0.7818608E-02  0.1087300E+00
         -2   -1    0    0    0  501 -0.00000000000E+00  0.00000000000E+00  0.29832141442E+03  0.29832141442E+03  0.00000000000E+00 0.  1.
          2   -1    0    0  502    0  0.00000000000E+00 -0.00000000000E+00 -0.29552331550E+03  0.29552331550E+03  0.00000000000E+00 0. -1.
          6    1    1    2  502    0  0.21922266042E+03  0.99619199045E+02 -0.22981004041E+02  0.29680749015E+03  0.17200000000E+03 0. -1.
         -6    1    1    2    0  501 -0.21922266042E+03 -0.99619199045E+02  0.25779102969E+02  0.29703723977E+03  0.17200000000E+03 0.  1.
</event>
<event>
 4    1  0.6352740E-002  0.5364617E+03  0.7818608E-02  0.1004677E+00
         -2   -1    0    0    0  501 -0.00000000000E+00  0.00000000000E+00  0.35976074525E+03  0.35976074525E+03  0.00000000000E+00 0.  1.
          2   -1    0    0  502    0  0.00000000000E+00 -0.00000000000E+00 -0.10141862822E+04  0.10141862822E+04  0.00000000000E+00 0. -1.
          6    1    1    2  502    0  0.18544848845E+03 -0.47309192040E+03 -0.64295031741E+03  0.83736265601E+03  0.17200000000E+03 0. -1.
         -6    1    1    2    0  501 -0.18544848845E+03  0.47309192040E+03 -0.11475219538E+02  0.53658437145E+03  0.17200000000E+03 0.  1.
</event>
<event>
 4    1  0.6352740E-002  0.7604551E+03  0.7818608E-02  0.9619089E-01
          1   -1    0    0  502    0  0.00000000000E+00  0.00000000000E+00  0.52178632883E+03  0.52178632883E+03  0.00000000000E+00 0. -1.
         -1   -1    0    0    0  501 -0.00000000000E+00 -0.00000000000E+00 -0.13596055699E+04  0.13596055699E+04  0.00000000000E+00 0.  1.
          6    1    1    2  502    0 -0.58937510057E+03 -0.44871471382E+03 -0.82334607688E+03  0.11207991193E+04  0.17200000000E+03 0. -1.
         -6    1    1    2    0  501  0.58937510057E+03  0.44871471382E+03 -0.14473164164E+02  0.76059277938E+03  0.17200000000E+03 0.  1.
</event>
<event>
 4    1  0.6352740E-002  0.1846007E+03  0.7818608E-02  0.1163423E+00
         -2   -1    0    0    0  501 -0.00000000000E+00  0.00000000000E+00  0.39831946701E+02  0.39831946701E+02  0.00000000000E+00 0.  1.
          2   -1    0    0  502    0  0.00000000000E+00 -0.00000000000E+00 -0.13212220703E+04  0.13212220703E+04  0.00000000000E+00 0. -1.
          6    1    1    2  502    0 -0.66470108368E+02 -0.86686944597E+01 -0.10447188366E+04  0.10609028557E+04  0.17200000000E+03 0. -1.
         -6    1    1    2    0  501  0.66470108368E+02  0.86686944597E+01 -0.23667128697E+03  0.30015116133E+03  0.17200000000E+03 0.  1.
</event>
<event>
 4    1  0.6352740E-002  0.8747653E+03  0.7818608E-02  0.9457688E-01
          2   -1    0    0  502    0  0.00000000000E+00  0.00000000000E+00  0.49671876268E+03  0.49671876268E+03  0.00000000000E+00 0. -1.
         -2   -1    0    0    0  501 -0.00000000000E+00 -0.00000000000E+00 -0.19718610101E+04  0.19718610101E+04  0.00000000000E+00 0.  1.
          6    1    1    2  502    0 -0.82012389135E+03 -0.25105199813E+03 -0.16029956868E+03  0.88933135256E+03  0.17200000000E+03 0. -1.
         -6    1    1    2    0  501  0.82012389135E+03  0.25105199813E+03 -0.13148426787E+04  0.15792484202E+04  0.17200000000E+03 0.  1.
</event>
<event>
 4    1  0.6352740E-002  0.1944295E+03  0.7818608E-02  0.1154526E+00
          2   -1    0    0  502    0  0.00000000000E+00  0.00000000000E+00  0.27907244483E+03  0.27907244483E+03  0.00000000000E+00 0. -1.
         -2   -1    0    0    0  501 -0.00000000000E+00 -0.00000000000E+00 -0.14628742085E+03  0.14628742085E+03  0.00000000000E+00 0.  1.
          6    1    1    2  502    0  0.38242468239E+02 -0.82196872587E+02  0.85282996417E+01  0.19461640253E+03  0.17200000000E+03 0.  1.
         -6    1    1    2    0  501 -0.38242468239E+02  0.82196872587E+02  0.12425672434E+03  0.23074346314E+03  0.17200000000E+03 0.  1.
</event>
<event>
 4    1  0.6352740E-002  0.2062938E+03  0.7818608E-02  0.1144535E+00
         -2   -1    0    0    0  501 -0.00000000000E+00  0.00000000000E+00  0.30749923223E+02  0.30749923223E+02  0.00000000000E+00 0.  1.
          2   -1    0    0  502    0  0.00000000000E+00 -0.00000000000E+00 -0.15497321553E+04  0.15497321553E+04  0.00000000000E+00 0. -1.
          6    1    1    2  502    0  0.52085416971E+02  0.10129281475E+03 -0.50104655272E+03  0.54185309169E+03  0.17200000000E+03 0.  1.
         -6    1    1    2    0  501 -0.52085416971E+02 -0.10129281475E+03 -0.10179356793E+04  0.10386289868E+04  0.17200000000E+03 0. -1.
</event>
<event>
 4    1  0.6352740E-002  0.4236532E+03  0.7818608E-02  0.1035884E+00
          2   -1    0    0  502    0  0.00000000000E+00  0.00000000000E+00  0.39912006880E+03  0.39912006880E+03  0.00000000000E+00 0. -1.
         -2   -1    0    0    0  501 -0.00000000000E+00 -0.00000000000E+00 -0.47917098210E+03  0.47917098210E+03  0.00000000000E+00 0.  1.
          6    1    1    2  502    0 -0.11553995138E+03  0.36952480512E+03  0.68893063112E+02  0.42921826162E+03  0.17200000000E+03 0. -1.
         -6    1    1    2    0  501  0.11553995138E+03 -0.36952480512E+03 -0.14894397641E+03  0.44907278928E+03  0.17200000000E+03 0.  1.
</event>
<event>
 4    1  0.6352740E-002  0.1951674E+03  0.7818608E-02  0.1153882E+00
          1   -1    0    0  502    0  0.00000000000E+00  0.00000000000E+00  0.12389318411E+04  0.12389318411E+04  0.00000000000E+00 0. -1.
         -1   -1    0    0    0  501 -0.00000000000E+00 -0.00000000000E+00 -0.30744487039E+02  0.30744487039E+02  0.00000000000E+00 0.  1.
          6    1    1    2  502    0  0.32208223893E+02 -0.86423106050E+02  0.60399161288E+03  0.63474104277E+03  0.17200000000E+03 0.  1.
         -6    1    1    2    0  501 -0.32208223893E+02  0.86423106050E+02  0.60419574114E+03  0.63493528533E+03  0.17200000000E+03 0. -1.
</event>
<event>
 4    1  0.6352740E-002  0.2054157E+03  0.7818608E-02  0.1145249E+00
          2   -1    0    0  502    0  0.00000000000E+00  0.00000000000E+00  0.51634917755E+03  0.51634917755E+03  0.00000000000E+00 0. -1.
         -2   -1    0    0    0  501 -0.00000000000E+00 -0.00000000000E+00 -0.83411463007E+02  0.83411463007E+02  0.00000000000E+00 0.  1.
          6    1    1    2  502    0  0.12780301902E+02  0.11157175191E+03  0.17375376046E+03  0.26904639231E+03  0.17200000000E+03 0. -1.
         -6    1    1    2    0  501 -0.12780301902E+02 -0.11157175191E+03  0.25918395408E+03  0.33071424825E+03  0.17200000000E+03 0.  1.
</event>
<event>
 4    1  0.6352740E-002  0.2314177E+03  0.7818608E-02  0.1125646E+00
          2   -1    0    0  502    0  0.00000000000E+00  0.00000000000E+00  0.10302869859E+04  0.10302869859E+04  0.00000000000E+00 0. -1.
         -2   -1    0    0    0  501 -0.00000000000E+00 -0.00000000000E+00 -0.51983165713E+02  0.51983165713E+02  0.00000000000E+00 0.  1.
          6    1    1    2  502    0  0.10102418062E+03  0.11732114189E+03  0.49349110429E+03  0.54505743313E+03  0.17200000000E+03 0. -1.
         -6    1    1    2    0  501 -0.10102418062E+03 -0.11732114189E+03  0.48481271594E+03  0.53721271852E+03  0.17200000000E+03 0.  1.
</event>
<event>
 4    1  0.6352740E-002  0.1730178E+03  0.7818608E-02  0.1174737E+00
          2   -1    0    0  502    0  0.00000000000E+00  0.00000000000E+00  0.86222066832E+03  0.86222066832E+03  0.00000000000E+00 0. -1.
         -2   -1    0    0    0  501 -0.00000000000E+00 -0.00000000000E+00 -0.37515793274E+02  0.37515793274E+02  0.00000000000E+00 0.  1.
          6    1    1    2  502    0  0.18509995862E+02 -0.29196912217E+01  0.53519107462E+03  0.56246300402E+03  0.17200000000E+03 0. -1.
         -6    1    1    2    0  501 -0.18509995862E+02  0.29196912217E+01  0.28951380042E+03  0.33727345757E+03  0.17200000000E+03 0.  1.
</event>
<event>
 4    1  0.6352740E-002  0.3845422E+03  0.7818608E-02  0.1049268E+00
          1   -1    0    0  502    0  0.00000000000E+00  0.00000000000E+00  0.19982260460E+04  0.19982260460E+04  0.00000000000E+00 0. -1.
         -1   -1    0    0    0  501 -0.00000000000E+00 -0.00000000000E+00 -0.82620554572E+02  0.82620554572E+02  0.00000000000E+00 0.  1.
          6    1    1    2  502    0 -0.34066373284E+03  0.47296495322E+02  0.12938366243E+04  0.13497725541E+04  0.17200000000E+03 0. -1.
         -6    1    1    2    0  501  0.34066373284E+03 -0.47296495322E+02  0.62176886713E+03  0.73107404650E+03  0.17200000000E+03 0.  1.
</event>
<event>
 4    1  0.6352740E-002  0.1766421E+03  0.7818608E-02  0.1171093E+00
         -2   -1    0    0    0  501 -0.00000000000E+00  0.00000000000E+00  0.40844351110E+02  0.40844351110E+02  0.00000000000E+00 0.  1.
          2   -1    0    0  502    0  0.00000000000E+00 -0.00000000000E+00 -0.88480848511E+03  0.88480848511E+03  0.00000000000E+00 0. -1.
          6    1    1    2  502    0 -0.24703087821E+02 -0.31752016308E+02 -0.59304616017E+03  0.61879413473E+03  0.17200000000E+03 0. -1.
         -6    1    1    2    0  501  0.24703087821E+02  0.31752016308E+02 -0.25091797383E+03  0.30685870148E+03  0.17200000000E+03 0.  1.
</event>
<event>
 4    1  0.6352740E-002  0.1784139E+03  0.7818608E-02  0.1169347E+00
          2   -1    0    0  502    0  0.00000000000E+00  0.00000000000E+00  0.11682399709E+04  0.11682399709E+04  0.00000000000E+00 0. -1.
         -2   -1    0    0    0  501 -0.00000000000E+00 -0.00000000000E+00 -0.84309849588E+03  0.84309849588E+03  0.00000000000E+00 0.  1.
          6    1    1    2  502    0  0.40882383400E+02  0.24002896911E+02  0.11518558095E+04  0.11655914010E+04  0.17200000000E+03 0. -1.
         -6    1    1    2    0  501 -0.40882383400E+02 -0.24002896911E+02 -0.82671433449E+03  0.84574706572E+03  0.17200000000E+03 0.  1.
</event>
<event>
 4    1  0.6352740E-002  0.1925591E+03  0.7818608E-02  0.1156173E+00
          1   -1    0    0  502    0  0.00000000000E+00  0.00000000000E+00  0.10311682880E+03  0.10311682880E+03  0.00000000000E+00 0. -1.
         -1   -1    0    0    0  501 -0.00000000000E+00 -0.00000000000E+00 -0.36253826339E+03  0.36253826339E+03  0.00000000000E+00 0.  1.
          6    1    1    2  502    0  0.86412296128E+02 -0.52835303851E+01 -0.15073382347E+03  0.24453974351E+03  0.17200000000E+03 0. -1.
         -6    1    1    2    0  501 -0.86412296128E+02  0.52835303851E+01 -0.10868761111E+03  0.22111534869E+03  0.17200000000E+03 0. -1.
</event>
<event>
 4    1  0.6352740E-002  0.1771705E+03  0.7818608E-02  0.1170570E+00
         -1   -1    0    0    0  501 -0.00000000000E+00  0.00000000000E+00  0.55225274339E+02  0.55225274339E+02  0.00000000000E+00 0.  1.
          1   -1    0    0  502    0  0.00000000000E+00 -0.00000000000E+00 -0.65646805167E+03  0.65646805167E+03  0.00000000000E+00 0. -1.
          6    1    1    2  502    0  0.44480479049E+01 -0.42256445932E+02 -0.43096641769E+03  0.46596292291E+03  0.17200000000E+03 0. -1.
         -6    1    1    2    0  501 -0.44480479049E+01  0.42256445932E+02 -0.17027635964E+03  0.24573040309E+03  0.17200000000E+03 0.  1.
</event>
<event>
 4    1  0.6352740E-002  0.1962803E+03  0.7818608E-02  0.1152916E+00
          2   -1    0    0  502    0  0.00000000000E+00  0.00000000000E+00  0.10716997434E+03  0.10716997434E+03  0.00000000000E+00 0. -1.
         -2   -1    0    0    0  501 -0.00000000000E+00 -0.00000000000E+00 -0.61119444529E+03  0.61119444529E+03  0.00000000000E+00 0.  1.
          6    1    1    2  502    0  0.36521647936E+02 -0.87224565583E+02 -0.21509959434E+02  0.19745539740E+03  0.17200000000E+03 0. -1.
         -6    1    1    2    0  501 -0.36521647936E+02  0.87224565583E+02 -0.48251451152E+03  0.52090902222E+03  0.17200000000E+03 0.  1.
</event>
<event>
 4    1  0.6352740E-002  0.1840657E+03  0.7818608E-02  0.1163925E+00
          2   -1    0    0  502    0  0.00000000000E+00  0.00000000000E+00  0.39087017602E+03  0.39087017602E+03  0.00000000000E+00 0. -1.
         -2   -1    0    0    0  501 -0.00000000000E+00 -0.00000000000E+00 -0.13088517724E+03  0.13088517724E+03  0.00000000000E+00 0.  1.
          6    1    1    2  502    0  0.27092210350E+02 -0.59684225188E+02  0.28160453741E+03  0.33642430068E+03  0.17200000000E+03 0. -1.
         -6    1    1    2    0  501 -0.27092210350E+02  0.59684225188E+02 -0.21619538632E+02  0.18533105257E+03  0.17200000000E+03 0.  1.
</event>
<event>
 4    1  0.6352740E-002  0.2272824E+03  0.7818608E-02  0.1128567E+00
         -1   -1    0    0    0  501 -0.00000000000E+00  0.00000000000E+00  0.75352642925E+02  0.75352642925E+02  0.00000000000E+00 0.  1.
          1   -1    0    0  502    0  0.00000000000E+00 -0.00000000000E+00 -0.76734323153E+03  0.76734323153E+03  0.00000000000E+00 0. -1.
          6    1    1    2  502    0  0.51452279153E+02  0.13937701736E+03 -0.48356724300E+03  0.53431691766E+03  0.17200000000E+03 0. -1.
         -6    1    1    2    0  501 -0.51452279153E+02 -0.13937701736E+03 -0.20842334561E+03  0.30837895679E+03  0.17200000000E+03 0.  1.
</event>
<event>
 4    1  0.6352740E-002  0.3421182E+03  0.7818608E-02  0.1065897E+00
         -2   -1    0    0    0  501 -0.00000000000E+00  0.00000000000E+00  0.64505499057E+02  0.64505499057E+02  0.00000000000E+00 0.  1.
          2   -1    0    0  502    0  0.00000000000E+00 -0.00000000000E+00 -0.18663984595E+04  0.18663984595E+04  0.00000000000E+00 0. -1.
          6    1    1    2  502    0 -0.27940403244E+03  0.96924053966E+02 -0.10619472449E+04  0.11156956738E+04  0.17200000000E+03 0. -1.
         -6    1    1    2    0  501  0.27940403244E+03 -0.96924053966E+02 -0.73994571552E+03  0.81520828474E+03  0.17200000000E+03 0.  1.
</event>
<event>
 4    1  0.6352740E-002  0.3559989E+03  0.7818608E-02  0.1060179E+00
          2   -1    0    0  502    0  0.00000000000E+00  0.00000000000E+00  0.11584939976E+04  0.11584939976E+04  0.00000000000E+00 0. -1.
         -2   -1    0    0    0  501 -0.00000000000E+00 -0.00000000000E+00 -0.11641238033E+03  0.11641238033E+03  0.00000000000E+00 0.  1.
          6    1    1    2  502    0  0.44911687692E+02  0.30843822708E+03  0.36454975819E+03  0.50954070084E+03  0.17200000000E+03 0. -1.
         -6    1    1    2    0  501 -0.44911687692E+02 -0.30843822708E+03  0.67753185912E+03  0.76536567714E+03  0.17200000000E+03 0.  1.
</event>
<event>
 4    1  0.6352740E-002  0.1752327E+03  0.7818608E-02  0.1172498E+00
         -2   -1    0    0    0  501 -0.00000000000E+00  0.00000000000E+00  0.38876010548E+02  0.38876010548E+02  0.00000000000E+00 0.  1.
          2   -1    0    0  502    0  0.00000000000E+00 -0.00000000000E+00 -0.93335563249E+03  0.93335563249E+03  0.00000000000E+00 0. -1.
          6    1    1    2  502    0  0.33102465353E+02  0.51713612748E+01 -0.63784688085E+03  0.66147952319E+03  0.17200000000E+03 0. -1.
         -6    1    1    2    0  501 -0.33102465353E+02 -0.51713612748E+01 -0.25663274109E+03  0.31075211985E+03  0.17200000000E+03 0.  1.
</event>
<event>
 4    1  0.6352740E-002  0.2073217E+03  0.7818608E-02  0.1143705E+00
         -2   -1    0    0    0  501 -0.00000000000E+00  0.00000000000E+00  0.39018094313E+03  0.39018094313E+03  0.00000000000E+00 0.  1.
          2   -1    0    0  502    0  0.00000000000E+00 -0.00000000000E+00 -0.11041213825E+03  0.11041213825E+03  0.00000000000E+00 0. -1.
          6    1    1    2  502    0 -0.93476861896E+02  0.68266761142E+02  0.12791990495E+03  0.24360988582E+03  0.17200000000E+03 0.  1.
         -6    1    1    2    0  501  0.93476861896E+02 -0.68266761142E+02  0.15184889994E+03  0.25698319556E+03  0.17200000000E+03 0.  1.
</event>
<event>
 4    1  0.6352740E-002  0.1935605E+03  0.7818608E-02  0.1155289E+00
         -2   -1    0    0    0  501 -0.00000000000E+00  0.00000000000E+00  0.31809532130E+02  0.31809532130E+02  0.00000000000E+00 0.  1.
          2   -1    0    0  502    0  0.00000000000E+00 -0.00000000000E+00 -0.13812801753E+04  0.13812801753E+04  0.00000000000E+00 0. -1.
          6    1    1    2  502    0 -0.83722492299E+02 -0.29533390158E+02 -0.94590813532E+03  0.96550912856E+03  0.17200000000E+03 0. -1.
         -6    1    1    2    0  501  0.83722492299E+02  0.29533390158E+02 -0.40356250789E+03  0.44758057892E+03  0.17200000000E+03 0.  1.
</event>
<event>
 4    1  0.6352740E-002  0.1834036E+03  0.7818608E-02  0.1164549E+00
          3   -1    0    0  502    0  0.00000000000E+00  0.00000000000E+00  0.44299282866E+02  0.44299282866E+02  0.00000000000E+00 0. -1.
         -3   -1    0    0    0  501 -0.00000000000E+00 -0.00000000000E+00 -0.10243009974E+04  0.10243009974E+04  0.00000000000E+00 0.  1.
          6    1    1    2  502    0  0.49160247905E+02  0.40449574939E+02 -0.76176169478E+03  0.78352905353E+03  0.17200000000E+03 0. -1.
         -6    1    1    2    0  501 -0.49160247905E+02 -0.40449574939E+02 -0.21824001972E+03  0.28507122670E+03  0.17200000000E+03 0. -1.
</event>
<event>
 4    1  0.6352740E-002  0.5531247E+03  0.7818608E-02  0.1000773E+00
         -2   -1    0    0    0  501 -0.00000000000E+00  0.00000000000E+00  0.66039203902E+03  0.66039203902E+03  0.00000000000E+00 0.  1.
          2   -1    0    0  502    0  0.00000000000E+00 -0.00000000000E+00 -0.57526364648E+03  0.57526364648E+03  0.00000000000E+00 0. -1.
          6    1    1    2  502    0  0.47967679051E+03 -0.21511187121E+03 -0.23002572657E+03  0.59904822459E+03  0.17200000000E+03 0. -1.
         -6    1    1    2    0  501 -0.47967679051E+03  0.21511187121E+03  0.31515411911E+03  0.63660746091E+03  0.17200000000E+03 0.  1.
</event>
<event>
 4    1  0.6352740E-002  0.2038531E+03  0.7818608E-02  0.1146528E+00
          2   -1    0    0  502    0  0.00000000000E+00  0.00000000000E+00  0.21679769878E+04  0.21679769878E+04  0.00000000000E+00 0. -1.
         -2   -1    0    0    0  501 -0.00000000000E+00 -0.00000000000E+00 -0.81015259521E+02  0.81015259521E+02  0.00000000000E+00 0.  1.
          6    1    1    2  502    0 -0.25305997084E+02 -0.10645037811E+03  0.20259848112E+04  0.20362147557E+04  0.17200000000E+03 0. -1.
         -6    1    1    2    0  501  0.25305997084E+02  0.10645037811E+03  0.60976917090E+02  0.21277749154E+03  0.17200000000E+03 0.  1.
</event>
<event>
 4    1  0.6352740E-002  0.2608576E+03  0.7818608E-02  0.1106629E+00
          3   -1    0    0  502    0  0.00000000000E+00  0.00000000000E+00  0.83311876874E+03  0.83311876874E+03  0.00000000000E+00 0. -1.
         -3   -1    0    0    0  501 -0.00000000000E+00 -0.00000000000E+00 -0.85194961530E+02  0.85194961530E+02  0.00000000000E+00 0.  1.
          6    1    1    2  502    0  0.15200106607E+03 -0.12392877039E+03  0.46726541738E+03  0.53514823600E+03  0.17200000000E+03 0. -1.
         -6    1    1    2    0  501 -0.15200106607E+03  0.12392877039E+03  0.28065838984E+03  0.38316549428E+03  0.17200000000E+03 0. -1.
</event>
<event>
 4    1  0.6352740E-002  0.1746084E+03  0.7818608E-02  0.1173125E+00
          1   -1    0    0  502    0  0.00000000000E+00  0.00000000000E+00  0.10045484062E+03  0.10045484062E+03  0.00000000000E+00 0. -1.
         -1   -1    0    0    0  501 -0.00000000000E+00 -0.00000000000E+00 -0.30425112265E+03  0.30425112265E+03  0.00000000000E+00 0.  1.
          6    1    1    2  502    0 -0.24480426783E+02 -0.17458492792E+02 -0.11194929958E+03  0.20741440630E+03  0.17200000000E+03 0.  1.
         -6    1    1    2    0  501  0.24480426783E+02  0.17458492792E+02 -0.91846982449E+02  0.19729155697E+03  0.17200000000E+03 0. -1.
</event>
<event>
 4    1  0.6352740E-002  0.3100455E+03  0.7818608E-02  0.1080324E+00
         -2   -1    0    0    0  501 -0.00000000000E+00  0.00000000000E+00  0.58038231984E+02  0.58038231984E+02  0.00000000000E+00 0.  1.
          2   -1    0    0  502    0  0.00000000000E+00 -0.00000000000E+00 -0.16751151191E+04  0.16751151191E+04  0.00000000000E+00 0. -1.
          6    1    1    2  502    0  0.24622226410E+03  0.76933796812E+02 -0.71667562146E+03  0.78086628741E+03  0.17200000000E+03 0. -1.
         -6    1    1    2    0  501 -0.24622226410E+03 -0.76933796812E+02 -0.90040126567E+03  0.95228706368E+03  0.17200000000E+03 0.  1.
</event>
<event>
 4    1  0.6352740E-002  0.3126191E+03  0.7818608E-02  0.1079097E+00
          1   -1    0    0  502    0  0.00000000000E+00  0.00000000000E+00  0.13026950131E+04  0.13026950131E+04  0.00000000000E+00 0. -1.
         -1   -1    0    0    0  501 -0.00000000000E+00 -0.00000000000E+00 -0.89367111968E+02  0.89367111968E+02  0.00000000000E+00 0.  1.
          6    1    1    2  502    0 -0.15678843666E+03 -0.20872016832E+03  0.32779994557E+03  0.45297188307E+03  0.17200000000E+03 0. -1.
         -6    1    1    2    0  501  0.15678843666E+03  0.20872016832E+03  0.88552795554E+03  0.93909024198E+03  0.17200000000E+03 0.  1.
</event>
<event>
 4    1  0.6352740E-002  0.3110581E+03  0.7818608E-02  0.1079840E+00
          2   -1    0    0  502    0  0.00000000000E+00  0.00000000000E+00  0.14084699662E+04  0.14084699662E+04  0.00000000000E+00 0. -1.
         -2   -1    0    0    0  501 -0.00000000000E+00 -0.00000000000E+00 -0.11467026255E+03  0.11467026255E+03  0.00000000000E+00 0.  1.
          6    1    1    2  502    0 -0.16555281745E+03  0.19941264283E+03  0.11291128455E+04  0.11711758858E+04  0.17200000000E+03 0. -1.
         -6    1    1    2    0  501  0.16555281745E+03 -0.19941264283E+03  0.16468685814E+03  0.35196434298E+03  0.17200000000E+03 0.  1.
</event>
<event>
 4    1  0.6352740E-002  0.3094670E+03  0.7818608E-02  0.1080602E+00
         -1   -1    0    0    0  501 -0.00000000000E+00  0.00000000000E+00  0.13167905108E+03  0.13167905108E+03  0.00000000000E+00 0.  1.
          1   -1    0    0  502    0  0.00000000000E+00 -0.00000000000E+00 -0.85024295018E+03  0.85024295018E+03  0.00000000000E+00 0. -1.
          6    1    1    2  502    0 -0.10447040513E+03 -0.23509947869E+03 -0.54597661003E+03  0.62758289422E+03  0.17200000000E+03 0. -1.
         -6    1    1    2    0  501  0.10447040513E+03  0.23509947869E+03 -0.17258728908E+03  0.35433910704E+03  0.17200000000E+03 0. -1.
</event>
<event>
 4    1  0.6352740E-002  0.2587912E+03  0.7818608E-02  0.1107872E+00
         -2   -1    0    0    0  501 -0.00000000000E+00  0.00000000000E+00  0.76872175210E+02  0.76872175210E+02  0.00000000000E+00 0.  1.
          2   -1    0    0  502    0  0.00000000000E+00 -0.00000000000E+00 -0.97831052971E+03  0.97831052971E+03  0.00000000000E+00 0. -1.
          6    1    1    2  502    0  0.65260341373E+02 -0.18201641922E+03 -0.27616646801E+03  0.37847167275E+03  0.17200000000E+03 0. -1.
         -6    1    1    2    0  501 -0.65260341373E+02  0.18201641922E+03 -0.62527188650E+03  0.67671103217E+03  0.17200000000E+03 0. -1.
</event>
<event>
 4    1  0.6352740E-002  0.1871729E+03  0.7818608E-02  0.1161036E+00
          1   -1    0    0  502    0  0.00000000000E+00  0.00000000000E+00  0.14611949681E+03  0.14611949681E+03  0.00000000000E+00 0. -1.
         -1   -1    0    0    0  501 -0.00000000000E+00 -0.00000000000E+00 -0.24168286761E+03  0.24168286761E+03  0.00000000000E+00 0.  1.
          6    1    1    2  502    0  0.73162611420E+02  0.98459163485E+01 -0.30489275605E+02  0.18963993700E+03  0.17200000000E+03 0.  1.
         -6    1    1    2    0  501 -0.73162611420E+02 -0.98459163485E+01 -0.65074095194E+02  0.19816242743E+03  0.17200000000E+03 0. -1.
</event>
<event>
 4    1  0.6352740E-002  0.1987434E+03  0.7818608E-02  0.1150804E+00
          2   -1    0    0  502    0  0.00000000000E+00  0.00000000000E+00  0.15181304401E+03  0.15181304401E+03  0.00000000000E+00 0. -1.
         -2   -1    0    0    0  501 -0.00000000000E+00 -0.00000000000E+00 -0.26815260229E+03  0.26815260229E+03  0.00000000000E+00 0.  1.
          6    1    1    2  502    0 -0.34725450708E+02  0.93322523741E+02 -0.21966235444E+02  0.19995365929E+03  0.17200000000E+03 0.  1.
         -6    1    1    2    0  501  0.34725450708E+02 -0.93322523741E+02 -0.94373322833E+02  0.22001198701E+03  0.17200000000E+03 0.  1.
</event>
<event>
 4    1  0.6352740E-002  0.1812947E+03  0.7818608E-02  0.1166556E+00
         -1   -1    0    0    0  501 -0.00000000000E+00  0.00000000000E+00  0.45650023708E+02  0.45650023708E+02  0.00000000000E+00 0.  1.
          1   -1    0    0  502    0  0.00000000000E+00 -0.00000000000E+00 -0.77591260384E+03  0.77591260384E+03  0.00000000000E+00 0. -1.
          6    1    1    2  502    0 -0.57110141464E+02 -0.47135523171E+01 -0.47540673196E+03  0.50880187365E+03  0.17200000000E+03 0. -1.
         -6    1    1    2    0  501  0.57110141464E+02  0.47135523171E+01 -0.25485584817E+03  0.31276075390E+03  0.17200000000E+03 0.  1.
</event>
<event>
 4    1  0.6352740E-002  0.2310023E+03  0.7818608E-02  0.1125936E+00
         -2   -1    0    0    0  501 -0.00000000000E+00  0.00000000000E+00  0.25725435549E+03  0.25725435549E+03  0.00000000000E+00 0.  1.
          2   -1    0    0  502    0  0.00000000000E+00 -0.00000000000E+00 -0.26278215125E+03  0.26278215125E+03  0.00000000000E+00 0. -1.
          6    1    1    2  502    0  0.23355915226E+02 -0.15242236243E+03 -0.12210117928E+03  0.26128676454E+03  0.17200000000E+03 0. -1.
         -6    1    1    2    0  501 -0.23355915226E+02  0.15242236243E+03  0.11657338351E+03  0.25874974220E+03  0.17200000000E+03 0.  1.
</event>
<event>
 4    1  0.6352740E-002  0.2369547E+03  0.7818608E-02  0.1121838E+00
         -3   -1    0    0    0  501 -0.00000000000E+00  0.00000000000E+00  0.15583214542E+02  0.15583214542E+02  0.00000000000E+00 0.  1.
          3   -1    0    0  502    0  0.00000000000E+00 -0.00000000000E+00 -0.39447358495E+04  0.39447358495E+04  0.00000000000E+00 0. -1.
          6    1    1    2  502    0  0.14765284788E+03 -0.69008434705E+02 -0.25473330828E+04  0.25583301903E+04  0.17200000000E+03 0.  1.
         -6    1    1    2    0  501 -0.14765284788E+03  0.69008434705E+02 -0.13818195521E+04  0.14019888738E+04  0.17200000000E+03 0. -1.
</event>
<event>
 4    1  0.6352740E-002  0.1836574E+03  0.7818608E-02  0.1164310E+00
         -2   -1    0    0    0  501 -0.00000000000E+00  0.00000000000E+00  0.17810286653E+02  0.17810286653E+02  0.00000000000E+00 0.  1.
          2   -1    0    0  502    0  0.00000000000E+00 -0.00000000000E+00 -0.19267334510E+04  0.19267334510E+04  0.00000000000E+00 0. -1.
          6    1    1    2  502    0 -0.63566871624E+02 -0.10261248597E+02 -0.10814765314E+04  0.10969601307E+04  0.17200000000E+03 0.  1.
         -6    1    1    2    0  501  0.63566871624E+02  0.10261248597E+02 -0.82744663298E+03  0.84758360698E+03  0.17200000000E+03 0.  1.
</event>
<event>
 4    1  0.6352740E-002  0.5774049E+03  0.7818608E-02  0.9953425E-01
         -2   -1    0    0    0  501 -0.00000000000E+00  0.00000000000E+00  0.50076681549E+04  0.50076681549E+04  0.00000000000E+00 0.  1.
          2   -1    0    0  502    0  0.00000000000E+00 -0.00000000000E+00 -0.70472011753E+02  0.70472011753E+02  0.00000000000E+00 0. -1.
          6    1    1    2  502    0 -0.36293708759E+03 -0.41483620224E+03  0.18716852244E+04  0.19587245808E+04  0.17200000000E+03 0. -1.
         -6    1    1    2    0  501  0.36293708759E+03  0.41483620224E+03  0.30655109188E+04  0.31194155859E+04  0.17200000000E+03 0.  1.
</event>
<event>
 4    1  0.6352740E-002  0.4450618E+03  0.7818608E-02  0.1029205E+00
          1   -1    0    0  502    0  0.00000000000E+00  0.00000000000E+00  0.72158272247E+03  0.72158272247E+03  0.00000000000E+00 0. -1.
         -1   -1    0    0    0  501 -0.00000000000E+00 -0.00000000000E+00 -0.58996912874E+03  0.58996912874E+03  0.00000000000E+00 0.  1.
          6    1    1    2  502    0  0.38807424593E+03  0.13376991645E+03  0.54533478588E+03  0.70389632731E+03  0.17200000000E+03 0. -1.
         -6    1    1    2    0  501 -0.38807424593E+03 -0.13376991645E+03 -0.41372119215E+03  0.60765552391E+03  0.17200000000E+03 0.  1.
</event>
<event>
 4    1  0.6352740E-002  0.1752094E+03  0.7818608E-02  0.1172522E+00
          3   -1    0    0  502    0  0.00000000000E+00  0.00000000000E+00  0.18183453976E+03  0.18183453976E+03  0.00000000000E+00 0. -1.
         -3   -1    0    0    0  501 -0.00000000000E+00 -0.00000000000E+00 -0.17047703960E+03  0.17047703960E+03  0.00000000000E+00 0.  1.
          6    1    1    2  502    0 -0.12929486311E+02 -0.30775729781E+02  0.23016837547E+02  0.17671471917E+03  0.17200000000E+03 0.  1.
         -6    1    1    2    0  501  0.12929486311E+02  0.30775729781E+02 -0.11659337392E+02  0.17559686019E+03  0.17200000000E+03 0.  1.
</event>
<event>
 4    1  0.6352740E-002  0.5045537E+03  0.7818608E-02  0.1012597E+00
          2   -1    0    0  502    0  0.00000000000E+00  0.00000000000E+00  0.11630081944E+04  0.11630081944E+04  0.00000000000E+00 0. -1.
         -2   -1    0    0    0  501 -0.00000000000E+00 -0.00000000000E+00 -0.64799116647E+03  0.64799116647E+03  0.00000000000E+00 0.  1.
          6    1    1    2  502    0 -0.46742006153E+03 -0.80677636192E+02  0.99436357313E+03  0.11150485687E+04  0.17200000000E+03 0. -1.
         -6    1    1    2    0  501  0.46742006153E+03  0.80677636192E+02 -0.47934654515E+03  0.69595079226E+03  0.17200000000E+03 0.  1.
</event>
<event>
 4    1  0.6352740E-002  0.3297287E+03  0.7818608E-02  0.1071257E+00
          2   -1    0    0  502    0  0.00000000000E+00  0.00000000000E+00  0.19791407281E+04  0.19791407281E+04  0.00000000000E+00 0. -1.
         -2   -1    0    0    0  501 -0.00000000000E+00 -0.00000000000E+00 -0.16448226363E+03  0.16448226363E+03  0.00000000000E+00 0.  1.
          6    1    1    2  502    0  0.18277127053E+03  0.21384970365E+03  0.17820364461E+04  0.18122844501E+04  0.17200000000E+03 0. -1.
         -6    1    1    2    0  501 -0.18277127053E+03 -0.21384970365E+03  0.32622018429E+02  0.33133854163E+03  0.17200000000E+03 0.  1.
</event>
<event>
 4    1  0.6352740E-002  0.3310575E+03  0.7818608E-02  0.1070670E+00
         -1   -1    0    0    0  501 -0.00000000000E+00  0.00000000000E+00  0.49266802754E+03  0.49266802754E+03  0.00000000000E+00 0.  1.
          1   -1    0    0  502    0  0.00000000000E+00 -0.00000000000E+00 -0.31290732873E+03  0.31290732873E+03  0.00000000000E+00 0. -1.
          6    1    1    2  502    0  0.12048807888E+02  0.28261265274E+03 -0.12667325756E+03  0.35446466600E+03  0.17200000000E+03 0. -1.
         -6    1    1    2    0  501 -0.12048807888E+02 -0.28261265274E+03  0.30643395637E+03  0.45111069027E+03  0.17200000000E+03 0.  1.
</event>
<event>
 4    1  0.6352740E-002  0.2093923E+03  0.7818608E-02  0.1142048E+00
         -2   -1    0    0    0  501 -0.00000000000E+00  0.00000000000E+00  0.85111150143E+02  0.85111150143E+02  0.00000000000E+00 0.  1.
          2   -1    0    0  502    0  0.00000000000E+00 -0.00000000000E+00 -0.67728826531E+03  0.67728826531E+03  0.00000000000E+00 0. -1.
          6    1    1    2  502    0  0.72630728683E+02 -0.94794085187E+02 -0.48260042144E+03  0.52606872946E+03  0.17200000000E+03 0. -1.
         -6    1    1    2    0  501 -0.72630728683E+02  0.94794085187E+02 -0.10957669372E+03  0.23633068600E+03  0.17200000000E+03 0. -1.
</event>
<event>
 4    1  0.6352740E-002  0.1773579E+03  0.7818608E-02  0.1170385E+00
          1   -1    0    0  502    0  0.00000000000E+00  0.00000000000E+00  0.41601180623E+03  0.41601180623E+03  0.00000000000E+00 0. -1.
         -1   -1    0    0    0  501 -0.00000000000E+00 -0.00000000000E+00 -0.12770300428E+03  0.12770300428E+03  0.00000000000E+00 0.  1.
          6    1    1    2  502    0  0.34777755874E+02  0.25735649213E+02  0.31778195859E+03  0.36392470258E+03  0.17200000000E+03 0. -1.
         -6    1    1    2    0  501 -0.34777755874E+02 -0.25735649213E+02 -0.29473156639E+02  0.17979010792E+03  0.17200000000E+03 0.  1.
</event>
<event>
 4    1  0.6352740E-002  0.1759331E+03  0.7818608E-02  0.1171798E+00
         -1   -1    0    0    0  501 -0.00000000000E+00  0.00000000000E+00  0.43982704768E+03  0.43982704768E+03  0.00000000000E+00 0.  1.
          1   -1    0    0  502    0  0.00000000000E+00 -0.00000000000E+00 -0.81141144162E+02  0.81141144162E+02  0.00000000000E+00 0. -1.
          6    1    1    2  502    0 -0.36785431344E+02  0.39101788446E+01  0.84455724188E+02  0.19515436661E+03  0.17200000000E+03 0. -1.
         -6    1    1    2    0  501  0.36785431344E+02 -0.39101788446E+01  0.27423017933E+03  0.32581382523E+03  0.17200000000E+03 0.  1.
</event>
<event>
 4    1  0.6352740E-002  0.1752239E+03  0.7818608E-02  0.1172507E+00
         -2   -1    0    0    0  501 -0.00000000000E+00  0.00000000000E+00  0.34456695793E+02  0.34456695793E+02  0.00000000000E+00 0.  1.
          2   -1    0    0  502    0  0.00000000000E+00 -0.00000000000E+00 -0.39314566814E+04  0.39314566814E+04  0.00000000000E+00 0. -1.
          6    1    1    2  502    0  0.14870272302E+02 -0.29971559673E+02 -0.20468381560E+03  0.26944180032E+03  0.17200000000E+03 0.  1.
         -6    1    1    2    0  501 -0.14870272302E+02  0.29971559673E+02 -0.36923161700E+04  0.36964715769E+04  0.17200000000E+03 0. -1.
</event>
<event>
 4    1  0.6352740E-002  0.1857872E+03  0.7818608E-02  0.1162317E+00
          2   -1    0    0  502    0  0.00000000000E+00  0.00000000000E+00  0.14280989923E+03  0.14280989923E+03  0.00000000000E+00 0. -1.
         -2   -1    0    0    0  501 -0.00000000000E+00 -0.00000000000E+00 -0.26374738501E+03  0.26374738501E+03  0.00000000000E+00 0.  1.
          6    1    1    2  502    0  0.69909792749E+02 -0.67448383955E+01 -0.16933461468E+01  0.18579488526E+03  0.17200000000E+03 0. -1.
         -6    1    1    2    0  501 -0.69909792749E+02  0.67448383955E+01 -0.11924413963E+03  0.22076239898E+03  0.17200000000E+03 0.  1.
</event>
<event>
 4    1  0.6352740E-002  0.1939572E+03  0.7818608E-02  0.1154940E+00
          1   -1    0    0  502    0  0.00000000000E+00  0.00000000000E+00  0.22328427091E+04  0.22328427091E+04  0.00000000000E+00 0. -1.
         -1   -1    0    0    0  501 -0.00000000000E+00 -0.00000000000E+00 -0.27795887655E+02  0.27795887655E+02  0.00000000000E+00 0.  1.
          6    1    1    2  502    0  0.66229894553E+02 -0.60406853982E+02  0.18118920927E+04  0.18222437660E+04  0.17200000000E+03 0. -1.
         -6    1    1    2    0  501 -0.66229894553E+02  0.60406853982E+02  0.39315472870E+03  0.43839483076E+03  0.17200000000E+03 0.  1.
</event>
<event>
 4    1  0.6352740E-002  0.2039226E+03  0.7818608E-02  0.1146471E+00
         -3   -1    0    0    0  501 -0.00000000000E+00  0.00000000000E+00  0.62617599295E+02  0.62617599295E+02  0.00000000000E+00 0.  1.
          3   -1    0    0  502    0  0.00000000000E+00 -0.00000000000E+00 -0.18091552508E+04  0.18091552508E+04  0.00000000000E+00 0. -1.
          6    1    1    2  502    0 -0.41535562307E+01 -0.10946770874E+03 -0.16178262484E+04  0.16306275483E+04  0.17200000000E+03 0. -1.
         -6    1    1    2    0  501  0.41535562307E+01  0.10946770874E+03 -0.12871140312E+03  0.24114530180E+03  0.17200000000E+03 0.  1.
</event>
<event>
 4    1  0.6352740E-002  0.4698099E+03  0.7818608E-02  0.1021974E+00
          1   -1    0    0  502    0  0.00000000000E+00  0.00000000000E+00  0.24918412185E+03  0.24918412185E+03  0.00000000000E+00 0. -1.
         -1   -1    0    0    0  501 -0.00000000000E+00 -0.00000000000E+00 -0.88716033066E+03  0.88716033066E+03  0.00000000000E+00 0.  1.
          6    1    1    2  502    0  0.42231621397E+03  0.11307686670E+03 -0.29654572693E+03  0.55557243500E+03  0.17200000000E+03 0. -1.
         -6    1    1    2    0  501 -0.42231621397E+03 -0.11307686670E+03 -0.34143048189E+03  0.58077201751E+03  0.17200000000E+03 0.  1.
</event>
<event>
 4    1  0.6352740E-002  0.2596676E+03  0.7818608E-02  0.1107343E+00
         -2   -1    0    0    0  501 -0.00000000000E+00  0.00000000000E+00  0.66825454842E+02  0.66825454842E+02  0.00000000000E+00 0.  1.
          2   -1    0    0  502    0  0.00000000000E+00 -0.00000000000E+00 -0.10728155874E+04  0.10728155874E+04  0.00000000000E+00 0. -1.
          6    1    1    2  502    0 -0.18465499737E+03 -0.61203010402E+02 -0.64196438925E+03  0.69249227693E+03  0.17200000000E+03 0. -1.
         -6    1    1    2    0  501  0.18465499737E+03  0.61203010402E+02 -0.36402574332E+03  0.44714876533E+03  0.17200000000E+03 0.  1.
</event>
<event>
 4    1  0.6352740E-002  0.5345456E+03  0.7818608E-02  0.1005136E+00
          1   -1    0    0  502    0  0.00000000000E+00  0.00000000000E+00  0.16022666873E+04  0.16022666873E+04  0.00000000000E+00 0. -1.
         -1   -1    0    0    0  501 -0.00000000000E+00 -0.00000000000E+00 -0.54594395067E+03  0.54594395067E+03  0.00000000000E+00 0.  1.
          6    1    1    2  502    0  0.10041453840E+03 -0.49605634101E+03  0.14095477583E+04  0.15075025227E+04  0.17200000000E+03 0. -1.
         -6    1    1    2    0  501 -0.10041453840E+03  0.49605634101E+03 -0.35322502171E+03  0.64070811524E+03  0.17200000000E+03 0.  1.
</event>
<event>
 4    1  0.6352740E-002  0.3733073E+03  0.7818608E-02  0.1053435E+00
         -2   -1    0    0    0  501 -0.00000000000E+00  0.00000000000E+00  0.97600591774E+03  0.97600591774E+03  0.00000000000E+00 0.  1.
          2   -1    0    0  502    0  0.00000000000E+00 -0.00000000000E+00 -0.56774214102E+03  0.56774214102E+03  0.00000000000E+00 0. -1.
          6    1    1    2  502    0  0.15286099060E+03 -0.29395216493E+03 -0.46366404167E+03  0.59526691598E+03  0.17200000000E+03 0. -1.
         -6    1    1    2    0  501 -0.15286099060E+03  0.29395216493E+03  0.87192781840E+03  0.94848114278E+03  0.17200000000E+03 0.  1.
</event>
<event>
 4    1  0.6352740E-002  0.2401553E+03  0.7818608E-02  0.1119689E+00
         -1   -1    0    0    0  501 -0.00000000000E+00  0.00000000000E+00  0.38182233381E+02  0.38182233381E+02  0.00000000000E+00 0.  1.
          1   -1    0    0  502    0  0.00000000000E+00 -0.00000000000E+00 -0.24982093367E+04  0.24982093367E+04  0.00000000000E+00 0. -1.
          6    1    1    2  502    0  0.10651446754E+03  0.12940340119E+03 -0.20274290919E+04  0.20416031188E+04  0.17200000000E+03 0. -1.
         -6    1    1    2    0  501 -0.10651446754E+03 -0.12940340119E+03 -0.43259801145E+03  0.49478845131E+03  0.17200000000E+03 0.  1.
</event>
<event>
 4    1  0.6352740E-002  0.2109662E+03  0.7818608E-02  0.1140803E+00
         -1   -1    0    0    0  501 -0.00000000000E+00  0.00000000000E+00  0.24250411039E+02  0.24250411039E+02  0.00000000000E+00 0.  1.
          1   -1    0    0  502    0  0.00000000000E+00 -0.00000000000E+00 -0.18814876600E+04  0.18814876600E+04  0.00000000000E+00 0. -1.
          6    1    1    2  502    0 -0.12208735596E+03  0.41707743573E+01 -0.10779178096E+04  0.10983685729E+04  0.17200000000E+03 0.  1.
         -6    1    1    2    0  501  0.12208735596E+03 -0.41707743573E+01 -0.77931943945E+03  0.80736949815E+03  0.17200000000E+03 0.  1.
</event>
<event>
 4    1  0.6352740E-002  0.2063948E+03  0.7818608E-02  0.1144453E+00
         -2   -1    0    0    0  501 -0.00000000000E+00  0.00000000000E+00  0.34834746405E+03  0.34834746405E+03  0.00000000000E+00 0.  1.
          2   -1    0    0  502    0  0.00000000000E+00 -0.00000000000E+00 -0.12805290927E+03  0.12805290927E+03  0.00000000000E+00 0. -1.
          6    1    1    2  502    0 -0.33923141486E+02  0.10892210482E+03  0.59607432520E+02  0.21482981743E+03  0.17200000000E+03 0. -1.
         -6    1    1    2    0  501  0.33923141486E+02 -0.10892210482E+03  0.16068712227E+03  0.26157055589E+03  0.17200000000E+03 0.  1.
</event>
<event>
 4    1  0.6352740E-002  0.2937898E+03  0.7818608E-02  0.1088387E+00
         -1   -1    0    0    0  501 -0.00000000000E+00  0.00000000000E+00  0.10347052637E+04  0.10347052637E+04  0.00000000000E+00 0.  1.
          1   -1    0    0  502    0  0.00000000000E+00 -0.00000000000E+00 -0.89237072090E+02  0.89237072090E+02  0.00000000000E+00 0. -1.
          6    1    1    2  502    0 -0.20693637504E+03 -0.11792289562E+03  0.32922188941E+03  0.44124769132E+03  0.17200000000E+03 0. -1.
         -6    1    1    2    0  501  0.20693637504E+03  0.11792289562E+03  0.61624630222E+03  0.68269464450E+03  0.17200000000E+03 0.  1.
</event>
<event>
 4    1  0.6352740E-002  0.1764202E+03  0.7818608E-02  0.1171313E+00
         -1   -1    0    0    0  501 -0.00000000000E+00  0.00000000000E+00  0.49954527045E+02  0.49954527045E+02  0.00000000000E+00 0.  1.
          1   -1    0    0  502    0  0.00000000000E+00 -0.00000000000E+00 -0.65810102749E+03  0.65810102749E+03  0.00000000000E+00 0. -1.
          6    1    1    2  502    0  0.22008757922E+02  0.32491767035E+02 -0.22236802536E+03  0.28385143835E+03  0.17200000000E+03 0.  1.
         -6    1    1    2    0  501 -0.22008757922E+02 -0.32491767035E+02 -0.38577847509E+03  0.42420411619E+03  0.17200000000E+03 0. -1.
</event>
<event>
 4    1  0.6352740E-002  0.6937829E+03  0.7818608E-02  0.9727924E-01
          1   -1    0    0  502    0  0.00000000000E+00  0.00000000000E+00  0.18650303980E+03  0.18650303980E+03  0.00000000000E+00 0. -1.
         -1   -1    0    0    0  501 -0.00000000000E+00 -0.00000000000E+00 -0.25812691943E+04  0.25812691943E+04  0.00000000000E+00 0.  1.
          6    1    1    2  502    0 -0.63093355015E+03  0.23167566274E+03 -0.12151997037E+04  0.13993016391E+04  0.17200000000E+03 0. -1.
         -6    1    1    2    0  501  0.63093355015E+03 -0.23167566274E+03 -0.11795664508E+04  0.13684705950E+04  0.17200000000E+03 0.  1.
</event>
<event>
 4    1  0.6352740E-002  0.3254620E+03  0.7818608E-02  0.1073163E+00
         -2   -1    0    0    0  501 -0.00000000000E+00  0.00000000000E+00  0.12471733534E+03  0.12471733534E+03  0.00000000000E+00 0.  1.
          2   -1    0    0  502    0  0.00000000000E+00 -0.00000000000E+00 -0.10184514474E+04  0.10184514474E+04  0.00000000000E+00 0. -1.
          6    1    1    2  502    0 -0.10124084217E+03  0.25708324411E+03 -0.67979224490E+03  0.75368627343E+03  0.17200000000E+03 0. -1.
         -6    1    1    2    0  501  0.10124084217E+03 -0.25708324411E+03 -0.21394186713E+03  0.38948250928E+03  0.17200000000E+03 0.  1.
</event>
<event>
 4    1  0.6352740E-002  0.2866496E+03  0.7818608E-02  0.1092111E+00
         -2   -1    0    0    0  501 -0.00000000000E+00  0.00000000000E+00  0.48406141200E+02  0.48406141200E+02  0.00000000000E+00 0.  1.
          2   -1    0    0  502    0  0.00000000000E+00 -0.00000000000E+00 -0.17139822499E+04  0.17139822499E+04  0.00000000000E+00 0. -1.
          6    1    1    2  502    0  0.15836328411E+03  0.16584653410E+03 -0.74629854979E+03  0.79945576991E+03  0.17200000000E+03 0. -1.
         -6    1    1    2    0  501 -0.15836328411E+03 -0.16584653410E+03 -0.91927755891E+03  0.96293262119E+03  0.17200000000E+03 0.  1.
</event>
<event>
 4    1  0.6352740E-002  0.3235532E+03  0.7818608E-02  0.1074026E+00
          1   -1    0    0  502    0  0.00000000000E+00  0.00000000000E+00  0.19198937048E+04  0.19198937048E+04  0.00000000000E+00 0. -1.
         -1   -1    0    0    0  501 -0.00000000000E+00 -0.00000000000E+00 -0.80483236446E+02  0.80483236446E+02  0.00000000000E+00 0.  1.
          6    1    1    2  502    0 -0.17780425889E+03 -0.20853848693E+03  0.14877039142E+04  0.15224813928E+04  0.17200000000E+03 0. -1.
         -6    1    1    2    0  501  0.17780425889E+03  0.20853848693E+03  0.35170655413E+03  0.47789554845E+03  0.17200000000E+03 0.  1.
</event>
<event>
 4    1  0.6352740E-002  0.2189975E+03  0.7818608E-02  0.1134633E+00
          1   -1    0    0  502    0  0.00000000000E+00  0.00000000000E+00  0.86959445116E+03  0.86959445116E+03  0.00000000000E+00 0. -1.
         -1   -1    0    0    0  501 -0.00000000000E+00 -0.00000000000E+00 -0.71474432113E+02  0.71474432113E+02  0.00000000000E+00 0.  1.
          6    1    1    2  502    0  0.43523658000E+02 -0.12838060679E+03  0.62391796341E+03  0.66123635265E+03  0.17200000000E+03 0. -1.
         -6    1    1    2    0  501 -0.43523658000E+02  0.12838060679E+03  0.17420205564E+03  0.27983253062E+03  0.17200000000E+03 0.  1.
</event>
<event>
 4    1  0.6352740E-002  0.1978205E+03  0.7818608E-02  0.1151591E+00
         -1   -1    0    0    0  501 -0.00000000000E+00  0.00000000000E+00  0.53122286482E+02  0.53122286482E+02  0.00000000000E+00 0.  1.
          1   -1    0    0  502    0  0.00000000000E+00 -0.00000000000E+00 -0.96975160960E+03  0.96975160960E+03  0.00000000000E+00 0. -1.
          6    1    1    2  502    0  0.43961110205E+02  0.87271914092E+02 -0.70905653885E+03  0.73613459468E+03  0.17200000000E+03 0. -1.
         -6    1    1    2    0  501 -0.43961110205E+02 -0.87271914092E+02 -0.20757278427E+03  0.28673930140E+03  0.17200000000E+03 0.  1.
</event>
<event>
 4    1  0.6352740E-002  0.2313745E+03  0.7818608E-02  0.1125676E+00
          2   -1    0    0  502    0  0.00000000000E+00  0.00000000000E+00  0.14891958889E+04  0.14891958889E+04  0.00000000000E+00 0. -1.
         -2   -1    0    0    0  501 -0.00000000000E+00 -0.00000000000E+00 -0.53147953959E+02  0.53147953959E+02  0.00000000000E+00 0.  1.
          6    1    1    2  502    0  0.45364912167E+02  0.14796007413E+03  0.11567232816E+04  0.11796367699E+04  0.17200000000E+03 0. -1.
         -6    1    1    2    0  501 -0.45364912167E+02 -0.14796007413E+03  0.27932465339E+03  0.36270707297E+03  0.17200000000E+03 0.  1.
</event>
<event>
 4    1  0.6352740E-002  0.2335240E+03  0.7818608E-02  0.1124184E+00
          1   -1    0    0  502    0  0.00000000000E+00  0.00000000000E+00  0.40807411467E+03  0.40807411467E+03  0.00000000000E+00 0. -1.
         -1   -1    0    0    0  501 -0.00000000000E+00 -0.00000000000E+00 -0.18300918619E+03  0.18300918619E+03  0.00000000000E+00 0.  1.
          6    1    1    2  502    0 -0.14619926359E+03 -0.59793346859E+02  0.26603904592E+03  0.35399186849E+03  0.17200000000E+03 0. -1.
         -6    1    1    2    0  501  0.14619926359E+03  0.59793346859E+02 -0.40974117447E+02  0.23709143237E+03  0.17200000000E+03 0.  1.
</event>
<event>
 4    1  0.6352740E-002  0.1777196E+03  0.7818608E-02  0.1170028E+00
          2   -1    0    0  502    0  0.00000000000E+00  0.00000000000E+00  0.13919367015E+04  0.13919367015E+04  0.00000000000E+00 0. -1.
         -2   -1    0    0    0  501 -0.00000000000E+00 -0.00000000000E+00 -0.24467728285E+02  0.24467728285E+02  0.00000000000E+00 0.  1.
          6    1    1    2  502    0 -0.74957473754E+01  0.44091528281E+02  0.87458237005E+03  0.89245648135E+03  0.17200000000E+03 0. -1.
         -6    1    1    2    0  501  0.74957473754E+01 -0.44091528281E+02  0.49288660317E+03  0.52394794845E+03  0.17200000000E+03 0.  1.
</event>
<event>
 4    1  0.6352740E-002  0.1788320E+03  0.7818608E-02  0.1168938E+00
          2   -1    0    0  502    0  0.00000000000E+00  0.00000000000E+00  0.76286997344E+03  0.76286997344E+03  0.00000000000E+00 0. -1.
         -2   -1    0    0    0  501 -0.00000000000E+00 -0.00000000000E+00 -0.88919290960E+02  0.88919290960E+02  0.00000000000E+00 0.  1.
          6    1    1    2  502    0  0.22375995138E+02 -0.43545374904E+02  0.64660424349E+03  0.67087847821E+03  0.17200000000E+03 0. -1.
         -6    1    1    2    0  501 -0.22375995138E+02  0.43545374904E+02  0.27346438996E+02  0.18091078619E+03  0.17200000000E+03 0.  1.
</event>
<event>
 4    1  0.6352740E-002  0.1005890E+04  0.7818608E-02  0.9302108E-01
          2   -1    0    0  502    0  0.00000000000E+00  0.00000000000E+00  0.12640339893E+04  0.12640339893E+04  0.00000000000E+00 0. -1.
         -2   -1    0    0    0  501 -0.00000000000E+00 -0.00000000000E+00 -0.91595935792E+03  0.91595935792E+03  0.00000000000E+00 0.  1.
          6    1    1    2  502    0 -0.93171886690E+03  0.33783286057E+03  0.56108749637E+03  0.11517961049E+04  0.17200000000E+03 0. -1.
         -6    1    1    2    0  501  0.93171886690E+03 -0.33783286057E+03 -0.21301286495E+03  0.10281972424E+04  0.17200000000E+03 0.  1.
</event>
<event>
 4    1  0.6352740E-002  0.2364292E+03  0.7818608E-02  0.1122195E+00
          2   -1    0    0  502    0  0.00000000000E+00  0.00000000000E+00  0.13069996780E+03  0.13069996780E+03  0.00000000000E+00 0. -1.
         -2   -1    0    0    0  501 -0.00000000000E+00 -0.00000000000E+00 -0.45904851367E+03  0.45904851367E+03  0.00000000000E+00 0.  1.
          6    1    1    2  502    0 -0.15927437552E+03 -0.30764027704E+02 -0.87101305729E+02  0.25196307182E+03  0.17200000000E+03 0. -1.
         -6    1    1    2    0  501  0.15927437552E+03  0.30764027704E+02 -0.24124724014E+03  0.33778540965E+03  0.17200000000E+03 0.  1.
</event>
<event>
 4    1  0.6352740E-002  0.3971632E+03  0.7818608E-02  0.1044766E+00
          2   -1    0    0  502    0  0.00000000000E+00  0.00000000000E+00  0.10835378134E+04  0.10835378134E+04  0.00000000000E+00 0. -1.
         -2   -1    0    0    0  501 -0.00000000000E+00 -0.00000000000E+00 -0.14605021698E+03  0.14605021698E+03  0.00000000000E+00 0.  1.
          6    1    1    2  502    0 -0.35798688910E+03  0.13156947727E+00  0.43376379835E+03  0.58812384992E+03  0.17200000000E+03 0.  1.
         -6    1    1    2    0  501  0.35798688910E+03 -0.13156947727E+00  0.50372379803E+03  0.64146418043E+03  0.17200000000E+03 0. -1.
</event>
<event>
 4    1  0.6352740E-002  0.2591793E+03  0.7818608E-02  0.1107637E+00
         -3   -1    0    0    0  501 -0.00000000000E+00  0.00000000000E+00  0.87829200373E+02  0.87829200373E+02  0.00000000000E+00 0.  1.
          3   -1    0    0  502    0  0.00000000000E+00 -0.00000000000E+00 -0.87664139593E+03  0.87664139593E+03  0.00000000000E+00 0. -1.
          6    1    1    2  502    0  0.10876402085E+03 -0.16050007161E+03 -0.56663363370E+03  0.62309514527E+03  0.17200000000E+03 0.  1.
         -6    1    1    2    0  501 -0.10876402085E+03  0.16050007161E+03 -0.22217856186E+03  0.34137545103E+03  0.17200000000E+03 0.  1.
</event>
<event>
 4    1  0.6352740E-002  0.2635308E+03  0.7818608E-02  0.1105040E+00
         -2   -1    0    0    0  501 -0.00000000000E+00  0.00000000000E+00  0.65327524555E+02  0.65327524555E+02  0.00000000000E+00 0.  1.
          2   -1    0    0  502    0  0.00000000000E+00 -0.00000000000E+00 -0.15067450932E+04  0.15067450932E+04  0.00000000000E+00 0. -1.
          6    1    1    2  502    0 -0.13896900172E+03 -0.14335997609E+03 -0.11472389341E+04  0.11771175124E+04  0.17200000000E+03 0. -1.
         -6    1    1    2    0  501  0.13896900172E+03  0.14335997609E+03 -0.29417863451E+03  0.39495510528E+03  0.17200000000E+03 0.  1.
</event>
<event>
 4    1  0.6352740E-002  0.2185164E+03  0.7818608E-02  0.1134994E+00
          2   -1    0    0  502    0  0.00000000000E+00  0.00000000000E+00  0.24122954935E+03  0.24122954935E+03  0.00000000000E+00 0. -1.
         -2   -1    0    0    0  501 -0.00000000000E+00 -0.00000000000E+00 -0.20434210611E+03  0.20434210611E+03  0.00000000000E+00 0.  1.
          6    1    1    2  502    0 -0.13101592380E+03 -0.31626917611E+02  0.57871814102E+02  0.22604995261E+03  0.17200000000E+03 0. -1.
         -6    1    1    2    0  501  0.13101592380E+03  0.31626917611E+02 -0.20984370860E+02  0.21952170286E+03  0.17200000000E+03 0.  1.
</event>
<event>
 4    1  0.6352740E-002  0.1725997E+03  0.7818608E-02  0.1175164E+00
         -2   -1    0    0    0  501 -0.00000000000E+00  0.00000000000E+00  0.16122754858E+04  0.16122754858E+04  0.00000000000E+00 0.  1.
          2   -1    0    0  502    0  0.00000000000E+00 -0.00000000000E+00 -0.30944461613E+02  0.30944461613E+02  0.00000000000E+00 0. -1.
          6    1    1    2  502    0 -0.10931699343E+02 -0.93348764751E+01  0.26916291610E+03  0.31974883482E+03  0.17200000000E+03 0. -1.
         -6    1    1    2    0  501  0.10931699343E+02  0.93348764751E+01  0.13121681081E+04  0.13234711126E+04  0.17200000000E+03 0.  1.
</event>
<event>
 4    1  0.6352740E-002  0.1789766E+03  0.7818608E-02  0.1168797E+00
         -1   -1    0    0    0  501 -0.00000000000E+00  0.00000000000E+00  0.33864516665E+02  0.33864516665E+02  0.00000000000E+00 0.  1.
          1   -1    0    0  502    0  0.00000000000E+00 -0.00000000000E+00 -0.10474656674E+04  0.10474656674E+04  0.00000000000E+00 0. -1.
          6    1    1    2  502    0 -0.23881293146E+02  0.43339639143E+02 -0.67515310096E+03  0.69847287007E+03  0.17200000000E+03 0. -1.
         -6    1    1    2    0  501  0.23881293146E+02 -0.43339639143E+02 -0.33844804975E+03  0.38285731397E+03  0.17200000000E+03 0.  1.
</event>
<event>
 4    1  0.6352740E-002  0.2221297E+03  0.7818608E-02  0.1132305E+00
         -1   -1    0    0    0  501 -0.00000000000E+00  0.00000000000E+00  0.72407906582E+02  0.72407906582E+02  0.00000000000E+00 0.  1.
          1   -1    0    0  502    0  0.00000000000E+00 -0.00000000000E+00 -0.68338942941E+03  0.68338942941E+03  0.00000000000E+00 0. -1.
          6    1    1    2  502    0  0.10899314171E+03 -0.88758623192E+02 -0.32567746134E+03  0.39421746151E+03  0.17200000000E+03 0.  1.
         -6    1    1    2    0  501 -0.10899314171E+03  0.88758623192E+02 -0.28530406149E+03  0.36157987448E+03  0.17200000000E+03 0. -1.
</event>
<event>
 4    1  0.6352740E-002  0.3595355E+03  0.7818608E-02  0.1058768E+00
          2   -1    0    0  502    0  0.00000000000E+00  0.00000000000E+00  0.19517184577E+04  0.19517184577E+04  0.00000000000E+00 0. -1.
         -2   -1    0    0    0  501 -0.00000000000E+00 -0.00000000000E+00 -0.75139752534E+02  0.75139752534E+02  0.00000000000E+00 0.  1.
          6    1    1    2  502    0 -0.29816983277E+03 -0.10380997788E+03  0.12872273484E+04  0.13364954198E+04  0.17200000000E+03 0. -1.
         -6    1    1    2    0  501  0.29816983277E+03  0.10380997788E+03  0.58935135673E+03  0.69036279040E+03  0.17200000000E+03 0.  1.
</event>
<event>
 4    1  0.6352740E-002  0.1775407E+03  0.7818608E-02  0.1170205E+00
          3   -1    0    0  502    0  0.00000000000E+00  0.00000000000E+00  0.39512184493E+03  0.39512184493E+03  0.00000000000E+00 0. -1.
         -3   -1    0    0    0  501 -0.00000000000E+00 -0.00000000000E+00 -0.34850208841E+03  0.34850208841E+03  0.00000000000E+00 0.  1.
          6    1    1    2  502    0 -0.43753753911E+02 -0.47229566155E+01  0.34980499989E+03  0.39228081173E+03  0.17200000000E+03 0. -1.
         -6    1    1    2    0  501  0.43753753911E+02  0.47229566155E+01 -0.30318524338E+03  0.35134312161E+03  0.17200000000E+03 0.  1.
</event>
<event>
 4    1  0.6352740E-002  0.2015178E+03  0.7818608E-02  0.1148465E+00
          2   -1    0    0  502    0  0.00000000000E+00  0.00000000000E+00  0.23698126032E+03  0.23698126032E+03  0.00000000000E+00 0. -1.
         -2   -1    0    0    0  501 -0.00000000000E+00 -0.00000000000E+00 -0.17982523167E+03  0.17982523167E+03  0.00000000000E+00 0.  1.
          6    1    1    2  502    0  0.10227415600E+03 -0.23778679277E+02  0.73791081447E+02  0.21460324386E+03  0.17200000000E+03 0. -1.
         -6    1    1    2    0  501 -0.10227415600E+03  0.23778679277E+02 -0.16635052800E+02  0.20220324813E+03  0.17200000000E+03 0.  1.
</event>
<event>
 4    1  0.6352740E-002  0.3856735E+03  0.7818608E-02  0.1048857E+00
         -2   -1    0    0    0  501 -0.00000000000E+00  0.00000000000E+00  0.29337890689E+03  0.29337890689E+03  0.00000000000E+00 0.  1.
          2   -1    0    0  502    0  0.00000000000E+00 -0.00000000000E+00 -0.84638461502E+03  0.84638461502E+03  0.00000000000E+00 0. -1.
          6    1    1    2  502    0  0.17332261930E+03  0.29852855373E+03 -0.63736800358E+03  0.74497114021E+03  0.17200000000E+03 0. -1.
         -6    1    1    2    0  501 -0.17332261930E+03 -0.29852855373E+03  0.84362295446E+02  0.39479238170E+03  0.17200000000E+03 0.  1.
</event>
<event>
 4    1  0.6352740E-002  0.2896783E+03  0.7818608E-02  0.1090517E+00
          3   -1    0    0  502    0  0.00000000000E+00  0.00000000000E+00  0.94653638080E+03  0.94653638080E+03  0.00000000000E+00 0. -1.
         -3   -1    0    0    0  501 -0.00000000000E+00 -0.00000000000E+00 -0.11147238278E+03  0.11147238278E+03  0.00000000000E+00 0.  1.
          6    1    1    2  502    0  0.18470751463E+03  0.14217117409E+03  0.65687755753E+03  0.71791478205E+03  0.17200000000E+03 0. -1.
         -6    1    1    2    0  501 -0.18470751463E+03 -0.14217117409E+03  0.17818644049E+03  0.34009398153E+03  0.17200000000E+03 0.  1.
</event>
<event>
 4    1  0.6352740E-002  0.1884266E+03  0.7818608E-02  0.1159888E+00
          2   -1    0    0  502    0  0.00000000000E+00  0.00000000000E+00  0.23439806756E+03  0.23439806756E+03  0.00000000000E+00 0. -1.
         -2   -1    0    0    0  501 -0.00000000000E+00 -0.00000000000E+00 -0.15718036009E+03  0.15718036009E+03  0.00000000000E+00 0.  1.
          6    1    1    2  502    0 -0.74750940904E+02 -0.18245397382E+02  0.12950896809E+01  0.18843108806E+03  0.17200000000E+03 0.  1.
         -6    1    1    2    0  501  0.74750940904E+02  0.18245397382E+02  0.75922617786E+02  0.20314733959E+03  0.17200000000E+03 0.  1.
</event>
<event>
 4    1  0.6352740E-002  0.3077997E+03  0.7818608E-02  0.1081405E+00
         -1   -1    0    0    0  501 -0.00000000000E+00  0.00000000000E+00  0.10916078371E+03  0.10916078371E+03  0.00000000000E+00 0.  1.
          1   -1    0    0  502    0  0.00000000000E+00 -0.00000000000E+00 -0.93418778537E+03  0.93418778537E+03  0.00000000000E+00 0. -1.
          6    1    1    2  502    0  0.19766966002E+03 -0.16150340519E+03 -0.55147647024E+03  0.63155913548E+03  0.17200000000E+03 0. -1.
         -6    1    1    2    0  501 -0.19766966002E+03  0.16150340519E+03 -0.27355053142E+03  0.41178943360E+03  0.17200000000E+03 0.  1.
</event>
<event>
 4    1  0.6352740E-002  0.2136109E+03  0.7818608E-02  0.1138738E+00
         -1   -1    0    0    0  501 -0.00000000000E+00  0.00000000000E+00  0.44753750767E+03  0.44753750767E+03  0.00000000000E+00 0.  1.
          1   -1    0    0  502    0  0.00000000000E+00 -0.00000000000E+00 -0.24486645480E+03  0.24486645480E+03  0.00000000000E+00 0. -1.
          6    1    1    2  502    0 -0.12428090884E+03 -0.24492132800E+02 -0.16314596849E+03  0.26878656199E+03  0.17200000000E+03 0. -1.
         -6    1    1    2    0  501  0.12428090884E+03  0.24492132800E+02  0.36581702136E+03  0.42361740048E+03  0.17200000000E+03 0.  1.
</event>
<event>
 4    1  0.6352740E-002  0.2424032E+03  0.7818608E-02  0.1118202E+00
         -1   -1    0    0    0  501 -0.00000000000E+00  0.00000000000E+00  0.19629135310E+03  0.19629135310E+03  0.00000000000E+00 0.  1.
          1   -1    0    0  502    0  0.00000000000E+00 -0.00000000000E+00 -0.31319340415E+03  0.31319340415E+03  0.00000000000E+00 0. -1.
          6    1    1    2  502    0 -0.30455193571E+02  0.16807086754E+03 -0.11201278028E+03  0.26703220457E+03  0.17200000000E+03 0. -1.
         -6    1    1    2    0  501  0.30455193571E+02 -0.16807086754E+03 -0.48892707717E+01  0.24245255268E+03  0.17200000000E+03 0.  1.
</event>
<event>
 4    1  0.6352740E-002  0.2789986E+03  0.7818608E-02  0.1096237E+00
         -2   -1    0    0    0  501 -0.00000000000E+00  0.00000000000E+00  0.21321525217E+03  0.21321525217E+03  0.00000000000E+00 0.  1.
          2   -1    0    0  502    0  0.00000000000E+00 -0.00000000000E+00 -0.36626097581E+03  0.36626097581E+03  0.00000000000E+00 0. -1.
          6    1    1    2  502    0 -0.14591931649E+03 -0.16420643651E+03 -0.60056572059E+02  0.28538919490E+03  0.17200000000E+03 0.  1.
         -6    1    1    2    0  501  0.14591931649E+03  0.16420643651E+03 -0.92989151584E+02  0.29408703309E+03  0.17200000000E+03 0.  1.
</event>
<event>
 4    1  0.6352740E-002  0.2440161E+03  0.7818608E-02  0.1117146E+00
         -1   -1    0    0    0  501 -0.00000000000E+00  0.00000000000E+00  0.18301978487E+03  0.18301978487E+03  0.00000000000E+00 0.  1.
          1   -1    0    0  502    0  0.00000000000E+00 -0.00000000000E+00 -0.15993948936E+04  0.15993948936E+04  0.00000000000E+00 0. -1.
          6    1    1    2  502    0 -0.65902570514E+02  0.16005213068E+03 -0.15036044424E+04  0.15232761248E+04  0.17200000000E+03 0. -1.
         -6    1    1    2    0  501  0.65902570514E+02 -0.16005213068E+03  0.87229333650E+02  0.25913855364E+03  0.17200000000E+03 0.  1.
</event>
<event>
 4    1  0.6352740E-002  0.2663628E+03  0.7818608E-02  0.1103380E+00
         -2   -1    0    0    0  501 -0.00000000000E+00  0.00000000000E+00  0.57755391164E+02  0.57755391164E+02  0.00000000000E+00 0.  1.
          2   -1    0    0  502    0  0.00000000000E+00 -0.00000000000E+00 -0.12284666205E+04  0.12284666205E+04  0.00000000000E+00 0. -1.
          6    1    1    2  502    0  0.16642426516E+03 -0.11691062078E+03 -0.58245742464E+03  0.64047309140E+03  0.17200000000E+03 0. -1.
         -6    1    1    2    0  501 -0.16642426516E+03  0.11691062078E+03 -0.58825380469E+03  0.64574892026E+03  0.17200000000E+03 0.  1.
</event>
<event>
 4    1  0.6352740E-002  0.1934499E+03  0.7818608E-02  0.1155386E+00
         -1   -1    0    0    0  501 -0.00000000000E+00  0.00000000000E+00  0.32560324227E+02  0.32560324227E+02  0.00000000000E+00 0.  1.
          1   -1    0    0  502    0  0.00000000000E+00 -0.00000000000E+00 -0.11878424422E+04  0.11878424422E+04  0.00000000000E+00 0. -1.
          6    1    1    2  502    0  0.82950869732E+02 -0.30951730178E+02 -0.68750180015E+03  0.71419995912E+03  0.17200000000E+03 0. -1.
         -6    1    1    2    0  501 -0.82950869732E+02  0.30951730178E+02 -0.46778031784E+03  0.50620280733E+03  0.17200000000E+03 0.  1.
</event>
<event>
 4    1  0.6352740E-002  0.4745625E+03  0.7818608E-02  0.1020640E+00
         -2   -1    0    0    0  501 -0.00000000000E+00  0.00000000000E+00  0.92803180460E+03  0.92803180460E+03  0.00000000000E+00 0.  1.
          2   -1    0    0  502    0  0.00000000000E+00 -0.00000000000E+00 -0.33702290994E+03  0.33702290994E+03  0.00000000000E+00 0. -1.
          6    1    1    2  502    0 -0.44172217409E+03 -0.22518990090E+02 -0.39165772107E+02  0.47617595666E+03  0.17200000000E+03 0. -1.
         -6    1    1    2    0  501  0.44172217409E+03  0.22518990090E+02  0.63017466677E+03  0.78887875788E+03  0.17200000000E+03 0.  1.
</event>
<event>
 4    1  0.6352740E-002  0.1768395E+03  0.7818608E-02  0.1170897E+00
          2   -1    0    0  502    0  0.00000000000E+00  0.00000000000E+00  0.21917406576E+03  0.21917406576E+03  0.00000000000E+00 0. -1.
         -2   -1    0    0    0  501 -0.00000000000E+00 -0.00000000000E+00 -0.44928923106E+03  0.44928923106E+03  0.00000000000E+00 0.  1.
          6    1    1    2  502    0 -0.10423902342E+02  0.39743371564E+02  0.16104836704E+03  0.23918354845E+03  0.17200000000E+03 0. -1.
         -6    1    1    2    0  501  0.10423902342E+02 -0.39743371564E+02 -0.39116353235E+03  0.42927974837E+03  0.17200000000E+03 0.  1.
</event>
<event>
 4    1  0.6352740E-002  0.1898304E+03  0.7818608E-02  0.1158614E+00
          2   -1    0    0  502    0  0.00000000000E+00  0.00000000000E+00  0.33892078721E+03  0.33892078721E+03  0.00000000000E+00 0. -1.
         -2   -1    0    0    0  501 -0.00000000000E+00 -0.00000000000E+00 -0.11925146918E+03  0.11925146918E+03  0.00000000000E+00 0.  1.
          6    1    1    2  502    0  0.63683438786E+02 -0.48948885367E+02  0.18525973387E+03  0.26524845475E+03  0.17200000000E+03 0. -1.
         -6    1    1    2    0  501 -0.63683438786E+02  0.48948885367E+02  0.34409584162E+02  0.19292380163E+03  0.17200000000E+03 0.  1.
</event>
<event>
 4    1  0.6352740E-002  0.1966223E+03  0.7818608E-02  0.1152620E+00
         -2   -1    0    0    0  501 -0.00000000000E+00  0.00000000000E+00  0.12506662293E+03  0.12506662293E+03  0.00000000000E+00 0.  1.
          2   -1    0    0  502    0  0.00000000000E+00 -0.00000000000E+00 -0.30918763634E+03  0.30918763634E+03  0.00000000000E+00 0. -1.
          6    1    1    2  502    0 -0.51090558355E+02 -0.80411902625E+02 -0.88797287962E+02  0.21574354587E+03  0.17200000000E+03 0. -1.
         -6    1    1    2    0  501  0.51090558355E+02  0.80411902625E+02 -0.95323725443E+02  0.21851071340E+03  0.17200000000E+03 0.  1.
</event>
<event>
 4    1  0.6352740E-002  0.1868811E+03  0.7818608E-02  0.1161305E+00
         -1   -1    0    0    0  501 -0.00000000000E+00  0.00000000000E+00  0.34778024922E+02  0.34778024922E+02  0.00000000000E+00 0.  1.
          1   -1    0    0  502    0  0.00000000000E+00 -0.00000000000E+00 -0.10364719580E+04  0.10364719580E+04  0.00000000000E+00 0. -1.
          6    1    1    2  502    0 -0.52512611404E+02 -0.50823026031E+02 -0.40635272025E+03  0.44726623793E+03  0.17200000000E+03 0. -1.
         -6    1    1    2    0  501  0.52512611404E+02  0.50823026031E+02 -0.59534121284E+03  0.62398374501E+03  0.17200000000E+03 0.  1.
</event>
<event>
 4    1  0.6352740E-002  0.3575056E+03  0.7818608E-02  0.1059576E+00
         -2   -1    0    0    0  501 -0.00000000000E+00  0.00000000000E+00  0.49476300836E+02  0.49476300836E+02  0.00000000000E+00 0.  1.
          2   -1    0    0  502    0  0.00000000000E+00 -0.00000000000E+00 -0.33754318845E+04  0.33754318845E+04  0.00000000000E+00 0. -1.
          6    1    1    2  502    0  0.30595342732E+03  0.67961556625E+02 -0.24925673727E+04  0.25180751340E+04  0.17200000000E+03 0. -1.
         -6    1    1    2    0  501 -0.30595342732E+03 -0.67961556625E+02 -0.83338821092E+03  0.90683305132E+03  0.17200000000E+03 0.  1.
</event>
<event>
 4    1  0.6352740E-002  0.3052952E+03  0.7818608E-02  0.1082623E+00
         -2   -1    0    0    0  501 -0.00000000000E+00  0.00000000000E+00  0.84047221752E+03  0.84047221752E+03  0.00000000000E+00 0.  1.
          2   -1    0    0  502    0  0.00000000000E+00 -0.00000000000E+00 -0.11146906628E+03  0.11146906628E+03  0.00000000000E+00 0. -1.
          6    1    1    2  502    0  0.14041120313E+03  0.20953724144E+03  0.33037947535E+03  0.44983970395E+03  0.17200000000E+03 0. -1.
         -6    1    1    2    0  501 -0.14041120313E+03 -0.20953724144E+03  0.39862367589E+03  0.50210157986E+03  0.17200000000E+03 0.  1.
</event>
<event>
 4    1  0.6352740E-002  0.2248395E+03  0.7818608E-02  0.1130326E+00
         -1   -1    0    0    0  501 -0.00000000000E+00  0.00000000000E+00  0.66048737395E+02  0.66048737395E+02  0.00000000000E+00 0.  1.
          1   -1    0    0  502    0  0.00000000000E+00 -0.00000000000E+00 -0.94558388742E+03  0.94558388742E+03  0.00000000000E+00 0. -1.
          6    1    1    2  502    0  0.12172709660E+03  0.78430196116E+02 -0.66057699456E+03  0.69779276827E+03  0.17200000000E+03 0. -1.
         -6    1    1    2    0  501 -0.12172709660E+03 -0.78430196116E+02 -0.21895815547E+03  0.31383985655E+03  0.17200000000E+03 0.  1.
</event>
<event>
 4    1  0.6352740E-002  0.1950198E+03  0.7818608E-02  0.1154010E+00
         -2   -1    0    0    0  501 -0.00000000000E+00  0.00000000000E+00  0.48466977539E+02  0.48466977539E+02  0.00000000000E+00 0.  1.
          2   -1    0    0  502    0  0.00000000000E+00 -0.00000000000E+00 -0.10605246234E+04  0.10605246234E+04  0.00000000000E+00 0. -1.
          6    1    1    2  502    0 -0.86795524062E+02  0.30253135400E+02 -0.78880537065E+03  0.81255561531E+03  0.17200000000E+03 0. -1.
         -6    1    1    2    0  501  0.86795524062E+02 -0.30253135400E+02 -0.22325227526E+03  0.29643598568E+03  0.17200000000E+03 0.  1.
</event>
<event>
 4    1  0.6352740E-002  0.1908662E+03  0.7818608E-02  0.1157682E+00
          1   -1    0    0  502    0  0.00000000000E+00  0.00000000000E+00  0.18497819838E+03  0.18497819838E+03  0.00000000000E+00 0. -1.
         -1   -1    0    0    0  501 -0.00000000000E+00 -0.00000000000E+00 -0.28393098920E+03  0.28393098920E+03  0.00000000000E+00 0.  1.
          6    1    1    2  502    0  0.33525168845E+02 -0.75643708026E+02  0.80296925953E+02  0.20706883838E+03  0.17200000000E+03 0. -1.
         -6    1    1    2    0  501 -0.33525168845E+02  0.75643708026E+02 -0.17924971677E+03  0.26184034921E+03  0.17200000000E+03 0.  1.
</event>
<event>
 4    1  0.6352740E-002  0.6653121E+03  0.7818608E-02  0.9778464E-01
          2   -1    0    0  502    0  0.00000000000E+00  0.00000000000E+00  0.41722257211E+04  0.41722257211E+04  0.00000000000E+00 0. -1.
         -2   -1    0    0    0  501 -0.00000000000E+00 -0.00000000000E+00 -0.23843884106E+03  0.23843884106E+03  0.00000000000E+00 0.  1.
          6    1    1    2  502    0 -0.39244833942E+03  0.50896016737E+03  0.36099108824E+04  0.36707079330E+04  0.17200000000E+03 0. -1.
         -6    1    1    2    0  501  0.39244833942E+03 -0.50896016737E+03  0.32387599764E+03  0.73995662909E+03  0.17200000000E+03 0.  1.
</event>
<event>
 4    1  0.6352740E-002  0.2258200E+03  0.7818608E-02  0.1129617E+00
         -2   -1    0    0    0  501 -0.00000000000E+00  0.00000000000E+00  0.50698097682E+02  0.50698097682E+02  0.00000000000E+00 0.  1.
          2   -1    0    0  502    0  0.00000000000E+00 -0.00000000000E+00 -0.14339498014E+04  0.14339498014E+04  0.00000000000E+00 0. -1.
          6    1    1    2  502    0  0.10627341351E+03  0.10058150144E+03 -0.10972268906E+04  0.11202238733E+04  0.17200000000E+03 0. -1.
         -6    1    1    2    0  501 -0.10627341351E+03 -0.10058150144E+03 -0.28602481313E+03  0.36442402580E+03  0.17200000000E+03 0.  1.
</event>
<event>
 4    1  0.6352740E-002  0.2533475E+03  0.7818608E-02  0.1111207E+00
         -1   -1    0    0    0  501 -0.00000000000E+00  0.00000000000E+00  0.48852975828E+02  0.48852975828E+02  0.00000000000E+00 0.  1.
          1   -1    0    0  502    0  0.00000000000E+00 -0.00000000000E+00 -0.24520663695E+04  0.24520663695E+04  0.00000000000E+00 0. -1.
          6    1    1    2  502    0  0.40259594365E+01 -0.18596977061E+03 -0.20535643680E+04  0.20691330497E+04  0.17200000000E+03 0. -1.
         -6    1    1    2    0  501 -0.40259594365E+01  0.18596977061E+03 -0.34964902574E+03  0.43178629567E+03  0.17200000000E+03 0. -1.
</event>
<event>
 4    1  0.6352740E-002  0.1733251E+03  0.7818608E-02  0.1174424E+00
         -2   -1    0    0    0  501 -0.00000000000E+00  0.00000000000E+00  0.14238353976E+02  0.14238353976E+02  0.00000000000E+00 0.  1.
          2   -1    0    0  502    0  0.00000000000E+00 -0.00000000000E+00 -0.23950301508E+04  0.23950301508E+04  0.00000000000E+00 0. -1.
          6    1    1    2  502    0 -0.21388191262E+02  0.34449384263E+00 -0.77475571834E+03  0.79390679333E+03  0.17200000000E+03 0.  1.
         -6    1    1    2    0  501  0.21388191262E+02 -0.34449384263E+00 -0.16060360785E+04  0.16153617115E+04  0.17200000000E+03 0. -1.
</event>
<event>
 4    1  0.6352740E-002  0.3819438E+03  0.7818608E-02  0.1050218E+00
          1   -1    0    0  502    0  0.00000000000E+00  0.00000000000E+00  0.10645903799E+04  0.10645903799E+04  0.00000000000E+00 0. -1.
         -1   -1    0    0    0  501 -0.00000000000E+00 -0.00000000000E+00 -0.18724063096E+03  0.18724063096E+03  0.00000000000E+00 0.  1.
          6    1    1    2  502    0 -0.12520566099E+03  0.31720748268E+03  0.76279991805E+03  0.85307957401E+03  0.17200000000E+03 0. -1.
         -6    1    1    2    0  501  0.12520566099E+03 -0.31720748268E+03  0.11454983086E+03  0.39875143682E+03  0.17200000000E+03 0.  1.
</event>
<event>
 4    1  0.6352740E-002  0.1955969E+03  0.7818608E-02  0.1153508E+00
         -2   -1    0    0    0  501 -0.00000000000E+00  0.00000000000E+00  0.32299180683E+03  0.32299180683E+03  0.00000000000E+00 0.  1.
          2   -1    0    0  502    0  0.00000000000E+00 -0.00000000000E+00 -0.12004688669E+03  0.12004688669E+03  0.00000000000E+00 0. -1.
          6    1    1    2  502    0  0.36021613777E+02  0.85886988653E+02  0.75917355449E+02  0.20981319391E+03  0.17200000000E+03 0. -1.
         -6    1    1    2    0  501 -0.36021613777E+02 -0.85886988653E+02  0.12702756470E+03  0.23322549962E+03  0.17200000000E+03 0.  1.
</event>
<event>
 4    1  0.6352740E-002  0.7287598E+03  0.7818608E-02  0.9669275E-01
         -1   -1    0    0    0  501 -0.00000000000E+00  0.00000000000E+00  0.17051619868E+03  0.17051619868E+03  0.00000000000E+00 0.  1.
          1   -1    0    0  502    0  0.00000000000E+00 -0.00000000000E+00 -0.36558128049E+04  0.36558128049E+04  0.00000000000E+00 0. -1.
          6    1    1    2  502    0  0.55827111319E+03 -0.43570662647E+03 -0.24787565277E+04  0.25836649984E+04  0.17200000000E+03 0. -1.
         -6    1    1    2    0  501 -0.55827111319E+03  0.43570662647E+03 -0.10065400785E+04  0.12426640052E+04  0.17200000000E+03 0.  1.
</event>
<event>
 4    1  0.6352740E-002  0.2282254E+03  0.7818608E-02  0.1127895E+00
         -2   -1    0    0    0  501 -0.00000000000E+00  0.00000000000E+00  0.21311084071E+03  0.21311084071E+03  0.00000000000E+00 0.  1.
          2   -1    0    0  502    0  0.00000000000E+00 -0.00000000000E+00 -0.24740820406E+03  0.24740820406E+03  0.00000000000E+00 0. -1.
          6    1    1    2  502    0  0.59641218677E+02 -0.13764362989E+03  0.81907727355E+01  0.22837235510E+03  0.17200000000E+03 0. -1.
         -6    1    1    2    0  501 -0.59641218677E+02  0.13764362989E+03 -0.42488136083E+02  0.23214668967E+03  0.17200000000E+03 0.  1.
</event>
<event>
 4    1  0.6352740E-002  0.2836466E+03  0.7818608E-02  0.1093714E+00
          2   -1    0    0  502    0  0.00000000000E+00  0.00000000000E+00  0.71994021038E+02  0.71994021038E+02  0.00000000000E+00 0. -1.
         -2   -1    0    0    0  501 -0.00000000000E+00 -0.00000000000E+00 -0.17495907556E+04  0.17495907556E+04  0.00000000000E+00 0.  1.
          6    1    1    2  502    0  0.77825983431E+02 -0.21169444411E+03 -0.29136553628E+03  0.40663164793E+03  0.17200000000E+03 0. -1.
         -6    1    1    2    0  501 -0.77825983431E+02  0.21169444411E+03 -0.13862311983E+04  0.14149531287E+04  0.17200000000E+03 0.  1.
</event>
<event>
 4    1  0.6352740E-002  0.2595150E+03  0.7818608E-02  0.1107435E+00
         -1   -1    0    0    0  501 -0.00000000000E+00  0.00000000000E+00  0.46037412419E+03  0.46037412419E+03  0.00000000000E+00 0.  1.
          1   -1    0    0  502    0  0.00000000000E+00 -0.00000000000E+00 -0.85693094840E+03  0.85693094840E+03  0.00000000000E+00 0. -1.
          6    1    1    2  502    0 -0.18693621685E+03  0.53093302107E+02 -0.79808139863E+03  0.83921508967E+03  0.17200000000E+03 0. -1.
         -6    1    1    2    0  501  0.18693621685E+03 -0.53093302107E+02  0.40152457442E+03  0.47808998291E+03  0.17200000000E+03 0.  1.
</event>
<event>
 4    1  0.6352740E-002  0.2870346E+03  0.7818608E-02  0.1091908E+00
          2   -1    0    0  502    0  0.00000000000E+00  0.00000000000E+00  0.14047101418E+04  0.14047101418E+04  0.00000000000E+00 0. -1.
         -2   -1    0    0    0  501 -0.00000000000E+00 -0.00000000000E+00 -0.58997968576E+02  0.58997968576E+02  0.00000000000E+00 0.  1.
          6    1    1    2  502    0 -0.77706312400E+02  0.21625582099E+03  0.72891146164E+03  0.78339056033E+03  0.17200000000E+03 0.  1.
         -6    1    1    2    0  501  0.77706312400E+02 -0.21625582099E+03  0.61680071158E+03  0.68031755005E+03  0.17200000000E+03 0.  1.
</event>
<event>
 4    1  0.6352740E-002  0.2106410E+03  0.7818608E-02  0.1141059E+00
         -1   -1    0    0    0  501 -0.00000000000E+00  0.00000000000E+00  0.41376740696E+02  0.41376740696E+02  0.00000000000E+00 0.  1.
          1   -1    0    0  502    0  0.00000000000E+00 -0.00000000000E+00 -0.10801981059E+04  0.10801981059E+04  0.00000000000E+00 0. -1.
          6    1    1    2  502    0 -0.22250622591E+02  0.11954298528E+03 -0.56726467312E+03  0.60511058899E+03  0.17200000000E+03 0.  1.
         -6    1    1    2    0  501  0.22250622591E+02 -0.11954298528E+03 -0.47155669205E+03  0.51646425758E+03  0.17200000000E+03 0.  1.
</event>
<event>
 4    1  0.6352740E-002  0.1869747E+03  0.7818608E-02  0.1161219E+00
          2   -1    0    0  502    0  0.00000000000E+00  0.00000000000E+00  0.25808829209E+03  0.25808829209E+03  0.00000000000E+00 0. -1.
         -2   -1    0    0    0  501 -0.00000000000E+00 -0.00000000000E+00 -0.18388145004E+03  0.18388145004E+03  0.00000000000E+00 0.  1.
          6    1    1    2  502    0  0.43111261072E+00  0.73316895154E+02 -0.76301360401E+02  0.20194417687E+03  0.17200000000E+03 0.  1.
         -6    1    1    2    0  501 -0.43111261072E+00 -0.73316895154E+02  0.15050820246E+03  0.24002556526E+03  0.17200000000E+03 0. -1.
</event>
<event>
 4    1  0.6352740E-002  0.5176477E+03  0.7818608E-02  0.1009273E+00
          2   -1    0    0  502    0  0.00000000000E+00  0.00000000000E+00  0.87360377127E+03  0.87360377127E+03  0.00000000000E+00 0. -1.
         -2   -1    0    0    0  501 -0.00000000000E+00 -0.00000000000E+00 -0.31081367963E+03  0.31081367963E+03  0.00000000000E+00 0.  1.
          6    1    1    2  502    0  0.10803137943E+02  0.48811720541E+03  0.34928945139E+03  0.62446956279E+03  0.17200000000E+03 0. -1.
         -6    1    1    2    0  501 -0.10803137943E+02 -0.48811720541E+03  0.21350064025E+03  0.55994788810E+03  0.17200000000E+03 0.  1.
</event>
<event>
 4    1  0.6352740E-002  0.1775509E+03  0.7818608E-02  0.1170195E+00
         -2   -1    0    0    0  501 -0.00000000000E+00  0.00000000000E+00  0.71239678297E+02  0.71239678297E+02  0.00000000000E+00 0.  1.
          2   -1    0    0  502    0  0.00000000000E+00 -0.00000000000E+00 -0.65642515728E+03  0.65642515728E+03  0.00000000000E+00 0. -1.
          6    1    1    2  502    0 -0.19063249516E+02  0.39710572608E+02 -0.50028896697E+03  0.53086098701E+03  0.17200000000E+03 0. -1.
         -6    1    1    2    0  501  0.19063249516E+02 -0.39710572608E+02 -0.84896512015E+02  0.19680384857E+03  0.17200000000E+03 0.  1.
</event>
<event>
 4    1  0.6352740E-002  0.3908060E+03  0.7818608E-02  0.1047011E+00
         -1   -1    0    0    0  501 -0.00000000000E+00  0.00000000000E+00  0.15617406932E+04  0.15617406932E+04  0.00000000000E+00 0.  1.
          1   -1    0    0  502    0  0.00000000000E+00 -0.00000000000E+00 -0.13628007740E+03  0.13628007740E+03  0.00000000000E+00 0. -1.
          6    1    1    2  502    0  0.11177189082E+03  0.33264450730E+03  0.26155325875E+03  0.47025464483E+03  0.17200000000E+03 0. -1.
         -6    1    1    2    0  501 -0.11177189082E+03 -0.33264450730E+03  0.11639073570E+04  0.12277661258E+04  0.17200000000E+03 0.  1.
</event>
<event>
 4    1  0.6352740E-002  0.4225855E+03  0.7818608E-02  0.1036228E+00
          2   -1    0    0  502    0  0.00000000000E+00  0.00000000000E+00  0.10337192684E+04  0.10337192684E+04  0.00000000000E+00 0. -1.
         -2   -1    0    0    0  501 -0.00000000000E+00 -0.00000000000E+00 -0.23849846548E+03  0.23849846548E+03  0.00000000000E+00 0.  1.
          6    1    1    2  502    0 -0.20082053428E+03  0.32964470433E+03  0.73159022932E+03  0.84486849966E+03  0.17200000000E+03 0. -1.
         -6    1    1    2    0  501  0.20082053428E+03 -0.32964470433E+03  0.63630573585E+02  0.42734923421E+03  0.17200000000E+03 0.  1.
</event>
<event>
 4    1  0.6352740E-002  0.2885072E+03  0.7818608E-02  0.1091131E+00
          1   -1    0    0  502    0  0.00000000000E+00  0.00000000000E+00  0.11322551946E+04  0.11322551946E+04  0.00000000000E+00 0. -1.
         -1   -1    0    0    0  501 -0.00000000000E+00 -0.00000000000E+00 -0.10517805228E+03  0.10517805228E+03  0.00000000000E+00 0.  1.
          6    1    1    2  502    0 -0.50537294078E+02 -0.22604954848E+03  0.85301813218E+03  0.90048672965E+03  0.17200000000E+03 0. -1.
         -6    1    1    2    0  501  0.50537294078E+02  0.22604954848E+03  0.17405901015E+03  0.33694651723E+03  0.17200000000E+03 0.  1.
</event>
<event>
 4    1  0.6352740E-002  0.2641002E+03  0.7818608E-02  0.1104704E+00
         -1   -1    0    0    0  501 -0.00000000000E+00  0.00000000000E+00  0.12176940775E+03  0.12176940775E+03  0.00000000000E+00 0.  1.
          1   -1    0    0  502    0  0.00000000000E+00 -0.00000000000E+00 -0.71592262085E+03  0.71592262085E+03  0.00000000000E+00 0. -1.
          6    1    1    2  502    0  0.18614508417E+03  0.74262473034E+02 -0.48435301797E+03  0.55167631205E+03  0.17200000000E+03 0.  1.
         -6    1    1    2    0  501 -0.18614508417E+03 -0.74262473034E+02 -0.10980019512E+03  0.28601571655E+03  0.17200000000E+03 0.  1.
</event>
<event>
 4    1  0.6352740E-002  0.2105696E+03  0.7818608E-02  0.1141116E+00
          2   -1    0    0  502    0  0.00000000000E+00  0.00000000000E+00  0.87908253066E+02  0.87908253066E+02  0.00000000000E+00 0. -1.
         -2   -1    0    0    0  501 -0.00000000000E+00 -0.00000000000E+00 -0.72002007500E+03  0.72002007500E+03  0.00000000000E+00 0.  1.
          6    1    1    2  502    0 -0.11327389803E+02  0.12094321688E+03 -0.94985501880E+02  0.23100176847E+03  0.17200000000E+03 0. -1.
         -6    1    1    2    0  501  0.11327389803E+02 -0.12094321688E+03 -0.53712632006E+03  0.57692655960E+03  0.17200000000E+03 0.  1.
</event>
<event>
 4    1  0.6352740E-002  0.1835765E+03  0.7818608E-02  0.1164386E+00
          2   -1    0    0  502    0  0.00000000000E+00  0.00000000000E+00  0.57177639106E+03  0.57177639106E+03  0.00000000000E+00 0. -1.
         -2   -1    0    0    0  501 -0.00000000000E+00 -0.00000000000E+00 -0.73115491072E+02  0.73115491072E+02  0.00000000000E+00 0.  1.
          6    1    1    2  502    0 -0.60274880121E+02 -0.21983385104E+02  0.10735088959E+03  0.21266063079E+03  0.17200000000E+03 0.  1.
         -6    1    1    2    0  501  0.60274880121E+02  0.21983385104E+02  0.39131001040E+03  0.43223125134E+03  0.17200000000E+03 0. -1.
</event>
<event>
 4    1  0.6352740E-002  0.1817892E+03  0.7818608E-02  0.1166083E+00
          1   -1    0    0  502    0  0.00000000000E+00  0.00000000000E+00  0.30172549032E+02  0.30172549032E+02  0.00000000000E+00 0. -1.
         -1   -1    0    0    0  501 -0.00000000000E+00 -0.00000000000E+00 -0.11609160991E+04  0.11609160991E+04  0.00000000000E+00 0.  1.
          6    1    1    2  502    0  0.47228007000E+02 -0.35111883854E+02 -0.42376250489E+03  0.46110952016E+03  0.17200000000E+03 0. -1.
         -6    1    1    2    0  501 -0.47228007000E+02  0.35111883854E+02 -0.70698104520E+03  0.72997912799E+03  0.17200000000E+03 0.  1.
</event>
<event>
 4    1  0.6352740E-002  0.3044436E+03  0.7818608E-02  0.1083040E+00
         -1   -1    0    0    0  501 -0.00000000000E+00  0.00000000000E+00  0.11957657425E+04  0.11957657425E+04  0.00000000000E+00 0.  1.
          1   -1    0    0  502    0  0.00000000000E+00 -0.00000000000E+00 -0.90719502209E+02  0.90719502209E+02  0.00000000000E+00 0. -1.
          6    1    1    2  502    0  0.16661160293E+03 -0.18799601155E+03  0.30708698107E+03  0.43242148482E+03  0.17200000000E+03 0. -1.
         -6    1    1    2    0  501 -0.16661160293E+03  0.18799601155E+03  0.79795925925E+03  0.85406375992E+03  0.17200000000E+03 0.  1.
</event>
<event>
 4    1  0.6352740E-002  0.1982673E+03  0.7818608E-02  0.1151209E+00
         -1   -1    0    0    0  501 -0.00000000000E+00  0.00000000000E+00  0.99053681718E+02  0.99053681718E+02  0.00000000000E+00 0.  1.
          1   -1    0    0  502    0  0.00000000000E+00 -0.00000000000E+00 -0.46983217754E+03  0.46983217754E+03  0.00000000000E+00 0. -1.
          6    1    1    2  502    0  0.31467942451E+02  0.93464915181E+02 -0.29749247364E+03  0.35750761341E+03  0.17200000000E+03 0. -1.
         -6    1    1    2    0  501 -0.31467942451E+02 -0.93464915181E+02 -0.73286022185E+02  0.21137824585E+03  0.17200000000E+03 0.  1.
</event>
<event>
 4    1  0.6352740E-002  0.2010280E+03  0.7818608E-02  0.1148875E+00
          2   -1    0    0  502    0  0.00000000000E+00  0.00000000000E+00  0.17444438025E+04  0.17444438025E+04  0.00000000000E+00 0. -1.
         -2   -1    0    0    0  501 -0.00000000000E+00 -0.00000000000E+00 -0.27433289814E+02  0.27433289814E+02  0.00000000000E+00 0.  1.
          6    1    1    2  502    0 -0.33691626090E+01 -0.10400427402E+03  0.50910160080E+03  0.54735425476E+03  0.17200000000E+03 0.  1.
         -6    1    1    2    0  501  0.33691626090E+01  0.10400427402E+03  0.12079089119E+04  0.12245228376E+04  0.17200000000E+03 0.  1.
</event>
<event>
 4    1  0.6352740E-002  0.1755404E+03  0.7818608E-02  0.1172190E+00
         -2   -1    0    0    0  501 -0.00000000000E+00  0.00000000000E+00  0.19539976155E+02  0.19539976155E+02  0.00000000000E+00 0.  1.
          2   -1    0    0  502    0  0.00000000000E+00 -0.00000000000E+00 -0.16891708751E+04  0.16891708751E+04  0.00000000000E+00 0. -1.
          6    1    1    2  502    0  0.27879679869E+02 -0.21287703221E+02 -0.10549821858E+04  0.10694867251E+04  0.17200000000E+03 0. -1.
         -6    1    1    2    0  501 -0.27879679869E+02  0.21287703221E+02 -0.61464871315E+03  0.63922412613E+03  0.17200000000E+03 0.  1.
</event>
<event>
 4    1  0.6352740E-002  0.3940322E+03  0.7818608E-02  0.1045866E+00
         -2   -1    0    0    0  501 -0.00000000000E+00  0.00000000000E+00  0.54525963075E+02  0.54525963075E+02  0.00000000000E+00 0.  1.
          2   -1    0    0  502    0  0.00000000000E+00 -0.00000000000E+00 -0.29866540887E+04  0.29866540887E+04  0.00000000000E+00 0. -1.
          6    1    1    2  502    0 -0.33404735157E+03 -0.11870018104E+03 -0.17943144570E+04  0.18370698780E+04  0.17200000000E+03 0. -1.
         -6    1    1    2    0  501  0.33404735157E+03  0.11870018104E+03 -0.11378136686E+04  0.12041101738E+04  0.17200000000E+03 0.  1.
</event>
<event>
 4    1  0.6352740E-002  0.1877430E+03  0.7818608E-02  0.1160513E+00
         -2   -1    0    0    0  501 -0.00000000000E+00  0.00000000000E+00  0.12403912587E+03  0.12403912587E+03  0.00000000000E+00 0.  1.
          2   -1    0    0  502    0  0.00000000000E+00 -0.00000000000E+00 -0.48951323275E+03  0.48951323275E+03  0.00000000000E+00 0. -1.
          6    1    1    2  502    0 -0.70890323839E+02 -0.25258785798E+02 -0.38143164357E+03  0.42513238290E+03  0.17200000000E+03 0. -1.
         -6    1    1    2    0  501  0.70890323839E+02  0.25258785798E+02  0.15957536696E+02  0.18841997572E+03  0.17200000000E+03 0.  1.
</event>
<event>
 4    1  0.6352740E-002  0.3355644E+03  0.7818608E-02  0.1068701E+00
          1   -1    0    0  502    0  0.00000000000E+00  0.00000000000E+00  0.57551133042E+03  0.57551133042E+03  0.00000000000E+00 0. -1.
         -1   -1    0    0    0  501 -0.00000000000E+00 -0.00000000000E+00 -0.31012115528E+03  0.31012115528E+03  0.00000000000E+00 0.  1.
          6    1    1    2  502    0  0.13152333076E+03 -0.25636126415E+03  0.40171870707E+03  0.52343232982E+03  0.17200000000E+03 0. -1.
         -6    1    1    2    0  501 -0.13152333076E+03  0.25636126415E+03 -0.13632853193E+03  0.36220015587E+03  0.17200000000E+03 0.  1.
</event>
<event>
 4    1  0.6352740E-002  0.1760063E+03  0.7818608E-02  0.1171725E+00
         -1   -1    0    0    0  501 -0.00000000000E+00  0.00000000000E+00  0.13095017102E+04  0.13095017102E+04  0.00000000000E+00 0.  1.
          1   -1    0    0  502    0  0.00000000000E+00 -0.00000000000E+00 -0.24294880003E+02  0.24294880003E+02  0.00000000000E+00 0. -1.
          6    1    1    2  502    0 -0.32931136289E+02  0.17599684019E+02  0.53449818768E+03  0.56273130466E+03  0.17200000000E+03 0. -1.
         -6    1    1    2    0  501  0.32931136289E+02 -0.17599684019E+02  0.75070864256E+03  0.77106528558E+03  0.17200000000E+03 0.  1.
</event>
<event>
 4    1  0.6352740E-002  0.2126429E+03  0.7818608E-02  0.1139490E+00
          2   -1    0    0  502    0  0.00000000000E+00  0.00000000000E+00  0.17534621816E+04  0.17534621816E+04  0.00000000000E+00 0. -1.
         -2   -1    0    0    0  501 -0.00000000000E+00 -0.00000000000E+00 -0.27140419355E+02  0.27140419355E+02  0.00000000000E+00 0.  1.
          6    1    1    2  502    0 -0.16849027693E+01 -0.12502065450E+03  0.10619541049E+04  0.10830344057E+04  0.17200000000E+03 0. -1.
         -6    1    1    2    0  501  0.16849027693E+01  0.12502065450E+03  0.66436765738E+03  0.69756819532E+03  0.17200000000E+03 0. -1.
</event>
<event>
 4    1  0.6352740E-002  0.3364393E+03  0.7818608E-02  0.1068323E+00
          2   -1    0    0  502    0  0.00000000000E+00  0.00000000000E+00  0.55774472093E+03  0.55774472093E+03  0.00000000000E+00 0. -1.
         -2   -1    0    0    0  501 -0.00000000000E+00 -0.00000000000E+00 -0.32913574234E+03  0.32913574234E+03  0.00000000000E+00 0.  1.
          6    1    1    2  502    0 -0.28272700471E+03  0.60603785566E+02 -0.16027095835E+03  0.37266359912E+03  0.17200000000E+03 0.  1.
         -6    1    1    2    0  501  0.28272700471E+03 -0.60603785566E+02  0.38887993695E+03  0.51421686415E+03  0.17200000000E+03 0. -1.
</event>
<event>
 4    1  0.6352740E-002  0.4729716E+03  0.7818608E-02  0.1021085E+00
         -2   -1    0    0    0  501 -0.00000000000E+00  0.00000000000E+00  0.49263885141E+03  0.49263885141E+03  0.00000000000E+00 0.  1.
          2   -1    0    0  502    0  0.00000000000E+00 -0.00000000000E+00 -0.13483240485E+04  0.13483240485E+04  0.00000000000E+00 0. -1.
          6    1    1    2  502    0  0.42720090419E+03 -0.10778478283E+03 -0.11774668049E+04  0.12689090781E+04  0.17200000000E+03 0. -1.
         -6    1    1    2    0  501 -0.42720090419E+03  0.10778478283E+03  0.32178160776E+03  0.57205382181E+03  0.17200000000E+03 0.  1.
</event>
<event>
 4    1  0.6352740E-002  0.2654539E+03  0.7818608E-02  0.1103910E+00
         -2   -1    0    0    0  501 -0.00000000000E+00  0.00000000000E+00  0.17204791890E+03  0.17204791890E+03  0.00000000000E+00 0.  1.
          2   -1    0    0  502    0  0.00000000000E+00 -0.00000000000E+00 -0.42010690036E+03  0.42010690036E+03  0.00000000000E+00 0. -1.
          6    1    1    2  502    0 -0.10212649780E+03  0.17450485914E+03 -0.17091835037E+03  0.31571957480E+03  0.17200000000E+03 0. -1.
         -6    1    1    2    0  501  0.10212649780E+03 -0.17450485914E+03 -0.77140631086E+02  0.27643524446E+03  0.17200000000E+03 0.  1.
</event>
<event>
 4    1  0.6352740E-002  0.2423720E+03  0.7818608E-02  0.1118223E+00
          2   -1    0    0  502    0  0.00000000000E+00  0.00000000000E+00  0.10514668225E+04  0.10514668225E+04  0.00000000000E+00 0. -1.
         -2   -1    0    0    0  501 -0.00000000000E+00 -0.00000000000E+00 -0.68222585474E+02  0.68222585474E+02  0.00000000000E+00 0.  1.
          6    1    1    2  502    0  0.21512160394E+02 -0.16940316026E+03  0.72985586390E+03  0.76904732352E+03  0.17200000000E+03 0. -1.
         -6    1    1    2    0  501 -0.21512160394E+02  0.16940316026E+03  0.25338837311E+03  0.35064208444E+03  0.17200000000E+03 0.  1.
</event>
<event>
 4    1  0.6352740E-002  0.1728776E+03  0.7818608E-02  0.1174880E+00
         -1   -1    0    0    0  501 -0.00000000000E+00  0.00000000000E+00  0.33498275513E+02  0.33498275513E+02  0.00000000000E+00 0.  1.
          1   -1    0    0  502    0  0.00000000000E+00 -0.00000000000E+00 -0.15079851185E+04  0.15079851185E+04  0.00000000000E+00 0. -1.
          6    1    1    2  502    0  0.95884893522E+01  0.14516051687E+02 -0.12297706602E+04  0.12418625253E+04  0.17200000000E+03 0. -1.
         -6    1    1    2    0  501 -0.95884893522E+01 -0.14516051687E+02 -0.24471618272E+03  0.29962086871E+03  0.17200000000E+03 0.  1.
</event>
<event>
 4    1  0.6352740E-002  0.5084416E+03  0.7818608E-02  0.1011599E+00
          1   -1    0    0  502    0  0.00000000000E+00  0.00000000000E+00  0.63219036894E+03  0.63219036894E+03  0.00000000000E+00 0. -1.
         -1   -1    0    0    0  501 -0.00000000000E+00 -0.00000000000E+00 -0.43445257020E+03  0.43445257020E+03  0.00000000000E+00 0.  1.
          6    1    1    2  502    0 -0.15635322473E+03  0.45219743943E+03  0.22816869676E+03  0.55729149400E+03  0.17200000000E+03 0. -1.
         -6    1    1    2    0  501  0.15635322473E+03 -0.45219743943E+03 -0.30430898012E+02  0.50935144513E+03  0.17200000000E+03 0.  1.
</event>
<event>
 4    1  0.6352740E-002  0.3507502E+03  0.7818608E-02  0.1062308E+00
         -2   -1    0    0    0  501 -0.00000000000E+00  0.00000000000E+00  0.43797141394E+02  0.43797141394E+02  0.00000000000E+00 0.  1.
          2   -1    0    0  502    0  0.00000000000E+00 -0.00000000000E+00 -0.30617727656E+04  0.30617727656E+04  0.00000000000E+00 0. -1.
          6    1    1    2  502    0 -0.13266610107E+03 -0.27539315960E+03 -0.10628187436E+04  0.11192003255E+04  0.17200000000E+03 0. -1.
         -6    1    1    2    0  501  0.13266610107E+03  0.27539315960E+03 -0.19551568806E+04  0.19863695815E+04  0.17200000000E+03 0.  1.
</event>
<event>
 4    1  0.6352740E-002  0.2651350E+03  0.7818608E-02  0.1104097E+00
          2   -1    0    0  502    0  0.00000000000E+00  0.00000000000E+00  0.28946437806E+04  0.28946437806E+04  0.00000000000E+00 0. -1.
         -2   -1    0    0    0  501 -0.00000000000E+00 -0.00000000000E+00 -0.26412783093E+02  0.26412783093E+02  0.00000000000E+00 0.  1.
          6    1    1    2  502    0  0.11931811023E+03  0.16271368518E+03  0.18486512220E+04  0.18675673738E+04  0.17200000000E+03 0.  1.
         -6    1    1    2    0  501 -0.11931811023E+03 -0.16271368518E+03  0.10195797755E+04  0.10534891900E+04  0.17200000000E+03 0.  1.
</event>
<event>
 4    1  0.6352740E-002  0.2478260E+03  0.7818608E-02  0.1114686E+00
         -2   -1    0    0    0  501 -0.00000000000E+00  0.00000000000E+00  0.55179839193E+02  0.55179839193E+02  0.00000000000E+00 0.  1.
          2   -1    0    0  502    0  0.00000000000E+00 -0.00000000000E+00 -0.19459772169E+04  0.19459772169E+04  0.00000000000E+00 0. -1.
          6    1    1    2  502    0  0.14752753831E+03 -0.10034619668E+03 -0.16000148305E+04  0.16190939415E+04  0.17200000000E+03 0.  1.
         -6    1    1    2    0  501 -0.14752753831E+03  0.10034619668E+03 -0.29078254728E+03  0.38206311461E+03  0.17200000000E+03 0. -1.
</event>
<event>
 4    1  0.6352740E-002  0.3976465E+03  0.7818608E-02  0.1044598E+00
          1   -1    0    0  502    0  0.00000000000E+00  0.00000000000E+00  0.29430688069E+03  0.29430688069E+03  0.00000000000E+00 0. -1.
         -1   -1    0    0    0  501 -0.00000000000E+00 -0.00000000000E+00 -0.84595644147E+03  0.84595644147E+03  0.00000000000E+00 0.  1.
          6    1    1    2  502    0 -0.35796990520E+03 -0.19907658274E+02  0.68571709439E+02  0.40351560964E+03  0.17200000000E+03 0. -1.
         -6    1    1    2    0  501  0.35796990520E+03  0.19907658274E+02 -0.62022127021E+03  0.73674771252E+03  0.17200000000E+03 0.  1.
</event>
<event>
 4    1  0.6352740E-002  0.2058995E+03  0.7818608E-02  0.1144855E+00
          2   -1    0    0  502    0  0.00000000000E+00  0.00000000000E+00  0.32072106802E+03  0.32072106802E+03  0.00000000000E+00 0. -1.
         -2   -1    0    0    0  501 -0.00000000000E+00 -0.00000000000E+00 -0.18416856342E+03  0.18416856342E+03  0.00000000000E+00 0.  1.
          6    1    1    2  502    0 -0.10628052314E+03 -0.38923697852E+02  0.20239533178E+03  0.28871867654E+03  0.17200000000E+03 0. -1.
         -6    1    1    2    0  501  0.10628052314E+03  0.38923697852E+02 -0.65842827184E+02  0.21617095491E+03  0.17200000000E+03 0.  1.
</event>
<event>
 4    1  0.6352740E-002  0.2046263E+03  0.7818608E-02  0.1145893E+00
          2   -1    0    0  502    0  0.00000000000E+00  0.00000000000E+00  0.29594198933E+04  0.29594198933E+04  0.00000000000E+00 0. -1.
         -2   -1    0    0    0  501 -0.00000000000E+00 -0.00000000000E+00 -0.15759045360E+02  0.15759045360E+02  0.00000000000E+00 0.  1.
          6    1    1    2  502    0 -0.42399716180E+02  0.10242160292E+03  0.19473613096E+04  0.19580827334E+04  0.17200000000E+03 0. -1.
         -6    1    1    2    0  501  0.42399716180E+02 -0.10242160292E+03  0.99629953833E+03  0.10170962053E+04  0.17200000000E+03 0.  1.
</event>
<event>
 4    1  0.6352740E-002  0.1822049E+03  0.7818608E-02  0.1165686E+00
          2   -1    0    0  502    0  0.00000000000E+00  0.00000000000E+00  0.12229415287E+04  0.12229415287E+04  0.00000000000E+00 0. -1.
         -2   -1    0    0    0  501 -0.00000000000E+00 -0.00000000000E+00 -0.63412846900E+02  0.63412846900E+02  0.00000000000E+00 0.  1.
          6    1    1    2  502    0  0.27439877121E+02  0.53494643025E+02  0.10661645013E+04  0.10816216379E+04  0.17200000000E+03 0. -1.
         -6    1    1    2    0  501 -0.27439877121E+02 -0.53494643025E+02  0.93364180470E+02  0.20473273769E+03  0.17200000000E+03 0.  1.
</event>
<event>
 4    1  0.6352740E-002  0.3149466E+03  0.7818608E-02  0.1077999E+00
          1   -1    0    0  502    0  0.00000000000E+00  0.00000000000E+00  0.20301550012E+04  0.20301550012E+04  0.00000000000E+00 0. -1.
         -1   -1    0    0    0  501 -0.00000000000E+00 -0.00000000000E+00 -0.52957006730E+02  0.52957006730E+02  0.00000000000E+00 0.  1.
          6    1    1    2  502    0  0.11986009606E+03 -0.23503380400E+03  0.69885960348E+03  0.76654815702E+03  0.17200000000E+03 0. -1.
         -6    1    1    2    0  501 -0.11986009606E+03  0.23503380400E+03  0.12783383910E+04  0.13165638509E+04  0.17200000000E+03 0. -1.
</event>
<event>
 4    1  0.6352740E-002  0.2230881E+03  0.7818608E-02  0.1131601E+00
          1   -1    0    0  502    0  0.00000000000E+00  0.00000000000E+00  0.84359889032E+03  0.84359889032E+03  0.00000000000E+00 0. -1.
         -1   -1    0    0    0  501 -0.00000000000E+00 -0.00000000000E+00 -0.59001933789E+02  0.59001933789E+02  0.00000000000E+00 0.  1.
          6    1    1    2  502    0 -0.86907551576E+02  0.11238935672E+03  0.39711773338E+03  0.45548960931E+03  0.17200000000E+03 0. -1.
         -6    1    1    2    0  501  0.86907551576E+02 -0.11238935672E+03  0.38747922314E+03  0.44711121479E+03  0.17200000000E+03 0. -1.
</event>
<event>
 4    1  0.6352740E-002  0.1821497E+03  0.7818608E-02  0.1165739E+00
         -2   -1    0    0    0  501 -0.00000000000E+00  0.00000000000E+00  0.33438557367E+03  0.33438557367E+03  0.00000000000E+00 0.  1.
          2   -1    0    0  502    0  0.00000000000E+00 -0.00000000000E+00 -0.10266965251E+03  0.10266965251E+03  0.00000000000E+00 0. -1.
          6    1    1    2  502    0 -0.57722992556E+02  0.16203775787E+02  0.75814829680E+02  0.19729773090E+03  0.17200000000E+03 0. -1.
         -6    1    1    2    0  501  0.57722992556E+02 -0.16203775787E+02  0.15590109148E+03  0.23975749528E+03  0.17200000000E+03 0.  1.
</event>
<event>
 4    1  0.6352740E-002  0.1841511E+03  0.7818608E-02  0.1163845E+00
         -1   -1    0    0    0  501 -0.00000000000E+00  0.00000000000E+00  0.56408915598E+02  0.56408915598E+02  0.00000000000E+00 0.  1.
          1   -1    0    0  502    0  0.00000000000E+00 -0.00000000000E+00 -0.66075127841E+03  0.66075127841E+03  0.00000000000E+00 0. -1.
          6    1    1    2  502    0 -0.31366800208E+02  0.57825100338E+02 -0.40984363244E+03  0.44931439042E+03  0.17200000000E+03 0. -1.
         -6    1    1    2    0  501  0.31366800208E+02 -0.57825100338E+02 -0.19449873037E+03  0.26784580359E+03  0.17200000000E+03 0.  1.
</event>
<event>
 4    1  0.6352740E-002  0.2674930E+03  0.7818608E-02  0.1102723E+00
         -2   -1    0    0    0  501 -0.00000000000E+00  0.00000000000E+00  0.41696949212E+03  0.41696949212E+03  0.00000000000E+00 0.  1.
          2   -1    0    0  502    0  0.00000000000E+00 -0.00000000000E+00 -0.17166239602E+03  0.17166239602E+03  0.00000000000E+00 0. -1.
          6    1    1    2  502    0 -0.60952186603E+02  0.19558465803E+03  0.11710336899E+03  0.29200295639E+03  0.17200000000E+03 0.  1.
         -6    1    1    2    0  501  0.60952186603E+02 -0.19558465803E+03  0.12820372710E+03  0.29662893175E+03  0.17200000000E+03 0.  1.
</event>
<event>
 4    1  0.6352740E-002  0.4062690E+03  0.7818608E-02  0.1041630E+00
         -1   -1    0    0    0  501 -0.00000000000E+00  0.00000000000E+00  0.47656394925E+03  0.47656394925E+03  0.00000000000E+00 0.  1.
          1   -1    0    0  502    0  0.00000000000E+00 -0.00000000000E+00 -0.37325553324E+03  0.37325553324E+03  0.00000000000E+00 0. -1.
          6    1    1    2  502    0 -0.26277959739E+03  0.25771574438E+03  0.16575061554E+03  0.43877988588E+03  0.17200000000E+03 0. -1.
         -6    1    1    2    0  501  0.26277959739E+03 -0.25771574438E+03 -0.62442199527E+02  0.41103959662E+03  0.17200000000E+03 0.  1.
</event>
<event>
 4    1  0.6352740E-002  0.2858688E+03  0.7818608E-02  0.1092526E+00
         -1   -1    0    0    0  501 -0.00000000000E+00  0.00000000000E+00  0.13329285658E+03  0.13329285658E+03  0.00000000000E+00 0.  1.
          1   -1    0    0  502    0  0.00000000000E+00 -0.00000000000E+00 -0.66819807704E+03  0.66819807704E+03  0.00000000000E+00 0. -1.
          6    1    1    2  502    0  0.18474327560E+03 -0.13418966023E+03 -0.38253558026E+03  0.47755042975E+03  0.17200000000E+03 0.  1.
         -6    1    1    2    0  501 -0.18474327560E+03  0.13418966023E+03 -0.15236964020E+03  0.32394050387E+03  0.17200000000E+03 0.  1.
</event>
<event>
 4    1  0.6352740E-002  0.1830714E+03  0.7818608E-02  0.1164863E+00
         -2   -1    0    0    0  501 -0.00000000000E+00  0.00000000000E+00  0.21122780841E+03  0.21122780841E+03  0.00000000000E+00 0.  1.
          2   -1    0    0  502    0  0.00000000000E+00 -0.00000000000E+00 -0.26965941137E+03  0.26965941137E+03  0.00000000000E+00 0. -1.
          6    1    1    2  502    0  0.11224998558E+02 -0.61685797303E+02 -0.18347452219E+03  0.25918726526E+03  0.17200000000E+03 0. -1.
         -6    1    1    2    0  501 -0.11224998558E+02  0.61685797303E+02  0.12504291923E+03  0.22169995451E+03  0.17200000000E+03 0.  1.
</event>
<event>
 4    1  0.6352740E-002  0.3445323E+03  0.7818608E-02  0.1064882E+00
          2   -1    0    0  502    0  0.00000000000E+00  0.00000000000E+00  0.19932348836E+04  0.19932348836E+04  0.00000000000E+00 0. -1.
         -2   -1    0    0    0  501 -0.00000000000E+00 -0.00000000000E+00 -0.83613163749E+02  0.83613163749E+02  0.00000000000E+00 0.  1.
          6    1    1    2  502    0 -0.19262668669E+03  0.22806464351E+03  0.15118547076E+04  0.15506150970E+04  0.17200000000E+03 0. -1.
         -6    1    1    2    0  501  0.19262668669E+03 -0.22806464351E+03  0.39776701230E+03  0.52623295043E+03  0.17200000000E+03 0.  1.
</event>
<event>
 4    1  0.6352740E-002  0.1833386E+03  0.7818608E-02  0.1164610E+00
          2   -1    0    0  502    0  0.00000000000E+00  0.00000000000E+00  0.11853978451E+04  0.11853978451E+04  0.00000000000E+00 0. -1.
         -2   -1    0    0    0  501 -0.00000000000E+00 -0.00000000000E+00 -0.94783369840E+02  0.94783369840E+02  0.00000000000E+00 0.  1.
          6    1    1    2  502    0 -0.28073847616E+02  0.56928953475E+02  0.94499130006E+01  0.18358199127E+03  0.17200000000E+03 0.  1.
         -6    1    1    2    0  501  0.28073847616E+02 -0.56928953475E+02  0.10811645623E+04  0.10965992237E+04  0.17200000000E+03 0. -1.
</event>
<event>
 4    1  0.6352740E-002  0.3290163E+03  0.7818608E-02  0.1071573E+00
         -2   -1    0    0    0  501 -0.00000000000E+00  0.00000000000E+00  0.46698592294E+02  0.46698592294E+02  0.00000000000E+00 0.  1.
          2   -1    0    0  502    0  0.00000000000E+00 -0.00000000000E+00 -0.24242109731E+04  0.24242109731E+04  0.00000000000E+00 0. -1.
          6    1    1    2  502    0  0.26067469627E+03 -0.10352004660E+03 -0.93027118287E+03  0.98674017401E+03  0.17200000000E+03 0. -1.
         -6    1    1    2    0  501 -0.26067469627E+03  0.10352004660E+03 -0.14472411979E+04  0.14841693913E+04  0.17200000000E+03 0.  1.
</event>
<event>
 4    1  0.6352740E-002  0.2580817E+03  0.7818608E-02  0.1108301E+00
         -1   -1    0    0    0  501 -0.00000000000E+00  0.00000000000E+00  0.17103109346E+03  0.17103109346E+03  0.00000000000E+00 0.  1.
          1   -1    0    0  502    0  0.00000000000E+00 -0.00000000000E+00 -0.47126434922E+03  0.47126434922E+03  0.00000000000E+00 0. -1.
          6    1    1    2  502    0  0.18254234241E+03  0.60831232417E+02 -0.28393538373E+03  0.38369968432E+03  0.17200000000E+03 0. -1.
         -6    1    1    2    0  501 -0.18254234241E+03 -0.60831232417E+02 -0.16297872024E+02  0.25859575836E+03  0.17200000000E+03 0.  1.
</event>
<event>
 4    1  0.6352740E-002  0.3352680E+03  0.7818608E-02  0.1068829E+00
          2   -1    0    0  502    0  0.00000000000E+00  0.00000000000E+00  0.42751370873E+03  0.42751370873E+03  0.00000000000E+00 0. -1.
         -2   -1    0    0    0  501 -0.00000000000E+00 -0.00000000000E+00 -0.26344219113E+03  0.26344219113E+03  0.00000000000E+00 0.  1.
          6    1    1    2  502    0 -0.24280040481E+03 -0.15449469317E+03  0.97322266980E+02  0.34910782066E+03  0.17200000000E+03 0. -1.
         -6    1    1    2    0  501  0.24280040481E+03  0.15449469317E+03  0.66749250630E+02  0.34184807920E+03  0.17200000000E+03 0.  1.
</event>
<event>
 4    1  0.6352740E-002  0.2094603E+03  0.7818608E-02  0.1141994E+00
          2   -1    0    0  502    0  0.00000000000E+00  0.00000000000E+00  0.24484917540E+04  0.24484917540E+04  0.00000000000E+00 0. -1.
         -2   -1    0    0    0  501 -0.00000000000E+00 -0.00000000000E+00 -0.21970033183E+02  0.21970033183E+02  0.00000000000E+00 0.  1.
          6    1    1    2  502    0  0.10320586380E+03 -0.60317231378E+02  0.17436999253E+04  0.17562354763E+04  0.17200000000E+03 0. -1.
         -6    1    1    2    0  501 -0.10320586380E+03  0.60317231378E+02  0.68282179547E+03  0.71422631083E+03  0.17200000000E+03 0.  1.
</event>
<event>
 4    1  0.6352740E-002  0.1806446E+03  0.7818608E-02  0.1167181E+00
         -1   -1    0    0    0  501 -0.00000000000E+00  0.00000000000E+00  0.59456321036E+02  0.59456321036E+02  0.00000000000E+00 0.  1.
          1   -1    0    0  502    0  0.00000000000E+00 -0.00000000000E+00 -0.55134555072E+03  0.55134555072E+03  0.00000000000E+00 0. -1.
          6    1    1    2  502    0  0.25734832498E+02 -0.48848820376E+02 -0.26649911205E+03  0.32195382523E+03  0.17200000000E+03 0. -1.
         -6    1    1    2    0  501 -0.25734832498E+02  0.48848820376E+02 -0.22539011763E+03  0.28884804653E+03  0.17200000000E+03 0.  1.
</event>
<event>
 4    1  0.6352740E-002  0.8157004E+03  0.7818608E-02  0.9537565E-01
         -2   -1    0    0    0  501 -0.00000000000E+00  0.00000000000E+00  0.19218923221E+04  0.19218923221E+04  0.00000000000E+00 0.  1.
          2   -1    0    0  502    0  0.00000000000E+00 -0.00000000000E+00 -0.11810404321E+04  0.11810404321E+04  0.00000000000E+00 0. -1.
          6    1    1    2  502    0 -0.19678106380E+03  0.77269676251E+03 -0.93397362272E+03  0.12400297584E+04  0.17200000000E+03 0. -1.
         -6    1    1    2    0  501  0.19678106380E+03 -0.77269676251E+03  0.16748255127E+04  0.18629029958E+04  0.17200000000E+03 0.  1.
</event>
<event>
 4    1  0.6352740E-002  0.2641225E+03  0.7818608E-02  0.1104691E+00
         -2   -1    0    0    0  501 -0.00000000000E+00  0.00000000000E+00  0.44063832891E+02  0.44063832891E+02  0.00000000000E+00 0.  1.
          2   -1    0    0  502    0  0.00000000000E+00 -0.00000000000E+00 -0.17939190253E+04  0.17939190253E+04  0.00000000000E+00 0. -1.
          6    1    1    2  502    0  0.37891609156E+02  0.19682711412E+03 -0.55994297080E+03  0.61910969743E+03  0.17200000000E+03 0. -1.
         -6    1    1    2    0  501 -0.37891609156E+02 -0.19682711412E+03 -0.11899122216E+04  0.12188731608E+04  0.17200000000E+03 0. -1.
</event>
<event>
 4    1  0.6352740E-002  0.2623990E+03  0.7818608E-02  0.1105710E+00
         -2   -1    0    0    0  501 -0.00000000000E+00  0.00000000000E+00  0.10775190935E+03  0.10775190935E+03  0.00000000000E+00 0.  1.
          2   -1    0    0  502    0  0.00000000000E+00 -0.00000000000E+00 -0.12647038479E+04  0.12647038479E+04  0.00000000000E+00 0. -1.
          6    1    1    2  502    0  0.17323812458E+03 -0.96217370456E+02 -0.10611557683E+04  0.10931170088E+04  0.17200000000E+03 0. -1.
         -6    1    1    2    0  501 -0.17323812458E+03  0.96217370456E+02 -0.95796170252E+02  0.27933874851E+03  0.17200000000E+03 0.  1.
</event>
<event>
 4    1  0.6352740E-002  0.1822697E+03  0.7818608E-02  0.1165624E+00
          2   -1    0    0  502    0  0.00000000000E+00  0.00000000000E+00  0.39161271191E+03  0.39161271191E+03  0.00000000000E+00 0. -1.
         -2   -1    0    0    0  501 -0.00000000000E+00 -0.00000000000E+00 -0.13779140343E+03  0.13779140343E+03  0.00000000000E+00 0.  1.
          6    1    1    2  502    0 -0.26737054802E+02 -0.54068360293E+02  0.29101030666E+03  0.34337917273E+03  0.17200000000E+03 0. -1.
         -6    1    1    2    0  501  0.26737054802E+02  0.54068360293E+02 -0.37188998182E+02  0.18602494260E+03  0.17200000000E+03 0.  1.
</event>
<event>
 4    1  0.6352740E-002  0.1928308E+03  0.7818608E-02  0.1155933E+00
          2   -1    0    0  502    0  0.00000000000E+00  0.00000000000E+00  0.84087540461E+03  0.84087540461E+03  0.00000000000E+00 0. -1.
         -2   -1    0    0    0  501 -0.00000000000E+00 -0.00000000000E+00 -0.23213735921E+03  0.23213735921E+03  0.00000000000E+00 0.  1.
          6    1    1    2  502    0 -0.31681954443E+02 -0.81215477887E+02  0.78707820725E+03  0.81035535688E+03  0.17200000000E+03 0. -1.
         -6    1    1    2    0  501  0.31681954443E+02  0.81215477887E+02 -0.17834016186E+03  0.26265740693E+03  0.17200000000E+03 0.  1.
</event>
<event>
 4    1  0.6352740E-002  0.2058751E+03  0.7818608E-02  0.1144875E+00
          4   -1    0    0  502    0  0.00000000000E+00  0.00000000000E+00  0.12376714328E+03  0.12376714328E+03  0.00000000000E+00 0. -1.
         -4   -1    0    0    0  501 -0.00000000000E+00 -0.00000000000E+00 -0.37403969853E+03  0.37403969853E+03  0.00000000000E+00 0.  1.
          6    1    1    2  502    0 -0.12127065631E+02 -0.11248774509E+03 -0.52806526835E+02  0.21253961464E+03  0.17200000000E+03 0. -1.
         -6    1    1    2    0  501  0.12127065631E+02  0.11248774509E+03 -0.19746602842E+03  0.28526722716E+03  0.17200000000E+03 0.  1.
</event>
<event>
 4    1  0.6352740E-002  0.7316806E+03  0.7818608E-02  0.9664537E-01
          2   -1    0    0  502    0  0.00000000000E+00  0.00000000000E+00  0.24403411210E+04  0.24403411210E+04  0.00000000000E+00 0. -1.
         -2   -1    0    0    0  501 -0.00000000000E+00 -0.00000000000E+00 -0.40639721003E+03  0.40639721003E+03  0.00000000000E+00 0.  1.
          6    1    1    2  502    0  0.58922156897E+03  0.39823424303E+03  0.19825459975E+04  0.21132546467E+04  0.17200000000E+03 0. -1.
         -6    1    1    2    0  501 -0.58922156897E+03 -0.39823424303E+03  0.51397913489E+02  0.73348368432E+03  0.17200000000E+03 0.  1.
</event>
<event>
 4    1  0.6352740E-002  0.3467128E+03  0.7818608E-02  0.1063972E+00
         -2   -1    0    0    0  501 -0.00000000000E+00  0.00000000000E+00  0.65044832652E+02  0.65044832652E+02  0.00000000000E+00 0.  1.
          2   -1    0    0  502    0  0.00000000000E+00 -0.00000000000E+00 -0.18501693382E+04  0.18501693382E+04  0.00000000000E+00 0. -1.
          6    1    1    2  502    0 -0.24185143681E+03  0.17925860948E+03 -0.92453888534E+03  0.98741172621E+03  0.17200000000E+03 0. -1.
         -6    1    1    2    0  501  0.24185143681E+03 -0.17925860948E+03 -0.86058562017E+03  0.92780244460E+03  0.17200000000E+03 0.  1.
</event>
<event>
 4    1  0.6352740E-002  0.1848551E+03  0.7818608E-02  0.1163185E+00
         -2   -1    0    0    0  501 -0.00000000000E+00  0.00000000000E+00  0.15881794511E+03  0.15881794511E+03  0.00000000000E+00 0.  1.
          2   -1    0    0  502    0  0.00000000000E+00 -0.00000000000E+00 -0.22452418273E+03  0.22452418273E+03  0.00000000000E+00 0. -1.
          6    1    1    2  502    0 -0.52393571652E+02 -0.42922290347E+02 -0.71994797419E+02  0.19838009027E+03  0.17200000000E+03 0. -1.
         -6    1    1    2    0  501  0.52393571652E+02  0.42922290347E+02  0.62885598059E+01  0.18496203757E+03  0.17200000000E+03 0. -1.
</event>
<event>
 4    1  0.6352740E-002  0.1916006E+03  0.7818608E-02  0.1157026E+00
          1   -1    0    0  502    0  0.00000000000E+00  0.00000000000E+00  0.18294065932E+04  0.18294065932E+04  0.00000000000E+00 0. -1.
         -1   -1    0    0    0  501 -0.00000000000E+00 -0.00000000000E+00 -0.20073849867E+02  0.20073849867E+02  0.00000000000E+00 0.  1.
          6    1    1    2  502    0  0.79721540620E+02  0.27771658221E+02  0.88764346275E+03  0.90808683836E+03  0.17200000000E+03 0.  1.
         -6    1    1    2    0  501 -0.79721540620E+02 -0.27771658221E+02  0.92168928054E+03  0.94139360467E+03  0.17200000000E+03 0.  1.
</event>
<event>
 4    1  0.6352740E-002  0.3505882E+03  0.7818608E-02  0.1062374E+00
         -1   -1    0    0    0  501 -0.00000000000E+00  0.00000000000E+00  0.14779886518E+03  0.14779886518E+03  0.00000000000E+00 0.  1.
          1   -1    0    0  502    0  0.00000000000E+00 -0.00000000000E+00 -0.91789969914E+03  0.91789969914E+03  0.00000000000E+00 0. -1.
          6    1    1    2  502    0  0.25762978567E+03 -0.16417963590E+03 -0.22168186688E+03  0.41479502096E+03  0.17200000000E+03 0.  1.
         -6    1    1    2    0  501 -0.25762978567E+03  0.16417963590E+03 -0.54841896708E+03  0.65090354337E+03  0.17200000000E+03 0. -1.
</event>
<event>
 4    1  0.6352740E-002  0.2793830E+03  0.7818608E-02  0.1096026E+00
         -2   -1    0    0    0  501 -0.00000000000E+00  0.00000000000E+00  0.10669988882E+03  0.10669988882E+03  0.00000000000E+00 0.  1.
          2   -1    0    0  502    0  0.00000000000E+00 -0.00000000000E+00 -0.87623728190E+03  0.87623728190E+03  0.00000000000E+00 0. -1.
          6    1    1    2  502    0  0.12733383563E+03  0.17960224927E+03 -0.58448806847E+03  0.64782804495E+03  0.17200000000E+03 0. -1.
         -6    1    1    2    0  501 -0.12733383563E+03 -0.17960224927E+03 -0.18504932460E+03  0.33510912577E+03  0.17200000000E+03 0.  1.
</event>
<event>
 4    1  0.6352740E-002  0.2299798E+03  0.7818608E-02  0.1126654E+00
          1   -1    0    0  502    0  0.00000000000E+00  0.00000000000E+00  0.40808127810E+03  0.40808127810E+03  0.00000000000E+00 0. -1.
         -1   -1    0    0    0  501 -0.00000000000E+00 -0.00000000000E+00 -0.19943814985E+03  0.19943814985E+03  0.00000000000E+00 0.  1.
          6    1    1    2  502    0  0.11871762011E+03  0.95983529335E+02 -0.75419241226E+02  0.24203052117E+03  0.17200000000E+03 0.  1.
         -6    1    1    2    0  501 -0.11871762011E+03 -0.95983529335E+02  0.28406236947E+03  0.36548890678E+03  0.17200000000E+03 0. -1.
</event>
<event>
 4    1  0.6352740E-002  0.1822952E+03  0.7818608E-02  0.1165600E+00
          1   -1    0    0  502    0  0.00000000000E+00  0.00000000000E+00  0.22443294538E+03  0.22443294538E+03  0.00000000000E+00 0. -1.
         -1   -1    0    0    0  501 -0.00000000000E+00 -0.00000000000E+00 -0.16190051511E+03  0.16190051511E+03  0.00000000000E+00 0.  1.
          6    1    1    2  502    0  0.43354547752E+02  0.42046595225E+02  0.87726765371E+02  0.20230550745E+03  0.17200000000E+03 0. -1.
         -6    1    1    2    0  501 -0.43354547752E+02 -0.42046595225E+02 -0.25194335095E+02  0.18402795304E+03  0.17200000000E+03 0.  1.
</event>
<event>
 4    1  0.6352740E-002  0.1946602E+03  0.7818608E-02  0.1154324E+00
         -2   -1    0    0    0  501 -0.00000000000E+00  0.00000000000E+00  0.48076877381E+02  0.48076877381E+02  0.00000000000E+00 0.  1.
          2   -1    0    0  502    0  0.00000000000E+00 -0.00000000000E+00 -0.79556470269E+03  0.79556470269E+03  0.00000000000E+00 0. -1.
          6    1    1    2  502    0  0.75609696678E+02 -0.50909348782E+02 -0.33306671829E+03  0.38577976471E+03  0.17200000000E+03 0.  1.
         -6    1    1    2    0  501 -0.75609696678E+02  0.50909348782E+02 -0.41442110702E+03  0.45786181536E+03  0.17200000000E+03 0.  1.
</event>
<event>
 4    1  0.6352740E-002  0.2007586E+03  0.7818608E-02  0.1149101E+00
          1   -1    0    0  502    0  0.00000000000E+00  0.00000000000E+00  0.30162954122E+03  0.30162954122E+03  0.00000000000E+00 0. -1.
         -1   -1    0    0    0  501 -0.00000000000E+00 -0.00000000000E+00 -0.23185704138E+03  0.23185704138E+03  0.00000000000E+00 0.  1.
          6    1    1    2  502    0  0.10168523874E+03 -0.19497196425E+02  0.20851389657E+03  0.28945133185E+03  0.17200000000E+03 0. -1.
         -6    1    1    2    0  501 -0.10168523874E+03  0.19497196425E+02 -0.13874139672E+03  0.24403525075E+03  0.17200000000E+03 0.  1.
</event>
<event>
 4    1  0.6352740E-002  0.2036567E+03  0.7818608E-02  0.1146690E+00
          4   -1    0    0  502    0  0.00000000000E+00  0.00000000000E+00  0.12785550815E+03  0.12785550815E+03  0.00000000000E+00 0. -1.
         -4   -1    0    0    0  501 -0.00000000000E+00 -0.00000000000E+00 -0.37592083474E+03  0.37592083474E+03  0.00000000000E+00 0.  1.
          6    1    1    2  502    0  0.90443981048E+02 -0.60925714907E+02 -0.21728504538E+03  0.29780672825E+03  0.17200000000E+03 0.  1.
         -6    1    1    2    0  501 -0.90443981048E+02  0.60925714907E+02 -0.30780281214E+02  0.20596961464E+03  0.17200000000E+03 0. -1.
</event>
<event>
 4    1  0.6352740E-002  0.1876763E+03  0.7818608E-02  0.1160574E+00
          1   -1    0    0  502    0  0.00000000000E+00  0.00000000000E+00  0.25157513290E+04  0.25157513290E+04  0.00000000000E+00 0. -1.
         -1   -1    0    0    0  501 -0.00000000000E+00 -0.00000000000E+00 -0.14791025098E+02  0.14791025098E+02  0.00000000000E+00 0.  1.
          6    1    1    2  502    0 -0.20645578866E+02  0.72195299125E+02  0.15429452820E+04  0.15543173886E+04  0.17200000000E+03 0. -1.
         -6    1    1    2    0  501  0.20645578866E+02 -0.72195299125E+02  0.95801502190E+03  0.97622496553E+03  0.17200000000E+03 0.  1.
</event>
<event>
 4    1  0.6352740E-002  0.1804731E+03  0.7818608E-02  0.1167346E+00
         -2   -1    0    0    0  501 -0.00000000000E+00  0.00000000000E+00  0.27212625081E+02  0.27212625081E+02  0.00000000000E+00 0.  1.
          2   -1    0    0  502    0  0.00000000000E+00 -0.00000000000E+00 -0.11983542134E+04  0.11983542134E+04  0.00000000000E+00 0. -1.
          6    1    1    2  502    0 -0.46671282028E+02  0.28431435056E+02 -0.56416067703E+03  0.59232408745E+03  0.17200000000E+03 0.  1.
         -6    1    1    2    0  501  0.46671282028E+02 -0.28431435056E+02 -0.60698091127E+03  0.63324275102E+03  0.17200000000E+03 0.  1.
</event>
<event>
 4    1  0.6352740E-002  0.2376675E+03  0.7818608E-02  0.1121356E+00
         -1   -1    0    0    0  501 -0.00000000000E+00  0.00000000000E+00  0.17645689787E+03  0.17645689787E+03  0.00000000000E+00 0.  1.
          1   -1    0    0  502    0  0.00000000000E+00 -0.00000000000E+00 -0.40225349998E+03  0.40225349998E+03  0.00000000000E+00 0. -1.
          6    1    1    2  502    0  0.69803187465E+02 -0.14842286092E+03 -0.24365525173E+03  0.34037290186E+03  0.17200000000E+03 0. -1.
         -6    1    1    2    0  501 -0.69803187465E+02  0.14842286092E+03  0.17858649621E+02  0.23833749598E+03  0.17200000000E+03 0.  1.
</event>
<event>
 4    1  0.6352740E-002  0.4005105E+03  0.7818608E-02  0.1043603E+00
          2   -1    0    0  502    0  0.00000000000E+00  0.00000000000E+00  0.85040307418E+03  0.85040307418E+03  0.00000000000E+00 0. -1.
         -2   -1    0    0    0  501 -0.00000000000E+00 -0.00000000000E+00 -0.18947678415E+03  0.18947678415E+03  0.00000000000E+00 0.  1.
          6    1    1    2  502    0 -0.35033517910E+03  0.89944198570E+02  0.29563624379E+03  0.49780466572E+03  0.17200000000E+03 0. -1.
         -6    1    1    2    0  501  0.35033517910E+03 -0.89944198570E+02  0.36529004625E+03  0.54207519262E+03  0.17200000000E+03 0.  1.
</event>
<event>
 4    1  0.6352740E-002  0.1720012E+03  0.7818608E-02  0.1175777E+00
          1   -1    0    0  502    0  0.00000000000E+00  0.00000000000E+00  0.22457017293E+03  0.22457017293E+03  0.00000000000E+00 0. -1.
         -1   -1    0    0    0  501 -0.00000000000E+00 -0.00000000000E+00 -0.23697479803E+03  0.23697479803E+03  0.00000000000E+00 0.  1.
          6    1    1    2  502    0 -0.63801608482E+00  0.72681911447E-01  0.14758371535E+03  0.22663928473E+03  0.17200000000E+03 0. -1.
         -6    1    1    2    0  501  0.63801608482E+00 -0.72681911447E-01 -0.15998834044E+03  0.23490568623E+03  0.17200000000E+03 0.  1.
</event>
<event>
 4    1  0.6352740E-002  0.5274765E+03  0.7818608E-02  0.1006846E+00
          4   -1    0    0  502    0  0.00000000000E+00  0.00000000000E+00  0.34429562651E+03  0.34429562651E+03  0.00000000000E+00 0. -1.
         -4   -1    0    0    0  501 -0.00000000000E+00 -0.00000000000E+00 -0.80813419911E+03  0.80813419911E+03  0.00000000000E+00 0.  1.
          6    1    1    2  502    0  0.46088868410E+03 -0.19033927706E+03 -0.22932251179E+03  0.57516974359E+03  0.17200000000E+03 0. -1.
         -6    1    1    2    0  501 -0.46088868410E+03  0.19033927706E+03 -0.23451606081E+03  0.57726008203E+03  0.17200000000E+03 0.  1.
</event>
<event>
 4    1  0.6352740E-002  0.1863177E+03  0.7818608E-02  0.1161825E+00
         -2   -1    0    0    0  501 -0.00000000000E+00  0.00000000000E+00  0.16720163760E+02  0.16720163760E+02  0.00000000000E+00 0.  1.
          2   -1    0    0  502    0  0.00000000000E+00 -0.00000000000E+00 -0.24799013741E+04  0.24799013741E+04  0.00000000000E+00 0. -1.
          6    1    1    2  502    0  0.41650431010E+02 -0.58271024207E+02 -0.17352534517E+04  0.17452274386E+04  0.17200000000E+03 0. -1.
         -6    1    1    2    0  501 -0.41650431010E+02  0.58271024207E+02 -0.72792775867E+03  0.75139409933E+03  0.17200000000E+03 0.  1.
</event>
<event>
 4    1  0.6352740E-002  0.5166200E+03  0.7818608E-02  0.1009530E+00
         -1   -1    0    0    0  501 -0.00000000000E+00  0.00000000000E+00  0.28537498918E+03  0.28537498918E+03  0.00000000000E+00 0.  1.
          1   -1    0    0  502    0  0.00000000000E+00 -0.00000000000E+00 -0.10610977305E+04  0.10610977305E+04  0.00000000000E+00 0. -1.
          6    1    1    2  502    0 -0.34956358746E+03 -0.33928979810E+03 -0.61971651452E+03  0.80681151897E+03  0.17200000000E+03 0. -1.
         -6    1    1    2    0  501  0.34956358746E+03  0.33928979810E+03 -0.15600622683E+03  0.53966120074E+03  0.17200000000E+03 0.  1.
</event>
<event>
 4    1  0.6352740E-002  0.2997980E+03  0.7818608E-02  0.1085342E+00
         -1   -1    0    0    0  501 -0.00000000000E+00  0.00000000000E+00  0.14898473857E+03  0.14898473857E+03  0.00000000000E+00 0.  1.
          1   -1    0    0  502    0  0.00000000000E+00 -0.00000000000E+00 -0.67680781318E+03  0.67680781318E+03  0.00000000000E+00 0. -1.
          6    1    1    2  502    0  0.17781443207E+03 -0.16934246317E+03 -0.40000817920E+03  0.49988537237E+03  0.17200000000E+03 0. -1.
         -6    1    1    2    0  501 -0.17781443207E+03  0.16934246317E+03 -0.12781489540E+03  0.32590717938E+03  0.17200000000E+03 0.  1.
</event>
<event>
 4    1  0.6352740E-002  0.2293923E+03  0.7818608E-02  0.1127068E+00
          2   -1    0    0  502    0  0.00000000000E+00  0.00000000000E+00  0.15982463146E+04  0.15982463146E+04  0.00000000000E+00 0. -1.
         -2   -1    0    0    0  501 -0.00000000000E+00 -0.00000000000E+00 -0.38952214952E+02  0.38952214952E+02  0.00000000000E+00 0.  1.
          6    1    1    2  502    0 -0.92854209034E+02 -0.12006221846E+03  0.11016765121E+04  0.11253052820E+04  0.17200000000E+03 0. -1.
         -6    1    1    2    0  501  0.92854209034E+02  0.12006221846E+03  0.45761758759E+03  0.51189324757E+03  0.17200000000E+03 0.  1.
</event>
<event>
 4    1  0.6352740E-002  0.4752427E+03  0.7818608E-02  0.1020451E+00
         -2   -1    0    0    0  501 -0.00000000000E+00  0.00000000000E+00  0.11469991241E+03  0.11469991241E+03  0.00000000000E+00 0.  1.
          2   -1    0    0  502    0  0.00000000000E+00 -0.00000000000E+00 -0.19739132604E+04  0.19739132604E+04  0.00000000000E+00 0. -1.
          6    1    1    2  502    0 -0.30053019869E+01  0.44301537003E+03 -0.87804072003E+03  0.99840430485E+03  0.17200000000E+03 0. -1.
         -6    1    1    2    0  501  0.30053019869E+01 -0.44301537003E+03 -0.98117262797E+03  0.10902088680E+04  0.17200000000E+03 0.  1.
</event>
<event>
 4    1  0.6352740E-002  0.4715512E+03  0.7818608E-02  0.1021483E+00
         -1   -1    0    0    0  501 -0.00000000000E+00  0.00000000000E+00  0.15842412510E+03  0.15842412510E+03  0.00000000000E+00 0.  1.
          1   -1    0    0  502    0  0.00000000000E+00 -0.00000000000E+00 -0.14175169711E+04  0.14175169711E+04  0.00000000000E+00 0. -1.
          6    1    1    2  502    0 -0.30542918242E+02 -0.43799965939E+03 -0.55140781793E+03  0.72554197201E+03  0.17200000000E+03 0. -1.
         -6    1    1    2    0  501  0.30542918242E+02  0.43799965939E+03 -0.70768502809E+03  0.85039912421E+03  0.17200000000E+03 0.  1.
</event>
<event>
 4    1  0.6352740E-002  0.3002394E+03  0.7818608E-02  0.1085121E+00
          2   -1    0    0  502    0  0.00000000000E+00  0.00000000000E+00  0.12361151281E+04  0.12361151281E+04  0.00000000000E+00 0. -1.
         -2   -1    0    0    0  501 -0.00000000000E+00 -0.00000000000E+00 -0.10618082175E+03  0.10618082175E+03  0.00000000000E+00 0.  1.
          6    1    1    2  502    0  0.11896492918E+03 -0.21542300722E+03  0.94057004112E+03  0.98732756908E+03  0.17200000000E+03 0. -1.
         -6    1    1    2    0  501 -0.11896492918E+03  0.21542300722E+03  0.18936426527E+03  0.35496838081E+03  0.17200000000E+03 0.  1.
</event>
<event>
 4    1  0.6352740E-002  0.2087296E+03  0.7818608E-02  0.1142576E+00
          1   -1    0    0  502    0  0.00000000000E+00  0.00000000000E+00  0.93462969563E+03  0.93462969563E+03  0.00000000000E+00 0. -1.
         -1   -1    0    0    0  501 -0.00000000000E+00 -0.00000000000E+00 -0.59706285922E+02  0.59706285922E+02  0.00000000000E+00 0.  1.
          6    1    1    2  502    0  0.59332772756E+02 -0.10229211795E+03  0.67025962841E+03  0.70200856461E+03  0.17200000000E+03 0. -1.
         -6    1    1    2    0  501 -0.59332772756E+02  0.10229211795E+03  0.20466378130E+03  0.29232741694E+03  0.17200000000E+03 0.  1.
</event>
<event>
 4    1  0.6352740E-002  0.4315579E+03  0.7818608E-02  0.1033369E+00
          2   -1    0    0  502    0  0.00000000000E+00  0.00000000000E+00  0.81630363500E+03  0.81630363500E+03  0.00000000000E+00 0. -1.
         -2   -1    0    0    0  501 -0.00000000000E+00 -0.00000000000E+00 -0.22878020203E+03  0.22878020203E+03  0.00000000000E+00 0.  1.
          6    1    1    2  502    0  0.29361518759E+03 -0.26542111544E+03  0.32111838363E+03  0.53792124257E+03  0.17200000000E+03 0. -1.
         -6    1    1    2    0  501 -0.29361518759E+03  0.26542111544E+03  0.26640504934E+03  0.50716259446E+03  0.17200000000E+03 0.  1.
</event>
<event>
 4    1  0.6352740E-002  0.1998326E+03  0.7818608E-02  0.1149880E+00
         -2   -1    0    0    0  501 -0.00000000000E+00  0.00000000000E+00  0.98745216802E+02  0.98745216802E+02  0.00000000000E+00 0.  1.
          2   -1    0    0  502    0  0.00000000000E+00 -0.00000000000E+00 -0.40453782861E+03  0.40453782861E+03  0.00000000000E+00 0. -1.
          6    1    1    2  502    0 -0.94729050117E+02 -0.37087392206E+02 -0.15745471002E+03  0.25441118942E+03  0.17200000000E+03 0. -1.
         -6    1    1    2    0  501  0.94729050117E+02  0.37087392206E+02 -0.14833790179E+03  0.24887185599E+03  0.17200000000E+03 0.  1.
</event>
<event>
 4    1  0.6352740E-002  0.2322678E+03  0.7818608E-02  0.1125054E+00
          1   -1    0    0  502    0  0.00000000000E+00  0.00000000000E+00  0.47090398040E+03  0.47090398040E+03  0.00000000000E+00 0. -1.
         -1   -1    0    0    0  501 -0.00000000000E+00 -0.00000000000E+00 -0.27988835666E+03  0.27988835666E+03  0.00000000000E+00 0.  1.
          6    1    1    2  502    0  0.76538973985E+02 -0.13603722635E+03  0.38402167304E+03  0.44879949516E+03  0.17200000000E+03 0. -1.
         -6    1    1    2    0  501 -0.76538973985E+02  0.13603722635E+03 -0.19300604930E+03  0.30199284190E+03  0.17200000000E+03 0.  1.
</event>
<event>
 4    1  0.6352740E-002  0.1817690E+03  0.7818608E-02  0.1166102E+00
         -1   -1    0    0    0  501 -0.00000000000E+00  0.00000000000E+00  0.37395419330E+02  0.37395419330E+02  0.00000000000E+00 0.  1.
          1   -1    0    0  502    0  0.00000000000E+00 -0.00000000000E+00 -0.88940775670E+03  0.88940775670E+03  0.00000000000E+00 0. -1.
          6    1    1    2  502    0 -0.43498942475E+02  0.39544962145E+02 -0.38833357499E+03  0.42876908411E+03  0.17200000000E+03 0. -1.
         -6    1    1    2    0  501  0.43498942475E+02 -0.39544962145E+02 -0.46367876238E+03  0.49803409192E+03  0.17200000000E+03 0.  1.
</event>
<event>
 4    1  0.6352740E-002  0.4387369E+03  0.7818608E-02  0.1031135E+00
          2   -1    0    0  502    0  0.00000000000E+00  0.00000000000E+00  0.27882560124E+04  0.27882560124E+04  0.00000000000E+00 0. -1.
         -2   -1    0    0    0  501 -0.00000000000E+00 -0.00000000000E+00 -0.12311559139E+03  0.12311559139E+03  0.00000000000E+00 0.  1.
          6    1    1    2  502    0 -0.36203210845E+03 -0.17843446244E+03  0.22973489591E+04  0.23388677484E+04  0.17200000000E+03 0. -1.
         -6    1    1    2    0  501  0.36203210845E+03  0.17843446244E+03  0.36779146195E+03  0.57250385537E+03  0.17200000000E+03 0.  1.
</event>
<event>
 4    1  0.6352740E-002  0.2033164E+03  0.7818608E-02  0.1146971E+00
         -2   -1    0    0    0  501 -0.00000000000E+00  0.00000000000E+00  0.13602944471E+02  0.13602944471E+02  0.00000000000E+00 0.  1.
          2   -1    0    0  502    0  0.00000000000E+00 -0.00000000000E+00 -0.39446910380E+04  0.39446910380E+04  0.00000000000E+00 0. -1.
          6    1    1    2  502    0 -0.33155497546E+02 -0.10321957015E+03 -0.29139471966E+04  0.29210316382E+04  0.17200000000E+03 0. -1.
         -6    1    1    2    0  501  0.33155497546E+02  0.10321957015E+03 -0.10171408970E+04  0.10372623443E+04  0.17200000000E+03 0.  1.
</event>
<event>
 4    1  0.6352740E-002  0.2367700E+03  0.7818608E-02  0.1121963E+00
         -1   -1    0    0    0  501 -0.00000000000E+00  0.00000000000E+00  0.41459934515E+02  0.41459934515E+02  0.00000000000E+00 0.  1.
          1   -1    0    0  502    0  0.00000000000E+00 -0.00000000000E+00 -0.13955954156E+04  0.13955954156E+04  0.00000000000E+00 0. -1.
          6    1    1    2  502    0 -0.13659658940E+03 -0.88416191890E+02 -0.80384332413E+03  0.83798815086E+03  0.17200000000E+03 0. -1.
         -6    1    1    2    0  501  0.13659658940E+03  0.88416191890E+02 -0.55029215697E+03  0.59906719928E+03  0.17200000000E+03 0.  1.
</event>
<event>
 4    1  0.6352740E-002  0.1905317E+03  0.7818608E-02  0.1157983E+00
         -2   -1    0    0    0  501 -0.00000000000E+00  0.00000000000E+00  0.36768810465E+03  0.36768810465E+03  0.00000000000E+00 0.  1.
          2   -1    0    0  502    0  0.00000000000E+00 -0.00000000000E+00 -0.29625953760E+03  0.29625953760E+03  0.00000000000E+00 0. -1.
          6    1    1    2  502    0 -0.77533713249E+02  0.26586616757E+02 -0.23535621877E+03  0.30281161568E+03  0.17200000000E+03 0. -1.
         -6    1    1    2    0  501  0.77533713249E+02 -0.26586616757E+02  0.30678478582E+03  0.36113602657E+03  0.17200000000E+03 0.  1.
</event>
<event>
 4    1  0.6352740E-002  0.2148286E+03  0.7818608E-02  0.1137798E+00
          2   -1    0    0  502    0  0.00000000000E+00  0.00000000000E+00  0.66499607301E+03  0.66499607301E+03  0.00000000000E+00 0. -1.
         -2   -1    0    0    0  501 -0.00000000000E+00 -0.00000000000E+00 -0.80495644086E+02  0.80495644086E+02  0.00000000000E+00 0.  1.
          6    1    1    2  502    0 -0.70278434519E+02  0.10783437839E+03  0.43063415928E+03  0.48124535391E+03  0.17200000000E+03 0. -1.
         -6    1    1    2    0  501  0.70278434519E+02 -0.10783437839E+03  0.15386626964E+03  0.26424636318E+03  0.17200000000E+03 0.  1.
</event>
<event>
 4    1  0.6352740E-002  0.4197408E+03  0.7818608E-02  0.1037151E+00
          2   -1    0    0  502    0  0.00000000000E+00  0.00000000000E+00  0.62060821013E+03  0.62060821013E+03  0.00000000000E+00 0. -1.
         -2   -1    0    0    0  501 -0.00000000000E+00 -0.00000000000E+00 -0.41331744001E+03  0.41331744001E+03  0.00000000000E+00 0.  1.
          6    1    1    2  502    0  0.38263162510E+03  0.13834830411E+02  0.39293730975E+03  0.57496268788E+03  0.17200000000E+03 0. -1.
         -6    1    1    2    0  501 -0.38263162510E+03 -0.13834830411E+02 -0.18564653963E+03  0.45896296227E+03  0.17200000000E+03 0.  1.
</event>
<event>
 4    1  0.6352740E-002  0.1751208E+03  0.7818608E-02  0.1172610E+00
         -2   -1    0    0    0  501 -0.00000000000E+00  0.00000000000E+00  0.19697154460E+02  0.19697154460E+02  0.00000000000E+00 0.  1.
          2   -1    0    0  502    0  0.00000000000E+00 -0.00000000000E+00 -0.17674721729E+04  0.17674721729E+04  0.00000000000E+00 0. -1.
          6    1    1    2  502    0 -0.27472761168E+02 -0.18125902892E+02 -0.56548496359E+03  0.59198018971E+03  0.17200000000E+03 0.  1.
         -6    1    1    2    0  501  0.27472761168E+02  0.18125902892E+02 -0.11822900548E+04  0.11951891376E+04  0.17200000000E+03 0. -1.
</event>
<event>
 4    1  0.6352740E-002  0.2567384E+03  0.7818608E-02  0.1109119E+00
          2   -1    0    0  502    0  0.00000000000E+00  0.00000000000E+00  0.17277823680E+04  0.17277823680E+04  0.00000000000E+00 0. -1.
         -2   -1    0    0    0  501 -0.00000000000E+00 -0.00000000000E+00 -0.44056311407E+02  0.44056311407E+02  0.00000000000E+00 0.  1.
          6    1    1    2  502    0 -0.14884922184E+03  0.11905684068E+03  0.51748297414E+03  0.57767053818E+03  0.17200000000E+03 0. -1.
         -6    1    1    2    0  501  0.14884922184E+03 -0.11905684068E+03  0.11662430825E+04  0.11941681412E+04  0.17200000000E+03 0. -1.
</event>
<event>
 4    1  0.6352740E-002  0.4484075E+03  0.7818608E-02  0.1028198E+00
          1   -1    0    0  502    0  0.00000000000E+00  0.00000000000E+00  0.55195274664E+03  0.55195274664E+03  0.00000000000E+00 0. -1.
         -1   -1    0    0    0  501 -0.00000000000E+00 -0.00000000000E+00 -0.45072189517E+03  0.45072189517E+03  0.00000000000E+00 0.  1.
          6    1    1    2  502    0  0.25711503498E+03 -0.32461842433E+03  0.27015864302E+03  0.52350258359E+03  0.17200000000E+03 0. -1.
         -6    1    1    2    0  501 -0.25711503498E+03  0.32461842433E+03 -0.16892779154E+03  0.47917205822E+03  0.17200000000E+03 0.  1.
</event>
<event>
 4    1  0.6352740E-002  0.1992851E+03  0.7818608E-02  0.1150344E+00
          2   -1    0    0  502    0  0.00000000000E+00  0.00000000000E+00  0.80358186182E+03  0.80358186182E+03  0.00000000000E+00 0. -1.
         -2   -1    0    0    0  501 -0.00000000000E+00 -0.00000000000E+00 -0.16391518197E+03  0.16391518197E+03  0.00000000000E+00 0.  1.
          6    1    1    2  502    0  0.92812120040E+02  0.38941593403E+02  0.72412992710E+03  0.75105172169E+03  0.17200000000E+03 0. -1.
         -6    1    1    2    0  501 -0.92812120040E+02 -0.38941593403E+02 -0.84463247261E+02  0.21644532210E+03  0.17200000000E+03 0.  1.
</event>
<event>
 4    1  0.6352740E-002  0.2314631E+03  0.7818608E-02  0.1125614E+00
          1   -1    0    0  502    0  0.00000000000E+00  0.00000000000E+00  0.83055834440E+03  0.83055834440E+03  0.00000000000E+00 0. -1.
         -1   -1    0    0    0  501 -0.00000000000E+00 -0.00000000000E+00 -0.21092657215E+03  0.21092657215E+03  0.00000000000E+00 0.  1.
          6    1    1    2  502    0  0.46322924468E+02 -0.14780174992E+03  0.74368613019E+03  0.77887369377E+03  0.17200000000E+03 0. -1.
         -6    1    1    2    0  501 -0.46322924468E+02  0.14780174992E+03 -0.12405435794E+03  0.26261122279E+03  0.17200000000E+03 0.  1.
</event>
<event>
 4    1  0.6352740E-002  0.1765661E+03  0.7818608E-02  0.1171168E+00
         -2   -1    0    0    0  501 -0.00000000000E+00  0.00000000000E+00  0.48790075391E+02  0.48790075391E+02  0.00000000000E+00 0.  1.
          2   -1    0    0  502    0  0.00000000000E+00 -0.00000000000E+00 -0.76181899774E+03  0.76181899774E+03  0.00000000000E+00 0. -1.
          6    1    1    2  502    0 -0.33887447842E+02 -0.21052591769E+02 -0.51926970434E+03  0.54846749821E+03  0.17200000000E+03 0. -1.
         -6    1    1    2    0  501  0.33887447842E+02  0.21052591769E+02 -0.19375921801E+03  0.26214157493E+03  0.17200000000E+03 0.  1.
</event>
<event>
 4    1  0.6352740E-002  0.2198701E+03  0.7818608E-02  0.1133980E+00
         -2   -1    0    0    0  501 -0.00000000000E+00  0.00000000000E+00  0.91405783158E+02  0.91405783158E+02  0.00000000000E+00 0.  1.
          2   -1    0    0  502    0  0.00000000000E+00 -0.00000000000E+00 -0.73963161363E+03  0.73963161363E+03  0.00000000000E+00 0. -1.
          6    1    1    2  502    0 -0.82120409232E+01 -0.13671661111E+03 -0.54591533414E+03  0.58852903192E+03  0.17200000000E+03 0. -1.
         -6    1    1    2    0  501  0.82120409232E+01  0.13671661111E+03 -0.10231049633E+03  0.24250836486E+03  0.17200000000E+03 0.  1.
</event>
<event>
 4    1  0.6352740E-002  0.2223790E+03  0.7818608E-02  0.1132122E+00
         -1   -1    0    0    0  501 -0.00000000000E+00  0.00000000000E+00  0.11589376828E+03  0.11589376828E+03  0.00000000000E+00 0.  1.
          1   -1    0    0  502    0  0.00000000000E+00 -0.00000000000E+00 -0.14636421665E+04  0.14636421665E+04  0.00000000000E+00 0. -1.
          6    1    1    2  502    0  0.34056714767E+02  0.13677930409E+03 -0.13386241314E+04  0.13569697871E+04  0.17200000000E+03 0. -1.
         -6    1    1    2    0  501 -0.34056714767E+02 -0.13677930409E+03 -0.91242667774E+01  0.22256614768E+03  0.17200000000E+03 0.  1.
</event>
<event>
 4    1  0.6352740E-002  0.2823053E+03  0.7818608E-02  0.1094436E+00
          1   -1    0    0  502    0  0.00000000000E+00  0.00000000000E+00  0.37611428128E+03  0.37611428128E+03  0.00000000000E+00 0. -1.
         -1   -1    0    0    0  501 -0.00000000000E+00 -0.00000000000E+00 -0.39189192322E+03  0.39189192322E+03  0.00000000000E+00 0.  1.
          6    1    1    2  502    0 -0.97137035587E+02  0.20168461572E+03  0.25235807205E+03  0.37865668412E+03  0.17200000000E+03 0. -1.
         -6    1    1    2    0  501  0.97137035587E+02 -0.20168461572E+03 -0.26813571399E+03  0.38934952038E+03  0.17200000000E+03 0.  1.
</event>
<event>
 4    1  0.6352740E-002  0.1119234E+04  0.7818608E-02  0.9186646E-01
          2   -1    0    0  502    0  0.00000000000E+00  0.00000000000E+00  0.22866901318E+04  0.22866901318E+04  0.00000000000E+00 0. -1.
         -2   -1    0    0    0  501 -0.00000000000E+00 -0.00000000000E+00 -0.11877791914E+04  0.11877791914E+04  0.00000000000E+00 0.  1.
          6    1    1    2  502    0  0.35691983322E+03  0.10467606883E+04  0.18246263451E+04  0.21405478283E+04  0.17200000000E+03 0. -1.
         -6    1    1    2    0  501 -0.35691983322E+03 -0.10467606883E+04 -0.72571540468E+03  0.13339214949E+04  0.17200000000E+03 0.  1.
</event>
<event>
 4    1  0.6352740E-002  0.4399325E+03  0.7818608E-02  0.1030768E+00
         -1   -1    0    0    0  501 -0.00000000000E+00  0.00000000000E+00  0.19686877253E+03  0.19686877253E+03  0.00000000000E+00 0.  1.
          1   -1    0    0  502    0  0.00000000000E+00 -0.00000000000E+00 -0.10454388853E+04  0.10454388853E+04  0.00000000000E+00 0. -1.
          6    1    1    2  502    0  0.33144869025E+03  0.23259057330E+03 -0.57597210037E+03  0.72476511330E+03  0.17200000000E+03 0. -1.
         -6    1    1    2    0  501 -0.33144869025E+03 -0.23259057330E+03 -0.27259801242E+03  0.51754254456E+03  0.17200000000E+03 0.  1.
</event>
<event>
 4    1  0.6352740E-002  0.1729147E+03  0.7818608E-02  0.1174842E+00
         -2   -1    0    0    0  501 -0.00000000000E+00  0.00000000000E+00  0.59641665668E+02  0.59641665668E+02  0.00000000000E+00 0.  1.
          2   -1    0    0  502    0  0.00000000000E+00 -0.00000000000E+00 -0.54000590886E+03  0.54000590886E+03  0.00000000000E+00 0. -1.
          6    1    1    2  502    0 -0.17632531401E+02 -0.21399970613E+01 -0.32043307559E+03  0.36411102933E+03  0.17200000000E+03 0. -1.
         -6    1    1    2    0  501  0.17632531401E+02  0.21399970613E+01 -0.15993116760E+03  0.23553654519E+03  0.17200000000E+03 0.  1.
</event>
<event>
 4    1  0.6352740E-002  0.1945153E+03  0.7818608E-02  0.1154451E+00
         -1   -1    0    0    0  501 -0.00000000000E+00  0.00000000000E+00  0.14993439354E+03  0.14993439354E+03  0.00000000000E+00 0.  1.
          1   -1    0    0  502    0  0.00000000000E+00 -0.00000000000E+00 -0.87694224856E+03  0.87694224856E+03  0.00000000000E+00 0. -1.
          6    1    1    2  502    0  0.41041231094E+02  0.81042071926E+02 -0.79681569621E+03  0.82021427310E+03  0.17200000000E+03 0. -1.
         -6    1    1    2    0  501 -0.41041231094E+02 -0.81042071926E+02  0.69807841183E+02  0.20666236900E+03  0.17200000000E+03 0.  1.
</event>
<event>
 4    1  0.6352740E-002  0.3311336E+03  0.7818608E-02  0.1070636E+00
          1   -1    0    0  502    0  0.00000000000E+00  0.00000000000E+00  0.18761726503E+04  0.18761726503E+04  0.00000000000E+00 0. -1.
         -1   -1    0    0    0  501 -0.00000000000E+00 -0.00000000000E+00 -0.58503027640E+02  0.58503027640E+02  0.00000000000E+00 0.  1.
          6    1    1    2  502    0  0.53029569694E+02  0.27794487381E+03  0.93977532762E+03  0.99640712289E+03  0.17200000000E+03 0. -1.
         -6    1    1    2    0  501 -0.53029569694E+02 -0.27794487381E+03  0.87789429507E+03  0.93826855508E+03  0.17200000000E+03 0.  1.
</event>
<event>
 4    1  0.6352740E-002  0.3832424E+03  0.7818608E-02  0.1049742E+00
         -2   -1    0    0    0  501 -0.00000000000E+00  0.00000000000E+00  0.33277105578E+03  0.33277105578E+03  0.00000000000E+00 0.  1.
          2   -1    0    0  502    0  0.00000000000E+00 -0.00000000000E+00 -0.46650818861E+03  0.46650818861E+03  0.00000000000E+00 0. -1.
          6    1    1    2  502    0 -0.30017317890E+02  0.34115935337E+03 -0.15964052422E+03  0.41516242693E+03  0.17200000000E+03 0. -1.
         -6    1    1    2    0  501  0.30017317890E+02 -0.34115935337E+03  0.25903391390E+02  0.38411681745E+03  0.17200000000E+03 0.  1.
</event>
<event>
 4    1  0.6352740E-002  0.2681894E+03  0.7818608E-02  0.1102320E+00
          1   -1    0    0  502    0  0.00000000000E+00  0.00000000000E+00  0.55271844125E+03  0.55271844125E+03  0.00000000000E+00 0. -1.
         -1   -1    0    0    0  501 -0.00000000000E+00 -0.00000000000E+00 -0.28235866110E+03  0.28235866110E+03  0.00000000000E+00 0.  1.
          6    1    1    2  502    0  0.14006399786E+03 -0.15074361442E+03  0.44175961957E+03  0.51679504861E+03  0.17200000000E+03 0. -1.
         -6    1    1    2    0  501 -0.14006399786E+03  0.15074361442E+03 -0.17139983942E+03  0.31828205375E+03  0.17200000000E+03 0.  1.
</event>
<event>
 4    1  0.6352740E-002  0.2055454E+03  0.7818608E-02  0.1145143E+00
          1   -1    0    0  502    0  0.00000000000E+00  0.00000000000E+00  0.35773076009E+03  0.35773076009E+03  0.00000000000E+00 0. -1.
         -1   -1    0    0    0  501 -0.00000000000E+00 -0.00000000000E+00 -0.26876038571E+03  0.26876038571E+03  0.00000000000E+00 0.  1.
          6    1    1    2  502    0 -0.10448230184E+03  0.41813456502E+02  0.27901506095E+03  0.34655204628E+03  0.17200000000E+03 0. -1.
         -6    1    1    2    0  501  0.10448230184E+03 -0.41813456502E+02 -0.19004468658E+03  0.27993909951E+03  0.17200000000E+03 0.  1.
</event>
<event>
 4    1  0.6352740E-002  0.1879288E+03  0.7818608E-02  0.1160343E+00
         -2   -1    0    0    0  501 -0.00000000000E+00  0.00000000000E+00  0.17898540648E+02  0.17898540648E+02  0.00000000000E+00 0.  1.
          2   -1    0    0  502    0  0.00000000000E+00 -0.00000000000E+00 -0.21719567030E+04  0.21719567030E+04  0.00000000000E+00 0. -1.
          6    1    1    2  502    0  0.50377431683E+02 -0.56527513924E+02 -0.14082594744E+04  0.14207434647E+04  0.17200000000E+03 0. -1.
         -6    1    1    2    0  501 -0.50377431683E+02  0.56527513924E+02 -0.74579868794E+03  0.76911177887E+03  0.17200000000E+03 0.  1.
</event>
<event>
 4    1  0.6352740E-002  0.1754991E+03  0.7818608E-02  0.1172232E+00
          2   -1    0    0  502    0  0.00000000000E+00  0.00000000000E+00  0.21300594681E+03  0.21300594681E+03  0.00000000000E+00 0. -1.
         -2   -1    0    0    0  501 -0.00000000000E+00 -0.00000000000E+00 -0.14823397163E+03  0.14823397163E+03  0.00000000000E+00 0.  1.
          6    1    1    2  502    0  0.26367095007E+02 -0.22818765158E+02  0.40922595588E+01  0.17554676394E+03  0.17200000000E+03 0.  1.
         -6    1    1    2    0  501 -0.26367095007E+02  0.22818765158E+02  0.60679715621E+02  0.18569315451E+03  0.17200000000E+03 0. -1.
</event>
<event>
 4    1  0.6352740E-002  0.3394038E+03  0.7818608E-02  0.1067050E+00
         -1   -1    0    0    0  501 -0.00000000000E+00  0.00000000000E+00  0.70199308000E+03  0.70199308000E+03  0.00000000000E+00 0.  1.
          1   -1    0    0  502    0  0.00000000000E+00 -0.00000000000E+00 -0.16841738169E+03  0.16841738169E+03  0.00000000000E+00 0. -1.
          6    1    1    2  502    0  0.92223888354E+02 -0.27767908374E+03  0.19708275402E+03  0.39247487953E+03  0.17200000000E+03 0. -1.
         -6    1    1    2    0  501 -0.92223888354E+02  0.27767908374E+03  0.33649294429E+03  0.47793558215E+03  0.17200000000E+03 0. -1.
</event>
<event>
 4    1  0.6352740E-002  0.2013110E+03  0.7818608E-02  0.1148638E+00
          1   -1    0    0  502    0  0.00000000000E+00  0.00000000000E+00  0.11034477364E+04  0.11034477364E+04  0.00000000000E+00 0. -1.
         -1   -1    0    0    0  501 -0.00000000000E+00 -0.00000000000E+00 -0.40071707881E+02  0.40071707881E+02  0.00000000000E+00 0.  1.
          6    1    1    2  502    0  0.44961380698E+02  0.94448839628E+02  0.69687903387E+03  0.72537335001E+03  0.17200000000E+03 0. -1.
         -6    1    1    2    0  501 -0.44961380698E+02 -0.94448839628E+02  0.36649699462E+03  0.41814609424E+03  0.17200000000E+03 0.  1.
</event>
<event>
 4    1  0.6352740E-002  0.3465216E+03  0.7818608E-02  0.1064052E+00
         -2   -1    0    0    0  501 -0.00000000000E+00  0.00000000000E+00  0.43802046368E+03  0.43802046368E+03  0.00000000000E+00 0.  1.
          2   -1    0    0  502    0  0.00000000000E+00 -0.00000000000E+00 -0.14308141559E+04  0.14308141559E+04  0.00000000000E+00 0. -1.
          6    1    1    2  502    0  0.29895231137E+03 -0.33477188236E+02 -0.13365442999E+04  0.13807345408E+04  0.17200000000E+03 0. -1.
         -6    1    1    2    0  501 -0.29895231137E+03  0.33477188236E+02  0.34375060768E+03  0.48810007876E+03  0.17200000000E+03 0.  1.
</event>
<event>
 4    1  0.6352740E-002  0.2619578E+03  0.7818608E-02  0.1105973E+00
         -1   -1    0    0    0  501 -0.00000000000E+00  0.00000000000E+00  0.17508026126E+03  0.17508026126E+03  0.00000000000E+00 0.  1.
          1   -1    0    0  502    0  0.00000000000E+00 -0.00000000000E+00 -0.39672959531E+03  0.39672959531E+03  0.00000000000E+00 0. -1.
          6    1    1    2  502    0  0.82067301934E+02  0.17972985634E+03 -0.14222173484E+03  0.29807530117E+03  0.17200000000E+03 0. -1.
         -6    1    1    2    0  501 -0.82067301934E+02 -0.17972985634E+03 -0.79427599207E+02  0.27373455540E+03  0.17200000000E+03 0.  1.
</event>
<event>
 4    1  0.6352740E-002  0.2262866E+03  0.7818608E-02  0.1129281E+00
          4   -1    0    0  502    0  0.00000000000E+00  0.00000000000E+00  0.47681841374E+03  0.47681841374E+03  0.00000000000E+00 0. -1.
         -4   -1    0    0    0  501 -0.00000000000E+00 -0.00000000000E+00 -0.16026360490E+03  0.16026360490E+03  0.00000000000E+00 0.  1.
          6    1    1    2  502    0 -0.68468241837E+02 -0.13012971504E+03  0.34124171431E+03  0.40945274509E+03  0.17200000000E+03 0. -1.
         -6    1    1    2    0  501  0.68468241837E+02  0.13012971504E+03 -0.24686905471E+02  0.22762927355E+03  0.17200000000E+03 0.  1.
</event>
<event>
 4    1  0.6352740E-002  0.2625434E+03  0.7818608E-02  0.1105625E+00
         -2   -1    0    0    0  501 -0.00000000000E+00  0.00000000000E+00  0.52082756619E+02  0.52082756619E+02  0.00000000000E+00 0.  1.
          2   -1    0    0  502    0  0.00000000000E+00 -0.00000000000E+00 -0.13859699111E+04  0.13859699111E+04  0.00000000000E+00 0. -1.
          6    1    1    2  502    0  0.87012125589E+02 -0.17825246611E+03 -0.51423319177E+03  0.57737754303E+03  0.17200000000E+03 0. -1.
         -6    1    1    2    0  501 -0.87012125589E+02  0.17825246611E+03 -0.81965396272E+03  0.86067512470E+03  0.17200000000E+03 0.  1.
</event>
<event>
 4    1  0.6352740E-002  0.1749227E+03  0.7818608E-02  0.1172809E+00
         -1   -1    0    0    0  501 -0.00000000000E+00  0.00000000000E+00  0.26653732583E+02  0.26653732583E+02  0.00000000000E+00 0.  1.
          1   -1    0    0  502    0  0.00000000000E+00 -0.00000000000E+00 -0.16758759795E+04  0.16758759795E+04  0.00000000000E+00 0. -1.
          6    1    1    2  502    0 -0.21258598820E+02 -0.23706878959E+02 -0.13023802295E+04  0.13140746578E+04  0.17200000000E+03 0. -1.
         -6    1    1    2    0  501  0.21258598820E+02  0.23706878959E+02 -0.34684201739E+03  0.38845505423E+03  0.17200000000E+03 0.  1.
</event>
<event>
 4    1  0.6352740E-002  0.1786434E+03  0.7818608E-02  0.1169122E+00
         -1   -1    0    0    0  501 -0.00000000000E+00  0.00000000000E+00  0.41319882624E+02  0.41319882624E+02  0.00000000000E+00 0.  1.
          1   -1    0    0  502    0  0.00000000000E+00 -0.00000000000E+00 -0.79066973500E+03  0.79066973500E+03  0.00000000000E+00 0. -1.
          6    1    1    2  502    0  0.48247303137E+02 -0.12855157570E+01 -0.43799442632E+03  0.47302491721E+03  0.17200000000E+03 0. -1.
         -6    1    1    2    0  501 -0.48247303137E+02  0.12855157570E+01 -0.31135542605E+03  0.35896470042E+03  0.17200000000E+03 0.  1.
</event>
<event>
 4    1  0.6352740E-002  0.2087537E+03  0.7818608E-02  0.1142557E+00
          1   -1    0    0  502    0  0.00000000000E+00  0.00000000000E+00  0.50840024584E+03  0.50840024584E+03  0.00000000000E+00 0. -1.
         -1   -1    0    0    0  501 -0.00000000000E+00 -0.00000000000E+00 -0.21384337888E+03  0.21384337888E+03  0.00000000000E+00 0.  1.
          6    1    1    2  502    0 -0.18481679181E+02 -0.11684402791E+03  0.42680724332E+03  0.47512369155E+03  0.17200000000E+03 0. -1.
         -6    1    1    2    0  501  0.18481679181E+02  0.11684402791E+03 -0.13225037636E+03  0.24711993317E+03  0.17200000000E+03 0.  1.
</event>
<event>
 4    1  0.6352740E-002  0.5092489E+03  0.7818608E-02  0.1011393E+00
          2   -1    0    0  502    0  0.00000000000E+00  0.00000000000E+00  0.10453985905E+04  0.10453985905E+04  0.00000000000E+00 0. -1.
         -2   -1    0    0    0  501 -0.00000000000E+00 -0.00000000000E+00 -0.37428248501E+03  0.37428248501E+03  0.00000000000E+00 0.  1.
          6    1    1    2  502    0  0.47922083942E+03 -0.98918195767E+01  0.74775825506E+03  0.90469711453E+03  0.17200000000E+03 0. -1.
         -6    1    1    2    0  501 -0.47922083942E+03  0.98918195767E+01 -0.76642149524E+02  0.51498396103E+03  0.17200000000E+03 0.  1.
</event>
<event>
 4    1  0.6352740E-002  0.1731339E+03  0.7818608E-02  0.1174619E+00
          2   -1    0    0  502    0  0.00000000000E+00  0.00000000000E+00  0.45077725759E+03  0.45077725759E+03  0.00000000000E+00 0. -1.
         -2   -1    0    0    0  501 -0.00000000000E+00 -0.00000000000E+00 -0.74054283004E+02  0.74054283004E+02  0.00000000000E+00 0.  1.
          6    1    1    2  502    0  0.13752267662E+02 -0.14220034252E+02  0.27219115618E+03  0.32258853008E+03  0.17200000000E+03 0. -1.
         -6    1    1    2    0  501 -0.13752267662E+02  0.14220034252E+02  0.10453181840E+03  0.20224301051E+03  0.17200000000E+03 0.  1.
</event>
<event>
 4    1  0.6352740E-002  0.2489798E+03  0.7818608E-02  0.1113951E+00
          2   -1    0    0  502    0  0.00000000000E+00  0.00000000000E+00  0.19984794541E+04  0.19984794541E+04  0.00000000000E+00 0. -1.
         -2   -1    0    0    0  501 -0.00000000000E+00 -0.00000000000E+00 -0.34048926256E+02  0.34048926256E+02  0.00000000000E+00 0.  1.
          6    1    1    2  502    0  0.26370889308E+01  0.17999992877E+03  0.12853722327E+04  0.13092641846E+04  0.17200000000E+03 0. -1.
         -6    1    1    2    0  501 -0.26370889308E+01 -0.17999992877E+03  0.67905829514E+03  0.72326419571E+03  0.17200000000E+03 0.  1.
</event>
<event>
 4    1  0.6352740E-002  0.2918510E+03  0.7818608E-02  0.1089387E+00
         -2   -1    0    0    0  501 -0.00000000000E+00  0.00000000000E+00  0.40378070541E+03  0.40378070541E+03  0.00000000000E+00 0.  1.
          2   -1    0    0  502    0  0.00000000000E+00 -0.00000000000E+00 -0.70866180775E+03  0.70866180775E+03  0.00000000000E+00 0. -1.
          6    1    1    2  502    0  0.23569625583E+03 -0.63479272292E+01 -0.61858186984E+03  0.68397408641E+03  0.17200000000E+03 0. -1.
         -6    1    1    2    0  501 -0.23569625583E+03  0.63479272292E+01  0.31370076749E+03  0.42846842675E+03  0.17200000000E+03 0.  1.
</event>
<event>
 4    1  0.6352740E-002  0.2341989E+03  0.7818608E-02  0.1123719E+00
          2   -1    0    0  502    0  0.00000000000E+00  0.00000000000E+00  0.58257412716E+03  0.58257412716E+03  0.00000000000E+00 0. -1.
         -2   -1    0    0    0  501 -0.00000000000E+00 -0.00000000000E+00 -0.16996162463E+03  0.16996162463E+03  0.00000000000E+00 0.  1.
          6    1    1    2  502    0 -0.27903657219E+02  0.15648166482E+03  0.45760523390E+03  0.51405415630E+03  0.17200000000E+03 0. -1.
         -6    1    1    2    0  501  0.27903657219E+02 -0.15648166482E+03 -0.44992731367E+02  0.23848159549E+03  0.17200000000E+03 0.  1.
</event>
<event>
 4    1  0.6352740E-002  0.2290789E+03  0.7818608E-02  0.1127290E+00
         -1   -1    0    0    0  501 -0.00000000000E+00  0.00000000000E+00  0.19612497183E+03  0.19612497183E+03  0.00000000000E+00 0.  1.
          1   -1    0    0  502    0  0.00000000000E+00 -0.00000000000E+00 -0.29205455152E+03  0.29205455152E+03  0.00000000000E+00 0. -1.
          6    1    1    2  502    0  0.70331525912E+02  0.13396497150E+03 -0.11863959614E+03  0.25797769457E+03  0.17200000000E+03 0. -1.
         -6    1    1    2    0  501 -0.70331525912E+02 -0.13396497150E+03  0.22710016451E+02  0.23020182878E+03  0.17200000000E+03 0. -1.
</event>
<event>
 4    1  0.6352740E-002  0.1760522E+03  0.7818608E-02  0.1171679E+00
          1   -1    0    0  502    0  0.00000000000E+00  0.00000000000E+00  0.12239607465E+04  0.12239607465E+04  0.00000000000E+00 0. -1.
         -1   -1    0    0    0  501 -0.00000000000E+00 -0.00000000000E+00 -0.29238085440E+02  0.29238085440E+02  0.00000000000E+00 0.  1.
          6    1    1    2  502    0 -0.28566743407E+02  0.24378286128E+02  0.36807082790E+03  0.40800795827E+03  0.17200000000E+03 0.  1.
         -6    1    1    2    0  501  0.28566743407E+02 -0.24378286128E+02  0.82665183318E+03  0.84519087369E+03  0.17200000000E+03 0. -1.
</event>
<event>
 4    1  0.6352740E-002  0.3622994E+03  0.7818608E-02  0.1057677E+00
         -2   -1    0    0    0  501 -0.00000000000E+00  0.00000000000E+00  0.36401909304E+03  0.36401909304E+03  0.00000000000E+00 0.  1.
          2   -1    0    0  502    0  0.00000000000E+00 -0.00000000000E+00 -0.21578939090E+04  0.21578939090E+04  0.00000000000E+00 0. -1.
          6    1    1    2  502    0 -0.77239723580E+02  0.30937176294E+03 -0.20477274084E+04  0.20795308129E+04  0.17200000000E+03 0. -1.
         -6    1    1    2    0  501  0.77239723580E+02 -0.30937176294E+03  0.25385259244E+03  0.44238218917E+03  0.17200000000E+03 0.  1.
</event>
<event>
 4    1  0.6352740E-002  0.2202476E+03  0.7818608E-02  0.1133699E+00
          3   -1    0    0  502    0  0.00000000000E+00  0.00000000000E+00  0.12859203248E+03  0.12859203248E+03  0.00000000000E+00 0. -1.
         -3   -1    0    0    0  501 -0.00000000000E+00 -0.00000000000E+00 -0.47917638473E+03  0.47917638473E+03  0.00000000000E+00 0.  1.
          6    1    1    2  502    0  0.69134433775E+02 -0.11893449523E+03 -0.35126125200E+02  0.22303100403E+03  0.17200000000E+03 0. -1.
         -6    1    1    2    0  501 -0.69134433775E+02  0.11893449523E+03 -0.31545822704E+03  0.38473741318E+03  0.17200000000E+03 0.  1.
</event>
<event>
 4    1  0.6352740E-002  0.2958694E+03  0.7818608E-02  0.1087324E+00
          2   -1    0    0  502    0  0.00000000000E+00  0.00000000000E+00  0.22525646247E+03  0.22525646247E+03  0.00000000000E+00 0. -1.
         -2   -1    0    0    0  501 -0.00000000000E+00 -0.00000000000E+00 -0.39057768159E+03  0.39057768159E+03  0.00000000000E+00 0.  1.
          6    1    1    2  502    0  0.91906700131E+02 -0.22250364821E+03 -0.10447149381E+03  0.31377222314E+03  0.17200000000E+03 0.  1.
         -6    1    1    2    0  501 -0.91906700131E+02  0.22250364821E+03 -0.60849725312E+02  0.30206192092E+03  0.17200000000E+03 0. -1.
</event>
<event>
 4    1  0.6352740E-002  0.1858804E+03  0.7818608E-02  0.1162230E+00
          1   -1    0    0  502    0  0.00000000000E+00  0.00000000000E+00  0.18945761300E+04  0.18945761300E+04  0.00000000000E+00 0. -1.
         -1   -1    0    0    0  501 -0.00000000000E+00 -0.00000000000E+00 -0.23941084741E+02  0.23941084741E+02  0.00000000000E+00 0.  1.
          6    1    1    2  502    0  0.28768416057E+02 -0.64342066304E+02  0.14035418741E+04  0.14157970602E+04  0.17200000000E+03 0. -1.
         -6    1    1    2    0  501 -0.28768416057E+02  0.64342066304E+02  0.46709317114E+03  0.50272015455E+03  0.17200000000E+03 0.  1.
</event>
<event>
 4    1  0.6352740E-002  0.2185916E+03  0.7818608E-02  0.1134937E+00
          1   -1    0    0  502    0  0.00000000000E+00  0.00000000000E+00  0.27260564458E+04  0.27260564458E+04  0.00000000000E+00 0. -1.
         -1   -1    0    0    0  501 -0.00000000000E+00 -0.00000000000E+00 -0.28687775238E+02  0.28687775238E+02  0.00000000000E+00 0.  1.
          6    1    1    2  502    0 -0.13324519063E+03  0.21071729378E+02  0.22077585982E+04  0.22185536564E+04  0.17200000000E+03 0. -1.
         -6    1    1    2    0  501  0.13324519063E+03 -0.21071729378E+02  0.48961007242E+03  0.53619056465E+03  0.17200000000E+03 0.  1.
</event>
<event>
 4    1  0.6352740E-002  0.2472451E+03  0.7818608E-02  0.1115058E+00
         -1   -1    0    0    0  501 -0.00000000000E+00  0.00000000000E+00  0.44923181974E+02  0.44923181974E+02  0.00000000000E+00 0.  1.
          1   -1    0    0  502    0  0.00000000000E+00 -0.00000000000E+00 -0.14779957464E+04  0.14779957464E+04  0.00000000000E+00 0. -1.
          6    1    1    2  502    0 -0.13559718315E+03  0.11471513099E+03 -0.93098333958E+03  0.96325496933E+03  0.17200000000E+03 0. -1.
         -6    1    1    2    0  501  0.13559718315E+03 -0.11471513099E+03 -0.50208922486E+03  0.55966395907E+03  0.17200000000E+03 0.  1.
</event>
<event>
 4    1  0.6352740E-002  0.1875437E+03  0.7818608E-02  0.1160696E+00
          2   -1    0    0  502    0  0.00000000000E+00  0.00000000000E+00  0.15914197750E+04  0.15914197750E+04  0.00000000000E+00 0. -1.
         -2   -1    0    0    0  501 -0.00000000000E+00 -0.00000000000E+00 -0.67138949060E+02  0.67138949060E+02  0.00000000000E+00 0.  1.
          6    1    1    2  502    0  0.37109150794E+02 -0.64896318915E+02  0.82935352827E+02  0.20506314645E+03  0.17200000000E+03 0.  1.
         -6    1    1    2    0  501 -0.37109150794E+02  0.64896318915E+02  0.14413454731E+04  0.14534955776E+04  0.17200000000E+03 0. -1.
</event>
<event>
 4    1  0.6352740E-002  0.3643176E+03  0.7818608E-02  0.1056887E+00
         -2   -1    0    0    0  501 -0.00000000000E+00  0.00000000000E+00  0.10816181874E+03  0.10816181874E+03  0.00000000000E+00 0.  1.
          2   -1    0    0  502    0  0.00000000000E+00 -0.00000000000E+00 -0.17178917568E+04  0.17178917568E+04  0.00000000000E+00 0. -1.
          6    1    1    2  502    0 -0.36142715291E+02 -0.31911913645E+03 -0.12928722139E+04  0.13432222007E+04  0.17200000000E+03 0. -1.
         -6    1    1    2    0  501  0.36142715291E+02  0.31911913645E+03 -0.31685772415E+03  0.48283137478E+03  0.17200000000E+03 0.  1.
</event>
<event>
 4    1  0.6352740E-002  0.6561091E+03  0.7818608E-02  0.9795383E-01
         -2   -1    0    0    0  501 -0.00000000000E+00  0.00000000000E+00  0.56543705241E+03  0.56543705241E+03  0.00000000000E+00 0.  1.
          2   -1    0    0  502    0  0.00000000000E+00 -0.00000000000E+00 -0.92440279529E+03  0.92440279529E+03  0.00000000000E+00 0. -1.
          6    1    1    2  502    0  0.57841128143E+03  0.25755679983E+03 -0.49236566129E+03  0.82030668657E+03  0.17200000000E+03 0. -1.
         -6    1    1    2    0  501 -0.57841128143E+03 -0.25755679983E+03  0.13339991841E+03  0.66953316113E+03  0.17200000000E+03 0.  1.
</event>
<event>
 4    1  0.6352740E-002  0.2993274E+03  0.7818608E-02  0.1085577E+00
         -1   -1    0    0    0  501 -0.00000000000E+00  0.00000000000E+00  0.14987934812E+03  0.14987934812E+03  0.00000000000E+00 0.  1.
          1   -1    0    0  502    0  0.00000000000E+00 -0.00000000000E+00 -0.77540634887E+03  0.77540634887E+03  0.00000000000E+00 0. -1.
          6    1    1    2  502    0  0.19317947271E+03 -0.15064722877E+03 -0.53418429181E+03  0.61233140849E+03  0.17200000000E+03 0. -1.
         -6    1    1    2    0  501 -0.19317947271E+03  0.15064722877E+03 -0.91342708940E+02  0.31295428850E+03  0.17200000000E+03 0.  1.
</event>
<event>
 4    1  0.6352740E-002  0.3351385E+03  0.7818608E-02  0.1068886E+00
         -2   -1    0    0    0  501 -0.00000000000E+00  0.00000000000E+00  0.93331311025E+02  0.93331311025E+02  0.00000000000E+00 0.  1.
          2   -1    0    0  502    0  0.00000000000E+00 -0.00000000000E+00 -0.12767450443E+04  0.12767450443E+04  0.00000000000E+00 0. -1.
          6    1    1    2  502    0 -0.27618024441E+03 -0.80363384636E+02 -0.75586258626E+03  0.82682891235E+03  0.17200000000E+03 0. -1.
         -6    1    1    2    0  501  0.27618024441E+03  0.80363384636E+02 -0.42755114706E+03  0.54324744301E+03  0.17200000000E+03 0.  1.
</event>
<event>
 4    1  0.6352740E-002  0.2152473E+03  0.7818608E-02  0.1137477E+00
          1   -1    0    0  502    0  0.00000000000E+00  0.00000000000E+00  0.82242993268E+03  0.82242993268E+03  0.00000000000E+00 0. -1.
         -1   -1    0    0    0  501 -0.00000000000E+00 -0.00000000000E+00 -0.56610410684E+02  0.56610410684E+02  0.00000000000E+00 0.  1.
          6    1    1    2  502    0 -0.10207599346E+03 -0.79547928756E+02  0.35223923839E+03  0.41280002722E+03  0.17200000000E+03 0. -1.
         -6    1    1    2    0  501  0.10207599346E+03  0.79547928756E+02  0.41358028361E+03  0.46624031614E+03  0.17200000000E+03 0.  1.
</event>
<event>
 4    1  0.6352740E-002  0.2432433E+03  0.7818608E-02  0.1117651E+00
          1   -1    0    0  502    0  0.00000000000E+00  0.00000000000E+00  0.25124745509E+04  0.25124745509E+04  0.00000000000E+00 0. -1.
         -1   -1    0    0    0  501 -0.00000000000E+00 -0.00000000000E+00 -0.47602324819E+02  0.47602324819E+02  0.00000000000E+00 0.  1.
          6    1    1    2  502    0 -0.14927663701E+03  0.85438702429E+02  0.21423343248E+04  0.21560991733E+04  0.17200000000E+03 0. -1.
         -6    1    1    2    0  501  0.14927663701E+03 -0.85438702429E+02  0.32253790132E+03  0.40397770238E+03  0.17200000000E+03 0.  1.
</event>
<event>
 4    1  0.6352740E-002  0.2101411E+03  0.7818608E-02  0.1141454E+00
          4   -1    0    0  502    0  0.00000000000E+00  0.00000000000E+00  0.47020567266E+03  0.47020567266E+03  0.00000000000E+00 0. -1.
         -4   -1    0    0    0  501 -0.00000000000E+00 -0.00000000000E+00 -0.33782201607E+03  0.33782201607E+03  0.00000000000E+00 0.  1.
          6    1    1    2  502    0 -0.11799026036E+03  0.25565300676E+02  0.40948452952E+03  0.46025739110E+03  0.17200000000E+03 0. -1.
         -6    1    1    2    0  501  0.11799026036E+03 -0.25565300676E+02 -0.27710087293E+03  0.34777029763E+03  0.17200000000E+03 0.  1.
</event>
<event>
 4    1  0.6352740E-002  0.2208036E+03  0.7818608E-02  0.1133285E+00
         -2   -1    0    0    0  501 -0.00000000000E+00  0.00000000000E+00  0.13204068849E+03  0.13204068849E+03  0.00000000000E+00 0.  1.
          2   -1    0    0  502    0  0.00000000000E+00 -0.00000000000E+00 -0.36927951056E+03  0.36927951056E+03  0.00000000000E+00 0. -1.
          6    1    1    2  502    0  0.11715746957E+03 -0.73785744149E+02 -0.11590639865E+03  0.24937622574E+03  0.17200000000E+03 0. -1.
         -6    1    1    2    0  501 -0.11715746957E+03  0.73785744149E+02 -0.12133242342E+03  0.25194397331E+03  0.17200000000E+03 0. -1.
</event>
<event>
 4    1  0.6352740E-002  0.3877886E+03  0.7818608E-02  0.1048092E+00
         -1   -1    0    0    0  501 -0.00000000000E+00  0.00000000000E+00  0.72479342863E+03  0.72479342863E+03  0.00000000000E+00 0.  1.
          1   -1    0    0  502    0  0.00000000000E+00 -0.00000000000E+00 -0.20959968848E+03  0.20959968848E+03  0.00000000000E+00 0. -1.
          6    1    1    2  502    0  0.80473996230E+02 -0.33811231209E+03  0.21061175932E+03  0.44129050842E+03  0.17200000000E+03 0. -1.
         -6    1    1    2    0  501 -0.80473996230E+02  0.33811231209E+03  0.30458198082E+03  0.49310260869E+03  0.17200000000E+03 0.  1.
</event>
<event>
 4    1  0.6352740E-002  0.4789443E+03  0.7818608E-02  0.1019426E+00
         -2   -1    0    0    0  501 -0.00000000000E+00  0.00000000000E+00  0.32160156053E+03  0.32160156053E+03  0.00000000000E+00 0.  1.
          2   -1    0    0  502    0  0.00000000000E+00 -0.00000000000E+00 -0.71337473043E+03  0.71337473043E+03  0.00000000000E+00 0. -1.
          6    1    1    2  502    0 -0.27731174023E+03  0.35057361199E+03 -0.20225705474E+03  0.51989958154E+03  0.17200000000E+03 0. -1.
         -6    1    1    2    0  501  0.27731174023E+03 -0.35057361199E+03 -0.18951611516E+03  0.51507670943E+03  0.17200000000E+03 0.  1.
</event>
<event>
 4    1  0.6352740E-002  0.2155110E+03  0.7818608E-02  0.1137275E+00
         -2   -1    0    0    0  501 -0.00000000000E+00  0.00000000000E+00  0.49561980727E+02  0.49561980727E+02  0.00000000000E+00 0.  1.
          2   -1    0    0  502    0  0.00000000000E+00 -0.00000000000E+00 -0.22603767114E+04  0.22603767114E+04  0.00000000000E+00 0. -1.
          6    1    1    2  502    0 -0.12962746140E+03  0.75966888018E+01 -0.19891053604E+04  0.20007461416E+04  0.17200000000E+03 0. -1.
         -6    1    1    2    0  501  0.12962746140E+03 -0.75966888018E+01 -0.22170937032E+03  0.30919255055E+03  0.17200000000E+03 0.  1.
</event>
<event>
 4    1  0.6352740E-002  0.2759949E+03  0.7818608E-02  0.1097897E+00
         -1   -1    0    0    0  501 -0.00000000000E+00  0.00000000000E+00  0.11614323390E+04  0.11614323390E+04  0.00000000000E+00 0.  1.
          1   -1    0    0  502    0  0.00000000000E+00 -0.00000000000E+00 -0.66029105948E+02  0.66029105948E+02  0.00000000000E+00 0. -1.
          6    1    1    2  502    0 -0.14035371077E+03 -0.16398173121E+03  0.59800382767E+03  0.65862109760E+03  0.17200000000E+03 0.  1.
         -6    1    1    2    0  501  0.14035371077E+03  0.16398173121E+03  0.49739940541E+03  0.56884034738E+03  0.17200000000E+03 0.  1.
</event>
<event>
 4    1  0.6352740E-002  0.5989527E+03  0.7818608E-02  0.9907581E-01
         -2   -1    0    0    0  501 -0.00000000000E+00  0.00000000000E+00  0.12371811684E+04  0.12371811684E+04  0.00000000000E+00 0.  1.
          2   -1    0    0  502    0  0.00000000000E+00 -0.00000000000E+00 -0.31192765765E+03  0.31192765765E+03  0.00000000000E+00 0. -1.
          6    1    1    2  502    0  0.49209445067E+03  0.29496332877E+03  0.25711963891E+03  0.65180888488E+03  0.17200000000E+03 0. -1.
         -6    1    1    2    0  501 -0.49209445067E+03 -0.29496332877E+03  0.66813387179E+03  0.89729994112E+03  0.17200000000E+03 0.  1.
</event>
<event>
 4    1  0.6352740E-002  0.2155490E+03  0.7818608E-02  0.1137246E+00
          2   -1    0    0  502    0  0.00000000000E+00  0.00000000000E+00  0.11197229686E+04  0.11197229686E+04  0.00000000000E+00 0. -1.
         -2   -1    0    0    0  501 -0.00000000000E+00 -0.00000000000E+00 -0.71785801584E+02  0.71785801584E+02  0.00000000000E+00 0.  1.
          6    1    1    2  502    0 -0.84905099841E+02 -0.98328541389E+02  0.91097050995E+03  0.93612426954E+03  0.17200000000E+03 0. -1.
         -6    1    1    2    0  501  0.84905099841E+02  0.98328541389E+02  0.13696665711E+03  0.25538450069E+03  0.17200000000E+03 0.  1.
</event>
<event>
 4    1  0.6352740E-002  0.2075389E+03  0.7818608E-02  0.1143530E+00
          2   -1    0    0  502    0  0.00000000000E+00  0.00000000000E+00  0.38553151980E+03  0.38553151980E+03  0.00000000000E+00 0. -1.
         -2   -1    0    0    0  501 -0.00000000000E+00 -0.00000000000E+00 -0.11239309741E+03  0.11239309741E+03  0.00000000000E+00 0.  1.
          6    1    1    2  502    0 -0.10703088345E+03 -0.45086350796E+02  0.11733272010E+03  0.23841005903E+03  0.17200000000E+03 0. -1.
         -6    1    1    2    0  501  0.10703088345E+03  0.45086350796E+02  0.15580570229E+03  0.25951455818E+03  0.17200000000E+03 0.  1.
</event>
<event>
 4    1  0.6352740E-002  0.1741726E+03  0.7818608E-02  0.1173565E+00
          1   -1    0    0  502    0  0.00000000000E+00  0.00000000000E+00  0.71387154294E+03  0.71387154294E+03  0.00000000000E+00 0. -1.
         -1   -1    0    0    0  501 -0.00000000000E+00 -0.00000000000E+00 -0.12476903638E+03  0.12476903638E+03  0.00000000000E+00 0.  1.
          6    1    1    2  502    0 -0.16633307161E+02 -0.21803975833E+02  0.63505623145E+03  0.65850778080E+03  0.17200000000E+03 0. -1.
         -6    1    1    2    0  501  0.16633307161E+02  0.21803975833E+02 -0.45953724893E+02  0.18013279851E+03  0.17200000000E+03 0.  1.
</event>
<event>
 4    1  0.6352740E-002  0.2149324E+03  0.7818608E-02  0.1137719E+00
          2   -1    0    0  502    0  0.00000000000E+00  0.00000000000E+00  0.40522502476E+03  0.40522502476E+03  0.00000000000E+00 0. -1.
         -2   -1    0    0    0  501 -0.00000000000E+00 -0.00000000000E+00 -0.13089111804E+03  0.13089111804E+03  0.00000000000E+00 0.  1.
          6    1    1    2  502    0  0.94334681114E+02  0.87823030161E+02  0.40873973333E+02  0.21878436503E+03  0.17200000000E+03 0.  1.
         -6    1    1    2    0  501 -0.94334681114E+02 -0.87823030161E+02  0.23345993338E+03  0.31733177777E+03  0.17200000000E+03 0.  1.
</event>
<event>
 4    1  0.6352740E-002  0.1794579E+03  0.7818608E-02  0.1168329E+00
         -2   -1    0    0    0  501 -0.00000000000E+00  0.00000000000E+00  0.25255275141E+02  0.25255275141E+02  0.00000000000E+00 0.  1.
          2   -1    0    0  502    0  0.00000000000E+00 -0.00000000000E+00 -0.17196069591E+04  0.17196069591E+04  0.00000000000E+00 0. -1.
          6    1    1    2  502    0  0.11046642512E+02 -0.49991065264E+02 -0.12906972207E+04  0.13031133683E+04  0.17200000000E+03 0. -1.
         -6    1    1    2    0  501 -0.11046642512E+02  0.49991065264E+02 -0.40365446322E+03  0.44174886598E+03  0.17200000000E+03 0.  1.
</event>
<event>
 4    1  0.6352740E-002  0.1758279E+03  0.7818608E-02  0.1171903E+00
          1   -1    0    0  502    0  0.00000000000E+00  0.00000000000E+00  0.12064183630E+04  0.12064183630E+04  0.00000000000E+00 0. -1.
         -1   -1    0    0    0  501 -0.00000000000E+00 -0.00000000000E+00 -0.27152952231E+03  0.27152952231E+03  0.00000000000E+00 0.  1.
          6    1    1    2  502    0  0.17878750834E+02 -0.31808783787E+02  0.11706837302E+04  0.11838141090E+04  0.17200000000E+03 0. -1.
         -6    1    1    2    0  501 -0.17878750834E+02  0.31808783787E+02 -0.23579488951E+03  0.29413377633E+03  0.17200000000E+03 0.  1.
</event>
<event>
 4    1  0.6352740E-002  0.4198710E+03  0.7818608E-02  0.1037108E+00
         -1   -1    0    0    0  501 -0.00000000000E+00  0.00000000000E+00  0.78344887860E+03  0.78344887860E+03  0.00000000000E+00 0.  1.
          1   -1    0    0  502    0  0.00000000000E+00 -0.00000000000E+00 -0.17244699063E+04  0.17244699063E+04  0.00000000000E+00 0. -1.
          6    1    1    2  502    0 -0.38279997184E+03 -0.13108556316E+02 -0.16397989268E+04  0.16926996701E+04  0.17200000000E+03 0. -1.
         -6    1    1    2    0  501  0.38279997184E+03  0.13108556316E+02  0.69877789918E+03  0.81521911476E+03  0.17200000000E+03 0.  1.
</event>
<event>
 4    1  0.6352740E-002  0.2420530E+03  0.7818608E-02  0.1118433E+00
          2   -1    0    0  502    0  0.00000000000E+00  0.00000000000E+00  0.69372418675E+03  0.69372418675E+03  0.00000000000E+00 0. -1.
         -2   -1    0    0    0  501 -0.00000000000E+00 -0.00000000000E+00 -0.10158948820E+03  0.10158948820E+03  0.00000000000E+00 0.  1.
          6    1    1    2  502    0 -0.10456361806E+03 -0.13443250702E+03  0.45937186998E+03  0.51924191288E+03  0.17200000000E+03 0. -1.
         -6    1    1    2    0  501  0.10456361806E+03  0.13443250702E+03  0.13276282857E+03  0.27607176207E+03  0.17200000000E+03 0.  1.
</event>
<event>
 4    1  0.6352740E-002  0.2138834E+03  0.7818608E-02  0.1138527E+00
         -2   -1    0    0    0  501 -0.00000000000E+00  0.00000000000E+00  0.27515705338E+02  0.27515705338E+02  0.00000000000E+00 0.  1.
          2   -1    0    0  502    0  0.00000000000E+00 -0.00000000000E+00 -0.16697809583E+04  0.16697809583E+04  0.00000000000E+00 0. -1.
          6    1    1    2  502    0  0.11579159295E+03 -0.52482669351E+02 -0.76527036699E+03  0.79459729308E+03  0.17200000000E+03 0.  1.
         -6    1    1    2    0  501 -0.11579159295E+03  0.52482669351E+02 -0.87699488598E+03  0.90269937056E+03  0.17200000000E+03 0.  1.
</event>
<event>
 4    1  0.6352740E-002  0.1773071E+03  0.7818608E-02  0.1170435E+00
          1   -1    0    0  502    0  0.00000000000E+00  0.00000000000E+00  0.22909942794E+03  0.22909942794E+03  0.00000000000E+00 0. -1.
         -1   -1    0    0    0  501 -0.00000000000E+00 -0.00000000000E+00 -0.13732547256E+03  0.13732547256E+03  0.00000000000E+00 0.  1.
          6    1    1    2  502    0  0.32884322602E+02 -0.27792451505E+02  0.50882323474E+02  0.18446357330E+03  0.17200000000E+03 0. -1.
         -6    1    1    2    0  501 -0.32884322602E+02  0.27792451505E+02  0.40891631912E+02  0.18196132719E+03  0.17200000000E+03 0. -1.
</event>
<event>
 4    1  0.6352740E-002  0.1839019E+03  0.7818608E-02  0.1164079E+00
          2   -1    0    0  502    0  0.00000000000E+00  0.00000000000E+00  0.20345844476E+03  0.20345844476E+03  0.00000000000E+00 0. -1.
         -2   -1    0    0    0  501 -0.00000000000E+00 -0.00000000000E+00 -0.28370237782E+03  0.28370237782E+03  0.00000000000E+00 0.  1.
          6    1    1    2  502    0 -0.28059488698E+02  0.58724430663E+02  0.11662093046E+03  0.21776210663E+03  0.17200000000E+03 0. -1.
         -6    1    1    2    0  501  0.28059488698E+02 -0.58724430663E+02 -0.19686486353E+03  0.26939871595E+03  0.17200000000E+03 0.  1.
</event>
<event>
 4    1  0.6352740E-002  0.1902042E+03  0.7818608E-02  0.1158277E+00
         -1   -1    0    0    0  501 -0.00000000000E+00  0.00000000000E+00  0.20974315251E+02  0.20974315251E+02  0.00000000000E+00 0.  1.
          1   -1    0    0  502    0  0.00000000000E+00 -0.00000000000E+00 -0.18693380735E+04  0.18693380735E+04  0.00000000000E+00 0. -1.
          6    1    1    2  502    0  0.24262049527E+01 -0.81164893522E+02 -0.11869483914E+04  0.12020915565E+04  0.17200000000E+03 0.  1.
         -6    1    1    2    0  501 -0.24262049527E+01  0.81164893522E+02 -0.66141536685E+03  0.68822083223E+03  0.17200000000E+03 0.  1.
</event>
<event>
 4    1  0.6352740E-002  0.2159616E+03  0.7818608E-02  0.1136930E+00
         -1   -1    0    0    0  501 -0.00000000000E+00  0.00000000000E+00  0.16959224844E+03  0.16959224844E+03  0.00000000000E+00 0.  1.
          1   -1    0    0  502    0  0.00000000000E+00 -0.00000000000E+00 -0.27633968760E+03  0.27633968760E+03  0.00000000000E+00 0. -1.
          6    1    1    2  502    0 -0.85294009472E+02  0.98895615251E+02 -0.37901967590E+02  0.21926233127E+03  0.17200000000E+03 0. -1.
         -6    1    1    2    0  501  0.85294009472E+02 -0.98895615251E+02 -0.68845471568E+02  0.22666960476E+03  0.17200000000E+03 0.  1.
</event>
<event>
 4    1  0.6352740E-002  0.3027811E+03  0.7818608E-02  0.1083859E+00
          2   -1    0    0  502    0  0.00000000000E+00  0.00000000000E+00  0.15085743620E+04  0.15085743620E+04  0.00000000000E+00 0. -1.
         -2   -1    0    0    0  501 -0.00000000000E+00 -0.00000000000E+00 -0.97257109748E+02  0.97257109748E+02  0.00000000000E+00 0.  1.
          6    1    1    2  502    0 -0.24424001371E+03  0.49388620810E+02  0.11974462737E+04  0.12351331906E+04  0.17200000000E+03 0. -1.
         -6    1    1    2    0  501  0.24424001371E+03 -0.49388620810E+02  0.21387097854E+03  0.37069828112E+03  0.17200000000E+03 0.  1.
</event>
<event>
 4    1  0.6352740E-002  0.2280520E+03  0.7818608E-02  0.1128018E+00
          3   -1    0    0  502    0  0.00000000000E+00  0.00000000000E+00  0.46689910977E+02  0.46689910977E+02  0.00000000000E+00 0. -1.
         -3   -1    0    0    0  501 -0.00000000000E+00 -0.00000000000E+00 -0.13569875696E+04  0.13569875696E+04  0.00000000000E+00 0.  1.
          6    1    1    2  502    0 -0.14469764592E+03 -0.38552828288E+02 -0.35809586708E+03  0.42454726394E+03  0.17200000000E+03 0. -1.
         -6    1    1    2    0  501  0.14469764592E+03  0.38552828288E+02 -0.95220179150E+03  0.97913021659E+03  0.17200000000E+03 0.  1.
</event>
<event>
 4    1  0.6352740E-002  0.4315484E+03  0.7818608E-02  0.1033372E+00
          2   -1    0    0  502    0  0.00000000000E+00  0.00000000000E+00  0.17075759324E+04  0.17075759324E+04  0.00000000000E+00 0. -1.
         -2   -1    0    0    0  501 -0.00000000000E+00 -0.00000000000E+00 -0.14726441392E+03  0.14726441392E+03  0.00000000000E+00 0.  1.
          6    1    1    2  502    0 -0.14115636976E+03  0.36976330981E+03  0.12525070573E+04  0.13247671322E+04  0.17200000000E+03 0. -1.
         -6    1    1    2    0  501  0.14115636976E+03 -0.36976330981E+03  0.30780446123E+03  0.53007321415E+03  0.17200000000E+03 0.  1.
</event>
<event>
 4    1  0.6352740E-002  0.4082025E+03  0.7818608E-02  0.1040976E+00
          1   -1    0    0  502    0  0.00000000000E+00  0.00000000000E+00  0.11113359786E+04  0.11113359786E+04  0.00000000000E+00 0. -1.
         -1   -1    0    0    0  501 -0.00000000000E+00 -0.00000000000E+00 -0.20884784747E+03  0.20884784747E+03  0.00000000000E+00 0.  1.
          6    1    1    2  502    0 -0.35413331622E+03 -0.10786519298E+03  0.80182687585E+03  0.89975310188E+03  0.17200000000E+03 0. -1.
         -6    1    1    2    0  501  0.35413331622E+03  0.10786519298E+03  0.10066125527E+03  0.42043072417E+03  0.17200000000E+03 0.  1.
</event>
<event>
 4    1  0.6352740E-002  0.2907464E+03  0.7818608E-02  0.1089960E+00
         -2   -1    0    0    0  501 -0.00000000000E+00  0.00000000000E+00  0.12720422928E+03  0.12720422928E+03  0.00000000000E+00 0.  1.
          2   -1    0    0  502    0  0.00000000000E+00 -0.00000000000E+00 -0.67784968862E+03  0.67784968862E+03  0.00000000000E+00 0. -1.
          6    1    1    2  502    0 -0.15933145213E+03 -0.17193876523E+03 -0.21893762344E+03  0.36396034617E+03  0.17200000000E+03 0. -1.
         -6    1    1    2    0  501  0.15933145213E+03  0.17193876523E+03 -0.33170783590E+03  0.44109357173E+03  0.17200000000E+03 0.  1.
</event>
<event>
 4    1  0.6352740E-002  0.2380416E+03  0.7818608E-02  0.1121104E+00
          2   -1    0    0  502    0  0.00000000000E+00  0.00000000000E+00  0.22568105933E+03  0.22568105933E+03  0.00000000000E+00 0. -1.
         -2   -1    0    0    0  501 -0.00000000000E+00 -0.00000000000E+00 -0.33353787021E+03  0.33353787021E+03  0.00000000000E+00 0.  1.
          6    1    1    2  502    0 -0.14455741250E+03  0.78631851497E+02  0.85098075154E+02  0.25279536383E+03  0.17200000000E+03 0. -1.
         -6    1    1    2    0  501  0.14455741250E+03 -0.78631851497E+02 -0.19295488604E+03  0.30642356571E+03  0.17200000000E+03 0.  1.
</event>
<event>
 4    1  0.6352740E-002  0.1937253E+03  0.7818608E-02  0.1155144E+00
          2   -1    0    0  502    0  0.00000000000E+00  0.00000000000E+00  0.35277476038E+02  0.35277476038E+02  0.00000000000E+00 0. -1.
         -2   -1    0    0    0  501 -0.00000000000E+00 -0.00000000000E+00 -0.10658718415E+04  0.10658718415E+04  0.00000000000E+00 0.  1.
          6    1    1    2  502    0  0.47959693697E+01 -0.89008316893E+02 -0.49124045708E+03  0.52805934181E+03  0.17200000000E+03 0. -1.
         -6    1    1    2    0  501 -0.47959693697E+01  0.89008316893E+02 -0.53935390843E+03  0.57308997577E+03  0.17200000000E+03 0. -1.
</event>
<event>
 4    1  0.6352740E-002  0.2979185E+03  0.7818608E-02  0.1086286E+00
          1   -1    0    0  502    0  0.00000000000E+00  0.00000000000E+00  0.93170565386E+03  0.93170565386E+03  0.00000000000E+00 0. -1.
         -1   -1    0    0    0  501 -0.00000000000E+00 -0.00000000000E+00 -0.10830826315E+03  0.10830826315E+03  0.00000000000E+00 0.  1.
          6    1    1    2  502    0 -0.17851446673E+03 -0.16523934076E+03  0.23121675867E+03  0.37711622088E+03  0.17200000000E+03 0. -1.
         -6    1    1    2    0  501  0.17851446673E+03  0.16523934076E+03  0.59218063205E+03  0.66289769613E+03  0.17200000000E+03 0. -1.
</event>
<event>
 4    1  0.6352740E-002  0.8770899E+03  0.7818608E-02  0.9454682E-01
          2   -1    0    0  502    0  0.00000000000E+00  0.00000000000E+00  0.58742075607E+03  0.58742075607E+03  0.00000000000E+00 0. -1.
         -2   -1    0    0    0  501 -0.00000000000E+00 -0.00000000000E+00 -0.15674465211E+04  0.15674465211E+04  0.00000000000E+00 0.  1.
          6    1    1    2  502    0 -0.86005961728E+03  0.30866684224E+00 -0.53020161828E+02  0.87869094573E+03  0.17200000000E+03 0. -1.
         -6    1    1    2    0  501  0.86005961728E+03 -0.30866684224E+00 -0.92700560316E+03  0.12761763314E+04  0.17200000000E+03 0.  1.
</event>
<event>
 4    1  0.6352740E-002  0.3343680E+03  0.7818608E-02  0.1069220E+00
         -2   -1    0    0    0  501 -0.00000000000E+00  0.00000000000E+00  0.38628047714E+02  0.38628047714E+02  0.00000000000E+00 0.  1.
          2   -1    0    0  502    0  0.00000000000E+00 -0.00000000000E+00 -0.29636332262E+04  0.29636332262E+04  0.00000000000E+00 0. -1.
          6    1    1    2  502    0 -0.24979417994E+03 -0.14078638139E+03 -0.12329332977E+04  0.12774687683E+04  0.17200000000E+03 0. -1.
         -6    1    1    2    0  501  0.24979417994E+03  0.14078638139E+03 -0.16920718808E+04  0.17247925056E+04  0.17200000000E+03 0. -1.
</event>
<event>
 4    1  0.6352740E-002  0.2118679E+03  0.7818608E-02  0.1140095E+00
          2   -1    0    0  502    0  0.00000000000E+00  0.00000000000E+00  0.83149490597E+03  0.83149490597E+03  0.00000000000E+00 0. -1.
         -2   -1    0    0    0  501 -0.00000000000E+00 -0.00000000000E+00 -0.63517817454E+02  0.63517817454E+02  0.00000000000E+00 0.  1.
          6    1    1    2  502    0 -0.12181145757E+03 -0.21586050445E+02  0.55735668566E+03  0.59626710778E+03  0.17200000000E+03 0. -1.
         -6    1    1    2    0  501  0.12181145757E+03  0.21586050445E+02  0.21062040286E+03  0.29874561565E+03  0.17200000000E+03 0.  1.
</event>
<event>
 4    1  0.6352740E-002  0.1792753E+03  0.7818608E-02  0.1168506E+00
          1   -1    0    0  502    0  0.00000000000E+00  0.00000000000E+00  0.66018147263E+03  0.66018147263E+03  0.00000000000E+00 0. -1.
         -1   -1    0    0    0  501 -0.00000000000E+00 -0.00000000000E+00 -0.54488139291E+02  0.54488139291E+02  0.00000000000E+00 0.  1.
          6    1    1    2  502    0 -0.32817390854E+01 -0.50446527779E+02  0.41948202770E+03  0.45618504309E+03  0.17200000000E+03 0. -1.
         -6    1    1    2    0  501  0.32817390854E+01  0.50446527779E+02  0.18621130564E+03  0.25848456883E+03  0.17200000000E+03 0.  1.
</event>
<event>
 4    1  0.6352740E-002  0.1779020E+03  0.7818608E-02  0.1169849E+00
          1   -1    0    0  502    0  0.00000000000E+00  0.00000000000E+00  0.13999801559E+04  0.13999801559E+04  0.00000000000E+00 0. -1.
         -1   -1    0    0    0  501 -0.00000000000E+00 -0.00000000000E+00 -0.22626953520E+02  0.22626953520E+02  0.00000000000E+00 0.  1.
          6    1    1    2  502    0  0.45394033639E+02  0.21233030328E+01  0.66746901511E+03  0.69077059350E+03  0.17200000000E+03 0.  1.
         -6    1    1    2    0  501 -0.45394033639E+02 -0.21233030328E+01  0.70988418728E+03  0.73183651594E+03  0.17200000000E+03 0. -1.
</event>
<event>
 4    1  0.6352740E-002  0.2163936E+03  0.7818608E-02  0.1136601E+00
          1   -1    0    0  502    0  0.00000000000E+00  0.00000000000E+00  0.26732212922E+03  0.26732212922E+03  0.00000000000E+00 0. -1.
         -1   -1    0    0    0  501 -0.00000000000E+00 -0.00000000000E+00 -0.25909842073E+03  0.25909842073E+03  0.00000000000E+00 0.  1.
          6    1    1    2  502    0  0.91211297133E+02  0.94460096478E+02  0.15391842223E+03  0.26555054369E+03  0.17200000000E+03 0. -1.
         -6    1    1    2    0  501 -0.91211297133E+02 -0.94460096478E+02 -0.14569471375E+03  0.26087000626E+03  0.17200000000E+03 0.  1.
</event>
<event>
 4    1  0.6352740E-002  0.1732841E+03  0.7818608E-02  0.1174466E+00
         -1   -1    0    0    0  501 -0.00000000000E+00  0.00000000000E+00  0.21964858036E+02  0.21964858036E+02  0.00000000000E+00 0.  1.
          1   -1    0    0  502    0  0.00000000000E+00 -0.00000000000E+00 -0.16475910152E+04  0.16475910152E+04  0.00000000000E+00 0. -1.
          6    1    1    2  502    0 -0.17832272163E+02 -0.11197429535E+02 -0.11572687979E+04  0.11701702623E+04  0.17200000000E+03 0. -1.
         -6    1    1    2    0  501  0.17832272163E+02  0.11197429535E+02 -0.46835735931E+03  0.49938561090E+03  0.17200000000E+03 0.  1.
</event>
<event>
 4    1  0.6352740E-002  0.1886381E+03  0.7818608E-02  0.1159695E+00
          1   -1    0    0  502    0  0.00000000000E+00  0.00000000000E+00  0.15593334269E+04  0.15593334269E+04  0.00000000000E+00 0. -1.
         -1   -1    0    0    0  501 -0.00000000000E+00 -0.00000000000E+00 -0.30800509685E+02  0.30800509685E+02  0.00000000000E+00 0.  1.
          6    1    1    2  502    0 -0.27090111640E+02  0.72570424042E+02  0.11689671393E+04  0.11840897404E+04  0.17200000000E+03 0. -1.
         -6    1    1    2    0  501  0.27090111640E+02 -0.72570424042E+02  0.35956577790E+03  0.40604419616E+03  0.17200000000E+03 0.  1.
</event>
<event>
 4    1  0.6352740E-002  0.3823772E+03  0.7818608E-02  0.1050059E+00
          1   -1    0    0  502    0  0.00000000000E+00  0.00000000000E+00  0.11373343416E+04  0.11373343416E+04  0.00000000000E+00 0. -1.
         -1   -1    0    0    0  501 -0.00000000000E+00 -0.00000000000E+00 -0.40640918766E+03  0.40640918766E+03  0.00000000000E+00 0.  1.
          6    1    1    2  502    0  0.33003531051E+03 -0.87778233851E+02  0.10036823910E+04  0.10740533816E+04  0.17200000000E+03 0. -1.
         -6    1    1    2    0  501 -0.33003531051E+03  0.87778233851E+02 -0.27275723700E+03  0.46969014771E+03  0.17200000000E+03 0. -1.
</event>
<event>
 4    1  0.6352740E-002  0.2517812E+03  0.7818608E-02  0.1112184E+00
         -2   -1    0    0    0  501 -0.00000000000E+00  0.00000000000E+00  0.26289155880E+03  0.26289155880E+03  0.00000000000E+00 0.  1.
          2   -1    0    0  502    0  0.00000000000E+00 -0.00000000000E+00 -0.32274869581E+03  0.32274869581E+03  0.00000000000E+00 0. -1.
          6    1    1    2  502    0 -0.12882072011E+03  0.13120592190E+03  0.11731484252E+03  0.27777066826E+03  0.17200000000E+03 0.  1.
         -6    1    1    2    0  501  0.12882072011E+03 -0.13120592190E+03 -0.17717197953E+03  0.30786958635E+03  0.17200000000E+03 0.  1.
</event>
<event>
 4    1  0.6352740E-002  0.2523908E+03  0.7818608E-02  0.1111803E+00
         -1   -1    0    0    0  501 -0.00000000000E+00  0.00000000000E+00  0.67536024690E+02  0.67536024690E+02  0.00000000000E+00 0.  1.
          1   -1    0    0  502    0  0.00000000000E+00 -0.00000000000E+00 -0.12257856030E+04  0.12257856030E+04  0.00000000000E+00 0. -1.
          6    1    1    2  502    0  0.12219597731E+03  0.13851090180E+03 -0.26864650011E+03  0.36860828641E+03  0.17200000000E+03 0. -1.
         -6    1    1    2    0  501 -0.12219597731E+03 -0.13851090180E+03 -0.88960307816E+03  0.92471334124E+03  0.17200000000E+03 0.  1.
</event>
<event>
 4    1  0.6352740E-002  0.2382345E+03  0.7818608E-02  0.1120975E+00
          2   -1    0    0  502    0  0.00000000000E+00  0.00000000000E+00  0.15245625719E+03  0.15245625719E+03  0.00000000000E+00 0. -1.
         -2   -1    0    0    0  501 -0.00000000000E+00 -0.00000000000E+00 -0.41257662787E+03  0.41257662787E+03  0.00000000000E+00 0.  1.
          6    1    1    2  502    0  0.37998443182E+02  0.16039893580E+03 -0.41762148843E+02  0.24186727221E+03  0.17200000000E+03 0. -1.
         -6    1    1    2    0  501 -0.37998443182E+02 -0.16039893580E+03 -0.21835822184E+03  0.32316561286E+03  0.17200000000E+03 0.  1.
</event>
<event>
 4    1  0.6352740E-002  0.1774727E+03  0.7818608E-02  0.1170272E+00
          1   -1    0    0  502    0  0.00000000000E+00  0.00000000000E+00  0.16620137571E+04  0.16620137571E+04  0.00000000000E+00 0. -1.
         -1   -1    0    0    0  501 -0.00000000000E+00 -0.00000000000E+00 -0.26902562342E+02  0.26902562342E+02  0.00000000000E+00 0.  1.
          6    1    1    2  502    0 -0.40364846228E+02  0.16829723635E+02  0.12766604226E+04  0.12889369244E+04  0.17200000000E+03 0. -1.
         -6    1    1    2    0  501  0.40364846228E+02 -0.16829723635E+02  0.35845077214E+03  0.39997939504E+03  0.17200000000E+03 0.  1.
</event>
<event>
 4    1  0.6352740E-002  0.2659277E+03  0.7818608E-02  0.1103633E+00
         -2   -1    0    0    0  501 -0.00000000000E+00  0.00000000000E+00  0.15039702157E+03  0.15039702157E+03  0.00000000000E+00 0.  1.
          2   -1    0    0  502    0  0.00000000000E+00 -0.00000000000E+00 -0.47020836621E+03  0.47020836621E+03  0.00000000000E+00 0. -1.
          6    1    1    2  502    0  0.12013642325E+03 -0.16340376117E+03 -0.15917842162E+03  0.30992792592E+03  0.17200000000E+03 0. -1.
         -6    1    1    2    0  501 -0.12013642325E+03  0.16340376117E+03 -0.16063292301E+03  0.31067746186E+03  0.17200000000E+03 0. -1.
</event>
<event>
 4    1  0.6352740E-002  0.2759050E+03  0.7818608E-02  0.1097947E+00
          2   -1    0    0  502    0  0.00000000000E+00  0.00000000000E+00  0.74187816886E+03  0.74187816886E+03  0.00000000000E+00 0. -1.
         -2   -1    0    0    0  501 -0.00000000000E+00 -0.00000000000E+00 -0.12803416591E+03  0.12803416591E+03  0.00000000000E+00 0.  1.
          6    1    1    2  502    0  0.74499209162E+02 -0.20245842524E+03  0.50074821252E+03  0.57172748619E+03  0.17200000000E+03 0. -1.
         -6    1    1    2    0  501 -0.74499209162E+02  0.20245842524E+03  0.11309579042E+03  0.29818484859E+03  0.17200000000E+03 0.  1.
</event>
<event>
 4    1  0.6352740E-002  0.2043389E+03  0.7818608E-02  0.1146129E+00
          2   -1    0    0  502    0  0.00000000000E+00  0.00000000000E+00  0.17910768671E+04  0.17910768671E+04  0.00000000000E+00 0. -1.
         -2   -1    0    0    0  501 -0.00000000000E+00 -0.00000000000E+00 -0.15945354677E+03  0.15945354677E+03  0.00000000000E+00 0.  1.
          6    1    1    2  502    0 -0.41647585091E+02  0.10215614851E+03  0.17169682283E+04  0.17290848148E+04  0.17200000000E+03 0. -1.
         -6    1    1    2    0  501  0.41647585091E+02 -0.10215614851E+03 -0.85344907936E+02  0.22144559904E+03  0.17200000000E+03 0.  1.
</event>
<event>
 4    1  0.6352740E-002  0.2095399E+03  0.7818608E-02  0.1141931E+00
          1   -1    0    0  502    0  0.00000000000E+00  0.00000000000E+00  0.53067106855E+03  0.53067106855E+03  0.00000000000E+00 0. -1.
         -1   -1    0    0    0  501 -0.00000000000E+00 -0.00000000000E+00 -0.84199370288E+02  0.84199370288E+02  0.00000000000E+00 0.  1.
          6    1    1    2  502    0  0.43346714245E+01 -0.11960000156E+03  0.26373062413E+03  0.33683941553E+03  0.17200000000E+03 0. -1.
         -6    1    1    2    0  501 -0.43346714245E+01  0.11960000156E+03  0.18274107413E+03  0.27803102331E+03  0.17200000000E+03 0.  1.
</event>
<event>
 4    1  0.6352740E-002  0.2590406E+03  0.7818608E-02  0.1107721E+00
         -2   -1    0    0    0  501 -0.00000000000E+00  0.00000000000E+00  0.37556494791E+02  0.37556494791E+02  0.00000000000E+00 0.  1.
          2   -1    0    0  502    0  0.00000000000E+00 -0.00000000000E+00 -0.25764655924E+04  0.25764655924E+04  0.00000000000E+00 0. -1.
          6    1    1    2  502    0  0.17023019794E+03 -0.92410464980E+02 -0.54582304037E+03  0.60417282770E+03  0.17200000000E+03 0.  1.
         -6    1    1    2    0  501 -0.17023019794E+03  0.92410464980E+02 -0.19930860572E+04  0.20098492595E+04  0.17200000000E+03 0. -1.
</event>
<event>
 4    1  0.6352740E-002  0.2999606E+03  0.7818608E-02  0.1085260E+00
          1   -1    0    0  502    0  0.00000000000E+00  0.00000000000E+00  0.91450635343E+03  0.91450635343E+03  0.00000000000E+00 0. -1.
         -1   -1    0    0    0  501 -0.00000000000E+00 -0.00000000000E+00 -0.10180240067E+03  0.10180240067E+03  0.00000000000E+00 0.  1.
          6    1    1    2  502    0 -0.12390870830E+03  0.21222385813E+03  0.49941604801E+03  0.58257422099E+03  0.17200000000E+03 0. -1.
         -6    1    1    2    0  501  0.12390870830E+03 -0.21222385813E+03  0.31328790475E+03  0.43373453311E+03  0.17200000000E+03 0. -1.
</event>
<event>
 4    1  0.6352740E-002  0.1891373E+03  0.7818608E-02  0.1159242E+00
         -1   -1    0    0    0  501 -0.00000000000E+00  0.00000000000E+00  0.81619821297E+02  0.81619821297E+02  0.00000000000E+00 0.  1.
          1   -1    0    0  502    0  0.00000000000E+00 -0.00000000000E+00 -0.21060462177E+04  0.21060462177E+04  0.00000000000E+00 0. -1.
          6    1    1    2  502    0  0.23880996773E+02  0.74957469625E+02 -0.19855961311E+04  0.19945838964E+04  0.17200000000E+03 0. -1.
         -6    1    1    2    0  501 -0.23880996773E+02 -0.74957469625E+02 -0.38830265317E+02  0.19308214253E+03  0.17200000000E+03 0.  1.
</event>
<event>
 4    1  0.6352740E-002  0.2967860E+03  0.7818608E-02  0.1086858E+00
          1   -1    0    0  502    0  0.00000000000E+00  0.00000000000E+00  0.52249389077E+03  0.52249389077E+03  0.00000000000E+00 0. -1.
         -1   -1    0    0    0  501 -0.00000000000E+00 -0.00000000000E+00 -0.17281888115E+03  0.17281888115E+03  0.00000000000E+00 0.  1.
          6    1    1    2  502    0  0.88994371811E+02 -0.22489531667E+03  0.22928674800E+03  0.37503908394E+03  0.17200000000E+03 0. -1.
         -6    1    1    2    0  501 -0.88994371811E+02  0.22489531667E+03  0.12038826162E+03  0.32027368798E+03  0.17200000000E+03 0.  1.
</event>
<event>
 4    1  0.6352740E-002  0.1795752E+03  0.7818608E-02  0.1168215E+00
          4   -1    0    0  502    0  0.00000000000E+00  0.00000000000E+00  0.14543999450E+03  0.14543999450E+03  0.00000000000E+00 0. -1.
         -4   -1    0    0    0  501 -0.00000000000E+00 -0.00000000000E+00 -0.22510221492E+03  0.22510221492E+03  0.00000000000E+00 0.  1.
          6    1    1    2  502    0  0.51011739162E+02 -0.78129233543E+01 -0.17127593935E+02  0.18039011552E+03  0.17200000000E+03 0. -1.
         -6    1    1    2    0  501 -0.51011739162E+02  0.78129233543E+01 -0.62534626494E+02  0.19015209390E+03  0.17200000000E+03 0.  1.
</event>
<event>
 4    1  0.6352740E-002  0.1009557E+04  0.7818608E-02  0.9298124E-01
          1   -1    0    0  502    0  0.00000000000E+00  0.00000000000E+00  0.13769759203E+04  0.13769759203E+04  0.00000000000E+00 0. -1.
         -1   -1    0    0    0  501 -0.00000000000E+00 -0.00000000000E+00 -0.74766584423E+03  0.74766584423E+03  0.00000000000E+00 0.  1.
          6    1    1    2  502    0  0.22951312934E+03  0.96795958973E+03  0.42097294999E+03  0.10938118067E+04  0.17200000000E+03 0. -1.
         -6    1    1    2    0  501 -0.22951312934E+03 -0.96795958973E+03  0.20833712613E+03  0.10308299579E+04  0.17200000000E+03 0.  1.
</event>
<event>
 4    1  0.6352740E-002  0.2403642E+03  0.7818608E-02  0.1119550E+00
          1   -1    0    0  502    0  0.00000000000E+00  0.00000000000E+00  0.25088427269E+03  0.25088427269E+03  0.00000000000E+00 0. -1.
         -1   -1    0    0    0  501 -0.00000000000E+00 -0.00000000000E+00 -0.24146938449E+03  0.24146938449E+03  0.00000000000E+00 0.  1.
          6    1    1    2  502    0 -0.83979172030E+02  0.14539068213E+03  0.57688058527E+02  0.24718993483E+03  0.17200000000E+03 0. -1.
         -6    1    1    2    0  501  0.83979172030E+02 -0.14539068213E+03 -0.48273170332E+02  0.24516372235E+03  0.17200000000E+03 0.  1.
</event>
<event>
 4    1  0.6352740E-002  0.5720843E+03  0.7818608E-02  0.9965077E-01
         -2   -1    0    0    0  501 -0.00000000000E+00  0.00000000000E+00  0.29031463315E+03  0.29031463315E+03  0.00000000000E+00 0.  1.
          2   -1    0    0  502    0  0.00000000000E+00 -0.00000000000E+00 -0.14978999534E+04  0.14978999534E+04  0.00000000000E+00 0. -1.
          6    1    1    2  502    0 -0.50598424213E+03  0.20414810243E+03 -0.10485090363E+04  0.11944252594E+04  0.17200000000E+03 0. -1.
         -6    1    1    2    0  501  0.50598424213E+03 -0.20414810243E+03 -0.15907628402E+03  0.59378932724E+03  0.17200000000E+03 0.  1.
</event>
<event>
 4    1  0.6352740E-002  0.2243372E+03  0.7818608E-02  0.1130690E+00
         -2   -1    0    0    0  501 -0.00000000000E+00  0.00000000000E+00  0.82887412046E+02  0.82887412046E+02  0.00000000000E+00 0.  1.
          2   -1    0    0  502    0  0.00000000000E+00 -0.00000000000E+00 -0.70443903850E+03  0.70443903850E+03  0.00000000000E+00 0. -1.
          6    1    1    2  502    0 -0.38549324132E+02 -0.13877008060E+03 -0.45705371261E+03  0.50914171099E+03  0.17200000000E+03 0. -1.
         -6    1    1    2    0  501  0.38549324132E+02  0.13877008060E+03 -0.16449791384E+03  0.27818473955E+03  0.17200000000E+03 0.  1.
</event>
<event>
 4    1  0.6352740E-002  0.1950983E+03  0.7818608E-02  0.1153942E+00
          1   -1    0    0  502    0  0.00000000000E+00  0.00000000000E+00  0.70310109656E+03  0.70310109656E+03  0.00000000000E+00 0. -1.
         -1   -1    0    0    0  501 -0.00000000000E+00 -0.00000000000E+00 -0.54138674041E+02  0.54138674041E+02  0.00000000000E+00 0.  1.
          6    1    1    2  502    0  0.78317671800E+02  0.48432210454E+02  0.32695453934E+03  0.38073955340E+03  0.17200000000E+03 0. -1.
         -6    1    1    2    0  501 -0.78317671800E+02 -0.48432210454E+02  0.32200788318E+03  0.37650021720E+03  0.17200000000E+03 0.  1.
</event>
<event>
 4    1  0.6352740E-002  0.4824862E+03  0.7818608E-02  0.1018454E+00
         -1   -1    0    0    0  501 -0.00000000000E+00  0.00000000000E+00  0.53894261573E+03  0.53894261573E+03  0.00000000000E+00 0.  1.
          1   -1    0    0  502    0  0.00000000000E+00 -0.00000000000E+00 -0.50119012318E+03  0.50119012318E+03  0.00000000000E+00 0. -1.
          6    1    1    2  502    0  0.41427493326E+03  0.17772241002E+03  0.21218679965E+03  0.52708273857E+03  0.17200000000E+03 0. -1.
         -6    1    1    2    0  501 -0.41427493326E+03 -0.17772241002E+03 -0.17443430709E+03  0.51305000034E+03  0.17200000000E+03 0.  1.
</event>
<event>
 4    1  0.6352740E-002  0.1947886E+03  0.7818608E-02  0.1154212E+00
          3   -1    0    0  502    0  0.00000000000E+00  0.00000000000E+00  0.63848049596E+03  0.63848049596E+03  0.00000000000E+00 0. -1.
         -3   -1    0    0    0  501 -0.00000000000E+00 -0.00000000000E+00 -0.65674667448E+02  0.65674667448E+02  0.00000000000E+00 0.  1.
          6    1    1    2  502    0  0.53930424332E+02 -0.73824772345E+02  0.39500039804E+03  0.44041787218E+03  0.17200000000E+03 0. -1.
         -6    1    1    2    0  501 -0.53930424332E+02  0.73824772345E+02  0.17780543047E+03  0.26373729123E+03  0.17200000000E+03 0.  1.
</event>
<event>
 4    1  0.6352740E-002  0.1800284E+03  0.7818608E-02  0.1167776E+00
          2   -1    0    0  502    0  0.00000000000E+00  0.00000000000E+00  0.10631829258E+04  0.10631829258E+04  0.00000000000E+00 0. -1.
         -2   -1    0    0    0  501 -0.00000000000E+00 -0.00000000000E+00 -0.49933576994E+02  0.49933576994E+02  0.00000000000E+00 0.  1.
          6    1    1    2  502    0 -0.10431736545E+02  0.52128742542E+02  0.85397499292E+03  0.87274481692E+03  0.17200000000E+03 0. -1.
         -6    1    1    2    0  501  0.10431736545E+02 -0.52128742542E+02  0.15927435588E+03  0.24037168587E+03  0.17200000000E+03 0.  1.
</event>
<event>
 4    1  0.6352740E-002  0.2176080E+03  0.7818608E-02  0.1135679E+00
          4   -1    0    0  502    0  0.00000000000E+00  0.00000000000E+00  0.10173710311E+04  0.10173710311E+04  0.00000000000E+00 0. -1.
         -4   -1    0    0    0  501 -0.00000000000E+00 -0.00000000000E+00 -0.67974819046E+02  0.67974819046E+02  0.00000000000E+00 0.  1.
          6    1    1    2  502    0 -0.75699775381E+02 -0.10972131377E+03  0.77940093283E+03  0.80920889564E+03  0.17200000000E+03 0. -1.
         -6    1    1    2    0  501  0.75699775381E+02  0.10972131377E+03  0.16999527924E+03  0.27613695452E+03  0.17200000000E+03 0.  1.
</event>
<event>
 4    1  0.6352740E-002  0.4984416E+03  0.7818608E-02  0.1014186E+00
         -1   -1    0    0    0  501 -0.00000000000E+00  0.00000000000E+00  0.22274764766E+03  0.22274764766E+03  0.00000000000E+00 0.  1.
          1   -1    0    0  502    0  0.00000000000E+00 -0.00000000000E+00 -0.11523002340E+04  0.11523002340E+04  0.00000000000E+00 0. -1.
          6    1    1    2  502    0 -0.36811744247E+03  0.28870322654E+03 -0.58787396968E+03  0.77073978014E+03  0.17200000000E+03 0. -1.
         -6    1    1    2    0  501  0.36811744247E+03 -0.28870322654E+03 -0.34167861664E+03  0.60430810150E+03  0.17200000000E+03 0.  1.
</event>
<event>
 4    1  0.6352740E-002  0.1989412E+03  0.7818608E-02  0.1150635E+00
         -1   -1    0    0    0  501 -0.00000000000E+00  0.00000000000E+00  0.38969592586E+02  0.38969592586E+02  0.00000000000E+00 0.  1.
          1   -1    0    0  502    0  0.00000000000E+00 -0.00000000000E+00 -0.22698334801E+04  0.22698334801E+04  0.00000000000E+00 0. -1.
          6    1    1    2  502    0  0.95706763093E+02 -0.28875551771E+02 -0.19735534942E+04  0.19835551357E+04  0.17200000000E+03 0. -1.
         -6    1    1    2    0  501 -0.95706763093E+02  0.28875551771E+02 -0.25731039333E+03  0.32524793698E+03  0.17200000000E+03 0.  1.
</event>
<event>
 4    1  0.6352740E-002  0.1946467E+03  0.7818608E-02  0.1154336E+00
          2   -1    0    0  502    0  0.00000000000E+00  0.00000000000E+00  0.36469263111E+03  0.36469263111E+03  0.00000000000E+00 0. -1.
         -2   -1    0    0    0  501 -0.00000000000E+00 -0.00000000000E+00 -0.27434321159E+03  0.27434321159E+03  0.00000000000E+00 0.  1.
          6    1    1    2  502    0  0.90828874699E+02  0.73099920879E+01 -0.20668157497E+03  0.28390948187E+03  0.17200000000E+03 0.  1.
         -6    1    1    2    0  501 -0.90828874699E+02 -0.73099920879E+01  0.29703099449E+03  0.35512636082E+03  0.17200000000E+03 0. -1.
</event>
<event>
 4    1  0.6352740E-002  0.4383330E+03  0.7818608E-02  0.1031260E+00
          1   -1    0    0  502    0  0.00000000000E+00  0.00000000000E+00  0.21233384733E+04  0.21233384733E+04  0.00000000000E+00 0. -1.
         -1   -1    0    0    0  501 -0.00000000000E+00 -0.00000000000E+00 -0.92096322020E+02  0.92096322020E+02  0.00000000000E+00 0.  1.
          6    1    1    2  502    0  0.13532576007E+03  0.37978773596E+03  0.86921827008E+03  0.97348661355E+03  0.17200000000E+03 0. -1.
         -6    1    1    2    0  501 -0.13532576007E+03 -0.37978773596E+03  0.11620238812E+04  0.12419481818E+04  0.17200000000E+03 0.  1.
</event>
<event>
 4    1  0.6352740E-002  0.2487460E+03  0.7818608E-02  0.1114100E+00
         -2   -1    0    0    0  501 -0.00000000000E+00  0.00000000000E+00  0.49571877230E+02  0.49571877230E+02  0.00000000000E+00 0.  1.
          2   -1    0    0  502    0  0.00000000000E+00 -0.00000000000E+00 -0.18326096204E+04  0.18326096204E+04  0.00000000000E+00 0. -1.
          6    1    1    2  502    0  0.16601882338E+03 -0.68762838913E+02 -0.14229695825E+04  0.14445473376E+04  0.17200000000E+03 0. -1.
         -6    1    1    2    0  501 -0.16601882338E+03  0.68762838913E+02 -0.36006816067E+03  0.43763416007E+03  0.17200000000E+03 0.  1.
</event>
<event>
 4    1  0.6352740E-002  0.1815819E+03  0.7818608E-02  0.1166281E+00
         -1   -1    0    0    0  501 -0.00000000000E+00  0.00000000000E+00  0.16304942598E+03  0.16304942598E+03  0.00000000000E+00 0.  1.
          1   -1    0    0  502    0  0.00000000000E+00 -0.00000000000E+00 -0.21670686865E+03  0.21670686865E+03  0.00000000000E+00 0. -1.
          6    1    1    2  502    0  0.30672153033E+01 -0.58125552318E+02  0.22263615702E+02  0.18294167438E+03  0.17200000000E+03 0.  1.
         -6    1    1    2    0  501 -0.30672153033E+01  0.58125552318E+02 -0.75921058372E+02  0.19681462026E+03  0.17200000000E+03 0. -1.
</event>
<event>
 4    1  0.6352740E-002  0.2356762E+03  0.7818608E-02  0.1122707E+00
         -2   -1    0    0    0  501 -0.00000000000E+00  0.00000000000E+00  0.46035524783E+03  0.46035524783E+03  0.00000000000E+00 0.  1.
          2   -1    0    0  502    0  0.00000000000E+00 -0.00000000000E+00 -0.12412121737E+03  0.12412121737E+03  0.00000000000E+00 0. -1.
          6    1    1    2  502    0  0.15398242219E+03  0.47420094719E+02  0.11926687525E+03  0.26413602416E+03  0.17200000000E+03 0.  1.
         -6    1    1    2    0  501 -0.15398242219E+03 -0.47420094719E+02  0.21696715521E+03  0.32034044104E+03  0.17200000000E+03 0.  1.
</event>
<event>
 4    1  0.6352740E-002  0.3028454E+03  0.7818608E-02  0.1083827E+00
          2   -1    0    0  502    0  0.00000000000E+00  0.00000000000E+00  0.12919760213E+04  0.12919760213E+04  0.00000000000E+00 0. -1.
         -2   -1    0    0    0  501 -0.00000000000E+00 -0.00000000000E+00 -0.71835858521E+02  0.71835858521E+02  0.00000000000E+00 0.  1.
          6    1    1    2  502    0  0.10383835397E+00 -0.24926158568E+03  0.53600637147E+03  0.61564452335E+03  0.17200000000E+03 0.  1.
         -6    1    1    2    0  501 -0.10383835397E+00  0.24926158568E+03  0.68413379132E+03  0.74816735648E+03  0.17200000000E+03 0.  1.
</event>
<event>
 4    1  0.6352740E-002  0.4251879E+03  0.7818608E-02  0.1035391E+00
         -2   -1    0    0    0  501 -0.00000000000E+00  0.00000000000E+00  0.33543919839E+03  0.33543919839E+03  0.00000000000E+00 0.  1.
          2   -1    0    0  502    0  0.00000000000E+00 -0.00000000000E+00 -0.57382355680E+03  0.57382355680E+03  0.00000000000E+00 0. -1.
          6    1    1    2  502    0  0.34517134066E+03  0.17904598495E+03 -0.23127078969E+03  0.48401538953E+03  0.17200000000E+03 0. -1.
         -6    1    1    2    0  501 -0.34517134066E+03 -0.17904598495E+03 -0.71135687250E+01  0.42524736566E+03  0.17200000000E+03 0.  1.
</event>
<event>
 4    1  0.6352740E-002  0.2232051E+03  0.7818608E-02  0.1131516E+00
          1   -1    0    0  502    0  0.00000000000E+00  0.00000000000E+00  0.87636159037E+03  0.87636159037E+03  0.00000000000E+00 0. -1.
         -1   -1    0    0    0  501 -0.00000000000E+00 -0.00000000000E+00 -0.64561539049E+02  0.64561539049E+02  0.00000000000E+00 0.  1.
          6    1    1    2  502    0 -0.81043185211E+02 -0.11691240360E+03  0.56850303400E+03  0.61075052816E+03  0.17200000000E+03 0.  1.
         -6    1    1    2    0  501  0.81043185211E+02  0.11691240360E+03  0.24329701732E+03  0.33017260126E+03  0.17200000000E+03 0.  1.
</event>
<event>
 4    1  0.6352740E-002  0.2167483E+03  0.7818608E-02  0.1136331E+00
          2   -1    0    0  502    0  0.00000000000E+00  0.00000000000E+00  0.90898192967E+03  0.90898192967E+03  0.00000000000E+00 0. -1.
         -2   -1    0    0    0  501 -0.00000000000E+00 -0.00000000000E+00 -0.52423735910E+02  0.52423735910E+02  0.00000000000E+00 0.  1.
          6    1    1    2  502    0  0.48211779185E+02 -0.12276588512E+03  0.37117781813E+03  0.42982881578E+03  0.17200000000E+03 0. -1.
         -6    1    1    2    0  501 -0.48211779185E+02  0.12276588512E+03  0.48538037563E+03  0.53157684980E+03  0.17200000000E+03 0.  1.
</event>
<event>
 4    1  0.6352740E-002  0.1755516E+03  0.7818608E-02  0.1172179E+00
         -1   -1    0    0    0  501 -0.00000000000E+00  0.00000000000E+00  0.60795299275E+03  0.60795299275E+03  0.00000000000E+00 0.  1.
          1   -1    0    0  502    0  0.00000000000E+00 -0.00000000000E+00 -0.86683093111E+02  0.86683093111E+02  0.00000000000E+00 0. -1.
          6    1    1    2  502    0 -0.34778197652E+02  0.49845689494E+01  0.36836277106E+02  0.17937469239E+03  0.17200000000E+03 0. -1.
         -6    1    1    2    0  501  0.34778197652E+02 -0.49845689494E+01  0.48443362253E+03  0.51526139347E+03  0.17200000000E+03 0.  1.
</event>
<event>
 4    1  0.6352740E-002  0.2166569E+03  0.7818608E-02  0.1136400E+00
          3   -1    0    0  502    0  0.00000000000E+00  0.00000000000E+00  0.10092129127E+04  0.10092129127E+04  0.00000000000E+00 0. -1.
         -3   -1    0    0    0  501 -0.00000000000E+00 -0.00000000000E+00 -0.98649406734E+02  0.98649406734E+02  0.00000000000E+00 0.  1.
          6    1    1    2  502    0  0.13034849200E+03 -0.19117936983E+02  0.85798436872E+03  0.88491660729E+03  0.17200000000E+03 0. -1.
         -6    1    1    2    0  501 -0.13034849200E+03  0.19117936983E+02  0.52579137219E+02  0.22294571212E+03  0.17200000000E+03 0.  1.
</event>
<event>
 4    1  0.6352740E-002  0.1780526E+03  0.7818608E-02  0.1169701E+00
         -1   -1    0    0    0  501 -0.00000000000E+00  0.00000000000E+00  0.77561696624E+03  0.77561696624E+03  0.00000000000E+00 0.  1.
          1   -1    0    0  502    0  0.00000000000E+00 -0.00000000000E+00 -0.40911751770E+02  0.40911751770E+02  0.00000000000E+00 0. -1.
          6    1    1    2  502    0  0.23692319798E+02 -0.39463943425E+02  0.37972031005E+03  0.41939270703E+03  0.17200000000E+03 0.  1.
         -6    1    1    2    0  501 -0.23692319798E+02  0.39463943425E+02  0.35498490442E+03  0.39713601098E+03  0.17200000000E+03 0. -1.
</event>
<event>
 4    1  0.6352740E-002  0.2287545E+03  0.7818608E-02  0.1127520E+00
          2   -1    0    0  502    0  0.00000000000E+00  0.00000000000E+00  0.57380912186E+03  0.57380912186E+03  0.00000000000E+00 0. -1.
         -2   -1    0    0    0  501 -0.00000000000E+00 -0.00000000000E+00 -0.11906379297E+03  0.11906379297E+03  0.00000000000E+00 0.  1.
          6    1    1    2  502    0  0.14240599775E+03 -0.49650184909E+02  0.39497946714E+03  0.45643990680E+03  0.17200000000E+03 0. -1.
         -6    1    1    2    0  501 -0.14240599775E+03  0.49650184909E+02  0.59765861758E+02  0.23643300803E+03  0.17200000000E+03 0.  1.
</event>
<event>
 4    1  0.6352740E-002  0.1735413E+03  0.7818608E-02  0.1174204E+00
          2   -1    0    0  502    0  0.00000000000E+00  0.00000000000E+00  0.44479776285E+03  0.44479776285E+03  0.00000000000E+00 0. -1.
         -2   -1    0    0    0  501 -0.00000000000E+00 -0.00000000000E+00 -0.80811389673E+02  0.80811389673E+02  0.00000000000E+00 0.  1.
          6    1    1    2  502    0  0.40447022055E+01 -0.22720786148E+02  0.28781617300E+03  0.33608740408E+03  0.17200000000E+03 0. -1.
         -6    1    1    2    0  501 -0.40447022055E+01  0.22720786148E+02  0.76170200178E+02  0.18952174845E+03  0.17200000000E+03 0.  1.
</event>
<event>
 4    1  0.6352740E-002  0.2387505E+03  0.7818608E-02  0.1120628E+00
         -2   -1    0    0    0  501 -0.00000000000E+00  0.00000000000E+00  0.38918379752E+02  0.38918379752E+02  0.00000000000E+00 0.  1.
          2   -1    0    0  502    0  0.00000000000E+00 -0.00000000000E+00 -0.14690357225E+04  0.14690357225E+04  0.00000000000E+00 0. -1.
          6    1    1    2  502    0  0.15812030243E+03 -0.49150410227E+02 -0.75625683295E+03  0.79304866827E+03  0.17200000000E+03 0. -1.
         -6    1    1    2    0  501 -0.15812030243E+03  0.49150410227E+02 -0.67386050977E+03  0.71490543395E+03  0.17200000000E+03 0.  1.
</event>
<event>
 4    1  0.6352740E-002  0.2005515E+03  0.7818608E-02  0.1149275E+00
         -1   -1    0    0    0  501 -0.00000000000E+00  0.00000000000E+00  0.18250069366E+03  0.18250069366E+03  0.00000000000E+00 0.  1.
          1   -1    0    0  502    0  0.00000000000E+00 -0.00000000000E+00 -0.38894979671E+03  0.38894979671E+03  0.00000000000E+00 0. -1.
          6    1    1    2  502    0  0.32017985317E+02  0.98039531735E+02 -0.29132154381E+03  0.35367943544E+03  0.17200000000E+03 0. -1.
         -6    1    1    2    0  501 -0.32017985317E+02 -0.98039531735E+02  0.84872440755E+02  0.21777105493E+03  0.17200000000E+03 0.  1.
</event>
<event>
 4    1  0.6352740E-002  0.2758180E+03  0.7818608E-02  0.1097995E+00
         -2   -1    0    0    0  501 -0.00000000000E+00  0.00000000000E+00  0.24819475003E+03  0.24819475003E+03  0.00000000000E+00 0.  1.
          2   -1    0    0  502    0  0.00000000000E+00 -0.00000000000E+00 -0.31249629100E+03  0.31249629100E+03  0.00000000000E+00 0. -1.
          6    1    1    2  502    0 -0.17536863118E+03  0.12544892171E+03 -0.70933918789E+02  0.28479327519E+03  0.17200000000E+03 0. -1.
         -6    1    1    2    0  501  0.17536863118E+03 -0.12544892171E+03  0.66323778170E+01  0.27589776584E+03  0.17200000000E+03 0.  1.
</event>
<event>
 4    1  0.6352740E-002  0.2449717E+03  0.7818608E-02  0.1116524E+00
          1   -1    0    0  502    0  0.00000000000E+00  0.00000000000E+00  0.22462425602E+04  0.22462425602E+04  0.00000000000E+00 0. -1.
         -1   -1    0    0    0  501 -0.00000000000E+00 -0.00000000000E+00 -0.27307213515E+02  0.27307213515E+02  0.00000000000E+00 0.  1.
          6    1    1    2  502    0 -0.16710340374E+03  0.50036047787E+02  0.12766999368E+04  0.12999899547E+04  0.17200000000E+03 0. -1.
         -6    1    1    2    0  501  0.16710340374E+03 -0.50036047787E+02  0.94223540987E+03  0.97355981903E+03  0.17200000000E+03 0.  1.
</event>
<event>
 4    1  0.6352740E-002  0.2481608E+03  0.7818608E-02  0.1114473E+00
         -2   -1    0    0    0  501 -0.00000000000E+00  0.00000000000E+00  0.16588109333E+03  0.16588109333E+03  0.00000000000E+00 0.  1.
          2   -1    0    0  502    0  0.00000000000E+00 -0.00000000000E+00 -0.10073601741E+04  0.10073601741E+04  0.00000000000E+00 0. -1.
          6    1    1    2  502    0  0.13762566196E+02 -0.17835469033E+03 -0.88689437783E+03  0.92095897912E+03  0.17200000000E+03 0. -1.
         -6    1    1    2    0  501 -0.13762566196E+02  0.17835469033E+03  0.45415297061E+02  0.25228228832E+03  0.17200000000E+03 0.  1.
</event>
<event>
 4    1  0.6352740E-002  0.2004343E+03  0.7818608E-02  0.1149373E+00
         -2   -1    0    0    0  501 -0.00000000000E+00  0.00000000000E+00  0.16648600525E+03  0.16648600525E+03  0.00000000000E+00 0.  1.
          2   -1    0    0  502    0  0.00000000000E+00 -0.00000000000E+00 -0.25101012486E+03  0.25101012486E+03  0.00000000000E+00 0. -1.
          6    1    1    2  502    0  0.24008200448E+02 -0.10006762943E+03 -0.83308443030E+02  0.21705810473E+03  0.17200000000E+03 0.  1.
         -6    1    1    2    0  501 -0.24008200448E+02  0.10006762943E+03 -0.12156765827E+01  0.20043802538E+03  0.17200000000E+03 0.  1.
</event>
<event>
 4    1  0.6352740E-002  0.2019684E+03  0.7818608E-02  0.1148089E+00
          1   -1    0    0  502    0  0.00000000000E+00  0.00000000000E+00  0.11964560505E+03  0.11964560505E+03  0.00000000000E+00 0. -1.
         -1   -1    0    0    0  501 -0.00000000000E+00 -0.00000000000E+00 -0.48668176677E+03  0.48668176677E+03  0.00000000000E+00 0.  1.
          6    1    1    2  502    0  0.10581951570E+03  0.30734638039E+01 -0.17614379191E+02  0.20273500545E+03  0.17200000000E+03 0. -1.
         -6    1    1    2    0  501 -0.10581951570E+03 -0.30734638039E+01 -0.34942178253E+03  0.40359236637E+03  0.17200000000E+03 0.  1.
</event>
<event>
 4    1  0.6352740E-002  0.3414288E+03  0.7818608E-02  0.1066189E+00
         -2   -1    0    0    0  501 -0.00000000000E+00  0.00000000000E+00  0.71840932210E+02  0.71840932210E+02  0.00000000000E+00 0.  1.
          2   -1    0    0  502    0  0.00000000000E+00 -0.00000000000E+00 -0.17628974787E+04  0.17628974787E+04  0.00000000000E+00 0. -1.
          6    1    1    2  502    0  0.27901084520E+03  0.95616688240E+02 -0.11042652252E+04  0.11558439732E+04  0.17200000000E+03 0. -1.
         -6    1    1    2    0  501 -0.27901084520E+03 -0.95616688240E+02 -0.58679132135E+03  0.67889443776E+03  0.17200000000E+03 0.  1.
</event>
<event>
 4    1  0.6352740E-002  0.1769005E+03  0.7818608E-02  0.1170837E+00
         -1   -1    0    0    0  501 -0.00000000000E+00  0.00000000000E+00  0.11913589555E+03  0.11913589555E+03  0.00000000000E+00 0.  1.
          1   -1    0    0  502    0  0.00000000000E+00 -0.00000000000E+00 -0.43434489678E+03  0.43434489678E+03  0.00000000000E+00 0. -1.
          6    1    1    2  502    0  0.13323202773E+01  0.41328202046E+02 -0.33158664094E+03  0.37582375632E+03  0.17200000000E+03 0. -1.
         -6    1    1    2    0  501 -0.13323202773E+01 -0.41328202046E+02  0.16377639706E+02  0.17765703601E+03  0.17200000000E+03 0.  1.
</event>
<event>
 4    1  0.6352740E-002  0.1968713E+03  0.7818608E-02  0.1152406E+00
         -2   -1    0    0    0  501 -0.00000000000E+00  0.00000000000E+00  0.88799427763E+02  0.88799427763E+02  0.00000000000E+00 0.  1.
          2   -1    0    0  502    0  0.00000000000E+00 -0.00000000000E+00 -0.47774770758E+03  0.47774770758E+03  0.00000000000E+00 0. -1.
          6    1    1    2  502    0  0.80892841068E+02  0.51289906632E+02 -0.11120897525E+03  0.22611002285E+03  0.17200000000E+03 0.  1.
         -6    1    1    2    0  501 -0.80892841068E+02 -0.51289906632E+02 -0.27773930457E+03  0.34043711249E+03  0.17200000000E+03 0. -1.
</event>
<event>
 4    1  0.6352740E-002  0.2687822E+03  0.7818608E-02  0.1101979E+00
          2   -1    0    0  502    0  0.00000000000E+00  0.00000000000E+00  0.59500197795E+03  0.59500197795E+03  0.00000000000E+00 0. -1.
         -2   -1    0    0    0  501 -0.00000000000E+00 -0.00000000000E+00 -0.12822952343E+03  0.12822952343E+03  0.00000000000E+00 0.  1.
          6    1    1    2  502    0  0.20622309093E+03  0.11484911581E+02  0.31673130153E+03  0.41540652835E+03  0.17200000000E+03 0.  1.
         -6    1    1    2    0  501 -0.20622309093E+03 -0.11484911581E+02  0.15004115299E+03  0.30782497303E+03  0.17200000000E+03 0. -1.
</event>
<event>
 4    1  0.6352740E-002  0.1990900E+03  0.7818608E-02  0.1150509E+00
         -3   -1    0    0    0  501 -0.00000000000E+00  0.00000000000E+00  0.65659975707E+02  0.65659975707E+02  0.00000000000E+00 0.  1.
          3   -1    0    0  502    0  0.00000000000E+00 -0.00000000000E+00 -0.78422388015E+03  0.78422388015E+03  0.00000000000E+00 0. -1.
          6    1    1    2  502    0  0.87262040892E+02 -0.49377939339E+02 -0.56318092262E+03  0.59733541354E+03  0.17200000000E+03 0. -1.
         -6    1    1    2    0  501 -0.87262040892E+02  0.49377939339E+02 -0.15538298183E+03  0.25254844231E+03  0.17200000000E+03 0.  1.
</event>
<event>
 4    1  0.6352740E-002  0.2479412E+03  0.7818608E-02  0.1114613E+00
         -1   -1    0    0    0  501 -0.00000000000E+00  0.00000000000E+00  0.47994468153E+03  0.47994468153E+03  0.00000000000E+00 0.  1.
          1   -1    0    0  502    0  0.00000000000E+00 -0.00000000000E+00 -0.12885609841E+03  0.12885609841E+03  0.00000000000E+00 0. -1.
          6    1    1    2  502    0 -0.43218765902E+02  0.17327139791E+03  0.15203244177E+03  0.29084136984E+03  0.17200000000E+03 0. -1.
         -6    1    1    2    0  501  0.43218765902E+02 -0.17327139791E+03  0.19905614135E+03  0.31795941010E+03  0.17200000000E+03 0.  1.
</event>
<event>
 4    1  0.6352740E-002  0.3830511E+03  0.7818608E-02  0.1049812E+00
         -4   -1    0    0    0  501 -0.00000000000E+00  0.00000000000E+00  0.68969566084E+03  0.68969566084E+03  0.00000000000E+00 0.  1.
          4   -1    0    0  502    0  0.00000000000E+00 -0.00000000000E+00 -0.28021619724E+03  0.28021619724E+03  0.00000000000E+00 0. -1.
          6    1    1    2  502    0 -0.27784011548E+03 -0.19987255801E+03 -0.33229142602E+02  0.38448972045E+03  0.17200000000E+03 0. -1.
         -6    1    1    2    0  501  0.27784011548E+03  0.19987255801E+03  0.44270860620E+03  0.58542213762E+03  0.17200000000E+03 0.  1.
</event>
<event>
 4    1  0.6352740E-002  0.2495379E+03  0.7818608E-02  0.1113597E+00
         -2   -1    0    0    0  501 -0.00000000000E+00  0.00000000000E+00  0.29679150935E+02  0.29679150935E+02  0.00000000000E+00 0.  1.
          2   -1    0    0  502    0  0.00000000000E+00 -0.00000000000E+00 -0.21431895656E+04  0.21431895656E+04  0.00000000000E+00 0. -1.
          6    1    1    2  502    0 -0.18036208321E+03 -0.12436504961E+02 -0.12143788473E+04  0.12397520448E+04  0.17200000000E+03 0. -1.
         -6    1    1    2    0  501  0.18036208321E+03  0.12436504961E+02 -0.89913156732E+03  0.93311667173E+03  0.17200000000E+03 0.  1.
</event>
<event>
 4    1  0.6352740E-002  0.3970620E+03  0.7818608E-02  0.1044802E+00
          1   -1    0    0  502    0  0.00000000000E+00  0.00000000000E+00  0.29981040853E+03  0.29981040853E+03  0.00000000000E+00 0. -1.
         -1   -1    0    0    0  501 -0.00000000000E+00 -0.00000000000E+00 -0.53547805050E+03  0.53547805050E+03  0.00000000000E+00 0.  1.
          6    1    1    2  502    0 -0.10920964738E+03  0.34080415338E+03 -0.17380770637E+03  0.43343665839E+03  0.17200000000E+03 0. -1.
         -6    1    1    2    0  501  0.10920964738E+03 -0.34080415338E+03 -0.61859935600E+02  0.40185180064E+03  0.17200000000E+03 0. -1.
</event>
<event>
 4    1  0.6352740E-002  0.5966394E+03  0.7818608E-02  0.9912403E-01
         -2   -1    0    0    0  501 -0.00000000000E+00  0.00000000000E+00  0.68169000368E+03  0.68169000368E+03  0.00000000000E+00 0.  1.
          2   -1    0    0  502    0  0.00000000000E+00 -0.00000000000E+00 -0.52283811323E+03  0.52283811323E+03  0.00000000000E+00 0. -1.
          6    1    1    2  502    0 -0.54596081639E+03  0.16828934260E+03  0.10046635658E+03  0.60503884559E+03  0.17200000000E+03 0.  1.
         -6    1    1    2    0  501  0.54596081639E+03 -0.16828934260E+03  0.58385533874E+02  0.59948927133E+03  0.17200000000E+03 0.  1.
</event>
<event>
 4    1  0.6352740E-002  0.2093705E+03  0.7818608E-02  0.1142065E+00
          1   -1    0    0  502    0  0.00000000000E+00  0.00000000000E+00  0.18212057368E+03  0.18212057368E+03  0.00000000000E+00 0. -1.
         -1   -1    0    0    0  501 -0.00000000000E+00 -0.00000000000E+00 -0.24071485965E+03  0.24071485965E+03  0.00000000000E+00 0.  1.
          6    1    1    2  502    0  0.11885105974E+03  0.11243545410E+02 -0.31085446966E+02  0.21166553032E+03  0.17200000000E+03 0.  1.
         -6    1    1    2    0  501 -0.11885105974E+03 -0.11243545410E+02 -0.27508838996E+02  0.21116990301E+03  0.17200000000E+03 0. -1.
</event>
<event>
 4    1  0.6352740E-002  0.1819179E+03  0.7818608E-02  0.1165960E+00
          4   -1    0    0  502    0  0.00000000000E+00  0.00000000000E+00  0.90432846776E+03  0.90432846776E+03  0.00000000000E+00 0. -1.
         -4   -1    0    0    0  501 -0.00000000000E+00 -0.00000000000E+00 -0.93313326425E+02  0.93313326425E+02  0.00000000000E+00 0.  1.
          6    1    1    2  502    0 -0.25974863957E+02 -0.53248612687E+02  0.79440370525E+03  0.81496708844E+03  0.17200000000E+03 0. -1.
         -6    1    1    2    0  501  0.25974863957E+02  0.53248612687E+02  0.16611436077E+02  0.18267470575E+03  0.17200000000E+03 0.  1.
</event>
<event>
 4    1  0.6352740E-002  0.2108890E+03  0.7818608E-02  0.1140864E+00
          2   -1    0    0  502    0  0.00000000000E+00  0.00000000000E+00  0.27811178633E+04  0.27811178633E+04  0.00000000000E+00 0. -1.
         -2   -1    0    0    0  501 -0.00000000000E+00 -0.00000000000E+00 -0.48945179645E+02  0.48945179645E+02  0.00000000000E+00 0.  1.
          6    1    1    2  502    0  0.33768912474E+02 -0.11725969261E+03  0.25271693721E+04  0.25359533139E+04  0.17200000000E+03 0. -1.
         -6    1    1    2    0  501 -0.33768912474E+02  0.11725969261E+03  0.20500331147E+03  0.29410972897E+03  0.17200000000E+03 0.  1.
</event>
<event>
 4    1  0.6352740E-002  0.2580847E+03  0.7818608E-02  0.1108299E+00
          2   -1    0    0  502    0  0.00000000000E+00  0.00000000000E+00  0.87850747007E+03  0.87850747007E+03  0.00000000000E+00 0. -1.
         -2   -1    0    0    0  501 -0.00000000000E+00 -0.00000000000E+00 -0.10176797826E+03  0.10176797826E+03  0.00000000000E+00 0.  1.
          6    1    1    2  502    0 -0.19204763201E+03  0.11892277516E+02  0.14087205548E+03  0.29402832387E+03  0.17200000000E+03 0.  1.
         -6    1    1    2    0  501  0.19204763201E+03 -0.11892277516E+02  0.63586743633E+03  0.68624712445E+03  0.17200000000E+03 0. -1.
</event>
<event>
 4    1  0.6352740E-002  0.2927874E+03  0.7818608E-02  0.1088903E+00
         -2   -1    0    0    0  501 -0.00000000000E+00  0.00000000000E+00  0.19761949167E+03  0.19761949167E+03  0.00000000000E+00 0.  1.
          2   -1    0    0  502    0  0.00000000000E+00 -0.00000000000E+00 -0.48431371074E+03  0.48431371074E+03  0.00000000000E+00 0. -1.
          6    1    1    2  502    0 -0.18966342968E+03 -0.14201501302E+03 -0.25347953162E+03  0.38726780583E+03  0.17200000000E+03 0. -1.
         -6    1    1    2    0  501  0.18966342968E+03  0.14201501302E+03 -0.33214687446E+02  0.29466539658E+03  0.17200000000E+03 0.  1.
</event>
<event>
 4    1  0.6352740E-002  0.1993875E+03  0.7818608E-02  0.1150257E+00
         -1   -1    0    0    0  501 -0.00000000000E+00  0.00000000000E+00  0.65418445787E+02  0.65418445787E+02  0.00000000000E+00 0.  1.
          1   -1    0    0  502    0  0.00000000000E+00 -0.00000000000E+00 -0.61254025562E+03  0.61254025562E+03  0.00000000000E+00 0. -1.
          6    1    1    2  502    0  0.32086805867E+02 -0.95612728918E+02 -0.30366672897E+03  0.36327515649E+03  0.17200000000E+03 0. -1.
         -6    1    1    2    0  501 -0.32086805867E+02  0.95612728918E+02 -0.24345508086E+03  0.31468354491E+03  0.17200000000E+03 0.  1.
</event>
<event>
 4    1  0.6352740E-002  0.5475440E+03  0.7818608E-02  0.1002064E+00
         -2   -1    0    0    0  501 -0.00000000000E+00  0.00000000000E+00  0.43936381198E+03  0.43936381198E+03  0.00000000000E+00 0.  1.
          2   -1    0    0  502    0  0.00000000000E+00 -0.00000000000E+00 -0.14235637743E+04  0.14235637743E+04  0.00000000000E+00 0. -1.
          6    1    1    2  502    0  0.37112820931E+03  0.36398384595E+03 -0.11642191172E+04  0.12865498594E+04  0.17200000000E+03 0. -1.
         -6    1    1    2    0  501 -0.37112820931E+03 -0.36398384595E+03  0.18001915493E+03  0.57637772684E+03  0.17200000000E+03 0.  1.
</event>
<event>
 4    1  0.6352740E-002  0.2424937E+03  0.7818608E-02  0.1118143E+00
          2   -1    0    0  502    0  0.00000000000E+00  0.00000000000E+00  0.14116870853E+04  0.14116870853E+04  0.00000000000E+00 0. -1.
         -2   -1    0    0    0  501 -0.00000000000E+00 -0.00000000000E+00 -0.72213998153E+02  0.72213998153E+02  0.00000000000E+00 0.  1.
          6    1    1    2  502    0  0.10121909872E+03  0.13774568360E+03  0.11523918330E+04  0.11776290231E+04  0.17200000000E+03 0. -1.
         -6    1    1    2    0  501 -0.10121909872E+03 -0.13774568360E+03  0.18708125415E+03  0.30627206035E+03  0.17200000000E+03 0.  1.
</event>
<event>
 4    1  0.6352740E-002  0.2257598E+03  0.7818608E-02  0.1129660E+00
          1   -1    0    0  502    0  0.00000000000E+00  0.00000000000E+00  0.55782131862E+03  0.55782131862E+03  0.00000000000E+00 0. -1.
         -1   -1    0    0    0  501 -0.00000000000E+00 -0.00000000000E+00 -0.10819389848E+03  0.10819389848E+03  0.00000000000E+00 0.  1.
          6    1    1    2  502    0  0.77587872566E+02 -0.12395010927E+03  0.35613362195E+03  0.42166178893E+03  0.17200000000E+03 0. -1.
         -6    1    1    2    0  501 -0.77587872566E+02  0.12395010927E+03  0.93493798187E+02  0.24435342817E+03  0.17200000000E+03 0.  1.
</event>
<event>
 4    1  0.6352740E-002  0.2032410E+03  0.7818608E-02  0.1147033E+00
          1   -1    0    0  502    0  0.00000000000E+00  0.00000000000E+00  0.48202903046E+03  0.48202903046E+03  0.00000000000E+00 0. -1.
         -1   -1    0    0    0  501 -0.00000000000E+00 -0.00000000000E+00 -0.86177858272E+02  0.86177858272E+02  0.00000000000E+00 0.  1.
          6    1    1    2  502    0 -0.10551797422E+03  0.24266363103E+02  0.21921812937E+03  0.29893726349E+03  0.17200000000E+03 0. -1.
         -6    1    1    2    0  501  0.10551797422E+03 -0.24266363103E+02  0.17663304283E+03  0.26926962524E+03  0.17200000000E+03 0. -1.
</event>
<event>
 4    1  0.6352740E-002  0.1851116E+03  0.7818608E-02  0.1162946E+00
         -2   -1    0    0    0  501 -0.00000000000E+00  0.00000000000E+00  0.31474466219E+02  0.31474466219E+02  0.00000000000E+00 0.  1.
          2   -1    0    0  502    0  0.00000000000E+00 -0.00000000000E+00 -0.10889079946E+04  0.10889079946E+04  0.00000000000E+00 0. -1.
          6    1    1    2  502    0 -0.52419227503E+01 -0.68226215028E+02 -0.52099987094E+03  0.55290791249E+03  0.17200000000E+03 0.  1.
         -6    1    1    2    0  501  0.52419227503E+01  0.68226215028E+02 -0.53643365746E+03  0.56747454835E+03  0.17200000000E+03 0. -1.
</event>
<event>
 4    1  0.6352740E-002  0.3588999E+03  0.7818608E-02  0.1059020E+00
          1   -1    0    0  502    0  0.00000000000E+00  0.00000000000E+00  0.37317473660E+03  0.37317473660E+03  0.00000000000E+00 0. -1.
         -1   -1    0    0    0  501 -0.00000000000E+00 -0.00000000000E+00 -0.38794430376E+03  0.38794430376E+03  0.00000000000E+00 0.  1.
          6    1    1    2  502    0 -0.30765404904E+03 -0.67632154685E+02 -0.13374895553E+03  0.38301162560E+03  0.17200000000E+03 0. -1.
         -6    1    1    2    0  501  0.30765404904E+03  0.67632154685E+02  0.11897938837E+03  0.37810741476E+03  0.17200000000E+03 0. -1.
</event>
<event>
 4    1  0.6352740E-002  0.2020701E+03  0.7818608E-02  0.1148004E+00
         -2   -1    0    0    0  501 -0.00000000000E+00  0.00000000000E+00  0.72638008378E+02  0.72638008378E+02  0.00000000000E+00 0.  1.
          2   -1    0    0  502    0  0.00000000000E+00 -0.00000000000E+00 -0.11311203958E+04  0.11311203958E+04  0.00000000000E+00 0. -1.
          6    1    1    2  502    0  0.75393001104E+02 -0.74593819369E+02 -0.95612099662E+03  0.97724086216E+03  0.17200000000E+03 0. -1.
         -6    1    1    2    0  501 -0.75393001104E+02  0.74593819369E+02 -0.10236139076E+03  0.22651754197E+03  0.17200000000E+03 0.  1.
</event>
<event>
 4    1  0.6352740E-002  0.2329427E+03  0.7818608E-02  0.1124586E+00
         -2   -1    0    0    0  501 -0.00000000000E+00  0.00000000000E+00  0.16717121817E+03  0.16717121817E+03  0.00000000000E+00 0.  1.
          2   -1    0    0  502    0  0.00000000000E+00 -0.00000000000E+00 -0.33253704313E+03  0.33253704313E+03  0.00000000000E+00 0. -1.
          6    1    1    2  502    0 -0.42603898572E+02 -0.15120589428E+03 -0.44060877728E+02  0.23707314396E+03  0.17200000000E+03 0.  1.
         -6    1    1    2    0  501  0.42603898572E+02  0.15120589428E+03 -0.12130494723E+03  0.26263511734E+03  0.17200000000E+03 0. -1.
</event>
<event>
 4    1  0.6352740E-002  0.1911059E+03  0.7818608E-02  0.1157468E+00
          2   -1    0    0  502    0  0.00000000000E+00  0.00000000000E+00  0.14870622208E+03  0.14870622208E+03  0.00000000000E+00 0. -1.
         -2   -1    0    0    0  501 -0.00000000000E+00 -0.00000000000E+00 -0.33022911570E+03  0.33022911570E+03  0.00000000000E+00 0.  1.
          6    1    1    2  502    0 -0.47574384975E+02  0.68367589659E+02 -0.21199222374E+03  0.28541575350E+03  0.17200000000E+03 0.  1.
         -6    1    1    2    0  501  0.47574384975E+02 -0.68367589659E+02  0.30469330119E+02  0.19351958428E+03  0.17200000000E+03 0. -1.
</event>
<event>
 4    1  0.6352740E-002  0.3099847E+03  0.7818608E-02  0.1080353E+00
         -1   -1    0    0    0  501 -0.00000000000E+00  0.00000000000E+00  0.10348306772E+03  0.10348306772E+03  0.00000000000E+00 0.  1.
          1   -1    0    0  502    0  0.00000000000E+00 -0.00000000000E+00 -0.12821012620E+04  0.12821012620E+04  0.00000000000E+00 0. -1.
          6    1    1    2  502    0 -0.25453648527E+03 -0.41444777076E+02 -0.95310713030E+03  0.10022493171E+04  0.17200000000E+03 0. -1.
         -6    1    1    2    0  501  0.25453648527E+03  0.41444777076E+02 -0.22551106394E+03  0.38333501254E+03  0.17200000000E+03 0.  1.
</event>
<event>
 4    1  0.6352740E-002  0.2794516E+03  0.7818608E-02  0.1095989E+00
          2   -1    0    0  502    0  0.00000000000E+00  0.00000000000E+00  0.12511327847E+04  0.12511327847E+04  0.00000000000E+00 0. -1.
         -2   -1    0    0    0  501 -0.00000000000E+00 -0.00000000000E+00 -0.96284707569E+02  0.96284707569E+02  0.00000000000E+00 0.  1.
          6    1    1    2  502    0  0.15826322155E+03  0.15317285023E+03  0.97698238312E+03  0.10161632478E+04  0.17200000000E+03 0. -1.
         -6    1    1    2    0  501 -0.15826322155E+03 -0.15317285023E+03  0.17786569401E+03  0.33125424442E+03  0.17200000000E+03 0.  1.
</event>
<event>
 4    1  0.6352740E-002  0.1944215E+03  0.7818608E-02  0.1154533E+00
         -1   -1    0    0    0  501 -0.00000000000E+00  0.00000000000E+00  0.69107795681E+02  0.69107795681E+02  0.00000000000E+00 0.  1.
          1   -1    0    0  502    0  0.00000000000E+00 -0.00000000000E+00 -0.62216753214E+03  0.62216753214E+03  0.00000000000E+00 0. -1.
          6    1    1    2  502    0  0.89557024977E+02  0.13972954651E+02 -0.39669459118E+03  0.44177630409E+03  0.17200000000E+03 0. -1.
         -6    1    1    2    0  501 -0.89557024977E+02 -0.13972954651E+02 -0.15636514528E+03  0.24949902373E+03  0.17200000000E+03 0.  1.
</event>
<event>
 4    1  0.6352740E-002  0.2038578E+03  0.7818608E-02  0.1146524E+00
         -2   -1    0    0    0  501 -0.00000000000E+00  0.00000000000E+00  0.34749972631E+03  0.34749972631E+03  0.00000000000E+00 0.  1.
          2   -1    0    0  502    0  0.00000000000E+00 -0.00000000000E+00 -0.14704978369E+03  0.14704978369E+03  0.00000000000E+00 0. -1.
          6    1    1    2  502    0  0.84968589051E+02 -0.68951766666E+02  0.20707740586E+03  0.29058399693E+03  0.17200000000E+03 0. -1.
         -6    1    1    2    0  501 -0.84968589051E+02  0.68951766666E+02 -0.66274632393E+01  0.20396551307E+03  0.17200000000E+03 0.  1.
</event>
<event>
 4    1  0.6352740E-002  0.2425155E+03  0.7818608E-02  0.1118128E+00
         -2   -1    0    0    0  501 -0.00000000000E+00  0.00000000000E+00  0.19852892005E+03  0.19852892005E+03  0.00000000000E+00 0.  1.
          2   -1    0    0  502    0  0.00000000000E+00 -0.00000000000E+00 -0.29625218521E+03  0.29625218521E+03  0.00000000000E+00 0. -1.
          6    1    1    2  502    0  0.14226502467E+03 -0.94817786624E+02 -0.49816654949E+02  0.24757917726E+03  0.17200000000E+03 0.  1.
         -6    1    1    2    0  501 -0.14226502467E+03  0.94817786624E+02 -0.47906610212E+02  0.24720192800E+03  0.17200000000E+03 0. -1.
</event>
<event>
 4    1  0.6352740E-002  0.1844812E+03  0.7818608E-02  0.1163535E+00
          1   -1    0    0  502    0  0.00000000000E+00  0.00000000000E+00  0.18085891535E+04  0.18085891535E+04  0.00000000000E+00 0. -1.
         -1   -1    0    0    0  501 -0.00000000000E+00 -0.00000000000E+00 -0.22463641522E+02  0.22463641522E+02  0.00000000000E+00 0.  1.
          6    1    1    2  502    0 -0.35725889452E+02 -0.56329290480E+02  0.12619052146E+04  0.12753188224E+04  0.17200000000E+03 0. -1.
         -6    1    1    2    0  501  0.35725889452E+02  0.56329290480E+02  0.52422029744E+03  0.55573397268E+03  0.17200000000E+03 0.  1.
</event>
<event>
 4    1  0.6352740E-002  0.2632038E+03  0.7818608E-02  0.1105233E+00
          2   -1    0    0  502    0  0.00000000000E+00  0.00000000000E+00  0.33810228944E+03  0.33810228944E+03  0.00000000000E+00 0. -1.
         -2   -1    0    0    0  501 -0.00000000000E+00 -0.00000000000E+00 -0.35017205271E+03  0.35017205271E+03  0.00000000000E+00 0.  1.
          6    1    1    2  502    0  0.77288899479E+02  0.18362638045E+03  0.21562445273E+03  0.34025009360E+03  0.17200000000E+03 0. -1.
         -6    1    1    2    0  501 -0.77288899479E+02 -0.18362638045E+03 -0.22769421600E+03  0.34802424855E+03  0.17200000000E+03 0.  1.
</event>
<event>
 4    1  0.6352740E-002  0.2045130E+03  0.7818608E-02  0.1145986E+00
         -1   -1    0    0    0  501 -0.00000000000E+00  0.00000000000E+00  0.29777780817E+02  0.29777780817E+02  0.00000000000E+00 0.  1.
          1   -1    0    0  502    0  0.00000000000E+00 -0.00000000000E+00 -0.14549312658E+04  0.14549312658E+04  0.00000000000E+00 0. -1.
          6    1    1    2  502    0  0.71271930483E+02 -0.84627961363E+02 -0.57449024722E+03  0.60980703839E+03  0.17200000000E+03 0. -1.
         -6    1    1    2    0  501 -0.71271930483E+02  0.84627961363E+02 -0.85066323779E+03  0.87490200825E+03  0.17200000000E+03 0. -1.
</event>
<event>
 4    1  0.6352740E-002  0.3105759E+03  0.7818608E-02  0.1080070E+00
         -4   -1    0    0    0  501 -0.00000000000E+00  0.00000000000E+00  0.89458463663E+03  0.89458463663E+03  0.00000000000E+00 0.  1.
          4   -1    0    0  502    0  0.00000000000E+00 -0.00000000000E+00 -0.11436055214E+03  0.11436055214E+03  0.00000000000E+00 0. -1.
          6    1    1    2  502    0 -0.78992276316E+01 -0.25847821021E+03  0.26950147318E+03  0.41120363204E+03  0.17200000000E+03 0.  1.
         -6    1    1    2    0  501  0.78992276316E+01  0.25847821021E+03  0.51072261131E+03  0.59774155674E+03  0.17200000000E+03 0.  1.
</event>
<event>
 4    1  0.6352740E-002  0.1984475E+03  0.7818608E-02  0.1151056E+00
         -1   -1    0    0    0  501 -0.00000000000E+00  0.00000000000E+00  0.41065061642E+03  0.41065061642E+03  0.00000000000E+00 0.  1.
          1   -1    0    0  502    0  0.00000000000E+00 -0.00000000000E+00 -0.13019825370E+03  0.13019825370E+03  0.00000000000E+00 0. -1.
          6    1    1    2  502    0 -0.28410762758E+02 -0.94816863811E+02  0.27902287626E+03  0.34239622454E+03  0.17200000000E+03 0. -1.
         -6    1    1    2    0  501  0.28410762758E+02  0.94816863811E+02  0.14294864584E+01  0.19845264557E+03  0.17200000000E+03 0. -1.
</event>
<event>
 4    1  0.6352740E-002  0.2445607E+03  0.7818608E-02  0.1116791E+00
         -1   -1    0    0    0  501 -0.00000000000E+00  0.00000000000E+00  0.36499964318E+03  0.36499964318E+03  0.00000000000E+00 0.  1.
          1   -1    0    0  502    0  0.00000000000E+00 -0.00000000000E+00 -0.21891750464E+03  0.21891750464E+03  0.00000000000E+00 0. -1.
          6    1    1    2  502    0 -0.12809587116E+03  0.11754729026E+03 -0.73371250856E+02  0.25532970471E+03  0.17200000000E+03 0. -1.
         -6    1    1    2    0  501  0.12809587116E+03 -0.11754729026E+03  0.21945338940E+03  0.32858744311E+03  0.17200000000E+03 0.  1.
</event>
<event>
 4    1  0.6352740E-002  0.1963839E+03  0.7818608E-02  0.1152826E+00
         -3   -1    0    0    0  501 -0.00000000000E+00  0.00000000000E+00  0.17583195107E+03  0.17583195107E+03  0.00000000000E+00 0.  1.
          3   -1    0    0  502    0  0.00000000000E+00 -0.00000000000E+00 -0.24076610000E+03  0.24076610000E+03  0.00000000000E+00 0. -1.
          6    1    1    2  502    0  0.89054093940E+02  0.32434479207E+02 -0.94608538628E+02  0.21798486798E+03  0.17200000000E+03 0. -1.
         -6    1    1    2    0  501 -0.89054093940E+02 -0.32434479207E+02  0.29674389698E+02  0.19861318308E+03  0.17200000000E+03 0.  1.
</event>
<event>
 4    1  0.6352740E-002  0.2718748E+03  0.7818608E-02  0.1100211E+00
          2   -1    0    0  502    0  0.00000000000E+00  0.00000000000E+00  0.79069661221E+03  0.79069661221E+03  0.00000000000E+00 0. -1.
         -2   -1    0    0    0  501 -0.00000000000E+00 -0.00000000000E+00 -0.17899658604E+03  0.17899658604E+03  0.00000000000E+00 0.  1.
          6    1    1    2  502    0  0.13003307194E+03  0.16559986715E+03 -0.29271285411E+02  0.27344601652E+03  0.17200000000E+03 0.  1.
         -6    1    1    2    0  501 -0.13003307194E+03 -0.16559986715E+03  0.64097131158E+03  0.69624718173E+03  0.17200000000E+03 0. -1.
</event>
<event>
 4    1  0.6352740E-002  0.2773027E+03  0.7818608E-02  0.1097171E+00
          2   -1    0    0  502    0  0.00000000000E+00  0.00000000000E+00  0.40323934607E+03  0.40323934607E+03  0.00000000000E+00 0. -1.
         -2   -1    0    0    0  501 -0.00000000000E+00 -0.00000000000E+00 -0.24412179109E+03  0.24412179109E+03  0.00000000000E+00 0.  1.
          6    1    1    2  502    0 -0.21642560979E+03  0.21743102148E+02  0.23097834942E+03  0.36089860760E+03  0.17200000000E+03 0. -1.
         -6    1    1    2    0  501  0.21642560979E+03 -0.21743102148E+02 -0.71860794445E+02  0.28646252956E+03  0.17200000000E+03 0.  1.
</event>
<event>
 4    1  0.6352740E-002  0.1977130E+03  0.7818608E-02  0.1151683E+00
          2   -1    0    0  502    0  0.00000000000E+00  0.00000000000E+00  0.58993710520E+03  0.58993710520E+03  0.00000000000E+00 0. -1.
         -2   -1    0    0    0  501 -0.00000000000E+00 -0.00000000000E+00 -0.10426133929E+03  0.10426133929E+03  0.00000000000E+00 0.  1.
          6    1    1    2  502    0  0.21343459698E+02  0.95136226106E+02  0.45238403996E+03  0.49370210087E+03  0.17200000000E+03 0. -1.
         -6    1    1    2    0  501 -0.21343459698E+02 -0.95136226106E+02  0.33291725949E+02  0.20049634362E+03  0.17200000000E+03 0.  1.
</event>
<event>
 4    1  0.6352740E-002  0.2019507E+03  0.7818608E-02  0.1148104E+00
         -2   -1    0    0    0  501 -0.00000000000E+00  0.00000000000E+00  0.28839824300E+02  0.28839824300E+02  0.00000000000E+00 0.  1.
          2   -1    0    0  502    0  0.00000000000E+00 -0.00000000000E+00 -0.27590985271E+04  0.27590985271E+04  0.00000000000E+00 0. -1.
          6    1    1    2  502    0  0.76780729500E+02 -0.72834212253E+02 -0.23383715072E+04  0.23470759273E+04  0.17200000000E+03 0. -1.
         -6    1    1    2    0  501 -0.76780729500E+02  0.72834212253E+02 -0.39188719563E+03  0.44086242411E+03  0.17200000000E+03 0.  1.
</event>
<event>
 4    1  0.6352740E-002  0.1955815E+03  0.7818608E-02  0.1153521E+00
          2   -1    0    0  502    0  0.00000000000E+00  0.00000000000E+00  0.11429378387E+03  0.11429378387E+03  0.00000000000E+00 0. -1.
         -2   -1    0    0    0  501 -0.00000000000E+00 -0.00000000000E+00 -0.36530670108E+03  0.36530670108E+03  0.00000000000E+00 0.  1.
          6    1    1    2  502    0  0.29156028923E+02  0.88419829479E+02 -0.56075605234E+02  0.20346157812E+03  0.17200000000E+03 0. -1.
         -6    1    1    2    0  501 -0.29156028923E+02 -0.88419829479E+02 -0.19493731197E+03  0.27613890683E+03  0.17200000000E+03 0.  1.
</event>
<event>
 4    1  0.6352740E-002  0.1862390E+03  0.7818608E-02  0.1161898E+00
          1   -1    0    0  502    0  0.00000000000E+00  0.00000000000E+00  0.11839033395E+04  0.11839033395E+04  0.00000000000E+00 0. -1.
         -1   -1    0    0    0  501 -0.00000000000E+00 -0.00000000000E+00 -0.32675001836E+02  0.32675001836E+02  0.00000000000E+00 0.  1.
          6    1    1    2  502    0  0.56393093941E+02  0.43826893423E+02  0.77119372055E+03  0.79336292593E+03  0.17200000000E+03 0. -1.
         -6    1    1    2    0  501 -0.56393093941E+02 -0.43826893423E+02  0.38003461714E+03  0.42321541543E+03  0.17200000000E+03 0.  1.
</event>
<event>
 4    1  0.6352740E-002  0.2156875E+03  0.7818608E-02  0.1137140E+00
          2   -1    0    0  502    0  0.00000000000E+00  0.00000000000E+00  0.64550349180E+03  0.64550349180E+03  0.00000000000E+00 0. -1.
         -2   -1    0    0    0  501 -0.00000000000E+00 -0.00000000000E+00 -0.10550836919E+03  0.10550836919E+03  0.00000000000E+00 0.  1.
          6    1    1    2  502    0  0.85930795611E+02  0.97739421452E+02  0.58600320225E+02  0.22350636159E+03  0.17200000000E+03 0.  1.
         -6    1    1    2    0  501 -0.85930795611E+02 -0.97739421452E+02  0.48139480238E+03  0.52750549940E+03  0.17200000000E+03 0. -1.
</event>
<event>
 4    1  0.6352740E-002  0.2851217E+03  0.7818608E-02  0.1092924E+00
          2   -1    0    0  502    0  0.00000000000E+00  0.00000000000E+00  0.16092199299E+04  0.16092199299E+04  0.00000000000E+00 0. -1.
         -2   -1    0    0    0  501 -0.00000000000E+00 -0.00000000000E+00 -0.62503978127E+02  0.62503978127E+02  0.00000000000E+00 0.  1.
          6    1    1    2  502    0  0.20596300427E+03  0.96382566469E+02  0.11393906711E+04  0.11745235033E+04  0.17200000000E+03 0. -1.
         -6    1    1    2    0  501 -0.20596300427E+03 -0.96382566469E+02  0.40732528061E+03  0.49720040474E+03  0.17200000000E+03 0.  1.
</event>
<event>
 4    1  0.6352740E-002  0.1820171E+03  0.7818608E-02  0.1165865E+00
          2   -1    0    0  502    0  0.00000000000E+00  0.00000000000E+00  0.10892867695E+04  0.10892867695E+04  0.00000000000E+00 0. -1.
         -2   -1    0    0    0  501 -0.00000000000E+00 -0.00000000000E+00 -0.38888792516E+02  0.38888792516E+02  0.00000000000E+00 0.  1.
          6    1    1    2  502    0 -0.28817463400E+00  0.59549348778E+02  0.26187893106E+03  0.31892127950E+03  0.17200000000E+03 0.  1.
         -6    1    1    2    0  501  0.28817463400E+00 -0.59549348778E+02  0.78851904590E+03  0.80925428249E+03  0.17200000000E+03 0. -1.
</event>
<event>
 4    1  0.6352740E-002  0.1859400E+03  0.7818608E-02  0.1162175E+00
          2   -1    0    0  502    0  0.00000000000E+00  0.00000000000E+00  0.19423449440E+04  0.19423449440E+04  0.00000000000E+00 0. -1.
         -2   -1    0    0    0  501 -0.00000000000E+00 -0.00000000000E+00 -0.20525986851E+02  0.20525986851E+02  0.00000000000E+00 0.  1.
          6    1    1    2  502    0 -0.33982053632E+02 -0.61926609960E+02  0.60324660704E+03  0.63125284467E+03  0.17200000000E+03 0.  1.
         -6    1    1    2    0  501  0.33982053632E+02  0.61926609960E+02  0.13185723501E+04  0.13316180862E+04  0.17200000000E+03 0. -1.
</event>
<event>
 4    1  0.6352740E-002  0.2170516E+03  0.7818608E-02  0.1136100E+00
          2   -1    0    0  502    0  0.00000000000E+00  0.00000000000E+00  0.89704311618E+03  0.89704311618E+03  0.00000000000E+00 0. -1.
         -2   -1    0    0    0  501 -0.00000000000E+00 -0.00000000000E+00 -0.81050842504E+02  0.81050842504E+02  0.00000000000E+00 0.  1.
          6    1    1    2  502    0 -0.10258640800E+03  0.83686387092E+02  0.69815799794E+03  0.73111967049E+03  0.17200000000E+03 0. -1.
         -6    1    1    2    0  501  0.10258640800E+03 -0.83686387092E+02  0.11783427574E+03  0.24697428819E+03  0.17200000000E+03 0.  1.
</event>
<event>
 4    1  0.6352740E-002  0.2143724E+03  0.7818608E-02  0.1138150E+00
         -4   -1    0    0    0  501 -0.00000000000E+00  0.00000000000E+00  0.80524655157E+03  0.80524655157E+03  0.00000000000E+00 0.  1.
          4   -1    0    0  502    0  0.00000000000E+00 -0.00000000000E+00 -0.57302353169E+02  0.57302353169E+02  0.00000000000E+00 0. -1.
          6    1    1    2  502    0  0.77492997423E+02  0.10181535547E+03  0.34651760487E+03  0.40746776774E+03  0.17200000000E+03 0. -1.
         -6    1    1    2    0  501 -0.77492997423E+02 -0.10181535547E+03  0.40142659353E+03  0.45508113700E+03  0.17200000000E+03 0.  1.
</event>
<event>
 4    1  0.6352740E-002  0.3049427E+03  0.7818608E-02  0.1082796E+00
          2   -1    0    0  502    0  0.00000000000E+00  0.00000000000E+00  0.20439975589E+04  0.20439975589E+04  0.00000000000E+00 0. -1.
         -2   -1    0    0    0  501 -0.00000000000E+00 -0.00000000000E+00 -0.46699648128E+02  0.46699648128E+02  0.00000000000E+00 0.  1.
          6    1    1    2  502    0  0.76780346463E+02  0.23981421507E+03  0.83070105342E+03  0.88490356508E+03  0.17200000000E+03 0. -1.
         -6    1    1    2    0  501 -0.76780346463E+02 -0.23981421507E+03  0.11665968573E+04  0.12057936419E+04  0.17200000000E+03 0. -1.
</event>
<event>
 4    1  0.6352740E-002  0.2400598E+03  0.7818608E-02  0.1119753E+00
          2   -1    0    0  502    0  0.00000000000E+00  0.00000000000E+00  0.26572275406E+04  0.26572275406E+04  0.00000000000E+00 0. -1.
         -2   -1    0    0    0  501 -0.00000000000E+00 -0.00000000000E+00 -0.38743860234E+02  0.38743860234E+02  0.00000000000E+00 0.  1.
          6    1    1    2  502    0 -0.13451291604E+03 -0.99754496479E+02  0.22036314061E+04  0.22166686848E+04  0.17200000000E+03 0. -1.
         -6    1    1    2    0  501  0.13451291604E+03  0.99754496479E+02  0.41485227426E+03  0.47930271605E+03  0.17200000000E+03 0.  1.
</event>
<event>
 4    1  0.6352740E-002  0.1960925E+03  0.7818608E-02  0.1153078E+00
         -2   -1    0    0    0  501 -0.00000000000E+00  0.00000000000E+00  0.24647723982E+02  0.24647723982E+02  0.00000000000E+00 0.  1.
          2   -1    0    0  502    0  0.00000000000E+00 -0.00000000000E+00 -0.18502877511E+04  0.18502877511E+04  0.00000000000E+00 0. -1.
          6    1    1    2  502    0  0.92359513062E+02  0.18384408979E+02 -0.12840951834E+04  0.12989814111E+04  0.17200000000E+03 0. -1.
         -6    1    1    2    0  501 -0.92359513062E+02 -0.18384408979E+02 -0.54154484366E+03  0.57595406400E+03  0.17200000000E+03 0.  1.
</event>
<event>
 4    1  0.6352740E-002  0.2157544E+03  0.7818608E-02  0.1137088E+00
          3   -1    0    0  502    0  0.00000000000E+00  0.00000000000E+00  0.45013735010E+03  0.45013735010E+03  0.00000000000E+00 0. -1.
         -3   -1    0    0    0  501 -0.00000000000E+00 -0.00000000000E+00 -0.19493532101E+03  0.19493532101E+03  0.00000000000E+00 0.  1.
          6    1    1    2  502    0 -0.94080534440E+02 -0.90082196146E+02  0.34860364535E+03  0.40996884098E+03  0.17200000000E+03 0. -1.
         -6    1    1    2    0  501  0.94080534440E+02  0.90082196146E+02 -0.93401616251E+02  0.23510383013E+03  0.17200000000E+03 0.  1.
</event>
<event>
 4    1  0.6352740E-002  0.1813886E+03  0.7818608E-02  0.1166466E+00
          2   -1    0    0  502    0  0.00000000000E+00  0.00000000000E+00  0.36853394486E+04  0.36853394486E+04  0.00000000000E+00 0. -1.
         -2   -1    0    0    0  501 -0.00000000000E+00 -0.00000000000E+00 -0.91257910821E+01  0.91257910821E+01  0.00000000000E+00 0.  1.
          6    1    1    2  502    0  0.38943671466E+02 -0.42440925699E+02  0.21102192488E+04  0.21180007365E+04  0.17200000000E+03 0. -1.
         -6    1    1    2    0  501 -0.38943671466E+02  0.42440925699E+02  0.15659944087E+04  0.15764645032E+04  0.17200000000E+03 0.  1.
</event>
<event>
 4    1  0.6352740E-002  0.2541557E+03  0.7818608E-02  0.1110706E+00
          1   -1    0    0  502    0  0.00000000000E+00  0.00000000000E+00  0.16363950441E+04  0.16363950441E+04  0.00000000000E+00 0. -1.
         -1   -1    0    0    0  501 -0.00000000000E+00 -0.00000000000E+00 -0.50294449487E+02  0.50294449487E+02  0.00000000000E+00 0.  1.
          6    1    1    2  502    0 -0.14373104978E+03 -0.11980188723E+03  0.40187883268E+03  0.47550152788E+03  0.17200000000E+03 0. -1.
         -6    1    1    2    0  501  0.14373104978E+03  0.11980188723E+03  0.11842217620E+04  0.12111879657E+04  0.17200000000E+03 0.  1.
</event>
<event>
 4    1  0.6352740E-002  0.2200703E+03  0.7818608E-02  0.1133831E+00
         -2   -1    0    0    0  501 -0.00000000000E+00  0.00000000000E+00  0.13045210941E+03  0.13045210941E+03  0.00000000000E+00 0.  1.
          2   -1    0    0  502    0  0.00000000000E+00 -0.00000000000E+00 -0.54794392958E+03  0.54794392958E+03  0.00000000000E+00 0. -1.
          6    1    1    2  502    0  0.11997503700E+02 -0.13675887274E+03 -0.40136111327E+03  0.45773537400E+03  0.17200000000E+03 0. -1.
         -6    1    1    2    0  501 -0.11997503700E+02  0.13675887274E+03 -0.16130706906E+02  0.22066066499E+03  0.17200000000E+03 0.  1.
</event>
<event>
 4    1  0.6352740E-002  0.3788545E+03  0.7818608E-02  0.1051358E+00
         -1   -1    0    0    0  501 -0.00000000000E+00  0.00000000000E+00  0.16517787196E+04  0.16517787196E+04  0.00000000000E+00 0.  1.
          1   -1    0    0  502    0  0.00000000000E+00 -0.00000000000E+00 -0.88575822996E+02  0.88575822996E+02  0.00000000000E+00 0. -1.
          6    1    1    2  502    0  0.15506428979E+03 -0.29983627108E+03  0.66171857449E+03  0.76249734114E+03  0.17200000000E+03 0. -1.
         -6    1    1    2    0  501 -0.15506428979E+03  0.29983627108E+03  0.90148432214E+03  0.97785720148E+03  0.17200000000E+03 0.  1.
</event>
<event>
 4    1  0.6352740E-002  0.1729263E+03  0.7818608E-02  0.1174830E+00
          2   -1    0    0  502    0  0.00000000000E+00  0.00000000000E+00  0.62447955067E+03  0.62447955067E+03  0.00000000000E+00 0. -1.
         -2   -1    0    0    0  501 -0.00000000000E+00 -0.00000000000E+00 -0.59239057589E+02  0.59239057589E+02  0.00000000000E+00 0.  1.
          6    1    1    2  502    0 -0.68310466528E+01 -0.16517823035E+02  0.43228162518E+03  0.46558662475E+03  0.17200000000E+03 0. -1.
         -6    1    1    2    0  501  0.68310466528E+01  0.16517823035E+02  0.13295886790E+03  0.21813198351E+03  0.17200000000E+03 0. -1.
</event>
<event>
 4    1  0.6352740E-002  0.4425135E+03  0.7818608E-02  0.1029978E+00
         -2   -1    0    0    0  501 -0.00000000000E+00  0.00000000000E+00  0.28865960052E+03  0.28865960052E+03  0.00000000000E+00 0.  1.
          2   -1    0    0  502    0  0.00000000000E+00 -0.00000000000E+00 -0.71394330099E+03  0.71394330099E+03  0.00000000000E+00 0. -1.
          6    1    1    2  502    0 -0.38594418440E+02 -0.40588750427E+03 -0.32454062563E+03  0.54876662885E+03  0.17200000000E+03 0. -1.
         -6    1    1    2    0  501  0.38594418440E+02  0.40588750427E+03 -0.10074307484E+03  0.45383627266E+03  0.17200000000E+03 0.  1.
</event>
<event>
 4    1  0.6352740E-002  0.1849798E+03  0.7818608E-02  0.1163069E+00
         -2   -1    0    0    0  501 -0.00000000000E+00  0.00000000000E+00  0.63731196548E+02  0.63731196548E+02  0.00000000000E+00 0.  1.
          2   -1    0    0  502    0  0.00000000000E+00 -0.00000000000E+00 -0.65824894028E+03  0.65824894028E+03  0.00000000000E+00 0. -1.
          6    1    1    2  502    0  0.27559587191E+02  0.62241520666E+02 -0.45225145287E+03  0.48861939622E+03  0.17200000000E+03 0. -1.
         -6    1    1    2    0  501 -0.27559587191E+02 -0.62241520666E+02 -0.14226629086E+03  0.23336074061E+03  0.17200000000E+03 0.  1.
</event>
<event>
 4    1  0.6352740E-002  0.1899538E+03  0.7818608E-02  0.1158503E+00
          2   -1    0    0  502    0  0.00000000000E+00  0.00000000000E+00  0.41704039090E+04  0.41704039090E+04  0.00000000000E+00 0. -1.
         -2   -1    0    0    0  501 -0.00000000000E+00 -0.00000000000E+00 -0.86708484012E+01  0.86708484012E+01  0.00000000000E+00 0.  1.
          6    1    1    2  502    0 -0.56587078544E+02 -0.57413953329E+02  0.21782110190E+04  0.21864779219E+04  0.17200000000E+03 0. -1.
         -6    1    1    2    0  501  0.56587078544E+02  0.57413953329E+02  0.19835220416E+04  0.19925968356E+04  0.17200000000E+03 0.  1.
</event>
<event>
 4    1  0.6352740E-002  0.1987160E+03  0.7818608E-02  0.1150827E+00
         -2   -1    0    0    0  501 -0.00000000000E+00  0.00000000000E+00  0.36068414884E+02  0.36068414884E+02  0.00000000000E+00 0.  1.
          2   -1    0    0  502    0  0.00000000000E+00 -0.00000000000E+00 -0.11399766359E+04  0.11399766359E+04  0.00000000000E+00 0. -1.
          6    1    1    2  502    0  0.95332086458E+02 -0.28563094417E+02 -0.66899979986E+03  0.69788880868E+03  0.17200000000E+03 0. -1.
         -6    1    1    2    0  501 -0.95332086458E+02  0.28563094417E+02 -0.43490842118E+03  0.47815624213E+03  0.17200000000E+03 0.  1.
</event>
<event>
 4    1  0.6352740E-002  0.2291170E+03  0.7818608E-02  0.1127263E+00
         -1   -1    0    0    0  501 -0.00000000000E+00  0.00000000000E+00  0.13711038045E+03  0.13711038045E+03  0.00000000000E+00 0.  1.
          1   -1    0    0  502    0  0.00000000000E+00 -0.00000000000E+00 -0.46035998557E+03  0.46035998557E+03  0.00000000000E+00 0. -1.
          6    1    1    2  502    0 -0.46173311939E+02  0.14414792881E+03 -0.28419299379E+03  0.36504829521E+03  0.17200000000E+03 0. -1.
         -6    1    1    2    0  501  0.46173311939E+02 -0.14414792881E+03 -0.39056611329E+02  0.23242207082E+03  0.17200000000E+03 0.  1.
</event>
<event>
 4    1  0.6352740E-002  0.1966143E+03  0.7818608E-02  0.1152627E+00
          1   -1    0    0  502    0  0.00000000000E+00  0.00000000000E+00  0.12285960907E+03  0.12285960907E+03  0.00000000000E+00 0. -1.
         -1   -1    0    0    0  501 -0.00000000000E+00 -0.00000000000E+00 -0.32291428682E+03  0.32291428682E+03  0.00000000000E+00 0.  1.
          6    1    1    2  502    0 -0.58605021966E+02 -0.75090811356E+02 -0.64359940480E+02  0.20688011139E+03  0.17200000000E+03 0. -1.
         -6    1    1    2    0  501  0.58605021966E+02  0.75090811356E+02 -0.13569473728E+03  0.23889378450E+03  0.17200000000E+03 0. -1.
</event>
<event>
 4    1  0.6352740E-002  0.2987795E+03  0.7818608E-02  0.1085852E+00
          2   -1    0    0  502    0  0.00000000000E+00  0.00000000000E+00  0.23173406877E+03  0.23173406877E+03  0.00000000000E+00 0. -1.
         -2   -1    0    0    0  501 -0.00000000000E+00 -0.00000000000E+00 -0.41904577033E+03  0.41904577033E+03  0.00000000000E+00 0.  1.
          6    1    1    2  502    0  0.20908488659E+03  0.12636737363E+03 -0.18610021771E+03  0.35199786071E+03  0.17200000000E+03 0. -1.
         -6    1    1    2    0  501 -0.20908488659E+03 -0.12636737363E+03 -0.12114838518E+01  0.29878197839E+03  0.17200000000E+03 0. -1.
</event>
<event>
 4    1  0.6352740E-002  0.2006825E+03  0.7818608E-02  0.1149164E+00
          1   -1    0    0  502    0  0.00000000000E+00  0.00000000000E+00  0.18261058315E+03  0.18261058315E+03  0.00000000000E+00 0. -1.
         -1   -1    0    0    0  501 -0.00000000000E+00 -0.00000000000E+00 -0.34206503356E+03  0.34206503356E+03  0.00000000000E+00 0.  1.
          6    1    1    2  502    0 -0.69291905044E+02 -0.76733840661E+02  0.76635922978E+02  0.21481739943E+03  0.17200000000E+03 0. -1.
         -6    1    1    2    0  501  0.69291905044E+02  0.76733840661E+02 -0.23609037339E+03  0.30985821727E+03  0.17200000000E+03 0.  1.
</event>
<event>
 4    1  0.6352740E-002  0.3924011E+03  0.7818608E-02  0.1046443E+00
         -2   -1    0    0    0  501 -0.00000000000E+00  0.00000000000E+00  0.42193601899E+03  0.42193601899E+03  0.00000000000E+00 0.  1.
          2   -1    0    0  502    0  0.00000000000E+00 -0.00000000000E+00 -0.38601063648E+03  0.38601063648E+03  0.00000000000E+00 0. -1.
          6    1    1    2  502    0  0.13427724124E+03 -0.32613537435E+03 -0.76434073137E+02  0.39977597158E+03  0.17200000000E+03 0. -1.
         -6    1    1    2    0  501 -0.13427724124E+03  0.32613537435E+03  0.11235945565E+03  0.40817068389E+03  0.17200000000E+03 0.  1.
</event>
<event>
 4    1  0.6352740E-002  0.2876859E+03  0.7818608E-02  0.1091564E+00
          2   -1    0    0  502    0  0.00000000000E+00  0.00000000000E+00  0.12393610973E+04  0.12393610973E+04  0.00000000000E+00 0. -1.
         -2   -1    0    0    0  501 -0.00000000000E+00 -0.00000000000E+00 -0.10491302095E+03  0.10491302095E+03  0.00000000000E+00 0.  1.
          6    1    1    2  502    0  0.88874389312E+02  0.21279215960E+03  0.16199546231E+03  0.33016009764E+03  0.17200000000E+03 0.  1.
         -6    1    1    2    0  501 -0.88874389312E+02 -0.21279215960E+03  0.97245261409E+03  0.10141140207E+04  0.17200000000E+03 0. -1.
</event>
<event>
 4    1  0.6352740E-002  0.1793201E+03  0.7818608E-02  0.1168463E+00
          1   -1    0    0  502    0  0.00000000000E+00  0.00000000000E+00  0.74676291149E+03  0.74676291149E+03  0.00000000000E+00 0. -1.
         -1   -1    0    0    0  501 -0.00000000000E+00 -0.00000000000E+00 -0.43152254301E+02  0.43152254301E+02  0.00000000000E+00 0.  1.
          6    1    1    2  502    0  0.55853598100E+01 -0.50403420303E+02  0.33355553359E+03  0.37870172301E+03  0.17200000000E+03 0. -1.
         -6    1    1    2    0  501 -0.55853598100E+01  0.50403420303E+02  0.37005512360E+03  0.41121344278E+03  0.17200000000E+03 0.  1.
</event>
<event>
 4    1  0.6352740E-002  0.2123098E+03  0.7818608E-02  0.1139750E+00
          1   -1    0    0  502    0  0.00000000000E+00  0.00000000000E+00  0.29864147308E+03  0.29864147308E+03  0.00000000000E+00 0. -1.
         -1   -1    0    0    0  501 -0.00000000000E+00 -0.00000000000E+00 -0.16194975073E+03  0.16194975073E+03  0.00000000000E+00 0.  1.
          6    1    1    2  502    0  0.27660451896E+02 -0.12135225752E+03  0.82863878095E+01  0.21247149274E+03  0.17200000000E+03 0. -1.
         -6    1    1    2    0  501 -0.27660451896E+02  0.12135225752E+03  0.12840533454E+03  0.24811973106E+03  0.17200000000E+03 0.  1.
</event>
<event>
 4    1  0.6352740E-002  0.2566482E+03  0.7818608E-02  0.1109174E+00
         -2   -1    0    0    0  501 -0.00000000000E+00  0.00000000000E+00  0.23210180980E+03  0.23210180980E+03  0.00000000000E+00 0.  1.
          2   -1    0    0  502    0  0.00000000000E+00 -0.00000000000E+00 -0.16899424796E+04  0.16899424796E+04  0.00000000000E+00 0. -1.
          6    1    1    2  502    0  0.19002016473E+03 -0.13290351038E+02 -0.16055447454E+04  0.16259281122E+04  0.17200000000E+03 0. -1.
         -6    1    1    2    0  501 -0.19002016473E+03  0.13290351038E+02  0.14770407565E+03  0.29611617720E+03  0.17200000000E+03 0.  1.
</event>
<event>
 4    1  0.6352740E-002  0.2089084E+03  0.7818608E-02  0.1142433E+00
         -2   -1    0    0    0  501 -0.00000000000E+00  0.00000000000E+00  0.19021806846E+02  0.19021806846E+02  0.00000000000E+00 0.  1.
          2   -1    0    0  502    0  0.00000000000E+00 -0.00000000000E+00 -0.24345247848E+04  0.24345247848E+04  0.00000000000E+00 0. -1.
          6    1    1    2  502    0  0.11856909242E+03  0.27642845074E+00 -0.15021192498E+04  0.15165767197E+04  0.17200000000E+03 0. -1.
         -6    1    1    2    0  501 -0.11856909242E+03 -0.27642845074E+00 -0.91338372807E+03  0.93696987187E+03  0.17200000000E+03 0.  1.
</event>
<event>
 4    1  0.6352740E-002  0.2042630E+03  0.7818608E-02  0.1146191E+00
         -2   -1    0    0    0  501 -0.00000000000E+00  0.00000000000E+00  0.75382074101E+02  0.75382074101E+02  0.00000000000E+00 0.  1.
          2   -1    0    0  502    0  0.00000000000E+00 -0.00000000000E+00 -0.58361705125E+03  0.58361705125E+03  0.00000000000E+00 0. -1.
          6    1    1    2  502    0  0.10669846412E+03  0.27473914884E+02 -0.32897828436E+03  0.38723389550E+03  0.17200000000E+03 0. -1.
         -6    1    1    2    0  501 -0.10669846412E+03 -0.27473914884E+02 -0.17925669279E+03  0.27176522985E+03  0.17200000000E+03 0.  1.
</event>
<event>
 4    1  0.6352740E-002  0.2171637E+03  0.7818608E-02  0.1136015E+00
          1   -1    0    0  502    0  0.00000000000E+00  0.00000000000E+00  0.55580623660E+03  0.55580623660E+03  0.00000000000E+00 0. -1.
         -1   -1    0    0    0  501 -0.00000000000E+00 -0.00000000000E+00 -0.85767764640E+02  0.85767764640E+02  0.00000000000E+00 0.  1.
          6    1    1    2  502    0  0.12965188210E+03  0.27685169356E+02  0.20183327127E+03  0.29647385808E+03  0.17200000000E+03 0.  1.
         -6    1    1    2    0  501 -0.12965188210E+03 -0.27685169356E+02  0.26820520069E+03  0.34510014316E+03  0.17200000000E+03 0. -1.
</event>
<event>
 4    1  0.6352740E-002  0.2147436E+03  0.7818608E-02  0.1137864E+00
          2   -1    0    0  502    0  0.00000000000E+00  0.00000000000E+00  0.10032372034E+04  0.10032372034E+04  0.00000000000E+00 0. -1.
         -2   -1    0    0    0  501 -0.00000000000E+00 -0.00000000000E+00 -0.11463811703E+03  0.11463811703E+03  0.00000000000E+00 0.  1.
          6    1    1    2  502    0 -0.98472248213E+02 -0.82668165263E+02  0.87690206187E+03  0.90281340006E+03  0.17200000000E+03 0. -1.
         -6    1    1    2    0  501  0.98472248213E+02  0.82668165263E+02  0.11697024512E+02  0.21506192038E+03  0.17200000000E+03 0.  1.
</event>
<event>
 4    1  0.6352740E-002  0.2441792E+03  0.7818608E-02  0.1117040E+00
          3   -1    0    0  502    0  0.00000000000E+00  0.00000000000E+00  0.20898182422E+03  0.20898182422E+03  0.00000000000E+00 0. -1.
         -3   -1    0    0    0  501 -0.00000000000E+00 -0.00000000000E+00 -0.34192717085E+03  0.34192717085E+03  0.00000000000E+00 0.  1.
          6    1    1    2  502    0 -0.43519874745E+02  0.16776618683E+03  0.45620175061E+02  0.24840425382E+03  0.17200000000E+03 0. -1.
         -6    1    1    2    0  501  0.43519874745E+02 -0.16776618683E+03 -0.17856552169E+03  0.30250474125E+03  0.17200000000E+03 0.  1.
</event>
<event>
 4    1  0.6352740E-002  0.1858660E+03  0.7818608E-02  0.1162244E+00
         -2   -1    0    0    0  501 -0.00000000000E+00  0.00000000000E+00  0.51894073151E+03  0.51894073151E+03  0.00000000000E+00 0.  1.
          2   -1    0    0  502    0  0.00000000000E+00 -0.00000000000E+00 -0.23396415717E+03  0.23396415717E+03  0.00000000000E+00 0. -1.
          6    1    1    2  502    0 -0.68508464401E+02 -0.16393643342E+02 -0.17593506674E+03  0.25592832775E+03  0.17200000000E+03 0. -1.
         -6    1    1    2    0  501  0.68508464401E+02  0.16393643342E+02  0.46091164108E+03  0.49697656094E+03  0.17200000000E+03 0.  1.
</event>
<event>
 4    1  0.6352740E-002  0.2477761E+03  0.7818608E-02  0.1114718E+00
         -1   -1    0    0    0  501 -0.00000000000E+00  0.00000000000E+00  0.20389955471E+02  0.20389955471E+02  0.00000000000E+00 0.  1.
          1   -1    0    0  502    0  0.00000000000E+00 -0.00000000000E+00 -0.30138448748E+04  0.30138448748E+04  0.00000000000E+00 0. -1.
          6    1    1    2  502    0  0.13492562826E+03 -0.11663644950E+03 -0.15438061566E+04  0.15635633776E+04  0.17200000000E+03 0.  1.
         -6    1    1    2    0  501 -0.13492562826E+03  0.11663644950E+03 -0.14496487626E+04  0.14706714526E+04  0.17200000000E+03 0. -1.
</event>
<event>
 4    1  0.6352740E-002  0.1822243E+03  0.7818608E-02  0.1165668E+00
         -2   -1    0    0    0  501 -0.00000000000E+00  0.00000000000E+00  0.54906355663E+02  0.54906355663E+02  0.00000000000E+00 0.  1.
          2   -1    0    0  502    0  0.00000000000E+00 -0.00000000000E+00 -0.82280957591E+03  0.82280957591E+03  0.00000000000E+00 0. -1.
          6    1    1    2  502    0 -0.49956740416E+01  0.59972810967E+02 -0.15803800891E+03  0.24120884535E+03  0.17200000000E+03 0.  1.
         -6    1    1    2    0  501  0.49956740416E+01 -0.59972810967E+02 -0.60986521134E+03  0.63650708623E+03  0.17200000000E+03 0.  1.
</event>
<event>
 4    1  0.6352740E-002  0.8302845E+03  0.7818608E-02  0.9517187E-01
          2   -1    0    0  502    0  0.00000000000E+00  0.00000000000E+00  0.31546822433E+04  0.31546822433E+04  0.00000000000E+00 0. -1.
         -2   -1    0    0    0  501 -0.00000000000E+00 -0.00000000000E+00 -0.23195264469E+03  0.23195264469E+03  0.00000000000E+00 0.  1.
          6    1    1    2  502    0  0.67745370494E+03 -0.44815723431E+03  0.10539265966E+04  0.13416906126E+04  0.17200000000E+03 0. -1.
         -6    1    1    2    0  501 -0.67745370494E+03  0.44815723431E+03  0.18688030020E+04  0.20449442753E+04  0.17200000000E+03 0.  1.
</event>
<event>
 4    1  0.6352740E-002  0.2091790E+03  0.7818608E-02  0.1142218E+00
         -1   -1    0    0    0  501 -0.00000000000E+00  0.00000000000E+00  0.98137100525E+03  0.98137100525E+03  0.00000000000E+00 0.  1.
          1   -1    0    0  502    0  0.00000000000E+00 -0.00000000000E+00 -0.79695302316E+02  0.79695302316E+02  0.00000000000E+00 0. -1.
          6    1    1    2  502    0 -0.96204601560E+02  0.70117910656E+02  0.98706657088E+02  0.23129818614E+03  0.17200000000E+03 0. -1.
         -6    1    1    2    0  501  0.96204601560E+02 -0.70117910656E+02  0.80296904585E+03  0.82976812143E+03  0.17200000000E+03 0.  1.
</event>
<event>
 4    1  0.6352740E-002  0.4471659E+03  0.7818608E-02  0.1028571E+00
          1   -1    0    0  502    0  0.00000000000E+00  0.00000000000E+00  0.27287952031E+03  0.27287952031E+03  0.00000000000E+00 0. -1.
         -1   -1    0    0    0  501 -0.00000000000E+00 -0.00000000000E+00 -0.74938239987E+03  0.74938239987E+03  0.00000000000E+00 0.  1.
          6    1    1    2  502    0 -0.41240590073E+03  0.17167480101E+02 -0.31435837928E+03  0.54660638484E+03  0.17200000000E+03 0. -1.
         -6    1    1    2    0  501  0.41240590073E+03 -0.17167480101E+02 -0.16214450028E+03  0.47565553534E+03  0.17200000000E+03 0.  1.
</event>
<event>
 4    1  0.6352740E-002  0.1751816E+03  0.7818608E-02  0.1172549E+00
          2   -1    0    0  502    0  0.00000000000E+00  0.00000000000E+00  0.25630623825E+03  0.25630623825E+03  0.00000000000E+00 0. -1.
         -2   -1    0    0    0  501 -0.00000000000E+00 -0.00000000000E+00 -0.19142475167E+03  0.19142475167E+03  0.00000000000E+00 0.  1.
          6    1    1    2  502    0 -0.83945154632E+01  0.32157979614E+02 -0.10455885617E+03  0.20401264163E+03  0.17200000000E+03 0.  1.
         -6    1    1    2    0  501  0.83945154632E+01 -0.32157979614E+02  0.16944034275E+03  0.24371834829E+03  0.17200000000E+03 0. -1.
</event>
<event>
 4    1  0.6352740E-002  0.1874508E+03  0.7818608E-02  0.1160781E+00
          1   -1    0    0  502    0  0.00000000000E+00  0.00000000000E+00  0.27877200813E+03  0.27877200813E+03  0.00000000000E+00 0. -1.
         -1   -1    0    0    0  501 -0.00000000000E+00 -0.00000000000E+00 -0.13589753213E+03  0.13589753213E+03  0.00000000000E+00 0.  1.
          6    1    1    2  502    0 -0.74260513211E+02  0.62580666759E+01  0.12726403344E+03  0.22656990406E+03  0.17200000000E+03 0. -1.
         -6    1    1    2    0  501  0.74260513211E+02 -0.62580666759E+01  0.15610442554E+02  0.18809963620E+03  0.17200000000E+03 0.  1.
</event>
<event>
 4    1  0.6352740E-002  0.2706196E+03  0.7818608E-02  0.1100926E+00
          3   -1    0    0  502    0  0.00000000000E+00  0.00000000000E+00  0.99545372433E+02  0.99545372433E+02  0.00000000000E+00 0. -1.
         -3   -1    0    0    0  501 -0.00000000000E+00 -0.00000000000E+00 -0.86117797263E+03  0.86117797263E+03  0.00000000000E+00 0.  1.
          6    1    1    2  502    0  0.23042739971E+02  0.20765355873E+03 -0.19745173551E+03  0.33499575546E+03  0.17200000000E+03 0. -1.
         -6    1    1    2    0  501 -0.23042739971E+02 -0.20765355873E+03 -0.56418086469E+03  0.62572758961E+03  0.17200000000E+03 0.  1.
</event>
<event>
 4    1  0.6352740E-002  0.1862790E+03  0.7818608E-02  0.1161861E+00
         -2   -1    0    0    0  501 -0.00000000000E+00  0.00000000000E+00  0.22421280082E+02  0.22421280082E+02  0.00000000000E+00 0.  1.
          2   -1    0    0  502    0  0.00000000000E+00 -0.00000000000E+00 -0.15609075058E+04  0.15609075058E+04  0.00000000000E+00 0. -1.
          6    1    1    2  502    0 -0.65979755889E+02 -0.27614165485E+02 -0.84225487188E+03  0.86260833495E+03  0.17200000000E+03 0. -1.
         -6    1    1    2    0  501  0.65979755889E+02  0.27614165485E+02 -0.69623135385E+03  0.72072045094E+03  0.17200000000E+03 0. -1.
</event>
<event>
 4    1  0.6352740E-002  0.4899187E+03  0.7818608E-02  0.1016444E+00
          2   -1    0    0  502    0  0.00000000000E+00  0.00000000000E+00  0.26193207138E+04  0.26193207138E+04  0.00000000000E+00 0. -1.
         -2   -1    0    0    0  501 -0.00000000000E+00 -0.00000000000E+00 -0.18864696011E+03  0.18864696011E+03  0.00000000000E+00 0.  1.
          6    1    1    2  502    0  0.44122485844E+03  0.12552682126E+03  0.20851932501E+03  0.53244780727E+03  0.17200000000E+03 0. -1.
         -6    1    1    2    0  501 -0.44122485844E+03 -0.12552682126E+03  0.22221544287E+04  0.22755198666E+04  0.17200000000E+03 0. -1.
</event>
<event>
 4    1  0.6352740E-002  0.1753518E+03  0.7818608E-02  0.1172379E+00
         -1   -1    0    0    0  501 -0.00000000000E+00  0.00000000000E+00  0.30500400364E+02  0.30500400364E+02  0.00000000000E+00 0.  1.
          1   -1    0    0  502    0  0.00000000000E+00 -0.00000000000E+00 -0.18646989151E+04  0.18646989151E+04  0.00000000000E+00 0. -1.
          6    1    1    2  502    0 -0.34009971393E+02  0.27542549955E+01 -0.15593469607E+04  0.15691753274E+04  0.17200000000E+03 0. -1.
         -6    1    1    2    0  501  0.34009971393E+02 -0.27542549955E+01 -0.27485155399E+03  0.32602398809E+03  0.17200000000E+03 0.  1.
</event>
<event>
 4    1  0.6352740E-002  0.4426147E+03  0.7818608E-02  0.1029948E+00
          1   -1    0    0  502    0  0.00000000000E+00  0.00000000000E+00  0.48579944252E+03  0.48579944252E+03  0.00000000000E+00 0. -1.
         -1   -1    0    0    0  501 -0.00000000000E+00 -0.00000000000E+00 -0.42867786967E+03  0.42867786967E+03  0.00000000000E+00 0.  1.
          6    1    1    2  502    0  0.14936459468E+03  0.37949173366E+03 -0.82758853446E+02  0.45028522725E+03  0.17200000000E+03 0. -1.
         -6    1    1    2    0  501 -0.14936459468E+03 -0.37949173366E+03  0.13988042629E+03  0.46419208494E+03  0.17200000000E+03 0.  1.
</event>
<event>
 4    1  0.6352740E-002  0.3854463E+03  0.7818608E-02  0.1048939E+00
          2   -1    0    0  502    0  0.00000000000E+00  0.00000000000E+00  0.14023874128E+03  0.14023874128E+03  0.00000000000E+00 0. -1.
         -2   -1    0    0    0  501 -0.00000000000E+00 -0.00000000000E+00 -0.18816052383E+04  0.18816052383E+04  0.00000000000E+00 0.  1.
          6    1    1    2  502    0  0.73495126117E+01 -0.34486353286E+03 -0.20242611680E+03  0.43536789546E+03  0.17200000000E+03 0. -1.
         -6    1    1    2    0  501 -0.73495126117E+01  0.34486353286E+03 -0.15389403802E+04  0.15864760842E+04  0.17200000000E+03 0.  1.
</event>
<event>
 4    1  0.6352740E-002  0.1924195E+03  0.7818608E-02  0.1156297E+00
          3   -1    0    0  502    0  0.00000000000E+00  0.00000000000E+00  0.61811010262E+02  0.61811010262E+02  0.00000000000E+00 0. -1.
         -3   -1    0    0    0  501 -0.00000000000E+00 -0.00000000000E+00 -0.61742418495E+03  0.61742418495E+03  0.00000000000E+00 0.  1.
          6    1    1    2  502    0 -0.82673604375E+02  0.24624119489E+02 -0.21915205968E+03  0.29163829889E+03  0.17200000000E+03 0. -1.
         -6    1    1    2    0  501  0.82673604375E+02 -0.24624119489E+02 -0.33646111501E+03  0.38759689632E+03  0.17200000000E+03 0.  1.
</event>
<event>
 4    1  0.6352740E-002  0.3980869E+03  0.7818608E-02  0.1044444E+00
          1   -1    0    0  502    0  0.00000000000E+00  0.00000000000E+00  0.79326378396E+03  0.79326378396E+03  0.00000000000E+00 0. -1.
         -1   -1    0    0    0  501 -0.00000000000E+00 -0.00000000000E+00 -0.54727136145E+03  0.54727136145E+03  0.00000000000E+00 0.  1.
          6    1    1    2  502    0  0.30787833602E+03 -0.18466210258E+03  0.65709654994E+03  0.76827666752E+03  0.17200000000E+03 0. -1.
         -6    1    1    2    0  501 -0.30787833602E+03  0.18466210258E+03 -0.41110412743E+03  0.57225847788E+03  0.17200000000E+03 0.  1.
</event>
<event>
 4    1  0.6352740E-002  0.2116865E+03  0.7818608E-02  0.1140237E+00
         -1   -1    0    0    0  501 -0.00000000000E+00  0.00000000000E+00  0.39499604986E+02  0.39499604986E+02  0.00000000000E+00 0.  1.
          1   -1    0    0  502    0  0.00000000000E+00 -0.00000000000E+00 -0.13692468709E+04  0.13692468709E+04  0.00000000000E+00 0. -1.
          6    1    1    2  502    0  0.12092375916E+03 -0.24588706777E+02 -0.37320574774E+03  0.42906140607E+03  0.17200000000E+03 0. -1.
         -6    1    1    2    0  501 -0.12092375916E+03  0.24588706777E+02 -0.95654151820E+03  0.97968506984E+03  0.17200000000E+03 0. -1.
</event>
<event>
 4    1  0.6352740E-002  0.2570538E+03  0.7818608E-02  0.1108926E+00
         -2   -1    0    0    0  501 -0.00000000000E+00  0.00000000000E+00  0.71461719622E+02  0.71461719622E+02  0.00000000000E+00 0.  1.
          2   -1    0    0  502    0  0.00000000000E+00 -0.00000000000E+00 -0.11218003710E+04  0.11218003710E+04  0.00000000000E+00 0. -1.
          6    1    1    2  502    0 -0.17824877599E+03  0.68702344356E+02 -0.77529233853E+03  0.81679547528E+03  0.17200000000E+03 0. -1.
         -6    1    1    2    0  501  0.17824877599E+03 -0.68702344356E+02 -0.27504631289E+03  0.37646661538E+03  0.17200000000E+03 0.  1.
</event>
<event>
 4    1  0.6352740E-002  0.3994819E+03  0.7818608E-02  0.1043959E+00
         -1   -1    0    0    0  501 -0.00000000000E+00  0.00000000000E+00  0.69525503505E+02  0.69525503505E+02  0.00000000000E+00 0.  1.
          1   -1    0    0  502    0  0.00000000000E+00 -0.00000000000E+00 -0.28190429918E+04  0.28190429918E+04  0.00000000000E+00 0. -1.
          6    1    1    2  502    0  0.17002446124E+03  0.31795194548E+03 -0.19972566069E+04  0.20368160719E+04  0.17200000000E+03 0. -1.
         -6    1    1    2    0  501 -0.17002446124E+03 -0.31795194548E+03 -0.75226088141E+03  0.85175242340E+03  0.17200000000E+03 0.  1.
</event>
<event>
 4    1  0.6352740E-002  0.3635861E+03  0.7818608E-02  0.1057173E+00
          2   -1    0    0  502    0  0.00000000000E+00  0.00000000000E+00  0.14950343885E+04  0.14950343885E+04  0.00000000000E+00 0. -1.
         -2   -1    0    0    0  501 -0.00000000000E+00 -0.00000000000E+00 -0.33088529923E+03  0.33088529923E+03  0.00000000000E+00 0.  1.
          6    1    1    2  502    0  0.30824320006E+03  0.87160707718E+02  0.13635860721E+04  0.14112270672E+04  0.17200000000E+03 0. -1.
         -6    1    1    2    0  501 -0.30824320006E+03 -0.87160707718E+02 -0.19943698282E+03  0.41469262047E+03  0.17200000000E+03 0.  1.
</event>
<event>
 4    1  0.6352740E-002  0.1946972E+03  0.7818608E-02  0.1154292E+00
          2   -1    0    0  502    0  0.00000000000E+00  0.00000000000E+00  0.12228415474E+04  0.12228415474E+04  0.00000000000E+00 0. -1.
         -2   -1    0    0    0  501 -0.00000000000E+00 -0.00000000000E+00 -0.41958443324E+02  0.41958443324E+02  0.00000000000E+00 0.  1.
          6    1    1    2  502    0 -0.50033584077E+02 -0.76286662857E+02  0.91364352429E+03  0.93415817929E+03  0.17200000000E+03 0. -1.
         -6    1    1    2    0  501  0.50033584077E+02  0.76286662857E+02  0.26723957982E+03  0.33064181146E+03  0.17200000000E+03 0.  1.
</event>
<event>
 4    1  0.6352740E-002  0.2174126E+03  0.7818608E-02  0.1135827E+00
          2   -1    0    0  502    0  0.00000000000E+00  0.00000000000E+00  0.13462825980E+04  0.13462825980E+04  0.00000000000E+00 0. -1.
         -2   -1    0    0    0  501 -0.00000000000E+00 -0.00000000000E+00 -0.35244348366E+02  0.35244348366E+02  0.00000000000E+00 0.  1.
          6    1    1    2  502    0 -0.12161636996E+03 -0.53793078117E+02  0.69813729912E+03  0.73120716977E+03  0.17200000000E+03 0. -1.
         -6    1    1    2    0  501  0.12161636996E+03  0.53793078117E+02  0.61290095051E+03  0.65031977659E+03  0.17200000000E+03 0.  1.
</event>
<event>
 4    1  0.6352740E-002  0.1860932E+03  0.7818608E-02  0.1162033E+00
          2   -1    0    0  502    0  0.00000000000E+00  0.00000000000E+00  0.96366622352E+03  0.96366622352E+03  0.00000000000E+00 0. -1.
         -2   -1    0    0    0  501 -0.00000000000E+00 -0.00000000000E+00 -0.63497266846E+02  0.63497266846E+02  0.00000000000E+00 0.  1.
          6    1    1    2  502    0 -0.20885252447E+01 -0.71009164331E+02  0.78844427618E+03  0.81010804218E+03  0.17200000000E+03 0. -1.
         -6    1    1    2    0  501  0.20885252447E+01  0.71009164331E+02  0.11172468049E+03  0.21705544819E+03  0.17200000000E+03 0.  1.
</event>
<event>
 4    1  0.6352740E-002  0.4416949E+03  0.7818608E-02  0.1030228E+00
          2   -1    0    0  502    0  0.00000000000E+00  0.00000000000E+00  0.95313203100E+03  0.95313203100E+03  0.00000000000E+00 0. -1.
         -2   -1    0    0    0  501 -0.00000000000E+00 -0.00000000000E+00 -0.24852803879E+03  0.24852803879E+03  0.00000000000E+00 0.  1.
          6    1    1    2  502    0  0.15111140240E+02  0.40654893436E+03  0.99953340014E+02  0.45286317224E+03  0.17200000000E+03 0. -1.
         -6    1    1    2    0  501 -0.15111140240E+02 -0.40654893436E+03  0.60465065219E+03  0.74879689755E+03  0.17200000000E+03 0.  1.
</event>
<event>
 4    1  0.6352740E-002  0.4046268E+03  0.7818608E-02  0.1042189E+00
          2   -1    0    0  502    0  0.00000000000E+00  0.00000000000E+00  0.25085375047E+04  0.25085375047E+04  0.00000000000E+00 0. -1.
         -2   -1    0    0    0  501 -0.00000000000E+00 -0.00000000000E+00 -0.66628340009E+02  0.66628340009E+02  0.00000000000E+00 0.  1.
          6    1    1    2  502    0 -0.50246228421E+02  0.36278669542E+03  0.10368576893E+04  0.11130124607E+04  0.17200000000E+03 0. -1.
         -6    1    1    2    0  501  0.50246228421E+02 -0.36278669542E+03  0.14050514754E+04  0.14621533840E+04  0.17200000000E+03 0.  1.
</event>
<event>
 4    1  0.6352740E-002  0.2115035E+03  0.7818608E-02  0.1140381E+00
         -2   -1    0    0    0  501 -0.00000000000E+00  0.00000000000E+00  0.32832253804E+02  0.32832253804E+02  0.00000000000E+00 0.  1.
          2   -1    0    0  502    0  0.00000000000E+00 -0.00000000000E+00 -0.26580283631E+04  0.26580283631E+04  0.00000000000E+00 0. -1.
          6    1    1    2  502    0  0.59761816983E+02 -0.10760234170E+03 -0.22519015131E+04  0.22618121415E+04  0.17200000000E+03 0. -1.
         -6    1    1    2    0  501 -0.59761816983E+02  0.10760234170E+03 -0.37329459626E+03  0.42904847547E+03  0.17200000000E+03 0.  1.
</event>
<event>
 4    1  0.6352740E-002  0.5245707E+03  0.7818608E-02  0.1007557E+00
         -1   -1    0    0    0  501 -0.00000000000E+00  0.00000000000E+00  0.19506501748E+04  0.19506501748E+04  0.00000000000E+00 0.  1.
          1   -1    0    0  502    0  0.00000000000E+00 -0.00000000000E+00 -0.14137041746E+03  0.14137041746E+03  0.00000000000E+00 0. -1.
          6    1    1    2  502    0  0.48828386664E+03  0.84671938884E+02  0.95301297263E+03  0.10878456681E+04  0.17200000000E+03 0. -1.
         -6    1    1    2    0  501 -0.48828386664E+03 -0.84671938884E+02  0.85626678474E+03  0.10041749242E+04  0.17200000000E+03 0.  1.
</event>
<event>
 4    1  0.6352740E-002  0.8346470E+03  0.7818608E-02  0.9511178E-01
          2   -1    0    0  502    0  0.00000000000E+00  0.00000000000E+00  0.24759074109E+04  0.24759074109E+04  0.00000000000E+00 0. -1.
         -2   -1    0    0    0  501 -0.00000000000E+00 -0.00000000000E+00 -0.31363735018E+03  0.31363735018E+03  0.00000000000E+00 0.  1.
          6    1    1    2  502    0 -0.78994896843E+03 -0.20744202303E+03  0.15285388077E+04  0.17415701112E+04  0.17200000000E+03 0. -1.
         -6    1    1    2    0  501  0.78994896843E+03  0.20744202303E+03  0.63373125297E+03  0.10479746498E+04  0.17200000000E+03 0.  1.
</event>
<event>
 4    1  0.6352740E-002  0.2227071E+03  0.7818608E-02  0.1131881E+00
          2   -1    0    0  502    0  0.00000000000E+00  0.00000000000E+00  0.45970467522E+03  0.45970467522E+03  0.00000000000E+00 0. -1.
         -2   -1    0    0    0  501 -0.00000000000E+00 -0.00000000000E+00 -0.12791660922E+03  0.12791660922E+03  0.00000000000E+00 0.  1.
          6    1    1    2  502    0 -0.12737079081E+02 -0.14089785922E+03  0.28214229716E+03  0.35944779282E+03  0.17200000000E+03 0. -1.
         -6    1    1    2    0  501  0.12737079081E+02  0.14089785922E+03  0.49645768832E+02  0.22817349162E+03  0.17200000000E+03 0.  1.
</event>
<event>
 4    1  0.6352740E-002  0.2229995E+03  0.7818608E-02  0.1131666E+00
         -1   -1    0    0    0  501 -0.00000000000E+00  0.00000000000E+00  0.38799523869E+02  0.38799523869E+02  0.00000000000E+00 0.  1.
          1   -1    0    0  502    0  0.00000000000E+00 -0.00000000000E+00 -0.15130487730E+04  0.15130487730E+04  0.00000000000E+00 0. -1.
          6    1    1    2  502    0 -0.51460748448E+02  0.13227452031E+03 -0.10405422009E+04  0.10641695491E+04  0.17200000000E+03 0. -1.
         -6    1    1    2    0  501  0.51460748448E+02 -0.13227452031E+03 -0.43370704827E+03  0.48767874782E+03  0.17200000000E+03 0.  1.
</event>
<event>
 4    1  0.6352740E-002  0.2207526E+03  0.7818608E-02  0.1133323E+00
         -2   -1    0    0    0  501 -0.00000000000E+00  0.00000000000E+00  0.12982886363E+03  0.12982886363E+03  0.00000000000E+00 0.  1.
          2   -1    0    0  502    0  0.00000000000E+00 -0.00000000000E+00 -0.16894325563E+04  0.16894325563E+04  0.00000000000E+00 0. -1.
          6    1    1    2  502    0 -0.10248541717E+03  0.92975472660E+02 -0.15820439586E+04  0.15973712111E+04  0.17200000000E+03 0. -1.
         -6    1    1    2    0  501  0.10248541717E+03 -0.92975472660E+02  0.22440265867E+02  0.22189020885E+03  0.17200000000E+03 0.  1.
</event>
<event>
 4    1  0.6352740E-002  0.2120275E+03  0.7818608E-02  0.1139970E+00
         -2   -1    0    0    0  501 -0.00000000000E+00  0.00000000000E+00  0.66844719562E+02  0.66844719562E+02  0.00000000000E+00 0.  1.
          2   -1    0    0  502    0  0.00000000000E+00 -0.00000000000E+00 -0.67576731406E+03  0.67576731406E+03  0.00000000000E+00 0. -1.
          6    1    1    2  502    0  0.93390737951E+02 -0.81546396428E+02 -0.27879532904E+03  0.35026058899E+03  0.17200000000E+03 0.  1.
         -6    1    1    2    0  501 -0.93390737951E+02  0.81546396428E+02 -0.33012726546E+03  0.39235144463E+03  0.17200000000E+03 0. -1.
</event>
<event>
 4    1  0.6352740E-002  0.1799112E+03  0.7818608E-02  0.1167889E+00
         -3   -1    0    0    0  501 -0.00000000000E+00  0.00000000000E+00  0.77539892367E+02  0.77539892367E+02  0.00000000000E+00 0.  1.
          3   -1    0    0  502    0  0.00000000000E+00 -0.00000000000E+00 -0.46000578797E+03  0.46000578797E+03  0.00000000000E+00 0. -1.
          6    1    1    2  502    0  0.52678973211E+02  0.29962690197E+01 -0.27299415276E+03  0.32694626361E+03  0.17200000000E+03 0. -1.
         -6    1    1    2    0  501 -0.52678973211E+02 -0.29962690197E+01 -0.10947174285E+03  0.21059941674E+03  0.17200000000E+03 0.  1.
</event>
<event>
 4    1  0.6352740E-002  0.4112719E+03  0.7818608E-02  0.1039945E+00
         -2   -1    0    0    0  501 -0.00000000000E+00  0.00000000000E+00  0.94496716974E+03  0.94496716974E+03  0.00000000000E+00 0.  1.
          2   -1    0    0  502    0  0.00000000000E+00 -0.00000000000E+00 -0.45559237397E+03  0.45559237397E+03  0.00000000000E+00 0. -1.
          6    1    1    2  502    0  0.32144628864E+03 -0.19034929275E+03 -0.30095391181E+03  0.50962518262E+03  0.17200000000E+03 0. -1.
         -6    1    1    2    0  501 -0.32144628864E+03  0.19034929275E+03  0.79032870758E+03  0.89093436108E+03  0.17200000000E+03 0.  1.
</event>
<event>
 4    1  0.6352740E-002  0.1797327E+03  0.7818608E-02  0.1168062E+00
         -1   -1    0    0    0  501 -0.00000000000E+00  0.00000000000E+00  0.17066219076E+02  0.17066219076E+02  0.00000000000E+00 0.  1.
          1   -1    0    0  502    0  0.00000000000E+00 -0.00000000000E+00 -0.19563446715E+04  0.19563446715E+04  0.00000000000E+00 0. -1.
          6    1    1    2  502    0 -0.36704586921E+02 -0.37049083305E+02 -0.11473933778E+04  0.11613851319E+04  0.17200000000E+03 0. -1.
         -6    1    1    2    0  501  0.36704586921E+02  0.37049083305E+02 -0.79188507463E+03  0.81202575864E+03  0.17200000000E+03 0.  1.
</event>
<event>
 4    1  0.6352740E-002  0.1988642E+03  0.7818608E-02  0.1150701E+00
          1   -1    0    0  502    0  0.00000000000E+00  0.00000000000E+00  0.25676786996E+03  0.25676786996E+03  0.00000000000E+00 0. -1.
         -1   -1    0    0    0  501 -0.00000000000E+00 -0.00000000000E+00 -0.45526121016E+03  0.45526121016E+03  0.00000000000E+00 0.  1.
          6    1    1    2  502    0  0.75233198088E+02 -0.65596653156E+02  0.19035150226E+03  0.27528285346E+03  0.17200000000E+03 0. -1.
         -6    1    1    2    0  501 -0.75233198088E+02  0.65596653156E+02 -0.38884484245E+03  0.43674622666E+03  0.17200000000E+03 0.  1.
</event>
<event>
 4    1  0.6352740E-002  0.2273275E+03  0.7818608E-02  0.1128535E+00
          4   -1    0    0  502    0  0.00000000000E+00  0.00000000000E+00  0.47936096080E+03  0.47936096080E+03  0.00000000000E+00 0. -1.
         -4   -1    0    0    0  501 -0.00000000000E+00 -0.00000000000E+00 -0.10983770605E+03  0.10983770605E+03  0.00000000000E+00 0.  1.
          6    1    1    2  502    0 -0.13571851396E+03  0.60615900661E+02  0.14469084888E+03  0.26946844749E+03  0.17200000000E+03 0.  1.
         -6    1    1    2    0  501  0.13571851396E+03 -0.60615900661E+02  0.22483240587E+03  0.31973021936E+03  0.17200000000E+03 0.  1.
</event>
<event>
 4    1  0.6352740E-002  0.2131270E+03  0.7818608E-02  0.1139113E+00
         -2   -1    0    0    0  501 -0.00000000000E+00  0.00000000000E+00  0.24307974927E+03  0.24307974927E+03  0.00000000000E+00 0.  1.
          2   -1    0    0  502    0  0.00000000000E+00 -0.00000000000E+00 -0.37939106728E+03  0.37939106728E+03  0.00000000000E+00 0. -1.
          6    1    1    2  502    0 -0.10150716861E+03 -0.74400321936E+02 -0.28986814171E+03  0.35978695468E+03  0.17200000000E+03 0. -1.
         -6    1    1    2    0  501  0.10150716861E+03  0.74400321936E+02  0.15355682369E+03  0.26268386187E+03  0.17200000000E+03 0.  1.
</event>
<event>
 4    1  0.6352740E-002  0.3330904E+03  0.7818608E-02  0.1069778E+00
          2   -1    0    0  502    0  0.00000000000E+00  0.00000000000E+00  0.22066078573E+04  0.22066078573E+04  0.00000000000E+00 0. -1.
         -2   -1    0    0    0  501 -0.00000000000E+00 -0.00000000000E+00 -0.60763979164E+02  0.60763979164E+02  0.00000000000E+00 0.  1.
          6    1    1    2  502    0 -0.17591233805E+03 -0.22454412954E+03  0.15438164019E+04  0.15793410967E+04  0.17200000000E+03 0. -1.
         -6    1    1    2    0  501  0.17591233805E+03  0.22454412954E+03  0.60202747622E+03  0.68803073981E+03  0.17200000000E+03 0.  1.
</event>
<event>
 4    1  0.6352740E-002  0.2812896E+03  0.7818608E-02  0.1094987E+00
         -1   -1    0    0    0  501 -0.00000000000E+00  0.00000000000E+00  0.89211529750E+02  0.89211529750E+02  0.00000000000E+00 0.  1.
          1   -1    0    0  502    0  0.00000000000E+00 -0.00000000000E+00 -0.12675734491E+04  0.12675734491E+04  0.00000000000E+00 0. -1.
          6    1    1    2  502    0 -0.18830304284E+03  0.11866668444E+03 -0.96093633063E+03  0.10012604304E+04  0.17200000000E+03 0. -1.
         -6    1    1    2    0  501  0.18830304284E+03 -0.11866668444E+03 -0.21742558875E+03  0.35552454849E+03  0.17200000000E+03 0.  1.
</event>
<event>
 4    1  0.6352740E-002  0.2385867E+03  0.7818608E-02  0.1120738E+00
         -1   -1    0    0    0  501 -0.00000000000E+00  0.00000000000E+00  0.26845937684E+03  0.26845937684E+03  0.00000000000E+00 0.  1.
          1   -1    0    0  502    0  0.00000000000E+00 -0.00000000000E+00 -0.27011189657E+03  0.27011189657E+03  0.00000000000E+00 0. -1.
          6    1    1    2  502    0 -0.12147330324E+03 -0.11217784121E+03 -0.12568853099E+03  0.26966875659E+03  0.17200000000E+03 0. -1.
         -6    1    1    2    0  501  0.12147330324E+03  0.11217784121E+03  0.12403601126E+03  0.26890251681E+03  0.17200000000E+03 0.  1.
</event>
<event>
 4    1  0.6352740E-002  0.1887386E+03  0.7818608E-02  0.1159604E+00
          1   -1    0    0  502    0  0.00000000000E+00  0.00000000000E+00  0.22375256152E+03  0.22375256152E+03  0.00000000000E+00 0. -1.
         -1   -1    0    0    0  501 -0.00000000000E+00 -0.00000000000E+00 -0.24131842957E+03  0.24131842957E+03  0.00000000000E+00 0.  1.
          6    1    1    2  502    0  0.72518977515E+02 -0.27915436864E+02  0.12686216102E+03  0.22741214043E+03  0.17200000000E+03 0. -1.
         -6    1    1    2    0  501 -0.72518977515E+02  0.27915436864E+02 -0.14442802908E+03  0.23765885066E+03  0.17200000000E+03 0.  1.
</event>
<event>
 4    1  0.6352740E-002  0.2300793E+03  0.7818608E-02  0.1126584E+00
         -2   -1    0    0    0  501 -0.00000000000E+00  0.00000000000E+00  0.17145490280E+03  0.17145490280E+03  0.00000000000E+00 0.  1.
          2   -1    0    0  502    0  0.00000000000E+00 -0.00000000000E+00 -0.36483994287E+03  0.36483994287E+03  0.00000000000E+00 0. -1.
          6    1    1    2  502    0  0.15065981845E+03 -0.25575333797E+02 -0.20183300207E+03  0.30606051578E+03  0.17200000000E+03 0. -1.
         -6    1    1    2    0  501 -0.15065981845E+03  0.25575333797E+02  0.84479619968E+01  0.23023432988E+03  0.17200000000E+03 0.  1.
</event>
<event>
 4    1  0.6352740E-002  0.2034839E+03  0.7818608E-02  0.1146832E+00
         -3   -1    0    0    0  501 -0.00000000000E+00  0.00000000000E+00  0.11731654775E+03  0.11731654775E+03  0.00000000000E+00 0.  1.
          3   -1    0    0  502    0  0.00000000000E+00 -0.00000000000E+00 -0.35352921721E+03  0.35352921721E+03  0.00000000000E+00 0. -1.
          6    1    1    2  502    0 -0.90038117101E+02 -0.60949436480E+02 -0.10849480184E+03  0.23060099385E+03  0.17200000000E+03 0. -1.
         -6    1    1    2    0  501  0.90038117101E+02  0.60949436480E+02 -0.12771786761E+03  0.24024477111E+03  0.17200000000E+03 0. -1.
</event>
<event>
 4    1  0.6352740E-002  0.3092963E+03  0.7818608E-02  0.1080684E+00
          2   -1    0    0  502    0  0.00000000000E+00  0.00000000000E+00  0.39660355998E+03  0.39660355998E+03  0.00000000000E+00 0. -1.
         -2   -1    0    0    0  501 -0.00000000000E+00 -0.00000000000E+00 -0.26143697998E+03  0.26143697998E+03  0.00000000000E+00 0.  1.
          6    1    1    2  502    0 -0.21493948011E+03  0.14100085103E+03  0.15910389185E+03  0.34781930439E+03  0.17200000000E+03 0. -1.
         -6    1    1    2    0  501  0.21493948011E+03 -0.14100085103E+03 -0.23937311849E+02  0.31022123557E+03  0.17200000000E+03 0.  1.
</event>
<event>
 4    1  0.6352740E-002  0.7030907E+03  0.7818608E-02  0.9711961E-01
          1   -1    0    0  502    0  0.00000000000E+00  0.00000000000E+00  0.23432973544E+03  0.23432973544E+03  0.00000000000E+00 0. -1.
         -1   -1    0    0    0  501 -0.00000000000E+00 -0.00000000000E+00 -0.22761626560E+04  0.22761626560E+04  0.00000000000E+00 0.  1.
          6    1    1    2  502    0 -0.68168443202E+03  0.76705786391E+01 -0.68133284848E+03  0.97905615419E+03  0.17200000000E+03 0. -1.
         -6    1    1    2    0  501  0.68168443202E+03 -0.76705786391E+01 -0.13605000721E+04  0.15314362372E+04  0.17200000000E+03 0.  1.
</event>
<event>
 4    1  0.6352740E-002  0.2192630E+03  0.7818608E-02  0.1134434E+00
          1   -1    0    0  502    0  0.00000000000E+00  0.00000000000E+00  0.29009516783E+03  0.29009516783E+03  0.00000000000E+00 0. -1.
         -1   -1    0    0    0  501 -0.00000000000E+00 -0.00000000000E+00 -0.16788459382E+03  0.16788459382E+03  0.00000000000E+00 0.  1.
          6    1    1    2  502    0 -0.50857535474E+02  0.12611812100E+03  0.35138928768E+02  0.22206083327E+03  0.17200000000E+03 0.  1.
         -6    1    1    2    0  501  0.50857535474E+02 -0.12611812100E+03  0.87071645240E+02  0.23591892837E+03  0.17200000000E+03 0.  1.
</event>
<event>
 4    1  0.6352740E-002  0.1728838E+03  0.7818608E-02  0.1174873E+00
         -2   -1    0    0    0  501 -0.00000000000E+00  0.00000000000E+00  0.30806382849E+03  0.30806382849E+03  0.00000000000E+00 0.  1.
          2   -1    0    0  502    0  0.00000000000E+00 -0.00000000000E+00 -0.17916427506E+03  0.17916427506E+03  0.00000000000E+00 0. -1.
          6    1    1    2  502    0 -0.14840885834E+02 -0.91956937393E+01  0.22940319879E+03  0.28725361667E+03  0.17200000000E+03 0.  1.
         -6    1    1    2    0  501  0.14840885834E+02  0.91956937393E+01 -0.10050364535E+03  0.19997448689E+03  0.17200000000E+03 0. -1.
</event>
<event>
 4    1  0.6352740E-002  0.1983732E+03  0.7818608E-02  0.1151119E+00
         -2   -1    0    0    0  501 -0.00000000000E+00  0.00000000000E+00  0.25310331266E+02  0.25310331266E+02  0.00000000000E+00 0.  1.
          2   -1    0    0  502    0  0.00000000000E+00 -0.00000000000E+00 -0.25379001877E+04  0.25379001877E+04  0.00000000000E+00 0. -1.
          6    1    1    2  502    0 -0.51630878763E+02  0.84274314478E+02 -0.45862889888E+03  0.49969227992E+03  0.17200000000E+03 0.  1.
         -6    1    1    2    0  501  0.51630878763E+02 -0.84274314478E+02 -0.20539609575E+04  0.20635182390E+04  0.17200000000E+03 0. -1.
</event>
<event>
 4    1  0.6352740E-002  0.2353360E+03  0.7818608E-02  0.1122939E+00
         -1   -1    0    0    0  501 -0.00000000000E+00  0.00000000000E+00  0.17684484120E+03  0.17684484120E+03  0.00000000000E+00 0.  1.
          1   -1    0    0  502    0  0.00000000000E+00 -0.00000000000E+00 -0.31970671602E+03  0.31970671602E+03  0.00000000000E+00 0. -1.
          6    1    1    2  502    0 -0.13275207914E+02 -0.16007130024E+03 -0.35938624228E+02  0.23806435478E+03  0.17200000000E+03 0. -1.
         -6    1    1    2    0  501  0.13275207914E+02  0.16007130024E+03 -0.10692325059E+03  0.25848720244E+03  0.17200000000E+03 0.  1.
</event>
<event>
 4    1  0.6352740E-002  0.3717425E+03  0.7818608E-02  0.1054029E+00
         -1   -1    0    0    0  501 -0.00000000000E+00  0.00000000000E+00  0.31994598271E+03  0.31994598271E+03  0.00000000000E+00 0.  1.
          1   -1    0    0  502    0  0.00000000000E+00 -0.00000000000E+00 -0.48928787743E+03  0.48928787743E+03  0.00000000000E+00 0. -1.
          6    1    1    2  502    0  0.22554551406E+03 -0.24028678696E+03 -0.22321218335E+03  0.43360834597E+03  0.17200000000E+03 0. -1.
         -6    1    1    2    0  501 -0.22554551406E+03  0.24028678696E+03  0.53870288632E+02  0.37562551417E+03  0.17200000000E+03 0.  1.
</event>
<event>
 4    1  0.6352740E-002  0.1829166E+03  0.7818608E-02  0.1165010E+00
          2   -1    0    0  502    0  0.00000000000E+00  0.00000000000E+00  0.80845823615E+02  0.80845823615E+02  0.00000000000E+00 0. -1.
         -2   -1    0    0    0  501 -0.00000000000E+00 -0.00000000000E+00 -0.44430786456E+03  0.44430786456E+03  0.00000000000E+00 0.  1.
          6    1    1    2  502    0 -0.60349258884E+02 -0.15246459495E+02 -0.25047347549E+03  0.31015391259E+03  0.17200000000E+03 0.  1.
         -6    1    1    2    0  501  0.60349258884E+02  0.15246459495E+02 -0.11298856546E+03  0.21499977558E+03  0.17200000000E+03 0. -1.
</event>
<event>
 4    1  0.6352740E-002  0.8181795E+03  0.7818608E-02  0.9534070E-01
          1   -1    0    0  502    0  0.00000000000E+00  0.00000000000E+00  0.70065163623E+03  0.70065163623E+03  0.00000000000E+00 0. -1.
         -1   -1    0    0    0  501 -0.00000000000E+00 -0.00000000000E+00 -0.96422250119E+03  0.96422250119E+03  0.00000000000E+00 0.  1.
          6    1    1    2  502    0  0.62275689673E+03 -0.50200348358E+03 -0.52255910271E+02  0.81984652839E+03  0.17200000000E+03 0. -1.
         -6    1    1    2    0  501 -0.62275689673E+03  0.50200348358E+03 -0.21131495470E+03  0.84502760903E+03  0.17200000000E+03 0.  1.
</event>
<event>
 4    1  0.6352740E-002  0.2376938E+03  0.7818608E-02  0.1121339E+00
         -1   -1    0    0    0  501 -0.00000000000E+00  0.00000000000E+00  0.65257489965E+03  0.65257489965E+03  0.00000000000E+00 0.  1.
          1   -1    0    0  502    0  0.00000000000E+00 -0.00000000000E+00 -0.15952677645E+03  0.15952677645E+03  0.00000000000E+00 0. -1.
          6    1    1    2  502    0  0.15956371633E+03 -0.38128423906E+02 -0.28059079883E+02  0.23934424631E+03  0.17200000000E+03 0. -1.
         -6    1    1    2    0  501 -0.15956371633E+03  0.38128423906E+02  0.52110720308E+03  0.57275742979E+03  0.17200000000E+03 0.  1.
</event>
<event>
 4    1  0.6352740E-002  0.1943223E+03  0.7818608E-02  0.1154620E+00
          2   -1    0    0  502    0  0.00000000000E+00  0.00000000000E+00  0.16122995641E+04  0.16122995641E+04  0.00000000000E+00 0. -1.
         -2   -1    0    0    0  501 -0.00000000000E+00 -0.00000000000E+00 -0.33571063982E+02  0.33571063982E+02  0.00000000000E+00 0.  1.
          6    1    1    2  502    0 -0.89428271664E+02  0.13407248197E+02  0.12418700441E+04  0.12569814544E+04  0.17200000000E+03 0. -1.
         -6    1    1    2    0  501  0.89428271664E+02 -0.13407248197E+02  0.33685845601E+03  0.38888917376E+03  0.17200000000E+03 0.  1.
</event>
<event>
 4    1  0.6352740E-002  0.1779155E+03  0.7818608E-02  0.1169836E+00
         -1   -1    0    0    0  501 -0.00000000000E+00  0.00000000000E+00  0.24533673022E+02  0.24533673022E+02  0.00000000000E+00 0.  1.
          1   -1    0    0  502    0  0.00000000000E+00 -0.00000000000E+00 -0.14991368662E+04  0.14991368662E+04  0.00000000000E+00 0. -1.
          6    1    1    2  502    0 -0.45171262260E+02 -0.54309736253E+01 -0.10216971675E+04  0.10370723410E+04  0.17200000000E+03 0. -1.
         -6    1    1    2    0  501  0.45171262260E+02  0.54309736253E+01 -0.45290602568E+03  0.48659819822E+03  0.17200000000E+03 0.  1.
</event>
<event>
 4    1  0.6352740E-002  0.1950361E+03  0.7818608E-02  0.1153996E+00
         -2   -1    0    0    0  501 -0.00000000000E+00  0.00000000000E+00  0.51587278783E+03  0.51587278783E+03  0.00000000000E+00 0.  1.
          2   -1    0    0  502    0  0.00000000000E+00 -0.00000000000E+00 -0.36881237386E+03  0.36881237386E+03  0.00000000000E+00 0. -1.
          6    1    1    2  502    0  0.75460546699E+02 -0.52543031541E+02 -0.32212990650E+03  0.37657235817E+03  0.17200000000E+03 0. -1.
         -6    1    1    2    0  501 -0.75460546699E+02  0.52543031541E+02  0.46919032048E+03  0.50811280352E+03  0.17200000000E+03 0.  1.
</event>
<event>
 4    1  0.6352740E-002  0.1796325E+03  0.7818608E-02  0.1168159E+00
         -3   -1    0    0    0  501 -0.00000000000E+00  0.00000000000E+00  0.33321683623E+03  0.33321683623E+03  0.00000000000E+00 0.  1.
          3   -1    0    0  502    0  0.00000000000E+00 -0.00000000000E+00 -0.19186024493E+03  0.19186024493E+03  0.00000000000E+00 0. -1.
          6    1    1    2  502    0 -0.26691372436E+02  0.44400400119E+02 -0.11408460431E+03  0.21279831257E+03  0.17200000000E+03 0. -1.
         -6    1    1    2    0  501  0.26691372436E+02 -0.44400400119E+02  0.25544119561E+03  0.31227876859E+03  0.17200000000E+03 0.  1.
</event>
<event>
 4    1  0.6352740E-002  0.2130297E+03  0.7818608E-02  0.1139189E+00
         -1   -1    0    0    0  501 -0.00000000000E+00  0.00000000000E+00  0.66697975484E+02  0.66697975484E+02  0.00000000000E+00 0.  1.
          1   -1    0    0  502    0  0.00000000000E+00 -0.00000000000E+00 -0.81936862396E+03  0.81936862396E+03  0.00000000000E+00 0. -1.
          6    1    1    2  502    0  0.12414829098E+03  0.19617380134E+02 -0.55878671720E+03  0.59801691872E+03  0.17200000000E+03 0. -1.
         -6    1    1    2    0  501 -0.12414829098E+03 -0.19617380134E+02 -0.19388393128E+03  0.28804968073E+03  0.17200000000E+03 0.  1.
</event>
<event>
 4    1  0.6352740E-002  0.2940261E+03  0.7818608E-02  0.1088266E+00
         -2   -1    0    0    0  501 -0.00000000000E+00  0.00000000000E+00  0.64823673775E+02  0.64823673775E+02  0.00000000000E+00 0.  1.
          2   -1    0    0  502    0  0.00000000000E+00 -0.00000000000E+00 -0.14746411125E+04  0.14746411125E+04  0.00000000000E+00 0. -1.
          6    1    1    2  502    0 -0.30097943170E+02  0.23656168957E+03 -0.94292728704E+03  0.98770602296E+03  0.17200000000E+03 0. -1.
         -6    1    1    2    0  501  0.30097943170E+02 -0.23656168957E+03 -0.46689015171E+03  0.55175876333E+03  0.17200000000E+03 0. -1.
</event>
<event>
 4    1  0.6352740E-002  0.2088948E+03  0.7818608E-02  0.1142444E+00
         -2   -1    0    0    0  501 -0.00000000000E+00  0.00000000000E+00  0.27935512646E+02  0.27935512646E+02  0.00000000000E+00 0.  1.
          2   -1    0    0  502    0  0.00000000000E+00 -0.00000000000E+00 -0.21013961248E+04  0.21013961248E+04  0.00000000000E+00 0. -1.
          6    1    1    2  502    0 -0.11811825147E+03 -0.10055615771E+02 -0.15761015738E+04  0.15898846523E+04  0.17200000000E+03 0. -1.
         -6    1    1    2    0  501  0.11811825147E+03  0.10055615771E+02 -0.49735903844E+03  0.53944698521E+03  0.17200000000E+03 0.  1.
</event>
<event>
 4    1  0.6352740E-002  0.2502068E+03  0.7818608E-02  0.1113174E+00
         -1   -1    0    0    0  501 -0.00000000000E+00  0.00000000000E+00  0.18281487257E+03  0.18281487257E+03  0.00000000000E+00 0.  1.
          1   -1    0    0  502    0  0.00000000000E+00 -0.00000000000E+00 -0.97747103978E+03  0.97747103978E+03  0.00000000000E+00 0. -1.
          6    1    1    2  502    0 -0.10358643144E+03 -0.14929598673E+03 -0.86493396062E+03  0.90039668850E+03  0.17200000000E+03 0. -1.
         -6    1    1    2    0  501  0.10358643144E+03  0.14929598673E+03  0.70277793401E+02  0.25988922385E+03  0.17200000000E+03 0.  1.
</event>
<event>
 4    1  0.6352740E-002  0.2612337E+03  0.7818608E-02  0.1106404E+00
          1   -1    0    0  502    0  0.00000000000E+00  0.00000000000E+00  0.27907450282E+04  0.27907450282E+04  0.00000000000E+00 0. -1.
         -1   -1    0    0    0  501 -0.00000000000E+00 -0.00000000000E+00 -0.29949464187E+02  0.29949464187E+02  0.00000000000E+00 0.  1.
          6    1    1    2  502    0  0.17279951816E+03  0.93805072963E+02  0.19845681153E+04  0.20016877053E+04  0.17200000000E+03 0. -1.
         -6    1    1    2    0  501 -0.17279951816E+03 -0.93805072963E+02  0.77622744862E+03  0.81900678702E+03  0.17200000000E+03 0.  1.
</event>
<event>
 4    1  0.6352740E-002  0.1872037E+03  0.7818608E-02  0.1161008E+00
         -2   -1    0    0    0  501 -0.00000000000E+00  0.00000000000E+00  0.69285421102E+02  0.69285421102E+02  0.00000000000E+00 0.  1.
          2   -1    0    0  502    0  0.00000000000E+00 -0.00000000000E+00 -0.10383152790E+04  0.10383152790E+04  0.00000000000E+00 0. -1.
          6    1    1    2  502    0 -0.66997840522E+02  0.31185397588E+02 -0.88111307089E+03  0.90078048566E+03  0.17200000000E+03 0. -1.
         -6    1    1    2    0  501  0.66997840522E+02 -0.31185397588E+02 -0.87916786985E+02  0.20682021442E+03  0.17200000000E+03 0.  1.
</event>
<event>
 4    1  0.6352740E-002  0.2602251E+03  0.7818608E-02  0.1107008E+00
          1   -1    0    0  502    0  0.00000000000E+00  0.00000000000E+00  0.17215784152E+03  0.17215784152E+03  0.00000000000E+00 0. -1.
         -1   -1    0    0    0  501 -0.00000000000E+00 -0.00000000000E+00 -0.41104275414E+03  0.41104275414E+03  0.00000000000E+00 0.  1.
          6    1    1    2  502    0  0.12766080841E+03  0.14776942811E+03 -0.58932366902E+02  0.26681474801E+03  0.17200000000E+03 0. -1.
         -6    1    1    2    0  501 -0.12766080841E+03 -0.14776942811E+03 -0.17995254572E+03  0.31638584765E+03  0.17200000000E+03 0.  1.
</event>
<event>
 4    1  0.6352740E-002  0.5905863E+03  0.7818608E-02  0.9925131E-01
         -2   -1    0    0    0  501 -0.00000000000E+00  0.00000000000E+00  0.15569027318E+04  0.15569027318E+04  0.00000000000E+00 0.  1.
          2   -1    0    0  502    0  0.00000000000E+00 -0.00000000000E+00 -0.24568898198E+03  0.24568898198E+03  0.00000000000E+00 0. -1.
          6    1    1    2  502    0  0.45189495028E+03  0.33911527019E+03  0.92321426562E+03  0.10959547403E+04  0.17200000000E+03 0. -1.
         -6    1    1    2    0  501 -0.45189495028E+03 -0.33911527019E+03  0.38799948424E+03  0.70663697351E+03  0.17200000000E+03 0.  1.
</event>
<event>
 4    1  0.6352740E-002  0.2554297E+03  0.7818608E-02  0.1109921E+00
          2   -1    0    0  502    0  0.00000000000E+00  0.00000000000E+00  0.15714147703E+04  0.15714147703E+04  0.00000000000E+00 0. -1.
         -2   -1    0    0    0  501 -0.00000000000E+00 -0.00000000000E+00 -0.41883398544E+02  0.41883398544E+02  0.00000000000E+00 0.  1.
          6    1    1    2  502    0 -0.16779640439E+03  0.86629772846E+02  0.68957645780E+03  0.73536388409E+03  0.17200000000E+03 0. -1.
         -6    1    1    2    0  501  0.16779640439E+03 -0.86629772846E+02  0.83995491395E+03  0.87793428475E+03  0.17200000000E+03 0.  1.
</event>
<event>
 4    1  0.6352740E-002  0.3215695E+03  0.7818608E-02  0.1074929E+00
         -2   -1    0    0    0  501 -0.00000000000E+00  0.00000000000E+00  0.28029845277E+03  0.28029845277E+03  0.00000000000E+00 0.  1.
          2   -1    0    0  502    0  0.00000000000E+00 -0.00000000000E+00 -0.44056774131E+03  0.44056774131E+03  0.00000000000E+00 0. -1.
          6    1    1    2  502    0  0.17790294370E+03 -0.20536179701E+03 -0.22548898425E+03  0.39274954751E+03  0.17200000000E+03 0. -1.
         -6    1    1    2    0  501 -0.17790294370E+03  0.20536179701E+03  0.65219695712E+02  0.32811664657E+03  0.17200000000E+03 0.  1.
</event>
<event>
 4    1  0.6352740E-002  0.1883293E+03  0.7818608E-02  0.1159977E+00
         -2   -1    0    0    0  501 -0.00000000000E+00  0.00000000000E+00  0.36673087394E+02  0.36673087394E+02  0.00000000000E+00 0.  1.
          2   -1    0    0  502    0  0.00000000000E+00 -0.00000000000E+00 -0.12948351905E+04  0.12948351905E+04  0.00000000000E+00 0. -1.
          6    1    1    2  502    0 -0.68932874841E+02  0.33647922082E+02 -0.96400269459E+03  0.98222661289E+03  0.17200000000E+03 0. -1.
         -6    1    1    2    0  501  0.68932874841E+02 -0.33647922082E+02 -0.29415940856E+03  0.34928166505E+03  0.17200000000E+03 0.  1.
</event>
<event>
 4    1  0.6352740E-002  0.1727212E+03  0.7818608E-02  0.1175039E+00
          2   -1    0    0  502    0  0.00000000000E+00  0.00000000000E+00  0.11680314554E+04  0.11680314554E+04  0.00000000000E+00 0. -1.
         -2   -1    0    0    0  501 -0.00000000000E+00 -0.00000000000E+00 -0.94763002957E+02  0.94763002957E+02  0.00000000000E+00 0.  1.
          6    1    1    2  502    0 -0.32904592123E+01 -0.15420260538E+02  0.10762759981E+04  0.10900470795E+04  0.17200000000E+03 0. -1.
         -6    1    1    2    0  501  0.32904592123E+01  0.15420260538E+02 -0.30075456450E+01  0.17274737882E+03  0.17200000000E+03 0.  1.
</event>
<event>
 4    1  0.6352740E-002  0.1776116E+03  0.7818608E-02  0.1170135E+00
          2   -1    0    0  502    0  0.00000000000E+00  0.00000000000E+00  0.87765874655E+03  0.87765874655E+03  0.00000000000E+00 0. -1.
         -2   -1    0    0    0  501 -0.00000000000E+00 -0.00000000000E+00 -0.43436954771E+02  0.43436954771E+02  0.00000000000E+00 0.  1.
          6    1    1    2  502    0  0.42234788340E+02  0.13345545780E+02  0.60840176886E+03  0.63379696535E+03  0.17200000000E+03 0. -1.
         -6    1    1    2    0  501 -0.42234788340E+02 -0.13345545780E+02  0.22582002293E+03  0.28729873598E+03  0.17200000000E+03 0.  1.
</event>
<event>
 4    1  0.6352740E-002  0.3703231E+03  0.7818608E-02  0.1054569E+00
         -2   -1    0    0    0  501 -0.00000000000E+00  0.00000000000E+00  0.48674648423E+03  0.48674648423E+03  0.00000000000E+00 0.  1.
          2   -1    0    0  502    0  0.00000000000E+00 -0.00000000000E+00 -0.31245598179E+03  0.31245598179E+03  0.00000000000E+00 0. -1.
          6    1    1    2  502    0 -0.30057023025E+03 -0.13119728786E+03 -0.38130661777E+02  0.37228099471E+03  0.17200000000E+03 0. -1.
         -6    1    1    2    0  501  0.30057023025E+03  0.13119728786E+03  0.21242116421E+03  0.42692147131E+03  0.17200000000E+03 0.  1.
</event>
<event>
 4    1  0.6352740E-002  0.2927556E+03  0.7818608E-02  0.1088919E+00
          1   -1    0    0  502    0  0.00000000000E+00  0.00000000000E+00  0.16248304704E+04  0.16248304704E+04  0.00000000000E+00 0. -1.
         -1   -1    0    0    0  501 -0.00000000000E+00 -0.00000000000E+00 -0.15374495763E+03  0.15374495763E+03  0.00000000000E+00 0.  1.
          6    1    1    2  502    0 -0.24112827831E+02 -0.23567013042E+03  0.14563131657E+04  0.14854473654E+04  0.17200000000E+03 0. -1.
         -6    1    1    2    0  501  0.24112827831E+02  0.23567013042E+03  0.14772347040E+02  0.29312806259E+03  0.17200000000E+03 0.  1.
</event>
<event>
 4    1  0.6352740E-002  0.3574633E+03  0.7818608E-02  0.1059593E+00
          2   -1    0    0  502    0  0.00000000000E+00  0.00000000000E+00  0.38467090347E+03  0.38467090347E+03  0.00000000000E+00 0. -1.
         -2   -1    0    0    0  501 -0.00000000000E+00 -0.00000000000E+00 -0.14501685954E+04  0.14501685954E+04  0.00000000000E+00 0.  1.
          6    1    1    2  502    0 -0.72804054549E+01  0.31327786450E+03  0.27277333097E+03  0.44965021381E+03  0.17200000000E+03 0. -1.
         -6    1    1    2    0  501  0.72804054549E+01 -0.31327786450E+03 -0.13382710229E+04  0.13851892850E+04  0.17200000000E+03 0.  1.
</event>
<event>
 4    1  0.6352740E-002  0.2086146E+03  0.7818608E-02  0.1142668E+00
          2   -1    0    0  502    0  0.00000000000E+00  0.00000000000E+00  0.58712211351E+03  0.58712211351E+03  0.00000000000E+00 0. -1.
         -2   -1    0    0    0  501 -0.00000000000E+00 -0.00000000000E+00 -0.84526128555E+02  0.84526128555E+02  0.00000000000E+00 0.  1.
          6    1    1    2  502    0 -0.68408711926E+00 -0.11804907099E+03  0.36910469028E+03  0.42397915459E+03  0.17200000000E+03 0. -1.
         -6    1    1    2    0  501  0.68408711926E+00  0.11804907099E+03  0.13349129467E+03  0.24766908747E+03  0.17200000000E+03 0.  1.
</event>
<event>
 4    1  0.6352740E-002  0.2430310E+03  0.7818608E-02  0.1117790E+00
          2   -1    0    0  502    0  0.00000000000E+00  0.00000000000E+00  0.59195712906E+03  0.59195712906E+03  0.00000000000E+00 0. -1.
         -2   -1    0    0    0  501 -0.00000000000E+00 -0.00000000000E+00 -0.19229266265E+03  0.19229266265E+03  0.00000000000E+00 0.  1.
          6    1    1    2  502    0  0.17095693069E+03  0.15930731115E+02  0.47181994826E+03  0.53073357150E+03  0.17200000000E+03 0. -1.
         -6    1    1    2    0  501 -0.17095693069E+03 -0.15930731115E+02 -0.72155481845E+02  0.25351622020E+03  0.17200000000E+03 0.  1.
</event>
<event>
 4    1  0.6352740E-002  0.1834904E+03  0.7818608E-02  0.1164467E+00
         -2   -1    0    0    0  501 -0.00000000000E+00  0.00000000000E+00  0.16597481806E+02  0.16597481806E+02  0.00000000000E+00 0.  1.
          2   -1    0    0  502    0  0.00000000000E+00 -0.00000000000E+00 -0.20381508948E+04  0.20381508948E+04  0.00000000000E+00 0. -1.
          6    1    1    2  502    0 -0.17829433162E+02  0.61374473307E+02 -0.10813129255E+04  0.10967708774E+04  0.17200000000E+03 0. -1.
         -6    1    1    2    0  501  0.17829433162E+02 -0.61374473307E+02 -0.94024048747E+03  0.95797749918E+03  0.17200000000E+03 0.  1.
</event>
<event>
 4    1  0.6352740E-002  0.1941382E+03  0.7818608E-02  0.1154781E+00
          2   -1    0    0  502    0  0.00000000000E+00  0.00000000000E+00  0.66198889306E+03  0.66198889306E+03  0.00000000000E+00 0. -1.
         -2   -1    0    0    0  501 -0.00000000000E+00 -0.00000000000E+00 -0.64984619578E+02  0.64984619578E+02  0.00000000000E+00 0.  1.
          6    1    1    2  502    0  0.85896680101E+02  0.26970105171E+02  0.42644025753E+03  0.46855193892E+03  0.17200000000E+03 0. -1.
         -6    1    1    2    0  501 -0.85896680101E+02 -0.26970105171E+02  0.17056401596E+03  0.25842157372E+03  0.17200000000E+03 0.  1.
</event>
<event>
 4    1  0.6352740E-002  0.5426274E+03  0.7818608E-02  0.1003215E+00
          2   -1    0    0  502    0  0.00000000000E+00  0.00000000000E+00  0.10923893690E+04  0.10923893690E+04  0.00000000000E+00 0. -1.
         -2   -1    0    0    0  501 -0.00000000000E+00 -0.00000000000E+00 -0.27318499488E+03  0.27318499488E+03  0.00000000000E+00 0.  1.
          6    1    1    2  502    0  0.51464593757E+03 -0.87999938637E-01  0.48845300753E+03  0.73008957627E+03  0.17200000000E+03 0. -1.
         -6    1    1    2    0  501 -0.51464593757E+03  0.87999938637E-01  0.33075136659E+03  0.63548478762E+03  0.17200000000E+03 0.  1.
</event>
<event>
 4    1  0.6352740E-002  0.1812891E+03  0.7818608E-02  0.1166561E+00
          2   -1    0    0  502    0  0.00000000000E+00  0.00000000000E+00  0.75895011064E+03  0.75895011064E+03  0.00000000000E+00 0. -1.
         -2   -1    0    0    0  501 -0.00000000000E+00 -0.00000000000E+00 -0.55163315059E+02  0.55163315059E+02  0.00000000000E+00 0.  1.
          6    1    1    2  502    0  0.45359442649E+02 -0.34989408197E+02  0.54062978360E+03  0.57021601226E+03  0.17200000000E+03 0. -1.
         -6    1    1    2    0  501 -0.45359442649E+02  0.34989408197E+02  0.16315701198E+03  0.24389741344E+03  0.17200000000E+03 0.  1.
</event>
<event>
 4    1  0.6352740E-002  0.2388427E+03  0.7818608E-02  0.1120566E+00
          1   -1    0    0  502    0  0.00000000000E+00  0.00000000000E+00  0.19105172709E+03  0.19105172709E+03  0.00000000000E+00 0. -1.
         -1   -1    0    0    0  501 -0.00000000000E+00 -0.00000000000E+00 -0.10111886372E+04  0.10111886372E+04  0.00000000000E+00 0.  1.
          6    1    1    2  502    0  0.94837361863E+02  0.13589598389E+03  0.94555865512E+02  0.25687867826E+03  0.17200000000E+03 0. -1.
         -6    1    1    2    0  501 -0.94837361863E+02 -0.13589598389E+03 -0.91469277566E+03  0.94536168607E+03  0.17200000000E+03 0.  1.
</event>
<event>
 4    1  0.6352740E-002  0.2145293E+03  0.7818608E-02  0.1138029E+00
         -1   -1    0    0    0  501 -0.00000000000E+00  0.00000000000E+00  0.91830230909E+02  0.91830230909E+02  0.00000000000E+00 0.  1.
          1   -1    0    0  502    0  0.00000000000E+00 -0.00000000000E+00 -0.14064946123E+04  0.14064946123E+04  0.00000000000E+00 0. -1.
          6    1    1    2  502    0 -0.12746695002E+03  0.13819739354E+02 -0.12583792194E+04  0.12765347893E+04  0.17200000000E+03 0. -1.
         -6    1    1    2    0  501  0.12746695002E+03 -0.13819739354E+02 -0.56285161997E+02  0.22179005389E+03  0.17200000000E+03 0.  1.
</event>
<event>
 4    1  0.6352740E-002  0.3103711E+03  0.7818608E-02  0.1080168E+00
         -2   -1    0    0    0  501 -0.00000000000E+00  0.00000000000E+00  0.93575990206E+02  0.93575990206E+02  0.00000000000E+00 0.  1.
          2   -1    0    0  502    0  0.00000000000E+00 -0.00000000000E+00 -0.11510319594E+04  0.11510319594E+04  0.00000000000E+00 0. -1.
          6    1    1    2  502    0 -0.16947353809E+03 -0.19499981308E+03 -0.73099446169E+03  0.79415559574E+03  0.17200000000E+03 0. -1.
         -6    1    1    2    0  501  0.16947353809E+03  0.19499981308E+03 -0.32646150746E+03  0.45045235383E+03  0.17200000000E+03 0.  1.
</event>
<event>
 4    1  0.6352740E-002  0.3038546E+03  0.7818608E-02  0.1083329E+00
         -2   -1    0    0    0  501 -0.00000000000E+00  0.00000000000E+00  0.24248511723E+03  0.24248511723E+03  0.00000000000E+00 0.  1.
          2   -1    0    0  502    0  0.00000000000E+00 -0.00000000000E+00 -0.50760487188E+03  0.50760487188E+03  0.00000000000E+00 0. -1.
          6    1    1    2  502    0  0.21325038110E+03  0.13140736186E+03 -0.32004382717E+03  0.44131130860E+03  0.17200000000E+03 0. -1.
         -6    1    1    2    0  501 -0.21325038110E+03 -0.13140736186E+03  0.54924072515E+02  0.30877868050E+03  0.17200000000E+03 0.  1.
</event>
<event>
 4    1  0.6352740E-002  0.2014907E+03  0.7818608E-02  0.1148487E+00
          1   -1    0    0  502    0  0.00000000000E+00  0.00000000000E+00  0.15359335213E+03  0.15359335213E+03  0.00000000000E+00 0. -1.
         -1   -1    0    0    0  501 -0.00000000000E+00 -0.00000000000E+00 -0.27106425395E+03  0.27106425395E+03  0.00000000000E+00 0.  1.
          6    1    1    2  502    0 -0.14615208204E+02  0.10392732783E+03 -0.92216046646E+02  0.22159037217E+03  0.17200000000E+03 0.  1.
         -6    1    1    2    0  501  0.14615208204E+02 -0.10392732783E+03 -0.25254855172E+02  0.20306723392E+03  0.17200000000E+03 0. -1.
</event>
<event>
 4    1  0.6352740E-002  0.5497198E+03  0.7818608E-02  0.1001559E+00
         -2   -1    0    0    0  501 -0.00000000000E+00  0.00000000000E+00  0.39208182619E+03  0.39208182619E+03  0.00000000000E+00 0.  1.
          2   -1    0    0  502    0  0.00000000000E+00 -0.00000000000E+00 -0.78645284327E+03  0.78645284327E+03  0.00000000000E+00 0. -1.
          6    1    1    2  502    0  0.31065405168E+03 -0.41964499679E+03 -0.11388480868E+03  0.56139256568E+03  0.17200000000E+03 0. -1.
         -6    1    1    2    0  501 -0.31065405168E+03  0.41964499679E+03 -0.28048620841E+03  0.61714210378E+03  0.17200000000E+03 0.  1.
</event>
<event>
 4    1  0.6352740E-002  0.4204672E+03  0.7818608E-02  0.1036914E+00
         -2   -1    0    0    0  501 -0.00000000000E+00  0.00000000000E+00  0.41865187778E+03  0.41865187778E+03  0.00000000000E+00 0.  1.
          2   -1    0    0  502    0  0.00000000000E+00 -0.00000000000E+00 -0.42542337984E+03  0.42542337984E+03  0.00000000000E+00 0. -1.
          6    1    1    2  502    0  0.36100476918E+03  0.12993946508E+03 -0.39602781327E+02  0.42232817600E+03  0.17200000000E+03 0. -1.
         -6    1    1    2    0  501 -0.36100476918E+03 -0.12993946508E+03  0.32831279271E+02  0.42174708162E+03  0.17200000000E+03 0.  1.
</event>
<event>
 4    1  0.6352740E-002  0.1794659E+03  0.7818608E-02  0.1168321E+00
          2   -1    0    0  502    0  0.00000000000E+00  0.00000000000E+00  0.19312994745E+04  0.19312994745E+04  0.00000000000E+00 0. -1.
         -2   -1    0    0    0  501 -0.00000000000E+00 -0.00000000000E+00 -0.99162902345E+02  0.99162902345E+02  0.00000000000E+00 0.  1.
          6    1    1    2  502    0 -0.43038439696E+02 -0.27779397109E+02 -0.98668868115E+01  0.17973691232E+03  0.17200000000E+03 0.  1.
         -6    1    1    2    0  501  0.43038439696E+02  0.27779397109E+02  0.18420034590E+04  0.18507254645E+04  0.17200000000E+03 0. -1.
</event>
<event>
 4    1  0.6352740E-002  0.4594173E+03  0.7818608E-02  0.1024950E+00
         -1   -1    0    0    0  501 -0.00000000000E+00  0.00000000000E+00  0.14287687309E+04  0.14287687309E+04  0.00000000000E+00 0.  1.
          1   -1    0    0  502    0  0.00000000000E+00 -0.00000000000E+00 -0.32042421888E+03  0.32042421888E+03  0.00000000000E+00 0. -1.
          6    1    1    2  502    0 -0.40879700232E+03  0.11985529268E+03 -0.87910125046E+02  0.46775257389E+03  0.17200000000E+03 0. -1.
         -6    1    1    2    0  501  0.40879700232E+03 -0.11985529268E+03  0.11962546370E+04  0.12814403759E+04  0.17200000000E+03 0.  1.
</event>
<event>
 4    1  0.6352740E-002  0.4398636E+03  0.7818608E-02  0.1030789E+00
         -2   -1    0    0    0  501 -0.00000000000E+00  0.00000000000E+00  0.18648148770E+03  0.18648148770E+03  0.00000000000E+00 0.  1.
          2   -1    0    0  502    0  0.00000000000E+00 -0.00000000000E+00 -0.10796736437E+04  0.10796736437E+04  0.00000000000E+00 0. -1.
          6    1    1    2  502    0 -0.27348288197E+03 -0.29850147271E+03 -0.32151832078E+03  0.54484313939E+03  0.17200000000E+03 0. -1.
         -6    1    1    2    0  501  0.27348288197E+03  0.29850147271E+03 -0.57167383520E+03  0.72131199200E+03  0.17200000000E+03 0.  1.
</event>
<event>
 4    1  0.6352740E-002  0.1926877E+03  0.7818608E-02  0.1156059E+00
         -2   -1    0    0    0  501 -0.00000000000E+00  0.00000000000E+00  0.44283487984E+02  0.44283487984E+02  0.00000000000E+00 0.  1.
          2   -1    0    0  502    0  0.00000000000E+00 -0.00000000000E+00 -0.11339321432E+04  0.11339321432E+04  0.00000000000E+00 0. -1.
          6    1    1    2  502    0 -0.53552445811E+02  0.68386391407E+02 -0.24409051283E+03  0.31098029107E+03  0.17200000000E+03 0.  1.
         -6    1    1    2    0  501  0.53552445811E+02 -0.68386391407E+02 -0.84555814238E+03  0.86723534011E+03  0.17200000000E+03 0.  1.
</event>
<event>
 4    1  0.6352740E-002  0.3723087E+03  0.7818608E-02  0.1053814E+00
         -1   -1    0    0    0  501 -0.00000000000E+00  0.00000000000E+00  0.31958903294E+03  0.31958903294E+03  0.00000000000E+00 0.  1.
          1   -1    0    0  502    0  0.00000000000E+00 -0.00000000000E+00 -0.48746746586E+03  0.48746746586E+03  0.00000000000E+00 0. -1.
          6    1    1    2  502    0  0.33010390376E+03 -0.78237274938E+01  0.50046762972E+02  0.37565739241E+03  0.17200000000E+03 0. -1.
         -6    1    1    2    0  501 -0.33010390376E+03  0.78237274938E+01 -0.21792519589E+03  0.43139910639E+03  0.17200000000E+03 0. -1.
</event>
<event>
 4    1  0.6352740E-002  0.2365598E+03  0.7818608E-02  0.1122106E+00
          1   -1    0    0  502    0  0.00000000000E+00  0.00000000000E+00  0.36392268170E+03  0.36392268170E+03  0.00000000000E+00 0. -1.
         -1   -1    0    0    0  501 -0.00000000000E+00 -0.00000000000E+00 -0.18777111708E+03  0.18777111708E+03  0.00000000000E+00 0.  1.
          6    1    1    2  502    0  0.13913636934E+03  0.83771136299E+02 -0.29305220738E+02  0.23836805263E+03  0.17200000000E+03 0. -1.
         -6    1    1    2    0  501 -0.13913636934E+03 -0.83771136299E+02  0.20545678536E+03  0.31332574615E+03  0.17200000000E+03 0.  1.
</event>
<event>
 4    1  0.6352740E-002  0.1733048E+03  0.7818608E-02  0.1174445E+00
          2   -1    0    0  502    0  0.00000000000E+00  0.00000000000E+00  0.40857787939E+03  0.40857787939E+03  0.00000000000E+00 0. -1.
         -2   -1    0    0    0  501 -0.00000000000E+00 -0.00000000000E+00 -0.87351586871E+02  0.87351586871E+02  0.00000000000E+00 0.  1.
          6    1    1    2  502    0 -0.21089467524E+02  0.24084404577E+01  0.25931997908E+03  0.31189969185E+03  0.17200000000E+03 0. -1.
         -6    1    1    2    0  501  0.21089467524E+02 -0.24084404577E+01  0.61906313436E+02  0.18402977441E+03  0.17200000000E+03 0.  1.
</event>
<event>
 4    1  0.6352740E-002  0.2296136E+03  0.7818608E-02  0.1126912E+00
         -2   -1    0    0    0  501 -0.00000000000E+00  0.00000000000E+00  0.31428607503E+02  0.31428607503E+02  0.00000000000E+00 0.  1.
          2   -1    0    0  502    0  0.00000000000E+00 -0.00000000000E+00 -0.17350096646E+04  0.17350096646E+04  0.00000000000E+00 0. -1.
          6    1    1    2  502    0  0.67242681860E+02  0.13644347660E+03 -0.10125506793E+04  0.10382587726E+04  0.17200000000E+03 0. -1.
         -6    1    1    2    0  501 -0.67242681860E+02 -0.13644347660E+03 -0.69103037774E+03  0.72817949953E+03  0.17200000000E+03 0.  1.
</event>
<event>
 4    1  0.6352740E-002  0.1728279E+03  0.7818608E-02  0.1174931E+00
          2   -1    0    0  502    0  0.00000000000E+00  0.00000000000E+00  0.58372442405E+03  0.58372442405E+03  0.00000000000E+00 0. -1.
         -2   -1    0    0    0  501 -0.00000000000E+00 -0.00000000000E+00 -0.59941484180E+02  0.59941484180E+02  0.00000000000E+00 0.  1.
          6    1    1    2  502    0  0.47390728244E+01 -0.16217623202E+02  0.38500079543E+03  0.42201313083E+03  0.17200000000E+03 0. -1.
         -6    1    1    2    0  501 -0.47390728244E+01  0.16217623202E+02  0.13878214445E+03  0.22165277740E+03  0.17200000000E+03 0.  1.
</event>
<event>
 4    1  0.6352740E-002  0.1982313E+03  0.7818608E-02  0.1151240E+00
          2   -1    0    0  502    0  0.00000000000E+00  0.00000000000E+00  0.13669268122E+04  0.13669268122E+04  0.00000000000E+00 0. -1.
         -2   -1    0    0    0  501 -0.00000000000E+00 -0.00000000000E+00 -0.40519204215E+02  0.40519204215E+02  0.00000000000E+00 0.  1.
          6    1    1    2  502    0 -0.98460360454E+02  0.41462552585E+01  0.10425120140E+04  0.10611912803E+04  0.17200000000E+03 0. -1.
         -6    1    1    2    0  501  0.98460360454E+02 -0.41462552585E+01  0.28389559401E+03  0.34625473616E+03  0.17200000000E+03 0.  1.
</event>
<event>
 4    1  0.6352740E-002  0.2644216E+03  0.7818608E-02  0.1104515E+00
          1   -1    0    0  502    0  0.00000000000E+00  0.00000000000E+00  0.59758301999E+02  0.59758301999E+02  0.00000000000E+00 0. -1.
         -1   -1    0    0    0  501 -0.00000000000E+00 -0.00000000000E+00 -0.20485991457E+04  0.20485991457E+04  0.00000000000E+00 0.  1.
          6    1    1    2  502    0 -0.10930737576E+03  0.16848352151E+03 -0.30406207270E+03  0.40295476604E+03  0.17200000000E+03 0. -1.
         -6    1    1    2    0  501  0.10930737576E+03 -0.16848352151E+03 -0.16847787710E+04  0.17054026816E+04  0.17200000000E+03 0.  1.
</event>
<event>
 4    1  0.6352740E-002  0.2662426E+03  0.7818608E-02  0.1103450E+00
         -1   -1    0    0    0  501 -0.00000000000E+00  0.00000000000E+00  0.60710933309E+02  0.60710933309E+02  0.00000000000E+00 0.  1.
          1   -1    0    0  502    0  0.00000000000E+00 -0.00000000000E+00 -0.13715912436E+04  0.13715912436E+04  0.00000000000E+00 0. -1.
          6    1    1    2  502    0  0.17004101868E+03  0.11129757728E+03 -0.93163487530E+03  0.96893170018E+03  0.17200000000E+03 0. -1.
         -6    1    1    2    0  501 -0.17004101868E+03 -0.11129757728E+03 -0.37924543500E+03  0.46337047674E+03  0.17200000000E+03 0. -1.
</event>
<event>
 4    1  0.6352740E-002  0.1739705E+03  0.7818608E-02  0.1173769E+00
         -1   -1    0    0    0  501 -0.00000000000E+00  0.00000000000E+00  0.17816031867E+03  0.17816031867E+03  0.00000000000E+00 0.  1.
          1   -1    0    0  502    0  0.00000000000E+00 -0.00000000000E+00 -0.18668022516E+03  0.18668022516E+03  0.00000000000E+00 0. -1.
          6    1    1    2  502    0  0.13355087053E+02 -0.22435812927E+02 -0.58985793439E+02  0.18369825225E+03  0.17200000000E+03 0. -1.
         -6    1    1    2    0  501 -0.13355087053E+02  0.22435812927E+02  0.50465886952E+02  0.18114229158E+03  0.17200000000E+03 0.  1.
</event>
<event>
 4    1  0.6352740E-002  0.2375133E+03  0.7818608E-02  0.1121461E+00
         -1   -1    0    0    0  501 -0.00000000000E+00  0.00000000000E+00  0.86770152546E+02  0.86770152546E+02  0.00000000000E+00 0.  1.
          1   -1    0    0  502    0  0.00000000000E+00 -0.00000000000E+00 -0.77093073619E+03  0.77093073619E+03  0.00000000000E+00 0. -1.
          6    1    1    2  502    0  0.91853194689E+02  0.13561547495E+03 -0.51183379239E+03  0.56425738582E+03  0.17200000000E+03 0. -1.
         -6    1    1    2    0  501 -0.91853194689E+02 -0.13561547495E+03 -0.17232679125E+03  0.29344350292E+03  0.17200000000E+03 0. -1.
</event>
<event>
 4    1  0.6352740E-002  0.1842792E+03  0.7818608E-02  0.1163725E+00
          1   -1    0    0  502    0  0.00000000000E+00  0.00000000000E+00  0.76652678759E+03  0.76652678759E+03  0.00000000000E+00 0. -1.
         -1   -1    0    0    0  501 -0.00000000000E+00 -0.00000000000E+00 -0.46201982525E+02  0.46201982525E+02  0.00000000000E+00 0.  1.
          6    1    1    2  502    0 -0.48942190914E+02  0.44491504392E+02  0.44256405855E+03  0.47939730698E+03  0.17200000000E+03 0. -1.
         -6    1    1    2    0  501  0.48942190914E+02 -0.44491504392E+02  0.27776074651E+03  0.33333146313E+03  0.17200000000E+03 0.  1.
</event>
<event>
 4    1  0.6352740E-002  0.1763033E+03  0.7818608E-02  0.1171429E+00
          1   -1    0    0  502    0  0.00000000000E+00  0.00000000000E+00  0.31363818904E+03  0.31363818904E+03  0.00000000000E+00 0. -1.
         -1   -1    0    0    0  501 -0.00000000000E+00 -0.00000000000E+00 -0.23902275418E+03  0.23902275418E+03  0.00000000000E+00 0.  1.
          6    1    1    2  502    0 -0.27353721182E+02  0.27397801269E+02  0.24872806908E+03  0.30487459377E+03  0.17200000000E+03 0. -1.
         -6    1    1    2    0  501  0.27353721182E+02 -0.27397801269E+02 -0.17411263422E+03  0.24778634945E+03  0.17200000000E+03 0.  1.
</event>
<event>
 4    1  0.6352740E-002  0.3238935E+03  0.7818608E-02  0.1073871E+00
         -1   -1    0    0    0  501 -0.00000000000E+00  0.00000000000E+00  0.29488373845E+03  0.29488373845E+03  0.00000000000E+00 0.  1.
          1   -1    0    0  502    0  0.00000000000E+00 -0.00000000000E+00 -0.39056475874E+03  0.39056475874E+03  0.00000000000E+00 0. -1.
          6    1    1    2  502    0 -0.10652005709E+03 -0.25293571466E+03 -0.15015458971E+03  0.35700616119E+03  0.17200000000E+03 0.  1.
         -6    1    1    2    0  501  0.10652005709E+03  0.25293571466E+03  0.54473569424E+02  0.32844233601E+03  0.17200000000E+03 0.  1.
</event>
<event>
 4    1  0.6352740E-002  0.3878886E+03  0.7818608E-02  0.1048056E+00
         -2   -1    0    0    0  501 -0.00000000000E+00  0.00000000000E+00  0.14991341185E+04  0.14991341185E+04  0.00000000000E+00 0.  1.
          2   -1    0    0  502    0  0.00000000000E+00 -0.00000000000E+00 -0.11314885706E+03  0.11314885706E+03  0.00000000000E+00 0. -1.
          6    1    1    2  502    0  0.90931606816E+02  0.33556668983E+03  0.96398154781E+03  0.10390947911E+04  0.17200000000E+03 0. -1.
         -6    1    1    2    0  501 -0.90931606816E+02 -0.33556668983E+03  0.42200371360E+03  0.57318818440E+03  0.17200000000E+03 0.  1.
</event>
<event>
 4    1  0.6352740E-002  0.2285046E+03  0.7818608E-02  0.1127697E+00
         -2   -1    0    0    0  501 -0.00000000000E+00  0.00000000000E+00  0.54121347892E+02  0.54121347892E+02  0.00000000000E+00 0.  1.
          2   -1    0    0  502    0  0.00000000000E+00 -0.00000000000E+00 -0.97876667455E+03  0.97876667455E+03  0.00000000000E+00 0. -1.
          6    1    1    2  502    0 -0.14228408336E+03 -0.48842562339E+02 -0.40055216892E+03  0.46114682727E+03  0.17200000000E+03 0. -1.
         -6    1    1    2    0  501  0.14228408336E+03  0.48842562339E+02 -0.52409315774E+03  0.57174119518E+03  0.17200000000E+03 0. -1.
</event>
<event>
 4    1  0.6352740E-002  0.2418199E+03  0.7818608E-02  0.1118586E+00
          1   -1    0    0  502    0  0.00000000000E+00  0.00000000000E+00  0.46387612190E+02  0.46387612190E+02  0.00000000000E+00 0. -1.
         -1   -1    0    0    0  501 -0.00000000000E+00 -0.00000000000E+00 -0.13091705647E+04  0.13091705647E+04  0.00000000000E+00 0.  1.
          6    1    1    2  502    0 -0.26324752443E+02  0.16792819472E+03 -0.50086030466E+03  0.55618154946E+03  0.17200000000E+03 0. -1.
         -6    1    1    2    0  501  0.26324752443E+02 -0.16792819472E+03 -0.76192264784E+03  0.79937662742E+03  0.17200000000E+03 0. -1.
</event>
<event>
 4    1  0.6352740E-002  0.3783718E+03  0.7818608E-02  0.1051537E+00
         -2   -1    0    0    0  501 -0.00000000000E+00  0.00000000000E+00  0.62706940348E+02  0.62706940348E+02  0.00000000000E+00 0.  1.
          2   -1    0    0  502    0  0.00000000000E+00 -0.00000000000E+00 -0.24874353035E+04  0.24874353035E+04  0.00000000000E+00 0. -1.
          6    1    1    2  502    0 -0.82484141798E+02 -0.32676841806E+03 -0.15778300905E+04  0.16225637205E+04  0.17200000000E+03 0. -1.
         -6    1    1    2    0  501  0.82484141798E+02  0.32676841806E+03 -0.84689827259E+03  0.92757852326E+03  0.17200000000E+03 0.  1.
</event>
