<event>
 4    1  0.4495571E+000  0.3274585E+03  0.7546771E-02  0.1072267E+00
         21   -1    0    0  503  502  0.00000000000E+00  0.00000000000E+00  0.18042932800E+03  0.18042932800E+03  0.00000000000E+00 0.  1.
         21   -1    0    0  501  503 -0.00000000000E+00 -0.00000000000E+00 -0.97506904093E+03  0.97506904093E+03  0.00000000000E+00 0.  1.
          6    1    1    2  501    0 -0.26918440487E+03 -0.69568681309E+02 -0.36281949873E+02  0.32946232733E+03  0.17300000000E+03 0.  1.
         -6    1    1    2    0  502  0.26918440487E+03  0.69568681309E+02 -0.75835776305E+03  0.82603604160E+03  0.17300000000E+03 0.  1.
<mgrwt>
<rscale>  2 0.32745846E+03</rscale>
<asrwt>0</asrwt>
<pdfrwt beam="1">  1       21 0.27758358E-01 0.32745846E+03</pdfrwt>
<pdfrwt beam="2">  1       21 0.15001062E+00 0.32745846E+03</pdfrwt>
<totfact> 0.33761292E+03</totfact>
</mgrwt>
</event>
<event>
 4    1  0.4495571E+000  0.2252211E+03  0.7546771E-02  0.1130049E+00
         21   -1    0    0  501  502  0.00000000000E+00  0.00000000000E+00  0.10478362563E+04  0.10478362563E+04  0.00000000000E+00 0. -1.
         21   -1    0    0  502  503 -0.00000000000E+00 -0.00000000000E+00 -0.50707784593E+02  0.50707784593E+02  0.00000000000E+00 0.  1.
          6    1    1    2  501    0  0.44954479051E+02  0.13702060220E+03  0.61551774162E+03  0.65542859326E+03  0.17300000000E+03 0. -1.
         -6    1    1    2    0  503 -0.44954479051E+02 -0.13702060220E+03  0.38161073010E+03  0.44311544765E+03  0.17300000000E+03 0.  1.
<mgrwt>
<rscale>  2 0.22522111E+03</rscale>
<asrwt>0</asrwt>
<pdfrwt beam="1">  1       21 0.16120556E+00 0.22522111E+03</pdfrwt>
<pdfrwt beam="2">  1       21 0.78011984E-02 0.22522111E+03</pdfrwt>
<totfact> 0.30307290E+04</totfact>
</mgrwt>
</event>
<event>
 4    1  0.4495571E+000  0.2093019E+03  0.7546771E-02  0.1142120E+00
         21   -1    0    0  503  502  0.00000000000E+00  0.00000000000E+00  0.33238222656E+03  0.33238222656E+03  0.00000000000E+00 0.  1.
         21   -1    0    0  501  503 -0.00000000000E+00 -0.00000000000E+00 -0.13195350134E+03  0.13195350134E+03  0.00000000000E+00 0. -1.
          6    1    1    2  501    0  0.10519806716E+02  0.11733555584E+03  0.10818542590E+03  0.23560854266E+03  0.17300000000E+03 0.  1.
         -6    1    1    2    0  502 -0.10519806716E+02 -0.11733555584E+03  0.92243299329E+02  0.22872718524E+03  0.17300000000E+03 0. -1.
<mgrwt>
<rscale>  2 0.20930193E+03</rscale>
<asrwt>0</asrwt>
<pdfrwt beam="1">  1       21 0.51135727E-01 0.20930193E+03</pdfrwt>
<pdfrwt beam="2">  1       21 0.20300539E-01 0.20930193E+03</pdfrwt>
<totfact> 0.81039002E+04</totfact>
</mgrwt>
</event>
<event>
 4    1  0.4495571E+000  0.2636673E+03  0.7546771E-02  0.1104960E+00
         21   -1    0    0  503  502  0.00000000000E+00  0.00000000000E+00  0.73794535821E+02  0.73794535821E+02  0.00000000000E+00 0. -1.
         21   -1    0    0  501  503 -0.00000000000E+00 -0.00000000000E+00 -0.11920082226E+04  0.11920082226E+04  0.00000000000E+00 0.  1.
          6    1    1    2  501    0 -0.16068440478E+03 -0.11735409790E+03 -0.84890980510E+03  0.88891412376E+03  0.17300000000E+03 0.  1.
         -6    1    1    2    0  502  0.16068440478E+03  0.11735409790E+03 -0.26930388163E+03  0.37688863461E+03  0.17300000000E+03 0. -1.
<mgrwt>
<rscale>  2 0.26366733E+03</rscale>
<asrwt>0</asrwt>
<pdfrwt beam="1">  1       21 0.11353006E-01 0.26366733E+03</pdfrwt>
<pdfrwt beam="2">  1       21 0.18338588E+00 0.26366733E+03</pdfrwt>
<totfact> 0.10638655E+04</totfact>
</mgrwt>
</event>
<event>
 4    1  0.4495571E+000  0.2038943E+03  0.7546771E-02  0.1146494E+00
         21   -1    0    0  501  502  0.00000000000E+00  0.00000000000E+00  0.17329611527E+03  0.17329611527E+03  0.00000000000E+00 0. -1.
         21   -1    0    0  502  503 -0.00000000000E+00 -0.00000000000E+00 -0.78321121509E+03  0.78321121509E+03  0.00000000000E+00 0. -1.
          6    1    1    2  501    0 -0.70058088401E+02  0.82071715902E+02  0.93374380144E+02  0.22425805932E+03  0.17300000000E+03 0. -1.
         -6    1    1    2    0  503  0.70058088401E+02 -0.82071715902E+02 -0.70328947996E+03  0.73224927103E+03  0.17300000000E+03 0. -1.
<mgrwt>
<rscale>  2 0.20389434E+03</rscale>
<asrwt>0</asrwt>
<pdfrwt beam="1">  1       21 0.26660941E-01 0.20389434E+03</pdfrwt>
<pdfrwt beam="2">  1       21 0.12049403E+00 0.20389434E+03</pdfrwt>
<totfact> 0.69400681E+03</totfact>
</mgrwt>
</event>
<event>
 4    1  0.4495571E+000  0.2109250E+03  0.7546771E-02  0.1140836E+00
         21   -1    0    0  503  502  0.00000000000E+00  0.00000000000E+00  0.22131690591E+03  0.22131690591E+03  0.00000000000E+00 0.  1.
         21   -1    0    0  501  503 -0.00000000000E+00 -0.00000000000E+00 -0.25123294227E+03  0.25123294227E+03  0.00000000000E+00 0.  1.
          6    1    1    2  501    0  0.51897775379E+02 -0.10893559441E+03 -0.12058695476E+03  0.24296204740E+03  0.17300000000E+03 0.  1.
         -6    1    1    2    0  502 -0.51897775379E+02  0.10893559441E+03  0.90670918402E+02  0.22958780077E+03  0.17300000000E+03 0.  1.
<mgrwt>
<rscale>  2 0.21092497E+03</rscale>
<asrwt>0</asrwt>
<pdfrwt beam="1">  1       21 0.34048755E-01 0.21092497E+03</pdfrwt>
<pdfrwt beam="2">  1       21 0.38651222E-01 0.21092497E+03</pdfrwt>
<totfact> 0.53181378E+04</totfact>
</mgrwt>
</event>
<event>
 4    1  0.4495571E+000  0.2511765E+03  0.7546771E-02  0.1112564E+00
         21   -1    0    0  503  502  0.00000000000E+00  0.00000000000E+00  0.49056660848E+03  0.49056660848E+03  0.00000000000E+00 0.  1.
         21   -1    0    0  501  503 -0.00000000000E+00 -0.00000000000E+00 -0.12995904353E+03  0.12995904353E+03  0.00000000000E+00 0.  1.
          6    1    1    2  501    0  0.17605873452E+03 -0.46518487510E+02  0.14864200984E+03  0.29186314391E+03  0.17300000000E+03 0.  1.
         -6    1    1    2    0  502 -0.17605873452E+03  0.46518487510E+02  0.21196555512E+03  0.32866250811E+03  0.17300000000E+03 0.  1.
<mgrwt>
<rscale>  2 0.25117653E+03</rscale>
<asrwt>0</asrwt>
<pdfrwt beam="1">  1       21 0.75471785E-01 0.25117653E+03</pdfrwt>
<pdfrwt beam="2">  1       21 0.19993699E-01 0.25117653E+03</pdfrwt>
<totfact> 0.35189320E+04</totfact>
</mgrwt>
</event>
<event>
 4    1  0.4495571E+000  0.2517421E+03  0.7546771E-02  0.1112209E+00
         21   -1    0    0  503  502  0.00000000000E+00  0.00000000000E+00  0.24383292421E+03  0.24383292421E+03  0.00000000000E+00 0. -1.
         21   -1    0    0  501  503 -0.00000000000E+00 -0.00000000000E+00 -0.46049408084E+03  0.46049408084E+03  0.00000000000E+00 0.  1.
          6    1    1    2  501    0  0.91568704636E+02 -0.15830438128E+03 -0.34075556595E+03  0.42366078474E+03  0.17300000000E+03 0.  1.
         -6    1    1    2    0  502 -0.91568704636E+02  0.15830438128E+03  0.12409440932E+03  0.28066622031E+03  0.17300000000E+03 0. -1.
<mgrwt>
<rscale>  2 0.25174214E+03</rscale>
<asrwt>0</asrwt>
<pdfrwt beam="1">  1       21 0.37512758E-01 0.25174214E+03</pdfrwt>
<pdfrwt beam="2">  1       21 0.70845242E-01 0.25174214E+03</pdfrwt>
<totfact> 0.11934126E+04</totfact>
</mgrwt>
</event>
<event>
 4    1  0.4495571E+000  0.1936636E+03  0.7546771E-02  0.1155198E+00
         21   -1    0    0  503  502  0.00000000000E+00  0.00000000000E+00  0.12204318635E+03  0.12204318635E+03  0.00000000000E+00 0. -1.
         21   -1    0    0  501  503 -0.00000000000E+00 -0.00000000000E+00 -0.46074553007E+03  0.46074553007E+03  0.00000000000E+00 0. -1.
          6    1    1    2  501    0  0.67882749525E+02 -0.54484310677E+02 -0.33750530895E+03  0.38912137099E+03  0.17300000000E+03 0. -1.
         -6    1    1    2    0  502 -0.67882749525E+02  0.54484310677E+02 -0.11970347645E+01  0.19366734543E+03  0.17300000000E+03 0. -1.
<mgrwt>
<rscale>  2 0.19366365E+03</rscale>
<asrwt>0</asrwt>
<pdfrwt beam="1">  1       21 0.18775875E-01 0.19366365E+03</pdfrwt>
<pdfrwt beam="2">  1       21 0.70883926E-01 0.19366365E+03</pdfrwt>
<totfact> 0.46774921E+04</totfact>
</mgrwt>
</event>
<event>
 4    1  0.4495571E+000  0.3258030E+03  0.7546771E-02  0.1073009E+00
         21   -1    0    0  501  502  0.00000000000E+00  0.00000000000E+00  0.17629704795E+03  0.17629704795E+03  0.00000000000E+00 0. -1.
         21   -1    0    0  502  503 -0.00000000000E+00 -0.00000000000E+00 -0.85017585478E+03  0.85017585478E+03  0.00000000000E+00 0.  1.
          6    1    1    2  501    0 -0.22522203213E+03  0.15966716586E+03 -0.59696938011E+02  0.33122694942E+03  0.17300000000E+03 0. -1.
         -6    1    1    2    0  503  0.22522203213E+03 -0.15966716586E+03 -0.61418186882E+03  0.69524595332E+03  0.17300000000E+03 0.  1.
<mgrwt>
<rscale>  2 0.32580296E+03</rscale>
<asrwt>0</asrwt>
<pdfrwt beam="1">  1       21 0.27122623E-01 0.32580296E+03</pdfrwt>
<pdfrwt beam="2">  1       21 0.13079628E+00 0.32580296E+03</pdfrwt>
<totfact> 0.50694274E+03</totfact>
</mgrwt>
</event>
<event>
 4    1  0.4495571E+000  0.2125105E+03  0.7546771E-02  0.1139593E+00
         21   -1    0    0  503  502  0.00000000000E+00  0.00000000000E+00  0.78939578932E+03  0.78939578932E+03  0.00000000000E+00 0. -1.
         21   -1    0    0  501  503 -0.00000000000E+00 -0.00000000000E+00 -0.86867543421E+02  0.86867543421E+02  0.00000000000E+00 0.  1.
          6    1    1    2  501    0 -0.75567640198E+02 -0.97576934289E+02  0.95258745105E+02  0.23288399445E+03  0.17300000000E+03 0.  1.
         -6    1    1    2    0  502  0.75567640198E+02  0.97576934289E+02  0.60726950080E+03  0.64337933830E+03  0.17300000000E+03 0. -1.
<mgrwt>
<rscale>  2 0.21251053E+03</rscale>
<asrwt>0</asrwt>
<pdfrwt beam="1">  1       21 0.12144550E+00 0.21251053E+03</pdfrwt>
<pdfrwt beam="2">  1       21 0.13364238E-01 0.21251053E+03</pdfrwt>
<totfact> 0.24494526E+04</totfact>
</mgrwt>
</event>
<event>
 4    1  0.4495571E+000  0.2126283E+03  0.7546771E-02  0.1139501E+00
         21   -1    0    0  501  502  0.00000000000E+00  0.00000000000E+00  0.58026763666E+02  0.58026763666E+02  0.00000000000E+00 0. -1.
         21   -1    0    0  502  503 -0.00000000000E+00 -0.00000000000E+00 -0.17521144270E+04  0.17521144270E+04  0.00000000000E+00 0. -1.
          6    1    1    2  501    0 -0.55162167617E+02  0.11062967008E+03 -0.17258935263E+03  0.27385739588E+03  0.17300000000E+03 0. -1.
         -6    1    1    2    0  503  0.55162167617E+02 -0.11062967008E+03 -0.15214983107E+04  0.15362837948E+04  0.17300000000E+03 0. -1.
<mgrwt>
<rscale>  2 0.21262829E+03</rscale>
<asrwt>0</asrwt>
<pdfrwt beam="1">  1       21 0.89271937E-02 0.21262829E+03</pdfrwt>
<pdfrwt beam="2">  1       21 0.26955609E+00 0.21262829E+03</pdfrwt>
<totfact> 0.49621072E+03</totfact>
</mgrwt>
</event>
<event>
 4    1  0.4495571E+000  0.2603256E+03  0.7546771E-02  0.1106948E+00
         21   -1    0    0  501  502  0.00000000000E+00  0.00000000000E+00  0.25715247902E+03  0.25715247902E+03  0.00000000000E+00 0.  1.
         21   -1    0    0  502  503 -0.00000000000E+00 -0.00000000000E+00 -0.28119275776E+03  0.28119275776E+03  0.00000000000E+00 0.  1.
          6    1    1    2  501    0 -0.18068340026E+03  0.72068906472E+02  0.55426638486E+02  0.26616072337E+03  0.17300000000E+03 0.  1.
         -6    1    1    2    0  503  0.18068340026E+03 -0.72068906472E+02 -0.79466917221E+02  0.27218451341E+03  0.17300000000E+03 0.  1.
<mgrwt>
<rscale>  2 0.26032560E+03</rscale>
<asrwt>0</asrwt>
<pdfrwt beam="1">  1       21 0.39561920E-01 0.26032560E+03</pdfrwt>
<pdfrwt beam="2">  1       21 0.43260424E-01 0.26032560E+03</pdfrwt>
<totfact> 0.30614076E+04</totfact>
</mgrwt>
</event>
<event>
 4    1  0.4495571E+000  0.2154901E+03  0.7546771E-02  0.1137291E+00
         21   -1    0    0  501  502  0.00000000000E+00  0.00000000000E+00  0.63645504669E+03  0.63645504669E+03  0.00000000000E+00 0.  1.
         21   -1    0    0  502  503 -0.00000000000E+00 -0.00000000000E+00 -0.11444984392E+03  0.11444984392E+03  0.00000000000E+00 0. -1.
          6    1    1    2  501    0 -0.10000163939E+03 -0.80663740718E+02  0.48705885990E+03  0.53259956812E+03  0.17300000000E+03 0.  1.
         -6    1    1    2    0  503  0.10000163939E+03  0.80663740718E+02  0.34946342869E+02  0.21830532249E+03  0.17300000000E+03 0. -1.
<mgrwt>
<rscale>  2 0.21549006E+03</rscale>
<asrwt>0</asrwt>
<pdfrwt beam="1">  1       21 0.97916159E-01 0.21549006E+03</pdfrwt>
<pdfrwt beam="2">  1       21 0.17607669E-01 0.21549006E+03</pdfrwt>
<totfact> 0.24898727E+04</totfact>
</mgrwt>
</event>
<event>
 4    1  0.4495571E+000  0.1838853E+03  0.7546771E-02  0.1164095E+00
         21   -1    0    0  501  502  0.00000000000E+00  0.00000000000E+00  0.12537222106E+03  0.12537222106E+03  0.00000000000E+00 0. -1.
         21   -1    0    0  502  503 -0.00000000000E+00 -0.00000000000E+00 -0.38344584154E+03  0.38344584154E+03  0.00000000000E+00 0. -1.
          6    1    1    2  501    0 -0.31406217453E+02  0.53837165546E+02  0.95221206715E+01  0.18413164223E+03  0.17300000000E+03 0. -1.
         -6    1    1    2    0  503  0.31406217453E+02 -0.53837165546E+02 -0.26759574115E+03  0.32468642037E+03  0.17300000000E+03 0. -1.
<mgrwt>
<rscale>  2 0.18388527E+03</rscale>
<asrwt>0</asrwt>
<pdfrwt beam="1">  1       21 0.19288034E-01 0.18388527E+03</pdfrwt>
<pdfrwt beam="2">  1       21 0.58991668E-01 0.18388527E+03</pdfrwt>
<totfact> 0.66616730E+04</totfact>
</mgrwt>
</event>
<event>
 4    1  0.4495571E+000  0.2929590E+03  0.7546771E-02  0.1088814E+00
         21   -1    0    0  501  502  0.00000000000E+00  0.00000000000E+00  0.25881576289E+04  0.25881576289E+04  0.00000000000E+00 0.  1.
         21   -1    0    0  502  503 -0.00000000000E+00 -0.00000000000E+00 -0.33787196494E+03  0.33787196494E+03  0.00000000000E+00 0.  1.
          6    1    1    2  501    0  0.88189346704E+02  0.21935959440E+03  0.25145096728E+04  0.25315180993E+04  0.17300000000E+03 0.  1.
         -6    1    1    2    0  503 -0.88189346704E+02 -0.21935959440E+03 -0.26422400880E+03  0.39451149458E+03  0.17300000000E+03 0.  1.
<mgrwt>
<rscale>  2 0.29295903E+03</rscale>
<asrwt>0</asrwt>
<pdfrwt beam="1">  1       21 0.39817808E+00 0.29295903E+03</pdfrwt>
<pdfrwt beam="2">  1       21 0.51980304E-01 0.29295903E+03</pdfrwt>
<totfact> 0.26819608E+01</totfact>
</mgrwt>
</event>
<event>
 4    1  0.4495571E+000  0.1828022E+03  0.7546771E-02  0.1165118E+00
         21   -1    0    0  501  502  0.00000000000E+00  0.00000000000E+00  0.27131820856E+03  0.27131820856E+03  0.00000000000E+00 0. -1.
         21   -1    0    0  502  503 -0.00000000000E+00 -0.00000000000E+00 -0.13462866377E+03  0.13462866377E+03  0.00000000000E+00 0. -1.
          6    1    1    2  501    0  0.55060797463E+01 -0.58798935211E+02  0.12757608906E+03  0.22291767582E+03  0.17300000000E+03 0. -1.
         -6    1    1    2    0  503 -0.55060797463E+01  0.58798935211E+02  0.91134557339E+01  0.18302919650E+03  0.17300000000E+03 0. -1.
<mgrwt>
<rscale>  2 0.18280217E+03</rscale>
<asrwt>0</asrwt>
<pdfrwt beam="1">  1       21 0.41741263E-01 0.18280217E+03</pdfrwt>
<pdfrwt beam="2">  1       21 0.20712102E-01 0.18280217E+03</pdfrwt>
<totfact> 0.11987197E+05</totfact>
</mgrwt>
</event>
<event>
 4    1  0.4495571E+000  0.2047531E+03  0.7546771E-02  0.1145790E+00
         21   -1    0    0  501  502  0.00000000000E+00  0.00000000000E+00  0.11259081610E+03  0.11259081610E+03  0.00000000000E+00 0.  1.
         21   -1    0    0  502  503 -0.00000000000E+00 -0.00000000000E+00 -0.37239896594E+03  0.37239896594E+03  0.00000000000E+00 0.  1.
          6    1    1    2  501    0 -0.71143128630E+02 -0.83267647703E+02 -0.13251417454E+03  0.24389311667E+03  0.17300000000E+03 0.  1.
         -6    1    1    2    0  503  0.71143128630E+02  0.83267647703E+02 -0.12729397531E+03  0.24109666537E+03  0.17300000000E+03 0.  1.
<mgrwt>
<rscale>  2 0.20475313E+03</rscale>
<asrwt>0</asrwt>
<pdfrwt beam="1">  1       21 0.17321664E-01 0.20475313E+03</pdfrwt>
<pdfrwt beam="2">  1       21 0.57292150E-01 0.20475313E+03</pdfrwt>
<totfact> 0.85761398E+04</totfact>
</mgrwt>
</event>
<event>
 4    1  0.4495571E+000  0.1868734E+03  0.7546771E-02  0.1161312E+00
         21   -1    0    0  503  502  0.00000000000E+00  0.00000000000E+00  0.39742749937E+03  0.39742749937E+03  0.00000000000E+00 0.  1.
         21   -1    0    0  501  503 -0.00000000000E+00 -0.00000000000E+00 -0.13876836117E+03  0.13876836117E+03  0.00000000000E+00 0.  1.
          6    1    1    2  501    0 -0.67682279053E+02 -0.20292709462E+02 -0.33039396214E+02  0.18977166980E+03  0.17300000000E+03 0. -1.
         -6    1    1    2    0  502  0.67682279053E+02  0.20292709462E+02  0.29169853441E+03  0.34642419075E+03  0.17300000000E+03 0. -1.
<mgrwt>
<rscale>  2 0.18687345E+03</rscale>
<asrwt>0</asrwt>
<pdfrwt beam="1">  1       21 0.61142692E-01 0.18687345E+03</pdfrwt>
<pdfrwt beam="2">  1       21 0.21348979E-01 0.18687345E+03</pdfrwt>
<totfact> 0.50961332E+04</totfact>
</mgrwt>
</event>
<event>
 4    1  0.4495571E+000  0.1900246E+03  0.7546771E-02  0.1158439E+00
         21   -1    0    0  501  502  0.00000000000E+00  0.00000000000E+00  0.49686333043E+03  0.49686333043E+03  0.00000000000E+00 0. -1.
         21   -1    0    0  502  503 -0.00000000000E+00 -0.00000000000E+00 -0.78323843154E+02  0.78323843154E+02  0.00000000000E+00 0.  1.
          6    1    1    2  501    0  0.17314860607E+02 -0.76684675150E+02  0.28650708854E+03  0.34379595050E+03  0.17300000000E+03 0. -1.
         -6    1    1    2    0  503 -0.17314860607E+02  0.76684675150E+02  0.13203239874E+03  0.23139122308E+03  0.17300000000E+03 0. -1.
<mgrwt>
<rscale>  2 0.19002459E+03</rscale>
<asrwt>0</asrwt>
<pdfrwt beam="1">  1       21 0.76440510E-01 0.19002459E+03</pdfrwt>
<pdfrwt beam="2">  1       21 0.12049822E-01 0.19002459E+03</pdfrwt>
<totfact> 0.88849388E+04</totfact>
</mgrwt>
</event>
<event>
 4    1  0.4495571E+000  0.1884309E+03  0.7546771E-02  0.1159884E+00
         21   -1    0    0  501  502  0.00000000000E+00  0.00000000000E+00  0.11090388995E+03  0.11090388995E+03  0.00000000000E+00 0.  1.
         21   -1    0    0  502  503 -0.00000000000E+00 -0.00000000000E+00 -0.37430408569E+03  0.37430408569E+03  0.00000000000E+00 0.  1.
          6    1    1    2  501    0 -0.72926001073E+02 -0.16092995148E+02 -0.22397640593E+03  0.29269714132E+03  0.17300000000E+03 0.  1.
         -6    1    1    2    0  503  0.72926001073E+02  0.16092995148E+02 -0.39423789810E+02  0.19251083431E+03  0.17300000000E+03 0.  1.
<mgrwt>
<rscale>  2 0.18843085E+03</rscale>
<asrwt>0</asrwt>
<pdfrwt beam="1">  1       21 0.17062137E-01 0.18843085E+03</pdfrwt>
<pdfrwt beam="2">  1       21 0.57585244E-01 0.18843085E+03</pdfrwt>
<totfact> 0.87823244E+04</totfact>
</mgrwt>
</event>
<event>
 4    1  0.4495571E+000  0.2431217E+03  0.7546771E-02  0.1117731E+00
         21   -1    0    0  503  502  0.00000000000E+00  0.00000000000E+00  0.90482554741E+03  0.90482554741E+03  0.00000000000E+00 0.  1.
         21   -1    0    0  501  503 -0.00000000000E+00 -0.00000000000E+00 -0.10134067605E+03  0.10134067605E+03  0.00000000000E+00 0. -1.
          6    1    1    2  501    0 -0.12573719872E+03  0.11562579757E+03  0.10183260738E+03  0.26358688915E+03  0.17300000000E+03 0. -1.
         -6    1    1    2    0  502  0.12573719872E+03 -0.11562579757E+03  0.70165226397E+03  0.74257933431E+03  0.17300000000E+03 0.  1.
<mgrwt>
<rscale>  2 0.24312171E+03</rscale>
<asrwt>0</asrwt>
<pdfrwt beam="1">  1       21 0.13920393E+00 0.24312171E+03</pdfrwt>
<pdfrwt beam="2">  1       21 0.15590874E-01 0.24312171E+03</pdfrwt>
<totfact> 0.12844572E+04</totfact>
</mgrwt>
</event>
<event>
 4    1  0.4495571E+000  0.1847177E+03  0.7546771E-02  0.1163314E+00
         21   -1    0    0  503  502  0.00000000000E+00  0.00000000000E+00  0.33303433294E+03  0.33303433294E+03  0.00000000000E+00 0.  1.
         21   -1    0    0  501  503 -0.00000000000E+00 -0.00000000000E+00 -0.18323812771E+03  0.18323812771E+03  0.00000000000E+00 0.  1.
          6    1    1    2  501    0 -0.63225346653E+02 -0.13934731849E+02 -0.96499480255E+02  0.20840530440E+03  0.17300000000E+03 0. -1.
         -6    1    1    2    0  502  0.63225346653E+02  0.13934731849E+02  0.24629568549E+03  0.30786715626E+03  0.17300000000E+03 0. -1.
<mgrwt>
<rscale>  2 0.18471768E+03</rscale>
<asrwt>0</asrwt>
<pdfrwt beam="1">  1       21 0.51236051E-01 0.18471768E+03</pdfrwt>
<pdfrwt beam="2">  1       21 0.28190481E-01 0.18471768E+03</pdfrwt>
<totfact> 0.43709110E+04</totfact>
</mgrwt>
</event>
<event>
 4    1  0.4495571E+000  0.2006610E+03  0.7546771E-02  0.1149182E+00
         21   -1    0    0  501  502  0.00000000000E+00  0.00000000000E+00  0.93025938692E+03  0.93025938692E+03  0.00000000000E+00 0. -1.
         21   -1    0    0  502  503 -0.00000000000E+00 -0.00000000000E+00 -0.43352433445E+02  0.43352433445E+02  0.00000000000E+00 0. -1.
          6    1    1    2  501    0  0.10164973937E+03  0.17846281370E+01  0.46286940177E+03  0.50449275268E+03  0.17300000000E+03 0.  1.
         -6    1    1    2    0  503 -0.10164973937E+03 -0.17846281370E+01  0.42403755171E+03  0.46911906769E+03  0.17300000000E+03 0.  1.
<mgrwt>
<rscale>  2 0.20066104E+03</rscale>
<asrwt>0</asrwt>
<pdfrwt beam="1">  1       21 0.14311681E+00 0.20066104E+03</pdfrwt>
<pdfrwt beam="2">  1       21 0.66696059E-02 0.20066104E+03</pdfrwt>
<totfact> 0.55327371E+04</totfact>
</mgrwt>
</event>
<event>
 4    1  0.4495571E+000  0.2136658E+03  0.7546771E-02  0.1138696E+00
         21   -1    0    0  503  502  0.00000000000E+00  0.00000000000E+00  0.13677815707E+03  0.13677815707E+03  0.00000000000E+00 0. -1.
         21   -1    0    0  501  503 -0.00000000000E+00 -0.00000000000E+00 -0.33432399780E+03  0.33432399780E+03  0.00000000000E+00 0.  1.
          6    1    1    2  501    0  0.73424944431E+02  0.10165064082E+03 -0.89224245591E+02  0.23154706054E+03  0.17300000000E+03 0. -1.
         -6    1    1    2    0  502 -0.73424944431E+02 -0.10165064082E+03 -0.10832159515E+03  0.23955509433E+03  0.17300000000E+03 0.  1.
<mgrwt>
<rscale>  2 0.21366580E+03</rscale>
<asrwt>0</asrwt>
<pdfrwt beam="1">  1       21 0.21042793E-01 0.21366580E+03</pdfrwt>
<pdfrwt beam="2">  1       21 0.51434461E-01 0.21366580E+03</pdfrwt>
<totfact> 0.74698260E+04</totfact>
</mgrwt>
</event>
<event>
 4    1  0.4495571E+000  0.1879088E+03  0.7546771E-02  0.1160361E+00
         21   -1    0    0  503  502  0.00000000000E+00  0.00000000000E+00  0.69423513934E+03  0.69423513934E+03  0.00000000000E+00 0. -1.
         21   -1    0    0  501  503 -0.00000000000E+00 -0.00000000000E+00 -0.11162665213E+03  0.11162665213E+03  0.00000000000E+00 0.  1.
          6    1    1    2  501    0  0.53551332440E+02  0.50129398513E+02 -0.59818732807E+01  0.18800394839E+03  0.17300000000E+03 0.  1.
         -6    1    1    2    0  502 -0.53551332440E+02 -0.50129398513E+02  0.58859036049E+03  0.61785784309E+03  0.17300000000E+03 0. -1.
<mgrwt>
<rscale>  2 0.18790876E+03</rscale>
<asrwt>0</asrwt>
<pdfrwt beam="1">  1       21 0.10680540E+00 0.18790876E+03</pdfrwt>
<pdfrwt beam="2">  1       21 0.17173332E-01 0.18790876E+03</pdfrwt>
<totfact> 0.21535049E+04</totfact>
</mgrwt>
</event>
<event>
 4    1  0.4495571E+000  0.2253641E+03  0.7546771E-02  0.1129946E+00
         21   -1    0    0  501  502  0.00000000000E+00  0.00000000000E+00  0.53226624693E+03  0.53226624693E+03  0.00000000000E+00 0. -1.
         21   -1    0    0  502  503 -0.00000000000E+00 -0.00000000000E+00 -0.19381066512E+03  0.19381066512E+03  0.00000000000E+00 0. -1.
          6    1    1    2  501    0  0.23465677764E+01  0.14441070488E+03  0.42789434415E+03  0.48361402773E+03  0.17300000000E+03 0. -1.
         -6    1    1    2    0  503 -0.23465677764E+01 -0.14441070488E+03 -0.89438762345E+02  0.24246288432E+03  0.17300000000E+03 0. -1.
<mgrwt>
<rscale>  2 0.22536406E+03</rscale>
<asrwt>0</asrwt>
<pdfrwt beam="1">  1       21 0.81887114E-01 0.22536406E+03</pdfrwt>
<pdfrwt beam="2">  1       21 0.29817026E-01 0.22536406E+03</pdfrwt>
<totfact> 0.13782927E+04</totfact>
</mgrwt>
</event>
<event>
 4    1  0.4495571E+000  0.2941649E+03  0.7546771E-02  0.1088194E+00
         21   -1    0    0  501  502  0.00000000000E+00  0.00000000000E+00  0.69092940288E+02  0.69092940288E+02  0.00000000000E+00 0.  1.
         21   -1    0    0  502  503 -0.00000000000E+00 -0.00000000000E+00 -0.12570469509E+04  0.12570469509E+04  0.00000000000E+00 0.  1.
          6    1    1    2  501    0 -0.21126674031E+03  0.10940906305E+03 -0.55372350266E+03  0.62701092179E+03  0.17300000000E+03 0.  1.
         -6    1    1    2    0  503  0.21126674031E+03 -0.10940906305E+03 -0.63423050792E+03  0.69912896937E+03  0.17300000000E+03 0.  1.
<mgrwt>
<rscale>  2 0.29416488E+03</rscale>
<asrwt>0</asrwt>
<pdfrwt beam="1">  1       21 0.10629685E-01 0.29416488E+03</pdfrwt>
<pdfrwt beam="2">  1       21 0.19339180E+00 0.29416488E+03</pdfrwt>
<totfact> 0.10071936E+04</totfact>
</mgrwt>
</event>
<event>
 4    1  0.4495571E+000  0.2442629E+03  0.7546771E-02  0.1116985E+00
         21   -1    0    0  503  502  0.00000000000E+00  0.00000000000E+00  0.11011708904E+04  0.11011708904E+04  0.00000000000E+00 0. -1.
         21   -1    0    0  501  503 -0.00000000000E+00 -0.00000000000E+00 -0.71306847493E+02  0.71306847493E+02  0.00000000000E+00 0. -1.
          6    1    1    2  501    0  0.71608385721E+02 -0.15686813459E+03  0.22764637655E+03  0.33389705795E+03  0.17300000000E+03 0. -1.
         -6    1    1    2    0  502 -0.71608385721E+02  0.15686813459E+03  0.80221766637E+03  0.83858067996E+03  0.17300000000E+03 0. -1.
<mgrwt>
<rscale>  2 0.24426292E+03</rscale>
<asrwt>0</asrwt>
<pdfrwt beam="1">  1       21 0.16941089E+00 0.24426292E+03</pdfrwt>
<pdfrwt beam="2">  1       21 0.10970285E-01 0.24426292E+03</pdfrwt>
<totfact> 0.14323043E+04</totfact>
</mgrwt>
</event>
<event>
 4    1  0.4495571E+000  0.1969941E+03  0.7546771E-02  0.1152300E+00
         21   -1    0    0  503  502  0.00000000000E+00  0.00000000000E+00  0.18702926576E+02  0.18702926576E+02  0.00000000000E+00 0.  1.
         21   -1    0    0  501  503 -0.00000000000E+00 -0.00000000000E+00 -0.20776518381E+04  0.20776518381E+04  0.00000000000E+00 0. -1.
          6    1    1    2  501    0 -0.84269725285E+02 -0.42145907075E+02 -0.10676355872E+04  0.10856575939E+04  0.17300000000E+03 0.  1.
         -6    1    1    2    0  502  0.84269725285E+02  0.42145907075E+02 -0.99131332433E+03  0.10106971708E+04  0.17300000000E+03 0. -1.
<mgrwt>
<rscale>  2 0.19699407E+03</rscale>
<asrwt>0</asrwt>
<pdfrwt beam="1">  1       21 0.28773754E-02 0.19699407E+03</pdfrwt>
<pdfrwt beam="2">  1       21 0.31963851E+00 0.19699407E+03</pdfrwt>
<totfact> 0.17748183E+04</totfact>
</mgrwt>
</event>
<event>
 4    1  0.4495571E+000  0.2938495E+03  0.7546771E-02  0.1088356E+00
         21   -1    0    0  501  502  0.00000000000E+00  0.00000000000E+00  0.22377407695E+03  0.22377407695E+03  0.00000000000E+00 0. -1.
         21   -1    0    0  502  503 -0.00000000000E+00 -0.00000000000E+00 -0.77898631497E+03  0.77898631497E+03  0.00000000000E+00 0.  1.
          6    1    1    2  501    0 -0.85687203949E+02 -0.22153161071E+03  0.78568665289E+02  0.30417196884E+03  0.17300000000E+03 0. -1.
         -6    1    1    2    0  503  0.85687203949E+02  0.22153161071E+03 -0.63378090331E+03  0.69858842308E+03  0.17300000000E+03 0.  1.
<mgrwt>
<rscale>  2 0.29384954E+03</rscale>
<asrwt>0</asrwt>
<pdfrwt beam="1">  1       21 0.34426780E-01 0.29384954E+03</pdfrwt>
<pdfrwt beam="2">  1       21 0.11984405E+00 0.29384954E+03</pdfrwt>
<totfact> 0.40194775E+03</totfact>
</mgrwt>
</event>
<event>
 4    1  0.4495571E+000  0.2962747E+03  0.7546771E-02  0.1087118E+00
         21   -1    0    0  503  502  0.00000000000E+00  0.00000000000E+00  0.22012537946E+03  0.22012537946E+03  0.00000000000E+00 0.  1.
         21   -1    0    0  501  503 -0.00000000000E+00 -0.00000000000E+00 -0.40183545984E+03  0.40183545984E+03  0.00000000000E+00 0.  1.
          6    1    1    2  501    0 -0.92612604378E+02 -0.22197429477E+03 -0.11803112386E+03  0.31892009693E+03  0.17300000000E+03 0. -1.
         -6    1    1    2    0  502  0.92612604378E+02  0.22197429477E+03 -0.63678956519E+02  0.30304074236E+03  0.17300000000E+03 0. -1.
<mgrwt>
<rscale>  2 0.29627467E+03</rscale>
<asrwt>0</asrwt>
<pdfrwt beam="1">  1       21 0.33865443E-01 0.29627467E+03</pdfrwt>
<pdfrwt beam="2">  1       21 0.61820840E-01 0.29627467E+03</pdfrwt>
<totfact> 0.19377638E+04</totfact>
</mgrwt>
</event>
<event>
 4    1  0.4495571E+000  0.2201076E+03  0.7546771E-02  0.1133803E+00
         21   -1    0    0  501  502  0.00000000000E+00  0.00000000000E+00  0.15520897642E+04  0.15520897642E+04  0.00000000000E+00 0.  1.
         21   -1    0    0  502  503 -0.00000000000E+00 -0.00000000000E+00 -0.40588290982E+02  0.40588290982E+02  0.00000000000E+00 0.  1.
          6    1    1    2  501    0 -0.10973401463E+03  0.80478551171E+02  0.11384525726E+04  0.11595350841E+04  0.17300000000E+03 0.  1.
         -6    1    1    2    0  503  0.10973401463E+03 -0.80478551171E+02  0.37304890067E+03  0.43314297115E+03  0.17300000000E+03 0.  1.
<mgrwt>
<rscale>  2 0.22010759E+03</rscale>
<asrwt>0</asrwt>
<pdfrwt beam="1">  1       21 0.23878300E+00 0.22010759E+03</pdfrwt>
<pdfrwt beam="2">  1       21 0.62443536E-02 0.22010759E+03</pdfrwt>
<totfact> 0.13935880E+04</totfact>
</mgrwt>
</event>
<event>
 4    1  0.4495571E+000  0.1989365E+03  0.7546771E-02  0.1150639E+00
         21   -1    0    0  501  502  0.00000000000E+00  0.00000000000E+00  0.33630550423E+03  0.33630550423E+03  0.00000000000E+00 0. -1.
         21   -1    0    0  502  503 -0.00000000000E+00 -0.00000000000E+00 -0.21000009630E+03  0.21000009630E+03  0.00000000000E+00 0.  1.
          6    1    1    2  501    0  0.30400939442E+02 -0.93394437991E+02  0.24426539576E+03  0.31502590644E+03  0.17300000000E+03 0. -1.
         -6    1    1    2    0  503 -0.30400939442E+02  0.93394437991E+02 -0.11795998783E+03  0.23127969408E+03  0.17300000000E+03 0.  1.
<mgrwt>
<rscale>  2 0.19893652E+03</rscale>
<asrwt>0</asrwt>
<pdfrwt beam="1">  1       21 0.51739308E-01 0.19893652E+03</pdfrwt>
<pdfrwt beam="2">  1       21 0.32307707E-01 0.19893652E+03</pdfrwt>
<totfact> 0.32587927E+04</totfact>
</mgrwt>
</event>
<event>
 4    1  0.4495571E+000  0.1811699E+03  0.7546771E-02  0.1166676E+00
         21   -1    0    0  501  502  0.00000000000E+00  0.00000000000E+00  0.19710813932E+03  0.19710813932E+03  0.00000000000E+00 0. -1.
         21   -1    0    0  502  503 -0.00000000000E+00 -0.00000000000E+00 -0.45262560998E+03  0.45262560998E+03  0.00000000000E+00 0. -1.
          6    1    1    2  501    0  0.25477132960E+01  0.53731182204E+02  0.13052599661E+03  0.22329255826E+03  0.17300000000E+03 0. -1.
         -6    1    1    2    0  503 -0.25477132960E+01 -0.53731182204E+02 -0.38604346728E+03  0.42644119104E+03  0.17300000000E+03 0. -1.
<mgrwt>
<rscale>  2 0.18116989E+03</rscale>
<asrwt>0</asrwt>
<pdfrwt beam="1">  1       21 0.30324329E-01 0.18116989E+03</pdfrwt>
<pdfrwt beam="2">  1       21 0.69634709E-01 0.18116989E+03</pdfrwt>
<totfact> 0.19695067E+04</totfact>
</mgrwt>
</event>
<event>
 4    1  0.4495571E+000  0.3401594E+03  0.7546771E-02  0.1066728E+00
         21   -1    0    0  501  502  0.00000000000E+00  0.00000000000E+00  0.54474946841E+03  0.54474946841E+03  0.00000000000E+00 0.  1.
         21   -1    0    0  502  503 -0.00000000000E+00 -0.00000000000E+00 -0.48119822169E+03  0.48119822169E+03  0.00000000000E+00 0. -1.
          6    1    1    2  501    0 -0.19044637264E+01 -0.29287504594E+03  0.41516583817E+03  0.53672254722E+03  0.17300000000E+03 0.  1.
         -6    1    1    2    0  503  0.19044637264E+01  0.29287504594E+03 -0.35161459144E+03  0.48922514289E+03  0.17300000000E+03 0. -1.
<mgrwt>
<rscale>  2 0.34015940E+03</rscale>
<asrwt>0</asrwt>
<pdfrwt beam="1">  1       21 0.83807610E-01 0.34015940E+03</pdfrwt>
<pdfrwt beam="2">  1       21 0.74030496E-01 0.34015940E+03</pdfrwt>
<totfact> 0.18303716E+03</totfact>
</mgrwt>
</event>
<event>
 4    1  0.4495571E+000  0.1900331E+03  0.7546771E-02  0.1158431E+00
         21   -1    0    0  503  502  0.00000000000E+00  0.00000000000E+00  0.91386465400E+02  0.91386465400E+02  0.00000000000E+00 0. -1.
         21   -1    0    0  501  503 -0.00000000000E+00 -0.00000000000E+00 -0.67519802452E+03  0.67519802452E+03  0.00000000000E+00 0. -1.
          6    1    1    2  501    0  0.49315036730E+02  0.61250457012E+02 -0.53874847216E+03  0.57128146092E+03  0.17300000000E+03 0. -1.
         -6    1    1    2    0  502 -0.49315036730E+02 -0.61250457012E+02 -0.45063086961E+02  0.19530302900E+03  0.17300000000E+03 0. -1.
<mgrwt>
<rscale>  2 0.19003313E+03</rscale>
<asrwt>0</asrwt>
<pdfrwt beam="1">  1       21 0.14059456E-01 0.19003313E+03</pdfrwt>
<pdfrwt beam="2">  1       21 0.10387662E+00 0.19003313E+03</pdfrwt>
<totfact> 0.33128793E+04</totfact>
</mgrwt>
</event>
<event>
 4    1  0.4495571E+000  0.2391009E+03  0.7546771E-02  0.1120393E+00
         21   -1    0    0  503  502  0.00000000000E+00  0.00000000000E+00  0.22529023836E+04  0.22529023836E+04  0.00000000000E+00 0. -1.
         21   -1    0    0  501  503 -0.00000000000E+00 -0.00000000000E+00 -0.36363667290E+02  0.36363667290E+02  0.00000000000E+00 0. -1.
          6    1    1    2  501    0 -0.16504510101E+03  0.58547044513E+00  0.47906909879E+03  0.53542173057E+03  0.17300000000E+03 0. -1.
         -6    1    1    2    0  502  0.16504510101E+03 -0.58547044513E+00  0.17374696175E+04  0.17538443203E+04  0.17300000000E+03 0. -1.
<mgrwt>
<rscale>  2 0.23910087E+03</rscale>
<asrwt>0</asrwt>
<pdfrwt beam="1">  1       21 0.34660026E+00 0.23910087E+03</pdfrwt>
<pdfrwt beam="2">  1       21 0.55944121E-02 0.23910087E+03</pdfrwt>
<totfact> 0.38541866E+03</totfact>
</mgrwt>
</event>
<event>
 4    1  0.4495571E+000  0.2005039E+03  0.7546771E-02  0.1149315E+00
         21   -1    0    0  501  502  0.00000000000E+00  0.00000000000E+00  0.85984626394E+03  0.85984626394E+03  0.00000000000E+00 0.  1.
         21   -1    0    0  502  503 -0.00000000000E+00 -0.00000000000E+00 -0.92932150918E+02  0.92932150918E+02  0.00000000000E+00 0.  1.
          6    1    1    2  501    0 -0.38492471303E+02 -0.93761045741E+02  0.71926747891E+03  0.74669104070E+03  0.17300000000E+03 0.  1.
         -6    1    1    2    0  503  0.38492471303E+02  0.93761045741E+02  0.47646634114E+02  0.20608737416E+03  0.17300000000E+03 0.  1.
<mgrwt>
<rscale>  2 0.20050388E+03</rscale>
<asrwt>0</asrwt>
<pdfrwt beam="1">  1       21 0.13228403E+00 0.20050388E+03</pdfrwt>
<pdfrwt beam="2">  1       21 0.14297255E-01 0.20050388E+03</pdfrwt>
<totfact> 0.17612063E+04</totfact>
</mgrwt>
</event>
<event>
 4    1  0.4495571E+000  0.1988405E+03  0.7546771E-02  0.1150721E+00
         21   -1    0    0  501  502  0.00000000000E+00  0.00000000000E+00  0.19748559576E+03  0.19748559576E+03  0.00000000000E+00 0.  1.
         21   -1    0    0  502  503 -0.00000000000E+00 -0.00000000000E+00 -0.24622148659E+03  0.24622148659E+03  0.00000000000E+00 0. -1.
          6    1    1    2  501    0 -0.89494941988E+02  0.39990131579E+02  0.71541477172E+02  0.21131904368E+03  0.17300000000E+03 0.  1.
         -6    1    1    2    0  503  0.89494941988E+02 -0.39990131579E+02 -0.12027736800E+03  0.23238803867E+03  0.17300000000E+03 0. -1.
<mgrwt>
<rscale>  2 0.19884053E+03</rscale>
<asrwt>0</asrwt>
<pdfrwt beam="1">  1       21 0.30382399E-01 0.19884053E+03</pdfrwt>
<pdfrwt beam="2">  1       21 0.37880229E-01 0.19884053E+03</pdfrwt>
<totfact> 0.69680377E+04</totfact>
</mgrwt>
</event>
<event>
 4    1  0.4495571E+000  0.1734544E+03  0.7546771E-02  0.1174293E+00
         21   -1    0    0  503  502  0.00000000000E+00  0.00000000000E+00  0.12716596040E+03  0.12716596040E+03  0.00000000000E+00 0.  1.
         21   -1    0    0  501  503 -0.00000000000E+00 -0.00000000000E+00 -0.26782777773E+03  0.26782777773E+03  0.00000000000E+00 0.  1.
          6    1    1    2  501    0 -0.11818175423E+02  0.42126905445E+01 -0.13777755578E+03  0.22151539655E+03  0.17300000000E+03 0.  1.
         -6    1    1    2    0  502  0.11818175423E+02 -0.42126905445E+01 -0.28842615542E+01  0.17347834158E+03  0.17300000000E+03 0.  1.
<mgrwt>
<rscale>  2 0.17345436E+03</rscale>
<asrwt>0</asrwt>
<pdfrwt beam="1">  1       21 0.19563994E-01 0.17345436E+03</pdfrwt>
<pdfrwt beam="2">  1       21 0.41204273E-01 0.17345436E+03</pdfrwt>
<totfact> 0.13732402E+05</totfact>
</mgrwt>
</event>
<event>
 4    1  0.4495571E+000  0.1898078E+03  0.7546771E-02  0.1158635E+00
         21   -1    0    0  501  502  0.00000000000E+00  0.00000000000E+00  0.42036295803E+02  0.42036295803E+02  0.00000000000E+00 0.  1.
         21   -1    0    0  502  503 -0.00000000000E+00 -0.00000000000E+00 -0.85726071770E+03  0.85726071770E+03  0.00000000000E+00 0.  1.
          6    1    1    2  501    0 -0.35071063427E+02  0.69771142500E+02 -0.40047732621E+03  0.44318064108E+03  0.17300000000E+03 0.  1.
         -6    1    1    2    0  503  0.35071063427E+02 -0.69771142500E+02 -0.41474709569E+03  0.45611637243E+03  0.17300000000E+03 0.  1.
<mgrwt>
<rscale>  2 0.18980778E+03</rscale>
<asrwt>0</asrwt>
<pdfrwt beam="1">  1       21 0.64671229E-02 0.18980778E+03</pdfrwt>
<pdfrwt beam="2">  1       21 0.13188625E+00 0.18980778E+03</pdfrwt>
<totfact> 0.72365880E+04</totfact>
</mgrwt>
</event>
<event>
 4    1  0.4495571E+000  0.2227324E+03  0.7546771E-02  0.1131862E+00
         21   -1    0    0  503  502  0.00000000000E+00  0.00000000000E+00  0.10574969928E+03  0.10574969928E+03  0.00000000000E+00 0. -1.
         21   -1    0    0  501  503 -0.00000000000E+00 -0.00000000000E+00 -0.51846931400E+03  0.51846931400E+03  0.00000000000E+00 0. -1.
          6    1    1    2  501    0 -0.72564619473E+02  0.12006284136E+03 -0.30264708955E+03  0.37577249857E+03  0.17300000000E+03 0. -1.
         -6    1    1    2    0  502  0.72564619473E+02 -0.12006284136E+03 -0.11007252517E+03  0.24844651471E+03  0.17300000000E+03 0. -1.
<mgrwt>
<rscale>  2 0.22273237E+03</rscale>
<asrwt>0</asrwt>
<pdfrwt beam="1">  1       21 0.16269185E-01 0.22273237E+03</pdfrwt>
<pdfrwt beam="2">  1       21 0.79764510E-01 0.22273237E+03</pdfrwt>
<totfact> 0.46136271E+04</totfact>
</mgrwt>
</event>
<event>
 4    1  0.4495571E+000  0.1855438E+03  0.7546771E-02  0.1162543E+00
         21   -1    0    0  503  502  0.00000000000E+00  0.00000000000E+00  0.23672715153E+03  0.23672715153E+03  0.00000000000E+00 0. -1.
         21   -1    0    0  501  503 -0.00000000000E+00 -0.00000000000E+00 -0.18458692690E+03  0.18458692690E+03  0.00000000000E+00 0. -1.
          6    1    1    2  501    0  0.36366007178E+02  0.56347247609E+02 -0.70957853525E+02  0.19864922796E+03  0.17300000000E+03 0. -1.
         -6    1    1    2    0  502 -0.36366007178E+02 -0.56347247609E+02  0.12309807815E+03  0.22266485047E+03  0.17300000000E+03 0. -1.
<mgrwt>
<rscale>  2 0.18554379E+03</rscale>
<asrwt>0</asrwt>
<pdfrwt beam="1">  1       21 0.36419562E-01 0.18554379E+03</pdfrwt>
<pdfrwt beam="2">  1       21 0.28397989E-01 0.18554379E+03</pdfrwt>
<totfact> 0.86438704E+04</totfact>
</mgrwt>
</event>
<event>
 4    1  0.4495571E+000  0.2186290E+03  0.7546771E-02  0.1134909E+00
         21   -1    0    0  503  502  0.00000000000E+00  0.00000000000E+00  0.34643571117E+03  0.34643571117E+03  0.00000000000E+00 0.  1.
         21   -1    0    0  501  503 -0.00000000000E+00 -0.00000000000E+00 -0.16188575051E+03  0.16188575051E+03  0.00000000000E+00 0. -1.
          6    1    1    2  501    0 -0.67793981302E+02 -0.11521119794E+03 -0.54087693643E+01  0.21869590490E+03  0.17300000000E+03 0. -1.
         -6    1    1    2    0  502  0.67793981302E+02  0.11521119794E+03  0.18995873002E+03  0.28962555679E+03  0.17300000000E+03 0.  1.
<mgrwt>
<rscale>  2 0.21862901E+03</rscale>
<asrwt>0</asrwt>
<pdfrwt beam="1">  1       21 0.53297801E-01 0.21862901E+03</pdfrwt>
<pdfrwt beam="2">  1       21 0.24905500E-01 0.21862901E+03</pdfrwt>
<totfact> 0.50227827E+04</totfact>
</mgrwt>
</event>
<event>
 4    1  0.4495571E+000  0.1981790E+03  0.7546771E-02  0.1151285E+00
         21   -1    0    0  503  502  0.00000000000E+00  0.00000000000E+00  0.96678106841E+02  0.96678106841E+02  0.00000000000E+00 0. -1.
         21   -1    0    0  501  503 -0.00000000000E+00 -0.00000000000E+00 -0.59238378788E+03  0.59238378788E+03  0.00000000000E+00 0. -1.
          6    1    1    2  501    0  0.95860750764E+02 -0.12514720984E+02 -0.44098128923E+03  0.48346602697E+03  0.17300000000E+03 0. -1.
         -6    1    1    2    0  502 -0.95860750764E+02  0.12514720984E+02 -0.54724391806E+02  0.20559586775E+03  0.17300000000E+03 0. -1.
<mgrwt>
<rscale>  2 0.19817896E+03</rscale>
<asrwt>0</asrwt>
<pdfrwt beam="1">  1       21 0.14873554E-01 0.19817896E+03</pdfrwt>
<pdfrwt beam="2">  1       21 0.91135971E-01 0.19817896E+03</pdfrwt>
<totfact> 0.40534439E+04</totfact>
</mgrwt>
</event>
<event>
 4    1  0.4495571E+000  0.1855623E+03  0.7546771E-02  0.1162526E+00
         21   -1    0    0  503  502  0.00000000000E+00  0.00000000000E+00  0.15982855655E+03  0.15982855655E+03  0.00000000000E+00 0. -1.
         21   -1    0    0  501  503 -0.00000000000E+00 -0.00000000000E+00 -0.22407414268E+03  0.22407414268E+03  0.00000000000E+00 0. -1.
          6    1    1    2  501    0 -0.24456493074E+02  0.62500081817E+02 -0.69803419739E+02  0.19825715041E+03  0.17300000000E+03 0.  1.
         -6    1    1    2    0  502  0.24456493074E+02 -0.62500081817E+02  0.55578336115E+01  0.18564554882E+03  0.17300000000E+03 0.  1.
<mgrwt>
<rscale>  2 0.18556234E+03</rscale>
<asrwt>0</asrwt>
<pdfrwt beam="1">  1       21 0.24589009E-01 0.18556234E+03</pdfrwt>
<pdfrwt beam="2">  1       21 0.34472945E-01 0.18556234E+03</pdfrwt>
<totfact> 0.12709063E+05</totfact>
</mgrwt>
</event>
<event>
 4    1  0.4495571E+000  0.1810303E+03  0.7546771E-02  0.1166810E+00
         21   -1    0    0  503  502  0.00000000000E+00  0.00000000000E+00  0.17300236362E+03  0.17300236362E+03  0.00000000000E+00 0. -1.
         21   -1    0    0  501  503 -0.00000000000E+00 -0.00000000000E+00 -0.19431702025E+03  0.19431702025E+03  0.00000000000E+00 0. -1.
          6    1    1    2  501    0  0.15579744057E+02  0.50992500055E+02 -0.39781139102E+02  0.18534967633E+03  0.17300000000E+03 0.  1.
         -6    1    1    2    0  502 -0.15579744057E+02 -0.50992500055E+02  0.18466482466E+02  0.18196970754E+03  0.17300000000E+03 0.  1.
<mgrwt>
<rscale>  2 0.18103028E+03</rscale>
<asrwt>0</asrwt>
<pdfrwt beam="1">  1       21 0.26615748E-01 0.18103028E+03</pdfrwt>
<pdfrwt beam="2">  1       21 0.29894926E-01 0.18103028E+03</pdfrwt>
<totfact> 0.14468878E+05</totfact>
</mgrwt>
</event>
<event>
 4    1  0.4495571E+000  0.1793790E+03  0.7546771E-02  0.1168405E+00
         21   -1    0    0  503  502  0.00000000000E+00  0.00000000000E+00  0.15142545847E+03  0.15142545847E+03  0.00000000000E+00 0. -1.
         21   -1    0    0  501  503 -0.00000000000E+00 -0.00000000000E+00 -0.25964542314E+03  0.25964542314E+03  0.00000000000E+00 0. -1.
          6    1    1    2  501    0 -0.44263576194E+02 -0.16986895506E+02 -0.14169893600E+03  0.22859441651E+03  0.17300000000E+03 0. -1.
         -6    1    1    2    0  502  0.44263576194E+02  0.16986895506E+02  0.33478971332E+02  0.18247646511E+03  0.17300000000E+03 0. -1.
<mgrwt>
<rscale>  2 0.17937898E+03</rscale>
<asrwt>0</asrwt>
<pdfrwt beam="1">  1       21 0.23296224E-01 0.17937898E+03</pdfrwt>
<pdfrwt beam="2">  1       21 0.39945450E-01 0.17937898E+03</pdfrwt>
<totfact> 0.10515079E+05</totfact>
</mgrwt>
</event>
<event>
 4    1  0.4495571E+000  0.2179474E+03  0.7546771E-02  0.1135423E+00
         21   -1    0    0  501  502  0.00000000000E+00  0.00000000000E+00  0.39262880937E+03  0.39262880937E+03  0.00000000000E+00 0.  1.
         21   -1    0    0  502  503 -0.00000000000E+00 -0.00000000000E+00 -0.43047270698E+03  0.43047270698E+03  0.00000000000E+00 0.  1.
          6    1    1    2  501    0  0.12586214993E+03  0.41602779951E+02  0.33003697303E+03  0.39550660633E+03  0.17300000000E+03 0.  1.
         -6    1    1    2    0  503 -0.12586214993E+03 -0.41602779951E+02 -0.36788087065E+03  0.42759491002E+03  0.17300000000E+03 0.  1.
<mgrwt>
<rscale>  2 0.21794741E+03</rscale>
<asrwt>0</asrwt>
<pdfrwt beam="1">  1       21 0.60404433E-01 0.21794741E+03</pdfrwt>
<pdfrwt beam="2">  1       21 0.66226570E-01 0.21794741E+03</pdfrwt>
<totfact> 0.52439605E+03</totfact>
</mgrwt>
</event>
<event>
 4    1  0.4495571E+000  0.1835877E+03  0.7546771E-02  0.1164375E+00
         21   -1    0    0  501  502  0.00000000000E+00  0.00000000000E+00  0.16341926846E+02  0.16341926846E+02  0.00000000000E+00 0.  1.
         21   -1    0    0  502  503 -0.00000000000E+00 -0.00000000000E+00 -0.22605301339E+04  0.22605301339E+04  0.00000000000E+00 0.  1.
          6    1    1    2  501    0 -0.51238404981E+02 -0.33912677053E+02 -0.78510064196E+03  0.80628001452E+03  0.17300000000E+03 0.  1.
         -6    1    1    2    0  503  0.51238404981E+02  0.33912677053E+02 -0.14590875651E+04  0.14705920462E+04  0.17300000000E+03 0.  1.
<mgrwt>
<rscale>  2 0.18358770E+03</rscale>
<asrwt>0</asrwt>
<pdfrwt beam="1">  1       21 0.25141423E-02 0.18358770E+03</pdfrwt>
<pdfrwt beam="2">  1       21 0.34777390E+00 0.18358770E+03</pdfrwt>
<totfact> 0.15423699E+04</totfact>
</mgrwt>
</event>
<event>
 4    1  0.4495571E+000  0.2038556E+03  0.7546771E-02  0.1146526E+00
         21   -1    0    0  503  502  0.00000000000E+00  0.00000000000E+00  0.10808555959E+03  0.10808555959E+03  0.00000000000E+00 0. -1.
         21   -1    0    0  501  503 -0.00000000000E+00 -0.00000000000E+00 -0.39974271797E+03  0.39974271797E+03  0.00000000000E+00 0. -1.
          6    1    1    2  501    0 -0.10550686594E+03  0.22280612492E+02 -0.96219473382E+02  0.22542251775E+03  0.17300000000E+03 0.  1.
         -6    1    1    2    0  502  0.10550686594E+03 -0.22280612492E+02 -0.19543768500E+03  0.28240575980E+03  0.17300000000E+03 0.  1.
<mgrwt>
<rscale>  2 0.20385565E+03</rscale>
<asrwt>0</asrwt>
<pdfrwt beam="1">  1       21 0.16628547E-01 0.20385565E+03</pdfrwt>
<pdfrwt beam="2">  1       21 0.61498881E-01 0.20385565E+03</pdfrwt>
<totfact> 0.79445481E+04</totfact>
</mgrwt>
</event>
<event>
 4    1  0.4495571E+000  0.2065324E+03  0.7546771E-02  0.1144342E+00
         21   -1    0    0  501  502  0.00000000000E+00  0.00000000000E+00  0.49482237723E+02  0.49482237723E+02  0.00000000000E+00 0.  1.
         21   -1    0    0  502  503 -0.00000000000E+00 -0.00000000000E+00 -0.86978032902E+03  0.86978032902E+03  0.00000000000E+00 0.  1.
          6    1    1    2  501    0  0.81634361433E+02  0.77861951551E+02 -0.45350946005E+03  0.49832367275E+03  0.17300000000E+03 0.  1.
         -6    1    1    2    0  503 -0.81634361433E+02 -0.77861951551E+02 -0.36678863125E+03  0.42093889399E+03  0.17300000000E+03 0.  1.
<mgrwt>
<rscale>  2 0.20653245E+03</rscale>
<asrwt>0</asrwt>
<pdfrwt beam="1">  1       21 0.76126524E-02 0.20653245E+03</pdfrwt>
<pdfrwt beam="2">  1       21 0.13381235E+00 0.20653245E+03</pdfrwt>
<totfact> 0.52163544E+04</totfact>
</mgrwt>
</event>
<event>
 4    1  0.4495571E+000  0.1813455E+03  0.7546771E-02  0.1166507E+00
         21   -1    0    0  501  502  0.00000000000E+00  0.00000000000E+00  0.16399667544E+03  0.16399667544E+03  0.00000000000E+00 0.  1.
         21   -1    0    0  502  503 -0.00000000000E+00 -0.00000000000E+00 -0.29963471453E+03  0.29963471453E+03  0.00000000000E+00 0.  1.
          6    1    1    2  501    0 -0.39003851935E+01  0.54239999724E+02  0.65500815721E+02  0.19281220769E+03  0.17300000000E+03 0.  1.
         -6    1    1    2    0  503  0.39003851935E+01 -0.54239999724E+02 -0.20113885481E+03  0.27081918228E+03  0.17300000000E+03 0.  1.
<mgrwt>
<rscale>  2 0.18134550E+03</rscale>
<asrwt>0</asrwt>
<pdfrwt beam="1">  1       21 0.25230258E-01 0.18134550E+03</pdfrwt>
<pdfrwt beam="2">  1       21 0.46097648E-01 0.18134550E+03</pdfrwt>
<totfact> 0.67444547E+04</totfact>
</mgrwt>
</event>
<event>
 4    1  0.4495571E+000  0.2570594E+03  0.7546771E-02  0.1108923E+00
         21   -1    0    0  503  502  0.00000000000E+00  0.00000000000E+00  0.12470163363E+04  0.12470163363E+04  0.00000000000E+00 0. -1.
         21   -1    0    0  501  503 -0.00000000000E+00 -0.00000000000E+00 -0.11191051352E+03  0.11191051352E+03  0.00000000000E+00 0.  1.
          6    1    1    2  501    0  0.18901977495E+03 -0.20543756945E+02  0.74534054933E+02  0.26764686924E+03  0.17300000000E+03 0.  1.
         -6    1    1    2    0  502 -0.18901977495E+03  0.20543756945E+02  0.10605717678E+04  0.10912799806E+04  0.17300000000E+03 0. -1.
<mgrwt>
<rscale>  2 0.25705937E+03</rscale>
<asrwt>0</asrwt>
<pdfrwt beam="1">  1       21 0.19184866E+00 0.25705937E+03</pdfrwt>
<pdfrwt beam="2">  1       21 0.17217003E-01 0.25705937E+03</pdfrwt>
<totfact> 0.43857459E+03</totfact>
</mgrwt>
</event>
<event>
 4    1  0.4495571E+000  0.2063372E+03  0.7546771E-02  0.1144500E+00
         21   -1    0    0  501  502  0.00000000000E+00  0.00000000000E+00  0.92942032860E+02  0.92942032860E+02  0.00000000000E+00 0.  1.
         21   -1    0    0  502  503 -0.00000000000E+00 -0.00000000000E+00 -0.45808277328E+03  0.45808277328E+03  0.00000000000E+00 0.  1.
          6    1    1    2  501    0 -0.85758188318E+02  0.72743257657E+02 -0.18298358458E+03  0.27578622269E+03  0.17300000000E+03 0.  1.
         -6    1    1    2    0  503  0.85758188318E+02 -0.72743257657E+02 -0.18215715585E+03  0.27523858346E+03  0.17300000000E+03 0.  1.
<mgrwt>
<rscale>  2 0.20633722E+03</rscale>
<asrwt>0</asrwt>
<pdfrwt beam="1">  1       21 0.14298774E-01 0.20633722E+03</pdfrwt>
<pdfrwt beam="2">  1       21 0.70474273E-01 0.20633722E+03</pdfrwt>
<totfact> 0.77651188E+04</totfact>
</mgrwt>
</event>
<event>
 4    1  0.4495571E+000  0.2552643E+03  0.7546771E-02  0.1110022E+00
         21   -1    0    0  503  502  0.00000000000E+00  0.00000000000E+00  0.95318413903E+03  0.95318413903E+03  0.00000000000E+00 0.  1.
         21   -1    0    0  501  503 -0.00000000000E+00 -0.00000000000E+00 -0.15705352208E+04  0.15705352208E+04  0.00000000000E+00 0. -1.
          6    1    1    2  501    0 -0.13775170099E+03 -0.12749642409E+03 -0.15427674066E+04  0.15637426707E+04  0.17300000000E+03 0. -1.
         -6    1    1    2    0  502  0.13775170099E+03  0.12749642409E+03  0.92541632486E+03  0.95997668910E+03  0.17300000000E+03 0.  1.
<mgrwt>
<rscale>  2 0.25526431E+03</rscale>
<asrwt>0</asrwt>
<pdfrwt beam="1">  1       21 0.14664371E+00 0.25526431E+03</pdfrwt>
<pdfrwt beam="2">  1       21 0.24162080E+00 0.25526431E+03</pdfrwt>
<totfact> 0.21474820E+01</totfact>
</mgrwt>
</event>
<event>
 4    1  0.4495571E+000  0.2499710E+03  0.7546771E-02  0.1113323E+00
         21   -1    0    0  501  502  0.00000000000E+00  0.00000000000E+00  0.36946896050E+03  0.36946896050E+03  0.00000000000E+00 0. -1.
         21   -1    0    0  502  503 -0.00000000000E+00 -0.00000000000E+00 -0.29958964227E+03  0.29958964227E+03  0.00000000000E+00 0.  1.
          6    1    1    2  501    0 -0.17699325733E+03 -0.35069703890E+02  0.25570018393E+03  0.35758646693E+03  0.17300000000E+03 0. -1.
         -6    1    1    2    0  503  0.17699325733E+03  0.35069703890E+02 -0.18582086570E+03  0.31147213583E+03  0.17300000000E+03 0.  1.
<mgrwt>
<rscale>  2 0.24997099E+03</rscale>
<asrwt>0</asrwt>
<pdfrwt beam="1">  1       21 0.56841379E-01 0.24997099E+03</pdfrwt>
<pdfrwt beam="2">  1       21 0.46090714E-01 0.24997099E+03</pdfrwt>
<totfact> 0.12680248E+04</totfact>
</mgrwt>
</event>
<event>
 4    1  0.4495571E+000  0.1849451E+03  0.7546771E-02  0.1163101E+00
         21   -1    0    0  503  502  0.00000000000E+00  0.00000000000E+00  0.85104071937E+02  0.85104071937E+02  0.00000000000E+00 0.  1.
         21   -1    0    0  501  503 -0.00000000000E+00 -0.00000000000E+00 -0.45874061400E+03  0.45874061400E+03  0.00000000000E+00 0.  1.
          6    1    1    2  501    0  0.99567534729E+01 -0.64626375006E+02 -0.28252198169E+03  0.33767347457E+03  0.17300000000E+03 0. -1.
         -6    1    1    2    0  502 -0.99567534729E+01  0.64626375006E+02 -0.91114560367E+02  0.20617121137E+03  0.17300000000E+03 0. -1.
<mgrwt>
<rscale>  2 0.18494514E+03</rscale>
<asrwt>0</asrwt>
<pdfrwt beam="1">  1       21 0.13092934E-01 0.18494514E+03</pdfrwt>
<pdfrwt beam="2">  1       21 0.70575477E-01 0.18494514E+03</pdfrwt>
<totfact> 0.91600074E+04</totfact>
</mgrwt>
</event>
<event>
 4    1  0.4495571E+000  0.1847155E+03  0.7546771E-02  0.1163316E+00
         21   -1    0    0  501  502  0.00000000000E+00  0.00000000000E+00  0.53397283602E+02  0.53397283602E+02  0.00000000000E+00 0.  1.
         21   -1    0    0  502  503 -0.00000000000E+00 -0.00000000000E+00 -0.12841830672E+04  0.12841830672E+04  0.00000000000E+00 0. -1.
          6    1    1    2  501    0  0.27333601730E+02  0.58683084745E+02 -0.14134260597E+03  0.23258882708E+03  0.17300000000E+03 0.  1.
         -6    1    1    2    0  503 -0.27333601730E+02 -0.58683084745E+02 -0.10894431776E+04  0.11049915237E+04  0.17300000000E+03 0. -1.
<mgrwt>
<rscale>  2 0.18471554E+03</rscale>
<asrwt>0</asrwt>
<pdfrwt beam="1">  1       21 0.82149667E-02 0.18471554E+03</pdfrwt>
<pdfrwt beam="2">  1       21 0.19756663E+00 0.18471554E+03</pdfrwt>
<totfact> 0.16050520E+04</totfact>
</mgrwt>
</event>
<event>
 4    1  0.4495571E+000  0.1943520E+03  0.7546771E-02  0.1154594E+00
         21   -1    0    0  501  502  0.00000000000E+00  0.00000000000E+00  0.19722986648E+03  0.19722986648E+03  0.00000000000E+00 0. -1.
         21   -1    0    0  502  503 -0.00000000000E+00 -0.00000000000E+00 -0.20322303161E+03  0.20322303161E+03  0.00000000000E+00 0.  1.
          6    1    1    2  501    0  0.12908885216E+02 -0.87618892029E+02 -0.51053414597E+02  0.20094566604E+03  0.17300000000E+03 0. -1.
         -6    1    1    2    0  503 -0.12908885216E+02  0.87618892029E+02  0.45060249469E+02  0.19950723205E+03  0.17300000000E+03 0. -1.
<mgrwt>
<rscale>  2 0.19435202E+03</rscale>
<asrwt>0</asrwt>
<pdfrwt beam="1">  1       21 0.30343056E-01 0.19435202E+03</pdfrwt>
<pdfrwt beam="2">  1       21 0.31265082E-01 0.19435202E+03</pdfrwt>
<totfact> 0.10239092E+05</totfact>
</mgrwt>
</event>
<event>
 4    1  0.4495571E+000  0.1741734E+03  0.7546771E-02  0.1173564E+00
         21   -1    0    0  503  502  0.00000000000E+00  0.00000000000E+00  0.46945679923E+02  0.46945679923E+02  0.00000000000E+00 0.  1.
         21   -1    0    0  501  503 -0.00000000000E+00 -0.00000000000E+00 -0.80919178413E+03  0.80919178413E+03  0.00000000000E+00 0.  1.
          6    1    1    2  501    0  0.92672345084E+01  0.17929904639E+02 -0.57324137785E+03  0.59911771831E+03  0.17300000000E+03 0.  1.
         -6    1    1    2    0  502 -0.92672345084E+01 -0.17929904639E+02 -0.18900472636E+03  0.25701974574E+03  0.17300000000E+03 0.  1.
<mgrwt>
<rscale>  2 0.17417337E+03</rscale>
<asrwt>0</asrwt>
<pdfrwt beam="1">  1       21 0.72224128E-02 0.17417337E+03</pdfrwt>
<pdfrwt beam="2">  1       21 0.12449103E+00 0.17417337E+03</pdfrwt>
<totfact> 0.69688146E+04</totfact>
</mgrwt>
</event>
<event>
 4    1  0.4495571E+000  0.2194660E+03  0.7546771E-02  0.1134282E+00
         21   -1    0    0  503  502  0.00000000000E+00  0.00000000000E+00  0.17386889488E+03  0.17386889488E+03  0.00000000000E+00 0.  1.
         21   -1    0    0  501  503 -0.00000000000E+00 -0.00000000000E+00 -0.59119705625E+03  0.59119705625E+03  0.00000000000E+00 0.  1.
          6    1    1    2  501    0  0.59883577779E+02 -0.12103843228E+03 -0.48752602430E+03  0.53464658360E+03  0.17300000000E+03 0.  1.
         -6    1    1    2    0  502 -0.59883577779E+02  0.12103843228E+03  0.70197862939E+02  0.23041936754E+03  0.17300000000E+03 0.  1.
<mgrwt>
<rscale>  2 0.21946605E+03</rscale>
<asrwt>0</asrwt>
<pdfrwt beam="1">  1       21 0.26749061E-01 0.21946605E+03</pdfrwt>
<pdfrwt beam="2">  1       21 0.90953394E-01 0.21946605E+03</pdfrwt>
<totfact> 0.13408754E+04</totfact>
</mgrwt>
</event>
<event>
 4    1  0.4495571E+000  0.2221150E+03  0.7546771E-02  0.1132316E+00
         21   -1    0    0  503  502  0.00000000000E+00  0.00000000000E+00  0.31318921748E+02  0.31318921748E+02  0.00000000000E+00 0. -1.
         21   -1    0    0  501  503 -0.00000000000E+00 -0.00000000000E+00 -0.17203768468E+04  0.17203768468E+04  0.00000000000E+00 0. -1.
          6    1    1    2  501    0  0.11710109100E+03 -0.75454630799E+02 -0.10989153451E+04  0.11211378160E+04  0.17300000000E+03 0.  1.
         -6    1    1    2    0  502 -0.11710109100E+03  0.75454630799E+02 -0.59014257999E+03  0.63055795256E+03  0.17300000000E+03 0.  1.
<mgrwt>
<rscale>  2 0.22211499E+03</rscale>
<asrwt>0</asrwt>
<pdfrwt beam="1">  1       21 0.48182958E-02 0.22211499E+03</pdfrwt>
<pdfrwt beam="2">  1       21 0.26467335E+00 0.22211499E+03</pdfrwt>
<totfact> 0.15225765E+04</totfact>
</mgrwt>
</event>
<event>
 4    1  0.4495571E+000  0.2229699E+03  0.7546771E-02  0.1131688E+00
         21   -1    0    0  503  502  0.00000000000E+00  0.00000000000E+00  0.75643488184E+03  0.75643488184E+03  0.00000000000E+00 0. -1.
         21   -1    0    0  501  503 -0.00000000000E+00 -0.00000000000E+00 -0.74136212444E+02  0.74136212444E+02  0.00000000000E+00 0. -1.
          6    1    1    2  501    0 -0.10593369940E+02 -0.14026530503E+03  0.48104321272E+03  0.53020575986E+03  0.17300000000E+03 0. -1.
         -6    1    1    2    0  502  0.10593369940E+02  0.14026530503E+03  0.20125545667E+03  0.30036533442E+03  0.17300000000E+03 0. -1.
<mgrwt>
<rscale>  2 0.22296990E+03</rscale>
<asrwt>0</asrwt>
<pdfrwt beam="1">  1       21 0.11637459E+00 0.22296990E+03</pdfrwt>
<pdfrwt beam="2">  1       21 0.11405572E-01 0.22296990E+03</pdfrwt>
<totfact> 0.35992674E+04</totfact>
</mgrwt>
</event>
<event>
 4    1  0.4495571E+000  0.2200196E+03  0.7546771E-02  0.1133868E+00
         21   -1    0    0  501  502  0.00000000000E+00  0.00000000000E+00  0.84029669653E+02  0.84029669653E+02  0.00000000000E+00 0. -1.
         21   -1    0    0  502  503 -0.00000000000E+00 -0.00000000000E+00 -0.74986148093E+03  0.74986148093E+03  0.00000000000E+00 0.  1.
          6    1    1    2  501    0 -0.13233913480E+03 -0.31079936450E+02 -0.13220140815E+03  0.25668233552E+03  0.17300000000E+03 0. -1.
         -6    1    1    2    0  503  0.13233913480E+03  0.31079936450E+02 -0.53363040313E+03  0.57720881507E+03  0.17300000000E+03 0.  1.
<mgrwt>
<rscale>  2 0.22001957E+03</rscale>
<asrwt>0</asrwt>
<pdfrwt beam="1">  1       21 0.12927642E-01 0.22001957E+03</pdfrwt>
<pdfrwt beam="2">  1       21 0.11536330E+00 0.22001957E+03</pdfrwt>
<totfact> 0.29407414E+04</totfact>
</mgrwt>
</event>
<event>
 4    1  0.4495571E+000  0.1876627E+03  0.7546771E-02  0.1160586E+00
         21   -1    0    0  503  502  0.00000000000E+00  0.00000000000E+00  0.26129385165E+03  0.26129385165E+03  0.00000000000E+00 0.  1.
         21   -1    0    0  501  503 -0.00000000000E+00 -0.00000000000E+00 -0.13842015224E+03  0.13842015224E+03  0.00000000000E+00 0.  1.
          6    1    1    2  501    0  0.14628838363E+02  0.71234067312E+02  0.93845010241E+02  0.20981940140E+03  0.17300000000E+03 0.  1.
         -6    1    1    2    0  502 -0.14628838363E+02 -0.71234067312E+02  0.29028689170E+02  0.18989460248E+03  0.17300000000E+03 0.  1.
<mgrwt>
<rscale>  2 0.18766272E+03</rscale>
<asrwt>0</asrwt>
<pdfrwt beam="1">  1       21 0.40199054E-01 0.18766272E+03</pdfrwt>
<pdfrwt beam="2">  1       21 0.21295408E-01 0.18766272E+03</pdfrwt>
<totfact> 0.12259780E+05</totfact>
</mgrwt>
</event>
<event>
 4    1  0.4495571E+000  0.1862164E+03  0.7546771E-02  0.1161919E+00
         21   -1    0    0  501  502  0.00000000000E+00  0.00000000000E+00  0.44952092970E+03  0.44952092970E+03  0.00000000000E+00 0. -1.
         21   -1    0    0  502  503 -0.00000000000E+00 -0.00000000000E+00 -0.10486529396E+03  0.10486529396E+03  0.00000000000E+00 0. -1.
          6    1    1    2  501    0  0.45993477575E+02  0.51304287340E+02  0.31485449748E+03  0.36580033415E+03  0.17300000000E+03 0. -1.
         -6    1    1    2    0  503 -0.45993477575E+02 -0.51304287340E+02  0.29801138257E+02  0.18858588950E+03  0.17300000000E+03 0. -1.
<mgrwt>
<rscale>  2 0.18621635E+03</rscale>
<asrwt>0</asrwt>
<pdfrwt beam="1">  1       21 0.69157065E-01 0.18621635E+03</pdfrwt>
<pdfrwt beam="2">  1       21 0.16133122E-01 0.18621635E+03</pdfrwt>
<totfact> 0.65540979E+04</totfact>
</mgrwt>
</event>
<event>
 4    1  0.4495571E+000  0.2796349E+03  0.7546771E-02  0.1095889E+00
         21   -1    0    0  501  502  0.00000000000E+00  0.00000000000E+00  0.21402032614E+03  0.21402032614E+03  0.00000000000E+00 0. -1.
         21   -1    0    0  502  503 -0.00000000000E+00 -0.00000000000E+00 -0.36619643136E+03  0.36619643136E+03  0.00000000000E+00 0.  1.
          6    1    1    2  501    0 -0.15111550038E+03 -0.15947026543E+03 -0.89906701895E+02  0.29373265916E+03  0.17300000000E+03 0. -1.
         -6    1    1    2    0  503  0.15111550038E+03  0.15947026543E+03 -0.62269403330E+02  0.28648409834E+03  0.17300000000E+03 0. -1.
<mgrwt>
<rscale>  2 0.27963487E+03</rscale>
<asrwt>0</asrwt>
<pdfrwt beam="1">  1       21 0.32926204E-01 0.27963487E+03</pdfrwt>
<pdfrwt beam="2">  1       21 0.56337912E-01 0.27963487E+03</pdfrwt>
<totfact> 0.25223834E+04</totfact>
</mgrwt>
</event>
<event>
 4    1  0.4495571E+000  0.1836864E+03  0.7546771E-02  0.1164282E+00
         21   -1    0    0  503  502  0.00000000000E+00  0.00000000000E+00  0.34667690033E+03  0.34667690033E+03  0.00000000000E+00 0. -1.
         21   -1    0    0  501  503 -0.00000000000E+00 -0.00000000000E+00 -0.11129907221E+03  0.11129907221E+03  0.00000000000E+00 0. -1.
          6    1    1    2  501    0 -0.23561070734E+02 -0.57066331764E+02  0.36553167296E+02  0.18728807841E+03  0.17300000000E+03 0. -1.
         -6    1    1    2    0  502  0.23561070734E+02  0.57066331764E+02  0.19882466083E+03  0.27068789413E+03  0.17300000000E+03 0. -1.
<mgrwt>
<rscale>  2 0.18368639E+03</rscale>
<asrwt>0</asrwt>
<pdfrwt beam="1">  1       21 0.53334907E-01 0.18368639E+03</pdfrwt>
<pdfrwt beam="2">  1       21 0.17122934E-01 0.18368639E+03</pdfrwt>
<totfact> 0.10280924E+05</totfact>
</mgrwt>
</event>
<event>
 4    1  0.4495571E+000  0.2007689E+03  0.7546771E-02  0.1149092E+00
         21   -1    0    0  503  502  0.00000000000E+00  0.00000000000E+00  0.90442202360E+02  0.90442202360E+02  0.00000000000E+00 0.  1.
         21   -1    0    0  501  503 -0.00000000000E+00 -0.00000000000E+00 -0.87182167118E+03  0.87182167118E+03  0.00000000000E+00 0. -1.
          6    1    1    2  501    0  0.90393898890E+02 -0.46990167259E+02 -0.72706820495E+03  0.75427866695E+03  0.17300000000E+03 0. -1.
         -6    1    1    2    0  502 -0.90393898890E+02  0.46990167259E+02 -0.54311263872E+02  0.20798520659E+03  0.17300000000E+03 0.  1.
<mgrwt>
<rscale>  2 0.20076885E+03</rscale>
<asrwt>0</asrwt>
<pdfrwt beam="1">  1       21 0.13914185E-01 0.20076885E+03</pdfrwt>
<pdfrwt beam="2">  1       21 0.13412641E+00 0.20076885E+03</pdfrwt>
<totfact> 0.17859466E+04</totfact>
</mgrwt>
</event>
<event>
 4    1  0.4495571E+000  0.1891666E+03  0.7546771E-02  0.1159215E+00
         21   -1    0    0  501  502  0.00000000000E+00  0.00000000000E+00  0.49735771084E+03  0.49735771084E+03  0.00000000000E+00 0. -1.
         21   -1    0    0  502  503 -0.00000000000E+00 -0.00000000000E+00 -0.11639546358E+03  0.11639546358E+03  0.00000000000E+00 0.  1.
          6    1    1    2  501    0  0.71749099243E+02 -0.26590498380E+02  0.38011603111E+03  0.42458472058E+03  0.17300000000E+03 0. -1.
         -6    1    1    2    0  503 -0.71749099243E+02  0.26590498380E+02  0.84621615418E+00  0.18916845384E+03  0.17300000000E+03 0.  1.
<mgrwt>
<rscale>  2 0.18916656E+03</rscale>
<asrwt>0</asrwt>
<pdfrwt beam="1">  1       21 0.76516570E-01 0.18916656E+03</pdfrwt>
<pdfrwt beam="2">  1       21 0.17906995E-01 0.18916656E+03</pdfrwt>
<totfact> 0.43169594E+04</totfact>
</mgrwt>
</event>
<event>
 4    1  0.4495571E+000  0.1777294E+03  0.7546771E-02  0.1170019E+00
         21   -1    0    0  501  502  0.00000000000E+00  0.00000000000E+00  0.27591705257E+03  0.27591705257E+03  0.00000000000E+00 0.  1.
         21   -1    0    0  502  503 -0.00000000000E+00 -0.00000000000E+00 -0.11800643231E+03  0.11800643231E+03  0.00000000000E+00 0.  1.
          6    1    1    2  501    0  0.40564665826E+02 -0.36389486514E+01  0.44920024795E+02  0.18331814610E+03  0.17300000000E+03 0.  1.
         -6    1    1    2    0  503 -0.40564665826E+02  0.36389486514E+01  0.11299059546E+03  0.21060533878E+03  0.17300000000E+03 0.  1.
<mgrwt>
<rscale>  2 0.17772938E+03</rscale>
<asrwt>0</asrwt>
<pdfrwt beam="1">  1       21 0.42448777E-01 0.17772938E+03</pdfrwt>
<pdfrwt beam="2">  1       21 0.18154836E-01 0.17772938E+03</pdfrwt>
<totfact> 0.14827169E+05</totfact>
</mgrwt>
</event>
<event>
 4    1  0.4495571E+000  0.1786294E+03  0.7546771E-02  0.1169136E+00
         21   -1    0    0  501  502  0.00000000000E+00  0.00000000000E+00  0.42967032592E+03  0.42967032592E+03  0.00000000000E+00 0.  1.
         21   -1    0    0  502  503 -0.00000000000E+00 -0.00000000000E+00 -0.51805832899E+03  0.51805832899E+03  0.00000000000E+00 0.  1.
          6    1    1    2  501    0 -0.24282391886E+02 -0.37280182530E+02  0.39439348106E+03  0.43296034977E+03  0.17300000000E+03 0.  1.
         -6    1    1    2    0  503  0.24282391886E+02  0.37280182530E+02 -0.48278148413E+03  0.51476830515E+03  0.17300000000E+03 0.  1.
<mgrwt>
<rscale>  2 0.17862936E+03</rscale>
<asrwt>0</asrwt>
<pdfrwt beam="1">  1       21 0.66103127E-01 0.17862936E+03</pdfrwt>
<pdfrwt beam="2">  1       21 0.79701281E-01 0.17862936E+03</pdfrwt>
<totfact> 0.29500607E+03</totfact>
</mgrwt>
</event>
<event>
 4    1  0.4495571E+000  0.2223375E+03  0.7546771E-02  0.1132152E+00
         21   -1    0    0  501  502  0.00000000000E+00  0.00000000000E+00  0.85758686192E+02  0.85758686192E+02  0.00000000000E+00 0. -1.
         21   -1    0    0  502  503 -0.00000000000E+00 -0.00000000000E+00 -0.90421156725E+03  0.90421156725E+03  0.00000000000E+00 0.  1.
          6    1    1    2  501    0 -0.39240427212E+01 -0.13960501122E+03 -0.11120412614E+03  0.24859669133E+03  0.17300000000E+03 0. -1.
         -6    1    1    2    0  503  0.39240427212E+01  0.13960501122E+03 -0.70724875492E+03  0.74137356212E+03  0.17300000000E+03 0.  1.
<mgrwt>
<rscale>  2 0.22233749E+03</rscale>
<asrwt>0</asrwt>
<pdfrwt beam="1">  1       21 0.13193645E-01 0.22233749E+03</pdfrwt>
<pdfrwt beam="2">  1       21 0.13910946E+00 0.22233749E+03</pdfrwt>
<totfact> 0.17660899E+04</totfact>
</mgrwt>
</event>
<event>
 4    1  0.4495571E+000  0.1925440E+03  0.7546771E-02  0.1156187E+00
         21   -1    0    0  503  502  0.00000000000E+00  0.00000000000E+00  0.10388284235E+03  0.10388284235E+03  0.00000000000E+00 0. -1.
         21   -1    0    0  501  503 -0.00000000000E+00 -0.00000000000E+00 -0.69209037569E+03  0.69209037569E+03  0.00000000000E+00 0. -1.
          6    1    1    2  501    0  0.84506547129E+02 -0.16872580417E+01 -0.57108409954E+03  0.60266927257E+03  0.17300000000E+03 0. -1.
         -6    1    1    2    0  502 -0.84506547129E+02  0.16872580417E+01 -0.17123433798E+02  0.19330394547E+03  0.17300000000E+03 0. -1.
<mgrwt>
<rscale>  2 0.19254403E+03</rscale>
<asrwt>0</asrwt>
<pdfrwt beam="1">  1       21 0.15981976E-01 0.19254403E+03</pdfrwt>
<pdfrwt beam="2">  1       21 0.10647544E+00 0.19254403E+03</pdfrwt>
<totfact> 0.24688539E+04</totfact>
</mgrwt>
</event>
<event>
 4    1  0.4495571E+000  0.3474341E+03  0.7546771E-02  0.1063673E+00
         21   -1    0    0  503  502  0.00000000000E+00  0.00000000000E+00  0.65575271389E+03  0.65575271389E+03  0.00000000000E+00 0. -1.
         21   -1    0    0  501  503 -0.00000000000E+00 -0.00000000000E+00 -0.47255897158E+03  0.47255897158E+03  0.00000000000E+00 0.  1.
          6    1    1    2  501    0 -0.31263884237E+02  0.29967324172E+03 -0.34919006279E+03  0.49258926319E+03  0.17300000000E+03 0.  1.
         -6    1    1    2    0  502  0.31263884237E+02 -0.29967324172E+03  0.53238380510E+03  0.63572242228E+03  0.17300000000E+03 0. -1.
<mgrwt>
<rscale>  2 0.34743414E+03</rscale>
<asrwt>0</asrwt>
<pdfrwt beam="1">  1       21 0.10088503E+00 0.34743414E+03</pdfrwt>
<pdfrwt beam="2">  1       21 0.72701380E-01 0.34743414E+03</pdfrwt>
<totfact> 0.12253075E+03</totfact>
</mgrwt>
</event>
<event>
 4    1  0.4495571E+000  0.3104595E+03  0.7546771E-02  0.1080126E+00
         21   -1    0    0  501  502  0.00000000000E+00  0.00000000000E+00  0.96384272065E+03  0.96384272065E+03  0.00000000000E+00 0. -1.
         21   -1    0    0  502  503 -0.00000000000E+00 -0.00000000000E+00 -0.15265657882E+03  0.15265657882E+03  0.00000000000E+00 0.  1.
          6    1    1    2  501    0 -0.25573082936E+03  0.32524976465E+02  0.73345677443E+03  0.79645713703E+03  0.17300000000E+03 0. -1.
         -6    1    1    2    0  503  0.25573082936E+03 -0.32524976465E+02  0.77729367400E+02  0.32004216243E+03  0.17300000000E+03 0.  1.
<mgrwt>
<rscale>  2 0.31045955E+03</rscale>
<asrwt>0</asrwt>
<pdfrwt beam="1">  1       21 0.14828349E+00 0.31045955E+03</pdfrwt>
<pdfrwt beam="2">  1       21 0.23485628E-01 0.31045955E+03</pdfrwt>
<totfact> 0.48567012E+03</totfact>
</mgrwt>
</event>
<event>
 4    1  0.4495571E+000  0.2083187E+03  0.7546771E-02  0.1142904E+00
         21   -1    0    0  503  502  0.00000000000E+00  0.00000000000E+00  0.12460692302E+04  0.12460692302E+04  0.00000000000E+00 0. -1.
         21   -1    0    0  501  503 -0.00000000000E+00 -0.00000000000E+00 -0.82942905615E+02  0.82942905615E+02  0.00000000000E+00 0. -1.
          6    1    1    2  501    0 -0.80990576146E+02  0.83115699236E+02  0.75442298310E+02  0.22155864519E+03  0.17300000000E+03 0. -1.
         -6    1    1    2    0  502  0.80990576146E+02 -0.83115699236E+02  0.10876840262E+04  0.11074534906E+04  0.17300000000E+03 0. -1.
<mgrwt>
<rscale>  2 0.20831873E+03</rscale>
<asrwt>0</asrwt>
<pdfrwt beam="1">  1       21 0.19170294E+00 0.20831873E+03</pdfrwt>
<pdfrwt beam="2">  1       21 0.12760448E-01 0.20831873E+03</pdfrwt>
<totfact> 0.78848223E+03</totfact>
</mgrwt>
</event>
<event>
 4    1  0.4495571E+000  0.1941559E+03  0.7546771E-02  0.1154766E+00
         21   -1    0    0  501  502  0.00000000000E+00  0.00000000000E+00  0.48388345277E+03  0.48388345277E+03  0.00000000000E+00 0. -1.
         21   -1    0    0  502  503 -0.00000000000E+00 -0.00000000000E+00 -0.81210711822E+02  0.81210711822E+02  0.00000000000E+00 0. -1.
          6    1    1    2  501    0 -0.83896953410E+02 -0.26996326967E+02  0.14432304452E+03  0.24192073421E+03  0.17300000000E+03 0. -1.
         -6    1    1    2    0  503  0.83896953410E+02  0.26996326967E+02  0.25834969643E+03  0.32317343038E+03  0.17300000000E+03 0. -1.
<mgrwt>
<rscale>  2 0.19415587E+03</rscale>
<asrwt>0</asrwt>
<pdfrwt beam="1">  1       21 0.74443606E-01 0.19415587E+03</pdfrwt>
<pdfrwt beam="2">  1       21 0.12493956E-01 0.19415587E+03</pdfrwt>
<totfact> 0.88196792E+04</totfact>
</mgrwt>
</event>
<event>
 4    1  0.4495571E+000  0.4156116E+03  0.7546771E-02  0.1038504E+00
         21   -1    0    0  501  502  0.00000000000E+00  0.00000000000E+00  0.17538461332E+03  0.17538461332E+03  0.00000000000E+00 0. -1.
         21   -1    0    0  502  503 -0.00000000000E+00 -0.00000000000E+00 -0.14741512730E+04  0.14741512730E+04  0.00000000000E+00 0.  1.
          6    1    1    2  501    0  0.37423329510E+03  0.52472941946E+02 -0.17422847271E+03  0.45065344723E+03  0.17300000000E+03 0.  1.
         -6    1    1    2    0  503 -0.37423329510E+03 -0.52472941946E+02 -0.11245381869E+04  0.11988824391E+04  0.17300000000E+03 0.  1.
<mgrwt>
<rscale>  2 0.41561156E+03</rscale>
<asrwt>0</asrwt>
<pdfrwt beam="1">  1       21 0.26982248E-01 0.41561156E+03</pdfrwt>
<pdfrwt beam="2">  1       21 0.22679250E+00 0.41561156E+03</pdfrwt>
<totfact> 0.10073825E+03</totfact>
</mgrwt>
</event>
<event>
 4    1  0.4495571E+000  0.2717327E+03  0.7546771E-02  0.1100292E+00
         21   -1    0    0  501  502  0.00000000000E+00  0.00000000000E+00  0.13816944679E+04  0.13816944679E+04  0.00000000000E+00 0.  1.
         21   -1    0    0  502  503 -0.00000000000E+00 -0.00000000000E+00 -0.98417115474E+02  0.98417115474E+02  0.00000000000E+00 0. -1.
          6    1    1    2  501    0  0.10596095677E+03  0.18078144810E+03  0.11419286354E+04  0.11738141525E+04  0.17300000000E+03 0.  1.
         -6    1    1    2    0  503 -0.10596095677E+03 -0.18078144810E+03  0.14134871703E+03  0.30629743085E+03  0.17300000000E+03 0. -1.
<mgrwt>
<rscale>  2 0.27173269E+03</rscale>
<asrwt>0</asrwt>
<pdfrwt beam="1">  1       21 0.21256837E+00 0.27173269E+03</pdfrwt>
<pdfrwt beam="2">  1       21 0.15141096E-01 0.27173269E+03</pdfrwt>
<totfact> 0.40376615E+03</totfact>
</mgrwt>
</event>
<event>
 4    1  0.4495571E+000  0.1739010E+03  0.7546771E-02  0.1173840E+00
         21   -1    0    0  503  502  0.00000000000E+00  0.00000000000E+00  0.17411040807E+03  0.17411040807E+03  0.00000000000E+00 0.  1.
         21   -1    0    0  501  503 -0.00000000000E+00 -0.00000000000E+00 -0.19547603055E+03  0.19547603055E+03  0.00000000000E+00 0.  1.
          6    1    1    2  501    0  0.17672788747E+02  0.48942239465E+00  0.51006429508E+02  0.18122699260E+03  0.17300000000E+03 0.  1.
         -6    1    1    2    0  502 -0.17672788747E+02 -0.48942239465E+00 -0.72372051992E+02  0.18835944602E+03  0.17300000000E+03 0.  1.
<mgrwt>
<rscale>  2 0.17390103E+03</rscale>
<asrwt>0</asrwt>
<pdfrwt beam="1">  1       21 0.26786217E-01 0.17390103E+03</pdfrwt>
<pdfrwt beam="2">  1       21 0.30073235E-01 0.17390103E+03</pdfrwt>
<totfact> 0.14162401E+05</totfact>
</mgrwt>
</event>
<event>
 4    1  0.4495571E+000  0.2235126E+03  0.7546771E-02  0.1131291E+00
         21   -1    0    0  501  502  0.00000000000E+00  0.00000000000E+00  0.52663641914E+02  0.52663641914E+02  0.00000000000E+00 0. -1.
         21   -1    0    0  502  503 -0.00000000000E+00 -0.00000000000E+00 -0.15231022454E+04  0.15231022454E+04  0.00000000000E+00 0. -1.
          6    1    1    2  501    0 -0.46065531174E+02 -0.13381649357E+03 -0.25134257392E+03  0.33634948577E+03  0.17300000000E+03 0. -1.
         -6    1    1    2    0  503  0.46065531174E+02  0.13381649357E+03 -0.12190960296E+04  0.12394164015E+04  0.17300000000E+03 0. -1.
<mgrwt>
<rscale>  2 0.22351261E+03</rscale>
<asrwt>0</asrwt>
<pdfrwt beam="1">  1       21 0.81021005E-02 0.22351261E+03</pdfrwt>
<pdfrwt beam="2">  1       21 0.23432337E+00 0.22351261E+03</pdfrwt>
<totfact> 0.94102561E+03</totfact>
</mgrwt>
</event>
<event>
 4    1  0.4495571E+000  0.2048069E+03  0.7546771E-02  0.1145746E+00
         21   -1    0    0  503  502  0.00000000000E+00  0.00000000000E+00  0.19717527757E+03  0.19717527757E+03  0.00000000000E+00 0.  1.
         21   -1    0    0  501  503 -0.00000000000E+00 -0.00000000000E+00 -0.11392701551E+04  0.11392701551E+04  0.00000000000E+00 0.  1.
          6    1    1    2  501    0 -0.78380903196E+02  0.76637475653E+02 -0.10736612496E+04  0.10930207443E+04  0.17300000000E+03 0.  1.
         -6    1    1    2    0  502  0.78380903196E+02 -0.76637475653E+02  0.13156637203E+03  0.24342468837E+03  0.17300000000E+03 0.  1.
<mgrwt>
<rscale>  2 0.20480691E+03</rscale>
<asrwt>0</asrwt>
<pdfrwt beam="1">  1       21 0.30334658E-01 0.20480691E+03</pdfrwt>
<pdfrwt beam="2">  1       21 0.17527233E+00 0.20480691E+03</pdfrwt>
<totfact> 0.20204298E+03</totfact>
</mgrwt>
</event>
<event>
 4    1  0.4495571E+000  0.2133274E+03  0.7546771E-02  0.1138958E+00
         21   -1    0    0  503  502  0.00000000000E+00  0.00000000000E+00  0.73494520417E+03  0.73494520417E+03  0.00000000000E+00 0. -1.
         21   -1    0    0  501  503 -0.00000000000E+00 -0.00000000000E+00 -0.68149735092E+02  0.68149735092E+02  0.00000000000E+00 0. -1.
          6    1    1    2  501    0  0.12334305485E+03  0.19133189544E+02  0.21200224536E+03  0.30075495035E+03  0.17300000000E+03 0. -1.
         -6    1    1    2    0  502 -0.12334305485E+03 -0.19133189544E+02  0.45479322372E+03  0.50233998891E+03  0.17300000000E+03 0. -1.
<mgrwt>
<rscale>  2 0.21332742E+03</rscale>
<asrwt>0</asrwt>
<pdfrwt beam="1">  1       21 0.11306849E+00 0.21332742E+03</pdfrwt>
<pdfrwt beam="2">  1       21 0.10484575E-01 0.21332742E+03</pdfrwt>
<totfact> 0.45098118E+04</totfact>
</mgrwt>
</event>
<event>
 4    1  0.4495571E+000  0.1785213E+03  0.7546771E-02  0.1169242E+00
         21   -1    0    0  503  502  0.00000000000E+00  0.00000000000E+00  0.30175204356E+02  0.30175204356E+02  0.00000000000E+00 0.  1.
         21   -1    0    0  501  503 -0.00000000000E+00 -0.00000000000E+00 -0.10894976993E+04  0.10894976993E+04  0.00000000000E+00 0.  1.
          6    1    1    2  501    0  0.31408169548E+02  0.30893259963E+02 -0.43173234076E+03  0.46718591662E+03  0.17300000000E+03 0.  1.
         -6    1    1    2    0  502 -0.31408169548E+02 -0.30893259963E+02 -0.62759015413E+03  0.65248698699E+03  0.17300000000E+03 0.  1.
<mgrwt>
<rscale>  2 0.17852133E+03</rscale>
<asrwt>0</asrwt>
<pdfrwt beam="1">  1       21 0.46423390E-02 0.17852133E+03</pdfrwt>
<pdfrwt beam="2">  1       21 0.16761504E+00 0.17852133E+03</pdfrwt>
<totfact> 0.68186172E+04</totfact>
</mgrwt>
</event>
<event>
 4    1  0.4495571E+000  0.2034385E+03  0.7546771E-02  0.1146870E+00
         21   -1    0    0  503  502  0.00000000000E+00  0.00000000000E+00  0.18706677853E+03  0.18706677853E+03  0.00000000000E+00 0.  1.
         21   -1    0    0  501  503 -0.00000000000E+00 -0.00000000000E+00 -0.56446435771E+03  0.56446435771E+03  0.00000000000E+00 0.  1.
          6    1    1    2  501    0 -0.30321840673E+01  0.10700014146E+03 -0.48171108330E+03  0.52290801503E+03  0.17300000000E+03 0.  1.
         -6    1    1    2    0  502  0.30321840673E+01 -0.10700014146E+03  0.10431350412E+03  0.22862312121E+03  0.17300000000E+03 0.  1.
<mgrwt>
<rscale>  2 0.20343850E+03</rscale>
<asrwt>0</asrwt>
<pdfrwt beam="1">  1       21 0.28779504E-01 0.20343850E+03</pdfrwt>
<pdfrwt beam="2">  1       21 0.86840671E-01 0.20343850E+03</pdfrwt>
<totfact> 0.13085301E+04</totfact>
</mgrwt>
</event>
<event>
 4    1  0.4495571E+000  0.2255619E+03  0.7546771E-02  0.1129803E+00
         21   -1    0    0  501  502  0.00000000000E+00  0.00000000000E+00  0.66504172101E+03  0.66504172101E+03  0.00000000000E+00 0.  1.
         21   -1    0    0  502  503 -0.00000000000E+00 -0.00000000000E+00 -0.16512654291E+03  0.16512654291E+03  0.00000000000E+00 0.  1.
          6    1    1    2  501    0  0.14356533502E+03 -0.18388979493E+02  0.55404643994E+03  0.59820198729E+03  0.17300000000E+03 0.  1.
         -6    1    1    2    0  503 -0.14356533502E+03  0.18388979493E+02 -0.54131261842E+02  0.23196627663E+03  0.17300000000E+03 0.  1.
<mgrwt>
<rscale>  2 0.22556188E+03</rscale>
<asrwt>0</asrwt>
<pdfrwt beam="1">  1       21 0.10231411E+00 0.22556188E+03</pdfrwt>
<pdfrwt beam="2">  1       21 0.25404084E-01 0.22556188E+03</pdfrwt>
<totfact> 0.11173141E+04</totfact>
</mgrwt>
</event>
<event>
 4    1  0.4495571E+000  0.1825751E+03  0.7546771E-02  0.1165334E+00
         21   -1    0    0  501  502  0.00000000000E+00  0.00000000000E+00  0.73916524370E+02  0.73916524370E+02  0.00000000000E+00 0. -1.
         21   -1    0    0  502  503 -0.00000000000E+00 -0.00000000000E+00 -0.54158246053E+03  0.54158246053E+03  0.00000000000E+00 0. -1.
          6    1    1    2  501    0  0.27395985272E+02 -0.51518333145E+02 -0.10794801976E+03  0.21210010285E+03  0.17300000000E+03 0. -1.
         -6    1    1    2    0  503 -0.27395985272E+02  0.51518333145E+02 -0.35971791640E+03  0.40339888205E+03  0.17300000000E+03 0. -1.
<mgrwt>
<rscale>  2 0.18257513E+03</rscale>
<asrwt>0</asrwt>
<pdfrwt beam="1">  1       21 0.11371773E-01 0.18257513E+03</pdfrwt>
<pdfrwt beam="2">  1       21 0.83320378E-01 0.18257513E+03</pdfrwt>
<totfact> 0.81355575E+04</totfact>
</mgrwt>
</event>
<event>
 4    1  0.4495571E+000  0.1982875E+03  0.7546771E-02  0.1151192E+00
         21   -1    0    0  501  502  0.00000000000E+00  0.00000000000E+00  0.36961074831E+02  0.36961074831E+02  0.00000000000E+00 0.  1.
         21   -1    0    0  502  503 -0.00000000000E+00 -0.00000000000E+00 -0.13173172443E+04  0.13173172443E+04  0.00000000000E+00 0.  1.
          6    1    1    2  501    0 -0.23819105535E+02  0.93923330798E+02 -0.34310353358E+03  0.39628017439E+03  0.17300000000E+03 0.  1.
         -6    1    1    2    0  503  0.23819105535E+02 -0.93923330798E+02 -0.93725263592E+03  0.95799814478E+03  0.17300000000E+03 0.  1.
<mgrwt>
<rscale>  2 0.19828752E+03</rscale>
<asrwt>0</asrwt>
<pdfrwt beam="1">  1       21 0.56863198E-02 0.19828752E+03</pdfrwt>
<pdfrwt beam="2">  1       21 0.20266417E+00 0.19828752E+03</pdfrwt>
<totfact> 0.27788687E+04</totfact>
</mgrwt>
</event>
<event>
 4    1  0.4495571E+000  0.2148566E+03  0.7546771E-02  0.1137777E+00
         21   -1    0    0  503  502  0.00000000000E+00  0.00000000000E+00  0.19788086200E+04  0.19788086200E+04  0.00000000000E+00 0. -1.
         21   -1    0    0  501  503 -0.00000000000E+00 -0.00000000000E+00 -0.48487009986E+02  0.48487009986E+02  0.00000000000E+00 0. -1.
          6    1    1    2  501    0  0.91661649895E+02 -0.88501336673E+02  0.23500800024E+03  0.31842126944E+03  0.17300000000E+03 0. -1.
         -6    1    1    2    0  502 -0.91661649895E+02  0.88501336673E+02  0.16953136097E+04  0.17088743605E+04  0.17300000000E+03 0. -1.
<mgrwt>
<rscale>  2 0.21485657E+03</rscale>
<asrwt>0</asrwt>
<pdfrwt beam="1">  1       21 0.30443203E+00 0.21485657E+03</pdfrwt>
<pdfrwt beam="2">  1       21 0.74595415E-02 0.21485657E+03</pdfrwt>
<totfact> 0.42532316E+03</totfact>
</mgrwt>
</event>
<event>
 4    1  0.4495571E+000  0.1788015E+03  0.7546771E-02  0.1168968E+00
         21   -1    0    0  501  502  0.00000000000E+00  0.00000000000E+00  0.28365938690E+03  0.28365938690E+03  0.00000000000E+00 0. -1.
         21   -1    0    0  502  503 -0.00000000000E+00 -0.00000000000E+00 -0.13483744268E+03  0.13483744268E+03  0.00000000000E+00 0. -1.
          6    1    1    2  501    0  0.44116694546E+02  0.97302158688E+01  0.15918584507E+03  0.23939526543E+03  0.17300000000E+03 0. -1.
         -6    1    1    2    0  503 -0.44116694546E+02 -0.97302158688E+01 -0.10363900856E+02  0.17910156415E+03  0.17300000000E+03 0. -1.
<mgrwt>
<rscale>  2 0.17880145E+03</rscale>
<asrwt>0</asrwt>
<pdfrwt beam="1">  1       21 0.43639905E-01 0.17880145E+03</pdfrwt>
<pdfrwt beam="2">  1       21 0.20744222E-01 0.17880145E+03</pdfrwt>
<totfact> 0.10933868E+05</totfact>
</mgrwt>
</event>
<event>
 4    1  0.4495571E+000  0.1958308E+03  0.7546771E-02  0.1153305E+00
         21   -1    0    0  503  502  0.00000000000E+00  0.00000000000E+00  0.43564883832E+03  0.43564883832E+03  0.00000000000E+00 0. -1.
         21   -1    0    0  501  503 -0.00000000000E+00 -0.00000000000E+00 -0.14482127299E+03  0.14482127299E+03  0.00000000000E+00 0. -1.
          6    1    1    2  501    0 -0.73391359420E+02  0.55085412006E+02 -0.36337983455E+02  0.19917365111E+03  0.17300000000E+03 0. -1.
         -6    1    1    2    0  502  0.73391359420E+02 -0.55085412006E+02  0.32716554879E+03  0.38129646021E+03  0.17300000000E+03 0. -1.
<mgrwt>
<rscale>  2 0.19583078E+03</rscale>
<asrwt>0</asrwt>
<pdfrwt beam="1">  1       21 0.67022898E-01 0.19583078E+03</pdfrwt>
<pdfrwt beam="2">  1       21 0.22280196E-01 0.19583078E+03</pdfrwt>
<totfact> 0.38358335E+04</totfact>
</mgrwt>
</event>
<event>
 4    1  0.4495571E+000  0.3574188E+03  0.7546771E-02  0.1059611E+00
         21   -1    0    0  503  502  0.00000000000E+00  0.00000000000E+00  0.14170901234E+03  0.14170901234E+03  0.00000000000E+00 0. -1.
         21   -1    0    0  501  503 -0.00000000000E+00 -0.00000000000E+00 -0.91976676852E+03  0.91976676852E+03  0.00000000000E+00 0.  1.
          6    1    1    2  501    0  0.22593535432E+03  0.21626924249E+03 -0.46385997968E+03  0.58558880653E+03  0.17300000000E+03 0. -1.
         -6    1    1    2    0  502 -0.22593535432E+03 -0.21626924249E+03 -0.31419777651E+03  0.47588697433E+03  0.17300000000E+03 0.  1.
<mgrwt>
<rscale>  2 0.35741876E+03</rscale>
<asrwt>0</asrwt>
<pdfrwt beam="1">  1       21 0.21801386E-01 0.35741876E+03</pdfrwt>
<pdfrwt beam="2">  1       21 0.14150258E+00 0.35741876E+03</pdfrwt>
<totfact> 0.62017066E+03</totfact>
</mgrwt>
</event>
<event>
 4    1  0.4495571E+000  0.2376173E+03  0.7546771E-02  0.1121390E+00
         21   -1    0    0  503  502  0.00000000000E+00  0.00000000000E+00  0.53721478290E+02  0.53721478290E+02  0.00000000000E+00 0. -1.
         21   -1    0    0  501  503 -0.00000000000E+00 -0.00000000000E+00 -0.12924044615E+04  0.12924044615E+04  0.00000000000E+00 0. -1.
          6    1    1    2  501    0 -0.74599366822E+02  0.14480308766E+03 -0.91022356829E+03  0.94072787989E+03  0.17300000000E+03 0. -1.
         -6    1    1    2    0  502  0.74599366822E+02 -0.14480308766E+03 -0.32845941493E+03  0.40539805992E+03  0.17300000000E+03 0. -1.
<mgrwt>
<rscale>  2 0.23761734E+03</rscale>
<asrwt>0</asrwt>
<pdfrwt beam="1">  1       21 0.82648427E-02 0.23761734E+03</pdfrwt>
<pdfrwt beam="2">  1       21 0.19883146E+00 0.23761734E+03</pdfrwt>
<totfact> 0.14985831E+04</totfact>
</mgrwt>
</event>
<event>
 4    1  0.4495571E+000  0.1924752E+03  0.7546771E-02  0.1156248E+00
         21   -1    0    0  501  502  0.00000000000E+00  0.00000000000E+00  0.27019762961E+03  0.27019762961E+03  0.00000000000E+00 0.  1.
         21   -1    0    0  502  503 -0.00000000000E+00 -0.00000000000E+00 -0.14454384077E+03  0.14454384077E+03  0.00000000000E+00 0.  1.
          6    1    1    2  501    0  0.20714004514E+02 -0.81784139005E+02  0.15798178267E+02  0.19312249432E+03  0.17300000000E+03 0.  1.
         -6    1    1    2    0  503 -0.20714004514E+02  0.81784139005E+02  0.10985561057E+03  0.22161897606E+03  0.17300000000E+03 0.  1.
<mgrwt>
<rscale>  2 0.19247523E+03</rscale>
<asrwt>0</asrwt>
<pdfrwt beam="1">  1       21 0.41568866E-01 0.19247523E+03</pdfrwt>
<pdfrwt beam="2">  1       21 0.22237514E-01 0.19247523E+03</pdfrwt>
<totfact> 0.10541180E+05</totfact>
</mgrwt>
</event>
<event>
 4    1  0.4495571E+000  0.1756841E+03  0.7546771E-02  0.1172047E+00
         21   -1    0    0  501  502  0.00000000000E+00  0.00000000000E+00  0.81386075243E+03  0.81386075243E+03  0.00000000000E+00 0. -1.
         21   -1    0    0  502  503 -0.00000000000E+00 -0.00000000000E+00 -0.61461866458E+02  0.61461866458E+02  0.00000000000E+00 0. -1.
          6    1    1    2  501    0  0.19688768379E+02  0.23415046911E+02  0.64704279867E+03  0.67046945891E+03  0.17300000000E+03 0. -1.
         -6    1    1    2    0  503 -0.19688768379E+02 -0.23415046911E+02  0.10535608731E+03  0.20485315998E+03  0.17300000000E+03 0. -1.
<mgrwt>
<rscale>  2 0.17568413E+03</rscale>
<asrwt>0</asrwt>
<pdfrwt beam="1">  1       21 0.12520934E+00 0.17568413E+03</pdfrwt>
<pdfrwt beam="2">  1       21 0.94556723E-02 0.17568413E+03</pdfrwt>
<totfact> 0.42944043E+04</totfact>
</mgrwt>
</event>
<event>
 4    1  0.4495571E+000  0.1857151E+03  0.7546771E-02  0.1162384E+00
         21   -1    0    0  501  502  0.00000000000E+00  0.00000000000E+00  0.54659621424E+03  0.54659621424E+03  0.00000000000E+00 0.  1.
         21   -1    0    0  502  503 -0.00000000000E+00 -0.00000000000E+00 -0.63629224789E+02  0.63629224789E+02  0.00000000000E+00 0.  1.
          6    1    1    2  501    0  0.61329573179E+02  0.28280436603E+02  0.26931542044E+03  0.32714048256E+03  0.17300000000E+03 0.  1.
         -6    1    1    2    0  503 -0.61329573179E+02 -0.28280436603E+02  0.21365156901E+03  0.28308495647E+03  0.17300000000E+03 0.  1.
<mgrwt>
<rscale>  2 0.18571510E+03</rscale>
<asrwt>0</asrwt>
<pdfrwt beam="1">  1       21 0.84091722E-01 0.18571510E+03</pdfrwt>
<pdfrwt beam="2">  1       21 0.97891119E-02 0.18571510E+03</pdfrwt>
<totfact> 0.10375080E+05</totfact>
</mgrwt>
</event>
<event>
 4    1  0.4495571E+000  0.2217118E+03  0.7546771E-02  0.1132613E+00
         21   -1    0    0  503  502  0.00000000000E+00  0.00000000000E+00  0.67020918020E+03  0.67020918020E+03  0.00000000000E+00 0.  1.
         21   -1    0    0  501  503 -0.00000000000E+00 -0.00000000000E+00 -0.10024186087E+03  0.10024186087E+03  0.00000000000E+00 0. -1.
          6    1    1    2  501    0 -0.13752708899E+03  0.17703281241E+02  0.85436321986E+02  0.23760360159E+03  0.17300000000E+03 0. -1.
         -6    1    1    2    0  502  0.13752708899E+03 -0.17703281241E+02  0.48453099734E+03  0.53284743948E+03  0.17300000000E+03 0.  1.
<mgrwt>
<rscale>  2 0.22171176E+03</rscale>
<asrwt>0</asrwt>
<pdfrwt beam="1">  1       21 0.10310910E+00 0.22171176E+03</pdfrwt>
<pdfrwt beam="2">  1       21 0.15421825E-01 0.22171176E+03</pdfrwt>
<totfact> 0.27997892E+04</totfact>
</mgrwt>
</event>
<event>
 4    1  0.4495571E+000  0.2067120E+03  0.7546771E-02  0.1144196E+00
         21   -1    0    0  501  502  0.00000000000E+00  0.00000000000E+00  0.44051103522E+03  0.44051103522E+03  0.00000000000E+00 0.  1.
         21   -1    0    0  502  503 -0.00000000000E+00 -0.00000000000E+00 -0.11512418052E+03  0.11512418052E+03  0.00000000000E+00 0.  1.
          6    1    1    2  501    0  0.10015316131E+03  0.52632788860E+02  0.27292287641E+03  0.34236933661E+03  0.17300000000E+03 0.  1.
         -6    1    1    2    0  503 -0.10015316131E+03 -0.52632788860E+02  0.52463978293E+02  0.21326587913E+03  0.17300000000E+03 0.  1.
<mgrwt>
<rscale>  2 0.20671204E+03</rscale>
<asrwt>0</asrwt>
<pdfrwt beam="1">  1       21 0.67770928E-01 0.20671204E+03</pdfrwt>
<pdfrwt beam="2">  1       21 0.17711413E-01 0.20671204E+03</pdfrwt>
<totfact> 0.57167107E+04</totfact>
</mgrwt>
</event>
<event>
 4    1  0.4495571E+000  0.1800552E+03  0.7546771E-02  0.1167750E+00
         21   -1    0    0  501  502  0.00000000000E+00  0.00000000000E+00  0.37834048151E+03  0.37834048151E+03  0.00000000000E+00 0.  1.
         21   -1    0    0  502  503 -0.00000000000E+00 -0.00000000000E+00 -0.10613755007E+03  0.10613755007E+03  0.00000000000E+00 0. -1.
          6    1    1    2  501    0  0.48306606380E+02  0.12543954388E+02  0.24242599873E+03  0.30197722409E+03  0.17300000000E+03 0.  1.
         -6    1    1    2    0  503 -0.48306606380E+02 -0.12543954388E+02  0.29776932711E+02  0.18250080749E+03  0.17300000000E+03 0. -1.
<mgrwt>
<rscale>  2 0.18005521E+03</rscale>
<asrwt>0</asrwt>
<pdfrwt beam="1">  1       21 0.58206227E-01 0.18005521E+03</pdfrwt>
<pdfrwt beam="2">  1       21 0.16328854E-01 0.18005521E+03</pdfrwt>
<totfact> 0.93350340E+04</totfact>
</mgrwt>
</event>
<event>
 4    1  0.4495571E+000  0.2085046E+03  0.7546771E-02  0.1142756E+00
         21   -1    0    0  503  502  0.00000000000E+00  0.00000000000E+00  0.21195763800E+03  0.21195763800E+03  0.00000000000E+00 0.  1.
         21   -1    0    0  501  503 -0.00000000000E+00 -0.00000000000E+00 -0.26094005286E+03  0.26094005286E+03  0.00000000000E+00 0. -1.
          6    1    1    2  501    0  0.11617485509E+03 -0.69700221495E+01 -0.13386396352E+03  0.24777759966E+03  0.17300000000E+03 0. -1.
         -6    1    1    2    0  502 -0.11617485509E+03  0.69700221495E+01  0.84881548658E+02  0.22512009121E+03  0.17300000000E+03 0.  1.
<mgrwt>
<rscale>  2 0.20850462E+03</rscale>
<asrwt>0</asrwt>
<pdfrwt beam="1">  1       21 0.32608867E-01 0.20850462E+03</pdfrwt>
<pdfrwt beam="2">  1       21 0.40144624E-01 0.20850462E+03</pdfrwt>
<totfact> 0.53714419E+04</totfact>
</mgrwt>
</event>
<event>
 4    1  0.4495571E+000  0.2060988E+03  0.7546771E-02  0.1144693E+00
         21   -1    0    0  503  502  0.00000000000E+00  0.00000000000E+00  0.36417839833E+02  0.36417839833E+02  0.00000000000E+00 0. -1.
         21   -1    0    0  501  503 -0.00000000000E+00 -0.00000000000E+00 -0.11700582201E+04  0.11700582201E+04  0.00000000000E+00 0.  1.
          6    1    1    2  501    0  0.11135618719E+03 -0.12144951320E+02 -0.60068541070E+03  0.63505878696E+03  0.17300000000E+03 0.  1.
         -6    1    1    2    0  502 -0.11135618719E+03  0.12144951320E+02 -0.53295496960E+03  0.57141727300E+03  0.17300000000E+03 0.  1.
<mgrwt>
<rscale>  2 0.20609876E+03</rscale>
<asrwt>0</asrwt>
<pdfrwt beam="1">  1       21 0.56027447E-02 0.20609876E+03</pdfrwt>
<pdfrwt beam="2">  1       21 0.18000895E+00 0.20609876E+03</pdfrwt>
<totfact> 0.39982777E+04</totfact>
</mgrwt>
</event>
<event>
 4    1  0.4495571E+000  0.3011989E+03  0.7546771E-02  0.1084643E+00
         21   -1    0    0  501  502  0.00000000000E+00  0.00000000000E+00  0.56977103890E+03  0.56977103890E+03  0.00000000000E+00 0. -1.
         21   -1    0    0  502  503 -0.00000000000E+00 -0.00000000000E+00 -0.26621089656E+03  0.26621089656E+03  0.00000000000E+00 0. -1.
          6    1    1    2  501    0 -0.22587028952E+03  0.98865577321E+02  0.41676478627E+03  0.51421170460E+03  0.17300000000E+03 0. -1.
         -6    1    1    2    0  503  0.22587028952E+03 -0.98865577321E+02 -0.11320464393E+03  0.32177023087E+03  0.17300000000E+03 0. -1.
<mgrwt>
<rscale>  2 0.30119892E+03</rscale>
<asrwt>0</asrwt>
<pdfrwt beam="1">  1       21 0.87657083E-01 0.30119892E+03</pdfrwt>
<pdfrwt beam="2">  1       21 0.40955523E-01 0.30119892E+03</pdfrwt>
<totfact> 0.59955970E+03</totfact>
</mgrwt>
</event>
<event>
 4    1  0.4495571E+000  0.1962625E+03  0.7546771E-02  0.1152931E+00
         21   -1    0    0  503  502  0.00000000000E+00  0.00000000000E+00  0.64061477088E+03  0.64061477088E+03  0.00000000000E+00 0. -1.
         21   -1    0    0  501  503 -0.00000000000E+00 -0.00000000000E+00 -0.61855349348E+02  0.61855349348E+02  0.00000000000E+00 0.  1.
          6    1    1    2  501    0 -0.21884361560E+02 -0.90061387764E+02  0.34807197860E+03  0.39959114246E+03  0.17300000000E+03 0.  1.
         -6    1    1    2    0  502  0.21884361560E+02  0.90061387764E+02  0.23068744294E+03  0.30287897777E+03  0.17300000000E+03 0.  1.
<mgrwt>
<rscale>  2 0.19626253E+03</rscale>
<asrwt>0</asrwt>
<pdfrwt beam="1">  1       21 0.98556114E-01 0.19626253E+03</pdfrwt>
<pdfrwt beam="2">  1       21 0.95162081E-02 0.19626253E+03</pdfrwt>
<totfact> 0.75125305E+04</totfact>
</mgrwt>
</event>
<event>
 4    1  0.4495571E+000  0.1889027E+03  0.7546771E-02  0.1159455E+00
         21   -1    0    0  503  502  0.00000000000E+00  0.00000000000E+00  0.69054153931E+03  0.69054153931E+03  0.00000000000E+00 0.  1.
         21   -1    0    0  501  503 -0.00000000000E+00 -0.00000000000E+00 -0.61302266204E+02  0.61302266204E+02  0.00000000000E+00 0.  1.
          6    1    1    2  501    0 -0.12232289611E+02 -0.74870633124E+02  0.16565118319E+03  0.25124600515E+03  0.17300000000E+03 0.  1.
         -6    1    1    2    0  502  0.12232289611E+02  0.74870633124E+02  0.46358808991E+03  0.50059780036E+03  0.17300000000E+03 0.  1.
<mgrwt>
<rscale>  2 0.18890273E+03</rscale>
<asrwt>0</asrwt>
<pdfrwt beam="1">  1       21 0.10623715E+00 0.18890273E+03</pdfrwt>
<pdfrwt beam="2">  1       21 0.94311183E-02 0.18890273E+03</pdfrwt>
<totfact> 0.64024081E+04</totfact>
</mgrwt>
</event>
<event>
 4    1  0.4495571E+000  0.1869116E+03  0.7546771E-02  0.1161277E+00
         21   -1    0    0  501  502  0.00000000000E+00  0.00000000000E+00  0.50663266212E+03  0.50663266212E+03  0.00000000000E+00 0. -1.
         21   -1    0    0  502  503 -0.00000000000E+00 -0.00000000000E+00 -0.70254628846E+02  0.70254628846E+02  0.00000000000E+00 0. -1.
          6    1    1    2  501    0 -0.10158045830E+02 -0.70026893268E+02  0.25738768093E+03  0.31809490717E+03  0.17300000000E+03 0. -1.
         -6    1    1    2    0  503  0.10158045830E+02  0.70026893268E+02  0.17899035235E+03  0.25879238379E+03  0.17300000000E+03 0. -1.
<mgrwt>
<rscale>  2 0.18691161E+03</rscale>
<asrwt>0</asrwt>
<pdfrwt beam="1">  1       21 0.77943484E-01 0.18691161E+03</pdfrwt>
<pdfrwt beam="2">  1       21 0.10808405E-01 0.18691161E+03</pdfrwt>
<totfact> 0.10335742E+05</totfact>
</mgrwt>
</event>
<event>
 4    1  0.4495571E+000  0.1867275E+03  0.7546771E-02  0.1161446E+00
         21   -1    0    0  501  502  0.00000000000E+00  0.00000000000E+00  0.19619122641E+02  0.19619122641E+02  0.00000000000E+00 0.  1.
         21   -1    0    0  502  503 -0.00000000000E+00 -0.00000000000E+00 -0.18351331105E+04  0.18351331105E+04  0.00000000000E+00 0. -1.
          6    1    1    2  501    0 -0.51229753927E+02  0.48100531598E+02 -0.10725266083E+04  0.10886599443E+04  0.17300000000E+03 0. -1.
         -6    1    1    2    0  503  0.51229753927E+02 -0.48100531598E+02 -0.74298737963E+03  0.76609228890E+03  0.17300000000E+03 0. -1.
<mgrwt>
<rscale>  2 0.18672747E+03</rscale>
<asrwt>0</asrwt>
<pdfrwt beam="1">  1       21 0.30183261E-02 0.18672747E+03</pdfrwt>
<pdfrwt beam="2">  1       21 0.28232822E+00 0.18672747E+03</pdfrwt>
<totfact> 0.27177064E+04</totfact>
</mgrwt>
</event>
<event>
 4    1  0.4495571E+000  0.2620960E+03  0.7546771E-02  0.1105890E+00
         21   -1    0    0  503  502  0.00000000000E+00  0.00000000000E+00  0.58411329124E+02  0.58411329124E+02  0.00000000000E+00 0. -1.
         21   -1    0    0  501  503 -0.00000000000E+00 -0.00000000000E+00 -0.12335587566E+04  0.12335587566E+04  0.00000000000E+00 0.  1.
          6    1    1    2  501    0 -0.17302702808E+03 -0.93951913768E+02 -0.72705977226E+03  0.77285847798E+03  0.17300000000E+03 0. -1.
         -6    1    1    2    0  502  0.17302702808E+03  0.93951913768E+02 -0.44808765526E+03  0.51911160779E+03  0.17300000000E+03 0.  1.
<mgrwt>
<rscale>  2 0.26209600E+03</rscale>
<asrwt>0</asrwt>
<pdfrwt beam="1">  1       21 0.89863585E-02 0.26209600E+03</pdfrwt>
<pdfrwt beam="2">  1       21 0.18977827E+00 0.26209600E+03</pdfrwt>
<totfact> 0.14617882E+04</totfact>
</mgrwt>
</event>
<event>
 4    1  0.4495571E+000  0.3165933E+03  0.7546771E-02  0.1077228E+00
         21   -1    0    0  501  502  0.00000000000E+00  0.00000000000E+00  0.17271266257E+04  0.17271266257E+04  0.00000000000E+00 0. -1.
         21   -1    0    0  502  503 -0.00000000000E+00 -0.00000000000E+00 -0.12082450174E+03  0.12082450174E+03  0.00000000000E+00 0.  1.
          6    1    1    2  501    0  0.22773184747E+03  0.13579587760E+03  0.14692388346E+04  0.15029617652E+04  0.17300000000E+03 0. -1.
         -6    1    1    2    0  503 -0.22773184747E+03 -0.13579587760E+03  0.13706328937E+03  0.34498936219E+03  0.17300000000E+03 0.  1.
<mgrwt>
<rscale>  2 0.31659330E+03</rscale>
<asrwt>0</asrwt>
<pdfrwt beam="1">  1       21 0.26571177E+00 0.31659330E+03</pdfrwt>
<pdfrwt beam="2">  1       21 0.18588386E-01 0.31659330E+03</pdfrwt>
<totfact> 0.12651318E+03</totfact>
</mgrwt>
</event>
<event>
 4    1  0.4495571E+000  0.2381392E+03  0.7546771E-02  0.1121039E+00
         21   -1    0    0  501  502  0.00000000000E+00  0.00000000000E+00  0.27969507605E+03  0.27969507605E+03  0.00000000000E+00 0. -1.
         21   -1    0    0  502  503 -0.00000000000E+00 -0.00000000000E+00 -0.24733478611E+03  0.24733478611E+03  0.00000000000E+00 0. -1.
          6    1    1    2  501    0 -0.75737983995E+02 -0.14506907097E+03  0.12805162508E+03  0.27038397929E+03  0.17300000000E+03 0. -1.
         -6    1    1    2    0  503  0.75737983995E+02  0.14506907097E+03 -0.95691335145E+02  0.25664588287E+03  0.17300000000E+03 0. -1.
<mgrwt>
<rscale>  2 0.23813920E+03</rscale>
<asrwt>0</asrwt>
<pdfrwt beam="1">  1       21 0.43030012E-01 0.23813920E+03</pdfrwt>
<pdfrwt beam="2">  1       21 0.38051506E-01 0.23813920E+03</pdfrwt>
<totfact> 0.33813853E+04</totfact>
</mgrwt>
</event>
<event>
 4    1  0.4495571E+000  0.1981691E+03  0.7546771E-02  0.1151293E+00
         21   -1    0    0  503  502  0.00000000000E+00  0.00000000000E+00  0.10863649810E+03  0.10863649810E+03  0.00000000000E+00 0.  1.
         21   -1    0    0  501  503 -0.00000000000E+00 -0.00000000000E+00 -0.41357531401E+03  0.41357531401E+03  0.00000000000E+00 0.  1.
          6    1    1    2  501    0 -0.15702910494E+02 -0.95369832776E+02 -0.24513059340E+03  0.31521420371E+03  0.17300000000E+03 0.  1.
         -6    1    1    2    0  502  0.15702910494E+02  0.95369832776E+02 -0.59808222513E+02  0.20699760840E+03  0.17300000000E+03 0.  1.
<mgrwt>
<rscale>  2 0.19816909E+03</rscale>
<asrwt>0</asrwt>
<pdfrwt beam="1">  1       21 0.16713308E-01 0.19816909E+03</pdfrwt>
<pdfrwt beam="2">  1       21 0.63626971E-01 0.19816909E+03</pdfrwt>
<totfact> 0.73303558E+04</totfact>
</mgrwt>
</event>
<event>
 4    1  0.4495571E+000  0.1970614E+03  0.7546771E-02  0.1152242E+00
         21   -1    0    0  501  502  0.00000000000E+00  0.00000000000E+00  0.21432380875E+03  0.21432380875E+03  0.00000000000E+00 0. -1.
         21   -1    0    0  502  503 -0.00000000000E+00 -0.00000000000E+00 -0.27046882158E+03  0.27046882158E+03  0.00000000000E+00 0. -1.
          6    1    1    2  501    0  0.15159908985E+02  0.93136340806E+02  0.11119285483E+03  0.22626765519E+03  0.17300000000E+03 0. -1.
         -6    1    1    2    0  503 -0.15159908985E+02 -0.93136340806E+02 -0.16733786766E+03  0.25852497514E+03  0.17300000000E+03 0. -1.
<mgrwt>
<rscale>  2 0.19706141E+03</rscale>
<asrwt>0</asrwt>
<pdfrwt beam="1">  1       21 0.32972894E-01 0.19706141E+03</pdfrwt>
<pdfrwt beam="2">  1       21 0.41610588E-01 0.19706141E+03</pdfrwt>
<totfact> 0.49132826E+04</totfact>
</mgrwt>
</event>
<event>
 4    1  0.4495571E+000  0.2201179E+03  0.7546771E-02  0.1133795E+00
         21   -1    0    0  503  502  0.00000000000E+00  0.00000000000E+00  0.85052148403E+03  0.85052148403E+03  0.00000000000E+00 0. -1.
         21   -1    0    0  501  503 -0.00000000000E+00 -0.00000000000E+00 -0.13627128124E+03  0.13627128124E+03  0.00000000000E+00 0. -1.
          6    1    1    2  501    0  0.11763163445E+03 -0.68451929567E+02 -0.19267804854E+02  0.22095953564E+03  0.17300000000E+03 0. -1.
         -6    1    1    2    0  502 -0.11763163445E+03  0.68451929567E+02  0.73351800764E+03  0.76583322964E+03  0.17300000000E+03 0. -1.
<mgrwt>
<rscale>  2 0.22011785E+03</rscale>
<asrwt>0</asrwt>
<pdfrwt beam="1">  1       21 0.13084946E+00 0.22011785E+03</pdfrwt>
<pdfrwt beam="2">  1       21 0.20964813E-01 0.22011785E+03</pdfrwt>
<totfact> 0.88097329E+03</totfact>
</mgrwt>
</event>
<event>
 4    1  0.4495571E+000  0.2108225E+03  0.7546771E-02  0.1140916E+00
         21   -1    0    0  501  502  0.00000000000E+00  0.00000000000E+00  0.11656867069E+04  0.11656867069E+04  0.00000000000E+00 0.  1.
         21   -1    0    0  502  503 -0.00000000000E+00 -0.00000000000E+00 -0.59574688639E+02  0.59574688639E+02  0.00000000000E+00 0.  1.
          6    1    1    2  501    0  0.10118089243E+03  0.65418372149E+02  0.92062659152E+03  0.94445722900E+03  0.17300000000E+03 0.  1.
         -6    1    1    2    0  503 -0.10118089243E+03 -0.65418372149E+02  0.18548542673E+03  0.28080416652E+03  0.17300000000E+03 0.  1.
<mgrwt>
<rscale>  2 0.21082252E+03</rscale>
<asrwt>0</asrwt>
<pdfrwt beam="1">  1       21 0.17933640E+00 0.21082252E+03</pdfrwt>
<pdfrwt beam="2">  1       21 0.91653375E-02 0.21082252E+03</pdfrwt>
<totfact> 0.17167333E+04</totfact>
</mgrwt>
</event>
<event>
 4    1  0.4495571E+000  0.3217466E+03  0.7546771E-02  0.1074848E+00
         21   -1    0    0  503  502  0.00000000000E+00  0.00000000000E+00  0.10496939868E+03  0.10496939868E+03  0.00000000000E+00 0. -1.
         21   -1    0    0  501  503 -0.00000000000E+00 -0.00000000000E+00 -0.10565694182E+04  0.10565694182E+04  0.00000000000E+00 0. -1.
          6    1    1    2  501    0  0.21096376462E+03 -0.17054668747E+03 -0.62568042351E+03  0.70356014310E+03  0.17300000000E+03 0. -1.
         -6    1    1    2    0  502 -0.21096376462E+03  0.17054668747E+03 -0.32591959601E+03  0.45797867380E+03  0.17300000000E+03 0. -1.
<mgrwt>
<rscale>  2 0.32174661E+03</rscale>
<asrwt>0</asrwt>
<pdfrwt beam="1">  1       21 0.16149139E-01 0.32174661E+03</pdfrwt>
<pdfrwt beam="2">  1       21 0.16254914E+00 0.32174661E+03</pdfrwt>
<totfact> 0.76204320E+03</totfact>
</mgrwt>
</event>
<event>
 4    1  0.4495571E+000  0.1755304E+03  0.7546771E-02  0.1172200E+00
         21   -1    0    0  501  502  0.00000000000E+00  0.00000000000E+00  0.23112111733E+03  0.23112111733E+03  0.00000000000E+00 0. -1.
         21   -1    0    0  502  503 -0.00000000000E+00 -0.00000000000E+00 -0.13591774032E+03  0.13591774032E+03  0.00000000000E+00 0. -1.
          6    1    1    2  501    0  0.24135481520E+02  0.17303263163E+02  0.73018175666E+02  0.19011201530E+03  0.17300000000E+03 0. -1.
         -6    1    1    2    0  503 -0.24135481520E+02 -0.17303263163E+02  0.22185201339E+02  0.17692684235E+03  0.17300000000E+03 0. -1.
<mgrwt>
<rscale>  2 0.17553041E+03</rscale>
<asrwt>0</asrwt>
<pdfrwt beam="1">  1       21 0.35557095E-01 0.17553041E+03</pdfrwt>
<pdfrwt beam="2">  1       21 0.20910422E-01 0.17553041E+03</pdfrwt>
<totfact> 0.16283516E+05</totfact>
</mgrwt>
</event>
<event>
 4    1  0.4495571E+000  0.1860080E+03  0.7546771E-02  0.1162112E+00
         21   -1    0    0  501  502  0.00000000000E+00  0.00000000000E+00  0.52907355691E+02  0.52907355691E+02  0.00000000000E+00 0. -1.
         21   -1    0    0  502  503 -0.00000000000E+00 -0.00000000000E+00 -0.81498936427E+03  0.81498936427E+03  0.00000000000E+00 0. -1.
          6    1    1    2  501    0  0.99128281191E+01  0.67614354869E+02 -0.18814509845E+03  0.26457048818E+03  0.17300000000E+03 0. -1.
         -6    1    1    2    0  503 -0.99128281191E+01 -0.67614354869E+02 -0.57393691013E+03  0.60332623178E+03  0.17300000000E+03 0. -1.
<mgrwt>
<rscale>  2 0.18600797E+03</rscale>
<asrwt>0</asrwt>
<pdfrwt beam="1">  1       21 0.81395927E-02 0.18600797E+03</pdfrwt>
<pdfrwt beam="2">  1       21 0.12538299E+00 0.18600797E+03</pdfrwt>
<totfact> 0.55308438E+04</totfact>
</mgrwt>
</event>
<event>
 4    1  0.4495571E+000  0.2527183E+03  0.7546771E-02  0.1111599E+00
         21   -1    0    0  501  502  0.00000000000E+00  0.00000000000E+00  0.58680580615E+03  0.58680580615E+03  0.00000000000E+00 0. -1.
         21   -1    0    0  502  503 -0.00000000000E+00 -0.00000000000E+00 -0.34206502530E+03  0.34206502530E+03  0.00000000000E+00 0. -1.
          6    1    1    2  501    0 -0.11779271260E+03  0.14164180412E+03  0.50586637543E+03  0.56547971989E+03  0.17300000000E+03 0. -1.
         -6    1    1    2    0  503  0.11779271260E+03 -0.14164180412E+03 -0.26112559458E+03  0.36339111156E+03  0.17300000000E+03 0. -1.
<mgrwt>
<rscale>  2 0.25271827E+03</rscale>
<asrwt>0</asrwt>
<pdfrwt beam="1">  1       21 0.90277816E-01 0.25271827E+03</pdfrwt>
<pdfrwt beam="2">  1       21 0.52625388E-01 0.25271827E+03</pdfrwt>
<totfact> 0.34143982E+03</totfact>
</mgrwt>
</event>
<event>
 4    1  0.4495571E+000  0.2627118E+03  0.7546771E-02  0.1105525E+00
         21   -1    0    0  503  502  0.00000000000E+00  0.00000000000E+00  0.35117275353E+03  0.35117275353E+03  0.00000000000E+00 0. -1.
         21   -1    0    0  501  503 -0.00000000000E+00 -0.00000000000E+00 -0.34202327356E+03  0.34202327356E+03  0.00000000000E+00 0.  1.
          6    1    1    2  501    0 -0.11144788978E+03 -0.16330303724E+03 -0.22147977344E+03  0.34361432472E+03  0.17300000000E+03 0.  1.
         -6    1    1    2    0  502  0.11144788978E+03  0.16330303724E+03  0.23062925341E+03  0.34958170238E+03  0.17300000000E+03 0. -1.
<mgrwt>
<rscale>  2 0.26271185E+03</rscale>
<asrwt>0</asrwt>
<pdfrwt beam="1">  1       21 0.54026578E-01 0.26271185E+03</pdfrwt>
<pdfrwt beam="2">  1       21 0.52618965E-01 0.26271185E+03</pdfrwt>
<totfact> 0.10635693E+04</totfact>
</mgrwt>
</event>
<event>
 4    1  0.4495571E+000  0.1907677E+03  0.7546771E-02  0.1157771E+00
         21   -1    0    0  501  502  0.00000000000E+00  0.00000000000E+00  0.35164281145E+02  0.35164281145E+02  0.00000000000E+00 0. -1.
         21   -1    0    0  502  503 -0.00000000000E+00 -0.00000000000E+00 -0.11200877220E+04  0.11200877220E+04  0.00000000000E+00 0. -1.
          6    1    1    2  501    0  0.46999073399E+02 -0.65225669917E+02 -0.38318503540E+03  0.42804564275E+03  0.17300000000E+03 0. -1.
         -6    1    1    2    0  503 -0.46999073399E+02  0.65225669917E+02 -0.70173840542E+03  0.72720636036E+03  0.17300000000E+03 0. -1.
<mgrwt>
<rscale>  2 0.19076766E+03</rscale>
<asrwt>0</asrwt>
<pdfrwt beam="1">  1       21 0.54098897E-02 0.19076766E+03</pdfrwt>
<pdfrwt beam="2">  1       21 0.17232118E+00 0.19076766E+03</pdfrwt>
<totfact> 0.48418688E+04</totfact>
</mgrwt>
</event>
<event>
 4    1  0.4495571E+000  0.2059509E+03  0.7546771E-02  0.1144813E+00
         21   -1    0    0  503  502  0.00000000000E+00  0.00000000000E+00  0.72322182274E+03  0.72322182274E+03  0.00000000000E+00 0. -1.
         21   -1    0    0  501  503 -0.00000000000E+00 -0.00000000000E+00 -0.12050779482E+03  0.12050779482E+03  0.00000000000E+00 0.  1.
          6    1    1    2  501    0  0.73856918690E+02  0.83856707030E+02 -0.89459122606E+00  0.20595288793E+03  0.17300000000E+03 0.  1.
         -6    1    1    2    0  502 -0.73856918690E+02 -0.83856707030E+02  0.60360861914E+03  0.63777672963E+03  0.17300000000E+03 0. -1.
<mgrwt>
<rscale>  2 0.20595095E+03</rscale>
<asrwt>0</asrwt>
<pdfrwt beam="1">  1       21 0.11126489E+00 0.20595095E+03</pdfrwt>
<pdfrwt beam="2">  1       21 0.18539661E-01 0.20595095E+03</pdfrwt>
<totfact> 0.16741204E+04</totfact>
</mgrwt>
</event>
<event>
 4    1  0.4495571E+000  0.2097221E+03  0.7546771E-02  0.1141786E+00
         21   -1    0    0  503  502  0.00000000000E+00  0.00000000000E+00  0.54555344300E+03  0.54555344300E+03  0.00000000000E+00 0. -1.
         21   -1    0    0  501  503 -0.00000000000E+00 -0.00000000000E+00 -0.80830255909E+02  0.80830255909E+02  0.00000000000E+00 0. -1.
          6    1    1    2  501    0 -0.36923189050E+02  0.11265449515E+03  0.24827650502E+03  0.32499935402E+03  0.17300000000E+03 0. -1.
         -6    1    1    2    0  502  0.36923189050E+02 -0.11265449515E+03  0.21644668207E+03  0.30138434489E+03  0.17300000000E+03 0. -1.
<mgrwt>
<rscale>  2 0.20972210E+03</rscale>
<asrwt>0</asrwt>
<pdfrwt beam="1">  1       21 0.83931297E-01 0.20972210E+03</pdfrwt>
<pdfrwt beam="2">  1       21 0.12435424E-01 0.20972210E+03</pdfrwt>
<totfact> 0.67367269E+04</totfact>
</mgrwt>
</event>
<event>
 4    1  0.4495571E+000  0.2119999E+03  0.7546771E-02  0.1139992E+00
         21   -1    0    0  501  502  0.00000000000E+00  0.00000000000E+00  0.59821038388E+03  0.59821038388E+03  0.00000000000E+00 0. -1.
         21   -1    0    0  502  503 -0.00000000000E+00 -0.00000000000E+00 -0.77684121477E+02  0.77684121477E+02  0.00000000000E+00 0.  1.
          6    1    1    2  501    0  0.12253544967E+03  0.15198911255E+00  0.19899356484E+03  0.29076175535E+03  0.17300000000E+03 0.  1.
         -6    1    1    2    0  503 -0.12253544967E+03 -0.15198911255E+00  0.32153269756E+03  0.38513275001E+03  0.17300000000E+03 0. -1.
<mgrwt>
<rscale>  2 0.21199990E+03</rscale>
<asrwt>0</asrwt>
<pdfrwt beam="1">  1       21 0.92032363E-01 0.21199990E+03</pdfrwt>
<pdfrwt beam="2">  1       21 0.11951404E-01 0.21199990E+03</pdfrwt>
<totfact> 0.58416298E+04</totfact>
</mgrwt>
</event>
<event>
 4    1  0.4495571E+000  0.1865882E+03  0.7546771E-02  0.1161575E+00
         21   -1    0    0  501  502  0.00000000000E+00  0.00000000000E+00  0.77435732935E+03  0.77435732935E+03  0.00000000000E+00 0. -1.
         21   -1    0    0  502  503 -0.00000000000E+00 -0.00000000000E+00 -0.93854968412E+02  0.93854968412E+02  0.00000000000E+00 0. -1.
          6    1    1    2  501    0  0.45724190774E+02 -0.52872169511E+02  0.65357905348E+03  0.67969165588E+03  0.17300000000E+03 0. -1.
         -6    1    1    2    0  503 -0.45724190774E+02  0.52872169511E+02  0.26923307463E+02  0.18852064188E+03  0.17300000000E+03 0. -1.
<mgrwt>
<rscale>  2 0.18658823E+03</rscale>
<asrwt>0</asrwt>
<pdfrwt beam="1">  1       21 0.11913189E+00 0.18658823E+03</pdfrwt>
<pdfrwt beam="2">  1       21 0.14439226E-01 0.18658823E+03</pdfrwt>
<totfact> 0.22690054E+04</totfact>
</mgrwt>
</event>
<event>
 4    1  0.4495571E+000  0.3445350E+03  0.7546771E-02  0.1064881E+00
         21   -1    0    0  503  502  0.00000000000E+00  0.00000000000E+00  0.18894826613E+04  0.18894826613E+04  0.00000000000E+00 0. -1.
         21   -1    0    0  501  503 -0.00000000000E+00 -0.00000000000E+00 -0.12975640624E+03  0.12975640624E+03  0.00000000000E+00 0. -1.
          6    1    1    2  501    0  0.29068547699E+03  0.65401043699E+02  0.15473885170E+03  0.37768830439E+03  0.17300000000E+03 0. -1.
         -6    1    1    2    0  502 -0.29068547699E+03 -0.65401043699E+02  0.16049874034E+04  0.16415507632E+04  0.17300000000E+03 0. -1.
<mgrwt>
<rscale>  2 0.34453497E+03</rscale>
<asrwt>0</asrwt>
<pdfrwt beam="1">  1       21 0.29068962E+00 0.34453497E+03</pdfrwt>
<pdfrwt beam="2">  1       21 0.19962525E-01 0.34453497E+03</pdfrwt>
<totfact> 0.76957221E+02</totfact>
</mgrwt>
</event>
<event>
 4    1  0.4495571E+000  0.1795317E+03  0.7546771E-02  0.1168257E+00
         21   -1    0    0  503  502  0.00000000000E+00  0.00000000000E+00  0.12397171064E+04  0.12397171064E+04  0.00000000000E+00 0.  1.
         21   -1    0    0  501  503 -0.00000000000E+00 -0.00000000000E+00 -0.70053755001E+02  0.70053755001E+02  0.00000000000E+00 0.  1.
          6    1    1    2  501    0  0.34108786431E+02 -0.33752220602E+02  0.65499592813E+02  0.19110682449E+03  0.17300000000E+03 0.  1.
         -6    1    1    2    0  502 -0.34108786431E+02  0.33752220602E+02  0.11041637586E+04  0.11186640369E+04  0.17300000000E+03 0.  1.
<mgrwt>
<rscale>  2 0.17953167E+03</rscale>
<asrwt>0</asrwt>
<pdfrwt beam="1">  1       21 0.19072569E+00 0.17953167E+03</pdfrwt>
<pdfrwt beam="2">  1       21 0.10777502E-01 0.17953167E+03</pdfrwt>
<totfact> 0.11082946E+04</totfact>
</mgrwt>
</event>
<event>
 4    1  0.4495571E+000  0.2394965E+03  0.7546771E-02  0.1120129E+00
         21   -1    0    0  501  502  0.00000000000E+00  0.00000000000E+00  0.12878828340E+03  0.12878828340E+03  0.00000000000E+00 0.  1.
         21   -1    0    0  502  503 -0.00000000000E+00 -0.00000000000E+00 -0.66469498106E+03  0.66469498106E+03  0.00000000000E+00 0. -1.
          6    1    1    2  501    0  0.19204262576E+02  0.16450161365E+03 -0.40055882160E+02  0.24282310081E+03  0.17300000000E+03 0.  1.
         -6    1    1    2    0  503 -0.19204262576E+02 -0.16450161365E+03 -0.49585081550E+03  0.55066016364E+03  0.17300000000E+03 0. -1.
<mgrwt>
<rscale>  2 0.23949652E+03</rscale>
<asrwt>0</asrwt>
<pdfrwt beam="1">  1       21 0.19813583E-01 0.23949652E+03</pdfrwt>
<pdfrwt beam="2">  1       21 0.10226076E+00 0.23949652E+03</pdfrwt>
<totfact> 0.17784119E+04</totfact>
</mgrwt>
</event>
<event>
 4    1  0.4495571E+000  0.2046392E+03  0.7546771E-02  0.1145883E+00
         21   -1    0    0  503  502  0.00000000000E+00  0.00000000000E+00  0.59133931014E+02  0.59133931014E+02  0.00000000000E+00 0.  1.
         21   -1    0    0  501  503 -0.00000000000E+00 -0.00000000000E+00 -0.86514608636E+03  0.86514608636E+03  0.00000000000E+00 0.  1.
          6    1    1    2  501    0  0.10923681201E+03 -0.39377939116E+01 -0.20615476799E+03  0.29047715174E+03  0.17300000000E+03 0.  1.
         -6    1    1    2    0  502 -0.10923681201E+03  0.39377939116E+01 -0.59985738735E+03  0.63380286563E+03  0.17300000000E+03 0.  1.
<mgrwt>
<rscale>  2 0.20463916E+03</rscale>
<asrwt>0</asrwt>
<pdfrwt beam="1">  1       21 0.90975285E-02 0.20463916E+03</pdfrwt>
<pdfrwt beam="2">  1       21 0.13309939E+00 0.20463916E+03</pdfrwt>
<totfact> 0.38767375E+04</totfact>
</mgrwt>
</event>
<event>
 4    1  0.4495571E+000  0.2063873E+03  0.7546771E-02  0.1144459E+00
         21   -1    0    0  501  502  0.00000000000E+00  0.00000000000E+00  0.45974411396E+03  0.45974411396E+03  0.00000000000E+00 0. -1.
         21   -1    0    0  502  503 -0.00000000000E+00 -0.00000000000E+00 -0.14205942027E+03  0.14205942027E+03  0.00000000000E+00 0. -1.
          6    1    1    2  501    0  0.71636156548E+02  0.86804258762E+02  0.33629828027E+03  0.39457857466E+03  0.17300000000E+03 0. -1.
         -6    1    1    2    0  503 -0.71636156548E+02 -0.86804258762E+02 -0.18613586577E+02  0.20722495957E+03  0.17300000000E+03 0. -1.
<mgrwt>
<rscale>  2 0.20638730E+03</rscale>
<asrwt>0</asrwt>
<pdfrwt beam="1">  1       21 0.70729863E-01 0.20638730E+03</pdfrwt>
<pdfrwt beam="2">  1       21 0.21855296E-01 0.20638730E+03</pdfrwt>
<totfact> 0.35135670E+04</totfact>
</mgrwt>
</event>
<event>
 4    1  0.4495571E+000  0.1732138E+03  0.7546771E-02  0.1174537E+00
         21   -1    0    0  503  502  0.00000000000E+00  0.00000000000E+00  0.23956561000E+04  0.23956561000E+04  0.00000000000E+00 0. -1.
         21   -1    0    0  501  503 -0.00000000000E+00 -0.00000000000E+00 -0.52782149577E+02  0.52782149577E+02  0.00000000000E+00 0. -1.
          6    1    1    2  501    0 -0.19477687037E+01  0.83810704311E+01  0.10227651328E+03  0.20115546553E+03  0.17300000000E+03 0. -1.
         -6    1    1    2    0  502  0.19477687037E+01 -0.83810704311E+01  0.22405974372E+04  0.22472827841E+04  0.17300000000E+03 0. -1.
<mgrwt>
<rscale>  2 0.17321385E+03</rscale>
<asrwt>0</asrwt>
<pdfrwt beam="1">  1       21 0.36856239E+00 0.17321385E+03</pdfrwt>
<pdfrwt beam="2">  1       21 0.81203326E-02 0.17321385E+03</pdfrwt>
<totfact> 0.16330077E+03</totfact>
</mgrwt>
</event>
<event>
 4    1  0.4495571E+000  0.1905904E+03  0.7546771E-02  0.1157930E+00
         21   -1    0    0  501  502  0.00000000000E+00  0.00000000000E+00  0.12648320670E+03  0.12648320670E+03  0.00000000000E+00 0. -1.
         21   -1    0    0  502  503 -0.00000000000E+00 -0.00000000000E+00 -0.33676468028E+03  0.33676468028E+03  0.00000000000E+00 0. -1.
          6    1    1    2  501    0 -0.62153775763E+02  0.50324948884E+02 -0.16271626934E+02  0.19128371119E+03  0.17300000000E+03 0. -1.
         -6    1    1    2    0  503  0.62153775763E+02 -0.50324948884E+02 -0.19400984664E+03  0.27196417579E+03  0.17300000000E+03 0. -1.
<mgrwt>
<rscale>  2 0.19059038E+03</rscale>
<asrwt>0</asrwt>
<pdfrwt beam="1">  1       21 0.19458955E-01 0.19059038E+03</pdfrwt>
<pdfrwt beam="2">  1       21 0.51809951E-01 0.19059038E+03</pdfrwt>
<totfact> 0.86014265E+04</totfact>
</mgrwt>
</event>
<event>
 4    1  0.4495571E+000  0.1971125E+03  0.7546771E-02  0.1152198E+00
         21   -1    0    0  501  502  0.00000000000E+00  0.00000000000E+00  0.12817226033E+03  0.12817226033E+03  0.00000000000E+00 0.  1.
         21   -1    0    0  502  503 -0.00000000000E+00 -0.00000000000E+00 -0.43706972646E+03  0.43706972646E+03  0.00000000000E+00 0.  1.
          6    1    1    2  501    0  0.82212718608E+02  0.46533764402E+02  0.20020988369E+01  0.19712262866E+03  0.17300000000E+03 0.  1.
         -6    1    1    2    0  503 -0.82212718608E+02 -0.46533764402E+02 -0.31089956497E+03  0.36811935813E+03  0.17300000000E+03 0.  1.
<mgrwt>
<rscale>  2 0.19711246E+03</rscale>
<asrwt>0</asrwt>
<pdfrwt beam="1">  1       21 0.19718809E-01 0.19711246E+03</pdfrwt>
<pdfrwt beam="2">  1       21 0.67241496E-01 0.19711246E+03</pdfrwt>
<totfact> 0.47866155E+04</totfact>
</mgrwt>
</event>
<event>
 4    1  0.4495571E+000  0.4034209E+03  0.7546771E-02  0.1042602E+00
         21   -1    0    0  503  502  0.00000000000E+00  0.00000000000E+00  0.94495958342E+03  0.94495958342E+03  0.00000000000E+00 0.  1.
         21   -1    0    0  501  503 -0.00000000000E+00 -0.00000000000E+00 -0.32063562306E+03  0.32063562306E+03  0.00000000000E+00 0. -1.
          6    1    1    2  501    0 -0.24912093177E+03 -0.26600406831E+03 -0.11835193499E+03  0.42042310061E+03  0.17300000000E+03 0. -1.
         -6    1    1    2    0  502  0.24912093177E+03  0.26600406831E+03  0.74267589535E+03  0.84517210587E+03  0.17300000000E+03 0.  1.
<mgrwt>
<rscale>  2 0.40342088E+03</rscale>
<asrwt>0</asrwt>
<pdfrwt beam="1">  1       21 0.14537840E+00 0.40342088E+03</pdfrwt>
<pdfrwt beam="2">  1       21 0.49328558E-01 0.40342088E+03</pdfrwt>
<totfact> 0.10992550E+03</totfact>
</mgrwt>
</event>
<event>
 4    1  0.4495571E+000  0.3046794E+03  0.7546771E-02  0.1082925E+00
         21   -1    0    0  503  502  0.00000000000E+00  0.00000000000E+00  0.13987825424E+03  0.13987825424E+03  0.00000000000E+00 0.  1.
         21   -1    0    0  501  503 -0.00000000000E+00 -0.00000000000E+00 -0.21061770494E+04  0.21061770494E+04  0.00000000000E+00 0. -1.
          6    1    1    2  501    0 -0.12163501836E+03 -0.21932954700E+03 -0.19125559320E+04  0.19366723318E+04  0.17300000000E+03 0. -1.
         -6    1    1    2    0  502  0.12163501836E+03  0.21932954700E+03 -0.53742863126E+02  0.30938297176E+03  0.17300000000E+03 0.  1.
<mgrwt>
<rscale>  2 0.30467939E+03</rscale>
<asrwt>0</asrwt>
<pdfrwt beam="1">  1       21 0.21519731E-01 0.30467939E+03</pdfrwt>
<pdfrwt beam="2">  1       21 0.32402724E+00 0.30467939E+03</pdfrwt>
<totfact> 0.43759146E+02</totfact>
</mgrwt>
</event>
<event>
 4    1  0.4495571E+000  0.1825275E+03  0.7546771E-02  0.1165379E+00
         21   -1    0    0  503  502  0.00000000000E+00  0.00000000000E+00  0.47835704279E+03  0.47835704279E+03  0.00000000000E+00 0.  1.
         21   -1    0    0  501  503 -0.00000000000E+00 -0.00000000000E+00 -0.12338586475E+03  0.12338586475E+03  0.00000000000E+00 0. -1.
          6    1    1    2  501    0 -0.52342981348E+02 -0.25445908792E+02 -0.21074182747E+02  0.18374004231E+03  0.17300000000E+03 0. -1.
         -6    1    1    2    0  502  0.52342981348E+02  0.25445908792E+02  0.37604536078E+03  0.41800286523E+03  0.17300000000E+03 0.  1.
<mgrwt>
<rscale>  2 0.18252748E+03</rscale>
<asrwt>0</asrwt>
<pdfrwt beam="1">  1       21 0.73593390E-01 0.18252748E+03</pdfrwt>
<pdfrwt beam="2">  1       21 0.18982441E-01 0.18252748E+03</pdfrwt>
<totfact> 0.42408446E+04</totfact>
</mgrwt>
</event>
<event>
 4    1  0.4495571E+000  0.2157675E+03  0.7546771E-02  0.1137078E+00
         21   -1    0    0  501  502  0.00000000000E+00  0.00000000000E+00  0.36981184082E+03  0.36981184082E+03  0.00000000000E+00 0.  1.
         21   -1    0    0  502  503 -0.00000000000E+00 -0.00000000000E+00 -0.31582467043E+03  0.31582467043E+03  0.00000000000E+00 0.  1.
          6    1    1    2  501    0 -0.12562507623E+03  0.29068291580E+02  0.29284746300E+03  0.36375164871E+03  0.17300000000E+03 0.  1.
         -6    1    1    2    0  503  0.12562507623E+03 -0.29068291580E+02 -0.23886029260E+03  0.32188486254E+03  0.17300000000E+03 0.  1.
<mgrwt>
<rscale>  2 0.21576753E+03</rscale>
<asrwt>0</asrwt>
<pdfrwt beam="1">  1       21 0.56894129E-01 0.21576753E+03</pdfrwt>
<pdfrwt beam="2">  1       21 0.48588411E-01 0.21576753E+03</pdfrwt>
<totfact> 0.11564599E+04</totfact>
</mgrwt>
</event>
<event>
 4    1  0.4495571E+000  0.2187282E+03  0.7546771E-02  0.1134835E+00
         21   -1    0    0  503  502  0.00000000000E+00  0.00000000000E+00  0.12697481843E+03  0.12697481843E+03  0.00000000000E+00 0. -1.
         21   -1    0    0  501  503 -0.00000000000E+00 -0.00000000000E+00 -0.47269056134E+03  0.47269056134E+03  0.00000000000E+00 0. -1.
          6    1    1    2  501    0 -0.92467306868E+02  0.96761704802E+02 -0.30791439322E+03  0.37769472316E+03  0.17300000000E+03 0. -1.
         -6    1    1    2    0  502  0.92467306868E+02 -0.96761704802E+02 -0.37801349684E+02  0.22197065661E+03  0.17300000000E+03 0. -1.
<mgrwt>
<rscale>  2 0.21872821E+03</rscale>
<asrwt>0</asrwt>
<pdfrwt beam="1">  1       21 0.19534588E-01 0.21872821E+03</pdfrwt>
<pdfrwt beam="2">  1       21 0.72721624E-01 0.21872821E+03</pdfrwt>
<totfact> 0.40535470E+04</totfact>
</mgrwt>
</event>
<event>
 4    1  0.4495571E+000  0.2013397E+03  0.7546771E-02  0.1148614E+00
         21   -1    0    0  501  502  0.00000000000E+00  0.00000000000E+00  0.16052717769E+03  0.16052717769E+03  0.00000000000E+00 0.  1.
         21   -1    0    0  502  503 -0.00000000000E+00 -0.00000000000E+00 -0.25320327111E+03  0.25320327111E+03  0.00000000000E+00 0.  1.
          6    1    1    2  501    0  0.63273599640E+02 -0.81271870923E+02 -0.57018141929E+02  0.20925757794E+03  0.17300000000E+03 0.  1.
         -6    1    1    2    0  503 -0.63273599640E+02  0.81271870923E+02 -0.35657951493E+02  0.20447287086E+03  0.17300000000E+03 0.  1.
<mgrwt>
<rscale>  2 0.20133968E+03</rscale>
<asrwt>0</asrwt>
<pdfrwt beam="1">  1       21 0.24696489E-01 0.20133968E+03</pdfrwt>
<pdfrwt beam="2">  1       21 0.38954349E-01 0.20133968E+03</pdfrwt>
<totfact> 0.98165380E+04</totfact>
</mgrwt>
</event>
<event>
 4    1  0.4495571E+000  0.1970935E+03  0.7546771E-02  0.1152215E+00
         21   -1    0    0  503  502  0.00000000000E+00  0.00000000000E+00  0.53978605232E+03  0.53978605232E+03  0.00000000000E+00 0. -1.
         21   -1    0    0  501  503 -0.00000000000E+00 -0.00000000000E+00 -0.76571536472E+02  0.76571536472E+02  0.00000000000E+00 0. -1.
          6    1    1    2  501    0  0.14563356638E+02  0.93299350417E+02  0.30719347781E+03  0.36498451057E+03  0.17300000000E+03 0. -1.
         -6    1    1    2    0  502 -0.14563356638E+02 -0.93299350417E+02  0.15602103803E+03  0.25137307822E+03  0.17300000000E+03 0. -1.
<mgrwt>
<rscale>  2 0.19709353E+03</rscale>
<asrwt>0</asrwt>
<pdfrwt beam="1">  1       21 0.83044006E-01 0.19709353E+03</pdfrwt>
<pdfrwt beam="2">  1       21 0.11780237E-01 0.19709353E+03</pdfrwt>
<totfact> 0.76492428E+04</totfact>
</mgrwt>
</event>
<event>
 4    1  0.4495571E+000  0.2026690E+03  0.7546771E-02  0.1147507E+00
         21   -1    0    0  501  502  0.00000000000E+00  0.00000000000E+00  0.76785768155E+02  0.76785768155E+02  0.00000000000E+00 0. -1.
         21   -1    0    0  502  503 -0.00000000000E+00 -0.00000000000E+00 -0.53739808855E+03  0.53739808855E+03  0.00000000000E+00 0.  1.
          6    1    1    2  501    0 -0.58182429940E+02  0.88093894595E+02 -0.25113298500E+03  0.32271117981E+03  0.17300000000E+03 0. -1.
         -6    1    1    2    0  503  0.58182429940E+02 -0.88093894595E+02 -0.20947933539E+03  0.29147267689E+03  0.17300000000E+03 0.  1.
<mgrwt>
<rscale>  2 0.20266901E+03</rscale>
<asrwt>0</asrwt>
<pdfrwt beam="1">  1       21 0.11813195E-01 0.20266901E+03</pdfrwt>
<pdfrwt beam="2">  1       21 0.82676631E-01 0.20266901E+03</pdfrwt>
<totfact> 0.76688937E+04</totfact>
</mgrwt>
</event>
<event>
 4    1  0.4495571E+000  0.1846633E+03  0.7546771E-02  0.1163365E+00
         21   -1    0    0  503  502  0.00000000000E+00  0.00000000000E+00  0.67672261406E+02  0.67672261406E+02  0.00000000000E+00 0.  1.
         21   -1    0    0  501  503 -0.00000000000E+00 -0.00000000000E+00 -0.69992525196E+03  0.69992525196E+03  0.00000000000E+00 0.  1.
          6    1    1    2  501    0  0.64445284655E+02  0.42807265430E+01 -0.51923406104E+03  0.55109393889E+03  0.17300000000E+03 0.  1.
         -6    1    1    2    0  502 -0.64445284655E+02 -0.42807265430E+01 -0.11301892951E+03  0.21650357448E+03  0.17300000000E+03 0.  1.
<mgrwt>
<rscale>  2 0.18466326E+03</rscale>
<asrwt>0</asrwt>
<pdfrwt beam="1">  1       21 0.10411118E-01 0.18466326E+03</pdfrwt>
<pdfrwt beam="2">  1       21 0.10768080E+00 0.18466326E+03</pdfrwt>
<totfact> 0.52164877E+04</totfact>
</mgrwt>
</event>
<event>
 4    1  0.4495571E+000  0.1945794E+03  0.7546771E-02  0.1154395E+00
         21   -1    0    0  503  502  0.00000000000E+00  0.00000000000E+00  0.56986937318E+02  0.56986937318E+02  0.00000000000E+00 0.  1.
         21   -1    0    0  501  503 -0.00000000000E+00 -0.00000000000E+00 -0.10295442717E+04  0.10295442717E+04  0.00000000000E+00 0.  1.
          6    1    1    2  501    0 -0.88584777437E+02 -0.92123028847E+01 -0.80982187898E+03  0.83287010091E+03  0.17300000000E+03 0.  1.
         -6    1    1    2    0  502  0.88584777437E+02  0.92123028847E+01 -0.16273545539E+03  0.25366110809E+03  0.17300000000E+03 0.  1.
<mgrwt>
<rscale>  2 0.19457937E+03</rscale>
<asrwt>0</asrwt>
<pdfrwt beam="1">  1       21 0.87672213E-02 0.19457937E+03</pdfrwt>
<pdfrwt beam="2">  1       21 0.15839142E+00 0.19457937E+03</pdfrwt>
<totfact> 0.26418996E+04</totfact>
</mgrwt>
</event>
<event>
 4    1  0.4495571E+000  0.3755211E+03  0.7546771E-02  0.1052602E+00
         21   -1    0    0  501  502  0.00000000000E+00  0.00000000000E+00  0.43638207671E+03  0.43638207671E+03  0.00000000000E+00 0.  1.
         21   -1    0    0  502  503 -0.00000000000E+00 -0.00000000000E+00 -0.32317195423E+03  0.32317195423E+03  0.00000000000E+00 0.  1.
          6    1    1    2  501    0 -0.17240582352E+03  0.28524263050E+03  0.59854185454E+02  0.38026129142E+03  0.17300000000E+03 0.  1.
         -6    1    1    2    0  503  0.17240582352E+03 -0.28524263050E+03  0.53355937024E+02  0.37929273952E+03  0.17300000000E+03 0.  1.
<mgrwt>
<rscale>  2 0.37552114E+03</rscale>
<asrwt>0</asrwt>
<pdfrwt beam="1">  1       21 0.67135704E-01 0.37552114E+03</pdfrwt>
<pdfrwt beam="2">  1       21 0.49718762E-01 0.37552114E+03</pdfrwt>
<totfact> 0.71160178E+03</totfact>
</mgrwt>
</event>
<event>
 4    1  0.4495571E+000  0.1747776E+03  0.7546771E-02  0.1172955E+00
         21   -1    0    0  501  502  0.00000000000E+00  0.00000000000E+00  0.14087554681E+04  0.14087554681E+04  0.00000000000E+00 0. -1.
         21   -1    0    0  502  503 -0.00000000000E+00 -0.00000000000E+00 -0.21939387998E+02  0.21939387998E+02  0.00000000000E+00 0. -1.
          6    1    1    2  501    0  0.18568422126E+02 -0.16535825774E+02  0.77061314793E+03  0.79018468955E+03  0.17300000000E+03 0.  1.
         -6    1    1    2    0  503 -0.18568422126E+02  0.16535825774E+02  0.61620293213E+03  0.64051016650E+03  0.17300000000E+03 0.  1.
<mgrwt>
<rscale>  2 0.17477763E+03</rscale>
<asrwt>0</asrwt>
<pdfrwt beam="1">  1       21 0.21673154E+00 0.17477763E+03</pdfrwt>
<pdfrwt beam="2">  1       21 0.33752916E-02 0.17477763E+03</pdfrwt>
<totfact> 0.55511404E+04</totfact>
</mgrwt>
</event>
<event>
 4    1  0.4495571E+000  0.2173829E+03  0.7546771E-02  0.1135849E+00
         21   -1    0    0  501  502  0.00000000000E+00  0.00000000000E+00  0.38286985141E+03  0.38286985141E+03  0.00000000000E+00 0.  1.
         21   -1    0    0  502  503 -0.00000000000E+00 -0.00000000000E+00 -0.14819060708E+03  0.14819060708E+03  0.00000000000E+00 0.  1.
          6    1    1    2  501    0 -0.96424824160E+02 -0.89602388237E+02  0.22589135186E+03  0.31349998012E+03  0.17300000000E+03 0.  1.
         -6    1    1    2    0  503  0.96424824160E+02  0.89602388237E+02  0.87878924673E+01  0.21756047836E+03  0.17300000000E+03 0.  1.
<mgrwt>
<rscale>  2 0.21738292E+03</rscale>
<asrwt>0</asrwt>
<pdfrwt beam="1">  1       21 0.58903054E-01 0.21738292E+03</pdfrwt>
<pdfrwt beam="2">  1       21 0.22798555E-01 0.21738292E+03</pdfrwt>
<totfact> 0.48070215E+04</totfact>
</mgrwt>
</event>
<event>
 4    1  0.4495571E+000  0.2556938E+03  0.7546771E-02  0.1109758E+00
         21   -1    0    0  503  502  0.00000000000E+00  0.00000000000E+00  0.99366267159E+02  0.99366267159E+02  0.00000000000E+00 0. -1.
         21   -1    0    0  501  503 -0.00000000000E+00 -0.00000000000E+00 -0.66264520727E+03  0.66264520727E+03  0.00000000000E+00 0.  1.
          6    1    1    2  501    0  0.12452980398E+03  0.14121834805E+03 -0.31366762047E+03  0.40468094845E+03  0.17300000000E+03 0. -1.
         -6    1    1    2    0  502 -0.12452980398E+03 -0.14121834805E+03 -0.24961131964E+03  0.35733052598E+03  0.17300000000E+03 0. -1.
<mgrwt>
<rscale>  2 0.25569375E+03</rscale>
<asrwt>0</asrwt>
<pdfrwt beam="1">  1       21 0.15287118E-01 0.25569375E+03</pdfrwt>
<pdfrwt beam="2">  1       21 0.10194542E+00 0.25569375E+03</pdfrwt>
<totfact> 0.28756107E+04</totfact>
</mgrwt>
</event>
<event>
 4    1  0.4495571E+000  0.1784775E+03  0.7546771E-02  0.1169285E+00
         21   -1    0    0  503  502  0.00000000000E+00  0.00000000000E+00  0.20214354214E+03  0.20214354214E+03  0.00000000000E+00 0. -1.
         21   -1    0    0  501  503 -0.00000000000E+00 -0.00000000000E+00 -0.34750778780E+03  0.34750778780E+03  0.00000000000E+00 0. -1.
          6    1    1    2  501    0 -0.95647641661E+01  0.42822114498E+02 -0.27585549527E+03  0.32855817213E+03  0.17300000000E+03 0. -1.
         -6    1    1    2    0  502  0.95647641661E+01 -0.42822114498E+02  0.13049124961E+03  0.22109315780E+03  0.17300000000E+03 0. -1.
<mgrwt>
<rscale>  2 0.17847750E+03</rscale>
<asrwt>0</asrwt>
<pdfrwt beam="1">  1       21 0.31099007E-01 0.17847750E+03</pdfrwt>
<pdfrwt beam="2">  1       21 0.53462736E-01 0.17847750E+03</pdfrwt>
<totfact> 0.33141622E+04</totfact>
</mgrwt>
</event>
<event>
 4    1  0.4495571E+000  0.1916079E+03  0.7546771E-02  0.1157019E+00
         21   -1    0    0  501  502  0.00000000000E+00  0.00000000000E+00  0.33053891867E+03  0.33053891867E+03  0.00000000000E+00 0. -1.
         21   -1    0    0  502  503 -0.00000000000E+00 -0.00000000000E+00 -0.22303733712E+03  0.22303733712E+03  0.00000000000E+00 0. -1.
          6    1    1    2  501    0  0.65701304456E+01  0.82106064131E+02  0.24986124285E+03  0.31487174065E+03  0.17300000000E+03 0. -1.
         -6    1    1    2    0  503 -0.65701304456E+01 -0.82106064131E+02 -0.14235966130E+03  0.23870451514E+03  0.17300000000E+03 0. -1.
<mgrwt>
<rscale>  2 0.19160786E+03</rscale>
<asrwt>0</asrwt>
<pdfrwt beam="1">  1       21 0.50852142E-01 0.19160786E+03</pdfrwt>
<pdfrwt beam="2">  1       21 0.34313436E-01 0.19160786E+03</pdfrwt>
<totfact> 0.30123974E+04</totfact>
</mgrwt>
</event>
<event>
 4    1  0.4495571E+000  0.1806367E+03  0.7546771E-02  0.1167188E+00
         21   -1    0    0  503  502  0.00000000000E+00  0.00000000000E+00  0.84834848783E+03  0.84834848783E+03  0.00000000000E+00 0.  1.
         21   -1    0    0  501  503 -0.00000000000E+00 -0.00000000000E+00 -0.48631673790E+02  0.48631673790E+02  0.00000000000E+00 0.  1.
          6    1    1    2  501    0 -0.20296823306E+01 -0.51927928280E+02  0.60494412769E+03  0.63133749055E+03  0.17300000000E+03 0. -1.
         -6    1    1    2    0  502  0.20296823306E+01  0.51927928280E+02  0.19477268635E+03  0.26564267107E+03  0.17300000000E+03 0. -1.
<mgrwt>
<rscale>  2 0.18063673E+03</rscale>
<asrwt>0</asrwt>
<pdfrwt beam="1">  1       21 0.13051514E+00 0.18063673E+03</pdfrwt>
<pdfrwt beam="2">  1       21 0.74817966E-02 0.18063673E+03</pdfrwt>
<totfact> 0.58049772E+04</totfact>
</mgrwt>
</event>
<event>
 4    1  0.4495571E+000  0.1750112E+03  0.7546771E-02  0.1172720E+00
         21   -1    0    0  503  502  0.00000000000E+00  0.00000000000E+00  0.27964780687E+03  0.27964780687E+03  0.00000000000E+00 0.  1.
         21   -1    0    0  501  503 -0.00000000000E+00 -0.00000000000E+00 -0.35585309228E+03  0.35585309228E+03  0.00000000000E+00 0.  1.
          6    1    1    2  501    0  0.45308148089E+01  0.26065362129E+02 -0.30246899600E+03  0.34945160599E+03  0.17300000000E+03 0.  1.
         -6    1    1    2    0  502 -0.45308148089E+01 -0.26065362129E+02  0.22626371060E+03  0.28604929316E+03  0.17300000000E+03 0.  1.
<mgrwt>
<rscale>  2 0.17501123E+03</rscale>
<asrwt>0</asrwt>
<pdfrwt beam="1">  1       21 0.43022740E-01 0.17501123E+03</pdfrwt>
<pdfrwt beam="2">  1       21 0.54746629E-01 0.17501123E+03</pdfrwt>
<totfact> 0.16546731E+04</totfact>
</mgrwt>
</event>
<event>
 4    1  0.4495571E+000  0.1760792E+03  0.7546771E-02  0.1171652E+00
         21   -1    0    0  501  502  0.00000000000E+00  0.00000000000E+00  0.24822184806E+03  0.24822184806E+03  0.00000000000E+00 0.  1.
         21   -1    0    0  502  503 -0.00000000000E+00 -0.00000000000E+00 -0.63738260152E+03  0.63738260152E+03  0.00000000000E+00 0.  1.
          6    1    1    2  501    0 -0.28258228059E+02  0.16624112139E+02  0.20247180120E+03  0.26832576998E+03  0.17300000000E+03 0.  1.
         -6    1    1    2    0  503  0.28258228059E+02 -0.16624112139E+02 -0.59163255465E+03  0.61727867960E+03  0.17300000000E+03 0.  1.
<mgrwt>
<rscale>  2 0.17607921E+03</rscale>
<asrwt>0</asrwt>
<pdfrwt beam="1">  1       21 0.38187977E-01 0.17607921E+03</pdfrwt>
<pdfrwt beam="2">  1       21 0.98058861E-01 0.17607921E+03</pdfrwt>
<totfact> 0.57614428E+03</totfact>
</mgrwt>
</event>
<event>
 4    1  0.4495571E+000  0.3036526E+03  0.7546771E-02  0.1083429E+00
         21   -1    0    0  503  502  0.00000000000E+00  0.00000000000E+00  0.82812074172E+03  0.82812074172E+03  0.00000000000E+00 0. -1.
         21   -1    0    0  501  503 -0.00000000000E+00 -0.00000000000E+00 -0.13076204939E+03  0.13076204939E+03  0.00000000000E+00 0. -1.
          6    1    1    2  501    0  0.21457454865E+03 -0.12741147305E+03  0.16391601934E+03  0.34507011141E+03  0.17300000000E+03 0. -1.
         -6    1    1    2    0  502 -0.21457454865E+03  0.12741147305E+03  0.53344267299E+03  0.61381267970E+03  0.17300000000E+03 0. -1.
<mgrwt>
<rscale>  2 0.30365263E+03</rscale>
<asrwt>0</asrwt>
<pdfrwt beam="1">  1       21 0.12740319E+00 0.30365263E+03</pdfrwt>
<pdfrwt beam="2">  1       21 0.20117239E-01 0.30365263E+03</pdfrwt>
<totfact> 0.97214513E+03</totfact>
</mgrwt>
</event>
<event>
 4    1  0.4495571E+000  0.2399025E+03  0.7546771E-02  0.1119858E+00
         21   -1    0    0  503  502  0.00000000000E+00  0.00000000000E+00  0.10091811939E+03  0.10091811939E+03  0.00000000000E+00 0. -1.
         21   -1    0    0  501  503 -0.00000000000E+00 -0.00000000000E+00 -0.77172566464E+03  0.77172566464E+03  0.00000000000E+00 0.  1.
          6    1    1    2  501    0  0.11142600310E+03  0.12332248607E+03 -0.55831777758E+03  0.60767748888E+03  0.17300000000E+03 0.  1.
         -6    1    1    2    0  502 -0.11142600310E+03 -0.12332248607E+03 -0.11248976767E+03  0.26496629515E+03  0.17300000000E+03 0. -1.
<mgrwt>
<rscale>  2 0.23990246E+03</rscale>
<asrwt>0</asrwt>
<pdfrwt beam="1">  1       21 0.15525865E-01 0.23990246E+03</pdfrwt>
<pdfrwt beam="2">  1       21 0.11872702E+00 0.23990246E+03</pdfrwt>
<totfact> 0.19422453E+04</totfact>
</mgrwt>
</event>
<event>
 4    1  0.4495571E+000  0.2339787E+03  0.7546771E-02  0.1123870E+00
         21   -1    0    0  501  502  0.00000000000E+00  0.00000000000E+00  0.83096375242E+03  0.83096375242E+03  0.00000000000E+00 0. -1.
         21   -1    0    0  502  503 -0.00000000000E+00 -0.00000000000E+00 -0.67141846648E+02  0.67141846648E+02  0.00000000000E+00 0.  1.
          6    1    1    2  501    0  0.19598741914E+02 -0.15631032387E+03  0.32041291642E+03  0.39674987718E+03  0.17300000000E+03 0. -1.
         -6    1    1    2    0  503 -0.19598741914E+02  0.15631032387E+03  0.44340898935E+03  0.50135572189E+03  0.17300000000E+03 0.  1.
<mgrwt>
<rscale>  2 0.23397869E+03</rscale>
<asrwt>0</asrwt>
<pdfrwt beam="1">  1       21 0.12784057E+00 0.23397869E+03</pdfrwt>
<pdfrwt beam="2">  1       21 0.10329515E-01 0.23397869E+03</pdfrwt>
<totfact> 0.33768467E+04</totfact>
</mgrwt>
</event>
<event>
 4    1  0.4495571E+000  0.2038555E+03  0.7546771E-02  0.1146526E+00
         21   -1    0    0  501  502  0.00000000000E+00  0.00000000000E+00  0.11660807264E+04  0.11660807264E+04  0.00000000000E+00 0. -1.
         21   -1    0    0  502  503 -0.00000000000E+00 -0.00000000000E+00 -0.61115405401E+02  0.61115405401E+02  0.00000000000E+00 0. -1.
          6    1    1    2  501    0  0.99033139394E+02 -0.42667551291E+02  0.94865491458E+03  0.97031089327E+03  0.17300000000E+03 0. -1.
         -6    1    1    2    0  503 -0.99033139394E+02  0.42667551291E+02  0.15631040646E+03  0.25688523858E+03  0.17300000000E+03 0. -1.
<mgrwt>
<rscale>  2 0.20385554E+03</rscale>
<asrwt>0</asrwt>
<pdfrwt beam="1">  1       21 0.17939702E+00 0.20385554E+03</pdfrwt>
<pdfrwt beam="2">  1       21 0.94023709E-02 0.20385554E+03</pdfrwt>
<totfact> 0.16478800E+04</totfact>
</mgrwt>
</event>
<event>
 4    1  0.4495571E+000  0.2937949E+03  0.7546771E-02  0.1088384E+00
         21   -1    0    0  503  502  0.00000000000E+00  0.00000000000E+00  0.36189586214E+03  0.36189586214E+03  0.00000000000E+00 0. -1.
         21   -1    0    0  501  503 -0.00000000000E+00 -0.00000000000E+00 -0.69833730833E+03  0.69833730833E+03  0.00000000000E+00 0.  1.
          6    1    1    2  501    0 -0.14514367036E+03 -0.18793553078E+03 -0.59838722145E+03  0.66662036840E+03  0.17300000000E+03 0.  1.
         -6    1    1    2    0  502  0.14514367036E+03  0.18793553078E+03  0.26194577526E+03  0.39361280207E+03  0.17300000000E+03 0. -1.
<mgrwt>
<rscale>  2 0.29379491E+03</rscale>
<asrwt>0</asrwt>
<pdfrwt beam="1">  1       21 0.55676287E-01 0.29379491E+03</pdfrwt>
<pdfrwt beam="2">  1       21 0.10743651E+00 0.29379491E+03</pdfrwt>
<totfact> 0.19478559E+03</totfact>
</mgrwt>
</event>
<event>
 4    1  0.4495571E+000  0.1944913E+03  0.7546771E-02  0.1154472E+00
         21   -1    0    0  503  502  0.00000000000E+00  0.00000000000E+00  0.68683834986E+02  0.68683834986E+02  0.00000000000E+00 0. -1.
         21   -1    0    0  501  503 -0.00000000000E+00 -0.00000000000E+00 -0.64382860915E+03  0.64382860915E+03  0.00000000000E+00 0. -1.
          6    1    1    2  501    0 -0.27326462885E+02 -0.84564469560E+02 -0.15210732572E+03  0.24690792540E+03  0.17300000000E+03 0. -1.
         -6    1    1    2    0  502  0.27326462885E+02  0.84564469560E+02 -0.42303744844E+03  0.46560451874E+03  0.17300000000E+03 0. -1.
<mgrwt>
<rscale>  2 0.19449135E+03</rscale>
<asrwt>0</asrwt>
<pdfrwt beam="1">  1       21 0.10566744E-01 0.19449135E+03</pdfrwt>
<pdfrwt beam="2">  1       21 0.99050551E-01 0.19449135E+03</pdfrwt>
<totfact> 0.61751415E+04</totfact>
</mgrwt>
</event>
<event>
 4    1  0.4495571E+000  0.1884106E+03  0.7546771E-02  0.1159903E+00
         21   -1    0    0  501  502  0.00000000000E+00  0.00000000000E+00  0.68126790319E+03  0.68126790319E+03  0.00000000000E+00 0. -1.
         21   -1    0    0  502  503 -0.00000000000E+00 -0.00000000000E+00 -0.12423250844E+03  0.12423250844E+03  0.00000000000E+00 0. -1.
          6    1    1    2  501    0  0.17868186606E+02 -0.72458880440E+02  0.58539428733E+03  0.61496750572E+03  0.17300000000E+03 0. -1.
         -6    1    1    2    0  503 -0.17868186606E+02  0.72458880440E+02 -0.28358892582E+02  0.19053290591E+03  0.17300000000E+03 0. -1.
<mgrwt>
<rscale>  2 0.18841062E+03</rscale>
<asrwt>0</asrwt>
<pdfrwt beam="1">  1       21 0.10481044E+00 0.18841062E+03</pdfrwt>
<pdfrwt beam="2">  1       21 0.19112694E-01 0.18841062E+03</pdfrwt>
<totfact> 0.18482467E+04</totfact>
</mgrwt>
</event>
<event>
 4    1  0.4495571E+000  0.2065961E+03  0.7546771E-02  0.1144290E+00
         21   -1    0    0  501  502  0.00000000000E+00  0.00000000000E+00  0.58231752255E+02  0.58231752255E+02  0.00000000000E+00 0.  1.
         21   -1    0    0  502  503 -0.00000000000E+00 -0.00000000000E+00 -0.13623209860E+04  0.13623209860E+04  0.00000000000E+00 0. -1.
          6    1    1    2  501    0  0.11292790520E+03 -0.47268306937E+00 -0.16928021327E+03  0.26709123124E+03  0.17300000000E+03 0.  1.
         -6    1    1    2    0  503 -0.11292790520E+03  0.47268306937E+00 -0.11348090205E+04  0.11534615070E+04  0.17300000000E+03 0. -1.
<mgrwt>
<rscale>  2 0.20659607E+03</rscale>
<asrwt>0</asrwt>
<pdfrwt beam="1">  1       21 0.89587305E-02 0.20659607E+03</pdfrwt>
<pdfrwt beam="2">  1       21 0.20958786E+00 0.20659607E+03</pdfrwt>
<totfact> 0.11362075E+04</totfact>
</mgrwt>
</event>
<event>
 4    1  0.4495571E+000  0.2397936E+03  0.7546771E-02  0.1119930E+00
         21   -1    0    0  501  502  0.00000000000E+00  0.00000000000E+00  0.30021377993E+03  0.30021377993E+03  0.00000000000E+00 0. -1.
         21   -1    0    0  502  503 -0.00000000000E+00 -0.00000000000E+00 -0.23952852455E+03  0.23952852455E+03  0.00000000000E+00 0. -1.
          6    1    1    2  501    0 -0.45422015293E+02  0.15971484996E+03  0.15114514982E+03  0.28345343372E+03  0.17300000000E+03 0. -1.
         -6    1    1    2    0  503  0.45422015293E+02 -0.15971484996E+03 -0.90459894445E+02  0.25628887076E+03  0.17300000000E+03 0. -1.
<mgrwt>
<rscale>  2 0.23979365E+03</rscale>
<asrwt>0</asrwt>
<pdfrwt beam="1">  1       21 0.46186736E-01 0.23979365E+03</pdfrwt>
<pdfrwt beam="2">  1       21 0.36850542E-01 0.23979365E+03</pdfrwt>
<totfact> 0.31145860E+04</totfact>
</mgrwt>
</event>
<event>
 4    1  0.4495571E+000  0.3760882E+03  0.7546771E-02  0.1052389E+00
         21   -1    0    0  501  502  0.00000000000E+00  0.00000000000E+00  0.13010768865E+03  0.13010768865E+03  0.00000000000E+00 0.  1.
         21   -1    0    0  502  503 -0.00000000000E+00 -0.00000000000E+00 -0.16709606677E+04  0.16709606677E+04  0.00000000000E+00 0. -1.
          6    1    1    2  501    0 -0.22647526001E+03  0.24540226181E+03 -0.13027372907E+04  0.13559375952E+04  0.17300000000E+03 0. -1.
         -6    1    1    2    0  503  0.22647526001E+03 -0.24540226181E+03 -0.23811568838E+03  0.44513076118E+03  0.17300000000E+03 0.  1.
<mgrwt>
<rscale>  2 0.37608817E+03</rscale>
<asrwt>0</asrwt>
<pdfrwt beam="1">  1       21 0.20016569E-01 0.37608817E+03</pdfrwt>
<pdfrwt beam="2">  1       21 0.25707085E+00 0.37608817E+03</pdfrwt>
<totfact> 0.11916392E+03</totfact>
</mgrwt>
</event>
<event>
 4    1  0.4495571E+000  0.1873176E+03  0.7546771E-02  0.1160903E+00
         21   -1    0    0  501  502  0.00000000000E+00  0.00000000000E+00  0.17580809179E+03  0.17580809179E+03  0.00000000000E+00 0. -1.
         21   -1    0    0  502  503 -0.00000000000E+00 -0.00000000000E+00 -0.20677120391E+03  0.20677120391E+03  0.00000000000E+00 0.  1.
          6    1    1    2  501    0  0.57536462257E+02 -0.42993590499E+02  0.20190455416E+02  0.18840262154E+03  0.17300000000E+03 0. -1.
         -6    1    1    2    0  503 -0.57536462257E+02  0.42993590499E+02 -0.51153567538E+02  0.19417667415E+03  0.17300000000E+03 0.  1.
<mgrwt>
<rscale>  2 0.18731763E+03</rscale>
<asrwt>0</asrwt>
<pdfrwt beam="1">  1       21 0.27047399E-01 0.18731763E+03</pdfrwt>
<pdfrwt beam="2">  1       21 0.31810954E-01 0.18731763E+03</pdfrwt>
<totfact> 0.12399665E+05</totfact>
</mgrwt>
</event>
<event>
 4    1  0.4495571E+000  0.1875789E+03  0.7546771E-02  0.1160663E+00
         21   -1    0    0  503  502  0.00000000000E+00  0.00000000000E+00  0.15759873158E+03  0.15759873158E+03  0.00000000000E+00 0. -1.
         21   -1    0    0  501  503 -0.00000000000E+00 -0.00000000000E+00 -0.23108233911E+03  0.23108233911E+03  0.00000000000E+00 0. -1.
          6    1    1    2  501    0 -0.49306903433E+02 -0.53156950503E+02 -0.99077333982E+00  0.18758148561E+03  0.17300000000E+03 0.  1.
         -6    1    1    2    0  502  0.49306903433E+02  0.53156950503E+02 -0.72492834191E+02  0.20109958509E+03  0.17300000000E+03 0.  1.
<mgrwt>
<rscale>  2 0.18757887E+03</rscale>
<asrwt>0</asrwt>
<pdfrwt beam="1">  1       21 0.24245959E-01 0.18757887E+03</pdfrwt>
<pdfrwt beam="2">  1       21 0.35551129E-01 0.18757887E+03</pdfrwt>
<totfact> 0.12271581E+05</totfact>
</mgrwt>
</event>
<event>
 4    1  0.4495571E+000  0.1868797E+03  0.7546771E-02  0.1161306E+00
         21   -1    0    0  503  502  0.00000000000E+00  0.00000000000E+00  0.73790242477E+02  0.73790242477E+02  0.00000000000E+00 0.  1.
         21   -1    0    0  501  503 -0.00000000000E+00 -0.00000000000E+00 -0.13383013035E+04  0.13383013035E+04  0.00000000000E+00 0.  1.
          6    1    1    2  501    0 -0.41964117525E+02  0.56868610462E+02 -0.11998881376E+04  0.12143539718E+04  0.17300000000E+03 0.  1.
         -6    1    1    2    0  502  0.41964117525E+02 -0.56868610462E+02 -0.64622923409E+02  0.19773757419E+03  0.17300000000E+03 0.  1.
<mgrwt>
<rscale>  2 0.18687971E+03</rscale>
<asrwt>0</asrwt>
<pdfrwt beam="1">  1       21 0.11352345E-01 0.18687971E+03</pdfrwt>
<pdfrwt beam="2">  1       21 0.20589251E+00 0.18687971E+03</pdfrwt>
<totfact> 0.80205255E+03</totfact>
</mgrwt>
</event>
<event>
 4    1  0.4495571E+000  0.4254955E+03  0.7546771E-02  0.1035292E+00
         21   -1    0    0  503  502  0.00000000000E+00  0.00000000000E+00  0.18928155769E+03  0.18928155769E+03  0.00000000000E+00 0.  1.
         21   -1    0    0  501  503 -0.00000000000E+00 -0.00000000000E+00 -0.10388471046E+04  0.10388471046E+04  0.00000000000E+00 0.  1.
          6    1    1    2  501    0 -0.38859690270E+03 -0.10481042361E+02 -0.59767751816E+03  0.73366533294E+03  0.17300000000E+03 0.  1.
         -6    1    1    2    0  502  0.38859690270E+03  0.10481042361E+02 -0.25188802874E+03  0.49446332934E+03  0.17300000000E+03 0.  1.
<mgrwt>
<rscale>  2 0.42549548E+03</rscale>
<asrwt>0</asrwt>
<pdfrwt beam="1">  1       21 0.29120239E-01 0.42549548E+03</pdfrwt>
<pdfrwt beam="2">  1       21 0.15982263E+00 0.42549548E+03</pdfrwt>
<totfact> 0.24689380E+03</totfact>
</mgrwt>
</event>
<event>
 4    1  0.4495571E+000  0.2800510E+03  0.7546771E-02  0.1095661E+00
         21   -1    0    0  503  502  0.00000000000E+00  0.00000000000E+00  0.20974311416E+03  0.20974311416E+03  0.00000000000E+00 0. -1.
         21   -1    0    0  501  503 -0.00000000000E+00 -0.00000000000E+00 -0.41391278857E+03  0.41391278857E+03  0.00000000000E+00 0. -1.
          6    1    1    2  501    0 -0.64780123800E+02 -0.21048305930E+03 -0.51646491511E+01  0.28009865457E+03  0.17300000000E+03 0. -1.
         -6    1    1    2    0  502  0.64780123800E+02  0.21048305930E+03 -0.19900502526E+03  0.34355724817E+03  0.17300000000E+03 0. -1.
<mgrwt>
<rscale>  2 0.28005104E+03</rscale>
<asrwt>0</asrwt>
<pdfrwt beam="1">  1       21 0.32268172E-01 0.28005104E+03</pdfrwt>
<pdfrwt beam="2">  1       21 0.63678890E-01 0.28005104E+03</pdfrwt>
<totfact> 0.20131476E+04</totfact>
</mgrwt>
</event>
<event>
 4    1  0.4495571E+000  0.1850442E+03  0.7546771E-02  0.1163009E+00
         21   -1    0    0  501  502  0.00000000000E+00  0.00000000000E+00  0.15166551355E+02  0.15166551355E+02  0.00000000000E+00 0.  1.
         21   -1    0    0  502  503 -0.00000000000E+00 -0.00000000000E+00 -0.23672976685E+04  0.23672976685E+04  0.00000000000E+00 0. -1.
          6    1    1    2  501    0  0.59421469513E+02 -0.27954592815E+02 -0.91974079789E+03  0.93817082965E+03  0.17300000000E+03 0.  1.
         -6    1    1    2    0  503 -0.59421469513E+02  0.27954592815E+02 -0.14323903192E+04  0.14442933902E+04  0.17300000000E+03 0.  1.
<mgrwt>
<rscale>  2 0.18504424E+03</rscale>
<asrwt>0</asrwt>
<pdfrwt beam="1">  1       21 0.23333157E-02 0.18504424E+03</pdfrwt>
<pdfrwt beam="2">  1       21 0.36419963E+00 0.18504424E+03</pdfrwt>
<totfact> 0.13908959E+04</totfact>
</mgrwt>
</event>
<event>
 4    1  0.4495571E+000  0.3684530E+03  0.7546771E-02  0.1055286E+00
         21   -1    0    0  501  502  0.00000000000E+00  0.00000000000E+00  0.45034622934E+03  0.45034622934E+03  0.00000000000E+00 0.  1.
         21   -1    0    0  502  503 -0.00000000000E+00 -0.00000000000E+00 -0.81012784802E+03  0.81012784802E+03  0.00000000000E+00 0. -1.
          6    1    1    2  501    0 -0.16355211763E+03  0.28121050665E+03  0.31950836704E+03  0.48769174777E+03  0.17300000000E+03 0.  1.
         -6    1    1    2    0  503  0.16355211763E+03 -0.28121050665E+03 -0.67928998572E+03  0.77278232959E+03  0.17300000000E+03 0. -1.
<mgrwt>
<rscale>  2 0.36845304E+03</rscale>
<asrwt>0</asrwt>
<pdfrwt beam="1">  1       21 0.69284035E-01 0.36845304E+03</pdfrwt>
<pdfrwt beam="2">  1       21 0.12463505E+00 0.36845304E+03</pdfrwt>
<totfact> 0.79904715E+02</totfact>
</mgrwt>
</event>
<event>
 4    1  0.4495571E+000  0.2427098E+03  0.7546771E-02  0.1118001E+00
         21   -1    0    0  503  502  0.00000000000E+00  0.00000000000E+00  0.45675996666E+03  0.45675996666E+03  0.00000000000E+00 0.  1.
         21   -1    0    0  501  503 -0.00000000000E+00 -0.00000000000E+00 -0.13886006914E+03  0.13886006914E+03  0.00000000000E+00 0.  1.
          6    1    1    2  501    0 -0.10468692261E+03  0.13423748350E+03  0.79468880351E+02  0.25538863852E+03  0.17300000000E+03 0.  1.
         -6    1    1    2    0  502  0.10468692261E+03 -0.13423748350E+03  0.23843101718E+03  0.34023139728E+03  0.17300000000E+03 0.  1.
<mgrwt>
<rscale>  2 0.24270981E+03</rscale>
<asrwt>0</asrwt>
<pdfrwt beam="1">  1       21 0.70270764E-01 0.24270981E+03</pdfrwt>
<pdfrwt beam="2">  1       21 0.21363088E-01 0.24270981E+03</pdfrwt>
<totfact> 0.36568288E+04</totfact>
</mgrwt>
</event>
<event>
 4    1  0.4495571E+000  0.1799003E+03  0.7546771E-02  0.1167900E+00
         21   -1    0    0  503  502  0.00000000000E+00  0.00000000000E+00  0.26617616641E+03  0.26617616641E+03  0.00000000000E+00 0. -1.
         21   -1    0    0  501  503 -0.00000000000E+00 -0.00000000000E+00 -0.15355303347E+03  0.15355303347E+03  0.00000000000E+00 0. -1.
          6    1    1    2  501    0 -0.31156249998E+02  0.38267789088E+02  0.15206177130E+03  0.23555661291E+03  0.17300000000E+03 0. -1.
         -6    1    1    2    0  502  0.31156249998E+02 -0.38267789088E+02 -0.39438638362E+02  0.18417258697E+03  0.17300000000E+03 0. -1.
<mgrwt>
<rscale>  2 0.17990035E+03</rscale>
<asrwt>0</asrwt>
<pdfrwt beam="1">  1       21 0.40950180E-01 0.17990035E+03</pdfrwt>
<pdfrwt beam="2">  1       21 0.23623544E-01 0.17990035E+03</pdfrwt>
<totfact> 0.97377547E+04</totfact>
</mgrwt>
</event>
<event>
 4    1  0.4495571E+000  0.2449953E+03  0.7546771E-02  0.1116509E+00
         21   -1    0    0  503  502  0.00000000000E+00  0.00000000000E+00  0.24672635047E+04  0.24672635047E+04  0.00000000000E+00 0. -1.
         21   -1    0    0  501  503 -0.00000000000E+00 -0.00000000000E+00 -0.29516692653E+02  0.29516692653E+02  0.00000000000E+00 0.  1.
          6    1    1    2  501    0  0.14912417546E+03  0.88632201322E+02  0.17423059281E+04  0.17594466840E+04  0.17300000000E+03 0. -1.
         -6    1    1    2    0  502 -0.14912417546E+03 -0.88632201322E+02  0.69544088395E+03  0.73733351333E+03  0.17300000000E+03 0.  1.
<mgrwt>
<rscale>  2 0.24499528E+03</rscale>
<asrwt>0</asrwt>
<pdfrwt beam="1">  1       21 0.37957884E+00 0.24499528E+03</pdfrwt>
<pdfrwt beam="2">  1       21 0.45410316E-02 0.24499528E+03</pdfrwt>
<totfact> 0.34553947E+03</totfact>
</mgrwt>
</event>
<event>
 4    1  0.4495571E+000  0.1944106E+03  0.7546771E-02  0.1154542E+00
         21   -1    0    0  501  502  0.00000000000E+00  0.00000000000E+00  0.14920150577E+03  0.14920150577E+03  0.00000000000E+00 0. -1.
         21   -1    0    0  502  503 -0.00000000000E+00 -0.00000000000E+00 -0.25558967625E+03  0.25558967625E+03  0.00000000000E+00 0. -1.
          6    1    1    2  501    0 -0.79795701762E+02  0.38718466008E+02 -0.34114331711E+02  0.19738100531E+03  0.17300000000E+03 0. -1.
         -6    1    1    2    0  503  0.79795701762E+02 -0.38718466008E+02 -0.72273838770E+02  0.20741017670E+03  0.17300000000E+03 0. -1.
<mgrwt>
<rscale>  2 0.19441058E+03</rscale>
<asrwt>0</asrwt>
<pdfrwt beam="1">  1       21 0.22954078E-01 0.19441058E+03</pdfrwt>
<pdfrwt beam="2">  1       21 0.39321488E-01 0.19441058E+03</pdfrwt>
<totfact> 0.11101375E+05</totfact>
</mgrwt>
</event>
<event>
 4    1  0.4495571E+000  0.1852383E+03  0.7546771E-02  0.1162828E+00
         21   -1    0    0  503  502  0.00000000000E+00  0.00000000000E+00  0.37585073766E+02  0.37585073766E+02  0.00000000000E+00 0.  1.
         21   -1    0    0  501  503 -0.00000000000E+00 -0.00000000000E+00 -0.92221631363E+03  0.92221631363E+03  0.00000000000E+00 0.  1.
          6    1    1    2  501    0  0.46714375635E+02  0.46925222620E+02 -0.39420503396E+03  0.43555805377E+03  0.17300000000E+03 0.  1.
         -6    1    1    2    0  502 -0.46714375635E+02 -0.46925222620E+02 -0.49042620590E+03  0.52424333362E+03  0.17300000000E+03 0.  1.
<mgrwt>
<rscale>  2 0.18523825E+03</rscale>
<asrwt>0</asrwt>
<pdfrwt beam="1">  1       21 0.57823195E-02 0.18523825E+03</pdfrwt>
<pdfrwt beam="2">  1       21 0.14187942E+00 0.18523825E+03</pdfrwt>
<totfact> 0.72877120E+04</totfact>
</mgrwt>
</event>
<event>
 4    1  0.4495571E+000  0.1872072E+03  0.7546771E-02  0.1161005E+00
         21   -1    0    0  501  502  0.00000000000E+00  0.00000000000E+00  0.24598848030E+02  0.24598848030E+02  0.00000000000E+00 0.  1.
         21   -1    0    0  502  503 -0.00000000000E+00 -0.00000000000E+00 -0.20008570207E+04  0.20008570207E+04  0.00000000000E+00 0. -1.
          6    1    1    2  501    0 -0.71537002251E+02 -0.19384843912E-02 -0.44469540641E+03  0.48249409030E+03  0.17300000000E+03 0.  1.
         -6    1    1    2    0  503  0.71537002251E+02  0.19384843912E-02 -0.15315627662E+04  0.15429617784E+04  0.17300000000E+03 0. -1.
<mgrwt>
<rscale>  2 0.18720722E+03</rscale>
<asrwt>0</asrwt>
<pdfrwt beam="1">  1       21 0.37844383E-02 0.18720722E+03</pdfrwt>
<pdfrwt beam="2">  1       21 0.30782414E+00 0.18720722E+03</pdfrwt>
<totfact> 0.13307740E+04</totfact>
</mgrwt>
</event>
<event>
 4    1  0.4495571E+000  0.1999104E+03  0.7546771E-02  0.1149815E+00
         21   -1    0    0  503  502  0.00000000000E+00  0.00000000000E+00  0.23354649948E+03  0.23354649948E+03  0.00000000000E+00 0. -1.
         21   -1    0    0  501  503 -0.00000000000E+00 -0.00000000000E+00 -0.26144308386E+03  0.26144308386E+03  0.00000000000E+00 0.  1.
          6    1    1    2  501    0  0.28904073951E+02 -0.95915099804E+02 -0.15942056045E+03  0.25569330643E+03  0.17300000000E+03 0.  1.
         -6    1    1    2    0  502 -0.28904073951E+02  0.95915099804E+02  0.13152397606E+03  0.23929627691E+03  0.17300000000E+03 0. -1.
<mgrwt>
<rscale>  2 0.19991036E+03</rscale>
<asrwt>0</asrwt>
<pdfrwt beam="1">  1       21 0.35930231E-01 0.19991036E+03</pdfrwt>
<pdfrwt beam="2">  1       21 0.40222013E-01 0.19991036E+03</pdfrwt>
<totfact> 0.44330308E+04</totfact>
</mgrwt>
</event>
<event>
 4    1  0.4495571E+000  0.2732264E+03  0.7546771E-02  0.1099447E+00
         21   -1    0    0  501  502  0.00000000000E+00  0.00000000000E+00  0.16163995840E+03  0.16163995840E+03  0.00000000000E+00 0.  1.
         21   -1    0    0  502  503 -0.00000000000E+00 -0.00000000000E+00 -0.50213846949E+03  0.50213846949E+03  0.00000000000E+00 0.  1.
          6    1    1    2  501    0 -0.14196791788E+03 -0.15674427500E+03 -0.76234282164E+02  0.28366234017E+03  0.17300000000E+03 0.  1.
         -6    1    1    2    0  503  0.14196791788E+03  0.15674427500E+03 -0.26426422893E+03  0.38011608772E+03  0.17300000000E+03 0.  1.
<mgrwt>
<rscale>  2 0.27322638E+03</rscale>
<asrwt>0</asrwt>
<pdfrwt beam="1">  1       21 0.24867687E-01 0.27322638E+03</pdfrwt>
<pdfrwt beam="2">  1       21 0.77252070E-01 0.27322638E+03</pdfrwt>
<totfact> 0.21839736E+04</totfact>
</mgrwt>
</event>
<event>
 4    1  0.4495571E+000  0.2569645E+03  0.7546771E-02  0.1108981E+00
         21   -1    0    0  503  502  0.00000000000E+00  0.00000000000E+00  0.40784175386E+03  0.40784175386E+03  0.00000000000E+00 0. -1.
         21   -1    0    0  501  503 -0.00000000000E+00 -0.00000000000E+00 -0.18914986555E+03  0.18914986555E+03  0.00000000000E+00 0.  1.
          6    1    1    2  501    0  0.10507776126E+03 -0.15830475289E+03  0.22263681545E+03  0.33999688571E+03  0.17300000000E+03 0. -1.
         -6    1    1    2    0  502 -0.10507776126E+03  0.15830475289E+03 -0.39449271313E+01  0.25699473370E+03  0.17300000000E+03 0.  1.
<mgrwt>
<rscale>  2 0.25696445E+03</rscale>
<asrwt>0</asrwt>
<pdfrwt beam="1">  1       21 0.62744885E-01 0.25696445E+03</pdfrwt>
<pdfrwt beam="2">  1       21 0.29099979E-01 0.25696445E+03</pdfrwt>
<totfact> 0.25743986E+04</totfact>
</mgrwt>
</event>
<event>
 4    1  0.4495571E+000  0.1829572E+03  0.7546771E-02  0.1164971E+00
         21   -1    0    0  501  502  0.00000000000E+00  0.00000000000E+00  0.19603192396E+02  0.19603192396E+02  0.00000000000E+00 0. -1.
         21   -1    0    0  502  503 -0.00000000000E+00 -0.00000000000E+00 -0.17110782110E+04  0.17110782110E+04  0.00000000000E+00 0. -1.
          6    1    1    2  501    0  0.15877617209E+02 -0.57378038981E+02 -0.80641678224E+03  0.82691073567E+03  0.17300000000E+03 0.  1.
         -6    1    1    2    0  503 -0.15877617209E+02  0.57378038981E+02 -0.88505823632E+03  0.90377066769E+03  0.17300000000E+03 0.  1.
<mgrwt>
<rscale>  2 0.18295720E+03</rscale>
<asrwt>0</asrwt>
<pdfrwt beam="1">  1       21 0.30158757E-02 0.18295720E+03</pdfrwt>
<pdfrwt beam="2">  1       21 0.26324281E+00 0.18295720E+03</pdfrwt>
<totfact> 0.35189714E+04</totfact>
</mgrwt>
</event>
<event>
 4    1  0.4495571E+000  0.1772407E+03  0.7546771E-02  0.1170501E+00
         21   -1    0    0  501  502  0.00000000000E+00  0.00000000000E+00  0.60262520234E+02  0.60262520234E+02  0.00000000000E+00 0. -1.
         21   -1    0    0  502  503 -0.00000000000E+00 -0.00000000000E+00 -0.63687653061E+03  0.63687653061E+03  0.00000000000E+00 0.  1.
          6    1    1    2  501    0 -0.14800904198E+02 -0.35583548102E+02 -0.43680315877E+03  0.47139288834E+03  0.17300000000E+03 0.  1.
         -6    1    1    2    0  503  0.14800904198E+02  0.35583548102E+02 -0.13981085160E+03  0.22574616251E+03  0.17300000000E+03 0. -1.
<mgrwt>
<rscale>  2 0.17724067E+03</rscale>
<asrwt>0</asrwt>
<pdfrwt beam="1">  1       21 0.92711567E-02 0.17724067E+03</pdfrwt>
<pdfrwt beam="2">  1       21 0.97981007E-01 0.17724067E+03</pdfrwt>
<totfact> 0.80421316E+04</totfact>
</mgrwt>
</event>
<event>
 4    1  0.4495571E+000  0.2501617E+03  0.7546771E-02  0.1113203E+00
         21   -1    0    0  501  502  0.00000000000E+00  0.00000000000E+00  0.45809944004E+03  0.45809944004E+03  0.00000000000E+00 0.  1.
         21   -1    0    0  502  503 -0.00000000000E+00 -0.00000000000E+00 -0.13663927074E+03  0.13663927074E+03  0.00000000000E+00 0.  1.
          6    1    1    2  501    0 -0.13045675910E+03 -0.12503161174E+03  0.16509777163E+03  0.29973011882E+03  0.17300000000E+03 0.  1.
         -6    1    1    2    0  503  0.13045675910E+03  0.12503161174E+03  0.15636239767E+03  0.29500859197E+03  0.17300000000E+03 0.  1.
<mgrwt>
<rscale>  2 0.25016169E+03</rscale>
<asrwt>0</asrwt>
<pdfrwt beam="1">  1       21 0.70476836E-01 0.25016169E+03</pdfrwt>
<pdfrwt beam="2">  1       21 0.21021426E-01 0.25016169E+03</pdfrwt>
<totfact> 0.37334181E+04</totfact>
</mgrwt>
</event>
<event>
 4    1  0.4495571E+000  0.2791750E+03  0.7546771E-02  0.1096140E+00
         21   -1    0    0  503  502  0.00000000000E+00  0.00000000000E+00  0.13444651672E+04  0.13444651672E+04  0.00000000000E+00 0.  1.
         21   -1    0    0  501  503 -0.00000000000E+00 -0.00000000000E+00 -0.10609245126E+03  0.10609245126E+03  0.00000000000E+00 0.  1.
          6    1    1    2  501    0 -0.16314772807E+03  0.14626168793E+03  0.13071785960E+03  0.30826258506E+03  0.17300000000E+03 0.  1.
         -6    1    1    2    0  502  0.16314772807E+03 -0.14626168793E+03  0.11076548563E+04  0.11422950334E+04  0.17300000000E+03 0.  1.
<mgrwt>
<rscale>  2 0.27917497E+03</rscale>
<asrwt>0</asrwt>
<pdfrwt beam="1">  1       21 0.20684078E+00 0.27917497E+03</pdfrwt>
<pdfrwt beam="2">  1       21 0.16321917E-01 0.27917497E+03</pdfrwt>
<totfact> 0.38045835E+03</totfact>
</mgrwt>
</event>
<event>
 4    1  0.4495571E+000  0.2882899E+03  0.7546771E-02  0.1091245E+00
         21   -1    0    0  501  502  0.00000000000E+00  0.00000000000E+00  0.15786770519E+04  0.15786770519E+04  0.00000000000E+00 0. -1.
         21   -1    0    0  502  503 -0.00000000000E+00 -0.00000000000E+00 -0.12395475130E+03  0.12395475130E+03  0.00000000000E+00 0. -1.
          6    1    1    2  501    0  0.21715260291E+02  0.22958767217E+03  0.13730607754E+04  0.14029992675E+04  0.17300000000E+03 0. -1.
         -6    1    1    2    0  503 -0.21715260291E+02 -0.22958767217E+03  0.81661525227E+02  0.29963253569E+03  0.17300000000E+03 0. -1.
<mgrwt>
<rscale>  2 0.28828987E+03</rscale>
<asrwt>0</asrwt>
<pdfrwt beam="1">  1       21 0.24287338E+00 0.28828987E+03</pdfrwt>
<pdfrwt beam="2">  1       21 0.19069963E-01 0.28828987E+03</pdfrwt>
<totfact> 0.16887482E+03</totfact>
</mgrwt>
</event>
<event>
 4    1  0.4495571E+000  0.2059630E+03  0.7546771E-02  0.1144803E+00
         21   -1    0    0  503  502  0.00000000000E+00  0.00000000000E+00  0.22437033967E+03  0.22437033967E+03  0.00000000000E+00 0.  1.
         21   -1    0    0  501  503 -0.00000000000E+00 -0.00000000000E+00 -0.40857095165E+03  0.40857095165E+03  0.00000000000E+00 0.  1.
          6    1    1    2  501    0  0.74122746534E+02  0.83651465751E+02 -0.32406510554E+03  0.38397778830E+03  0.17300000000E+03 0.  1.
         -6    1    1    2    0  502 -0.74122746534E+02 -0.83651465751E+02  0.13986449357E+03  0.24896350302E+03  0.17300000000E+03 0.  1.
<mgrwt>
<rscale>  2 0.20596298E+03</rscale>
<asrwt>0</asrwt>
<pdfrwt beam="1">  1       21 0.34518514E-01 0.20596298E+03</pdfrwt>
<pdfrwt beam="2">  1       21 0.62857070E-01 0.20596298E+03</pdfrwt>
<totfact> 0.18806483E+04</totfact>
</mgrwt>
</event>
<event>
 4    1  0.4495571E+000  0.2949976E+03  0.7546771E-02  0.1087768E+00
         21   -1    0    0  503  502  0.00000000000E+00  0.00000000000E+00  0.34110166244E+03  0.34110166244E+03  0.00000000000E+00 0. -1.
         21   -1    0    0  501  503 -0.00000000000E+00 -0.00000000000E+00 -0.25514198481E+03  0.25514198481E+03  0.00000000000E+00 0. -1.
          6    1    1    2  501    0  0.21902066373E+03  0.95522400353E+02  0.45408346109E+02  0.29847193839E+03  0.17300000000E+03 0. -1.
         -6    1    1    2    0  502 -0.21902066373E+03 -0.95522400353E+02  0.40551331525E+02  0.29777170886E+03  0.17300000000E+03 0. -1.
<mgrwt>
<rscale>  2 0.29499759E+03</rscale>
<asrwt>0</asrwt>
<pdfrwt beam="1">  1       21 0.52477179E-01 0.29499759E+03</pdfrwt>
<pdfrwt beam="2">  1       21 0.39252613E-01 0.29499759E+03</pdfrwt>
<totfact> 0.20483172E+04</totfact>
</mgrwt>
</event>
<event>
 4    1  0.4495571E+000  0.1906479E+03  0.7546771E-02  0.1157878E+00
         21   -1    0    0  503  502  0.00000000000E+00  0.00000000000E+00  0.26080266759E+04  0.26080266759E+04  0.00000000000E+00 0.  1.
         21   -1    0    0  501  503 -0.00000000000E+00 -0.00000000000E+00 -0.21047802744E+02  0.21047802744E+02  0.00000000000E+00 0.  1.
          6    1    1    2  501    0 -0.39538972893E+02  0.69672864220E+02  0.52939759404E+03  0.56267970548E+03  0.17300000000E+03 0. -1.
         -6    1    1    2    0  502  0.39538972893E+02 -0.69672864220E+02  0.20575812791E+04  0.20663947732E+04  0.17300000000E+03 0. -1.
<mgrwt>
<rscale>  2 0.19064794E+03</rscale>
<asrwt>0</asrwt>
<pdfrwt beam="1">  1       21 0.40123462E+00 0.19064794E+03</pdfrwt>
<pdfrwt beam="2">  1       21 0.32381256E-02 0.19064794E+03</pdfrwt>
<totfact> 0.47847413E+03</totfact>
</mgrwt>
</event>
<event>
 4    1  0.4495571E+000  0.2577525E+03  0.7546771E-02  0.1108501E+00
         21   -1    0    0  503  502  0.00000000000E+00  0.00000000000E+00  0.78454758649E+03  0.78454758649E+03  0.00000000000E+00 0. -1.
         21   -1    0    0  501  503 -0.00000000000E+00 -0.00000000000E+00 -0.84806816776E+02  0.84806816776E+02  0.00000000000E+00 0.  1.
          6    1    1    2  501    0 -0.42415790528E+02  0.18630145484E+03  0.36660805146E+03  0.44814929963E+03  0.17300000000E+03 0.  1.
         -6    1    1    2    0  502  0.42415790528E+02 -0.18630145484E+03  0.33313271825E+03  0.42120510364E+03  0.17300000000E+03 0.  1.
<mgrwt>
<rscale>  2 0.25775246E+03</rscale>
<asrwt>0</asrwt>
<pdfrwt beam="1">  1       21 0.12069962E+00 0.25775246E+03</pdfrwt>
<pdfrwt beam="2">  1       21 0.13047203E-01 0.25775246E+03</pdfrwt>
<totfact> 0.25369503E+04</totfact>
</mgrwt>
</event>
<event>
 4    1  0.4495571E+000  0.2022435E+03  0.7546771E-02  0.1147860E+00
         21   -1    0    0  501  502  0.00000000000E+00  0.00000000000E+00  0.14327660790E+03  0.14327660790E+03  0.00000000000E+00 0. -1.
         21   -1    0    0  502  503 -0.00000000000E+00 -0.00000000000E+00 -0.34424243961E+03  0.34424243961E+03  0.00000000000E+00 0. -1.
          6    1    1    2  501    0 -0.35567390136E+02  0.98531128471E+02  0.22973542689E+00  0.20224360385E+03  0.17300000000E+03 0. -1.
         -6    1    1    2    0  503  0.35567390136E+02 -0.98531128471E+02 -0.20119556714E+03  0.28527544366E+03  0.17300000000E+03 0. -1.
<mgrwt>
<rscale>  2 0.20224347E+03</rscale>
<asrwt>0</asrwt>
<pdfrwt beam="1">  1       21 0.22042555E-01 0.20224347E+03</pdfrwt>
<pdfrwt beam="2">  1       21 0.52960375E-01 0.20224347E+03</pdfrwt>
<totfact> 0.64683634E+04</totfact>
</mgrwt>
</event>
<event>
 4    1  0.4495571E+000  0.1831101E+03  0.7546771E-02  0.1164827E+00
         21   -1    0    0  501  502  0.00000000000E+00  0.00000000000E+00  0.80419961018E+02  0.80419961018E+02  0.00000000000E+00 0.  1.
         21   -1    0    0  502  503 -0.00000000000E+00 -0.00000000000E+00 -0.10023412338E+04  0.10023412338E+04  0.00000000000E+00 0.  1.
          6    1    1    2  501    0 -0.11014502232E+02 -0.58982818572E+02 -0.47221744048E+02  0.18910099222E+03  0.17300000000E+03 0.  1.
         -6    1    1    2    0  503  0.11014502232E+02  0.58982818572E+02 -0.87469952871E+03  0.89366020258E+03  0.17300000000E+03 0.  1.
<mgrwt>
<rscale>  2 0.18311005E+03</rscale>
<asrwt>0</asrwt>
<pdfrwt beam="1">  1       21 0.12372302E-01 0.18311005E+03</pdfrwt>
<pdfrwt beam="2">  1       21 0.15420634E+00 0.18311005E+03</pdfrwt>
<totfact> 0.15541197E+04</totfact>
</mgrwt>
</event>
<event>
 4    1  0.4495571E+000  0.1737185E+03  0.7546771E-02  0.1174025E+00
         21   -1    0    0  501  502  0.00000000000E+00  0.00000000000E+00  0.15296854217E+03  0.15296854217E+03  0.00000000000E+00 0.  1.
         21   -1    0    0  502  503 -0.00000000000E+00 -0.00000000000E+00 -0.23729323673E+03  0.23729323673E+03  0.00000000000E+00 0.  1.
          6    1    1    2  501    0 -0.70308127376E+01  0.14131316993E+02  0.37962592184E+02  0.17781812296E+03  0.17300000000E+03 0.  1.
         -6    1    1    2    0  503  0.70308127376E+01 -0.14131316993E+02 -0.12228728675E+03  0.21244365594E+03  0.17300000000E+03 0.  1.
<mgrwt>
<rscale>  2 0.17371853E+03</rscale>
<asrwt>0</asrwt>
<pdfrwt beam="1">  1       21 0.23533622E-01 0.17371853E+03</pdfrwt>
<pdfrwt beam="2">  1       21 0.36506652E-01 0.17371853E+03</pdfrwt>
<totfact> 0.12379046E+05</totfact>
</mgrwt>
</event>
<event>
 4    1  0.4495571E+000  0.2690827E+03  0.7546771E-02  0.1101806E+00
         21   -1    0    0  503  502  0.00000000000E+00  0.00000000000E+00  0.44585086183E+03  0.44585086183E+03  0.00000000000E+00 0.  1.
         21   -1    0    0  501  503 -0.00000000000E+00 -0.00000000000E+00 -0.18410568807E+03  0.18410568807E+03  0.00000000000E+00 0. -1.
          6    1    1    2  501    0  0.19889293585E+03  0.54019679575E+02  0.22717125216E+02  0.27003998498E+03  0.17300000000E+03 0. -1.
         -6    1    1    2    0  502 -0.19889293585E+03 -0.54019679575E+02  0.23902804855E+03  0.35991656492E+03  0.17300000000E+03 0.  1.
<mgrwt>
<rscale>  2 0.26908275E+03</rscale>
<asrwt>0</asrwt>
<pdfrwt beam="1">  1       21 0.68592440E-01 0.26908275E+03</pdfrwt>
<pdfrwt beam="2">  1       21 0.28323952E-01 0.26908275E+03</pdfrwt>
<totfact> 0.22194176E+04</totfact>
</mgrwt>
</event>
<event>
 4    1  0.4495571E+000  0.1789935E+03  0.7546771E-02  0.1168781E+00
         21   -1    0    0  501  502  0.00000000000E+00  0.00000000000E+00  0.89301861415E+03  0.89301861415E+03  0.00000000000E+00 0. -1.
         21   -1    0    0  502  503 -0.00000000000E+00 -0.00000000000E+00 -0.35935695298E+02  0.35935695298E+02  0.00000000000E+00 0. -1.
          6    1    1    2  501    0  0.23616694349E+02 -0.39394268751E+02  0.40973898415E+03  0.44712939044E+03  0.17300000000E+03 0. -1.
         -6    1    1    2    0  503 -0.23616694349E+02  0.39394268751E+02  0.44734393470E+03  0.48182491901E+03  0.17300000000E+03 0. -1.
<mgrwt>
<rscale>  2 0.17899345E+03</rscale>
<asrwt>0</asrwt>
<pdfrwt beam="1">  1       21 0.13738746E+00 0.17899345E+03</pdfrwt>
<pdfrwt beam="2">  1       21 0.55285692E-02 0.17899345E+03</pdfrwt>
<totfact> 0.85732895E+04</totfact>
</mgrwt>
</event>
<event>
 4    1  0.4495571E+000  0.1793806E+03  0.7546771E-02  0.1168404E+00
         21   -1    0    0  501  502  0.00000000000E+00  0.00000000000E+00  0.11638530371E+03  0.11638530371E+03  0.00000000000E+00 0.  1.
         21   -1    0    0  502  503 -0.00000000000E+00 -0.00000000000E+00 -0.47241051743E+03  0.47241051743E+03  0.00000000000E+00 0. -1.
          6    1    1    2  501    0 -0.32886966011E+02 -0.34159115480E+02  0.11585375061E+02  0.17975432851E+03  0.17300000000E+03 0.  1.
         -6    1    1    2    0  503  0.32886966011E+02  0.34159115480E+02 -0.36761058878E+03  0.40904149262E+03  0.17300000000E+03 0. -1.
<mgrwt>
<rscale>  2 0.17938059E+03</rscale>
<asrwt>0</asrwt>
<pdfrwt beam="1">  1       21 0.17905431E-01 0.17938059E+03</pdfrwt>
<pdfrwt beam="2">  1       21 0.72678541E-01 0.17938059E+03</pdfrwt>
<totfact> 0.48654742E+04</totfact>
</mgrwt>
</event>
<event>
 4    1  0.4495571E+000  0.3792527E+03  0.7546771E-02  0.1051210E+00
         21   -1    0    0  501  502  0.00000000000E+00  0.00000000000E+00  0.55871642117E+03  0.55871642117E+03  0.00000000000E+00 0. -1.
         21   -1    0    0  502  503 -0.00000000000E+00 -0.00000000000E+00 -0.33674787531E+03  0.33674787531E+03  0.00000000000E+00 0.  1.
          6    1    1    2  501    0  0.33691627298E+03  0.19774353570E+02  0.32827462675E+03  0.50159428887E+03  0.17300000000E+03 0. -1.
         -6    1    1    2    0  503 -0.33691627298E+03 -0.19774353570E+02 -0.10630608090E+03  0.39387000761E+03  0.17300000000E+03 0.  1.
<mgrwt>
<rscale>  2 0.37925269E+03</rscale>
<asrwt>0</asrwt>
<pdfrwt beam="1">  1       21 0.85956373E-01 0.37925269E+03</pdfrwt>
<pdfrwt beam="2">  1       21 0.51807365E-01 0.37925269E+03</pdfrwt>
<totfact> 0.37079450E+03</totfact>
</mgrwt>
</event>
<event>
 4    1  0.4495571E+000  0.2801713E+03  0.7546771E-02  0.1095595E+00
         21   -1    0    0  503  502  0.00000000000E+00  0.00000000000E+00  0.69185011936E+03  0.69185011936E+03  0.00000000000E+00 0.  1.
         21   -1    0    0  501  503 -0.00000000000E+00 -0.00000000000E+00 -0.15687763177E+03  0.15687763177E+03  0.00000000000E+00 0. -1.
          6    1    1    2  501    0  0.87818123344E+02  0.20212602866E+03  0.44231449711E+02  0.28364127943E+03  0.17300000000E+03 0. -1.
         -6    1    1    2    0  502 -0.87818123344E+02 -0.20212602866E+03  0.49074103787E+03  0.56508647171E+03  0.17300000000E+03 0.  1.
<mgrwt>
<rscale>  2 0.28017129E+03</rscale>
<asrwt>0</asrwt>
<pdfrwt beam="1">  1       21 0.10643848E+00 0.28017129E+03</pdfrwt>
<pdfrwt beam="2">  1       21 0.24135021E-01 0.28017129E+03</pdfrwt>
<totfact> 0.10872153E+04</totfact>
</mgrwt>
</event>
<event>
 4    1  0.4495571E+000  0.2076601E+03  0.7546771E-02  0.1143432E+00
         21   -1    0    0  503  502  0.00000000000E+00  0.00000000000E+00  0.35555096927E+03  0.35555096927E+03  0.00000000000E+00 0. -1.
         21   -1    0    0  501  503 -0.00000000000E+00 -0.00000000000E+00 -0.27903840040E+03  0.27903840040E+03  0.00000000000E+00 0. -1.
          6    1    1    2  501    0  0.10209035833E+03  0.52642991239E+02 -0.20031668374E+03  0.28852989373E+03  0.17300000000E+03 0. -1.
         -6    1    1    2    0  502 -0.10209035833E+03 -0.52642991239E+02  0.27682925261E+03  0.34605947594E+03  0.17300000000E+03 0. -1.
<mgrwt>
<rscale>  2 0.20766012E+03</rscale>
<asrwt>0</asrwt>
<pdfrwt beam="1">  1       21 0.54700149E-01 0.20766012E+03</pdfrwt>
<pdfrwt beam="2">  1       21 0.42928985E-01 0.20766012E+03</pdfrwt>
<totfact> 0.16313327E+04</totfact>
</mgrwt>
</event>
<event>
 4    1  0.4495571E+000  0.1856996E+03  0.7546771E-02  0.1162398E+00
         21   -1    0    0  503  502  0.00000000000E+00  0.00000000000E+00  0.13357635274E+03  0.13357635274E+03  0.00000000000E+00 0.  1.
         21   -1    0    0  501  503 -0.00000000000E+00 -0.00000000000E+00 -0.42152134114E+03  0.42152134114E+03  0.00000000000E+00 0.  1.
          6    1    1    2  501    0 -0.22755253497E+02  0.63541546398E+02 -0.31675577530E+03  0.36717645740E+03  0.17300000000E+03 0. -1.
         -6    1    1    2    0  502  0.22755253497E+02 -0.63541546398E+02  0.28810786903E+02  0.18792123649E+03  0.17300000000E+03 0. -1.
<mgrwt>
<rscale>  2 0.18569957E+03</rscale>
<asrwt>0</asrwt>
<pdfrwt beam="1">  1       21 0.20550209E-01 0.18569957E+03</pdfrwt>
<pdfrwt beam="2">  1       21 0.64849436E-01 0.18569957E+03</pdfrwt>
<totfact> 0.48221483E+04</totfact>
</mgrwt>
</event>
<event>
 4    1  0.4495571E+000  0.2102550E+03  0.7546771E-02  0.1141364E+00
         21   -1    0    0  503  502  0.00000000000E+00  0.00000000000E+00  0.12633719027E+03  0.12633719027E+03  0.00000000000E+00 0. -1.
         21   -1    0    0  501  503 -0.00000000000E+00 -0.00000000000E+00 -0.66510468347E+03  0.66510468347E+03  0.00000000000E+00 0. -1.
          6    1    1    2  501    0  0.10466460319E+03 -0.57649539478E+02 -0.54179856509E+03  0.58116506579E+03  0.17300000000E+03 0. -1.
         -6    1    1    2    0  502 -0.10466460319E+03  0.57649539478E+02  0.30310718928E+01  0.21027680795E+03  0.17300000000E+03 0. -1.
<mgrwt>
<rscale>  2 0.21025496E+03</rscale>
<asrwt>0</asrwt>
<pdfrwt beam="1">  1       21 0.19436490E-01 0.21025496E+03</pdfrwt>
<pdfrwt beam="2">  1       21 0.10232380E+00 0.21025496E+03</pdfrwt>
<totfact> 0.18716489E+04</totfact>
</mgrwt>
</event>
<event>
 4    1  0.4495571E+000  0.2256040E+03  0.7546771E-02  0.1129773E+00
         21   -1    0    0  503  502  0.00000000000E+00  0.00000000000E+00  0.54362301285E+03  0.54362301285E+03  0.00000000000E+00 0. -1.
         21   -1    0    0  501  503 -0.00000000000E+00 -0.00000000000E+00 -0.29562667835E+03  0.29562667835E+03  0.00000000000E+00 0. -1.
          6    1    1    2  501    0  0.13113635613E+03 -0.61411969854E+02 -0.22287119625E+03  0.31712575433E+03  0.17300000000E+03 0. -1.
         -6    1    1    2    0  502 -0.13113635613E+03  0.61411969854E+02  0.47086753075E+03  0.52212393687E+03  0.17300000000E+03 0. -1.
<mgrwt>
<rscale>  2 0.22560402E+03</rscale>
<asrwt>0</asrwt>
<pdfrwt beam="1">  1       21 0.83634310E-01 0.22560402E+03</pdfrwt>
<pdfrwt beam="2">  1       21 0.45481028E-01 0.22560402E+03</pdfrwt>
<totfact> 0.56272329E+03</totfact>
</mgrwt>
</event>
<event>
 4    1  0.4495571E+000  0.1904731E+03  0.7546771E-02  0.1158035E+00
         21   -1    0    0  501  502  0.00000000000E+00  0.00000000000E+00  0.30623477674E+03  0.30623477674E+03  0.00000000000E+00 0.  1.
         21   -1    0    0  502  503 -0.00000000000E+00 -0.00000000000E+00 -0.18911245245E+03  0.18911245245E+03  0.00000000000E+00 0.  1.
          6    1    1    2  501    0 -0.66293889718E+02 -0.44228068645E+02  0.20993431980E+03  0.28346502518E+03  0.17300000000E+03 0.  1.
         -6    1    1    2    0  503  0.66293889718E+02  0.44228068645E+02 -0.92811995499E+02  0.21188220402E+03  0.17300000000E+03 0.  1.
<mgrwt>
<rscale>  2 0.19047310E+03</rscale>
<asrwt>0</asrwt>
<pdfrwt beam="1">  1       21 0.47113043E-01 0.19047310E+03</pdfrwt>
<pdfrwt beam="2">  1       21 0.29094223E-01 0.19047310E+03</pdfrwt>
<totfact> 0.48815964E+04</totfact>
</mgrwt>
</event>
<event>
 4    1  0.4495571E+000  0.2183145E+03  0.7546771E-02  0.1135146E+00
         21   -1    0    0  503  502  0.00000000000E+00  0.00000000000E+00  0.17065093919E+04  0.17065093919E+04  0.00000000000E+00 0. -1.
         21   -1    0    0  501  503 -0.00000000000E+00 -0.00000000000E+00 -0.52897632663E+02  0.52897632663E+02  0.00000000000E+00 0.  1.
          6    1    1    2  501    0  0.68183512123E+02 -0.11438188496E+03  0.22241897348E+03  0.31165911938E+03  0.17300000000E+03 0.  1.
         -6    1    1    2    0  502 -0.68183512123E+02  0.11438188496E+03  0.14311927857E+04  0.14477479051E+04  0.17300000000E+03 0. -1.
<mgrwt>
<rscale>  2 0.21831447E+03</rscale>
<asrwt>0</asrwt>
<pdfrwt beam="1">  1       21 0.26253986E+00 0.21831447E+03</pdfrwt>
<pdfrwt beam="2">  1       21 0.81380986E-02 0.21831447E+03</pdfrwt>
<totfact> 0.63776329E+03</totfact>
</mgrwt>
</event>
<event>
 4    1  0.4495571E+000  0.1970042E+03  0.7546771E-02  0.1152291E+00
         21   -1    0    0  501  502  0.00000000000E+00  0.00000000000E+00  0.18776515105E+03  0.18776515105E+03  0.00000000000E+00 0.  1.
         21   -1    0    0  502  503 -0.00000000000E+00 -0.00000000000E+00 -0.30999367205E+03  0.30999367205E+03  0.00000000000E+00 0.  1.
          6    1    1    2  501    0  0.91657332053E+02  0.21922058877E+02  0.82551754413E+02  0.21360111269E+03  0.17300000000E+03 0.  1.
         -6    1    1    2    0  503 -0.91657332053E+02 -0.21922058877E+02 -0.20478027542E+03  0.28415771041E+03  0.17300000000E+03 0.  1.
<mgrwt>
<rscale>  2 0.19700417E+03</rscale>
<asrwt>0</asrwt>
<pdfrwt beam="1">  1       21 0.28886946E-01 0.19700417E+03</pdfrwt>
<pdfrwt beam="2">  1       21 0.47691334E-01 0.19700417E+03</pdfrwt>
<totfact> 0.48111097E+04</totfact>
</mgrwt>
</event>
<event>
 4    1  0.4495571E+000  0.1952094E+03  0.7546771E-02  0.1153845E+00
         21   -1    0    0  503  502  0.00000000000E+00  0.00000000000E+00  0.14544465032E+03  0.14544465032E+03  0.00000000000E+00 0. -1.
         21   -1    0    0  501  503 -0.00000000000E+00 -0.00000000000E+00 -0.26201024294E+03  0.26201024294E+03  0.00000000000E+00 0. -1.
          6    1    1    2  501    0 -0.87715303129E+02 -0.21994365546E+02 -0.59455019428E+02  0.20406279880E+03  0.17300000000E+03 0.  1.
         -6    1    1    2    0  502  0.87715303129E+02  0.21994365546E+02 -0.57110573194E+02  0.20339209446E+03  0.17300000000E+03 0.  1.
<mgrwt>
<rscale>  2 0.19520944E+03</rscale>
<asrwt>0</asrwt>
<pdfrwt beam="1">  1       21 0.22376100E-01 0.19520944E+03</pdfrwt>
<pdfrwt beam="2">  1       21 0.40309268E-01 0.19520944E+03</pdfrwt>
<totfact> 0.11076826E+05</totfact>
</mgrwt>
</event>
<event>
 4    1  0.4495571E+000  0.1981513E+03  0.7546771E-02  0.1151308E+00
         21   -1    0    0  501  502  0.00000000000E+00  0.00000000000E+00  0.19584464680E+03  0.19584464680E+03  0.00000000000E+00 0. -1.
         21   -1    0    0  502  503 -0.00000000000E+00 -0.00000000000E+00 -0.26034363568E+03  0.26034363568E+03  0.00000000000E+00 0. -1.
          6    1    1    2  501    0 -0.38276700070E+02  0.88712068381E+02  0.77121870380E+02  0.21263047697E+03  0.17300000000E+03 0. -1.
         -6    1    1    2    0  503  0.38276700070E+02 -0.88712068381E+02 -0.14162085926E+03  0.24355780550E+03  0.17300000000E+03 0. -1.
<mgrwt>
<rscale>  2 0.19815130E+03</rscale>
<asrwt>0</asrwt>
<pdfrwt beam="1">  1       21 0.30129946E-01 0.19815130E+03</pdfrwt>
<pdfrwt beam="2">  1       21 0.40052867E-01 0.19815130E+03</pdfrwt>
<totfact> 0.63320498E+04</totfact>
</mgrwt>
</event>
<event>
 4    1  0.4495571E+000  0.1808025E+03  0.7546771E-02  0.1167029E+00
         21   -1    0    0  503  502  0.00000000000E+00  0.00000000000E+00  0.25920693102E+03  0.25920693102E+03  0.00000000000E+00 0.  1.
         21   -1    0    0  501  503 -0.00000000000E+00 -0.00000000000E+00 -0.19822267837E+03  0.19822267837E+03  0.00000000000E+00 0.  1.
          6    1    1    2  501    0  0.51050065386E+02  0.12426545119E+02 -0.10745494207E+03  0.21032378081E+03  0.17300000000E+03 0.  1.
         -6    1    1    2    0  502 -0.51050065386E+02 -0.12426545119E+02  0.16843919471E+03  0.24710582857E+03  0.17300000000E+03 0.  1.
<mgrwt>
<rscale>  2 0.18080246E+03</rscale>
<asrwt>0</asrwt>
<pdfrwt beam="1">  1       21 0.39877989E-01 0.18080246E+03</pdfrwt>
<pdfrwt beam="2">  1       21 0.30495797E-01 0.18080246E+03</pdfrwt>
<totfact> 0.62878149E+04</totfact>
</mgrwt>
</event>
<event>
 4    1  0.4495571E+000  0.2401165E+03  0.7546771E-02  0.1119715E+00
         21   -1    0    0  503  502  0.00000000000E+00  0.00000000000E+00  0.80818567632E+03  0.80818567632E+03  0.00000000000E+00 0. -1.
         21   -1    0    0  501  503 -0.00000000000E+00 -0.00000000000E+00 -0.14537871439E+03  0.14537871439E+03  0.00000000000E+00 0.  1.
          6    1    1    2  501    0  0.11077346418E+03 -0.12432284892E+03 -0.88473375558E+01  0.24027943422E+03  0.17300000000E+03 0.  1.
         -6    1    1    2    0  502 -0.11077346418E+03  0.12432284892E+03  0.67165429949E+03  0.71328495649E+03  0.17300000000E+03 0. -1.
<mgrwt>
<rscale>  2 0.24011649E+03</rscale>
<asrwt>0</asrwt>
<pdfrwt beam="1">  1       21 0.12433625E+00 0.24011649E+03</pdfrwt>
<pdfrwt beam="2">  1       21 0.22365957E-01 0.24011649E+03</pdfrwt>
<totfact> 0.87557803E+03</totfact>
</mgrwt>
</event>
<event>
 4    1  0.4495571E+000  0.3160140E+03  0.7546771E-02  0.1077499E+00
         21   -1    0    0  503  502  0.00000000000E+00  0.00000000000E+00  0.20858832719E+04  0.20858832719E+04  0.00000000000E+00 0.  1.
         21   -1    0    0  501  503 -0.00000000000E+00 -0.00000000000E+00 -0.60225550561E+02  0.60225550561E+02  0.00000000000E+00 0.  1.
          6    1    1    2  501    0 -0.25553183966E+03 -0.68112375941E+02  0.52692772186E+03  0.61442464217E+03  0.17300000000E+03 0.  1.
         -6    1    1    2    0  502  0.25553183966E+03  0.68112375941E+02  0.14987299995E+04  0.15316841803E+04  0.17300000000E+03 0.  1.
<mgrwt>
<rscale>  2 0.31601395E+03</rscale>
<asrwt>0</asrwt>
<pdfrwt beam="1">  1       21 0.32090506E+00 0.31601395E+03</pdfrwt>
<pdfrwt beam="2">  1       21 0.92654709E-02 0.31601395E+03</pdfrwt>
<totfact> 0.21213631E+03</totfact>
</mgrwt>
</event>
<event>
 4    1  0.4495571E+000  0.2910725E+03  0.7546771E-02  0.1089791E+00
         21   -1    0    0  501  502  0.00000000000E+00  0.00000000000E+00  0.91711477820E+03  0.91711477820E+03  0.00000000000E+00 0.  1.
         21   -1    0    0  502  503 -0.00000000000E+00 -0.00000000000E+00 -0.16262926979E+03  0.16262926979E+03  0.00000000000E+00 0.  1.
          6    1    1    2  501    0  0.14656991950E+03 -0.18251421564E+03  0.73206593097E+03  0.78780943603E+03  0.17300000000E+03 0.  1.
         -6    1    1    2    0  503 -0.14656991950E+03  0.18251421564E+03  0.22419577445E+02  0.29193461197E+03  0.17300000000E+03 0.  1.
<mgrwt>
<rscale>  2 0.29107247E+03</rscale>
<asrwt>0</asrwt>
<pdfrwt beam="1">  1       21 0.14109458E+00 0.29107247E+03</pdfrwt>
<pdfrwt beam="2">  1       21 0.25019888E-01 0.29107247E+03</pdfrwt>
<totfact> 0.49572038E+03</totfact>
</mgrwt>
</event>
<event>
 4    1  0.4495571E+000  0.2288426E+03  0.7546771E-02  0.1127457E+00
         21   -1    0    0  501  502  0.00000000000E+00  0.00000000000E+00  0.25054911381E+02  0.25054911381E+02  0.00000000000E+00 0.  1.
         21   -1    0    0  502  503 -0.00000000000E+00 -0.00000000000E+00 -0.21390795382E+04  0.21390795382E+04  0.00000000000E+00 0. -1.
          6    1    1    2  501    0  0.11489058435E+03 -0.96125494407E+02 -0.12206372317E+04  0.12419034618E+04  0.17300000000E+03 0.  1.
         -6    1    1    2    0  503 -0.11489058435E+03  0.96125494407E+02 -0.89338739515E+03  0.92223098780E+03  0.17300000000E+03 0.  1.
<mgrwt>
<rscale>  2 0.22884265E+03</rscale>
<asrwt>0</asrwt>
<pdfrwt beam="1">  1       21 0.38545994E-02 0.22884265E+03</pdfrwt>
<pdfrwt beam="2">  1       21 0.32908936E+00 0.22884265E+03</pdfrwt>
<totfact> 0.92960050E+03</totfact>
</mgrwt>
</event>
<event>
 4    1  0.4495571E+000  0.1849769E+03  0.7546771E-02  0.1163071E+00
         21   -1    0    0  503  502  0.00000000000E+00  0.00000000000E+00  0.88005059209E+02  0.88005059209E+02  0.00000000000E+00 0. -1.
         21   -1    0    0  501  503 -0.00000000000E+00 -0.00000000000E+00 -0.62090058355E+03  0.62090058355E+03  0.00000000000E+00 0. -1.
          6    1    1    2  501    0  0.27952782560E+02  0.59212407407E+02 -0.48316050774E+03  0.51735920160E+03  0.17300000000E+03 0. -1.
         -6    1    1    2    0  502 -0.27952782560E+02 -0.59212407407E+02 -0.49735016603E+02  0.19154644116E+03  0.17300000000E+03 0. -1.
<mgrwt>
<rscale>  2 0.18497694E+03</rscale>
<asrwt>0</asrwt>
<pdfrwt beam="1">  1       21 0.13539239E-01 0.18497694E+03</pdfrwt>
<pdfrwt beam="2">  1       21 0.95523170E-01 0.18497694E+03</pdfrwt>
<totfact> 0.43369490E+04</totfact>
</mgrwt>
</event>
<event>
 4    1  0.4495571E+000  0.1791735E+03  0.7546771E-02  0.1168605E+00
         21   -1    0    0  501  502  0.00000000000E+00  0.00000000000E+00  0.10645021719E+03  0.10645021719E+03  0.00000000000E+00 0.  1.
         21   -1    0    0  502  503 -0.00000000000E+00 -0.00000000000E+00 -0.30241366237E+03  0.30241366237E+03  0.00000000000E+00 0.  1.
          6    1    1    2  501    0  0.42875902082E+02 -0.18324910099E+02 -0.10872198883E+03  0.20957961772E+03  0.17300000000E+03 0.  1.
         -6    1    1    2    0  503 -0.42875902082E+02  0.18324910099E+02 -0.87241456354E+02  0.19928426184E+03  0.17300000000E+03 0.  1.
<mgrwt>
<rscale>  2 0.17917351E+03</rscale>
<asrwt>0</asrwt>
<pdfrwt beam="1">  1       21 0.16376957E-01 0.17917351E+03</pdfrwt>
<pdfrwt beam="2">  1       21 0.46525178E-01 0.17917351E+03</pdfrwt>
<totfact> 0.14847909E+05</totfact>
</mgrwt>
</event>
<event>
 4    1  0.4495571E+000  0.1805337E+03  0.7546771E-02  0.1167288E+00
         21   -1    0    0  503  502  0.00000000000E+00  0.00000000000E+00  0.10912447773E+03  0.10912447773E+03  0.00000000000E+00 0.  1.
         21   -1    0    0  501  503 -0.00000000000E+00 -0.00000000000E+00 -0.41526008595E+03  0.41526008595E+03  0.00000000000E+00 0. -1.
          6    1    1    2  501    0  0.49867908437E+02 -0.13288915520E+02 -0.29199500249E+03  0.34329795375E+03  0.17300000000E+03 0. -1.
         -6    1    1    2    0  502 -0.49867908437E+02  0.13288915520E+02 -0.14140605724E+02  0.18108660994E+03  0.17300000000E+03 0.  1.
<mgrwt>
<rscale>  2 0.18053366E+03</rscale>
<asrwt>0</asrwt>
<pdfrwt beam="1">  1       21 0.16788381E-01 0.18053366E+03</pdfrwt>
<pdfrwt beam="2">  1       21 0.63886168E-01 0.18053366E+03</pdfrwt>
<totfact> 0.72615240E+04</totfact>
</mgrwt>
</event>
<event>
 4    1  0.4495571E+000  0.1913362E+03  0.7546771E-02  0.1157262E+00
         21   -1    0    0  501  502  0.00000000000E+00  0.00000000000E+00  0.20548896507E+03  0.20548896507E+03  0.00000000000E+00 0.  1.
         21   -1    0    0  502  503 -0.00000000000E+00 -0.00000000000E+00 -0.48791752544E+03  0.48791752544E+03  0.00000000000E+00 0.  1.
          6    1    1    2  501    0  0.34814599678E+02  0.73949078399E+02  0.13503233574E+03  0.23418636647E+03  0.17300000000E+03 0.  1.
         -6    1    1    2    0  503 -0.34814599678E+02 -0.73949078399E+02 -0.41746089611E+03  0.45922012404E+03  0.17300000000E+03 0.  1.
<mgrwt>
<rscale>  2 0.19133615E+03</rscale>
<asrwt>0</asrwt>
<pdfrwt beam="1">  1       21 0.31613687E-01 0.19133615E+03</pdfrwt>
<pdfrwt beam="2">  1       21 0.75064234E-01 0.19133615E+03</pdfrwt>
<totfact> 0.15277320E+04</totfact>
</mgrwt>
</event>
<event>
 4    1  0.4495571E+000  0.1855903E+03  0.7546771E-02  0.1162500E+00
         21   -1    0    0  503  502  0.00000000000E+00  0.00000000000E+00  0.14914743535E+03  0.14914743535E+03  0.00000000000E+00 0.  1.
         21   -1    0    0  501  503 -0.00000000000E+00 -0.00000000000E+00 -0.23098051252E+03  0.23098051252E+03  0.00000000000E+00 0.  1.
          6    1    1    2  501    0  0.67109344627E+02  0.33305666404E+01 -0.38327139562E+02  0.18950653402E+03  0.17300000000E+03 0.  1.
         -6    1    1    2    0  502 -0.67109344627E+02 -0.33305666404E+01 -0.43505937602E+02  0.19062141385E+03  0.17300000000E+03 0.  1.
<mgrwt>
<rscale>  2 0.18559029E+03</rscale>
<asrwt>0</asrwt>
<pdfrwt beam="1">  1       21 0.22945760E-01 0.18559029E+03</pdfrwt>
<pdfrwt beam="2">  1       21 0.35535463E-01 0.18559029E+03</pdfrwt>
<totfact> 0.13644677E+05</totfact>
</mgrwt>
</event>
<event>
 4    1  0.4495571E+000  0.2116828E+03  0.7546771E-02  0.1140240E+00
         21   -1    0    0  501  502  0.00000000000E+00  0.00000000000E+00  0.50076616902E+02  0.50076616902E+02  0.00000000000E+00 0. -1.
         21   -1    0    0  502  503 -0.00000000000E+00 -0.00000000000E+00 -0.14393761884E+04  0.14393761884E+04  0.00000000000E+00 0.  1.
          6    1    1    2  501    0 -0.11861230714E+03 -0.28490930154E+02 -0.23658119713E+03  0.31745909239E+03  0.17300000000E+03 0. -1.
         -6    1    1    2    0  503  0.11861230714E+03  0.28490930154E+02 -0.11527183744E+04  0.11719937130E+04  0.17300000000E+03 0.  1.
<mgrwt>
<rscale>  2 0.21168281E+03</rscale>
<asrwt>0</asrwt>
<pdfrwt beam="1">  1       21 0.77040951E-02 0.21168281E+03</pdfrwt>
<pdfrwt beam="2">  1       21 0.22144249E+00 0.21168281E+03</pdfrwt>
<totfact> 0.12429502E+04</totfact>
</mgrwt>
</event>
<event>
 4    1  0.4495571E+000  0.1954227E+03  0.7546771E-02  0.1153659E+00
         21   -1    0    0  501  502  0.00000000000E+00  0.00000000000E+00  0.22351617148E+03  0.22351617148E+03  0.00000000000E+00 0.  1.
         21   -1    0    0  502  503 -0.00000000000E+00 -0.00000000000E+00 -0.18568966197E+03  0.18568966197E+03  0.00000000000E+00 0.  1.
          6    1    1    2  501    0  0.87111938273E+02 -0.25933390309E+02  0.76733485315E+02  0.20994775134E+03  0.17300000000E+03 0.  1.
         -6    1    1    2    0  503 -0.87111938273E+02  0.25933390309E+02 -0.38906975797E+02  0.19925808212E+03  0.17300000000E+03 0.  1.
<mgrwt>
<rscale>  2 0.19542270E+03</rscale>
<asrwt>0</asrwt>
<pdfrwt beam="1">  1       21 0.34387103E-01 0.19542270E+03</pdfrwt>
<pdfrwt beam="2">  1       21 0.28567640E-01 0.19542270E+03</pdfrwt>
<totfact> 0.95406752E+04</totfact>
</mgrwt>
</event>
<event>
 4    1  0.4495571E+000  0.3131764E+03  0.7546771E-02  0.1078833E+00
         21   -1    0    0  501  502  0.00000000000E+00  0.00000000000E+00  0.48979649219E+03  0.48979649219E+03  0.00000000000E+00 0. -1.
         21   -1    0    0  502  503 -0.00000000000E+00 -0.00000000000E+00 -0.22943341528E+03  0.22943341528E+03  0.00000000000E+00 0. -1.
          6    1    1    2  501    0  0.25968260709E+03 -0.26746509421E+02  0.25844785889E+03  0.40604769173E+03  0.17300000000E+03 0. -1.
         -6    1    1    2    0  503 -0.25968260709E+03  0.26746509421E+02  0.19152180155E+01  0.31318221574E+03  0.17300000000E+03 0. -1.
<mgrwt>
<rscale>  2 0.31317636E+03</rscale>
<asrwt>0</asrwt>
<pdfrwt beam="1">  1       21 0.75353306E-01 0.31317636E+03</pdfrwt>
<pdfrwt beam="2">  1       21 0.35297449E-01 0.31317636E+03</pdfrwt>
<totfact> 0.11409197E+04</totfact>
</mgrwt>
</event>
<event>
 4    1  0.4495571E+000  0.2223016E+03  0.7546771E-02  0.1132179E+00
         21   -1    0    0  503  502  0.00000000000E+00  0.00000000000E+00  0.29888182164E+03  0.29888182164E+03  0.00000000000E+00 0.  1.
         21   -1    0    0  501  503 -0.00000000000E+00 -0.00000000000E+00 -0.17563362964E+03  0.17563362964E+03  0.00000000000E+00 0.  1.
          6    1    1    2  501    0 -0.12848293005E+03  0.54599935390E+02  0.41942629761E+01  0.22234119749E+03  0.17300000000E+03 0.  1.
         -6    1    1    2    0  502  0.12848293005E+03 -0.54599935390E+02  0.11905392902E+03  0.25217425379E+03  0.17300000000E+03 0.  1.
<mgrwt>
<rscale>  2 0.22230163E+03</rscale>
<asrwt>0</asrwt>
<pdfrwt beam="1">  1       21 0.45981819E-01 0.22230163E+03</pdfrwt>
<pdfrwt beam="2">  1       21 0.27020558E-01 0.22230163E+03</pdfrwt>
<totfact> 0.58364811E+04</totfact>
</mgrwt>
</event>
<event>
 4    1  0.4495571E+000  0.1945467E+03  0.7546771E-02  0.1154423E+00
         21   -1    0    0  503  502  0.00000000000E+00  0.00000000000E+00  0.18626954537E+03  0.18626954537E+03  0.00000000000E+00 0.  1.
         21   -1    0    0  501  503 -0.00000000000E+00 -0.00000000000E+00 -0.21967037743E+03  0.21967037743E+03  0.00000000000E+00 0.  1.
          6    1    1    2  501    0  0.83587807930E+02 -0.30536514751E+02 -0.72291991355E+02  0.20754404926E+03  0.17300000000E+03 0.  1.
         -6    1    1    2    0  502 -0.83587807930E+02  0.30536514751E+02  0.38891159302E+02  0.19839587354E+03  0.17300000000E+03 0.  1.
<mgrwt>
<rscale>  2 0.19454665E+03</rscale>
<asrwt>0</asrwt>
<pdfrwt beam="1">  1       21 0.28656853E-01 0.19454665E+03</pdfrwt>
<pdfrwt beam="2">  1       21 0.33795442E-01 0.19454665E+03</pdfrwt>
<totfact> 0.98181781E+04</totfact>
</mgrwt>
</event>
<event>
 4    1  0.4495571E+000  0.2078822E+03  0.7546771E-02  0.1143254E+00
         21   -1    0    0  503  502  0.00000000000E+00  0.00000000000E+00  0.81477412278E+02  0.81477412278E+02  0.00000000000E+00 0. -1.
         21   -1    0    0  501  503 -0.00000000000E+00 -0.00000000000E+00 -0.53197296944E+03  0.53197296944E+03  0.00000000000E+00 0.  1.
          6    1    1    2  501    0  0.48384823131E+02  0.10461793798E+03 -0.24196657553E+03  0.31900286476E+03  0.17300000000E+03 0.  1.
         -6    1    1    2    0  502 -0.48384823131E+02 -0.10461793798E+03 -0.20852898163E+03  0.29444751695E+03  0.17300000000E+03 0. -1.
<mgrwt>
<rscale>  2 0.20788219E+03</rscale>
<asrwt>0</asrwt>
<pdfrwt beam="1">  1       21 0.12534987E-01 0.20788219E+03</pdfrwt>
<pdfrwt beam="2">  1       21 0.81841993E-01 0.20788219E+03</pdfrwt>
<totfact> 0.70397070E+04</totfact>
</mgrwt>
</event>
<event>
 4    1  0.4495571E+000  0.1872581E+03  0.7546771E-02  0.1160958E+00
         21   -1    0    0  503  502  0.00000000000E+00  0.00000000000E+00  0.35496168764E+02  0.35496168764E+02  0.00000000000E+00 0.  1.
         21   -1    0    0  501  503 -0.00000000000E+00 -0.00000000000E+00 -0.10349647847E+04  0.10349647847E+04  0.00000000000E+00 0.  1.
          6    1    1    2  501    0 -0.70245801960E+02 -0.14217512299E+02 -0.61390723703E+03  0.64183152464E+03  0.17300000000E+03 0.  1.
         -6    1    1    2    0  502  0.70245801960E+02  0.14217512299E+02 -0.38556137892E+03  0.42862942884E+03  0.17300000000E+03 0.  1.
<mgrwt>
<rscale>  2 0.18725814E+03</rscale>
<asrwt>0</asrwt>
<pdfrwt beam="1">  1       21 0.54609487E-02 0.18725814E+03</pdfrwt>
<pdfrwt beam="2">  1       21 0.15922536E+00 0.18725814E+03</pdfrwt>
<totfact> 0.59225444E+04</totfact>
</mgrwt>
</event>
<event>
 4    1  0.4495571E+000  0.2379859E+03  0.7546771E-02  0.1121142E+00
         21   -1    0    0  501  502  0.00000000000E+00  0.00000000000E+00  0.14949203844E+03  0.14949203844E+03  0.00000000000E+00 0. -1.
         21   -1    0    0  502  503 -0.00000000000E+00 -0.00000000000E+00 -0.38571109512E+03  0.38571109512E+03  0.00000000000E+00 0.  1.
          6    1    1    2  501    0  0.12590656505E+03 -0.10419132863E+03 -0.15376121851E+03  0.28333691677E+03  0.17300000000E+03 0. -1.
         -6    1    1    2    0  503 -0.12590656505E+03  0.10419132863E+03 -0.82457838168E+02  0.25186621679E+03  0.17300000000E+03 0. -1.
<mgrwt>
<rscale>  2 0.23798592E+03</rscale>
<asrwt>0</asrwt>
<pdfrwt beam="1">  1       21 0.22998776E-01 0.23798592E+03</pdfrwt>
<pdfrwt beam="2">  1       21 0.59340167E-01 0.23798592E+03</pdfrwt>
<totfact> 0.46110210E+04</totfact>
</mgrwt>
</event>
<event>
 4    1  0.4495571E+000  0.2229935E+03  0.7546771E-02  0.1131671E+00
         21   -1    0    0  503  502  0.00000000000E+00  0.00000000000E+00  0.77128341269E+02  0.77128341269E+02  0.00000000000E+00 0. -1.
         21   -1    0    0  501  503 -0.00000000000E+00 -0.00000000000E+00 -0.96045550377E+03  0.96045550377E+03  0.00000000000E+00 0.  1.
          6    1    1    2  501    0  0.12335545277E+03  0.67679539208E+02 -0.14421140499E+03  0.26556170109E+03  0.17300000000E+03 0. -1.
         -6    1    1    2    0  502 -0.12335545277E+03 -0.67679539208E+02 -0.73911575751E+03  0.77202214395E+03  0.17300000000E+03 0.  1.
<mgrwt>
<rscale>  2 0.22299347E+03</rscale>
<asrwt>0</asrwt>
<pdfrwt beam="1">  1       21 0.11865899E-01 0.22299347E+03</pdfrwt>
<pdfrwt beam="2">  1       21 0.14776238E+00 0.22299347E+03</pdfrwt>
<totfact> 0.18249801E+04</totfact>
</mgrwt>
</event>
<event>
 4    1  0.4495571E+000  0.2140252E+03  0.7546771E-02  0.1138418E+00
         21   -1    0    0  501  502  0.00000000000E+00  0.00000000000E+00  0.87189094525E+02  0.87189094525E+02  0.00000000000E+00 0.  1.
         21   -1    0    0  502  503 -0.00000000000E+00 -0.00000000000E+00 -0.52538766306E+03  0.52538766306E+03  0.00000000000E+00 0.  1.
          6    1    1    2  501    0 -0.73466342007E+02  0.10237424069E+03 -0.22072217297E+03  0.30744929046E+03  0.17300000000E+03 0.  1.
         -6    1    1    2    0  503  0.73466342007E+02 -0.10237424069E+03 -0.21747639556E+03  0.30512746712E+03  0.17300000000E+03 0.  1.
<mgrwt>
<rscale>  2 0.21402521E+03</rscale>
<asrwt>0</asrwt>
<pdfrwt beam="1">  1       21 0.13413707E-01 0.21402521E+03</pdfrwt>
<pdfrwt beam="2">  1       21 0.80828873E-01 0.21402521E+03</pdfrwt>
<totfact> 0.63912598E+04</totfact>
</mgrwt>
</event>
<event>
 4    1  0.4495571E+000  0.1867136E+03  0.7546771E-02  0.1161459E+00
         21   -1    0    0  501  502  0.00000000000E+00  0.00000000000E+00  0.88026610572E+03  0.88026610572E+03  0.00000000000E+00 0.  1.
         21   -1    0    0  502  503 -0.00000000000E+00 -0.00000000000E+00 -0.43126696596E+02  0.43126696596E+02  0.00000000000E+00 0. -1.
          6    1    1    2  501    0  0.55528143045E+02 -0.43006866764E+02  0.55052522572E+03  0.58132606119E+03  0.17300000000E+03 0.  1.
         -6    1    1    2    0  503 -0.55528143045E+02  0.43006866764E+02  0.28661418340E+03  0.34206674113E+03  0.17300000000E+03 0.  1.
<mgrwt>
<rscale>  2 0.18671359E+03</rscale>
<asrwt>0</asrwt>
<pdfrwt beam="1">  1       21 0.13542554E+00 0.18671359E+03</pdfrwt>
<pdfrwt beam="2">  1       21 0.66348771E-02 0.18671359E+03</pdfrwt>
<totfact> 0.64847768E+04</totfact>
</mgrwt>
</event>
<event>
 4    1  0.4495571E+000  0.3718599E+03  0.7546771E-02  0.1053984E+00
         21   -1    0    0  501  502  0.00000000000E+00  0.00000000000E+00  0.25701271874E+03  0.25701271874E+03  0.00000000000E+00 0. -1.
         21   -1    0    0  502  503 -0.00000000000E+00 -0.00000000000E+00 -0.61067970630E+03  0.61067970630E+03  0.00000000000E+00 0.  1.
          6    1    1    2  501    0 -0.15695434159E+03  0.28933742186E+03 -0.27191098764E+02  0.37285273887E+03  0.17300000000E+03 0.  1.
         -6    1    1    2    0  503  0.15695434159E+03 -0.28933742186E+03 -0.32647588880E+03  0.49483968616E+03  0.17300000000E+03 0. -1.
<mgrwt>
<rscale>  2 0.37185993E+03</rscale>
<asrwt>0</asrwt>
<pdfrwt beam="1">  1       21 0.39540419E-01 0.37185993E+03</pdfrwt>
<pdfrwt beam="2">  1       21 0.93950722E-01 0.37185993E+03</pdfrwt>
<totfact> 0.53031259E+03</totfact>
</mgrwt>
</event>
<event>
 4    1  0.4495571E+000  0.1908650E+03  0.7546771E-02  0.1157684E+00
         21   -1    0    0  501  502  0.00000000000E+00  0.00000000000E+00  0.48893764179E+03  0.48893764179E+03  0.00000000000E+00 0.  1.
         21   -1    0    0  502  503 -0.00000000000E+00 -0.00000000000E+00 -0.26696103341E+03  0.26696103341E+03  0.00000000000E+00 0. -1.
          6    1    1    2  501    0 -0.60645901272E+02 -0.53127297047E+02  0.43189057834E+03  0.47218524616E+03  0.17300000000E+03 0.  1.
         -6    1    1    2    0  503  0.60645901272E+02  0.53127297047E+02 -0.20991396996E+03  0.28371342904E+03  0.17300000000E+03 0. -1.
<mgrwt>
<rscale>  2 0.19086497E+03</rscale>
<asrwt>0</asrwt>
<pdfrwt beam="1">  1       21 0.75221176E-01 0.19086497E+03</pdfrwt>
<pdfrwt beam="2">  1       21 0.41070928E-01 0.19086497E+03</pdfrwt>
<totfact> 0.90303387E+03</totfact>
</mgrwt>
</event>
<event>
 4    1  0.4495571E+000  0.1857985E+03  0.7546771E-02  0.1162306E+00
         21   -1    0    0  501  502  0.00000000000E+00  0.00000000000E+00  0.13617444040E+03  0.13617444040E+03  0.00000000000E+00 0.  1.
         21   -1    0    0  502  503 -0.00000000000E+00 -0.00000000000E+00 -0.33842085787E+03  0.33842085787E+03  0.00000000000E+00 0.  1.
          6    1    1    2  501    0 -0.22449400354E+01  0.67727746634E+02  0.17742281074E+02  0.18664371395E+03  0.17300000000E+03 0.  1.
         -6    1    1    2    0  503  0.22449400354E+01 -0.67727746634E+02 -0.21998869855E+03  0.28795158431E+03  0.17300000000E+03 0.  1.
<mgrwt>
<rscale>  2 0.18579851E+03</rscale>
<asrwt>0</asrwt>
<pdfrwt beam="1">  1       21 0.20949914E-01 0.18579851E+03</pdfrwt>
<pdfrwt beam="2">  1       21 0.52064747E-01 0.18579851E+03</pdfrwt>
<totfact> 0.74306813E+04</totfact>
</mgrwt>
</event>
<event>
 4    1  0.4495571E+000  0.1739651E+03  0.7546771E-02  0.1173775E+00
         21   -1    0    0  503  502  0.00000000000E+00  0.00000000000E+00  0.47759653589E+03  0.47759653589E+03  0.00000000000E+00 0. -1.
         21   -1    0    0  501  503 -0.00000000000E+00 -0.00000000000E+00 -0.64532815031E+02  0.64532815031E+02  0.00000000000E+00 0. -1.
          6    1    1    2  501    0  0.18284728052E+02  0.72377385366E+00  0.17009850051E+03  0.24330506572E+03  0.17300000000E+03 0. -1.
         -6    1    1    2    0  502 -0.18284728052E+02 -0.72377385366E+00  0.24296522035E+03  0.29882428521E+03  0.17300000000E+03 0. -1.
<mgrwt>
<rscale>  2 0.17396510E+03</rscale>
<asrwt>0</asrwt>
<pdfrwt beam="1">  1       21 0.73476388E-01 0.17396510E+03</pdfrwt>
<pdfrwt beam="2">  1       21 0.99281257E-02 0.17396510E+03</pdfrwt>
<totfact> 0.13768899E+05</totfact>
</mgrwt>
</event>
<event>
 4    1  0.4495571E+000  0.1930320E+03  0.7546771E-02  0.1155755E+00
         21   -1    0    0  503  502  0.00000000000E+00  0.00000000000E+00  0.10933052319E+04  0.10933052319E+04  0.00000000000E+00 0. -1.
         21   -1    0    0  501  503 -0.00000000000E+00 -0.00000000000E+00 -0.19393146153E+03  0.19393146153E+03  0.00000000000E+00 0. -1.
          6    1    1    2  501    0 -0.11639262167E+02  0.84834541187E+02 -0.13464648059E+03  0.23535302534E+03  0.17300000000E+03 0. -1.
         -6    1    1    2    0  502  0.11639262167E+02 -0.84834541187E+02  0.10340202510E+04  0.10518836681E+04  0.17300000000E+03 0. -1.
<mgrwt>
<rscale>  2 0.19303205E+03</rscale>
<asrwt>0</asrwt>
<pdfrwt beam="1">  1       21 0.16820080E+00 0.19303205E+03</pdfrwt>
<pdfrwt beam="2">  1       21 0.29835610E-01 0.19303205E+03</pdfrwt>
<totfact> 0.23657033E+03</totfact>
</mgrwt>
</event>
<event>
 4    1  0.4495571E+000  0.2133528E+03  0.7546771E-02  0.1138938E+00
         21   -1    0    0  501  502  0.00000000000E+00  0.00000000000E+00  0.25112205457E+03  0.25112205457E+03  0.00000000000E+00 0. -1.
         21   -1    0    0  502  503 -0.00000000000E+00 -0.00000000000E+00 -0.39190269616E+03  0.39190269616E+03  0.00000000000E+00 0. -1.
          6    1    1    2  501    0 -0.65179845914E+02 -0.10649888634E+03  0.16531940109E+03  0.26990726089E+03  0.17300000000E+03 0. -1.
         -6    1    1    2    0  503  0.65179845914E+02  0.10649888634E+03 -0.30610004267E+03  0.37311748984E+03  0.17300000000E+03 0. -1.
<mgrwt>
<rscale>  2 0.21335282E+03</rscale>
<asrwt>0</asrwt>
<pdfrwt beam="1">  1       21 0.38634162E-01 0.21335282E+03</pdfrwt>
<pdfrwt beam="2">  1       21 0.60292722E-01 0.21335282E+03</pdfrwt>
<totfact> 0.16356027E+04</totfact>
</mgrwt>
</event>
<event>
 4    1  0.4495571E+000  0.2170895E+03  0.7546771E-02  0.1136072E+00
         21   -1    0    0  501  502  0.00000000000E+00  0.00000000000E+00  0.34086445281E+03  0.34086445281E+03  0.00000000000E+00 0. -1.
         21   -1    0    0  502  503 -0.00000000000E+00 -0.00000000000E+00 -0.20398999086E+03  0.20398999086E+03  0.00000000000E+00 0. -1.
          6    1    1    2  501    0 -0.12419719753E+03  0.42118003483E+02  0.22307954319E+03  0.31127536472E+03  0.17300000000E+03 0. -1.
         -6    1    1    2    0  503  0.12419719753E+03 -0.42118003483E+02 -0.86205081241E+02  0.23357907895E+03  0.17300000000E+03 0. -1.
<mgrwt>
<rscale>  2 0.21708954E+03</rscale>
<asrwt>0</asrwt>
<pdfrwt beam="1">  1       21 0.52440685E-01 0.21708954E+03</pdfrwt>
<pdfrwt beam="2">  1       21 0.31383076E-01 0.21708954E+03</pdfrwt>
<totfact> 0.33222558E+04</totfact>
</mgrwt>
</event>
<event>
 4    1  0.4495571E+000  0.2134457E+03  0.7546771E-02  0.1138866E+00
         21   -1    0    0  501  502  0.00000000000E+00  0.00000000000E+00  0.17160661336E+03  0.17160661336E+03  0.00000000000E+00 0.  1.
         21   -1    0    0  502  503 -0.00000000000E+00 -0.00000000000E+00 -0.79201382444E+03  0.79201382444E+03  0.00000000000E+00 0. -1.
          6    1    1    2  501    0  0.70998517296E+02  0.10290423141E+03  0.82640723886E+02  0.22888547255E+03  0.17300000000E+03 0.  1.
         -6    1    1    2    0  503 -0.70998517296E+02 -0.10290423141E+03 -0.70304793497E+03  0.73473496525E+03  0.17300000000E+03 0. -1.
<mgrwt>
<rscale>  2 0.21344571E+03</rscale>
<asrwt>0</asrwt>
<pdfrwt beam="1">  1       21 0.26401018E-01 0.21344571E+03</pdfrwt>
<pdfrwt beam="2">  1       21 0.12184828E+00 0.21344571E+03</pdfrwt>
<totfact> 0.68296118E+03</totfact>
</mgrwt>
</event>
<event>
 4    1  0.4495571E+000  0.1877500E+03  0.7546771E-02  0.1160507E+00
         21   -1    0    0  503  502  0.00000000000E+00  0.00000000000E+00  0.67470114856E+02  0.67470114856E+02  0.00000000000E+00 0. -1.
         21   -1    0    0  501  503 -0.00000000000E+00 -0.00000000000E+00 -0.61637116402E+03  0.61637116402E+03  0.00000000000E+00 0. -1.
          6    1    1    2  501    0 -0.51428094602E+02 -0.51731991820E+02 -0.40791819492E+03  0.44905155788E+03  0.17300000000E+03 0. -1.
         -6    1    1    2    0  502  0.51428094602E+02  0.51731991820E+02 -0.14098285424E+03  0.23478972099E+03  0.17300000000E+03 0. -1.
<mgrwt>
<rscale>  2 0.18774996E+03</rscale>
<asrwt>0</asrwt>
<pdfrwt beam="1">  1       21 0.10380018E-01 0.18774996E+03</pdfrwt>
<pdfrwt beam="2">  1       21 0.94826332E-01 0.18774996E+03</pdfrwt>
<totfact> 0.70827137E+04</totfact>
</mgrwt>
</event>
<event>
 4    1  0.4495571E+000  0.2404499E+03  0.7546771E-02  0.1119494E+00
         21   -1    0    0  503  502  0.00000000000E+00  0.00000000000E+00  0.94354356611E+03  0.94354356611E+03  0.00000000000E+00 0.  1.
         21   -1    0    0  501  503 -0.00000000000E+00 -0.00000000000E+00 -0.67100617999E+02  0.67100617999E+02  0.00000000000E+00 0. -1.
          6    1    1    2  501    0  0.58407068226E+02  0.15644727151E+03  0.28933467936E+03  0.37620564996E+03  0.17300000000E+03 0. -1.
         -6    1    1    2    0  502 -0.58407068226E+02 -0.15644727151E+03  0.58710826876E+03  0.63443853416E+03  0.17300000000E+03 0.  1.
<mgrwt>
<rscale>  2 0.24044986E+03</rscale>
<asrwt>0</asrwt>
<pdfrwt beam="1">  1       21 0.14516054E+00 0.24044986E+03</pdfrwt>
<pdfrwt beam="2">  1       21 0.10323173E-01 0.24044986E+03</pdfrwt>
<totfact> 0.24281092E+04</totfact>
</mgrwt>
</event>
<event>
 4    1  0.4495571E+000  0.3336939E+03  0.7546771E-02  0.1069514E+00
         21   -1    0    0  503  502  0.00000000000E+00  0.00000000000E+00  0.35164322321E+03  0.35164322321E+03  0.00000000000E+00 0.  1.
         21   -1    0    0  501  503 -0.00000000000E+00 -0.00000000000E+00 -0.41957127009E+03  0.41957127009E+03  0.00000000000E+00 0. -1.
          6    1    1    2  501    0 -0.94652563735E+02  0.26919042282E+03 -0.22493716554E+03  0.40242803084E+03  0.17300000000E+03 0. -1.
         -6    1    1    2    0  502  0.94652563735E+02 -0.26919042282E+03  0.15700911866E+03  0.36878646247E+03  0.17300000000E+03 0.  1.
<mgrwt>
<rscale>  2 0.33369386E+03</rscale>
<asrwt>0</asrwt>
<pdfrwt beam="1">  1       21 0.54098957E-01 0.33369386E+03</pdfrwt>
<pdfrwt beam="2">  1       21 0.64549426E-01 0.33369386E+03</pdfrwt>
<totfact> 0.65964855E+03</totfact>
</mgrwt>
</event>
<event>
 4    1  0.4495571E+000  0.2255734E+03  0.7546771E-02  0.1129795E+00
         21   -1    0    0  501  502  0.00000000000E+00  0.00000000000E+00  0.74880232469E+03  0.74880232469E+03  0.00000000000E+00 0.  1.
         21   -1    0    0  502  503 -0.00000000000E+00 -0.00000000000E+00 -0.14064410945E+03  0.14064410945E+03  0.00000000000E+00 0. -1.
          6    1    1    2  501    0 -0.11243717832E+03  0.91171372172E+02  0.62379909129E+03  0.66333147405E+03  0.17300000000E+03 0.  1.
         -6    1    1    2    0  503  0.11243717832E+03 -0.91171372172E+02 -0.15640876045E+02  0.22611496009E+03  0.17300000000E+03 0. -1.
<mgrwt>
<rscale>  2 0.22557335E+03</rscale>
<asrwt>0</asrwt>
<pdfrwt beam="1">  1       21 0.11520036E+00 0.22557335E+03</pdfrwt>
<pdfrwt beam="2">  1       21 0.21637556E-01 0.22557335E+03</pdfrwt>
<totfact> 0.11372749E+04</totfact>
</mgrwt>
</event>
<event>
 4    1  0.4495571E+000  0.2205005E+03  0.7546771E-02  0.1133510E+00
         21   -1    0    0  501  502  0.00000000000E+00  0.00000000000E+00  0.34557856337E+02  0.34557856337E+02  0.00000000000E+00 0. -1.
         21   -1    0    0  502  503 -0.00000000000E+00 -0.00000000000E+00 -0.17168318646E+04  0.17168318646E+04  0.00000000000E+00 0. -1.
          6    1    1    2  501    0 -0.12005541255E+03 -0.65407713326E+02 -0.46908701854E+03  0.51832721519E+03  0.17300000000E+03 0. -1.
         -6    1    1    2    0  503  0.12005541255E+03  0.65407713326E+02 -0.12131869897E+04  0.12330625058E+04  0.17300000000E+03 0. -1.
<mgrwt>
<rscale>  2 0.22050050E+03</rscale>
<asrwt>0</asrwt>
<pdfrwt beam="1">  1       21 0.53165925E-02 0.22050050E+03</pdfrwt>
<pdfrwt beam="2">  1       21 0.26412802E+00 0.22050050E+03</pdfrwt>
<totfact> 0.12991066E+04</totfact>
</mgrwt>
</event>
<event>
 4    1  0.4495571E+000  0.1929833E+03  0.7546771E-02  0.1155798E+00
         21   -1    0    0  501  502  0.00000000000E+00  0.00000000000E+00  0.22039794171E+03  0.22039794171E+03  0.00000000000E+00 0. -1.
         21   -1    0    0  502  503 -0.00000000000E+00 -0.00000000000E+00 -0.19363308765E+03  0.19363308765E+03  0.00000000000E+00 0. -1.
          6    1    1    2  501    0  0.71501265036E+02 -0.46915945671E+02  0.87251228260E+02  0.21179073089E+03  0.17300000000E+03 0. -1.
         -6    1    1    2    0  503 -0.71501265036E+02  0.46915945671E+02 -0.60486374193E+02  0.20224029846E+03  0.17300000000E+03 0. -1.
<mgrwt>
<rscale>  2 0.19298326E+03</rscale>
<asrwt>0</asrwt>
<pdfrwt beam="1">  1       21 0.33907375E-01 0.19298326E+03</pdfrwt>
<pdfrwt beam="2">  1       21 0.29789706E-01 0.19298326E+03</pdfrwt>
<totfact> 0.90522553E+04</totfact>
</mgrwt>
</event>
<event>
 4    1  0.4495571E+000  0.2312050E+03  0.7546771E-02  0.1125794E+00
         21   -1    0    0  503  502  0.00000000000E+00  0.00000000000E+00  0.30667014949E+03  0.30667014949E+03  0.00000000000E+00 0.  1.
         21   -1    0    0  501  503 -0.00000000000E+00 -0.00000000000E+00 -0.18140598424E+03  0.18140598424E+03  0.00000000000E+00 0. -1.
          6    1    1    2  501    0  0.31702214057E+02 -0.15007242106E+03  0.14367418001E+02  0.23165099749E+03  0.17300000000E+03 0.  1.
         -6    1    1    2    0  502 -0.31702214057E+02  0.15007242106E+03  0.11089674725E+03  0.25642513623E+03  0.17300000000E+03 0.  1.
<mgrwt>
<rscale>  2 0.23120502E+03</rscale>
<asrwt>0</asrwt>
<pdfrwt beam="1">  1       21 0.47180023E-01 0.23120502E+03</pdfrwt>
<pdfrwt beam="2">  1       21 0.27908613E-01 0.23120502E+03</pdfrwt>
<totfact> 0.51778986E+04</totfact>
</mgrwt>
</event>
<event>
 4    1  0.4495571E+000  0.1852313E+03  0.7546771E-02  0.1162834E+00
         21   -1    0    0  503  502  0.00000000000E+00  0.00000000000E+00  0.50650238729E+03  0.50650238729E+03  0.00000000000E+00 0. -1.
         21   -1    0    0  501  503 -0.00000000000E+00 -0.00000000000E+00 -0.70875026368E+02  0.70875026368E+02  0.00000000000E+00 0.  1.
          6    1    1    2  501    0 -0.53461217635E+02 -0.39032388147E+02  0.15710060239E+03  0.24288109928E+03  0.17300000000E+03 0. -1.
         -6    1    1    2    0  502  0.53461217635E+02  0.39032388147E+02  0.27852675853E+03  0.33449631438E+03  0.17300000000E+03 0. -1.
<mgrwt>
<rscale>  2 0.18523129E+03</rscale>
<asrwt>0</asrwt>
<pdfrwt beam="1">  1       21 0.77923442E-01 0.18523129E+03</pdfrwt>
<pdfrwt beam="2">  1       21 0.10903851E-01 0.18523129E+03</pdfrwt>
<totfact> 0.10188168E+05</totfact>
</mgrwt>
</event>
<event>
 4    1  0.4495571E+000  0.1962555E+03  0.7546771E-02  0.1152937E+00
         21   -1    0    0  503  502  0.00000000000E+00  0.00000000000E+00  0.70368296216E+03  0.70368296216E+03  0.00000000000E+00 0. -1.
         21   -1    0    0  501  503 -0.00000000000E+00 -0.00000000000E+00 -0.72833008248E+02  0.72833008248E+02  0.00000000000E+00 0. -1.
          6    1    1    2  501    0  0.74090511909E+02  0.55658132478E+02  0.12188566377E+03  0.23102455865E+03  0.17300000000E+03 0. -1.
         -6    1    1    2    0  502 -0.74090511909E+02 -0.55658132478E+02  0.50896429014E+03  0.54549141176E+03  0.17300000000E+03 0. -1.
<mgrwt>
<rscale>  2 0.19625553E+03</rscale>
<asrwt>0</asrwt>
<pdfrwt beam="1">  1       21 0.10825891E+00 0.19625553E+03</pdfrwt>
<pdfrwt beam="2">  1       21 0.11205079E-01 0.19625553E+03</pdfrwt>
<totfact> 0.44929551E+04</totfact>
</mgrwt>
</event>
<event>
 4    1  0.4495571E+000  0.2835333E+03  0.7546771E-02  0.1093775E+00
         21   -1    0    0  503  502  0.00000000000E+00  0.00000000000E+00  0.23178546994E+03  0.23178546994E+03  0.00000000000E+00 0. -1.
         21   -1    0    0  501  503 -0.00000000000E+00 -0.00000000000E+00 -0.37192764811E+03  0.37192764811E+03  0.00000000000E+00 0. -1.
          6    1    1    2  501    0 -0.18245880804E+03 -0.13103788498E+03 -0.14847738959E+03  0.32005730604E+03  0.17300000000E+03 0. -1.
         -6    1    1    2    0  502  0.18245880804E+03  0.13103788498E+03  0.83352114200E+01  0.28365581200E+03  0.17300000000E+03 0. -1.
<mgrwt>
<rscale>  2 0.28353332E+03</rscale>
<asrwt>0</asrwt>
<pdfrwt beam="1">  1       21 0.35659303E-01 0.28353332E+03</pdfrwt>
<pdfrwt beam="2">  1       21 0.57219638E-01 0.28353332E+03</pdfrwt>
<totfact> 0.20770607E+04</totfact>
</mgrwt>
</event>
<event>
 4    1  0.4495571E+000  0.1837093E+03  0.7546771E-02  0.1164261E+00
         21   -1    0    0  501  502  0.00000000000E+00  0.00000000000E+00  0.59948702681E+03  0.59948702681E+03  0.00000000000E+00 0. -1.
         21   -1    0    0  502  503 -0.00000000000E+00 -0.00000000000E+00 -0.94888455245E+02  0.94888455245E+02  0.00000000000E+00 0. -1.
          6    1    1    2  501    0 -0.32390337262E+01  0.61722096893E+02  0.47371338214E+03  0.50808806028E+03  0.17300000000E+03 0. -1.
         -6    1    1    2    0  503  0.32390337262E+01 -0.61722096893E+02  0.30885189424E+02  0.18628742177E+03  0.17300000000E+03 0. -1.
<mgrwt>
<rscale>  2 0.18370930E+03</rscale>
<asrwt>0</asrwt>
<pdfrwt beam="1">  1       21 0.92228771E-01 0.18370930E+03</pdfrwt>
<pdfrwt beam="2">  1       21 0.14598224E-01 0.18370930E+03</pdfrwt>
<totfact> 0.41098644E+04</totfact>
</mgrwt>
</event>
<event>
 4    1  0.4495571E+000  0.2342088E+03  0.7546771E-02  0.1123712E+00
         21   -1    0    0  503  502  0.00000000000E+00  0.00000000000E+00  0.59119524928E+02  0.59119524928E+02  0.00000000000E+00 0.  1.
         21   -1    0    0  501  503 -0.00000000000E+00 -0.00000000000E+00 -0.98832682317E+03  0.98832682317E+03  0.00000000000E+00 0. -1.
          6    1    1    2  501    0  0.15727026346E+03  0.13813391765E+02 -0.33504555601E+03  0.40879000741E+03  0.17300000000E+03 0. -1.
         -6    1    1    2    0  502 -0.15727026346E+03 -0.13813391765E+02 -0.59416174223E+03  0.63865634068E+03  0.17300000000E+03 0. -1.
<mgrwt>
<rscale>  2 0.23420876E+03</rscale>
<asrwt>0</asrwt>
<pdfrwt beam="1">  1       21 0.90953113E-02 0.23420876E+03</pdfrwt>
<pdfrwt beam="2">  1       21 0.15205028E+00 0.23420876E+03</pdfrwt>
<totfact> 0.26967832E+04</totfact>
</mgrwt>
</event>
<event>
 4    1  0.4495571E+000  0.2208310E+03  0.7546771E-02  0.1133265E+00
         21   -1    0    0  503  502  0.00000000000E+00  0.00000000000E+00  0.23292183826E+03  0.23292183826E+03  0.00000000000E+00 0.  1.
         21   -1    0    0  501  503 -0.00000000000E+00 -0.00000000000E+00 -0.21204782031E+03  0.21204782031E+03  0.00000000000E+00 0.  1.
          6    1    1    2  501    0  0.23852826824E+02  0.13516058886E+03 -0.14575042366E+02  0.22131148634E+03  0.17300000000E+03 0.  1.
         -6    1    1    2    0  502 -0.23852826824E+02 -0.13516058886E+03  0.35449060317E+02  0.22365817223E+03  0.17300000000E+03 0.  1.
<mgrwt>
<rscale>  2 0.22083103E+03</rscale>
<asrwt>0</asrwt>
<pdfrwt beam="1">  1       21 0.35834129E-01 0.22083103E+03</pdfrwt>
<pdfrwt beam="2">  1       21 0.32622742E-01 0.22083103E+03</pdfrwt>
<totfact> 0.67076287E+04</totfact>
</mgrwt>
</event>
<event>
 4    1  0.4495571E+000  0.2108253E+03  0.7546771E-02  0.1140914E+00
         21   -1    0    0  503  502  0.00000000000E+00  0.00000000000E+00  0.21033204692E+03  0.21033204692E+03  0.00000000000E+00 0. -1.
         21   -1    0    0  501  503 -0.00000000000E+00 -0.00000000000E+00 -0.21672715728E+03  0.21672715728E+03  0.00000000000E+00 0. -1.
          6    1    1    2  501    0  0.91482865542E+02  0.78416857860E+02 -0.36925932384E+02  0.21403467655E+03  0.17300000000E+03 0. -1.
         -6    1    1    2    0  502 -0.91482865542E+02 -0.78416857860E+02  0.30530822020E+02  0.21302452764E+03  0.17300000000E+03 0. -1.
<mgrwt>
<rscale>  2 0.21082533E+03</rscale>
<asrwt>0</asrwt>
<pdfrwt beam="1">  1       21 0.32358776E-01 0.21082533E+03</pdfrwt>
<pdfrwt beam="2">  1       21 0.33342640E-01 0.21082533E+03</pdfrwt>
<totfact> 0.78981160E+04</totfact>
</mgrwt>
</event>
<event>
 4    1  0.4495571E+000  0.1882624E+03  0.7546771E-02  0.1160038E+00
         21   -1    0    0  503  502  0.00000000000E+00  0.00000000000E+00  0.25052700632E+03  0.25052700632E+03  0.00000000000E+00 0. -1.
         21   -1    0    0  501  503 -0.00000000000E+00 -0.00000000000E+00 -0.31953099125E+03  0.31953099125E+03  0.00000000000E+00 0.  1.
          6    1    1    2  501    0 -0.69299876804E+02 -0.26669276866E+02 -0.24727361099E+03  0.31078443003E+03  0.17300000000E+03 0.  1.
         -6    1    1    2    0  502  0.69299876804E+02  0.26669276866E+02  0.17826962606E+03  0.25927356755E+03  0.17300000000E+03 0. -1.
<mgrwt>
<rscale>  2 0.18826238E+03</rscale>
<asrwt>0</asrwt>
<pdfrwt beam="1">  1       21 0.38542616E-01 0.18826238E+03</pdfrwt>
<pdfrwt beam="2">  1       21 0.49158614E-01 0.18826238E+03</pdfrwt>
<totfact> 0.25686991E+04</totfact>
</mgrwt>
</event>
<event>
 4    1  0.4495571E+000  0.3641309E+03  0.7546771E-02  0.1056960E+00
         21   -1    0    0  503  502  0.00000000000E+00  0.00000000000E+00  0.52440384982E+03  0.52440384982E+03  0.00000000000E+00 0.  1.
         21   -1    0    0  501  503 -0.00000000000E+00 -0.00000000000E+00 -0.69936319928E+03  0.69936319928E+03  0.00000000000E+00 0. -1.
          6    1    1    2  501    0  0.30925083147E+03 -0.83822754924E+02 -0.57640034793E+03  0.68178346424E+03  0.17300000000E+03 0. -1.
         -6    1    1    2    0  502 -0.30925083147E+03  0.83822754924E+02  0.40144099847E+03  0.54198358487E+03  0.17300000000E+03 0.  1.
<mgrwt>
<rscale>  2 0.36413093E+03</rscale>
<asrwt>0</asrwt>
<pdfrwt beam="1">  1       21 0.80677515E-01 0.36413093E+03</pdfrwt>
<pdfrwt beam="2">  1       21 0.10759434E+00 0.36413093E+03</pdfrwt>
<totfact> 0.81876300E+02</totfact>
</mgrwt>
</event>
<event>
 4    1  0.4495571E+000  0.2267678E+03  0.7546771E-02  0.1128936E+00
         21   -1    0    0  501  502  0.00000000000E+00  0.00000000000E+00  0.87232404283E+03  0.87232404283E+03  0.00000000000E+00 0.  1.
         21   -1    0    0  502  503 -0.00000000000E+00 -0.00000000000E+00 -0.85315040897E+02  0.85315040897E+02  0.00000000000E+00 0. -1.
          6    1    1    2  501    0  0.84858705666E+02 -0.11955598934E+03  0.65968242997E+03  0.69757045732E+03  0.17300000000E+03 0.  1.
         -6    1    1    2    0  503 -0.84858705666E+02  0.11955598934E+03  0.12732657197E+03  0.26006862641E+03  0.17300000000E+03 0. -1.
<mgrwt>
<rscale>  2 0.22676780E+03</rscale>
<asrwt>0</asrwt>
<pdfrwt beam="1">  1       21 0.13420369E+00 0.22676780E+03</pdfrwt>
<pdfrwt beam="2">  1       21 0.13125391E-01 0.22676780E+03</pdfrwt>
<totfact> 0.19501338E+04</totfact>
</mgrwt>
</event>
<event>
 4    1  0.4495571E+000  0.2151337E+03  0.7546771E-02  0.1137564E+00
         21   -1    0    0  501  502  0.00000000000E+00  0.00000000000E+00  0.70776097245E+03  0.70776097245E+03  0.00000000000E+00 0.  1.
         21   -1    0    0  502  503 -0.00000000000E+00 -0.00000000000E+00 -0.86066952028E+02  0.86066952028E+02  0.00000000000E+00 0. -1.
          6    1    1    2  501    0 -0.36178473559E+02 -0.12265654130E+03  0.50537919449E+03  0.54926372472E+03  0.17300000000E+03 0.  1.
         -6    1    1    2    0  503  0.36178473559E+02  0.12265654130E+03  0.11631482593E+03  0.24456419976E+03  0.17300000000E+03 0. -1.
<mgrwt>
<rscale>  2 0.21513370E+03</rscale>
<asrwt>0</asrwt>
<pdfrwt beam="1">  1       21 0.10888630E+00 0.21513370E+03</pdfrwt>
<pdfrwt beam="2">  1       21 0.13241070E-01 0.21513370E+03</pdfrwt>
<totfact> 0.32505401E+04</totfact>
</mgrwt>
</event>
<event>
 4    1  0.4495571E+000  0.2448115E+03  0.7546771E-02  0.1116628E+00
         21   -1    0    0  501  502  0.00000000000E+00  0.00000000000E+00  0.11499494200E+04  0.11499494200E+04  0.00000000000E+00 0.  1.
         21   -1    0    0  502  503 -0.00000000000E+00 -0.00000000000E+00 -0.15074324734E+03  0.15074324734E+03  0.00000000000E+00 0. -1.
          6    1    1    2  501    0  0.11659289549E+03 -0.12810053341E+03  0.10256453139E+04  0.10544576615E+04  0.17300000000E+03 0.  1.
         -6    1    1    2    0  503 -0.11659289549E+03  0.12810053341E+03 -0.26439141209E+02  0.24623500589E+03  0.17300000000E+03 0. -1.
<mgrwt>
<rscale>  2 0.24481146E+03</rscale>
<asrwt>0</asrwt>
<pdfrwt beam="1">  1       21 0.17691529E+00 0.24481146E+03</pdfrwt>
<pdfrwt beam="2">  1       21 0.23191270E-01 0.24481146E+03</pdfrwt>
<totfact> 0.31927320E+03</totfact>
</mgrwt>
</event>
<event>
 4    1  0.4495571E+000  0.5240792E+03  0.7546771E-02  0.1007678E+00
         21   -1    0    0  503  502  0.00000000000E+00  0.00000000000E+00  0.20673935979E+03  0.20673935979E+03  0.00000000000E+00 0.  1.
         21   -1    0    0  501  503 -0.00000000000E+00 -0.00000000000E+00 -0.14438684225E+04  0.14438684225E+04  0.00000000000E+00 0. -1.
          6    1    1    2  501    0 -0.42558261413E+03  0.25220918341E+03 -0.85182481679E+03  0.10001322673E+04  0.17300000000E+03 0. -1.
         -6    1    1    2    0  502  0.42558261413E+03 -0.25220918341E+03 -0.38530424593E+03  0.65047551498E+03  0.17300000000E+03 0.  1.
<mgrwt>
<rscale>  2 0.52407922E+03</rscale>
<asrwt>0</asrwt>
<pdfrwt beam="1">  1       21 0.31806056E-01 0.52407922E+03</pdfrwt>
<pdfrwt beam="2">  1       21 0.22213360E+00 0.52407922E+03</pdfrwt>
<totfact> 0.74012332E+02</totfact>
</mgrwt>
</event>
<event>
 4    1  0.4495571E+000  0.1784013E+03  0.7546771E-02  0.1169359E+00
         21   -1    0    0  503  502  0.00000000000E+00  0.00000000000E+00  0.73183853699E+02  0.73183853699E+02  0.00000000000E+00 0. -1.
         21   -1    0    0  501  503 -0.00000000000E+00 -0.00000000000E+00 -0.55744118371E+03  0.55744118371E+03  0.00000000000E+00 0.  1.
          6    1    1    2  501    0  0.19881544735E+02  0.38765406026E+02 -0.38997067807E+03  0.42884048582E+03  0.17300000000E+03 0.  1.
         -6    1    1    2    0  502 -0.19881544735E+02 -0.38765406026E+02 -0.94286651945E+02  0.20178455159E+03  0.17300000000E+03 0. -1.
<mgrwt>
<rscale>  2 0.17840132E+03</rscale>
<asrwt>0</asrwt>
<pdfrwt beam="1">  1       21 0.11259055E-01 0.17840132E+03</pdfrwt>
<pdfrwt beam="2">  1       21 0.85760181E-01 0.17840132E+03</pdfrwt>
<totfact> 0.77675103E+04</totfact>
</mgrwt>
</event>
<event>
 4    1  0.4495571E+000  0.1879663E+03  0.7546771E-02  0.1160309E+00
         21   -1    0    0  501  502  0.00000000000E+00  0.00000000000E+00  0.59724642470E+03  0.59724642470E+03  0.00000000000E+00 0.  1.
         21   -1    0    0  502  503 -0.00000000000E+00 -0.00000000000E+00 -0.14521946949E+03  0.14521946949E+03  0.00000000000E+00 0.  1.
          6    1    1    2  501    0  0.58122057128E+02  0.44990537000E+02  0.51179946305E+03  0.54522473561E+03  0.17300000000E+03 0.  1.
         -6    1    1    2    0  503 -0.58122057128E+02 -0.44990537000E+02 -0.59772507843E+02  0.19724115858E+03  0.17300000000E+03 0.  1.
<mgrwt>
<rscale>  2 0.18796628E+03</rscale>
<asrwt>0</asrwt>
<pdfrwt beam="1">  1       21 0.91884064E-01 0.18796628E+03</pdfrwt>
<pdfrwt beam="2">  1       21 0.22341457E-01 0.18796628E+03</pdfrwt>
<totfact> 0.18828961E+04</totfact>
</mgrwt>
</event>
<event>
 4    1  0.4495571E+000  0.1848778E+03  0.7546771E-02  0.1163164E+00
         21   -1    0    0  501  502  0.00000000000E+00  0.00000000000E+00  0.73433710148E+03  0.73433710148E+03  0.00000000000E+00 0.  1.
         21   -1    0    0  502  503 -0.00000000000E+00 -0.00000000000E+00 -0.46748510247E+02  0.46748510247E+02  0.00000000000E+00 0.  1.
          6    1    1    2  501    0 -0.71684778578E-01  0.65198129118E+02  0.36955516245E+03  0.41322006155E+03  0.17300000000E+03 0.  1.
         -6    1    1    2    0  503  0.71684778578E-01 -0.65198129118E+02  0.31803342879E+03  0.36786555018E+03  0.17300000000E+03 0.  1.
<mgrwt>
<rscale>  2 0.18487780E+03</rscale>
<asrwt>0</asrwt>
<pdfrwt beam="1">  1       21 0.11297493E+00 0.18487780E+03</pdfrwt>
<pdfrwt beam="2">  1       21 0.71920790E-02 0.18487780E+03</pdfrwt>
<totfact> 0.88668918E+04</totfact>
</mgrwt>
</event>
<event>
 4    1  0.4495571E+000  0.1840770E+03  0.7546771E-02  0.1163915E+00
         21   -1    0    0  503  502  0.00000000000E+00  0.00000000000E+00  0.63182804044E+03  0.63182804044E+03  0.00000000000E+00 0. -1.
         21   -1    0    0  501  503 -0.00000000000E+00 -0.00000000000E+00 -0.83981518208E+02  0.83981518208E+02  0.00000000000E+00 0. -1.
          6    1    1    2  501    0 -0.53966808039E+02 -0.32294326298E+02  0.58757770864E+02  0.19322736741E+03  0.17300000000E+03 0. -1.
         -6    1    1    2    0  502  0.53966808039E+02  0.32294326298E+02  0.48908875137E+03  0.52258219124E+03  0.17300000000E+03 0. -1.
<mgrwt>
<rscale>  2 0.18407699E+03</rscale>
<asrwt>0</asrwt>
<pdfrwt beam="1">  1       21 0.97204311E-01 0.18407699E+03</pdfrwt>
<pdfrwt beam="2">  1       21 0.12920234E-01 0.18407699E+03</pdfrwt>
<totfact> 0.45312792E+04</totfact>
</mgrwt>
</event>
<event>
 4    1  0.4495571E+000  0.1885014E+03  0.7546771E-02  0.1159820E+00
         21   -1    0    0  501  502  0.00000000000E+00  0.00000000000E+00  0.61059737138E+03  0.61059737138E+03  0.00000000000E+00 0. -1.
         21   -1    0    0  502  503 -0.00000000000E+00 -0.00000000000E+00 -0.63796264369E+02  0.63796264369E+02  0.00000000000E+00 0. -1.
          6    1    1    2  501    0 -0.73028311118E+02 -0.16451254890E+02  0.37332880746E+03  0.41821905324E+03  0.17300000000E+03 0. -1.
         -6    1    1    2    0  503  0.73028311118E+02  0.16451254890E+02  0.17347229955E+03  0.25617458251E+03  0.17300000000E+03 0. -1.
<mgrwt>
<rscale>  2 0.18850140E+03</rscale>
<asrwt>0</asrwt>
<pdfrwt beam="1">  1       21 0.93938053E-01 0.18850140E+03</pdfrwt>
<pdfrwt beam="2">  1       21 0.98148103E-02 0.18850140E+03</pdfrwt>
<totfact> 0.79903657E+04</totfact>
</mgrwt>
</event>
<event>
 4    1  0.4495571E+000  0.3018316E+03  0.7546771E-02  0.1084329E+00
         21   -1    0    0  503  502  0.00000000000E+00  0.00000000000E+00  0.43188052843E+03  0.43188052843E+03  0.00000000000E+00 0.  1.
         21   -1    0    0  501  503 -0.00000000000E+00 -0.00000000000E+00 -0.46906072743E+03  0.46906072743E+03  0.00000000000E+00 0. -1.
          6    1    1    2  501    0  0.14390784519E+03 -0.20115629766E+03  0.31557459796E+03  0.43668026161E+03  0.17300000000E+03 0.  1.
         -6    1    1    2    0  502 -0.14390784519E+03  0.20115629766E+03 -0.35275479697E+03  0.46426099425E+03  0.17300000000E+03 0. -1.
<mgrwt>
<rscale>  2 0.30183162E+03</rscale>
<asrwt>0</asrwt>
<pdfrwt beam="1">  1       21 0.66443158E-01 0.30183162E+03</pdfrwt>
<pdfrwt beam="2">  1       21 0.72163189E-01 0.30183162E+03</pdfrwt>
<totfact> 0.33443521E+03</totfact>
</mgrwt>
</event>
<event>
 4    1  0.4495571E+000  0.2273151E+03  0.7546771E-02  0.1128544E+00
         21   -1    0    0  503  502  0.00000000000E+00  0.00000000000E+00  0.48451999299E+02  0.48451999299E+02  0.00000000000E+00 0. -1.
         21   -1    0    0  501  503 -0.00000000000E+00 -0.00000000000E+00 -0.15208321874E+04  0.15208321874E+04  0.00000000000E+00 0.  1.
          6    1    1    2  501    0 -0.86582961761E+02  0.11935892235E+03 -0.11650706986E+04  0.11870391293E+04  0.17300000000E+03 0.  1.
         -6    1    1    2    0  502  0.86582961761E+02 -0.11935892235E+03 -0.30730948949E+03  0.38224505745E+03  0.17300000000E+03 0. -1.
<mgrwt>
<rscale>  2 0.22731512E+03</rscale>
<asrwt>0</asrwt>
<pdfrwt beam="1">  1       21 0.74541545E-02 0.22731512E+03</pdfrwt>
<pdfrwt beam="2">  1       21 0.23397416E+00 0.22731512E+03</pdfrwt>
<totfact> 0.10901674E+04</totfact>
</mgrwt>
</event>
<event>
 4    1  0.4495571E+000  0.2259494E+03  0.7546771E-02  0.1129524E+00
         21   -1    0    0  501  502  0.00000000000E+00  0.00000000000E+00  0.60294069173E+03  0.60294069173E+03  0.00000000000E+00 0.  1.
         21   -1    0    0  502  503 -0.00000000000E+00 -0.00000000000E+00 -0.10587835154E+03  0.10587835154E+03  0.00000000000E+00 0. -1.
          6    1    1    2  501    0 -0.10509564667E+03  0.10039439418E+03  0.40713690731E+03  0.46563246303E+03  0.17300000000E+03 0.  1.
         -6    1    1    2    0  503  0.10509564667E+03 -0.10039439418E+03  0.89925432877E+02  0.24318658024E+03  0.17300000000E+03 0. -1.
<mgrwt>
<rscale>  2 0.22594940E+03</rscale>
<asrwt>0</asrwt>
<pdfrwt beam="1">  1       21 0.92760104E-01 0.22594940E+03</pdfrwt>
<pdfrwt beam="2">  1       21 0.16288978E-01 0.22594940E+03</pdfrwt>
<totfact> 0.32465047E+04</totfact>
</mgrwt>
</event>
<event>
 4    1  0.4495571E+000  0.2450949E+03  0.7546771E-02  0.1116445E+00
         21   -1    0    0  503  502  0.00000000000E+00  0.00000000000E+00  0.24453196824E+03  0.24453196824E+03  0.00000000000E+00 0.  1.
         21   -1    0    0  501  503 -0.00000000000E+00 -0.00000000000E+00 -0.25392372975E+03  0.25392372975E+03  0.00000000000E+00 0.  1.
          6    1    1    2  501    0  0.59677626666E+02  0.16303708777E+03 -0.49658932487E+02  0.25007503012E+03  0.17300000000E+03 0.  1.
         -6    1    1    2    0  502 -0.59677626666E+02 -0.16303708777E+03  0.40267170975E+02  0.24838066787E+03  0.17300000000E+03 0.  1.
<mgrwt>
<rscale>  2 0.24509490E+03</rscale>
<asrwt>0</asrwt>
<pdfrwt beam="1">  1       21 0.37620303E-01 0.24509490E+03</pdfrwt>
<pdfrwt beam="2">  1       21 0.39065189E-01 0.24509490E+03</pdfrwt>
<totfact> 0.42009139E+04</totfact>
</mgrwt>
</event>
<event>
 4    1  0.4495571E+000  0.2000039E+03  0.7546771E-02  0.1149736E+00
         21   -1    0    0  503  502  0.00000000000E+00  0.00000000000E+00  0.23124257573E+03  0.23124257573E+03  0.00000000000E+00 0. -1.
         21   -1    0    0  501  503 -0.00000000000E+00 -0.00000000000E+00 -0.51535492253E+03  0.51535492253E+03  0.00000000000E+00 0. -1.
          6    1    1    2  501    0  0.77371878407E+02 -0.63922941850E+02 -0.44632045824E+03  0.48908435009E+03  0.17300000000E+03 0. -1.
         -6    1    1    2    0  502 -0.77371878407E+02  0.63922941850E+02  0.16220811143E+03  0.25751314817E+03  0.17300000000E+03 0. -1.
<mgrwt>
<rscale>  2 0.20000388E+03</rscale>
<asrwt>0</asrwt>
<pdfrwt beam="1">  1       21 0.35575781E-01 0.20000388E+03</pdfrwt>
<pdfrwt beam="2">  1       21 0.79285372E-01 0.20000388E+03</pdfrwt>
<totfact> 0.10638500E+04</totfact>
</mgrwt>
</event>
<event>
 4    1  0.4495571E+000  0.1843997E+03  0.7546771E-02  0.1163612E+00
         21   -1    0    0  503  502  0.00000000000E+00  0.00000000000E+00  0.12419646029E+03  0.12419646029E+03  0.00000000000E+00 0. -1.
         21   -1    0    0  501  503 -0.00000000000E+00 -0.00000000000E+00 -0.37457441935E+03  0.37457441935E+03  0.00000000000E+00 0. -1.
          6    1    1    2  501    0  0.55844786048E+02  0.30912881688E+02 -0.25455119727E+03  0.31432397047E+03  0.17300000000E+03 0. -1.
         -6    1    1    2    0  502 -0.55844786048E+02 -0.30912881688E+02  0.41732382139E+01  0.18444690916E+03  0.17300000000E+03 0. -1.
<mgrwt>
<rscale>  2 0.18439969E+03</rscale>
<asrwt>0</asrwt>
<pdfrwt beam="1">  1       21 0.19107148E-01 0.18439969E+03</pdfrwt>
<pdfrwt beam="2">  1       21 0.57626833E-01 0.18439969E+03</pdfrwt>
<totfact> 0.71251401E+04</totfact>
</mgrwt>
</event>
<event>
 4    1  0.4495571E+000  0.1775897E+03  0.7546771E-02  0.1170156E+00
         21   -1    0    0  501  502  0.00000000000E+00  0.00000000000E+00  0.48577856986E+03  0.48577856986E+03  0.00000000000E+00 0. -1.
         21   -1    0    0  502  503 -0.00000000000E+00 -0.00000000000E+00 -0.76433610539E+02  0.76433610539E+02  0.00000000000E+00 0. -1.
          6    1    1    2  501    0 -0.38755946159E+02 -0.10348463855E+02  0.95583553809E+02  0.20167877882E+03  0.17300000000E+03 0. -1.
         -6    1    1    2    0  503  0.38755946159E+02  0.10348463855E+02  0.31376140551E+03  0.36053340158E+03  0.17300000000E+03 0. -1.
<mgrwt>
<rscale>  2 0.17758974E+03</rscale>
<asrwt>0</asrwt>
<pdfrwt beam="1">  1       21 0.74735163E-01 0.17758974E+03</pdfrwt>
<pdfrwt beam="2">  1       21 0.11759017E-01 0.17758974E+03</pdfrwt>
<totfact> 0.98094367E+04</totfact>
</mgrwt>
</event>
<event>
 4    1  0.4495571E+000  0.2167354E+03  0.7546771E-02  0.1136341E+00
         21   -1    0    0  503  502  0.00000000000E+00  0.00000000000E+00  0.98376994877E+02  0.98376994877E+02  0.00000000000E+00 0.  1.
         21   -1    0    0  501  503 -0.00000000000E+00 -0.00000000000E+00 -0.10500162405E+04  0.10500162405E+04  0.00000000000E+00 0.  1.
          6    1    1    2  501    0 -0.12086421633E+03 -0.49366720845E+02 -0.89981346232E+03  0.92554767510E+03  0.17300000000E+03 0.  1.
         -6    1    1    2    0  502  0.12086421633E+03  0.49366720845E+02 -0.51825783297E+02  0.22284556027E+03  0.17300000000E+03 0.  1.
<mgrwt>
<rscale>  2 0.21673540E+03</rscale>
<asrwt>0</asrwt>
<pdfrwt beam="1">  1       21 0.15134922E-01 0.21673540E+03</pdfrwt>
<pdfrwt beam="2">  1       21 0.16154096E+00 0.21673540E+03</pdfrwt>
<totfact> 0.92938418E+03</totfact>
</mgrwt>
</event>
<event>
 4    1  0.4495571E+000  0.1870885E+03  0.7546771E-02  0.1161114E+00
         21   -1    0    0  501  502  0.00000000000E+00  0.00000000000E+00  0.17168203903E+03  0.17168203903E+03  0.00000000000E+00 0. -1.
         21   -1    0    0  502  503 -0.00000000000E+00 -0.00000000000E+00 -0.55024043324E+03  0.55024043324E+03  0.00000000000E+00 0.  1.
          6    1    1    2  501    0 -0.70883181042E+02 -0.69778606212E+01  0.97105613116E+02  0.21078808314E+03  0.17300000000E+03 0. -1.
         -6    1    1    2    0  503  0.70883181042E+02  0.69778606212E+01 -0.47566400733E+03  0.51113438914E+03  0.17300000000E+03 0.  1.
<mgrwt>
<rscale>  2 0.18708852E+03</rscale>
<asrwt>0</asrwt>
<pdfrwt beam="1">  1       21 0.26412622E-01 0.18708852E+03</pdfrwt>
<pdfrwt beam="2">  1       21 0.84652374E-01 0.18708852E+03</pdfrwt>
<totfact> 0.16548249E+04</totfact>
</mgrwt>
</event>
<event>
 4    1  0.4495571E+000  0.1812437E+03  0.7546771E-02  0.1166605E+00
         21   -1    0    0  501  502  0.00000000000E+00  0.00000000000E+00  0.20836720628E+03  0.20836720628E+03  0.00000000000E+00 0. -1.
         21   -1    0    0  502  503 -0.00000000000E+00 -0.00000000000E+00 -0.16106312156E+03  0.16106312156E+03  0.00000000000E+00 0. -1.
          6    1    1    2  501    0  0.34966086801E+02 -0.41202500220E+02 -0.32338486503E+01  0.18127253247E+03  0.17300000000E+03 0. -1.
         -6    1    1    2    0  503 -0.34966086801E+02  0.41202500220E+02  0.50537933363E+02  0.18815779537E+03  0.17300000000E+03 0. -1.
<mgrwt>
<rscale>  2 0.18124368E+03</rscale>
<asrwt>0</asrwt>
<pdfrwt beam="1">  1       21 0.32056493E-01 0.18124368E+03</pdfrwt>
<pdfrwt beam="2">  1       21 0.24778942E-01 0.18124368E+03</pdfrwt>
<totfact> 0.14472949E+05</totfact>
</mgrwt>
</event>
<event>
 4    1  0.4495571E+000  0.2033998E+03  0.7546771E-02  0.1146902E+00
         21   -1    0    0  503  502  0.00000000000E+00  0.00000000000E+00  0.15138287371E+04  0.15138287371E+04  0.00000000000E+00 0.  1.
         21   -1    0    0  501  503 -0.00000000000E+00 -0.00000000000E+00 -0.31452676536E+02  0.31452676536E+02  0.00000000000E+00 0. -1.
          6    1    1    2  501    0 -0.91437444998E+02 -0.55512688311E+02  0.10209506640E+04  0.10410147565E+04  0.17300000000E+03 0.  1.
         -6    1    1    2    0  502  0.91437444998E+02  0.55512688311E+02  0.46142539654E+03  0.50426665712E+03  0.17300000000E+03 0. -1.
<mgrwt>
<rscale>  2 0.20339977E+03</rscale>
<asrwt>0</asrwt>
<pdfrwt beam="1">  1       21 0.23289667E+00 0.20339977E+03</pdfrwt>
<pdfrwt beam="2">  1       21 0.48388745E-02 0.20339977E+03</pdfrwt>
<totfact> 0.23681661E+04</totfact>
</mgrwt>
</event>
<event>
 4    1  0.4495571E+000  0.1845472E+03  0.7546771E-02  0.1163473E+00
         21   -1    0    0  501  502  0.00000000000E+00  0.00000000000E+00  0.35425147806E+03  0.35425147806E+03  0.00000000000E+00 0.  1.
         21   -1    0    0  502  503 -0.00000000000E+00 -0.00000000000E+00 -0.12491047051E+04  0.12491047051E+04  0.00000000000E+00 0.  1.
          6    1    1    2  501    0 -0.63969795380E+02 -0.60456266733E+01  0.32278245471E+03  0.37181473530E+03  0.17300000000E+03 0.  1.
         -6    1    1    2    0  503  0.63969795380E+02  0.60456266733E+01 -0.12176356817E+04  0.12315414478E+04  0.17300000000E+03 0.  1.
<mgrwt>
<rscale>  2 0.18454724E+03</rscale>
<asrwt>0</asrwt>
<pdfrwt beam="1">  1       21 0.54500227E-01 0.18454724E+03</pdfrwt>
<pdfrwt beam="2">  1       21 0.19216996E+00 0.18454724E+03</pdfrwt>
<totfact> 0.48480503E+02</totfact>
</mgrwt>
</event>
<event>
 4    1  0.4495571E+000  0.2984105E+03  0.7546771E-02  0.1086038E+00
         21   -1    0    0  503  502  0.00000000000E+00  0.00000000000E+00  0.32552003665E+03  0.32552003665E+03  0.00000000000E+00 0.  1.
         21   -1    0    0  501  503 -0.00000000000E+00 -0.00000000000E+00 -0.27665846102E+03  0.27665846102E+03  0.00000000000E+00 0.  1.
          6    1    1    2  501    0  0.13980041010E+03 -0.19893637781E+03 -0.74396173619E+01  0.29850324117E+03  0.17300000000E+03 0.  1.
         -6    1    1    2    0  502 -0.13980041010E+03  0.19893637781E+03  0.56301192990E+02  0.30367525650E+03  0.17300000000E+03 0.  1.
<mgrwt>
<rscale>  2 0.29841052E+03</rscale>
<asrwt>0</asrwt>
<pdfrwt beam="1">  1       21 0.50080006E-01 0.29841052E+03</pdfrwt>
<pdfrwt beam="2">  1       21 0.42562840E-01 0.29841052E+03</pdfrwt>
<totfact> 0.19131635E+04</totfact>
</mgrwt>
</event>
<event>
 4    1  0.4495571E+000  0.2350471E+03  0.7546771E-02  0.1123137E+00
         21   -1    0    0  501  502  0.00000000000E+00  0.00000000000E+00  0.12401039350E+03  0.12401039350E+03  0.00000000000E+00 0. -1.
         21   -1    0    0  502  503 -0.00000000000E+00 -0.00000000000E+00 -0.44679074716E+03  0.44679074716E+03  0.00000000000E+00 0. -1.
          6    1    1    2  501    0 -0.14794347998E+03  0.58573605142E+02 -0.17670563937E+03  0.29406125802E+03  0.17300000000E+03 0. -1.
         -6    1    1    2    0  503  0.14794347998E+03 -0.58573605142E+02 -0.14607471430E+03  0.27673988264E+03  0.17300000000E+03 0. -1.
<mgrwt>
<rscale>  2 0.23504710E+03</rscale>
<asrwt>0</asrwt>
<pdfrwt beam="1">  1       21 0.19078522E-01 0.23504710E+03</pdfrwt>
<pdfrwt beam="2">  1       21 0.68737038E-01 0.23504710E+03</pdfrwt>
<totfact> 0.47650973E+04</totfact>
</mgrwt>
</event>
<event>
 4    1  0.4495571E+000  0.1767574E+03  0.7546771E-02  0.1170979E+00
         21   -1    0    0  501  502  0.00000000000E+00  0.00000000000E+00  0.18116597296E+03  0.18116597296E+03  0.00000000000E+00 0. -1.
         21   -1    0    0  502  503 -0.00000000000E+00 -0.00000000000E+00 -0.27257780852E+03  0.27257780852E+03  0.00000000000E+00 0. -1.
          6    1    1    2  501    0  0.34917488144E+02 -0.97442729084E+01  0.91793073652E+02  0.19917115806E+03  0.17300000000E+03 0. -1.
         -6    1    1    2    0  503 -0.34917488144E+02  0.97442729084E+01 -0.18320490922E+03  0.25457262342E+03  0.17300000000E+03 0. -1.
<mgrwt>
<rscale>  2 0.17675741E+03</rscale>
<asrwt>0</asrwt>
<pdfrwt beam="1">  1       21 0.27871688E-01 0.17675741E+03</pdfrwt>
<pdfrwt beam="2">  1       21 0.41935047E-01 0.17675741E+03</pdfrwt>
<totfact> 0.67743597E+04</totfact>
</mgrwt>
</event>
<event>
 4    1  0.4495571E+000  0.1768661E+03  0.7546771E-02  0.1170871E+00
         21   -1    0    0  503  502  0.00000000000E+00  0.00000000000E+00  0.31915108238E+02  0.31915108238E+02  0.00000000000E+00 0. -1.
         21   -1    0    0  501  503 -0.00000000000E+00 -0.00000000000E+00 -0.15951666352E+04  0.15951666352E+04  0.00000000000E+00 0. -1.
          6    1    1    2  501    0 -0.12880050292E+02 -0.34449018142E+02 -0.12867746123E+04  0.12988727934E+04  0.17300000000E+03 0. -1.
         -6    1    1    2    0  502  0.12880050292E+02  0.34449018142E+02 -0.27647691462E+03  0.32820895000E+03  0.17300000000E+03 0. -1.
<mgrwt>
<rscale>  2 0.17686614E+03</rscale>
<asrwt>0</asrwt>
<pdfrwt beam="1">  1       21 0.49100166E-02 0.17686614E+03</pdfrwt>
<pdfrwt beam="2">  1       21 0.24541025E+00 0.17686614E+03</pdfrwt>
<totfact> 0.19908262E+04</totfact>
</mgrwt>
</event>
<event>
 4    1  0.4495571E+000  0.2504519E+03  0.7546771E-02  0.1113020E+00
         21   -1    0    0  503  502  0.00000000000E+00  0.00000000000E+00  0.16600874438E+03  0.16600874438E+03  0.00000000000E+00 0. -1.
         21   -1    0    0  501  503 -0.00000000000E+00 -0.00000000000E+00 -0.38714088946E+03  0.38714088946E+03  0.00000000000E+00 0.  1.
          6    1    1    2  501    0 -0.16105787247E+03 -0.82810203219E+02 -0.15341500287E+03  0.29370449630E+03  0.17300000000E+03 0.  1.
         -6    1    1    2    0  502  0.16105787247E+03  0.82810203219E+02 -0.67717142205E+02  0.25944513753E+03  0.17300000000E+03 0. -1.
<mgrwt>
<rscale>  2 0.25045193E+03</rscale>
<asrwt>0</asrwt>
<pdfrwt beam="1">  1       21 0.25539807E-01 0.25045193E+03</pdfrwt>
<pdfrwt beam="2">  1       21 0.59560136E-01 0.25045193E+03</pdfrwt>
<totfact> 0.37233967E+04</totfact>
</mgrwt>
</event>
<event>
 4    1  0.4495571E+000  0.2450937E+03  0.7546771E-02  0.1116445E+00
         21   -1    0    0  503  502  0.00000000000E+00  0.00000000000E+00  0.35536162836E+03  0.35536162836E+03  0.00000000000E+00 0.  1.
         21   -1    0    0  501  503 -0.00000000000E+00 -0.00000000000E+00 -0.22876576551E+03  0.22876576551E+03  0.00000000000E+00 0. -1.
          6    1    1    2  501    0 -0.44195384193E+01  0.17355800121E+03 -0.85932352327E+02  0.25972154566E+03  0.17300000000E+03 0. -1.
         -6    1    1    2    0  502  0.44195384193E+01 -0.17355800121E+03  0.21252821518E+03  0.32440584821E+03  0.17300000000E+03 0.  1.
<mgrwt>
<rscale>  2 0.24509368E+03</rscale>
<asrwt>0</asrwt>
<pdfrwt beam="1">  1       21 0.54671020E-01 0.24509368E+03</pdfrwt>
<pdfrwt beam="2">  1       21 0.35194733E-01 0.24509368E+03</pdfrwt>
<totfact> 0.23911277E+04</totfact>
</mgrwt>
</event>
<event>
 4    1  0.4495571E+000  0.2056456E+03  0.7546771E-02  0.1145061E+00
         21   -1    0    0  503  502  0.00000000000E+00  0.00000000000E+00  0.10015388890E+03  0.10015388890E+03  0.00000000000E+00 0.  1.
         21   -1    0    0  501  503 -0.00000000000E+00 -0.00000000000E+00 -0.54539941634E+03  0.54539941634E+03  0.00000000000E+00 0.  1.
          6    1    1    2  501    0  0.29034660167E+02  0.10732233546E+03 -0.37599929895E+03  0.42856221018E+03  0.17300000000E+03 0.  1.
         -6    1    1    2    0  502 -0.29034660167E+02 -0.10732233546E+03 -0.69246228488E+02  0.21699109507E+03  0.17300000000E+03 0.  1.
<mgrwt>
<rscale>  2 0.20564556E+03</rscale>
<asrwt>0</asrwt>
<pdfrwt beam="1">  1       21 0.15408290E-01 0.20564556E+03</pdfrwt>
<pdfrwt beam="2">  1       21 0.83907603E-01 0.20564556E+03</pdfrwt>
<totfact> 0.45797370E+04</totfact>
</mgrwt>
</event>
<event>
 4    1  0.4495571E+000  0.2769075E+03  0.7546771E-02  0.1097390E+00
         21   -1    0    0  501  502  0.00000000000E+00  0.00000000000E+00  0.78762657144E+03  0.78762657144E+03  0.00000000000E+00 0.  1.
         21   -1    0    0  502  503 -0.00000000000E+00 -0.00000000000E+00 -0.35400076480E+03  0.35400076480E+03  0.00000000000E+00 0. -1.
          6    1    1    2  501    0  0.20844335145E+03 -0.57446853526E+02  0.70284063223E+03  0.75542221708E+03  0.17300000000E+03 0.  1.
         -6    1    1    2    0  503 -0.20844335145E+03  0.57446853526E+02 -0.26921482559E+03  0.38620511915E+03  0.17300000000E+03 0. -1.
<mgrwt>
<rscale>  2 0.27690751E+03</rscale>
<asrwt>0</asrwt>
<pdfrwt beam="1">  1       21 0.12117332E+00 0.27690751E+03</pdfrwt>
<pdfrwt beam="2">  1       21 0.54461656E-01 0.27690751E+03</pdfrwt>
<totfact> 0.15332719E+03</totfact>
</mgrwt>
</event>
<event>
 4    1  0.4495571E+000  0.2308117E+03  0.7546771E-02  0.1126070E+00
         21   -1    0    0  503  502  0.00000000000E+00  0.00000000000E+00  0.65157184596E+03  0.65157184596E+03  0.00000000000E+00 0.  1.
         21   -1    0    0  501  503 -0.00000000000E+00 -0.00000000000E+00 -0.59408431977E+03  0.59408431977E+03  0.00000000000E+00 0.  1.
          6    1    1    2  501    0  0.40717376240E+02  0.14726551217E+03 -0.54963939419E+03  0.59613547072E+03  0.17300000000E+03 0.  1.
         -6    1    1    2    0  502 -0.40717376240E+02 -0.14726551217E+03  0.60712692038E+03  0.64952069501E+03  0.17300000000E+03 0.  1.
<mgrwt>
<rscale>  2 0.23081169E+03</rscale>
<asrwt>0</asrwt>
<pdfrwt beam="1">  1       21 0.10024182E+00 0.23081169E+03</pdfrwt>
<pdfrwt beam="2">  1       21 0.91397587E-01 0.23081169E+03</pdfrwt>
<totfact> 0.79732166E+02</totfact>
</mgrwt>
</event>
<event>
 4    1  0.4495571E+000  0.1807044E+03  0.7546771E-02  0.1167123E+00
         21   -1    0    0  503  502  0.00000000000E+00  0.00000000000E+00  0.33578664467E+02  0.33578664467E+02  0.00000000000E+00 0. -1.
         21   -1    0    0  501  503 -0.00000000000E+00 -0.00000000000E+00 -0.10975793358E+04  0.10975793358E+04  0.00000000000E+00 0. -1.
          6    1    1    2  501    0  0.26849337590E+02  0.44768163787E+02 -0.72295438802E+03  0.74519602963E+03  0.17300000000E+03 0. -1.
         -6    1    1    2    0  502 -0.26849337590E+02 -0.44768163787E+02 -0.34104628332E+03  0.38596197065E+03  0.17300000000E+03 0. -1.
<mgrwt>
<rscale>  2 0.18070439E+03</rscale>
<asrwt>0</asrwt>
<pdfrwt beam="1">  1       21 0.51659483E-02 0.18070439E+03</pdfrwt>
<pdfrwt beam="2">  1       21 0.16885836E+00 0.18070439E+03</pdfrwt>
<totfact> 0.55704323E+04</totfact>
</mgrwt>
</event>
<event>
 4    1  0.4495571E+000  0.2159358E+03  0.7546771E-02  0.1136950E+00
         21   -1    0    0  501  502  0.00000000000E+00  0.00000000000E+00  0.46793025863E+03  0.46793025863E+03  0.00000000000E+00 0. -1.
         21   -1    0    0  502  503 -0.00000000000E+00 -0.00000000000E+00 -0.10590141533E+03  0.10590141533E+03  0.00000000000E+00 0. -1.
          6    1    1    2  501    0 -0.73468702320E+02 -0.10630912636E+03  0.11129323231E+03  0.24292892814E+03  0.17300000000E+03 0. -1.
         -6    1    1    2    0  503  0.73468702320E+02  0.10630912636E+03  0.25073561099E+03  0.33090274581E+03  0.17300000000E+03 0. -1.
<mgrwt>
<rscale>  2 0.21593583E+03</rscale>
<asrwt>0</asrwt>
<pdfrwt beam="1">  1       21 0.71989270E-01 0.21593583E+03</pdfrwt>
<pdfrwt beam="2">  1       21 0.16292526E-01 0.21593583E+03</pdfrwt>
<totfact> 0.58107955E+04</totfact>
</mgrwt>
</event>
<event>
 4    1  0.4495571E+000  0.1963862E+03  0.7546771E-02  0.1152824E+00
         21   -1    0    0  503  502  0.00000000000E+00  0.00000000000E+00  0.73716228552E+03  0.73716228552E+03  0.00000000000E+00 0. -1.
         21   -1    0    0  501  503 -0.00000000000E+00 -0.00000000000E+00 -0.11275947129E+03  0.11275947129E+03  0.00000000000E+00 0. -1.
          6    1    1    2  501    0 -0.92937618050E+02 -0.10702788222E+01  0.10752054111E+01  0.19638916063E+03  0.17300000000E+03 0. -1.
         -6    1    1    2    0  502  0.92937618050E+02  0.10702788222E+01  0.62332760882E+03  0.65353259618E+03  0.17300000000E+03 0. -1.
<mgrwt>
<rscale>  2 0.19638622E+03</rscale>
<asrwt>0</asrwt>
<pdfrwt beam="1">  1       21 0.11340958E+00 0.19638622E+03</pdfrwt>
<pdfrwt beam="2">  1       21 0.17347611E-01 0.19638622E+03</pdfrwt>
<totfact> 0.18184668E+04</totfact>
</mgrwt>
</event>
<event>
 4    1  0.4495571E+000  0.2092419E+03  0.7546771E-02  0.1142168E+00
         21   -1    0    0  503  502  0.00000000000E+00  0.00000000000E+00  0.54050373268E+02  0.54050373268E+02  0.00000000000E+00 0. -1.
         21   -1    0    0  501  503 -0.00000000000E+00 -0.00000000000E+00 -0.89928291391E+03  0.89928291391E+03  0.00000000000E+00 0. -1.
          6    1    1    2  501    0  0.95867119781E+02 -0.68283688000E+02 -0.57278840959E+03  0.60981040403E+03  0.17300000000E+03 0. -1.
         -6    1    1    2    0  502 -0.95867119781E+02  0.68283688000E+02 -0.27244413105E+03  0.34352288315E+03  0.17300000000E+03 0. -1.
<mgrwt>
<rscale>  2 0.20924189E+03</rscale>
<asrwt>0</asrwt>
<pdfrwt beam="1">  1       21 0.83154430E-02 0.20924189E+03</pdfrwt>
<pdfrwt beam="2">  1       21 0.13835120E+00 0.20924189E+03</pdfrwt>
<totfact> 0.40998287E+04</totfact>
</mgrwt>
</event>
<event>
 4    1  0.4495571E+000  0.2044866E+03  0.7546771E-02  0.1146008E+00
         21   -1    0    0  503  502  0.00000000000E+00  0.00000000000E+00  0.10414829131E+03  0.10414829131E+03  0.00000000000E+00 0.  1.
         21   -1    0    0  501  503 -0.00000000000E+00 -0.00000000000E+00 -0.55469422044E+03  0.55469422044E+03  0.00000000000E+00 0. -1.
          6    1    1    2  501    0  0.17111597195E+02 -0.10767059617E+03 -0.39839666848E+03  0.44781097518E+03  0.17300000000E+03 0.  1.
         -6    1    1    2    0  502 -0.17111597195E+02  0.10767059617E+03 -0.52149260661E+02  0.21103153657E+03  0.17300000000E+03 0.  1.
<mgrwt>
<rscale>  2 0.20448659E+03</rscale>
<asrwt>0</asrwt>
<pdfrwt beam="1">  1       21 0.16022814E-01 0.20448659E+03</pdfrwt>
<pdfrwt beam="2">  1       21 0.85337573E-01 0.20448659E+03</pdfrwt>
<totfact> 0.41039827E+04</totfact>
</mgrwt>
</event>
<event>
 4    1  0.4495571E+000  0.2691113E+03  0.7546771E-02  0.1101789E+00
         21   -1    0    0  503  502  0.00000000000E+00  0.00000000000E+00  0.13079589262E+04  0.13079589262E+04  0.00000000000E+00 0. -1.
         21   -1    0    0  501  503 -0.00000000000E+00 -0.00000000000E+00 -0.74574065340E+02  0.74574065340E+02  0.00000000000E+00 0. -1.
          6    1    1    2  501    0 -0.73009147511E+02 -0.19277338091E+03  0.26589623469E+03  0.37831431327E+03  0.17300000000E+03 0. -1.
         -6    1    1    2    0  502  0.73009147511E+02  0.19277338091E+03  0.96748862622E+03  0.10042186783E+04  0.17300000000E+03 0. -1.
<mgrwt>
<rscale>  2 0.26911134E+03</rscale>
<asrwt>0</asrwt>
<pdfrwt beam="1">  1       21 0.20122443E+00 0.26911134E+03</pdfrwt>
<pdfrwt beam="2">  1       21 0.11472934E-01 0.26911134E+03</pdfrwt>
<totfact> 0.79161566E+03</totfact>
</mgrwt>
</event>
<event>
 4    1  0.4495571E+000  0.1984744E+03  0.7546771E-02  0.1151033E+00
         21   -1    0    0  501  502  0.00000000000E+00  0.00000000000E+00  0.14073305636E+04  0.14073305636E+04  0.00000000000E+00 0.  1.
         21   -1    0    0  502  503 -0.00000000000E+00 -0.00000000000E+00 -0.13008437276E+03  0.13008437276E+03  0.00000000000E+00 0.  1.
          6    1    1    2  501    0 -0.71672115550E+02 -0.65773911121E+02  0.13196245718E+04  0.13344666013E+04  0.17300000000E+03 0.  1.
         -6    1    1    2    0  503  0.71672115550E+02  0.65773911121E+02 -0.42378380944E+02  0.20294833506E+03  0.17300000000E+03 0.  1.
<mgrwt>
<rscale>  2 0.19847443E+03</rscale>
<asrwt>0</asrwt>
<pdfrwt beam="1">  1       21 0.21651238E+00 0.19847443E+03</pdfrwt>
<pdfrwt beam="2">  1       21 0.20012981E-01 0.19847443E+03</pdfrwt>
<totfact> 0.24221338E+03</totfact>
</mgrwt>
</event>
<event>
 4    1  0.4495571E+000  0.1947294E+03  0.7546771E-02  0.1154264E+00
         21   -1    0    0  501  502  0.00000000000E+00  0.00000000000E+00  0.13068945343E+03  0.13068945343E+03  0.00000000000E+00 0. -1.
         21   -1    0    0  502  503 -0.00000000000E+00 -0.00000000000E+00 -0.29455698398E+03  0.29455698398E+03  0.00000000000E+00 0.  1.
          6    1    1    2  501    0  0.65516892688E+02  0.60811662462E+02 -0.10794168297E+03  0.22264529737E+03  0.17300000000E+03 0. -1.
         -6    1    1    2    0  503 -0.65516892688E+02 -0.60811662462E+02 -0.55925847584E+02  0.20260114004E+03  0.17300000000E+03 0. -1.
<mgrwt>
<rscale>  2 0.19472935E+03</rscale>
<asrwt>0</asrwt>
<pdfrwt beam="1">  1       21 0.20106070E-01 0.19472935E+03</pdfrwt>
<pdfrwt beam="2">  1       21 0.45316459E-01 0.19472935E+03</pdfrwt>
<totfact> 0.10667665E+05</totfact>
</mgrwt>
</event>
<event>
 4    1  0.4495571E+000  0.3492297E+03  0.7546771E-02  0.1062932E+00
         21   -1    0    0  503  502  0.00000000000E+00  0.00000000000E+00  0.10491107720E+04  0.10491107720E+04  0.00000000000E+00 0.  1.
         21   -1    0    0  501  503 -0.00000000000E+00 -0.00000000000E+00 -0.12692520204E+03  0.12692520204E+03  0.00000000000E+00 0. -1.
          6    1    1    2  501    0  0.24282529342E+03  0.18184685260E+03  0.63160702036E+03  0.72172628405E+03  0.17300000000E+03 0. -1.
         -6    1    1    2    0  502 -0.24282529342E+03 -0.18184685260E+03  0.29057854959E+03  0.45430968998E+03  0.17300000000E+03 0.  1.
<mgrwt>
<rscale>  2 0.34922973E+03</rscale>
<asrwt>0</asrwt>
<pdfrwt beam="1">  1       21 0.16140165E+00 0.34922973E+03</pdfrwt>
<pdfrwt beam="2">  1       21 0.19526955E-01 0.34922973E+03</pdfrwt>
<totfact> 0.53761891E+03</totfact>
</mgrwt>
</event>
<event>
 4    1  0.4495571E+000  0.3143422E+03  0.7546771E-02  0.1078283E+00
         21   -1    0    0  501  502  0.00000000000E+00  0.00000000000E+00  0.11062209812E+03  0.11062209812E+03  0.00000000000E+00 0.  1.
         21   -1    0    0  502  503 -0.00000000000E+00 -0.00000000000E+00 -0.92173148446E+03  0.92173148446E+03  0.00000000000E+00 0. -1.
          6    1    1    2  501    0  0.73404831820E+02  0.25197968261E+03 -0.31478803489E+03  0.44486237950E+03  0.17300000000E+03 0.  1.
         -6    1    1    2    0  503 -0.73404831820E+02 -0.25197968261E+03 -0.49632135146E+03  0.58749120308E+03  0.17300000000E+03 0. -1.
<mgrwt>
<rscale>  2 0.31434222E+03</rscale>
<asrwt>0</asrwt>
<pdfrwt beam="1">  1       21 0.17018784E-01 0.31434222E+03</pdfrwt>
<pdfrwt beam="2">  1       21 0.14180484E+00 0.31434222E+03</pdfrwt>
<totfact> 0.10027889E+04</totfact>
</mgrwt>
</event>
<event>
 4    1  0.4495571E+000  0.2150421E+03  0.7546771E-02  0.1137634E+00
         21   -1    0    0  501  502  0.00000000000E+00  0.00000000000E+00  0.80129321704E+02  0.80129321704E+02  0.00000000000E+00 0.  1.
         21   -1    0    0  502  503 -0.00000000000E+00 -0.00000000000E+00 -0.87631809803E+03  0.87631809803E+03  0.00000000000E+00 0.  1.
          6    1    1    2  501    0  0.89489359886E+02 -0.91136020044E+02 -0.11865364873E+03  0.24560498374E+03  0.17300000000E+03 0.  1.
         -6    1    1    2    0  503 -0.89489359886E+02  0.91136020044E+02 -0.67753512759E+03  0.71084243598E+03  0.17300000000E+03 0.  1.
<mgrwt>
<rscale>  2 0.21504213E+03</rscale>
<asrwt>0</asrwt>
<pdfrwt beam="1">  1       21 0.12327588E-01 0.21504213E+03</pdfrwt>
<pdfrwt beam="2">  1       21 0.13481817E+00 0.21504213E+03</pdfrwt>
<totfact> 0.21733243E+04</totfact>
</mgrwt>
</event>
<event>
 4    1  0.4495571E+000  0.1868348E+03  0.7546771E-02  0.1161348E+00
         21   -1    0    0  501  502  0.00000000000E+00  0.00000000000E+00  0.27307247630E+03  0.27307247630E+03  0.00000000000E+00 0. -1.
         21   -1    0    0  502  503 -0.00000000000E+00 -0.00000000000E+00 -0.16998309067E+03  0.16998309067E+03  0.00000000000E+00 0. -1.
          6    1    1    2  501    0 -0.15164208860E+02 -0.68907698570E+02  0.16185931504E+03  0.24719559466E+03  0.17300000000E+03 0. -1.
         -6    1    1    2    0  503  0.15164208860E+02  0.68907698570E+02 -0.58769929408E+02  0.19585997231E+03  0.17300000000E+03 0. -1.
<mgrwt>
<rscale>  2 0.18683475E+03</rscale>
<asrwt>0</asrwt>
<pdfrwt beam="1">  1       21 0.42011150E-01 0.18683475E+03</pdfrwt>
<pdfrwt beam="2">  1       21 0.26151245E-01 0.18683475E+03</pdfrwt>
<totfact> 0.75963173E+04</totfact>
</mgrwt>
</event>
<event>
 4    1  0.4495571E+000  0.2411103E+03  0.7546771E-02  0.1119055E+00
         21   -1    0    0  503  502  0.00000000000E+00  0.00000000000E+00  0.75373764535E+03  0.75373764535E+03  0.00000000000E+00 0.  1.
         21   -1    0    0  501  503 -0.00000000000E+00 -0.00000000000E+00 -0.87732808576E+02  0.87732808576E+02  0.00000000000E+00 0. -1.
          6    1    1    2  501    0 -0.99980765832E+02  0.13494075929E+03  0.18672327719E+03  0.30495859440E+03  0.17300000000E+03 0. -1.
         -6    1    1    2    0  502  0.99980765832E+02 -0.13494075929E+03  0.47928155958E+03  0.53651185952E+03  0.17300000000E+03 0.  1.
<mgrwt>
<rscale>  2 0.24111027E+03</rscale>
<asrwt>0</asrwt>
<pdfrwt beam="1">  1       21 0.11595963E+00 0.24111027E+03</pdfrwt>
<pdfrwt beam="2">  1       21 0.13497356E-01 0.24111027E+03</pdfrwt>
<totfact> 0.26563806E+04</totfact>
</mgrwt>
</event>
<event>
 4    1  0.4495571E+000  0.2057936E+03  0.7546771E-02  0.1144941E+00
         21   -1    0    0  501  502  0.00000000000E+00  0.00000000000E+00  0.24679979709E+03  0.24679979709E+03  0.00000000000E+00 0.  1.
         21   -1    0    0  502  503 -0.00000000000E+00 -0.00000000000E+00 -0.50794800719E+03  0.50794800719E+03  0.00000000000E+00 0.  1.
          6    1    1    2  501    0 -0.15707999763E+02  0.11034159868E+03  0.17650921783E+03  0.27112084692E+03  0.17300000000E+03 0.  1.
         -6    1    1    2    0  503  0.15707999763E+02 -0.11034159868E+03 -0.43765742793E+03  0.48362695736E+03  0.17300000000E+03 0.  1.
<mgrwt>
<rscale>  2 0.20579361E+03</rscale>
<asrwt>0</asrwt>
<pdfrwt beam="1">  1       21 0.37969200E-01 0.20579361E+03</pdfrwt>
<pdfrwt beam="2">  1       21 0.78145846E-01 0.20579361E+03</pdfrwt>
<totfact> 0.96118273E+03</totfact>
</mgrwt>
</event>
<event>
 4    1  0.4495571E+000  0.1837309E+03  0.7546771E-02  0.1164240E+00
         21   -1    0    0  501  502  0.00000000000E+00  0.00000000000E+00  0.89900026005E+02  0.89900026005E+02  0.00000000000E+00 0.  1.
         21   -1    0    0  502  503 -0.00000000000E+00 -0.00000000000E+00 -0.46237236809E+03  0.46237236809E+03  0.00000000000E+00 0.  1.
          6    1    1    2  501    0 -0.59488169420E+02  0.17005381370E+02 -0.30593235731E+03  0.35686360496E+03  0.17300000000E+03 0.  1.
         -6    1    1    2    0  503  0.59488169420E+02 -0.17005381370E+02 -0.66539984775E+02  0.19540878913E+03  0.17300000000E+03 0.  1.
<mgrwt>
<rscale>  2 0.18373085E+03</rscale>
<asrwt>0</asrwt>
<pdfrwt beam="1">  1       21 0.13830773E-01 0.18373085E+03</pdfrwt>
<pdfrwt beam="2">  1       21 0.71134211E-01 0.18373085E+03</pdfrwt>
<totfact> 0.81585223E+04</totfact>
</mgrwt>
</event>
<event>
 4    1  0.4495571E+000  0.2206363E+03  0.7546771E-02  0.1133410E+00
         21   -1    0    0  501  502  0.00000000000E+00  0.00000000000E+00  0.33233765799E+03  0.33233765799E+03  0.00000000000E+00 0. -1.
         21   -1    0    0  502  503 -0.00000000000E+00 -0.00000000000E+00 -0.25706006057E+03  0.25706006057E+03  0.00000000000E+00 0.  1.
          6    1    1    2  501    0  0.28586679400E+02  0.13391856141E+03  0.23092558640E+03  0.31938535625E+03  0.17300000000E+03 0. -1.
         -6    1    1    2    0  503 -0.28586679400E+02 -0.13391856141E+03 -0.15564798898E+03  0.27001236232E+03  0.17300000000E+03 0.  1.
<mgrwt>
<rscale>  2 0.22063631E+03</rscale>
<asrwt>0</asrwt>
<pdfrwt beam="1">  1       21 0.51128871E-01 0.22063631E+03</pdfrwt>
<pdfrwt beam="2">  1       21 0.39547702E-01 0.22063631E+03</pdfrwt>
<totfact> 0.22060636E+04</totfact>
</mgrwt>
</event>
<event>
 4    1  0.4495571E+000  0.2729286E+03  0.7546771E-02  0.1099615E+00
         21   -1    0    0  503  502  0.00000000000E+00  0.00000000000E+00  0.52493150414E+03  0.52493150414E+03  0.00000000000E+00 0. -1.
         21   -1    0    0  501  503 -0.00000000000E+00 -0.00000000000E+00 -0.15728935987E+03  0.15728935987E+03  0.00000000000E+00 0.  1.
          6    1    1    2  501    0  0.55461973452E+02 -0.20367863008E+03  0.77137994195E+02  0.28361996580E+03  0.17300000000E+03 0.  1.
         -6    1    1    2    0  502 -0.55461973452E+02  0.20367863008E+03  0.29050415007E+03  0.39860089821E+03  0.17300000000E+03 0.  1.
<mgrwt>
<rscale>  2 0.27292859E+03</rscale>
<asrwt>0</asrwt>
<pdfrwt beam="1">  1       21 0.80758692E-01 0.27292859E+03</pdfrwt>
<pdfrwt beam="2">  1       21 0.24198363E-01 0.27292859E+03</pdfrwt>
<totfact> 0.20806202E+04</totfact>
</mgrwt>
</event>
<event>
 4    1  0.4495571E+000  0.1939334E+03  0.7546771E-02  0.1154961E+00
         21   -1    0    0  501  502  0.00000000000E+00  0.00000000000E+00  0.68401031989E+03  0.68401031989E+03  0.00000000000E+00 0. -1.
         21   -1    0    0  502  503 -0.00000000000E+00 -0.00000000000E+00 -0.70480007380E+02  0.70480007380E+02  0.00000000000E+00 0. -1.
          6    1    1    2  501    0  0.63766924084E+02  0.60124427462E+02  0.48364953208E+03  0.52108256281E+03  0.17300000000E+03 0. -1.
         -6    1    1    2    0  503 -0.63766924084E+02 -0.60124427462E+02  0.12988078043E+03  0.23340776446E+03  0.17300000000E+03 0. -1.
<mgrwt>
<rscale>  2 0.19393341E+03</rscale>
<asrwt>0</asrwt>
<pdfrwt beam="1">  1       21 0.10523235E+00 0.19393341E+03</pdfrwt>
<pdfrwt beam="2">  1       21 0.10843079E-01 0.19393341E+03</pdfrwt>
<totfact> 0.51063371E+04</totfact>
</mgrwt>
</event>
<event>
 4    1  0.4495571E+000  0.3307266E+03  0.7546771E-02  0.1070816E+00
         21   -1    0    0  503  502  0.00000000000E+00  0.00000000000E+00  0.73289844322E+03  0.73289844322E+03  0.00000000000E+00 0. -1.
         21   -1    0    0  501  503 -0.00000000000E+00 -0.00000000000E+00 -0.27921070562E+03  0.27921070562E+03  0.00000000000E+00 0.  1.
          6    1    1    2  501    0  0.18372604676E+03 -0.21376584509E+03 -0.11841809907E+03  0.35128755027E+03  0.17300000000E+03 0.  1.
         -6    1    1    2    0  502 -0.18372604676E+03  0.21376584509E+03  0.57210583667E+03  0.66082159857E+03  0.17300000000E+03 0. -1.
<mgrwt>
<rscale>  2 0.33072662E+03</rscale>
<asrwt>0</asrwt>
<pdfrwt beam="1">  1       21 0.11275361E+00 0.33072662E+03</pdfrwt>
<pdfrwt beam="2">  1       21 0.42955493E-01 0.33072662E+03</pdfrwt>
<totfact> 0.29247479E+03</totfact>
</mgrwt>
</event>
<event>
 4    1  0.4495571E+000  0.3349999E+03  0.7546771E-02  0.1068946E+00
         21   -1    0    0  501  502  0.00000000000E+00  0.00000000000E+00  0.12703828344E+03  0.12703828344E+03  0.00000000000E+00 0.  1.
         21   -1    0    0  502  503 -0.00000000000E+00 -0.00000000000E+00 -0.11524636605E+04  0.11524636605E+04  0.00000000000E+00 0. -1.
          6    1    1    2  501    0  0.20646128969E+03  0.19917249314E+03 -0.20359124302E+03  0.39201318906E+03  0.17300000000E+03 0.  1.
         -6    1    1    2    0  503 -0.20646128969E+03 -0.19917249314E+03 -0.82183413407E+03  0.88748875490E+03  0.17300000000E+03 0. -1.
<mgrwt>
<rscale>  2 0.33499992E+03</rscale>
<asrwt>0</asrwt>
<pdfrwt beam="1">  1       21 0.19544352E-01 0.33499992E+03</pdfrwt>
<pdfrwt beam="2">  1       21 0.17730210E+00 0.33499992E+03</pdfrwt>
<totfact> 0.41484646E+03</totfact>
</mgrwt>
</event>
<event>
 4    1  0.4495571E+000  0.1909241E+03  0.7546771E-02  0.1157630E+00
         21   -1    0    0  501  502  0.00000000000E+00  0.00000000000E+00  0.12273498171E+04  0.12273498171E+04  0.00000000000E+00 0. -1.
         21   -1    0    0  502  503 -0.00000000000E+00 -0.00000000000E+00 -0.29716259004E+02  0.29716259004E+02  0.00000000000E+00 0. -1.
          6    1    1    2  501    0 -0.76665240865E+02  0.25406034530E+02  0.61361569726E+03  0.64263228184E+03  0.17300000000E+03 0.  1.
         -6    1    1    2    0  503  0.76665240865E+02 -0.25406034530E+02  0.58401786081E+03  0.61443379423E+03  0.17300000000E+03 0.  1.
<mgrwt>
<rscale>  2 0.19092414E+03</rscale>
<asrwt>0</asrwt>
<pdfrwt beam="1">  1       21 0.18882301E+00 0.19092414E+03</pdfrwt>
<pdfrwt beam="2">  1       21 0.45717331E-02 0.19092414E+03</pdfrwt>
<totfact> 0.49751629E+04</totfact>
</mgrwt>
</event>
<event>
 4    1  0.4495571E+000  0.1740605E+03  0.7546771E-02  0.1173678E+00
         21   -1    0    0  501  502  0.00000000000E+00  0.00000000000E+00  0.56434728062E+02  0.56434728062E+02  0.00000000000E+00 0. -1.
         21   -1    0    0  502  503 -0.00000000000E+00 -0.00000000000E+00 -0.17278755511E+04  0.17278755511E+04  0.00000000000E+00 0. -1.
          6    1    1    2  501    0 -0.10839363443E+02 -0.15829014696E+02 -0.95016771635E+02  0.19830591620E+03  0.17300000000E+03 0. -1.
         -6    1    1    2    0  503  0.10839363443E+02  0.15829014696E+02 -0.15764240514E+04  0.15860043630E+04  0.17300000000E+03 0. -1.
<mgrwt>
<rscale>  2 0.17406048E+03</rscale>
<asrwt>0</asrwt>
<pdfrwt beam="1">  1       21 0.86822650E-02 0.17406048E+03</pdfrwt>
<pdfrwt beam="2">  1       21 0.26582703E+00 0.17406048E+03</pdfrwt>
<totfact> 0.57076815E+03</totfact>
</mgrwt>
</event>
<event>
 4    1  0.4495571E+000  0.1813106E+03  0.7546771E-02  0.1166541E+00
         21   -1    0    0  503  502  0.00000000000E+00  0.00000000000E+00  0.13306662927E+03  0.13306662927E+03  0.00000000000E+00 0. -1.
         21   -1    0    0  501  503 -0.00000000000E+00 -0.00000000000E+00 -0.40727460451E+03  0.40727460451E+03  0.00000000000E+00 0. -1.
          6    1    1    2  501    0  0.43295279357E+02 -0.32711462548E+02 -0.30656315174E+03  0.35616637545E+03  0.17300000000E+03 0. -1.
         -6    1    1    2    0  502 -0.43295279357E+02  0.32711462548E+02  0.32355176499E+02  0.18417485834E+03  0.17300000000E+03 0. -1.
<mgrwt>
<rscale>  2 0.18131057E+03</rscale>
<asrwt>0</asrwt>
<pdfrwt beam="1">  1       21 0.20471789E-01 0.18131057E+03</pdfrwt>
<pdfrwt beam="2">  1       21 0.62657631E-01 0.18131057E+03</pdfrwt>
<totfact> 0.52432664E+04</totfact>
</mgrwt>
</event>
<event>
 4    1  0.4495571E+000  0.2111598E+03  0.7546771E-02  0.1140651E+00
         21   -1    0    0  503  502  0.00000000000E+00  0.00000000000E+00  0.63757635060E+03  0.63757635060E+03  0.00000000000E+00 0.  1.
         21   -1    0    0  501  503 -0.00000000000E+00 -0.00000000000E+00 -0.70729016993E+02  0.70729016993E+02  0.00000000000E+00 0.  1.
          6    1    1    2  501    0 -0.11329001693E+03 -0.42718267744E+02  0.24588418201E+03  0.32411033507E+03  0.17300000000E+03 0.  1.
         -6    1    1    2    0  502  0.11329001693E+03  0.42718267744E+02  0.32096315159E+03  0.38419503252E+03  0.17300000000E+03 0.  1.
<mgrwt>
<rscale>  2 0.21115984E+03</rscale>
<asrwt>0</asrwt>
<pdfrwt beam="1">  1       21 0.98088665E-01 0.21115984E+03</pdfrwt>
<pdfrwt beam="2">  1       21 0.10881388E-01 0.21115984E+03</pdfrwt>
<totfact> 0.59497059E+04</totfact>
</mgrwt>
</event>
<event>
 4    1  0.4495571E+000  0.1908551E+03  0.7546771E-02  0.1157692E+00
         21   -1    0    0  501  502  0.00000000000E+00  0.00000000000E+00  0.11776839845E+04  0.11776839845E+04  0.00000000000E+00 0.  1.
         21   -1    0    0  502  503 -0.00000000000E+00 -0.00000000000E+00 -0.42071391011E+02  0.42071391011E+02  0.00000000000E+00 0. -1.
          6    1    1    2  501    0 -0.10585625784E+00 -0.80601794237E+02  0.88165530350E+03  0.90207634634E+03  0.17300000000E+03 0.  1.
         -6    1    1    2    0  503  0.10585625784E+00  0.80601794237E+02  0.25395729003E+03  0.31767902921E+03  0.17300000000E+03 0. -1.
<mgrwt>
<rscale>  2 0.19085508E+03</rscale>
<asrwt>0</asrwt>
<pdfrwt beam="1">  1       21 0.18118213E+00 0.19085508E+03</pdfrwt>
<pdfrwt beam="2">  1       21 0.64725226E-02 0.19085508E+03</pdfrwt>
<totfact> 0.30963784E+04</totfact>
</mgrwt>
</event>
<event>
 4    1  0.4495571E+000  0.1810680E+03  0.7546771E-02  0.1166773E+00
         21   -1    0    0  503  502  0.00000000000E+00  0.00000000000E+00  0.11752178620E+03  0.11752178620E+03  0.00000000000E+00 0.  1.
         21   -1    0    0  501  503 -0.00000000000E+00 -0.00000000000E+00 -0.34055817408E+03  0.34055817408E+03  0.00000000000E+00 0.  1.
          6    1    1    2  501    0  0.45148789660E+02  0.28604177663E+02 -0.20891562928E+03  0.27646220781E+03  0.17300000000E+03 0.  1.
         -6    1    1    2    0  502 -0.45148789660E+02 -0.28604177663E+02 -0.14120758591E+02  0.18161775247E+03  0.17300000000E+03 0.  1.
<mgrwt>
<rscale>  2 0.18106798E+03</rscale>
<asrwt>0</asrwt>
<pdfrwt beam="1">  1       21 0.18080275E-01 0.18106798E+03</pdfrwt>
<pdfrwt beam="2">  1       21 0.52393565E-01 0.18106798E+03</pdfrwt>
<totfact> 0.96642188E+04</totfact>
</mgrwt>
</event>
<event>
 4    1  0.4495571E+000  0.2445427E+03  0.7546771E-02  0.1116803E+00
         21   -1    0    0  503  502  0.00000000000E+00  0.00000000000E+00  0.72578754035E+03  0.72578754035E+03  0.00000000000E+00 0.  1.
         21   -1    0    0  501  503 -0.00000000000E+00 -0.00000000000E+00 -0.12442541382E+03  0.12442541382E+03  0.00000000000E+00 0. -1.
          6    1    1    2  501    0  0.10631321119E+03 -0.13627041857E+03  0.54775446479E+03  0.59986338407E+03  0.17300000000E+03 0.  1.
         -6    1    1    2    0  502 -0.10631321119E+03  0.13627041857E+03  0.53607661747E+02  0.25034957010E+03  0.17300000000E+03 0. -1.
<mgrwt>
<rscale>  2 0.24454269E+03</rscale>
<asrwt>0</asrwt>
<pdfrwt beam="1">  1       21 0.11165962E+00 0.24454269E+03</pdfrwt>
<pdfrwt beam="2">  1       21 0.19142372E-01 0.24454269E+03</pdfrwt>
<totfact> 0.15286038E+04</totfact>
</mgrwt>
</event>
<event>
 4    1  0.4495571E+000  0.2307307E+03  0.7546771E-02  0.1126126E+00
         21   -1    0    0  501  502  0.00000000000E+00  0.00000000000E+00  0.78334404057E+02  0.78334404057E+02  0.00000000000E+00 0. -1.
         21   -1    0    0  502  503 -0.00000000000E+00 -0.00000000000E+00 -0.96777213517E+03  0.96777213517E+03  0.00000000000E+00 0.  1.
          6    1    1    2  501    0 -0.54052996827E+02 -0.14277936376E+03 -0.15930210822E+03  0.28038158796E+03  0.17300000000E+03 0. -1.
         -6    1    1    2    0  503  0.54052996827E+02  0.14277936376E+03 -0.73013562289E+03  0.76572495127E+03  0.17300000000E+03 0.  1.
<mgrwt>
<rscale>  2 0.23073074E+03</rscale>
<asrwt>0</asrwt>
<pdfrwt beam="1">  1       21 0.12051446E-01 0.23073074E+03</pdfrwt>
<pdfrwt beam="2">  1       21 0.14888803E+00 0.23073074E+03</pdfrwt>
<totfact> 0.17313985E+04</totfact>
</mgrwt>
</event>
<event>
 4    1  0.4495571E+000  0.2288554E+03  0.7546771E-02  0.1127448E+00
         21   -1    0    0  503  502  0.00000000000E+00  0.00000000000E+00  0.25890265442E+03  0.25890265442E+03  0.00000000000E+00 0. -1.
         21   -1    0    0  501  503 -0.00000000000E+00 -0.00000000000E+00 -0.20900445006E+03  0.20900445006E+03  0.00000000000E+00 0. -1.
          6    1    1    2  501    0  0.13542907564E+03  0.64068524150E+02 -0.16967214107E+02  0.22948354335E+03  0.17300000000E+03 0. -1.
         -6    1    1    2    0  502 -0.13542907564E+03 -0.64068524150E+02  0.66865418462E+02  0.23842356113E+03  0.17300000000E+03 0. -1.
<mgrwt>
<rscale>  2 0.22885544E+03</rscale>
<asrwt>0</asrwt>
<pdfrwt beam="1">  1       21 0.39831178E-01 0.22885544E+03</pdfrwt>
<pdfrwt beam="2">  1       21 0.32154531E-01 0.22885544E+03</pdfrwt>
<totfact> 0.55605175E+04</totfact>
</mgrwt>
</event>
<event>
 4    1  0.4495571E+000  0.1856478E+03  0.7546771E-02  0.1162446E+00
         21   -1    0    0  501  502  0.00000000000E+00  0.00000000000E+00  0.14718418555E+04  0.14718418555E+04  0.00000000000E+00 0. -1.
         21   -1    0    0  502  503 -0.00000000000E+00 -0.00000000000E+00 -0.32602546168E+02  0.32602546168E+02  0.00000000000E+00 0.  1.
          6    1    1    2  501    0 -0.74802243487E+01 -0.66934012843E+02  0.11189101932E+04  0.11342068314E+04  0.17300000000E+03 0. -1.
         -6    1    1    2    0  503  0.74802243487E+01  0.66934012843E+02  0.32032911611E+03  0.37023757029E+03  0.17300000000E+03 0.  1.
<mgrwt>
<rscale>  2 0.18564783E+03</rscale>
<asrwt>0</asrwt>
<pdfrwt beam="1">  1       21 0.22643716E+00 0.18564783E+03</pdfrwt>
<pdfrwt beam="2">  1       21 0.50157775E-02 0.18564783E+03</pdfrwt>
<totfact> 0.24727374E+04</totfact>
</mgrwt>
</event>
<event>
 4    1  0.4495571E+000  0.2016821E+03  0.7546771E-02  0.1148328E+00
         21   -1    0    0  503  502  0.00000000000E+00  0.00000000000E+00  0.28789106737E+03  0.28789106737E+03  0.00000000000E+00 0.  1.
         21   -1    0    0  501  503 -0.00000000000E+00 -0.00000000000E+00 -0.15636712592E+03  0.15636712592E+03  0.00000000000E+00 0.  1.
          6    1    1    2  501    0 -0.98722494013E+02  0.31631412956E+02 -0.32166658034E+01  0.20170776893E+03  0.17300000000E+03 0. -1.
         -6    1    1    2    0  502  0.98722494013E+02 -0.31631412956E+02  0.13474060726E+03  0.24255042435E+03  0.17300000000E+03 0. -1.
<mgrwt>
<rscale>  2 0.20168212E+03</rscale>
<asrwt>0</asrwt>
<pdfrwt beam="1">  1       21 0.44290934E-01 0.20168212E+03</pdfrwt>
<pdfrwt beam="2">  1       21 0.24056481E-01 0.20168212E+03</pdfrwt>
<totfact> 0.79481264E+04</totfact>
</mgrwt>
</event>
<event>
 4    1  0.4495571E+000  0.1991367E+03  0.7546771E-02  0.1150469E+00
         21   -1    0    0  501  502  0.00000000000E+00  0.00000000000E+00  0.60367368231E+03  0.60367368231E+03  0.00000000000E+00 0. -1.
         21   -1    0    0  502  503 -0.00000000000E+00 -0.00000000000E+00 -0.13008853571E+03  0.13008853571E+03  0.00000000000E+00 0.  1.
          6    1    1    2  501    0 -0.57013716552E+02 -0.80472812830E+02  0.49492537849E+03  0.53348530228E+03  0.17300000000E+03 0. -1.
         -6    1    1    2    0  503  0.57013716552E+02  0.80472812830E+02 -0.21340231881E+02  0.20027691574E+03  0.17300000000E+03 0.  1.
<mgrwt>
<rscale>  2 0.19913673E+03</rscale>
<asrwt>0</asrwt>
<pdfrwt beam="1">  1       21 0.92872873E-01 0.19913673E+03</pdfrwt>
<pdfrwt beam="2">  1       21 0.20013621E-01 0.19913673E+03</pdfrwt>
<totfact> 0.22427616E+04</totfact>
</mgrwt>
</event>
<event>
 4    1  0.4495571E+000  0.2262811E+03  0.7546771E-02  0.1129285E+00
         21   -1    0    0  501  502  0.00000000000E+00  0.00000000000E+00  0.20987827876E+03  0.20987827876E+03  0.00000000000E+00 0.  1.
         21   -1    0    0  502  503 -0.00000000000E+00 -0.00000000000E+00 -0.24470990482E+03  0.24470990482E+03  0.00000000000E+00 0.  1.
          6    1    1    2  501    0  0.72476001530E+02 -0.12657544958E+03 -0.48818304366E+01  0.22633370828E+03  0.17300000000E+03 0.  1.
         -6    1    1    2    0  503 -0.72476001530E+02  0.12657544958E+03 -0.29949795621E+02  0.22825447530E+03  0.17300000000E+03 0.  1.
<mgrwt>
<rscale>  2 0.22628105E+03</rscale>
<asrwt>0</asrwt>
<pdfrwt beam="1">  1       21 0.32288966E-01 0.22628105E+03</pdfrwt>
<pdfrwt beam="2">  1       21 0.37647677E-01 0.22628105E+03</pdfrwt>
<totfact> 0.61863996E+04</totfact>
</mgrwt>
</event>
<event>
 4    1  0.4495571E+000  0.2130682E+03  0.7546771E-02  0.1139159E+00
         21   -1    0    0  501  502  0.00000000000E+00  0.00000000000E+00  0.13384503420E+03  0.13384503420E+03  0.00000000000E+00 0. -1.
         21   -1    0    0  502  503 -0.00000000000E+00 -0.00000000000E+00 -0.47384234056E+03  0.47384234056E+03  0.00000000000E+00 0. -1.
          6    1    1    2  501    0  0.60553620224E+01  0.12422719012E+03 -0.80227914862E+01  0.21321920026E+03  0.17300000000E+03 0. -1.
         -6    1    1    2    0  503 -0.60553620224E+01 -0.12422719012E+03 -0.33197451487E+03  0.39446817450E+03  0.17300000000E+03 0. -1.
<mgrwt>
<rscale>  2 0.21306821E+03</rscale>
<asrwt>0</asrwt>
<pdfrwt beam="1">  1       21 0.20591544E-01 0.21306821E+03</pdfrwt>
<pdfrwt beam="2">  1       21 0.72898821E-01 0.21306821E+03</pdfrwt>
<totfact> 0.36628589E+04</totfact>
</mgrwt>
</event>
<event>
 4    1  0.4495571E+000  0.2006217E+03  0.7546771E-02  0.1149216E+00
         21   -1    0    0  501  502  0.00000000000E+00  0.00000000000E+00  0.37237406878E+02  0.37237406878E+02  0.00000000000E+00 0.  1.
         21   -1    0    0  502  503 -0.00000000000E+00 -0.00000000000E+00 -0.11465437631E+04  0.11465437631E+04  0.00000000000E+00 0.  1.
          6    1    1    2  501    0 -0.10158715679E+03  0.33958760314E+00 -0.41300267894E+03  0.45915169449E+03  0.17300000000E+03 0.  1.
         -6    1    1    2    0  503  0.10158715679E+03 -0.33958760314E+00 -0.69630367729E+03  0.72462947549E+03  0.17300000000E+03 0.  1.
<mgrwt>
<rscale>  2 0.20062170E+03</rscale>
<asrwt>0</asrwt>
<pdfrwt beam="1">  1       21 0.57288336E-02 0.20062170E+03</pdfrwt>
<pdfrwt beam="2">  1       21 0.17639129E+00 0.20062170E+03</pdfrwt>
<totfact> 0.40896506E+04</totfact>
</mgrwt>
</event>
<event>
 4    1  0.4495571E+000  0.1833776E+03  0.7546771E-02  0.1164574E+00
         21   -1    0    0  503  502  0.00000000000E+00  0.00000000000E+00  0.38171075346E+03  0.38171075346E+03  0.00000000000E+00 0. -1.
         21   -1    0    0  501  503 -0.00000000000E+00 -0.00000000000E+00 -0.89085191105E+02  0.89085191105E+02  0.00000000000E+00 0. -1.
          6    1    1    2  501    0 -0.60719840496E+02 -0.33807924757E+01  0.12151227534E+03  0.21998309445E+03  0.17300000000E+03 0. -1.
         -6    1    1    2    0  502  0.60719840496E+02  0.33807924757E+01  0.17111328702E+03  0.25081285011E+03  0.17300000000E+03 0. -1.
<mgrwt>
<rscale>  2 0.18337756E+03</rscale>
<asrwt>0</asrwt>
<pdfrwt beam="1">  1       21 0.58724730E-01 0.18337756E+03</pdfrwt>
<pdfrwt beam="2">  1       21 0.13705414E-01 0.18337756E+03</pdfrwt>
<totfact> 0.12578686E+05</totfact>
</mgrwt>
</event>
<event>
 4    1  0.4495571E+000  0.1816111E+03  0.7546771E-02  0.1166253E+00
         21   -1    0    0  503  502  0.00000000000E+00  0.00000000000E+00  0.13975712909E+02  0.13975712909E+02  0.00000000000E+00 0.  1.
         21   -1    0    0  501  503 -0.00000000000E+00 -0.00000000000E+00 -0.23706841825E+04  0.23706841825E+04  0.00000000000E+00 0.  1.
          6    1    1    2  501    0 -0.53103067925E+02  0.15285960681E+02 -0.12584215654E+04  0.12714587813E+04  0.17300000000E+03 0.  1.
         -6    1    1    2    0  502  0.53103067925E+02 -0.15285960681E+02 -0.10982869042E+04  0.11132011141E+04  0.17300000000E+03 0.  1.
<mgrwt>
<rscale>  2 0.18161111E+03</rscale>
<asrwt>0</asrwt>
<pdfrwt beam="1">  1       21 0.21501105E-02 0.18161111E+03</pdfrwt>
<pdfrwt beam="2">  1       21 0.36472051E+00 0.18161111E+03</pdfrwt>
<totfact> 0.15850795E+04</totfact>
</mgrwt>
</event>
<event>
 4    1  0.4495571E+000  0.2318197E+03  0.7546771E-02  0.1125366E+00
         21   -1    0    0  501  502  0.00000000000E+00  0.00000000000E+00  0.88979152605E+02  0.88979152605E+02  0.00000000000E+00 0. -1.
         21   -1    0    0  502  503 -0.00000000000E+00 -0.00000000000E+00 -0.15350272548E+04  0.15350272548E+04  0.00000000000E+00 0.  1.
          6    1    1    2  501    0 -0.87973516661E+02  0.12677548193E+03 -0.90628395218E+02  0.24890534039E+03  0.17300000000E+03 0. -1.
         -6    1    1    2    0  503  0.87973516661E+02 -0.12677548193E+03 -0.13554197070E+04  0.13751010670E+04  0.17300000000E+03 0.  1.
<mgrwt>
<rscale>  2 0.23181968E+03</rscale>
<asrwt>0</asrwt>
<pdfrwt beam="1">  1       21 0.13689102E-01 0.23181968E+03</pdfrwt>
<pdfrwt beam="2">  1       21 0.23615801E+00 0.23181968E+03</pdfrwt>
<totfact> 0.35800919E+03</totfact>
</mgrwt>
</event>
<event>
 4    1  0.4495571E+000  0.4745612E+03  0.7546771E-02  0.1020641E+00
         21   -1    0    0  503  502  0.00000000000E+00  0.00000000000E+00  0.23707694966E+03  0.23707694966E+03  0.00000000000E+00 0. -1.
         21   -1    0    0  501  503 -0.00000000000E+00 -0.00000000000E+00 -0.10171142645E+04  0.10171142645E+04  0.00000000000E+00 0. -1.
          6    1    1    2  501    0  0.12273977875E+03 -0.42451648989E+03 -0.22885831795E+03  0.52686282197E+03  0.17300000000E+03 0. -1.
         -6    1    1    2    0  502 -0.12273977875E+03  0.42451648989E+03 -0.55117899691E+03  0.72732839221E+03  0.17300000000E+03 0. -1.
<mgrwt>
<rscale>  2 0.47456117E+03</rscale>
<asrwt>0</asrwt>
<pdfrwt beam="1">  1       21 0.36473376E-01 0.47456117E+03</pdfrwt>
<pdfrwt beam="2">  1       21 0.15647912E+00 0.47456117E+03</pdfrwt>
<totfact> 0.16339713E+03</totfact>
</mgrwt>
</event>
<event>
 4    1  0.4495571E+000  0.1915703E+03  0.7546771E-02  0.1157053E+00
         21   -1    0    0  501  502  0.00000000000E+00  0.00000000000E+00  0.51276379248E+02  0.51276379248E+02  0.00000000000E+00 0. -1.
         21   -1    0    0  502  503 -0.00000000000E+00 -0.00000000000E+00 -0.12166667354E+04  0.12166667354E+04  0.00000000000E+00 0. -1.
          6    1    1    2  501    0 -0.78136807524E+02 -0.25783853719E+02 -0.17589344410E+03  0.26007243506E+03  0.17300000000E+03 0. -1.
         -6    1    1    2    0  503  0.78136807524E+02  0.25783853719E+02 -0.98949691210E+03  0.10078706796E+04  0.17300000000E+03 0. -1.
<mgrwt>
<rscale>  2 0.19157027E+03</rscale>
<asrwt>0</asrwt>
<pdfrwt beam="1">  1       21 0.78886747E-02 0.19157027E+03</pdfrwt>
<pdfrwt beam="2">  1       21 0.18717948E+00 0.19157027E+03</pdfrwt>
<totfact> 0.20037094E+04</totfact>
</mgrwt>
</event>
<event>
 4    1  0.4495571E+000  0.2040148E+03  0.7546771E-02  0.1146395E+00
         21   -1    0    0  503  502  0.00000000000E+00  0.00000000000E+00  0.53687521814E+03  0.53687521814E+03  0.00000000000E+00 0.  1.
         21   -1    0    0  501  503 -0.00000000000E+00 -0.00000000000E+00 -0.10466004672E+03  0.10466004672E+03  0.00000000000E+00 0.  1.
          6    1    1    2  501    0  0.96851162847E+02  0.48092712103E+02  0.52782325888E+02  0.21073213003E+03  0.17300000000E+03 0.  1.
         -6    1    1    2    0  502 -0.96851162847E+02 -0.48092712103E+02  0.37943284553E+03  0.43080313482E+03  0.17300000000E+03 0.  1.
<mgrwt>
<rscale>  2 0.20401484E+03</rscale>
<asrwt>0</asrwt>
<pdfrwt beam="1">  1       21 0.82596186E-01 0.20401484E+03</pdfrwt>
<pdfrwt beam="2">  1       21 0.16101546E-01 0.20401484E+03</pdfrwt>
<totfact> 0.43834844E+04</totfact>
</mgrwt>
</event>
<event>
 4    1  0.4495571E+000  0.2302750E+03  0.7546771E-02  0.1126446E+00
         21   -1    0    0  503  502  0.00000000000E+00  0.00000000000E+00  0.11663501047E+04  0.11663501047E+04  0.00000000000E+00 0.  1.
         21   -1    0    0  501  503 -0.00000000000E+00 -0.00000000000E+00 -0.47310806161E+02  0.47310806161E+02  0.00000000000E+00 0. -1.
          6    1    1    2  501    0 -0.13054141984E+03  0.77823570713E+02  0.43961522167E+03  0.49627423223E+03  0.17300000000E+03 0. -1.
         -6    1    1    2    0  502  0.13054141984E+03 -0.77823570713E+02  0.67942407690E+03  0.71738667866E+03  0.17300000000E+03 0.  1.
<mgrwt>
<rscale>  2 0.23027499E+03</rscale>
<asrwt>0</asrwt>
<pdfrwt beam="1">  1       21 0.17943846E+00 0.23027499E+03</pdfrwt>
<pdfrwt beam="2">  1       21 0.72785865E-02 0.23027499E+03</pdfrwt>
<totfact> 0.25320879E+04</totfact>
</mgrwt>
</event>
<event>
 4    1  0.4495571E+000  0.1780975E+03  0.7546771E-02  0.1169657E+00
         21   -1    0    0  503  502  0.00000000000E+00  0.00000000000E+00  0.41451628975E+02  0.41451628975E+02  0.00000000000E+00 0.  1.
         21   -1    0    0  501  503 -0.00000000000E+00 -0.00000000000E+00 -0.14099286090E+04  0.14099286090E+04  0.00000000000E+00 0.  1.
          6    1    1    2  501    0 -0.32969488543E+02  0.26509156184E+02 -0.11749673942E+04  0.11883884465E+04  0.17300000000E+03 0.  1.
         -6    1    1    2    0  502  0.32969488543E+02 -0.26509156184E+02 -0.19350958585E+03  0.26299179141E+03  0.17300000000E+03 0.  1.
<mgrwt>
<rscale>  2 0.17809751E+03</rscale>
<asrwt>0</asrwt>
<pdfrwt beam="1">  1       21 0.63771738E-02 0.17809751E+03</pdfrwt>
<pdfrwt beam="2">  1       21 0.21691209E+00 0.17809751E+03</pdfrwt>
<totfact> 0.18890605E+04</totfact>
</mgrwt>
</event>
<event>
 4    1  0.4495571E+000  0.2454542E+03  0.7546771E-02  0.1116212E+00
         21   -1    0    0  501  502  0.00000000000E+00  0.00000000000E+00  0.60764872848E+03  0.60764872848E+03  0.00000000000E+00 0. -1.
         21   -1    0    0  502  503 -0.00000000000E+00 -0.00000000000E+00 -0.17753705247E+03  0.17753705247E+03  0.00000000000E+00 0. -1.
          6    1    1    2  501    0 -0.10528943334E+03  0.13868268753E+03  0.47592510404E+03  0.53549272381E+03  0.17300000000E+03 0. -1.
         -6    1    1    2    0  503  0.10528943334E+03 -0.13868268753E+03 -0.45813428033E+02  0.24969305714E+03  0.17300000000E+03 0. -1.
<mgrwt>
<rscale>  2 0.24545418E+03</rscale>
<asrwt>0</asrwt>
<pdfrwt beam="1">  1       21 0.93484419E-01 0.24545418E+03</pdfrwt>
<pdfrwt beam="2">  1       21 0.27313393E-01 0.24545418E+03</pdfrwt>
<totfact> 0.11897053E+04</totfact>
</mgrwt>
</event>
<event>
 4    1  0.4495571E+000  0.2392805E+03  0.7546771E-02  0.1120273E+00
         21   -1    0    0  503  502  0.00000000000E+00  0.00000000000E+00  0.54431204142E+02  0.54431204142E+02  0.00000000000E+00 0. -1.
         21   -1    0    0  501  503 -0.00000000000E+00 -0.00000000000E+00 -0.11297313656E+04  0.11297313656E+04  0.00000000000E+00 0. -1.
          6    1    1    2  501    0  0.37994352345E+02 -0.16088069964E+03 -0.69307584021E+03  0.73321844672E+03  0.17300000000E+03 0. -1.
         -6    1    1    2    0  502 -0.37994352345E+02  0.16088069964E+03 -0.38222432120E+03  0.45094412297E+03  0.17300000000E+03 0. -1.
<mgrwt>
<rscale>  2 0.23928053E+03</rscale>
<asrwt>0</asrwt>
<pdfrwt beam="1">  1       21 0.83740325E-02 0.23928053E+03</pdfrwt>
<pdfrwt beam="2">  1       21 0.17380480E+00 0.23928053E+03</pdfrwt>
<totfact> 0.21576502E+04</totfact>
</mgrwt>
</event>
<event>
 4    1  0.4495571E+000  0.1836236E+03  0.7546771E-02  0.1164342E+00
         21   -1    0    0  503  502  0.00000000000E+00  0.00000000000E+00  0.77183964047E+02  0.77183964047E+02  0.00000000000E+00 0.  1.
         21   -1    0    0  501  503 -0.00000000000E+00 -0.00000000000E+00 -0.43906101365E+03  0.43906101365E+03  0.00000000000E+00 0. -1.
          6    1    1    2  501    0 -0.47659238673E+02 -0.38951336458E+02 -0.16261032223E+03  0.24527479801E+03  0.17300000000E+03 0.  1.
         -6    1    1    2    0  502  0.47659238673E+02  0.38951336458E+02 -0.19926672737E+03  0.27097017969E+03  0.17300000000E+03 0. -1.
<mgrwt>
<rscale>  2 0.18362355E+03</rscale>
<asrwt>0</asrwt>
<pdfrwt beam="1">  1       21 0.11874456E-01 0.18362355E+03</pdfrwt>
<pdfrwt beam="2">  1       21 0.67547848E-01 0.18362355E+03</pdfrwt>
<totfact> 0.12022149E+05</totfact>
</mgrwt>
</event>
<event>
 4    1  0.4495571E+000  0.2329584E+03  0.7546771E-02  0.1124575E+00
         21   -1    0    0  501  502  0.00000000000E+00  0.00000000000E+00  0.16130351568E+03  0.16130351568E+03  0.00000000000E+00 0.  1.
         21   -1    0    0  502  503 -0.00000000000E+00 -0.00000000000E+00 -0.42572554387E+03  0.42572554387E+03  0.00000000000E+00 0. -1.
          6    1    1    2  501    0  0.13888351781E+03  0.71077276284E+02  0.22032735909E+01  0.23296880722E+03  0.17300000000E+03 0.  1.
         -6    1    1    2    0  503 -0.13888351781E+03 -0.71077276284E+02 -0.26662530178E+03  0.35406025232E+03  0.17300000000E+03 0. -1.
<mgrwt>
<rscale>  2 0.23295839E+03</rscale>
<asrwt>0</asrwt>
<pdfrwt beam="1">  1       21 0.24815926E-01 0.23295839E+03</pdfrwt>
<pdfrwt beam="2">  1       21 0.65496236E-01 0.23295839E+03</pdfrwt>
<totfact> 0.32254230E+04</totfact>
</mgrwt>
</event>
<event>
 4    1  0.4495571E+000  0.2309795E+03  0.7546771E-02  0.1125952E+00
         21   -1    0    0  503  502  0.00000000000E+00  0.00000000000E+00  0.59230430025E+03  0.59230430025E+03  0.00000000000E+00 0. -1.
         21   -1    0    0  501  503 -0.00000000000E+00 -0.00000000000E+00 -0.10088593199E+03  0.10088593199E+03  0.00000000000E+00 0. -1.
          6    1    1    2  501    0 -0.28874551963E+02  0.15029565456E+03  0.13224771299E+03  0.26615969102E+03  0.17300000000E+03 0. -1.
         -6    1    1    2    0  502  0.28874551963E+02 -0.15029565456E+03  0.35917065527E+03  0.42703054123E+03  0.17300000000E+03 0. -1.
<mgrwt>
<rscale>  2 0.23097949E+03</rscale>
<asrwt>0</asrwt>
<pdfrwt beam="1">  1       21 0.91123736E-01 0.23097949E+03</pdfrwt>
<pdfrwt beam="2">  1       21 0.15520913E-01 0.23097949E+03</pdfrwt>
<totfact> 0.36892516E+04</totfact>
</mgrwt>
</event>
<event>
 4    1  0.4495571E+000  0.2519690E+03  0.7546771E-02  0.1112067E+00
         21   -1    0    0  503  502  0.00000000000E+00  0.00000000000E+00  0.11218032642E+04  0.11218032642E+04  0.00000000000E+00 0. -1.
         21   -1    0    0  501  503 -0.00000000000E+00 -0.00000000000E+00 -0.64473453444E+02  0.64473453444E+02  0.00000000000E+00 0.  1.
          6    1    1    2  501    0 -0.18300508030E+03 -0.82769657892E+01  0.32132246916E+03  0.40833380556E+03  0.17300000000E+03 0.  1.
         -6    1    1    2    0  502  0.18300508030E+03  0.82769657892E+01  0.73600734158E+03  0.77794291207E+03  0.17300000000E+03 0. -1.
<mgrwt>
<rscale>  2 0.25196898E+03</rscale>
<asrwt>0</asrwt>
<pdfrwt beam="1">  1       21 0.17258510E+00 0.25196898E+03</pdfrwt>
<pdfrwt beam="2">  1       21 0.99189937E-02 0.25196898E+03</pdfrwt>
<totfact> 0.16201391E+04</totfact>
</mgrwt>
</event>
<event>
 4    1  0.4495571E+000  0.2231644E+03  0.7546771E-02  0.1131546E+00
         21   -1    0    0  503  502  0.00000000000E+00  0.00000000000E+00  0.56275788166E+02  0.56275788166E+02  0.00000000000E+00 0.  1.
         21   -1    0    0  501  503 -0.00000000000E+00 -0.00000000000E+00 -0.90838412240E+03  0.90838412240E+03  0.00000000000E+00 0. -1.
          6    1    1    2  501    0  0.70201431618E+02 -0.12225016340E+03 -0.34861598784E+03  0.41392686605E+03  0.17300000000E+03 0. -1.
         -6    1    1    2    0  502 -0.70201431618E+02  0.12225016340E+03 -0.50349234639E+03  0.55073304452E+03  0.17300000000E+03 0. -1.
<mgrwt>
<rscale>  2 0.22316439E+03</rscale>
<asrwt>0</asrwt>
<pdfrwt beam="1">  1       21 0.86578143E-02 0.22316439E+03</pdfrwt>
<pdfrwt beam="2">  1       21 0.13975139E+00 0.22316439E+03</pdfrwt>
<totfact> 0.36935727E+04</totfact>
</mgrwt>
</event>
<event>
 4    1  0.4495571E+000  0.3298282E+03  0.7546771E-02  0.1071213E+00
         21   -1    0    0  503  502  0.00000000000E+00  0.00000000000E+00  0.62185617884E+03  0.62185617884E+03  0.00000000000E+00 0. -1.
         21   -1    0    0  501  503 -0.00000000000E+00 -0.00000000000E+00 -0.25386577684E+03  0.25386577684E+03  0.00000000000E+00 0.  1.
          6    1    1    2  501    0  0.26482274001E+03 -0.93415926446E+02 -0.60149657165E+02  0.33526795283E+03  0.17300000000E+03 0.  1.
         -6    1    1    2    0  502 -0.26482274001E+03  0.93415926446E+02  0.42814005916E+03  0.54045400285E+03  0.17300000000E+03 0. -1.
<mgrwt>
<rscale>  2 0.32982817E+03</rscale>
<asrwt>0</asrwt>
<pdfrwt beam="1">  1       21 0.95670181E-01 0.32982817E+03</pdfrwt>
<pdfrwt beam="2">  1       21 0.39056273E-01 0.32982817E+03</pdfrwt>
<totfact> 0.53034859E+03</totfact>
</mgrwt>
</event>
<event>
 4    1  0.4495571E+000  0.2802922E+03  0.7546771E-02  0.1095529E+00
         21   -1    0    0  501  502  0.00000000000E+00  0.00000000000E+00  0.53509262343E+03  0.53509262343E+03  0.00000000000E+00 0.  1.
         21   -1    0    0  502  503 -0.00000000000E+00 -0.00000000000E+00 -0.16294291930E+03  0.16294291930E+03  0.00000000000E+00 0. -1.
          6    1    1    2  501    0  0.18889684333E+03  0.11380997168E+03  0.29585294616E+03  0.40754471267E+03  0.17300000000E+03 0.  1.
         -6    1    1    2    0  503 -0.18889684333E+03 -0.11380997168E+03  0.76296757970E+02  0.29049083006E+03  0.17300000000E+03 0.  1.
<mgrwt>
<rscale>  2 0.28029222E+03</rscale>
<asrwt>0</asrwt>
<pdfrwt beam="1">  1       21 0.82321941E-01 0.28029222E+03</pdfrwt>
<pdfrwt beam="2">  1       21 0.25068142E-01 0.28029222E+03</pdfrwt>
<totfact> 0.18544522E+04</totfact>
</mgrwt>
</event>
<event>
 4    1  0.4495571E+000  0.2329125E+03  0.7546771E-02  0.1124606E+00
         21   -1    0    0  501  502  0.00000000000E+00  0.00000000000E+00  0.81908752109E+03  0.81908752109E+03  0.00000000000E+00 0. -1.
         21   -1    0    0  502  503 -0.00000000000E+00 -0.00000000000E+00 -0.79582559823E+02  0.79582559823E+02  0.00000000000E+00 0.  1.
          6    1    1    2  501    0  0.15518740973E+03 -0.15366069465E+02  0.55380509012E+03  0.60078975197E+03  0.17300000000E+03 0. -1.
         -6    1    1    2    0  503 -0.15518740973E+03  0.15366069465E+02  0.18569987115E+03  0.29788032894E+03  0.17300000000E+03 0.  1.
<mgrwt>
<rscale>  2 0.23291253E+03</rscale>
<asrwt>0</asrwt>
<pdfrwt beam="1">  1       21 0.12601346E+00 0.23291253E+03</pdfrwt>
<pdfrwt beam="2">  1       21 0.12243471E-01 0.23291253E+03</pdfrwt>
<totfact> 0.25851871E+04</totfact>
</mgrwt>
</event>
<event>
 4    1  0.4495571E+000  0.1905630E+03  0.7546771E-02  0.1157954E+00
         21   -1    0    0  503  502  0.00000000000E+00  0.00000000000E+00  0.31374254836E+03  0.31374254836E+03  0.00000000000E+00 0.  1.
         21   -1    0    0  501  503 -0.00000000000E+00 -0.00000000000E+00 -0.19536114627E+03  0.19536114627E+03  0.00000000000E+00 0. -1.
          6    1    1    2  501    0  0.50617056187E+02 -0.61831889188E+02 -0.10331048507E+03  0.21676559972E+03  0.17300000000E+03 0. -1.
         -6    1    1    2    0  502 -0.50617056187E+02  0.61831889188E+02  0.22169188716E+03  0.29233809490E+03  0.17300000000E+03 0.  1.
<mgrwt>
<rscale>  2 0.19056303E+03</rscale>
<asrwt>0</asrwt>
<pdfrwt beam="1">  1       21 0.48268084E-01 0.19056303E+03</pdfrwt>
<pdfrwt beam="2">  1       21 0.30055561E-01 0.19056303E+03</pdfrwt>
<totfact> 0.43581810E+04</totfact>
</mgrwt>
</event>
<event>
 4    1  0.4495571E+000  0.2213292E+03  0.7546771E-02  0.1132896E+00
         21   -1    0    0  501  502  0.00000000000E+00  0.00000000000E+00  0.23662566398E+03  0.23662566398E+03  0.00000000000E+00 0. -1.
         21   -1    0    0  502  503 -0.00000000000E+00 -0.00000000000E+00 -0.33791442216E+03  0.33791442216E+03  0.00000000000E+00 0.  1.
          6    1    1    2  501    0  0.68133229646E+02 -0.12006447515E+03  0.12814633137E+03  0.25575006827E+03  0.17300000000E+03 0. -1.
         -6    1    1    2    0  503 -0.68133229646E+02  0.12006447515E+03 -0.22943508956E+03  0.31879001787E+03  0.17300000000E+03 0.  1.
<mgrwt>
<rscale>  2 0.22132920E+03</rscale>
<asrwt>0</asrwt>
<pdfrwt beam="1">  1       21 0.36403949E-01 0.22132920E+03</pdfrwt>
<pdfrwt beam="2">  1       21 0.51986834E-01 0.22132920E+03</pdfrwt>
<totfact> 0.25156045E+04</totfact>
</mgrwt>
</event>
<event>
 4    1  0.4495571E+000  0.2101569E+03  0.7546771E-02  0.1141442E+00
         21   -1    0    0  503  502  0.00000000000E+00  0.00000000000E+00  0.60538725519E+02  0.60538725519E+02  0.00000000000E+00 0.  1.
         21   -1    0    0  501  503 -0.00000000000E+00 -0.00000000000E+00 -0.10109323174E+04  0.10109323174E+04  0.00000000000E+00 0.  1.
          6    1    1    2  501    0  0.59734979086E+02 -0.10328920575E+03 -0.75784034097E+03  0.78644002324E+03  0.17300000000E+03 0.  1.
         -6    1    1    2    0  502 -0.59734979086E+02  0.10328920575E+03 -0.19255325095E+03  0.28503101972E+03  0.17300000000E+03 0.  1.
<mgrwt>
<rscale>  2 0.21015691E+03</rscale>
<asrwt>0</asrwt>
<pdfrwt beam="1">  1       21 0.93136502E-02 0.21015691E+03</pdfrwt>
<pdfrwt beam="2">  1       21 0.15552805E+00 0.21015691E+03</pdfrwt>
<totfact> 0.24699083E+04</totfact>
</mgrwt>
</event>
<event>
 4    1  0.4495571E+000  0.1737943E+03  0.7546771E-02  0.1173948E+00
         21   -1    0    0  503  502  0.00000000000E+00  0.00000000000E+00  0.29722191655E+04  0.29722191655E+04  0.00000000000E+00 0.  1.
         21   -1    0    0  501  503 -0.00000000000E+00 -0.00000000000E+00 -0.20644933368E+02  0.20644933368E+02  0.00000000000E+00 0.  1.
          6    1    1    2  501    0  0.68060505136E+01 -0.15137672500E+02  0.40947036248E+03  0.44482631352E+03  0.17300000000E+03 0.  1.
         -6    1    1    2    0  502 -0.68060505136E+01  0.15137672500E+02  0.25421038697E+04  0.25480377854E+04  0.17300000000E+03 0.  1.
<mgrwt>
<rscale>  2 0.17379434E+03</rscale>
<asrwt>0</asrwt>
<pdfrwt beam="1">  1       21 0.45726415E+00 0.17379434E+03</pdfrwt>
<pdfrwt beam="2">  1       21 0.31761460E-02 0.17379434E+03</pdfrwt>
<totfact> 0.22086275E+03</totfact>
</mgrwt>
</event>
<event>
 4    1  0.4495571E+000  0.1883766E+03  0.7546771E-02  0.1159934E+00
         21   -1    0    0  501  502  0.00000000000E+00  0.00000000000E+00  0.49294469235E+02  0.49294469235E+02  0.00000000000E+00 0.  1.
         21   -1    0    0  502  503 -0.00000000000E+00 -0.00000000000E+00 -0.75416918856E+03  0.75416918856E+03  0.00000000000E+00 0.  1.
          6    1    1    2  501    0 -0.60753023687E+02 -0.43194871756E+02 -0.26676737069E+03  0.32657396849E+03  0.17300000000E+03 0.  1.
         -6    1    1    2    0  503  0.60753023687E+02  0.43194871756E+02 -0.43810734864E+03  0.47688968930E+03  0.17300000000E+03 0.  1.
<mgrwt>
<rscale>  2 0.18837656E+03</rscale>
<asrwt>0</asrwt>
<pdfrwt beam="1">  1       21 0.75837646E-02 0.18837656E+03</pdfrwt>
<pdfrwt beam="2">  1       21 0.11602603E+00 0.18837656E+03</pdfrwt>
<totfact> 0.75692905E+04</totfact>
</mgrwt>
</event>
<event>
 4    1  0.4495571E+000  0.2065038E+03  0.7546771E-02  0.1144365E+00
         21   -1    0    0  501  502  0.00000000000E+00  0.00000000000E+00  0.19681378739E+03  0.19681378739E+03  0.00000000000E+00 0. -1.
         21   -1    0    0  502  503 -0.00000000000E+00 -0.00000000000E+00 -0.26897123222E+03  0.26897123222E+03  0.00000000000E+00 0. -1.
          6    1    1    2  501    0  0.17233511030E+02  0.11143530539E+03  0.66617581400E+02  0.21698323286E+03  0.17300000000E+03 0. -1.
         -6    1    1    2    0  503 -0.17233511030E+02 -0.11143530539E+03 -0.13877502623E+03  0.24880178676E+03  0.17300000000E+03 0. -1.
<mgrwt>
<rscale>  2 0.20650380E+03</rscale>
<asrwt>0</asrwt>
<pdfrwt beam="1">  1       21 0.30279044E-01 0.20650380E+03</pdfrwt>
<pdfrwt beam="2">  1       21 0.41380189E-01 0.20650380E+03</pdfrwt>
<totfact> 0.58474721E+04</totfact>
</mgrwt>
</event>
<event>
 4    1  0.4495571E+000  0.2477145E+03  0.7546771E-02  0.1114758E+00
         21   -1    0    0  501  502  0.00000000000E+00  0.00000000000E+00  0.81317350458E+03  0.81317350458E+03  0.00000000000E+00 0.  1.
         21   -1    0    0  502  503 -0.00000000000E+00 -0.00000000000E+00 -0.75497130189E+02  0.75497130189E+02  0.00000000000E+00 0. -1.
          6    1    1    2  501    0  0.56151848271E+02  0.16816790663E+03  0.35905011939E+03  0.43621034275E+03  0.17300000000E+03 0.  1.
         -6    1    1    2    0  503 -0.56151848271E+02 -0.16816790663E+03  0.37862625500E+03  0.45246029202E+03  0.17300000000E+03 0. -1.
<mgrwt>
<rscale>  2 0.24771450E+03</rscale>
<asrwt>0</asrwt>
<pdfrwt beam="1">  1       21 0.12510361E+00 0.24771450E+03</pdfrwt>
<pdfrwt beam="2">  1       21 0.11614944E-01 0.24771450E+03</pdfrwt>
<totfact> 0.28729602E+04</totfact>
</mgrwt>
</event>
<event>
 4    1  0.4495571E+000  0.2424387E+03  0.7546771E-02  0.1118179E+00
         21   -1    0    0  503  502  0.00000000000E+00  0.00000000000E+00  0.35704037020E+04  0.35704037020E+04  0.00000000000E+00 0.  1.
         21   -1    0    0  501  503 -0.00000000000E+00 -0.00000000000E+00 -0.42506499462E+02  0.42506499462E+02  0.00000000000E+00 0. -1.
          6    1    1    2  501    0  0.23550904087E+02  0.16820487307E+03  0.34992632610E+03  0.42570524792E+03  0.17300000000E+03 0. -1.
         -6    1    1    2    0  502 -0.23550904087E+02 -0.16820487307E+03  0.31779708764E+04  0.31872049535E+04  0.17300000000E+03 0.  1.
<mgrwt>
<rscale>  2 0.24243870E+03</rscale>
<asrwt>0</asrwt>
<pdfrwt beam="1">  1       21 0.54929264E+00 0.24243870E+03</pdfrwt>
<pdfrwt beam="2">  1       21 0.65394642E-02 0.24243870E+03</pdfrwt>
<totfact> 0.13067188E+02</totfact>
</mgrwt>
</event>
<event>
 4    1  0.4495571E+000  0.3277883E+03  0.7546771E-02  0.1072120E+00
         21   -1    0    0  503  502  0.00000000000E+00  0.00000000000E+00  0.38002698510E+03  0.38002698510E+03  0.00000000000E+00 0.  1.
         21   -1    0    0  501  503 -0.00000000000E+00 -0.00000000000E+00 -0.31214384247E+03  0.31214384247E+03  0.00000000000E+00 0. -1.
          6    1    1    2  501    0  0.20668741138E+02  0.27764898378E+03 -0.72296297924E+02  0.33566636672E+03  0.17300000000E+03 0.  1.
         -6    1    1    2    0  502 -0.20668741138E+02 -0.27764898378E+03  0.14017944056E+03  0.35650446085E+03  0.17300000000E+03 0. -1.
<mgrwt>
<rscale>  2 0.32778828E+03</rscale>
<asrwt>0</asrwt>
<pdfrwt beam="1">  1       21 0.58465690E-01 0.32778828E+03</pdfrwt>
<pdfrwt beam="2">  1       21 0.48022129E-01 0.32778828E+03</pdfrwt>
<totfact> 0.10567728E+04</totfact>
</mgrwt>
</event>
<event>
 4    1  0.4495571E+000  0.2516305E+03  0.7546771E-02  0.1112279E+00
         21   -1    0    0  501  502  0.00000000000E+00  0.00000000000E+00  0.43295448304E+03  0.43295448304E+03  0.00000000000E+00 0. -1.
         21   -1    0    0  502  503 -0.00000000000E+00 -0.00000000000E+00 -0.14966776678E+03  0.14966776678E+03  0.00000000000E+00 0.  1.
          6    1    1    2  501    0  0.16438977840E+03 -0.79780325031E+02  0.18568997306E+03  0.31272778195E+03  0.17300000000E+03 0. -1.
         -6    1    1    2    0  503 -0.16438977840E+03  0.79780325031E+02  0.97596743196E+02  0.26989446787E+03  0.17300000000E+03 0.  1.
<mgrwt>
<rscale>  2 0.25163048E+03</rscale>
<asrwt>0</asrwt>
<pdfrwt beam="1">  1       21 0.66608381E-01 0.25163048E+03</pdfrwt>
<pdfrwt beam="2">  1       21 0.23025810E-01 0.25163048E+03</pdfrwt>
<totfact> 0.35566335E+04</totfact>
</mgrwt>
</event>
<event>
 4    1  0.4495571E+000  0.1974866E+03  0.7546771E-02  0.1151877E+00
         21   -1    0    0  501  502  0.00000000000E+00  0.00000000000E+00  0.58906407121E+02  0.58906407121E+02  0.00000000000E+00 0. -1.
         21   -1    0    0  502  503 -0.00000000000E+00 -0.00000000000E+00 -0.73403250199E+03  0.73403250199E+03  0.00000000000E+00 0. -1.
          6    1    1    2  501    0 -0.94550408971E+02 -0.11497097928E+02 -0.21343659974E+03  0.29078539373E+03  0.17300000000E+03 0. -1.
         -6    1    1    2    0  503  0.94550408971E+02  0.11497097928E+02 -0.46168949513E+03  0.50215351538E+03  0.17300000000E+03 0. -1.
<mgrwt>
<rscale>  2 0.19748661E+03</rscale>
<asrwt>0</asrwt>
<pdfrwt beam="1">  1       21 0.90625245E-02 0.19748661E+03</pdfrwt>
<pdfrwt beam="2">  1       21 0.11292807E+00 0.19748661E+03</pdfrwt>
<totfact> 0.58992198E+04</totfact>
</mgrwt>
</event>
<event>
 4    1  0.4495571E+000  0.1866593E+03  0.7546771E-02  0.1161509E+00
         21   -1    0    0  501  502  0.00000000000E+00  0.00000000000E+00  0.18106432368E+03  0.18106432368E+03  0.00000000000E+00 0.  1.
         21   -1    0    0  502  503 -0.00000000000E+00 -0.00000000000E+00 -0.23116587927E+03  0.23116587927E+03  0.00000000000E+00 0.  1.
          6    1    1    2  501    0 -0.59139173571E+02 -0.37619654081E+02  0.59325621781E+02  0.19586017876E+03  0.17300000000E+03 0.  1.
         -6    1    1    2    0  503  0.59139173571E+02  0.37619654081E+02 -0.10942717737E+03  0.21637002420E+03  0.17300000000E+03 0.  1.
<mgrwt>
<rscale>  2 0.18665926E+03</rscale>
<asrwt>0</asrwt>
<pdfrwt beam="1">  1       21 0.27856050E-01 0.18665926E+03</pdfrwt>
<pdfrwt beam="2">  1       21 0.35563982E-01 0.18665926E+03</pdfrwt>
<totfact> 0.94025190E+04</totfact>
</mgrwt>
</event>
<event>
 4    1  0.4495571E+000  0.2093739E+03  0.7546771E-02  0.1142063E+00
         21   -1    0    0  503  502  0.00000000000E+00  0.00000000000E+00  0.33105476711E+02  0.33105476711E+02  0.00000000000E+00 0.  1.
         21   -1    0    0  501  503 -0.00000000000E+00 -0.00000000000E+00 -0.13888552916E+04  0.13888552916E+04  0.00000000000E+00 0. -1.
          6    1    1    2  501    0  0.51643385642E+01 -0.11782090539E+03 -0.83130691408E+03  0.85726811531E+03  0.17300000000E+03 0. -1.
         -6    1    1    2    0  502 -0.51643385642E+01  0.11782090539E+03 -0.52444290082E+03  0.56469265300E+03  0.17300000000E+03 0.  1.
<mgrwt>
<rscale>  2 0.20937391E+03</rscale>
<asrwt>0</asrwt>
<pdfrwt beam="1">  1       21 0.50931503E-02 0.20937391E+03</pdfrwt>
<pdfrwt beam="2">  1       21 0.21367004E+00 0.20937391E+03</pdfrwt>
<totfact> 0.28345522E+04</totfact>
</mgrwt>
</event>
<event>
 4    1  0.4495571E+000  0.2044222E+03  0.7546771E-02  0.1146061E+00
         21   -1    0    0  501  502  0.00000000000E+00  0.00000000000E+00  0.36670465642E+03  0.36670465642E+03  0.00000000000E+00 0.  1.
         21   -1    0    0  502  503 -0.00000000000E+00 -0.00000000000E+00 -0.18182844616E+03  0.18182844616E+03  0.00000000000E+00 0.  1.
          6    1    1    2  501    0  0.91530814122E+02  0.59004481007E+02  0.26000442748E+03  0.33074268098E+03  0.17300000000E+03 0.  1.
         -6    1    1    2    0  503 -0.91530814122E+02 -0.59004481007E+02 -0.75128217226E+02  0.21779042159E+03  0.17300000000E+03 0.  1.
<mgrwt>
<rscale>  2 0.20442216E+03</rscale>
<asrwt>0</asrwt>
<pdfrwt beam="1">  1       21 0.56416101E-01 0.20442216E+03</pdfrwt>
<pdfrwt beam="2">  1       21 0.27973607E-01 0.20442216E+03</pdfrwt>
<totfact> 0.35850405E+04</totfact>
</mgrwt>
</event>
<event>
 4    1  0.4495571E+000  0.2105403E+03  0.7546771E-02  0.1141139E+00
         21   -1    0    0  501  502  0.00000000000E+00  0.00000000000E+00  0.13722391137E+03  0.13722391137E+03  0.00000000000E+00 0. -1.
         21   -1    0    0  502  503 -0.00000000000E+00 -0.00000000000E+00 -0.49789693063E+03  0.49789693063E+03  0.00000000000E+00 0.  1.
          6    1    1    2  501    0 -0.65249777769E+02 -0.10070089170E+03  0.78604628918E+01  0.21068694778E+03  0.17300000000E+03 0.  1.
         -6    1    1    2    0  503  0.65249777769E+02  0.10070089170E+03 -0.36853348216E+03  0.42443389422E+03  0.17300000000E+03 0.  1.
<mgrwt>
<rscale>  2 0.21054026E+03</rscale>
<asrwt>0</asrwt>
<pdfrwt beam="1">  1       21 0.21111371E-01 0.21054026E+03</pdfrwt>
<pdfrwt beam="2">  1       21 0.76599526E-01 0.21054026E+03</pdfrwt>
<totfact> 0.31328053E+04</totfact>
</mgrwt>
</event>
<event>
 4    1  0.4495571E+000  0.2336769E+03  0.7546771E-02  0.1124078E+00
         21   -1    0    0  501  502  0.00000000000E+00  0.00000000000E+00  0.74046524717E+03  0.74046524717E+03  0.00000000000E+00 0. -1.
         21   -1    0    0  502  503 -0.00000000000E+00 -0.00000000000E+00 -0.26569092346E+03  0.26569092346E+03  0.00000000000E+00 0.  1.
          6    1    1    2  501    0  0.90085231928E+02  0.12868781834E+03  0.66498703277E+03  0.70484938629E+03  0.17300000000E+03 0. -1.
         -6    1    1    2    0  503 -0.90085231928E+02 -0.12868781834E+03 -0.19021270907E+03  0.30130678434E+03  0.17300000000E+03 0.  1.
<mgrwt>
<rscale>  2 0.23367692E+03</rscale>
<asrwt>0</asrwt>
<pdfrwt beam="1">  1       21 0.11391773E+00 0.23367692E+03</pdfrwt>
<pdfrwt beam="2">  1       21 0.40875527E-01 0.23367692E+03</pdfrwt>
<totfact> 0.33473796E+03</totfact>
</mgrwt>
</event>
<event>
 4    1  0.4495571E+000  0.1853868E+03  0.7546771E-02  0.1162689E+00
         21   -1    0    0  503  502  0.00000000000E+00  0.00000000000E+00  0.26949203057E+02  0.26949203057E+02  0.00000000000E+00 0.  1.
         21   -1    0    0  501  503 -0.00000000000E+00 -0.00000000000E+00 -0.12756964168E+04  0.12756964168E+04  0.00000000000E+00 0.  1.
          6    1    1    2  501    0  0.52690202940E+02  0.40780151296E+02 -0.63587681495E+03  0.66235006002E+03  0.17300000000E+03 0.  1.
         -6    1    1    2    0  502 -0.52690202940E+02 -0.40780151296E+02 -0.61287039885E+03  0.64029555988E+03  0.17300000000E+03 0.  1.
<mgrwt>
<rscale>  2 0.18538683E+03</rscale>
<asrwt>0</asrwt>
<pdfrwt beam="1">  1       21 0.41460312E-02 0.18538683E+03</pdfrwt>
<pdfrwt beam="2">  1       21 0.19626099E+00 0.18538683E+03</pdfrwt>
<totfact> 0.52615358E+04</totfact>
</mgrwt>
</event>
<event>
 4    1  0.4495571E+000  0.1920766E+03  0.7546771E-02  0.1156602E+00
         21   -1    0    0  501  502  0.00000000000E+00  0.00000000000E+00  0.84689899651E+02  0.84689899651E+02  0.00000000000E+00 0. -1.
         21   -1    0    0  502  503 -0.00000000000E+00 -0.00000000000E+00 -0.13696418253E+04  0.13696418253E+04  0.00000000000E+00 0. -1.
          6    1    1    2  501    0 -0.20037879836E+02 -0.81011799334E+02 -0.41985305802E+02  0.19661178541E+03  0.17300000000E+03 0. -1.
         -6    1    1    2    0  503  0.20037879836E+02  0.81011799334E+02 -0.12429666199E+04  0.12577199396E+04  0.17300000000E+03 0. -1.
<mgrwt>
<rscale>  2 0.19207662E+03</rscale>
<asrwt>0</asrwt>
<pdfrwt beam="1">  1       21 0.13029215E-01 0.19207662E+03</pdfrwt>
<pdfrwt beam="2">  1       21 0.21071413E+00 0.19207662E+03</pdfrwt>
<totfact> 0.58177562E+03</totfact>
</mgrwt>
</event>
<event>
 4    1  0.4495571E+000  0.2033048E+03  0.7546771E-02  0.1146980E+00
         21   -1    0    0  501  502  0.00000000000E+00  0.00000000000E+00  0.81943402702E+02  0.81943402702E+02  0.00000000000E+00 0. -1.
         21   -1    0    0  502  503 -0.00000000000E+00 -0.00000000000E+00 -0.58717112411E+03  0.58717112411E+03  0.00000000000E+00 0.  1.
          6    1    1    2  501    0 -0.38946812089E+02 -0.99433318292E+02 -0.12700833006E+03  0.23971640508E+03  0.17300000000E+03 0. -1.
         -6    1    1    2    0  503  0.38946812089E+02  0.99433318292E+02 -0.37821939135E+03  0.42939812174E+03  0.17300000000E+03 0.  1.
<mgrwt>
<rscale>  2 0.20330479E+03</rscale>
<asrwt>0</asrwt>
<pdfrwt beam="1">  1       21 0.12606678E-01 0.20330479E+03</pdfrwt>
<pdfrwt beam="2">  1       21 0.90334016E-01 0.20330479E+03</pdfrwt>
<totfact> 0.55659372E+04</totfact>
</mgrwt>
</event>
<event>
 4    1  0.4495571E+000  0.1873927E+03  0.7546771E-02  0.1160834E+00
         21   -1    0    0  501  502  0.00000000000E+00  0.00000000000E+00  0.45997796837E+03  0.45997796837E+03  0.00000000000E+00 0.  1.
         21   -1    0    0  502  503 -0.00000000000E+00 -0.00000000000E+00 -0.88078902690E+02  0.88078902690E+02  0.00000000000E+00 0.  1.
          6    1    1    2  501    0  0.22962547094E+02  0.68262442871E+02  0.28597723243E+03  0.34190498263E+03  0.17300000000E+03 0. -1.
         -6    1    1    2    0  503 -0.22962547094E+02 -0.68262442871E+02  0.85921833249E+02  0.20615188843E+03  0.17300000000E+03 0. -1.
<mgrwt>
<rscale>  2 0.18739274E+03</rscale>
<asrwt>0</asrwt>
<pdfrwt beam="1">  1       21 0.70765840E-01 0.18739274E+03</pdfrwt>
<pdfrwt beam="2">  1       21 0.13550601E-01 0.18739274E+03</pdfrwt>
<totfact> 0.85505487E+04</totfact>
</mgrwt>
</event>
<event>
 4    1  0.4495571E+000  0.1843352E+03  0.7546771E-02  0.1163672E+00
         21   -1    0    0  503  502  0.00000000000E+00  0.00000000000E+00  0.47419083803E+03  0.47419083803E+03  0.00000000000E+00 0.  1.
         21   -1    0    0  501  503 -0.00000000000E+00 -0.00000000000E+00 -0.35533364762E+03  0.35533364762E+03  0.00000000000E+00 0.  1.
          6    1    1    2  501    0 -0.62478442586E+02  0.12120752109E+02 -0.31116015710E+03  0.36166298095E+03  0.17300000000E+03 0.  1.
         -6    1    1    2    0  502  0.62478442586E+02 -0.12120752109E+02  0.43001734751E+03  0.46786150470E+03  0.17300000000E+03 0.  1.
<mgrwt>
<rscale>  2 0.18433521E+03</rscale>
<asrwt>0</asrwt>
<pdfrwt beam="1">  1       21 0.72952436E-01 0.18433521E+03</pdfrwt>
<pdfrwt beam="2">  1       21 0.54666715E-01 0.18433521E+03</pdfrwt>
<totfact> 0.53774556E+03</totfact>
</mgrwt>
</event>
<event>
 4    1  0.4495571E+000  0.2036363E+03  0.7546771E-02  0.1146707E+00
         21   -1    0    0  503  502  0.00000000000E+00  0.00000000000E+00  0.22610097603E+03  0.22610097603E+03  0.00000000000E+00 0.  1.
         21   -1    0    0  501  503 -0.00000000000E+00 -0.00000000000E+00 -0.26352033494E+03  0.26352033494E+03  0.00000000000E+00 0.  1.
          6    1    1    2  501    0  0.66567239660E+02  0.84306264233E+02 -0.15369444093E+03  0.25512687972E+03  0.17300000000E+03 0.  1.
         -6    1    1    2    0  502 -0.66567239660E+02 -0.84306264233E+02  0.11627508202E+03  0.23449443124E+03  0.17300000000E+03 0.  1.
<mgrwt>
<rscale>  2 0.20363630E+03</rscale>
<asrwt>0</asrwt>
<pdfrwt beam="1">  1       21 0.34784765E-01 0.20363630E+03</pdfrwt>
<pdfrwt beam="2">  1       21 0.40541590E-01 0.20363630E+03</pdfrwt>
<totfact> 0.46443731E+04</totfact>
</mgrwt>
</event>
<event>
 4    1  0.4495571E+000  0.1881421E+03  0.7546771E-02  0.1160148E+00
         21   -1    0    0  501  502  0.00000000000E+00  0.00000000000E+00  0.96046474626E+03  0.96046474626E+03  0.00000000000E+00 0.  1.
         21   -1    0    0  502  503 -0.00000000000E+00 -0.00000000000E+00 -0.41807346508E+02  0.41807346508E+02  0.00000000000E+00 0. -1.
          6    1    1    2  501    0  0.73055590268E+02  0.11460368911E+02  0.63181565573E+03  0.65923325322E+03  0.17300000000E+03 0.  1.
         -6    1    1    2    0  503 -0.73055590268E+02 -0.11460368911E+02  0.28684174402E+03  0.34303883955E+03  0.17300000000E+03 0. -1.
<mgrwt>
<rscale>  2 0.18814213E+03</rscale>
<asrwt>0</asrwt>
<pdfrwt beam="1">  1       21 0.14776379E+00 0.18814213E+03</pdfrwt>
<pdfrwt beam="2">  1       21 0.64319002E-02 0.18814213E+03</pdfrwt>
<totfact> 0.54551370E+04</totfact>
</mgrwt>
</event>
<event>
 4    1  0.4495571E+000  0.1734557E+03  0.7546771E-02  0.1174291E+00
         21   -1    0    0  503  502  0.00000000000E+00  0.00000000000E+00  0.95323336991E+03  0.95323336991E+03  0.00000000000E+00 0. -1.
         21   -1    0    0  501  503 -0.00000000000E+00 -0.00000000000E+00 -0.31600392596E+02  0.31600392596E+02  0.00000000000E+00 0. -1.
          6    1    1    2  501    0 -0.11880529433E+02 -0.40909051947E+01  0.44387249662E+03  0.47656025405E+03  0.17300000000E+03 0. -1.
         -6    1    1    2    0  502  0.11880529433E+02  0.40909051947E+01  0.47776048069E+03  0.50827350845E+03  0.17300000000E+03 0. -1.
<mgrwt>
<rscale>  2 0.17345571E+03</rscale>
<asrwt>0</asrwt>
<pdfrwt beam="1">  1       21 0.14665127E+00 0.17345571E+03</pdfrwt>
<pdfrwt beam="2">  1       21 0.48615996E-02 0.17345571E+03</pdfrwt>
<totfact> 0.90309485E+04</totfact>
</mgrwt>
</event>
<event>
 4    1  0.4495571E+000  0.2339024E+03  0.7546771E-02  0.1123923E+00
         21   -1    0    0  503  502  0.00000000000E+00  0.00000000000E+00  0.36800688402E+03  0.36800688402E+03  0.00000000000E+00 0. -1.
         21   -1    0    0  501  503 -0.00000000000E+00 -0.00000000000E+00 -0.26961669582E+03  0.26961669582E+03  0.00000000000E+00 0.  1.
          6    1    1    2  501    0 -0.10837409537E+03 -0.11417693590E+03 -0.16433749406E+03  0.28586208072E+03  0.17300000000E+03 0.  1.
         -6    1    1    2    0  502  0.10837409537E+03  0.11417693590E+03  0.26272768226E+03  0.35176149913E+03  0.17300000000E+03 0. -1.
<mgrwt>
<rscale>  2 0.23390237E+03</rscale>
<asrwt>0</asrwt>
<pdfrwt beam="1">  1       21 0.56616444E-01 0.23390237E+03</pdfrwt>
<pdfrwt beam="2">  1       21 0.41479492E-01 0.23390237E+03</pdfrwt>
<totfact> 0.16020194E+04</totfact>
</mgrwt>
</event>
<event>
 4    1  0.4495571E+000  0.1872653E+03  0.7546771E-02  0.1160951E+00
         21   -1    0    0  503  502  0.00000000000E+00  0.00000000000E+00  0.42682745563E+02  0.42682745563E+02  0.00000000000E+00 0. -1.
         21   -1    0    0  501  503 -0.00000000000E+00 -0.00000000000E+00 -0.10221806671E+04  0.10221806671E+04  0.00000000000E+00 0. -1.
          6    1    1    2  501    0  0.61451197474E+02  0.36919530049E+02 -0.25389638891E+03  0.31548641440E+03  0.17300000000E+03 0. -1.
         -6    1    1    2    0  502 -0.61451197474E+02 -0.36919530049E+02 -0.72560153260E+03  0.74937699824E+03  0.17300000000E+03 0. -1.
<mgrwt>
<rscale>  2 0.18726532E+03</rscale>
<asrwt>0</asrwt>
<pdfrwt beam="1">  1       21 0.65665773E-02 0.18726532E+03</pdfrwt>
<pdfrwt beam="2">  1       21 0.15725854E+00 0.18726532E+03</pdfrwt>
<totfact> 0.44671039E+04</totfact>
</mgrwt>
</event>
<event>
 4    1  0.4495571E+000  0.2350551E+03  0.7546771E-02  0.1123131E+00
         21   -1    0    0  501  502  0.00000000000E+00  0.00000000000E+00  0.27695178939E+03  0.27695178939E+03  0.00000000000E+00 0.  1.
         21   -1    0    0  502  503 -0.00000000000E+00 -0.00000000000E+00 -0.20108690834E+03  0.20108690834E+03  0.00000000000E+00 0.  1.
          6    1    1    2  501    0 -0.68189679190E+02  0.14377790418E+03  0.16675889087E+02  0.23564592794E+03  0.17300000000E+03 0.  1.
         -6    1    1    2    0  503  0.68189679190E+02 -0.14377790418E+03  0.59188991956E+02  0.24239276979E+03  0.17300000000E+03 0.  1.
<mgrwt>
<rscale>  2 0.23505514E+03</rscale>
<asrwt>0</asrwt>
<pdfrwt beam="1">  1       21 0.42607968E-01 0.23505514E+03</pdfrwt>
<pdfrwt beam="2">  1       21 0.30936448E-01 0.23505514E+03</pdfrwt>
<totfact> 0.52163884E+04</totfact>
</mgrwt>
</event>
<event>
 4    1  0.4495571E+000  0.1744753E+03  0.7546771E-02  0.1173260E+00
         21   -1    0    0  503  502  0.00000000000E+00  0.00000000000E+00  0.14426024848E+03  0.14426024848E+03  0.00000000000E+00 0.  1.
         21   -1    0    0  501  503 -0.00000000000E+00 -0.00000000000E+00 -0.33162253929E+03  0.33162253929E+03  0.00000000000E+00 0.  1.
          6    1    1    2  501    0 -0.19916152240E+02  0.10768871901E+02 -0.23717338128E+03  0.29443646939E+03  0.17300000000E+03 0.  1.
         -6    1    1    2    0  502  0.19916152240E+02 -0.10768871901E+02  0.49811090467E+02  0.18144631839E+03  0.17300000000E+03 0.  1.
<mgrwt>
<rscale>  2 0.17447528E+03</rscale>
<asrwt>0</asrwt>
<pdfrwt beam="1">  1       21 0.22193885E-01 0.17447528E+03</pdfrwt>
<pdfrwt beam="2">  1       21 0.51018852E-01 0.17447528E+03</pdfrwt>
<totfact> 0.69908322E+04</totfact>
</mgrwt>
</event>
<event>
 4    1  0.4495571E+000  0.1735017E+03  0.7546771E-02  0.1174245E+00
         21   -1    0    0  501  502  0.00000000000E+00  0.00000000000E+00  0.82933383230E+03  0.82933383230E+03  0.00000000000E+00 0. -1.
         21   -1    0    0  502  503 -0.00000000000E+00 -0.00000000000E+00 -0.52561672686E+02  0.52561672686E+02  0.00000000000E+00 0. -1.
          6    1    1    2  501    0  0.75377677672E+01  0.10817899884E+02  0.63366878152E+03  0.65699236645E+03  0.17300000000E+03 0. -1.
         -6    1    1    2    0  503 -0.75377677672E+01 -0.10817899884E+02  0.14310337809E+03  0.22490313853E+03  0.17300000000E+03 0. -1.
<mgrwt>
<rscale>  2 0.17350171E+03</rscale>
<asrwt>0</asrwt>
<pdfrwt beam="1">  1       21 0.12758981E+00 0.17350171E+03</pdfrwt>
<pdfrwt beam="2">  1       21 0.80864118E-02 0.17350171E+03</pdfrwt>
<totfact> 0.53907793E+04</totfact>
</mgrwt>
</event>
<event>
 4    1  0.4495571E+000  0.1959736E+03  0.7546771E-02  0.1153181E+00
         21   -1    0    0  501  502  0.00000000000E+00  0.00000000000E+00  0.11299663095E+03  0.11299663095E+03  0.00000000000E+00 0.  1.
         21   -1    0    0  502  503 -0.00000000000E+00 -0.00000000000E+00 -0.35699281619E+03  0.35699281619E+03  0.00000000000E+00 0.  1.
          6    1    1    2  501    0  0.84102597676E+02 -0.37462185203E+02 -0.70552537063E+02  0.20828663601E+03  0.17300000000E+03 0.  1.
         -6    1    1    2    0  503 -0.84102597676E+02  0.37462185203E+02 -0.17344364818E+03  0.26170281112E+03  0.17300000000E+03 0.  1.
<mgrwt>
<rscale>  2 0.19597363E+03</rscale>
<asrwt>0</asrwt>
<pdfrwt beam="1">  1       21 0.17384097E-01 0.19597363E+03</pdfrwt>
<pdfrwt beam="2">  1       21 0.54921972E-01 0.19597363E+03</pdfrwt>
<totfact> 0.93541809E+04</totfact>
</mgrwt>
</event>
<event>
 4    1  0.4495571E+000  0.1731558E+03  0.7546771E-02  0.1174596E+00
         21   -1    0    0  501  502  0.00000000000E+00  0.00000000000E+00  0.49349275243E+02  0.49349275243E+02  0.00000000000E+00 0.  1.
         21   -1    0    0  502  503 -0.00000000000E+00 -0.00000000000E+00 -0.68395232423E+03  0.68395232423E+03  0.00000000000E+00 0.  1.
          6    1    1    2  501    0 -0.45881123880E+01  0.57355485866E+01 -0.19477017711E+03  0.26061152926E+03  0.17300000000E+03 0. -1.
         -6    1    1    2    0  503  0.45881123880E+01 -0.57355485866E+01 -0.43983287188E+03  0.47269007021E+03  0.17300000000E+03 0. -1.
<mgrwt>
<rscale>  2 0.17315585E+03</rscale>
<asrwt>0</asrwt>
<pdfrwt beam="1">  1       21 0.75921962E-02 0.17315585E+03</pdfrwt>
<pdfrwt beam="2">  1       21 0.10522343E+00 0.17315585E+03</pdfrwt>
<totfact> 0.96331406E+04</totfact>
</mgrwt>
</event>
<event>
 4    1  0.4495571E+000  0.1951976E+03  0.7546771E-02  0.1153855E+00
         21   -1    0    0  501  502  0.00000000000E+00  0.00000000000E+00  0.58941484651E+03  0.58941484651E+03  0.00000000000E+00 0.  1.
         21   -1    0    0  502  503 -0.00000000000E+00 -0.00000000000E+00 -0.65332278221E+02  0.65332278221E+02  0.00000000000E+00 0.  1.
          6    1    1    2  501    0  0.82142384547E+02 -0.37758693364E+02  0.22843776424E+03  0.30047612616E+03  0.17300000000E+03 0.  1.
         -6    1    1    2    0  503 -0.82142384547E+02  0.37758693364E+02  0.29564480405E+03  0.35427099857E+03  0.17300000000E+03 0.  1.
<mgrwt>
<rscale>  2 0.19519757E+03</rscale>
<asrwt>0</asrwt>
<pdfrwt beam="1">  1       21 0.90679204E-01 0.19519757E+03</pdfrwt>
<pdfrwt beam="2">  1       21 0.10051120E-01 0.19519757E+03</pdfrwt>
<totfact> 0.82935261E+04</totfact>
</mgrwt>
</event>
<event>
 4    1  0.4495571E+000  0.3796873E+03  0.7546771E-02  0.1051049E+00
         21   -1    0    0  503  502  0.00000000000E+00  0.00000000000E+00  0.22548976373E+04  0.22548976373E+04  0.00000000000E+00 0.  1.
         21   -1    0    0  501  503 -0.00000000000E+00 -0.00000000000E+00 -0.64971917873E+02  0.64971917873E+02  0.00000000000E+00 0. -1.
          6    1    1    2  501    0  0.24254111031E+03 -0.23538747808E+03  0.94828873219E+03  0.10214763701E+04  0.17300000000E+03 0.  1.
         -6    1    1    2    0  502 -0.24254111031E+03  0.23538747808E+03  0.12416369872E+04  0.12983931851E+04  0.17300000000E+03 0. -1.
<mgrwt>
<rscale>  2 0.37968731E+03</rscale>
<asrwt>0</asrwt>
<pdfrwt beam="1">  1       21 0.34690727E+00 0.37968731E+03</pdfrwt>
<pdfrwt beam="2">  1       21 0.99956814E-02 0.37968731E+03</pdfrwt>
<totfact> 0.12346415E+03</totfact>
</mgrwt>
</event>
<event>
 4    1  0.4495571E+000  0.2017189E+03  0.7546771E-02  0.1148297E+00
         21   -1    0    0  503  502  0.00000000000E+00  0.00000000000E+00  0.15117600244E+03  0.15117600244E+03  0.00000000000E+00 0. -1.
         21   -1    0    0  501  503 -0.00000000000E+00 -0.00000000000E+00 -0.26926832703E+03  0.26926832703E+03  0.00000000000E+00 0. -1.
          6    1    1    2  501    0  0.30722917062E+02 -0.99083827348E+02 -0.63266587850E+02  0.21140757700E+03  0.17300000000E+03 0. -1.
         -6    1    1    2    0  502 -0.30722917062E+02  0.99083827348E+02 -0.54825736734E+02  0.20903675247E+03  0.17300000000E+03 0. -1.
<mgrwt>
<rscale>  2 0.20171887E+03</rscale>
<asrwt>0</asrwt>
<pdfrwt beam="1">  1       21 0.23257847E-01 0.20171887E+03</pdfrwt>
<pdfrwt beam="2">  1       21 0.41425896E-01 0.20171887E+03</pdfrwt>
<totfact> 0.97146410E+04</totfact>
</mgrwt>
</event>
<event>
 4    1  0.4495571E+000  0.1973122E+03  0.7546771E-02  0.1152027E+00
         21   -1    0    0  503  502  0.00000000000E+00  0.00000000000E+00  0.93950418489E+02  0.93950418489E+02  0.00000000000E+00 0.  1.
         21   -1    0    0  501  503 -0.00000000000E+00 -0.00000000000E+00 -0.42588216100E+03  0.42588216100E+03  0.00000000000E+00 0.  1.
          6    1    1    2  501    0 -0.88436376844E+02 -0.34382083169E+02 -0.20866198265E+03  0.28717928790E+03  0.17300000000E+03 0.  1.
         -6    1    1    2    0  502  0.88436376844E+02  0.34382083169E+02 -0.12326975985E+03  0.23265329159E+03  0.17300000000E+03 0.  1.
<mgrwt>
<rscale>  2 0.19731224E+03</rscale>
<asrwt>0</asrwt>
<pdfrwt beam="1">  1       21 0.14453911E-01 0.19731224E+03</pdfrwt>
<pdfrwt beam="2">  1       21 0.65520332E-01 0.19731224E+03</pdfrwt>
<totfact> 0.89711406E+04</totfact>
</mgrwt>
</event>
<event>
 4    1  0.4495571E+000  0.2275655E+03  0.7546771E-02  0.1128365E+00
         21   -1    0    0  503  502  0.00000000000E+00  0.00000000000E+00  0.88125145655E+02  0.88125145655E+02  0.00000000000E+00 0. -1.
         21   -1    0    0  501  503 -0.00000000000E+00 -0.00000000000E+00 -0.58812067550E+03  0.58812067550E+03  0.00000000000E+00 0. -1.
          6    1    1    2  501    0  0.10504734257E+03  0.10402942197E+03 -0.25964089287E+03  0.34525274520E+03  0.17300000000E+03 0. -1.
         -6    1    1    2    0  502 -0.10504734257E+03 -0.10402942197E+03 -0.24035463697E+03  0.33099307595E+03  0.17300000000E+03 0. -1.
<mgrwt>
<rscale>  2 0.22756552E+03</rscale>
<asrwt>0</asrwt>
<pdfrwt beam="1">  1       21 0.13557715E-01 0.22756552E+03</pdfrwt>
<pdfrwt beam="2">  1       21 0.90480102E-01 0.22756552E+03</pdfrwt>
<totfact> 0.48072668E+04</totfact>
</mgrwt>
</event>
<event>
 4    1  0.4495571E+000  0.1825965E+03  0.7546771E-02  0.1165314E+00
         21   -1    0    0  501  502  0.00000000000E+00  0.00000000000E+00  0.82416447480E+02  0.82416447480E+02  0.00000000000E+00 0. -1.
         21   -1    0    0  502  503 -0.00000000000E+00 -0.00000000000E+00 -0.43875422652E+03  0.43875422652E+03  0.00000000000E+00 0. -1.
          6    1    1    2  501    0  0.48552338339E+02 -0.32483196230E+02 -0.25092774308E+03  0.31033243440E+03  0.17300000000E+03 0. -1.
         -6    1    1    2    0  503 -0.48552338339E+02  0.32483196230E+02 -0.10541003596E+03  0.21083823960E+03  0.17300000000E+03 0. -1.
<mgrwt>
<rscale>  2 0.18259652E+03</rscale>
<asrwt>0</asrwt>
<pdfrwt beam="1">  1       21 0.12679453E-01 0.18259652E+03</pdfrwt>
<pdfrwt beam="2">  1       21 0.67500651E-01 0.18259652E+03</pdfrwt>
<totfact> 0.10710921E+05</totfact>
</mgrwt>
</event>
<event>
 4    1  0.4495571E+000  0.2811150E+03  0.7546771E-02  0.1095082E+00
         21   -1    0    0  503  502  0.00000000000E+00  0.00000000000E+00  0.22778312223E+04  0.22778312223E+04  0.00000000000E+00 0. -1.
         21   -1    0    0  501  503 -0.00000000000E+00 -0.00000000000E+00 -0.35690337735E+02  0.35690337735E+02  0.00000000000E+00 0.  1.
          6    1    1    2  501    0 -0.22119936763E+03  0.12941590353E+02  0.92773635449E+03  0.96939176211E+03  0.17300000000E+03 0. -1.
         -6    1    1    2    0  502  0.22119936763E+03 -0.12941590353E+02  0.13144045301E+04  0.13441297980E+04  0.17300000000E+03 0.  1.
<mgrwt>
<rscale>  2 0.28111500E+03</rscale>
<asrwt>0</asrwt>
<pdfrwt beam="1">  1       21 0.35043546E+00 0.28111500E+03</pdfrwt>
<pdfrwt beam="2">  1       21 0.54908230E-02 0.28111500E+03</pdfrwt>
<totfact> 0.36253173E+03</totfact>
</mgrwt>
</event>
<event>
 4    1  0.4495571E+000  0.2000005E+03  0.7546771E-02  0.1149739E+00
         21   -1    0    0  501  502  0.00000000000E+00  0.00000000000E+00  0.78829293489E+02  0.78829293489E+02  0.00000000000E+00 0. -1.
         21   -1    0    0  502  503 -0.00000000000E+00 -0.00000000000E+00 -0.22787320048E+04  0.22787320048E+04  0.00000000000E+00 0. -1.
          6    1    1    2  501    0  0.81063804095E+02  0.59159641702E+02 -0.60670555342E+02  0.20900028667E+03  0.17300000000E+03 0. -1.
         -6    1    1    2    0  503 -0.81063804095E+02 -0.59159641702E+02 -0.21392321559E+04  0.21485610116E+04  0.17300000000E+03 0. -1.
<mgrwt>
<rscale>  2 0.20000051E+03</rscale>
<asrwt>0</asrwt>
<pdfrwt beam="1">  1       21 0.12127583E-01 0.20000051E+03</pdfrwt>
<pdfrwt beam="2">  1       21 0.35057418E+00 0.20000051E+03</pdfrwt>
<totfact> 0.98860443E+02</totfact>
</mgrwt>
</event>
<event>
 4    1  0.4495571E+000  0.2072898E+03  0.7546771E-02  0.1143730E+00
         21   -1    0    0  501  502  0.00000000000E+00  0.00000000000E+00  0.54426513095E+02  0.54426513095E+02  0.00000000000E+00 0. -1.
         21   -1    0    0  502  503 -0.00000000000E+00 -0.00000000000E+00 -0.82734530391E+03  0.82734530391E+03  0.00000000000E+00 0. -1.
          6    1    1    2  501    0  0.51886285347E+02 -0.10172444576E+03 -0.29214873966E+03  0.35821772089E+03  0.17300000000E+03 0. -1.
         -6    1    1    2    0  503 -0.51886285347E+02  0.10172444576E+03 -0.48077005116E+03  0.52355409612E+03  0.17300000000E+03 0. -1.
<mgrwt>
<rscale>  2 0.20728977E+03</rscale>
<asrwt>0</asrwt>
<pdfrwt beam="1">  1       21 0.83733096E-02 0.20728977E+03</pdfrwt>
<pdfrwt beam="2">  1       21 0.12728389E+00 0.20728977E+03</pdfrwt>
<totfact> 0.50127840E+04</totfact>
</mgrwt>
</event>
<event>
 4    1  0.4495571E+000  0.2047941E+03  0.7546771E-02  0.1145756E+00
         21   -1    0    0  501  502  0.00000000000E+00  0.00000000000E+00  0.10492901659E+04  0.10492901659E+04  0.00000000000E+00 0.  1.
         21   -1    0    0  502  503 -0.00000000000E+00 -0.00000000000E+00 -0.42120475897E+02  0.42120475897E+02  0.00000000000E+00 0. -1.
          6    1    1    2  501    0  0.76947614777E+02  0.78042950928E+02  0.38029429507E+03  0.43193099967E+03  0.17300000000E+03 0.  1.
         -6    1    1    2    0  503 -0.76947614777E+02 -0.78042950928E+02  0.62687539488E+03  0.65947964208E+03  0.17300000000E+03 0.  1.
<mgrwt>
<rscale>  2 0.20479413E+03</rscale>
<asrwt>0</asrwt>
<pdfrwt beam="1">  1       21 0.16142924E+00 0.20479413E+03</pdfrwt>
<pdfrwt beam="2">  1       21 0.64800740E-02 0.20479413E+03</pdfrwt>
<totfact> 0.42146911E+04</totfact>
</mgrwt>
</event>
<event>
 4    1  0.4495571E+000  0.1991036E+03  0.7546771E-02  0.1150497E+00
         21   -1    0    0  501  502  0.00000000000E+00  0.00000000000E+00  0.30393384182E+03  0.30393384182E+03  0.00000000000E+00 0. -1.
         21   -1    0    0  502  503 -0.00000000000E+00 -0.00000000000E+00 -0.24360025448E+03  0.24360025448E+03  0.00000000000E+00 0.  1.
          6    1    1    2  501    0  0.67846075337E+02  0.71485377475E+02  0.21676499465E+03  0.29432857835E+03  0.17300000000E+03 0. -1.
         -6    1    1    2    0  503 -0.67846075337E+02 -0.71485377475E+02 -0.15643140730E+03  0.25320551795E+03  0.17300000000E+03 0.  1.
<mgrwt>
<rscale>  2 0.19910361E+03</rscale>
<asrwt>0</asrwt>
<pdfrwt beam="1">  1       21 0.46759053E-01 0.19910361E+03</pdfrwt>
<pdfrwt beam="2">  1       21 0.37476962E-01 0.19910361E+03</pdfrwt>
<totfact> 0.29961559E+04</totfact>
</mgrwt>
</event>
<event>
 4    1  0.4495571E+000  0.2960778E+03  0.7546771E-02  0.1087218E+00
         21   -1    0    0  501  502  0.00000000000E+00  0.00000000000E+00  0.20953285270E+03  0.20953285270E+03  0.00000000000E+00 0. -1.
         21   -1    0    0  502  503 -0.00000000000E+00 -0.00000000000E+00 -0.41847881651E+03  0.41847881651E+03  0.00000000000E+00 0.  1.
          6    1    1    2  501    0 -0.58259055294E+02  0.23310720873E+03 -0.10955543854E+03  0.31569682038E+03  0.17300000000E+03 0. -1.
         -6    1    1    2    0  503  0.58259055294E+02 -0.23310720873E+03 -0.99390525276E+02  0.31231484883E+03  0.17300000000E+03 0.  1.
<mgrwt>
<rscale>  2 0.29607784E+03</rscale>
<asrwt>0</asrwt>
<pdfrwt beam="1">  1       21 0.32235823E-01 0.29607784E+03</pdfrwt>
<pdfrwt beam="2">  1       21 0.64381357E-01 0.29607784E+03</pdfrwt>
<totfact> 0.19561484E+04</totfact>
</mgrwt>
</event>
<event>
 4    1  0.4495571E+000  0.2216760E+03  0.7546771E-02  0.1132640E+00
         21   -1    0    0  503  502  0.00000000000E+00  0.00000000000E+00  0.30730077096E+03  0.30730077096E+03  0.00000000000E+00 0.  1.
         21   -1    0    0  501  503 -0.00000000000E+00 -0.00000000000E+00 -0.27790581534E+03  0.27790581534E+03  0.00000000000E+00 0.  1.
          6    1    1    2  501    0 -0.45613659073E+02  0.13088399986E+03 -0.17596495321E+03  0.28302630986E+03  0.17300000000E+03 0.  1.
         -6    1    1    2    0  502  0.45613659073E+02 -0.13088399986E+03  0.20535990884E+03  0.30218027644E+03  0.17300000000E+03 0.  1.
<mgrwt>
<rscale>  2 0.22167595E+03</rscale>
<asrwt>0</asrwt>
<pdfrwt beam="1">  1       21 0.47277042E-01 0.22167595E+03</pdfrwt>
<pdfrwt beam="2">  1       21 0.42754740E-01 0.22167595E+03</pdfrwt>
<totfact> 0.22154215E+04</totfact>
</mgrwt>
</event>
<event>
 4    1  0.4495571E+000  0.3888161E+03  0.7546771E-02  0.1047723E+00
         21   -1    0    0  501  502  0.00000000000E+00  0.00000000000E+00  0.68408263242E+03  0.68408263242E+03  0.00000000000E+00 0.  1.
         21   -1    0    0  502  503 -0.00000000000E+00 -0.00000000000E+00 -0.45380487966E+03  0.45380487966E+03  0.00000000000E+00 0. -1.
          6    1    1    2  501    0 -0.10345649122E+03 -0.33248412178E+03  0.52264739461E+03  0.65141249290E+03  0.17300000000E+03 0.  1.
         -6    1    1    2    0  503  0.10345649122E+03  0.33248412178E+03 -0.29236964185E+03  0.48647501918E+03  0.17300000000E+03 0. -1.
<mgrwt>
<rscale>  2 0.38881607E+03</rscale>
<asrwt>0</asrwt>
<pdfrwt beam="1">  1       21 0.10524348E+00 0.38881607E+03</pdfrwt>
<pdfrwt beam="2">  1       21 0.69816135E-01 0.38881607E+03</pdfrwt>
<totfact> 0.11856704E+03</totfact>
</mgrwt>
</event>
<event>
 4    1  0.4495571E+000  0.2575472E+03  0.7546771E-02  0.1108626E+00
         21   -1    0    0  503  502  0.00000000000E+00  0.00000000000E+00  0.75152232379E+03  0.75152232379E+03  0.00000000000E+00 0. -1.
         21   -1    0    0  501  503 -0.00000000000E+00 -0.00000000000E+00 -0.10661313814E+03  0.10661313814E+03  0.00000000000E+00 0.  1.
          6    1    1    2  501    0  0.65659569054E+02  0.17913787124E+03  0.14443949682E+03  0.29528515737E+03  0.17300000000E+03 0.  1.
         -6    1    1    2    0  502 -0.65659569054E+02 -0.17913787124E+03  0.50046968883E+03  0.56285030457E+03  0.17300000000E+03 0. -1.
<mgrwt>
<rscale>  2 0.25754719E+03</rscale>
<asrwt>0</asrwt>
<pdfrwt beam="1">  1       21 0.11561882E+00 0.25754719E+03</pdfrwt>
<pdfrwt beam="2">  1       21 0.16402022E-01 0.25754719E+03</pdfrwt>
<totfact> 0.18574306E+04</totfact>
</mgrwt>
</event>
<event>
 4    1  0.4495571E+000  0.1978721E+03  0.7546771E-02  0.1151547E+00
         21   -1    0    0  503  502  0.00000000000E+00  0.00000000000E+00  0.21463221560E+03  0.21463221560E+03  0.00000000000E+00 0. -1.
         21   -1    0    0  501  503 -0.00000000000E+00 -0.00000000000E+00 -0.23387323300E+03  0.23387323300E+03  0.00000000000E+00 0. -1.
          6    1    1    2  501    0  0.48064742428E+02  0.83151453642E+02 -0.11480467339E+03  0.22876515631E+03  0.17300000000E+03 0. -1.
         -6    1    1    2    0  502 -0.48064742428E+02 -0.83151453642E+02  0.95563655999E+02  0.21974029229E+03  0.17300000000E+03 0. -1.
<mgrwt>
<rscale>  2 0.19787214E+03</rscale>
<asrwt>0</asrwt>
<pdfrwt beam="1">  1       21 0.33020341E-01 0.19787214E+03</pdfrwt>
<pdfrwt beam="2">  1       21 0.35980497E-01 0.19787214E+03</pdfrwt>
<totfact> 0.65616729E+04</totfact>
</mgrwt>
</event>
<event>
 4    1  0.4495571E+000  0.1904779E+03  0.7546771E-02  0.1158031E+00
         21   -1    0    0  503  502  0.00000000000E+00  0.00000000000E+00  0.28566591206E+03  0.28566591206E+03  0.00000000000E+00 0.  1.
         21   -1    0    0  501  503 -0.00000000000E+00 -0.00000000000E+00 -0.18284210184E+03  0.18284210184E+03  0.00000000000E+00 0.  1.
          6    1    1    2  501    0  0.48359640031E+02  0.63357624202E+02 -0.78037144914E+02  0.20584372547E+03  0.17300000000E+03 0.  1.
         -6    1    1    2    0  502 -0.48359640031E+02 -0.63357624202E+02  0.18086095513E+03  0.26266428844E+03  0.17300000000E+03 0.  1.
<mgrwt>
<rscale>  2 0.19047793E+03</rscale>
<asrwt>0</asrwt>
<pdfrwt beam="1">  1       21 0.43948602E-01 0.19047793E+03</pdfrwt>
<pdfrwt beam="2">  1       21 0.28129554E-01 0.19047793E+03</pdfrwt>
<totfact> 0.60121841E+04</totfact>
</mgrwt>
</event>
<event>
 4    1  0.4495571E+000  0.1774983E+03  0.7546771E-02  0.1170246E+00
         21   -1    0    0  501  502  0.00000000000E+00  0.00000000000E+00  0.21853337444E+03  0.21853337444E+03  0.00000000000E+00 0.  1.
         21   -1    0    0  502  503 -0.00000000000E+00 -0.00000000000E+00 -0.14808874482E+03  0.14808874482E+03  0.00000000000E+00 0.  1.
          6    1    1    2  501    0  0.14479216432E+02 -0.36972973380E+02  0.65047232202E+02  0.18904177022E+03  0.17300000000E+03 0.  1.
         -6    1    1    2    0  503 -0.14479216432E+02  0.36972973380E+02  0.53973974131E+01  0.17758034905E+03  0.17300000000E+03 0.  1.
<mgrwt>
<rscale>  2 0.17749831E+03</rscale>
<asrwt>0</asrwt>
<pdfrwt beam="1">  1       21 0.33620519E-01 0.17749831E+03</pdfrwt>
<pdfrwt beam="2">  1       21 0.22782884E-01 0.17749831E+03</pdfrwt>
<totfact> 0.15472773E+05</totfact>
</mgrwt>
</event>
<event>
 4    1  0.4495571E+000  0.2117569E+03  0.7546771E-02  0.1140182E+00
         21   -1    0    0  503  502  0.00000000000E+00  0.00000000000E+00  0.42394693868E+03  0.42394693868E+03  0.00000000000E+00 0.  1.
         21   -1    0    0  501  503 -0.00000000000E+00 -0.00000000000E+00 -0.12173313387E+03  0.12173313387E+03  0.00000000000E+00 0. -1.
          6    1    1    2  501    0  0.13490549179E+01 -0.12210710385E+03  0.52306284425E+02  0.21812132438E+03  0.17300000000E+03 0. -1.
         -6    1    1    2    0  502 -0.13490549179E+01  0.12210710385E+03  0.24990752038E+03  0.32755874817E+03  0.17300000000E+03 0. -1.
<mgrwt>
<rscale>  2 0.21175685E+03</rscale>
<asrwt>0</asrwt>
<pdfrwt beam="1">  1       21 0.65222605E-01 0.21175685E+03</pdfrwt>
<pdfrwt beam="2">  1       21 0.18728175E-01 0.21175685E+03</pdfrwt>
<totfact> 0.55927533E+04</totfact>
</mgrwt>
</event>
<event>
 4    1  0.4495571E+000  0.3543668E+03  0.7546771E-02  0.1060837E+00
         21   -1    0    0  501  502  0.00000000000E+00  0.00000000000E+00  0.99635373452E+03  0.99635373452E+03  0.00000000000E+00 0. -1.
         21   -1    0    0  502  503 -0.00000000000E+00 -0.00000000000E+00 -0.20419300616E+03  0.20419300616E+03  0.00000000000E+00 0.  1.
          6    1    1    2  501    0 -0.25952742299E+03 -0.16820321615E+03  0.76745682371E+03  0.84531992847E+03  0.17300000000E+03 0. -1.
         -6    1    1    2    0  503  0.25952742299E+03  0.16820321615E+03  0.24703904659E+02  0.35522681221E+03  0.17300000000E+03 0. -1.
<mgrwt>
<rscale>  2 0.35436677E+03</rscale>
<asrwt>0</asrwt>
<pdfrwt beam="1">  1       21 0.15328519E+00 0.35436677E+03</pdfrwt>
<pdfrwt beam="2">  1       21 0.31414309E-01 0.35436677E+03</pdfrwt>
<totfact> 0.24614009E+03</totfact>
</mgrwt>
</event>
<event>
 4    1  0.4495571E+000  0.1878307E+03  0.7546771E-02  0.1160433E+00
         21   -1    0    0  503  502  0.00000000000E+00  0.00000000000E+00  0.12551841871E+03  0.12551841871E+03  0.00000000000E+00 0.  1.
         21   -1    0    0  501  503 -0.00000000000E+00 -0.00000000000E+00 -0.12114195318E+04  0.12114195318E+04  0.00000000000E+00 0.  1.
          6    1    1    2  501    0 -0.69291076051E+02  0.23454323512E+02 -0.11287586593E+04  0.11442798913E+04  0.17300000000E+03 0.  1.
         -6    1    1    2    0  502  0.69291076051E+02 -0.23454323512E+02  0.42857546277E+02  0.19265805923E+03  0.17300000000E+03 0.  1.
<mgrwt>
<rscale>  2 0.18783066E+03</rscale>
<asrwt>0</asrwt>
<pdfrwt beam="1">  1       21 0.19310526E-01 0.18783066E+03</pdfrwt>
<pdfrwt beam="2">  1       21 0.18637223E+00 0.18783066E+03</pdfrwt>
<totfact> 0.40807496E+03</totfact>
</mgrwt>
</event>
<event>
 4    1  0.4495571E+000  0.2560408E+03  0.7546771E-02  0.1109546E+00
         21   -1    0    0  501  502  0.00000000000E+00  0.00000000000E+00  0.62478181209E+03  0.62478181209E+03  0.00000000000E+00 0. -1.
         21   -1    0    0  502  503 -0.00000000000E+00 -0.00000000000E+00 -0.18380725444E+03  0.18380725444E+03  0.00000000000E+00 0. -1.
          6    1    1    2  501    0  0.15172996191E+03 -0.11227600819E+03  0.48533663676E+03  0.54873357319E+03  0.17300000000E+03 0. -1.
         -6    1    1    2    0  503 -0.15172996191E+03  0.11227600819E+03 -0.44362079118E+02  0.25985549335E+03  0.17300000000E+03 0. -1.
<mgrwt>
<rscale>  2 0.25604078E+03</rscale>
<asrwt>0</asrwt>
<pdfrwt beam="1">  1       21 0.96120277E-01 0.25604078E+03</pdfrwt>
<pdfrwt beam="2">  1       21 0.28278040E-01 0.25604078E+03</pdfrwt>
<totfact> 0.10354864E+04</totfact>
</mgrwt>
</event>
<event>
 4    1  0.4495571E+000  0.1888452E+03  0.7546771E-02  0.1159507E+00
         21   -1    0    0  503  502  0.00000000000E+00  0.00000000000E+00  0.11645791899E+03  0.11645791899E+03  0.00000000000E+00 0. -1.
         21   -1    0    0  501  503 -0.00000000000E+00 -0.00000000000E+00 -0.75666833824E+03  0.75666833824E+03  0.00000000000E+00 0. -1.
          6    1    1    2  501    0  0.32100067502E+02  0.68579083465E+02 -0.65693742084E+03  0.68354171776E+03  0.17300000000E+03 0. -1.
         -6    1    1    2    0  502 -0.32100067502E+02 -0.68579083465E+02  0.16727001596E+02  0.18958453947E+03  0.17300000000E+03 0. -1.
<mgrwt>
<rscale>  2 0.18884519E+03</rscale>
<asrwt>0</asrwt>
<pdfrwt beam="1">  1       21 0.17916603E-01 0.18884519E+03</pdfrwt>
<pdfrwt beam="2">  1       21 0.11641051E+00 0.18884519E+03</pdfrwt>
<totfact> 0.16155305E+04</totfact>
</mgrwt>
</event>
<event>
 4    1  0.4495571E+000  0.2005876E+03  0.7546771E-02  0.1149244E+00
         21   -1    0    0  503  502  0.00000000000E+00  0.00000000000E+00  0.48361829454E+03  0.48361829454E+03  0.00000000000E+00 0.  1.
         21   -1    0    0  501  503 -0.00000000000E+00 -0.00000000000E+00 -0.13419998421E+03  0.13419998421E+03  0.00000000000E+00 0.  1.
          6    1    1    2  501    0 -0.97930131809E+02  0.26759614955E+02 -0.15729063652E+02  0.20120335771E+03  0.17300000000E+03 0.  1.
         -6    1    1    2    0  502  0.97930131809E+02 -0.26759614955E+02  0.36514737398E+03  0.41661492104E+03  0.17300000000E+03 0.  1.
<mgrwt>
<rscale>  2 0.20058761E+03</rscale>
<asrwt>0</asrwt>
<pdfrwt beam="1">  1       21 0.74402813E-01 0.20058761E+03</pdfrwt>
<pdfrwt beam="2">  1       21 0.20646152E-01 0.20058761E+03</pdfrwt>
<totfact> 0.35052753E+04</totfact>
</mgrwt>
</event>
<event>
 4    1  0.4495571E+000  0.1773649E+03  0.7546771E-02  0.1170378E+00
         21   -1    0    0  503  502  0.00000000000E+00  0.00000000000E+00  0.31770027410E+03  0.31770027410E+03  0.00000000000E+00 0. -1.
         21   -1    0    0  501  503 -0.00000000000E+00 -0.00000000000E+00 -0.10621384048E+03  0.10621384048E+03  0.00000000000E+00 0. -1.
          6    1    1    2  501    0 -0.19519248236E+02  0.33886816236E+02  0.16090931738E+03  0.23947886292E+03  0.17300000000E+03 0. -1.
         -6    1    1    2    0  502  0.19519248236E+02 -0.33886816236E+02  0.50577116230E+02  0.18443525165E+03  0.17300000000E+03 0. -1.
<mgrwt>
<rscale>  2 0.17736493E+03</rscale>
<asrwt>0</asrwt>
<pdfrwt beam="1">  1       21 0.48876965E-01 0.17736493E+03</pdfrwt>
<pdfrwt beam="2">  1       21 0.16340591E-01 0.17736493E+03</pdfrwt>
<totfact> 0.13472337E+05</totfact>
</mgrwt>
</event>
<event>
 4    1  0.4495571E+000  0.3114737E+03  0.7546771E-02  0.1079642E+00
         21   -1    0    0  501  502  0.00000000000E+00  0.00000000000E+00  0.13992442434E+03  0.13992442434E+03  0.00000000000E+00 0. -1.
         21   -1    0    0  502  503 -0.00000000000E+00 -0.00000000000E+00 -0.11512210759E+04  0.11512210759E+04  0.00000000000E+00 0. -1.
          6    1    1    2  501    0 -0.24574397923E+03  0.81833617055E+02 -0.98511871930E+02  0.32668093473E+03  0.17300000000E+03 0. -1.
         -6    1    1    2    0  503  0.24574397923E+03 -0.81833617055E+02 -0.91278477967E+03  0.96446456555E+03  0.17300000000E+03 0. -1.
<mgrwt>
<rscale>  2 0.31147367E+03</rscale>
<asrwt>0</asrwt>
<pdfrwt beam="1">  1       21 0.21526834E-01 0.31147367E+03</pdfrwt>
<pdfrwt beam="2">  1       21 0.17711094E+00 0.31147367E+03</pdfrwt>
<totfact> 0.35104699E+03</totfact>
</mgrwt>
</event>
<event>
 4    1  0.4495571E+000  0.2073921E+03  0.7546771E-02  0.1143648E+00
         21   -1    0    0  501  502  0.00000000000E+00  0.00000000000E+00  0.27956609979E+03  0.27956609979E+03  0.00000000000E+00 0.  1.
         21   -1    0    0  502  503 -0.00000000000E+00 -0.00000000000E+00 -0.15683505017E+03  0.15683505017E+03  0.00000000000E+00 0. -1.
          6    1    1    2  501    0 -0.11365338730E+03 -0.12859910909E+02  0.91464486343E+02  0.22666544072E+03  0.17300000000E+03 0.  1.
         -6    1    1    2    0  503  0.11365338730E+03  0.12859910909E+02  0.31266563275E+02  0.20973570924E+03  0.17300000000E+03 0. -1.
<mgrwt>
<rscale>  2 0.20739207E+03</rscale>
<asrwt>0</asrwt>
<pdfrwt beam="1">  1       21 0.43010169E-01 0.20739207E+03</pdfrwt>
<pdfrwt beam="2">  1       21 0.24128469E-01 0.20739207E+03</pdfrwt>
<totfact> 0.83722223E+04</totfact>
</mgrwt>
</event>
<event>
 4    1  0.4495571E+000  0.3787693E+03  0.7546771E-02  0.1051390E+00
         21   -1    0    0  503  502  0.00000000000E+00  0.00000000000E+00  0.10946826745E+04  0.10946826745E+04  0.00000000000E+00 0.  1.
         21   -1    0    0  501  503 -0.00000000000E+00 -0.00000000000E+00 -0.14471651840E+03  0.14471651840E+03  0.00000000000E+00 0. -1.
          6    1    1    2  501    0  0.33642207936E+03 -0.18904699828E+02  0.28459734713E+03  0.47377405284E+03  0.17300000000E+03 0. -1.
         -6    1    1    2    0  502 -0.33642207936E+03  0.18904699828E+02  0.66536880898E+03  0.76562514007E+03  0.17300000000E+03 0.  1.
<mgrwt>
<rscale>  2 0.37876933E+03</rscale>
<asrwt>0</asrwt>
<pdfrwt beam="1">  1       21 0.16841271E+00 0.37876933E+03</pdfrwt>
<pdfrwt beam="2">  1       21 0.22264080E-01 0.37876933E+03</pdfrwt>
<totfact> 0.36692963E+03</totfact>
</mgrwt>
</event>
<event>
 4    1  0.4495571E+000  0.1773835E+03  0.7546771E-02  0.1170360E+00
         21   -1    0    0  501  502  0.00000000000E+00  0.00000000000E+00  0.87711332210E+02  0.87711332210E+02  0.00000000000E+00 0. -1.
         21   -1    0    0  502  503 -0.00000000000E+00 -0.00000000000E+00 -0.62532016837E+03  0.62532016837E+03  0.00000000000E+00 0. -1.
          6    1    1    2  501    0  0.38979531512E+02  0.40625738566E+01 -0.36023431687E+02  0.18100440882E+03  0.17300000000E+03 0. -1.
         -6    1    1    2    0  503 -0.38979531512E+02 -0.40625738566E+01 -0.50158540447E+03  0.53202709176E+03  0.17300000000E+03 0. -1.
<mgrwt>
<rscale>  2 0.17738351E+03</rscale>
<asrwt>0</asrwt>
<pdfrwt beam="1">  1       21 0.13494051E-01 0.17738351E+03</pdfrwt>
<pdfrwt beam="2">  1       21 0.96203102E-01 0.17738351E+03</pdfrwt>
<totfact> 0.43083911E+04</totfact>
</mgrwt>
</event>
<event>
 4    1  0.4495571E+000  0.1919034E+03  0.7546771E-02  0.1156756E+00
         21   -1    0    0  501  502  0.00000000000E+00  0.00000000000E+00  0.58789475734E+03  0.58789475734E+03  0.00000000000E+00 0.  1.
         21   -1    0    0  502  503 -0.00000000000E+00 -0.00000000000E+00 -0.62655699429E+02  0.62655699429E+02  0.00000000000E+00 0.  1.
          6    1    1    2  501    0 -0.26986801083E+02 -0.78547065918E+02  0.25781743793E+03  0.32139813363E+03  0.17300000000E+03 0. -1.
         -6    1    1    2    0  503  0.26986801083E+02  0.78547065918E+02  0.26742161997E+03  0.32915232314E+03  0.17300000000E+03 0. -1.
<mgrwt>
<rscale>  2 0.19190344E+03</rscale>
<asrwt>0</asrwt>
<pdfrwt beam="1">  1       21 0.90445343E-01 0.19190344E+03</pdfrwt>
<pdfrwt beam="2">  1       21 0.96393388E-02 0.19190344E+03</pdfrwt>
<totfact> 0.89956162E+04</totfact>
</mgrwt>
</event>
<event>
 4    1  0.4495571E+000  0.2067370E+03  0.7546771E-02  0.1144176E+00
         21   -1    0    0  503  502  0.00000000000E+00  0.00000000000E+00  0.81915744745E+02  0.81915744745E+02  0.00000000000E+00 0.  1.
         21   -1    0    0  501  503 -0.00000000000E+00 -0.00000000000E+00 -0.56148625865E+03  0.56148625865E+03  0.00000000000E+00 0. -1.
          6    1    1    2  501    0  0.11317965810E+03  0.12483015847E+01 -0.32535746484E+03  0.38548368732E+03  0.17300000000E+03 0. -1.
         -6    1    1    2    0  502 -0.11317965810E+03 -0.12483015847E+01 -0.15421304906E+03  0.25791831607E+03  0.17300000000E+03 0.  1.
<mgrwt>
<rscale>  2 0.20673701E+03</rscale>
<asrwt>0</asrwt>
<pdfrwt beam="1">  1       21 0.12602422E-01 0.20673701E+03</pdfrwt>
<pdfrwt beam="2">  1       21 0.86382502E-01 0.20673701E+03</pdfrwt>
<totfact> 0.61653230E+04</totfact>
</mgrwt>
</event>
<event>
 4    1  0.4495571E+000  0.2443275E+03  0.7546771E-02  0.1116943E+00
         21   -1    0    0  501  502  0.00000000000E+00  0.00000000000E+00  0.12930474406E+03  0.12930474406E+03  0.00000000000E+00 0.  1.
         21   -1    0    0  502  503 -0.00000000000E+00 -0.00000000000E+00 -0.46488853047E+03  0.46488853047E+03  0.00000000000E+00 0. -1.
          6    1    1    2  501    0 -0.13537416809E+03  0.10696148956E+03 -0.14306587734E+03  0.28313207323E+03  0.17300000000E+03 0. -1.
         -6    1    1    2    0  503  0.13537416809E+03 -0.10696148956E+03 -0.19251790908E+03  0.31106120130E+03  0.17300000000E+03 0.  1.
<mgrwt>
<rscale>  2 0.24432750E+03</rscale>
<asrwt>0</asrwt>
<pdfrwt beam="1">  1       21 0.19893037E-01 0.24432750E+03</pdfrwt>
<pdfrwt beam="2">  1       21 0.71521313E-01 0.24432750E+03</pdfrwt>
<totfact> 0.40187225E+04</totfact>
</mgrwt>
</event>
<event>
 4    1  0.4495571E+000  0.2322735E+03  0.7546771E-02  0.1125050E+00
         21   -1    0    0  503  502  0.00000000000E+00  0.00000000000E+00  0.28894885049E+03  0.28894885049E+03  0.00000000000E+00 0. -1.
         21   -1    0    0  501  503 -0.00000000000E+00 -0.00000000000E+00 -0.19360492113E+03  0.19360492113E+03  0.00000000000E+00 0. -1.
          6    1    1    2  501    0 -0.12061664283E+03  0.97332400551E+02  0.21546041553E+01  0.23228347562E+03  0.17300000000E+03 0. -1.
         -6    1    1    2    0  502  0.12061664283E+03 -0.97332400551E+02  0.93189325208E+02  0.25027029600E+03  0.17300000000E+03 0. -1.
<mgrwt>
<rscale>  2 0.23227348E+03</rscale>
<asrwt>0</asrwt>
<pdfrwt beam="1">  1       21 0.44453669E-01 0.23227348E+03</pdfrwt>
<pdfrwt beam="2">  1       21 0.29785372E-01 0.23227348E+03</pdfrwt>
<totfact> 0.51562788E+04</totfact>
</mgrwt>
</event>
<event>
 4    1  0.4495571E+000  0.2098313E+03  0.7546771E-02  0.1141700E+00
         21   -1    0    0  501  502  0.00000000000E+00  0.00000000000E+00  0.10439145420E+03  0.10439145420E+03  0.00000000000E+00 0. -1.
         21   -1    0    0  502  503 -0.00000000000E+00 -0.00000000000E+00 -0.67813608051E+03  0.67813608051E+03  0.00000000000E+00 0. -1.
          6    1    1    2  501    0  0.33784173179E+01 -0.11869609285E+03 -0.46302268453E+02  0.21487921311E+03  0.17300000000E+03 0. -1.
         -6    1    1    2    0  503 -0.33784173179E+01  0.11869609285E+03 -0.52744235786E+03  0.56764832161E+03  0.17300000000E+03 0. -1.
<mgrwt>
<rscale>  2 0.20983130E+03</rscale>
<asrwt>0</asrwt>
<pdfrwt beam="1">  1       21 0.16060224E-01 0.20983130E+03</pdfrwt>
<pdfrwt beam="2">  1       21 0.10432863E+00 0.20983130E+03</pdfrwt>
<totfact> 0.25433858E+04</totfact>
</mgrwt>
</event>
<event>
 4    1  0.4495571E+000  0.1917621E+03  0.7546771E-02  0.1156882E+00
         21   -1    0    0  501  502  0.00000000000E+00  0.00000000000E+00  0.18163341816E+04  0.18163341816E+04  0.00000000000E+00 0.  1.
         21   -1    0    0  502  503 -0.00000000000E+00 -0.00000000000E+00 -0.17812930729E+03  0.17812930729E+03  0.00000000000E+00 0. -1.
          6    1    1    2  501    0 -0.29833670110E+00 -0.82726134142E+02  0.17579543995E+04  0.17683824170E+04  0.17300000000E+03 0.  1.
         -6    1    1    2    0  503  0.29833670110E+00  0.82726134142E+02 -0.11974952516E+03  0.22608107185E+03  0.17300000000E+03 0. -1.
<mgrwt>
<rscale>  2 0.19176210E+03</rscale>
<asrwt>0</asrwt>
<pdfrwt beam="1">  1       21 0.27943602E+00 0.19176210E+03</pdfrwt>
<pdfrwt beam="2">  1       21 0.27404510E-01 0.19176210E+03</pdfrwt>
<totfact> 0.57012070E+02</totfact>
</mgrwt>
</event>
<event>
 4    1  0.4495571E+000  0.2896788E+03  0.7546771E-02  0.1090517E+00
         21   -1    0    0  503  502  0.00000000000E+00  0.00000000000E+00  0.14315181976E+04  0.14315181976E+04  0.00000000000E+00 0.  1.
         21   -1    0    0  501  503 -0.00000000000E+00 -0.00000000000E+00 -0.75247443710E+02  0.75247443710E+02  0.00000000000E+00 0.  1.
          6    1    1    2  501    0 -0.12336002643E+03  0.19689361330E+03  0.32397574897E+03  0.43459645305E+03  0.17300000000E+03 0.  1.
         -6    1    1    2    0  502  0.12336002643E+03 -0.19689361330E+03  0.10322950049E+04  0.10721691883E+04  0.17300000000E+03 0.  1.
<mgrwt>
<rscale>  2 0.28967877E+03</rscale>
<asrwt>0</asrwt>
<pdfrwt beam="1">  1       21 0.22023355E+00 0.28967877E+03</pdfrwt>
<pdfrwt beam="2">  1       21 0.11576531E-01 0.28967877E+03</pdfrwt>
<totfact> 0.58158932E+03</totfact>
</mgrwt>
</event>
<event>
 4    1  0.4495571E+000  0.1804368E+03  0.7546771E-02  0.1167381E+00
         21   -1    0    0  501  502  0.00000000000E+00  0.00000000000E+00  0.13927315406E+04  0.13927315406E+04  0.00000000000E+00 0. -1.
         21   -1    0    0  502  503 -0.00000000000E+00 -0.00000000000E+00 -0.55390355439E+02  0.55390355439E+02  0.00000000000E+00 0. -1.
          6    1    1    2  501    0  0.50847216962E+02  0.65574362269E+01  0.12191306587E+04  0.12324110525E+04  0.17300000000E+03 0. -1.
         -6    1    1    2    0  503 -0.50847216962E+02 -0.65574362269E+01  0.11821052649E+03  0.21571084353E+03  0.17300000000E+03 0. -1.
<mgrwt>
<rscale>  2 0.18043680E+03</rscale>
<asrwt>0</asrwt>
<pdfrwt beam="1">  1       21 0.21426637E+00 0.18043680E+03</pdfrwt>
<pdfrwt beam="2">  1       21 0.85215942E-02 0.18043680E+03</pdfrwt>
<totfact> 0.11856209E+04</totfact>
</mgrwt>
</event>
<event>
 4    1  0.4495571E+000  0.1997078E+03  0.7546771E-02  0.1149986E+00
         21   -1    0    0  501  502  0.00000000000E+00  0.00000000000E+00  0.36081415771E+03  0.36081415771E+03  0.00000000000E+00 0.  1.
         21   -1    0    0  502  503 -0.00000000000E+00 -0.00000000000E+00 -0.16538109261E+03  0.16538109261E+03  0.00000000000E+00 0.  1.
          6    1    1    2  501    0  0.97956024354E+02  0.18942238659E+02  0.24922617798E+03  0.31936950215E+03  0.17300000000E+03 0.  1.
         -6    1    1    2    0  503 -0.97956024354E+02 -0.18942238659E+02 -0.53793112888E+02  0.20682574817E+03  0.17300000000E+03 0.  1.
<mgrwt>
<rscale>  2 0.19970776E+03</rscale>
<asrwt>0</asrwt>
<pdfrwt beam="1">  1       21 0.55509870E-01 0.19970776E+03</pdfrwt>
<pdfrwt beam="2">  1       21 0.25443245E-01 0.19970776E+03</pdfrwt>
<totfact> 0.44642337E+04</totfact>
</mgrwt>
</event>
<event>
 4    1  0.4495571E+000  0.1781858E+03  0.7546771E-02  0.1169570E+00
         21   -1    0    0  501  502  0.00000000000E+00  0.00000000000E+00  0.11598884649E+03  0.11598884649E+03  0.00000000000E+00 0.  1.
         21   -1    0    0  502  503 -0.00000000000E+00 -0.00000000000E+00 -0.48905475716E+03  0.48905475716E+03  0.00000000000E+00 0.  1.
          6    1    1    2  501    0 -0.42192348168E+02  0.64022355958E+01  0.14200649610E+02  0.17875077990E+03  0.17300000000E+03 0.  1.
         -6    1    1    2    0  503  0.42192348168E+02 -0.64022355958E+01 -0.38726656029E+03  0.42629282375E+03  0.17300000000E+03 0.  1.
<mgrwt>
<rscale>  2 0.17818581E+03</rscale>
<asrwt>0</asrwt>
<pdfrwt beam="1">  1       21 0.17844438E-01 0.17818581E+03</pdfrwt>
<pdfrwt beam="2">  1       21 0.75239194E-01 0.17818581E+03</pdfrwt>
<totfact> 0.45362876E+04</totfact>
</mgrwt>
</event>
<event>
 4    1  0.4495571E+000  0.1791890E+03  0.7546771E-02  0.1168590E+00
         21   -1    0    0  501  502  0.00000000000E+00  0.00000000000E+00  0.22598631095E+03  0.22598631095E+03  0.00000000000E+00 0. -1.
         21   -1    0    0  502  503 -0.00000000000E+00 -0.00000000000E+00 -0.91036270777E+03  0.91036270777E+03  0.00000000000E+00 0. -1.
          6    1    1    2  501    0 -0.98095733348E+01  0.45645192472E+02  0.17976831877E+03  0.25382151161E+03  0.17300000000E+03 0. -1.
         -6    1    1    2    0  503  0.98095733348E+01 -0.45645192472E+02 -0.86414471559E+03  0.88252750711E+03  0.17300000000E+03 0. -1.
<mgrwt>
<rscale>  2 0.17918904E+03</rscale>
<asrwt>0</asrwt>
<pdfrwt beam="1">  1       21 0.34767125E-01 0.17918904E+03</pdfrwt>
<pdfrwt beam="2">  1       21 0.14005580E+00 0.17918904E+03</pdfrwt>
<totfact> 0.28861165E+03</totfact>
</mgrwt>
</event>
<event>
 4    1  0.4495571E+000  0.1745332E+03  0.7546771E-02  0.1173201E+00
         21   -1    0    0  501  502  0.00000000000E+00  0.00000000000E+00  0.74682690611E+02  0.74682690611E+02  0.00000000000E+00 0. -1.
         21   -1    0    0  502  503 -0.00000000000E+00 -0.00000000000E+00 -0.42500222198E+03  0.42500222198E+03  0.00000000000E+00 0. -1.
          6    1    1    2  501    0 -0.12034849838E+02  0.19697583104E+02 -0.12501713294E+03  0.21468841590E+03  0.17300000000E+03 0.  1.
         -6    1    1    2    0  503  0.12034849838E+02 -0.19697583104E+02 -0.22530239842E+03  0.28499649669E+03  0.17300000000E+03 0.  1.
<mgrwt>
<rscale>  2 0.17453318E+03</rscale>
<asrwt>0</asrwt>
<pdfrwt beam="1">  1       21 0.11489645E-01 0.17453318E+03</pdfrwt>
<pdfrwt beam="2">  1       21 0.65384957E-01 0.17453318E+03</pdfrwt>
<totfact> 0.13731868E+05</totfact>
</mgrwt>
</event>
<event>
 4    1  0.4495571E+000  0.1999094E+03  0.7546771E-02  0.1149815E+00
         21   -1    0    0  503  502  0.00000000000E+00  0.00000000000E+00  0.35685260957E+03  0.35685260957E+03  0.00000000000E+00 0.  1.
         21   -1    0    0  501  503 -0.00000000000E+00 -0.00000000000E+00 -0.26955985952E+03  0.26955985952E+03  0.00000000000E+00 0.  1.
          6    1    1    2  501    0  0.65050756126E+02 -0.76178534033E+02 -0.19581747221E+03  0.27983611694E+03  0.17300000000E+03 0.  1.
         -6    1    1    2    0  502 -0.65050756126E+02  0.76178534033E+02  0.28311022227E+03  0.34657635215E+03  0.17300000000E+03 0.  1.
<mgrwt>
<rscale>  2 0.19990940E+03</rscale>
<asrwt>0</asrwt>
<pdfrwt beam="1">  1       21 0.54900401E-01 0.19990940E+03</pdfrwt>
<pdfrwt beam="2">  1       21 0.41470748E-01 0.19990940E+03</pdfrwt>
<totfact> 0.17451720E+04</totfact>
</mgrwt>
</event>
<event>
 4    1  0.4495571E+000  0.1739042E+03  0.7546771E-02  0.1173836E+00
         21   -1    0    0  501  502  0.00000000000E+00  0.00000000000E+00  0.69558241919E+02  0.69558241919E+02  0.00000000000E+00 0. -1.
         21   -1    0    0  502  503 -0.00000000000E+00 -0.00000000000E+00 -0.43481394084E+03  0.43481394084E+03  0.00000000000E+00 0. -1.
          6    1    1    2  501    0  0.12490778607E+02  0.12556032162E+02 -0.18478833472E+03  0.25375066924E+03  0.17300000000E+03 0. -1.
         -6    1    1    2    0  503 -0.12490778607E+02 -0.12556032162E+02 -0.18046736420E+03  0.25062151351E+03  0.17300000000E+03 0. -1.
<mgrwt>
<rscale>  2 0.17390421E+03</rscale>
<asrwt>0</asrwt>
<pdfrwt beam="1">  1       21 0.10701268E-01 0.17390421E+03</pdfrwt>
<pdfrwt beam="2">  1       21 0.66894453E-01 0.17390421E+03</pdfrwt>
<totfact> 0.14826511E+05</totfact>
</mgrwt>
</event>
<event>
 4    1  0.4495571E+000  0.1969349E+03  0.7546771E-02  0.1152351E+00
         21   -1    0    0  503  502  0.00000000000E+00  0.00000000000E+00  0.33917497744E+03  0.33917497744E+03  0.00000000000E+00 0.  1.
         21   -1    0    0  501  503 -0.00000000000E+00 -0.00000000000E+00 -0.15955735913E+03  0.15955735913E+03  0.00000000000E+00 0.  1.
          6    1    1    2  501    0  0.56516546630E+02 -0.75234643917E+02 -0.42931219317E+02  0.20156006866E+03  0.17300000000E+03 0.  1.
         -6    1    1    2    0  502 -0.56516546630E+02  0.75234643917E+02  0.22254883763E+03  0.29717226791E+03  0.17300000000E+03 0.  1.
<mgrwt>
<rscale>  2 0.19693494E+03</rscale>
<asrwt>0</asrwt>
<pdfrwt beam="1">  1       21 0.52180766E-01 0.19693494E+03</pdfrwt>
<pdfrwt beam="2">  1       21 0.24547286E-01 0.19693494E+03</pdfrwt>
<totfact> 0.54546402E+04</totfact>
</mgrwt>
</event>
<event>
 4    1  0.4495571E+000  0.2028743E+03  0.7546771E-02  0.1147336E+00
         21   -1    0    0  501  502  0.00000000000E+00  0.00000000000E+00  0.35832981460E+03  0.35832981460E+03  0.00000000000E+00 0.  1.
         21   -1    0    0  502  503 -0.00000000000E+00 -0.00000000000E+00 -0.27702502044E+03  0.27702502044E+03  0.00000000000E+00 0.  1.
          6    1    1    2  501    0  0.97056441430E+02  0.42532743924E+02  0.28370741799E+03  0.34878057021E+03  0.17300000000E+03 0.  1.
         -6    1    1    2    0  503 -0.97056441430E+02 -0.42532743924E+02 -0.20240262384E+03  0.28657426483E+03  0.17300000000E+03 0.  1.
<mgrwt>
<rscale>  2 0.20287431E+03</rscale>
<asrwt>0</asrwt>
<pdfrwt beam="1">  1       21 0.55127664E-01 0.20287431E+03</pdfrwt>
<pdfrwt beam="2">  1       21 0.42619234E-01 0.20287431E+03</pdfrwt>
<totfact> 0.16333451E+04</totfact>
</mgrwt>
</event>
<event>
 4    1  0.4495571E+000  0.2268874E+03  0.7546771E-02  0.1128850E+00
         21   -1    0    0  503  502  0.00000000000E+00  0.00000000000E+00  0.27445313519E+03  0.27445313519E+03  0.00000000000E+00 0.  1.
         21   -1    0    0  501  503 -0.00000000000E+00 -0.00000000000E+00 -0.21556225287E+03  0.21556225287E+03  0.00000000000E+00 0. -1.
          6    1    1    2  501    0  0.12777896614E+03  0.72259325182E+02 -0.58852187903E+02  0.23439593487E+03  0.17300000000E+03 0.  1.
         -6    1    1    2    0  502 -0.12777896614E+03 -0.72259325182E+02  0.11774307022E+03  0.25561945319E+03  0.17300000000E+03 0. -1.
<mgrwt>
<rscale>  2 0.22688736E+03</rscale>
<asrwt>0</asrwt>
<pdfrwt beam="1">  1       21 0.42223560E-01 0.22688736E+03</pdfrwt>
<pdfrwt beam="2">  1       21 0.33163423E-01 0.22688736E+03</pdfrwt>
<totfact> 0.46493596E+04</totfact>
</mgrwt>
</event>
<event>
 4    1  0.4495571E+000  0.2291334E+03  0.7546771E-02  0.1127251E+00
         21   -1    0    0  501  502  0.00000000000E+00  0.00000000000E+00  0.11255236285E+03  0.11255236285E+03  0.00000000000E+00 0.  1.
         21   -1    0    0  502  503 -0.00000000000E+00 -0.00000000000E+00 -0.64931071329E+03  0.64931071329E+03  0.00000000000E+00 0.  1.
          6    1    1    2  501    0  0.66281008259E+02  0.13483301448E+03 -0.66236005710E+02  0.23851482617E+03  0.17300000000E+03 0.  1.
         -6    1    1    2    0  503 -0.66281008259E+02 -0.13483301448E+03 -0.47052234473E+03  0.52334824996E+03  0.17300000000E+03 0.  1.
<mgrwt>
<rscale>  2 0.22913340E+03</rscale>
<asrwt>0</asrwt>
<pdfrwt beam="1">  1       21 0.17315749E-01 0.22913340E+03</pdfrwt>
<pdfrwt beam="2">  1       21 0.99893952E-01 0.22913340E+03</pdfrwt>
<totfact> 0.24310767E+04</totfact>
</mgrwt>
</event>
<event>
 4    1  0.4495571E+000  0.1793576E+03  0.7546771E-02  0.1168426E+00
         21   -1    0    0  501  502  0.00000000000E+00  0.00000000000E+00  0.43021710110E+03  0.43021710110E+03  0.00000000000E+00 0.  1.
         21   -1    0    0  502  503 -0.00000000000E+00 -0.00000000000E+00 -0.20341513633E+03  0.20341513633E+03  0.00000000000E+00 0.  1.
          6    1    1    2  501    0  0.13218201094E+02  0.45446793116E+02  0.36534570317E+03  0.40699706961E+03  0.17300000000E+03 0.  1.
         -6    1    1    2    0  503 -0.13218201094E+02 -0.45446793116E+02 -0.13854373840E+03  0.22663516782E+03  0.17300000000E+03 0.  1.
<mgrwt>
<rscale>  2 0.17935755E+03</rscale>
<asrwt>0</asrwt>
<pdfrwt beam="1">  1       21 0.66187246E-01 0.17935755E+03</pdfrwt>
<pdfrwt beam="2">  1       21 0.31294637E-01 0.17935755E+03</pdfrwt>
<totfact> 0.20721135E+04</totfact>
</mgrwt>
</event>
<event>
 4    1  0.4495571E+000  0.1766325E+03  0.7546771E-02  0.1171103E+00
         21   -1    0    0  503  502  0.00000000000E+00  0.00000000000E+00  0.46456337515E+03  0.46456337515E+03  0.00000000000E+00 0. -1.
         21   -1    0    0  501  503 -0.00000000000E+00 -0.00000000000E+00 -0.67177179229E+02  0.67177179229E+02  0.00000000000E+00 0.  1.
          6    1    1    2  501    0 -0.20561407111E+02  0.29107771074E+02  0.20321394186E+03  0.26924884394E+03  0.17300000000E+03 0.  1.
         -6    1    1    2    0  502  0.20561407111E+02 -0.29107771074E+02  0.19417225406E+03  0.26249171043E+03  0.17300000000E+03 0. -1.
<mgrwt>
<rscale>  2 0.17663248E+03</rscale>
<asrwt>0</asrwt>
<pdfrwt beam="1">  1       21 0.71471286E-01 0.17663248E+03</pdfrwt>
<pdfrwt beam="2">  1       21 0.10334951E-01 0.17663248E+03</pdfrwt>
<totfact> 0.13623831E+05</totfact>
</mgrwt>
</event>
<event>
 4    1  0.4495571E+000  0.2457053E+03  0.7546771E-02  0.1116049E+00
         21   -1    0    0  501  502  0.00000000000E+00  0.00000000000E+00  0.93868811557E+02  0.93868811557E+02  0.00000000000E+00 0.  1.
         21   -1    0    0  502  503 -0.00000000000E+00 -0.00000000000E+00 -0.10772567797E+04  0.10772567797E+04  0.00000000000E+00 0.  1.
          6    1    1    2  501    0 -0.16327519894E+03  0.61508527690E+02 -0.11997432165E+03  0.27343176009E+03  0.17300000000E+03 0.  1.
         -6    1    1    2    0  503  0.16327519894E+03 -0.61508527690E+02 -0.86341364653E+03  0.89769383121E+03  0.17300000000E+03 0.  1.
<mgrwt>
<rscale>  2 0.24570529E+03</rscale>
<asrwt>0</asrwt>
<pdfrwt beam="1">  1       21 0.14441355E-01 0.24570529E+03</pdfrwt>
<pdfrwt beam="2">  1       21 0.16573182E+00 0.24570529E+03</pdfrwt>
<totfact> 0.92557600E+03</totfact>
</mgrwt>
</event>
<event>
 4    1  0.4495571E+000  0.2109588E+03  0.7546771E-02  0.1140809E+00
         21   -1    0    0  501  502  0.00000000000E+00  0.00000000000E+00  0.27939730822E+03  0.27939730822E+03  0.00000000000E+00 0. -1.
         21   -1    0    0  502  503 -0.00000000000E+00 -0.00000000000E+00 -0.20697055424E+03  0.20697055424E+03  0.00000000000E+00 0.  1.
          6    1    1    2  501    0  0.11346898117E+03 -0.41223762934E+02  0.15294193992E+03  0.26056639328E+03  0.17300000000E+03 0. -1.
         -6    1    1    2    0  503 -0.11346898117E+03  0.41223762934E+02 -0.80515185947E+02  0.22580146918E+03  0.17300000000E+03 0.  1.
<mgrwt>
<rscale>  2 0.21095878E+03</rscale>
<asrwt>0</asrwt>
<pdfrwt beam="1">  1       21 0.42984201E-01 0.21095878E+03</pdfrwt>
<pdfrwt beam="2">  1       21 0.31841624E-01 0.21095878E+03</pdfrwt>
<totfact> 0.48926807E+04</totfact>
</mgrwt>
</event>
<event>
 4    1  0.4495571E+000  0.1927766E+03  0.7546771E-02  0.1155981E+00
         21   -1    0    0  501  502  0.00000000000E+00  0.00000000000E+00  0.27561435890E+03  0.27561435890E+03  0.00000000000E+00 0. -1.
         21   -1    0    0  502  503 -0.00000000000E+00 -0.00000000000E+00 -0.13747840088E+03  0.13747840088E+03  0.00000000000E+00 0.  1.
          6    1    1    2  501    0  0.11784810285E+02 -0.84231534356E+02  0.97701268655E+02  0.21612119524E+03  0.17300000000E+03 0.  1.
         -6    1    1    2    0  503 -0.11784810285E+02  0.84231534356E+02  0.40434689371E+02  0.19697156454E+03  0.17300000000E+03 0.  1.
<mgrwt>
<rscale>  2 0.19277664E+03</rscale>
<asrwt>0</asrwt>
<pdfrwt beam="1">  1       21 0.42402209E-01 0.19277664E+03</pdfrwt>
<pdfrwt beam="2">  1       21 0.21150523E-01 0.19277664E+03</pdfrwt>
<totfact> 0.11124445E+05</totfact>
</mgrwt>
</event>
<event>
 4    1  0.4495571E+000  0.1835790E+03  0.7546771E-02  0.1164384E+00
         21   -1    0    0  503  502  0.00000000000E+00  0.00000000000E+00  0.57990252913E+03  0.57990252913E+03  0.00000000000E+00 0. -1.
         21   -1    0    0  501  503 -0.00000000000E+00 -0.00000000000E+00 -0.13356892043E+03  0.13356892043E+03  0.00000000000E+00 0. -1.
          6    1    1    2  501    0  0.12937625122E+02  0.60040603172E+02 -0.44955970316E+02  0.18900342706E+03  0.17300000000E+03 0. -1.
         -6    1    1    2    0  502 -0.12937625122E+02 -0.60040603172E+02  0.49128957902E+03  0.52446802250E+03  0.17300000000E+03 0. -1.
<mgrwt>
<rscale>  2 0.18357902E+03</rscale>
<asrwt>0</asrwt>
<pdfrwt beam="1">  1       21 0.89215772E-01 0.18357902E+03</pdfrwt>
<pdfrwt beam="2">  1       21 0.20549065E-01 0.18357902E+03</pdfrwt>
<totfact> 0.23649495E+04</totfact>
</mgrwt>
</event>
<event>
 4    1  0.4495571E+000  0.1739793E+03  0.7546771E-02  0.1173760E+00
         21   -1    0    0  501  502  0.00000000000E+00  0.00000000000E+00  0.10952219722E+03  0.10952219722E+03  0.00000000000E+00 0. -1.
         21   -1    0    0  502  503 -0.00000000000E+00 -0.00000000000E+00 -0.27670303310E+03  0.27670303310E+03  0.00000000000E+00 0. -1.
          6    1    1    2  501    0  0.15536514504E+02 -0.99203708038E+01 -0.76904391167E+02  0.19021851230E+03  0.17300000000E+03 0. -1.
         -6    1    1    2    0  503 -0.15536514504E+02  0.99203708038E+01 -0.90276444712E+02  0.19600671802E+03  0.17300000000E+03 0. -1.
<mgrwt>
<rscale>  2 0.17397930E+03</rscale>
<asrwt>0</asrwt>
<pdfrwt beam="1">  1       21 0.16849569E-01 0.17397930E+03</pdfrwt>
<pdfrwt beam="2">  1       21 0.42569696E-01 0.17397930E+03</pdfrwt>
<totfact> 0.16932082E+05</totfact>
</mgrwt>
</event>
<event>
 4    1  0.4495571E+000  0.1929283E+03  0.7546771E-02  0.1155846E+00
         21   -1    0    0  501  502  0.00000000000E+00  0.00000000000E+00  0.45159344968E+03  0.45159344968E+03  0.00000000000E+00 0. -1.
         21   -1    0    0  502  503 -0.00000000000E+00 -0.00000000000E+00 -0.18206679157E+03  0.18206679157E+03  0.00000000000E+00 0. -1.
          6    1    1    2  501    0  0.22954071616E+02 -0.82252257726E+02  0.36915273055E+03  0.41652738419E+03  0.17300000000E+03 0. -1.
         -6    1    1    2    0  503 -0.22954071616E+02  0.82252257726E+02 -0.99626072449E+02  0.21713285706E+03  0.17300000000E+03 0. -1.
<mgrwt>
<rscale>  2 0.19292829E+03</rscale>
<asrwt>0</asrwt>
<pdfrwt beam="1">  1       21 0.69475915E-01 0.19292829E+03</pdfrwt>
<pdfrwt beam="2">  1       21 0.28010276E-01 0.19292829E+03</pdfrwt>
<totfact> 0.22933551E+04</totfact>
</mgrwt>
</event>
<event>
 4    1  0.4495571E+000  0.1971925E+03  0.7546771E-02  0.1152130E+00
         21   -1    0    0  503  502  0.00000000000E+00  0.00000000000E+00  0.83143278698E+03  0.83143278698E+03  0.00000000000E+00 0. -1.
         21   -1    0    0  501  503 -0.00000000000E+00 -0.00000000000E+00 -0.47814573705E+02  0.47814573705E+02  0.00000000000E+00 0. -1.
          6    1    1    2  501    0  0.11469811129E+02 -0.93937894357E+02  0.32678460736E+03  0.38167140864E+03  0.17300000000E+03 0. -1.
         -6    1    1    2    0  502 -0.11469811129E+02  0.93937894357E+02  0.45683360592E+03  0.49757595205E+03  0.17300000000E+03 0. -1.
<mgrwt>
<rscale>  2 0.19719251E+03</rscale>
<asrwt>0</asrwt>
<pdfrwt beam="1">  1       21 0.12791273E+00 0.19719251E+03</pdfrwt>
<pdfrwt beam="2">  1       21 0.73560889E-02 0.19719251E+03</pdfrwt>
<totfact> 0.62359498E+04</totfact>
</mgrwt>
</event>
<event>
 4    1  0.4495571E+000  0.1897628E+03  0.7546771E-02  0.1158675E+00
         21   -1    0    0  503  502  0.00000000000E+00  0.00000000000E+00  0.67180433907E+02  0.67180433907E+02  0.00000000000E+00 0. -1.
         21   -1    0    0  501  503 -0.00000000000E+00 -0.00000000000E+00 -0.55053819560E+03  0.55053819560E+03  0.00000000000E+00 0.  1.
          6    1    1    2  501    0  0.77370534093E+02  0.97324937994E+01 -0.29183840369E+03  0.34810856762E+03  0.17300000000E+03 0.  1.
         -6    1    1    2    0  502 -0.77370534093E+02 -0.97324937994E+01 -0.19151935800E+03  0.26961006189E+03  0.17300000000E+03 0. -1.
<mgrwt>
<rscale>  2 0.18976280E+03</rscale>
<asrwt>0</asrwt>
<pdfrwt beam="1">  1       21 0.10335452E-01 0.18976280E+03</pdfrwt>
<pdfrwt beam="2">  1       21 0.84698181E-01 0.18976280E+03</pdfrwt>
<totfact> 0.92580548E+04</totfact>
</mgrwt>
</event>
<event>
 4    1  0.4495571E+000  0.1883107E+03  0.7546771E-02  0.1159994E+00
         21   -1    0    0  501  502  0.00000000000E+00  0.00000000000E+00  0.60471062106E+02  0.60471062106E+02  0.00000000000E+00 0. -1.
         21   -1    0    0  502  503 -0.00000000000E+00 -0.00000000000E+00 -0.71276413063E+03  0.71276413063E+03  0.00000000000E+00 0. -1.
          6    1    1    2  501    0  0.59627735744E+02 -0.44457346097E+02 -0.16336656992E+03  0.24929813208E+03  0.17300000000E+03 0. -1.
         -6    1    1    2    0  503 -0.59627735744E+02  0.44457346097E+02 -0.48892649860E+03  0.52393706065E+03  0.17300000000E+03 0. -1.
<mgrwt>
<rscale>  2 0.18831071E+03</rscale>
<asrwt>0</asrwt>
<pdfrwt beam="1">  1       21 0.93032407E-02 0.18831071E+03</pdfrwt>
<pdfrwt beam="2">  1       21 0.10965602E+00 0.18831071E+03</pdfrwt>
<totfact> 0.60774874E+04</totfact>
</mgrwt>
</event>
<event>
 4    1  0.4495571E+000  0.2244111E+03  0.7546771E-02  0.1130637E+00
         21   -1    0    0  503  502  0.00000000000E+00  0.00000000000E+00  0.30164754531E+04  0.30164754531E+04  0.00000000000E+00 0. -1.
         21   -1    0    0  501  503 -0.00000000000E+00 -0.00000000000E+00 -0.22505536285E+02  0.22505536285E+02  0.00000000000E+00 0. -1.
          6    1    1    2  501    0 -0.72393449033E+02  0.12324979731E+03  0.72491240488E+03  0.75885329198E+03  0.17300000000E+03 0. -1.
         -6    1    1    2    0  502  0.72393449033E+02 -0.12324979731E+03  0.22690575119E+04  0.22801276974E+04  0.17300000000E+03 0. -1.
<mgrwt>
<rscale>  2 0.22441106E+03</rscale>
<asrwt>0</asrwt>
<pdfrwt beam="1">  1       21 0.46407283E+00 0.22441106E+03</pdfrwt>
<pdfrwt beam="2">  1       21 0.34623926E-02 0.22441106E+03</pdfrwt>
<totfact> 0.15961875E+03</totfact>
</mgrwt>
</event>
<event>
 4    1  0.4495571E+000  0.1898854E+03  0.7546771E-02  0.1158565E+00
         21   -1    0    0  503  502  0.00000000000E+00  0.00000000000E+00  0.72503480794E+03  0.72503480794E+03  0.00000000000E+00 0. -1.
         21   -1    0    0  501  503 -0.00000000000E+00 -0.00000000000E+00 -0.78861575264E+02  0.78861575264E+02  0.00000000000E+00 0. -1.
          6    1    1    2  501    0 -0.69952559620E+02 -0.35130082628E+02  0.56738138980E+03  0.59831273160E+03  0.17300000000E+03 0. -1.
         -6    1    1    2    0  502  0.69952559620E+02  0.35130082628E+02  0.78791842876E+02  0.20558365160E+03  0.17300000000E+03 0. -1.
<mgrwt>
<rscale>  2 0.18988545E+03</rscale>
<asrwt>0</asrwt>
<pdfrwt beam="1">  1       21 0.11154381E+00 0.18988545E+03</pdfrwt>
<pdfrwt beam="2">  1       21 0.12132551E-01 0.18988545E+03</pdfrwt>
<totfact> 0.36387262E+04</totfact>
</mgrwt>
</event>
<event>
 4    1  0.4495571E+000  0.1849407E+03  0.7546771E-02  0.1163105E+00
         21   -1    0    0  503  502  0.00000000000E+00  0.00000000000E+00  0.25912622469E+03  0.25912622469E+03  0.00000000000E+00 0.  1.
         21   -1    0    0  501  503 -0.00000000000E+00 -0.00000000000E+00 -0.18422096254E+03  0.18422096254E+03  0.00000000000E+00 0.  1.
          6    1    1    2  501    0  0.48980008788E+02  0.43301359625E+02 -0.80577462504E+02  0.20173194212E+03  0.17300000000E+03 0.  1.
         -6    1    1    2    0  502 -0.48980008788E+02 -0.43301359625E+02  0.15548272466E+03  0.24161524512E+03  0.17300000000E+03 0.  1.
<mgrwt>
<rscale>  2 0.18494066E+03</rscale>
<asrwt>0</asrwt>
<pdfrwt beam="1">  1       21 0.39865573E-01 0.18494066E+03</pdfrwt>
<pdfrwt beam="2">  1       21 0.28341687E-01 0.18494066E+03</pdfrwt>
<totfact> 0.72406917E+04</totfact>
</mgrwt>
</event>
<event>
 4    1  0.4495571E+000  0.1934786E+03  0.7546771E-02  0.1155361E+00
         21   -1    0    0  501  502  0.00000000000E+00  0.00000000000E+00  0.29889676715E+02  0.29889676715E+02  0.00000000000E+00 0. -1.
         21   -1    0    0  502  503 -0.00000000000E+00 -0.00000000000E+00 -0.12601056501E+04  0.12601056501E+04  0.00000000000E+00 0. -1.
          6    1    1    2  501    0 -0.59476396177E+02 -0.62988251269E+02 -0.56468409691E+03  0.59691045460E+03  0.17300000000E+03 0. -1.
         -6    1    1    2    0  503  0.59476396177E+02  0.62988251269E+02 -0.66553187650E+03  0.69308487225E+03  0.17300000000E+03 0. -1.
<mgrwt>
<rscale>  2 0.19347858E+03</rscale>
<asrwt>0</asrwt>
<pdfrwt beam="1">  1       21 0.45984115E-02 0.19347858E+03</pdfrwt>
<pdfrwt beam="2">  1       21 0.19386242E+00 0.19347858E+03</pdfrwt>
<totfact> 0.45576725E+04</totfact>
</mgrwt>
</event>
<event>
 4    1  0.4495571E+000  0.1855927E+03  0.7546771E-02  0.1162498E+00
         21   -1    0    0  501  502  0.00000000000E+00  0.00000000000E+00  0.38089325793E+03  0.38089325793E+03  0.00000000000E+00 0. -1.
         21   -1    0    0  502  503 -0.00000000000E+00 -0.00000000000E+00 -0.14231991992E+03  0.14231991992E+03  0.00000000000E+00 0. -1.
          6    1    1    2  501    0 -0.67102578316E+02  0.35917205781E+01  0.27724846703E+03  0.33363358486E+03  0.17300000000E+03 0. -1.
         -6    1    1    2    0  503  0.67102578316E+02 -0.35917205781E+01 -0.38675129019E+02  0.18957959299E+03  0.17300000000E+03 0. -1.
<mgrwt>
<rscale>  2 0.18559272E+03</rscale>
<asrwt>0</asrwt>
<pdfrwt beam="1">  1       21 0.58598962E-01 0.18559272E+03</pdfrwt>
<pdfrwt beam="2">  1       21 0.21895372E-01 0.18559272E+03</pdfrwt>
<totfact> 0.53264637E+04</totfact>
</mgrwt>
</event>
<event>
 4    1  0.4495571E+000  0.2473680E+03  0.7546771E-02  0.1114980E+00
         21   -1    0    0  503  502  0.00000000000E+00  0.00000000000E+00  0.51759703096E+03  0.51759703096E+03  0.00000000000E+00 0.  1.
         21   -1    0    0  501  503 -0.00000000000E+00 -0.00000000000E+00 -0.20361965264E+03  0.20361965264E+03  0.00000000000E+00 0.  1.
          6    1    1    2  501    0 -0.29299353385E+02 -0.17436587984E+03 -0.76545823130E+02  0.25894048582E+03  0.17300000000E+03 0.  1.
         -6    1    1    2    0  502  0.29299353385E+02  0.17436587984E+03  0.39052320145E+03  0.46227619778E+03  0.17300000000E+03 0.  1.
<mgrwt>
<rscale>  2 0.24736797E+03</rscale>
<asrwt>0</asrwt>
<pdfrwt beam="1">  1       21 0.79630312E-01 0.24736797E+03</pdfrwt>
<pdfrwt beam="2">  1       21 0.31326101E-01 0.24736797E+03</pdfrwt>
<totfact> 0.13169706E+04</totfact>
</mgrwt>
</event>
<event>
 4    1  0.4495571E+000  0.2005583E+03  0.7546771E-02  0.1149269E+00
         21   -1    0    0  501  502  0.00000000000E+00  0.00000000000E+00  0.14787831364E+03  0.14787831364E+03  0.00000000000E+00 0.  1.
         21   -1    0    0  502  503 -0.00000000000E+00 -0.00000000000E+00 -0.27291730358E+03  0.27291730358E+03  0.00000000000E+00 0.  1.
          6    1    1    2  501    0 -0.75884625471E+02  0.67350888098E+02 -0.50353963631E+02  0.20678283334E+03  0.17300000000E+03 0.  1.
         -6    1    1    2    0  503  0.75884625471E+02 -0.67350888098E+02 -0.74685026314E+02  0.21401278388E+03  0.17300000000E+03 0.  1.
<mgrwt>
<rscale>  2 0.20055827E+03</rscale>
<asrwt>0</asrwt>
<pdfrwt beam="1">  1       21 0.22750510E-01 0.20055827E+03</pdfrwt>
<pdfrwt beam="2">  1       21 0.41987277E-01 0.20055827E+03</pdfrwt>
<totfact> 0.98603525E+04</totfact>
</mgrwt>
</event>
<event>
 4    1  0.4495571E+000  0.2473763E+03  0.7546771E-02  0.1114974E+00
         21   -1    0    0  501  502  0.00000000000E+00  0.00000000000E+00  0.10459297293E+04  0.10459297293E+04  0.00000000000E+00 0. -1.
         21   -1    0    0  502  503 -0.00000000000E+00 -0.00000000000E+00 -0.10909133441E+03  0.10909133441E+03  0.00000000000E+00 0.  1.
          6    1    1    2  501    0 -0.17458740770E+03  0.28022330979E+02  0.86166989769E+03  0.89647645064E+03  0.17300000000E+03 0. -1.
         -6    1    1    2    0  503  0.17458740770E+03 -0.28022330979E+02  0.75168497160E+02  0.25854461303E+03  0.17300000000E+03 0.  1.
<mgrwt>
<rscale>  2 0.24737626E+03</rscale>
<asrwt>0</asrwt>
<pdfrwt beam="1">  1       21 0.16091226E+00 0.24737626E+03</pdfrwt>
<pdfrwt beam="2">  1       21 0.16783283E-01 0.24737626E+03</pdfrwt>
<totfact> 0.76069088E+03</totfact>
</mgrwt>
</event>
<event>
 4    1  0.4495571E+000  0.2217515E+03  0.7546771E-02  0.1132584E+00
         21   -1    0    0  503  502  0.00000000000E+00  0.00000000000E+00  0.13621479926E+03  0.13621479926E+03  0.00000000000E+00 0.  1.
         21   -1    0    0  501  503 -0.00000000000E+00 -0.00000000000E+00 -0.47356686182E+03  0.47356686182E+03  0.00000000000E+00 0.  1.
          6    1    1    2  501    0  0.10470970626E+03 -0.90997745535E+02 -0.31732318115E+03  0.38712751590E+03  0.17300000000E+03 0.  1.
         -6    1    1    2    0  502 -0.10470970626E+03  0.90997745535E+02 -0.20028881414E+02  0.22265414519E+03  0.17300000000E+03 0.  1.
<mgrwt>
<rscale>  2 0.22175147E+03</rscale>
<asrwt>0</asrwt>
<pdfrwt beam="1">  1       21 0.20956123E-01 0.22175147E+03</pdfrwt>
<pdfrwt beam="2">  1       21 0.72856440E-01 0.22175147E+03</pdfrwt>
<totfact> 0.35332776E+04</totfact>
</mgrwt>
</event>
<event>
 4    1  0.4495571E+000  0.2584056E+03  0.7546771E-02  0.1108105E+00
         21   -1    0    0  501  502  0.00000000000E+00  0.00000000000E+00  0.21858301833E+03  0.21858301833E+03  0.00000000000E+00 0. -1.
         21   -1    0    0  502  503 -0.00000000000E+00 -0.00000000000E+00 -0.42868955595E+03  0.42868955595E+03  0.00000000000E+00 0.  1.
          6    1    1    2  501    0  0.44309223839E+02 -0.18676490553E+03  0.68447872654E+02  0.26731731804E+03  0.17300000000E+03 0.  1.
         -6    1    1    2    0  503 -0.44309223839E+02  0.18676490553E+03 -0.27855441027E+03  0.37995525623E+03  0.17300000000E+03 0. -1.
<mgrwt>
<rscale>  2 0.25840557E+03</rscale>
<asrwt>0</asrwt>
<pdfrwt beam="1">  1       21 0.33628157E-01 0.25840557E+03</pdfrwt>
<pdfrwt beam="2">  1       21 0.65952238E-01 0.25840557E+03</pdfrwt>
<totfact> 0.17342849E+04</totfact>
</mgrwt>
</event>
<event>
 4    1  0.4495571E+000  0.2403353E+03  0.7546771E-02  0.1119570E+00
         21   -1    0    0  503  502  0.00000000000E+00  0.00000000000E+00  0.56417423442E+02  0.56417423442E+02  0.00000000000E+00 0. -1.
         21   -1    0    0  501  503 -0.00000000000E+00 -0.00000000000E+00 -0.13929690451E+04  0.13929690451E+04  0.00000000000E+00 0.  1.
          6    1    1    2  501    0 -0.13840027099E+03  0.93152649174E+02 -0.10413427837E+04  0.10687169149E+04  0.17300000000E+03 0. -1.
         -6    1    1    2    0  502  0.13840027099E+03 -0.93152649174E+02 -0.29520883800E+03  0.38066955367E+03  0.17300000000E+03 0.  1.
<mgrwt>
<rscale>  2 0.24033529E+03</rscale>
<asrwt>0</asrwt>
<pdfrwt beam="1">  1       21 0.86796030E-02 0.24033529E+03</pdfrwt>
<pdfrwt beam="2">  1       21 0.21430295E+00 0.24033529E+03</pdfrwt>
<totfact> 0.10933982E+04</totfact>
</mgrwt>
</event>
<event>
 4    1  0.4495571E+000  0.2501628E+03  0.7546771E-02  0.1113202E+00
         21   -1    0    0  503  502  0.00000000000E+00  0.00000000000E+00  0.12008363944E+03  0.12008363944E+03  0.00000000000E+00 0. -1.
         21   -1    0    0  501  503 -0.00000000000E+00 -0.00000000000E+00 -0.52117608407E+03  0.52117608407E+03  0.00000000000E+00 0. -1.
          6    1    1    2  501    0 -0.17968903987E+03 -0.19086410809E+02 -0.20286697984E+03  0.32208143945E+03  0.17300000000E+03 0. -1.
         -6    1    1    2    0  502  0.17968903987E+03  0.19086410809E+02 -0.19822546479E+03  0.31917828407E+03  0.17300000000E+03 0. -1.
<mgrwt>
<rscale>  2 0.25016283E+03</rscale>
<asrwt>0</asrwt>
<pdfrwt beam="1">  1       21 0.18474406E-01 0.25016283E+03</pdfrwt>
<pdfrwt beam="2">  1       21 0.80180938E-01 0.25016283E+03</pdfrwt>
<totfact> 0.35591967E+04</totfact>
</mgrwt>
</event>
<event>
 4    1  0.4495571E+000  0.2436687E+03  0.7546771E-02  0.1117373E+00
         21   -1    0    0  501  502  0.00000000000E+00  0.00000000000E+00  0.70075475325E+02  0.70075475325E+02  0.00000000000E+00 0.  1.
         21   -1    0    0  502  503 -0.00000000000E+00 -0.00000000000E+00 -0.16606758128E+04  0.16606758128E+04  0.00000000000E+00 0.  1.
          6    1    1    2  501    0  0.11755916150E+03  0.12500105423E+03 -0.18966667590E+03  0.30878450084E+03  0.17300000000E+03 0.  1.
         -6    1    1    2    0  503 -0.11755916150E+03 -0.12500105423E+03 -0.14009336615E+04  0.14219667873E+04  0.17300000000E+03 0.  1.
<mgrwt>
<rscale>  2 0.24366867E+03</rscale>
<asrwt>0</asrwt>
<pdfrwt beam="1">  1       21 0.10780843E-01 0.24366867E+03</pdfrwt>
<pdfrwt beam="2">  1       21 0.25548857E+00 0.24366867E+03</pdfrwt>
<totfact> 0.41746025E+03</totfact>
</mgrwt>
</event>
<event>
 4    1  0.4495571E+000  0.2260490E+03  0.7546771E-02  0.1129452E+00
         21   -1    0    0  501  502  0.00000000000E+00  0.00000000000E+00  0.28148049452E+03  0.28148049452E+03  0.00000000000E+00 0.  1.
         21   -1    0    0  502  503 -0.00000000000E+00 -0.00000000000E+00 -0.28219154058E+03  0.28219154058E+03  0.00000000000E+00 0. -1.
          6    1    1    2  501    0  0.14489786984E+03  0.13182319643E+02  0.16796944019E+03  0.28162368344E+03  0.17300000000E+03 0.  1.
         -6    1    1    2    0  503 -0.14489786984E+03 -0.13182319643E+02 -0.16868048625E+03  0.28204835167E+03  0.17300000000E+03 0. -1.
<mgrwt>
<rscale>  2 0.22604904E+03</rscale>
<asrwt>0</asrwt>
<pdfrwt beam="1">  1       21 0.43304691E-01 0.22604904E+03</pdfrwt>
<pdfrwt beam="2">  1       21 0.43414083E-01 0.22604904E+03</pdfrwt>
<totfact> 0.25673103E+04</totfact>
</mgrwt>
</event>
<event>
 4    1  0.4495571E+000  0.2287978E+03  0.7546771E-02  0.1127489E+00
         21   -1    0    0  503  502  0.00000000000E+00  0.00000000000E+00  0.58896144082E+02  0.58896144082E+02  0.00000000000E+00 0. -1.
         21   -1    0    0  501  503 -0.00000000000E+00 -0.00000000000E+00 -0.11355052989E+04  0.11355052989E+04  0.00000000000E+00 0. -1.
          6    1    1    2  501    0 -0.14905758279E+03 -0.14186906847E+02 -0.81665506529E+03  0.84810018688E+03  0.17300000000E+03 0. -1.
         -6    1    1    2    0  502  0.14905758279E+03  0.14186906847E+02 -0.25995408949E+03  0.34630125607E+03  0.17300000000E+03 0. -1.
<mgrwt>
<rscale>  2 0.22879780E+03</rscale>
<asrwt>0</asrwt>
<pdfrwt beam="1">  1       21 0.90609459E-02 0.22879780E+03</pdfrwt>
<pdfrwt beam="2">  1       21 0.17469311E+00 0.22879780E+03</pdfrwt>
<totfact> 0.18635437E+04</totfact>
</mgrwt>
</event>
<event>
 4    1  0.4495571E+000  0.1731297E+03  0.7546771E-02  0.1174623E+00
         21   -1    0    0  501  502  0.00000000000E+00  0.00000000000E+00  0.20771398630E+03  0.20771398630E+03  0.00000000000E+00 0.  1.
         21   -1    0    0  502  503 -0.00000000000E+00 -0.00000000000E+00 -0.18684924485E+03  0.18684924485E+03  0.00000000000E+00 0.  1.
          6    1    1    2  501    0 -0.33205484410E+00 -0.66928812207E+01  0.10457098188E+03  0.20225972207E+03  0.17300000000E+03 0.  1.
         -6    1    1    2    0  503  0.33205484410E+00  0.66928812207E+01 -0.83706240425E+02  0.19230350908E+03  0.17300000000E+03 0.  1.
<mgrwt>
<rscale>  2 0.17312973E+03</rscale>
<asrwt>0</asrwt>
<pdfrwt beam="1">  1       21 0.31955998E-01 0.17312973E+03</pdfrwt>
<pdfrwt beam="2">  1       21 0.28746037E-01 0.17312973E+03</pdfrwt>
<totfact> 0.10982932E+05</totfact>
</mgrwt>
</event>
<event>
 4    1  0.4495571E+000  0.2094297E+03  0.7546771E-02  0.1142018E+00
         21   -1    0    0  501  502  0.00000000000E+00  0.00000000000E+00  0.21920100393E+03  0.21920100393E+03  0.00000000000E+00 0. -1.
         21   -1    0    0  502  503 -0.00000000000E+00 -0.00000000000E+00 -0.24571756095E+03  0.24571756095E+03  0.00000000000E+00 0. -1.
          6    1    1    2  501    0 -0.11334812136E+03 -0.32924400403E+02  0.86908390307E+02  0.22674629228E+03  0.17300000000E+03 0. -1.
         -6    1    1    2    0  503  0.11334812136E+03  0.32924400403E+02 -0.11342494733E+03  0.23817227260E+03  0.17300000000E+03 0. -1.
<mgrwt>
<rscale>  2 0.20942973E+03</rscale>
<asrwt>0</asrwt>
<pdfrwt beam="1">  1       21 0.33723231E-01 0.20942973E+03</pdfrwt>
<pdfrwt beam="2">  1       21 0.37802702E-01 0.20942973E+03</pdfrwt>
<totfact> 0.56716799E+04</totfact>
</mgrwt>
</event>
<event>
 4    1  0.4495571E+000  0.5144816E+03  0.7546771E-02  0.1010067E+00
         21   -1    0    0  501  502  0.00000000000E+00  0.00000000000E+00  0.53355098242E+03  0.53355098242E+03  0.00000000000E+00 0. -1.
         21   -1    0    0  502  503 -0.00000000000E+00 -0.00000000000E+00 -0.11373677638E+04  0.11373677638E+04  0.00000000000E+00 0.  1.
          6    1    1    2  501    0  0.47504190567E+03 -0.95380952814E+02  0.32542250901E+03  0.60876197949E+03  0.17300000000E+03 0. -1.
         -6    1    1    2    0  503 -0.47504190567E+03  0.95380952814E+02 -0.92923929041E+03  0.10621567667E+04  0.17300000000E+03 0.  1.
<mgrwt>
<rscale>  2 0.51448162E+03</rscale>
<asrwt>0</asrwt>
<pdfrwt beam="1">  1       21 0.82084767E-01 0.51448162E+03</pdfrwt>
<pdfrwt beam="2">  1       21 0.17497966E+00 0.51448162E+03</pdfrwt>
<totfact> 0.20153797E+02</totfact>
</mgrwt>
</event>
<event>
 4    1  0.4495571E+000  0.1872421E+03  0.7546771E-02  0.1160973E+00
         21   -1    0    0  503  502  0.00000000000E+00  0.00000000000E+00  0.15208556281E+03  0.15208556281E+03  0.00000000000E+00 0.  1.
         21   -1    0    0  501  503 -0.00000000000E+00 -0.00000000000E+00 -0.26292782893E+03  0.26292782893E+03  0.00000000000E+00 0.  1.
          6    1    1    2  501    0  0.70905799583E+02 -0.10147278478E+02 -0.12826650802E+03  0.22696232453E+03  0.17300000000E+03 0.  1.
         -6    1    1    2    0  502 -0.70905799583E+02  0.10147278478E+02  0.17424241900E+02  0.18805106722E+03  0.17300000000E+03 0.  1.
<mgrwt>
<rscale>  2 0.18724209E+03</rscale>
<asrwt>0</asrwt>
<pdfrwt beam="1">  1       21 0.23397779E-01 0.18724209E+03</pdfrwt>
<pdfrwt beam="2">  1       21 0.40450435E-01 0.18724209E+03</pdfrwt>
<totfact> 0.10137859E+05</totfact>
</mgrwt>
</event>
<event>
 4    1  0.4495571E+000  0.2053469E+03  0.7546771E-02  0.1145305E+00
         21   -1    0    0  501  502  0.00000000000E+00  0.00000000000E+00  0.49573469404E+03  0.49573469404E+03  0.00000000000E+00 0. -1.
         21   -1    0    0  502  503 -0.00000000000E+00 -0.00000000000E+00 -0.39289811333E+03  0.39289811333E+03  0.00000000000E+00 0.  1.
          6    1    1    2  501    0  0.23177778165E+02 -0.10817178926E+03  0.44470869714E+03  0.48982973644E+03  0.17300000000E+03 0. -1.
         -6    1    1    2    0  503 -0.23177778165E+02  0.10817178926E+03 -0.34187211643E+03  0.39880307093E+03  0.17300000000E+03 0.  1.
<mgrwt>
<rscale>  2 0.20534689E+03</rscale>
<asrwt>0</asrwt>
<pdfrwt beam="1">  1       21 0.76266876E-01 0.20534689E+03</pdfrwt>
<pdfrwt beam="2">  1       21 0.60445864E-01 0.20534689E+03</pdfrwt>
<totfact> 0.38658260E+03</totfact>
</mgrwt>
</event>
<event>
 4    1  0.4495571E+000  0.1794534E+03  0.7546771E-02  0.1168333E+00
         21   -1    0    0  501  502  0.00000000000E+00  0.00000000000E+00  0.11384075847E+03  0.11384075847E+03  0.00000000000E+00 0. -1.
         21   -1    0    0  502  503 -0.00000000000E+00 -0.00000000000E+00 -0.46382554922E+03  0.46382554922E+03  0.00000000000E+00 0. -1.
          6    1    1    2  501    0 -0.37734426130E+02  0.29165830169E+02  0.54094322203E+01  0.17953493956E+03  0.17300000000E+03 0. -1.
         -6    1    1    2    0  503  0.37734426130E+02 -0.29165830169E+02 -0.35539422297E+03  0.39813136813E+03  0.17300000000E+03 0. -1.
<mgrwt>
<rscale>  2 0.17945343E+03</rscale>
<asrwt>0</asrwt>
<pdfrwt beam="1">  1       21 0.17513963E-01 0.17945343E+03</pdfrwt>
<pdfrwt beam="2">  1       21 0.71357777E-01 0.17945343E+03</pdfrwt>
<totfact> 0.52774030E+04</totfact>
</mgrwt>
</event>
<event>
 4    1  0.4495571E+000  0.2221404E+03  0.7546771E-02  0.1132297E+00
         21   -1    0    0  503  502  0.00000000000E+00  0.00000000000E+00  0.21183849085E+03  0.21183849085E+03  0.00000000000E+00 0.  1.
         21   -1    0    0  501  503 -0.00000000000E+00 -0.00000000000E+00 -0.23875724823E+03  0.23875724823E+03  0.00000000000E+00 0. -1.
          6    1    1    2  501    0  0.13928087512E+03 -0.42655607816E+01 -0.48616586187E+02  0.22739817422E+03  0.17300000000E+03 0.  1.
         -6    1    1    2    0  502 -0.13928087512E+03  0.42655607816E+01  0.21697828806E+02  0.22319756486E+03  0.17300000000E+03 0. -1.
<mgrwt>
<rscale>  2 0.22214040E+03</rscale>
<asrwt>0</asrwt>
<pdfrwt beam="1">  1       21 0.32590537E-01 0.22214040E+03</pdfrwt>
<pdfrwt beam="2">  1       21 0.36731884E-01 0.22214040E+03</pdfrwt>
<totfact> 0.63926637E+04</totfact>
</mgrwt>
</event>
<event>
 4    1  0.4495571E+000  0.1741265E+03  0.7546771E-02  0.1173612E+00
         21   -1    0    0  501  502  0.00000000000E+00  0.00000000000E+00  0.14523999976E+03  0.14523999976E+03  0.00000000000E+00 0.  1.
         21   -1    0    0  502  503 -0.00000000000E+00 -0.00000000000E+00 -0.23103917291E+03  0.23103917291E+03  0.00000000000E+00 0.  1.
          6    1    1    2  501    0 -0.14746006906E+02 -0.13176098402E+02  0.15526063361E+02  0.17481737022E+03  0.17300000000E+03 0.  1.
         -6    1    1    2    0  503  0.14746006906E+02  0.13176098402E+02 -0.10132523652E+03  0.20146180244E+03  0.17300000000E+03 0.  1.
<mgrwt>
<rscale>  2 0.17412655E+03</rscale>
<asrwt>0</asrwt>
<pdfrwt beam="1">  1       21 0.22344615E-01 0.17412655E+03</pdfrwt>
<pdfrwt beam="2">  1       21 0.35544488E-01 0.17412655E+03</pdfrwt>
<totfact> 0.14393798E+05</totfact>
</mgrwt>
</event>
<event>
 4    1  0.4495571E+000  0.2051533E+03  0.7546771E-02  0.1145463E+00
         21   -1    0    0  501  502  0.00000000000E+00  0.00000000000E+00  0.19940336182E+04  0.19940336182E+04  0.00000000000E+00 0.  1.
         21   -1    0    0  502  503 -0.00000000000E+00 -0.00000000000E+00 -0.27350012065E+02  0.27350012065E+02  0.00000000000E+00 0.  1.
          6    1    1    2  501    0  0.50387361288E+02  0.98081461132E+02  0.50046014478E+03  0.54087726492E+03  0.17300000000E+03 0.  1.
         -6    1    1    2    0  503 -0.50387361288E+02 -0.98081461132E+02  0.14662234614E+04  0.14805063654E+04  0.17300000000E+03 0.  1.
<mgrwt>
<rscale>  2 0.20515326E+03</rscale>
<asrwt>0</asrwt>
<pdfrwt beam="1">  1       21 0.30677429E+00 0.20515326E+03</pdfrwt>
<pdfrwt beam="2">  1       21 0.42076957E-02 0.20515326E+03</pdfrwt>
<totfact> 0.11084023E+04</totfact>
</mgrwt>
</event>
<event>
 4    1  0.4495571E+000  0.1908360E+03  0.7546771E-02  0.1157709E+00
         21   -1    0    0  501  502  0.00000000000E+00  0.00000000000E+00  0.31648735878E+03  0.31648735878E+03  0.00000000000E+00 0. -1.
         21   -1    0    0  502  503 -0.00000000000E+00 -0.00000000000E+00 -0.25266598129E+03  0.25266598129E+03  0.00000000000E+00 0. -1.
          6    1    1    2  501    0 -0.55881054256E+02  0.58023231998E+02  0.24191482451E+03  0.30812525050E+03  0.17300000000E+03 0. -1.
         -6    1    1    2    0  503  0.55881054256E+02 -0.58023231998E+02 -0.17809344701E+03  0.26102808957E+03  0.17300000000E+03 0. -1.
<mgrwt>
<rscale>  2 0.19083602E+03</rscale>
<asrwt>0</asrwt>
<pdfrwt beam="1">  1       21 0.48690363E-01 0.19083602E+03</pdfrwt>
<pdfrwt beam="2">  1       21 0.38871689E-01 0.19083602E+03</pdfrwt>
<totfact> 0.25722833E+04</totfact>
</mgrwt>
</event>
<event>
 4    1  0.4495571E+000  0.1933637E+03  0.7546771E-02  0.1155462E+00
         21   -1    0    0  503  502  0.00000000000E+00  0.00000000000E+00  0.13948596077E+04  0.13948596077E+04  0.00000000000E+00 0. -1.
         21   -1    0    0  501  503 -0.00000000000E+00 -0.00000000000E+00 -0.35269366496E+02  0.35269366496E+02  0.00000000000E+00 0. -1.
          6    1    1    2  501    0 -0.71415444233E+01 -0.86078460604E+02  0.32949664026E+03  0.38204389666E+03  0.17300000000E+03 0. -1.
         -6    1    1    2    0  502  0.71415444233E+01  0.86078460604E+02  0.10300936010E+04  0.10480850776E+04  0.17300000000E+03 0. -1.
<mgrwt>
<rscale>  2 0.19336365E+03</rscale>
<asrwt>0</asrwt>
<pdfrwt beam="1">  1       21 0.21459374E+00 0.19336365E+03</pdfrwt>
<pdfrwt beam="2">  1       21 0.54260575E-02 0.19336365E+03</pdfrwt>
<totfact> 0.25417101E+04</totfact>
</mgrwt>
</event>
<event>
 4    1  0.4495571E+000  0.1959672E+03  0.7546771E-02  0.1153187E+00
         21   -1    0    0  503  502  0.00000000000E+00  0.00000000000E+00  0.73735109417E+03  0.73735109417E+03  0.00000000000E+00 0. -1.
         21   -1    0    0  501  503 -0.00000000000E+00 -0.00000000000E+00 -0.10031234514E+03  0.10031234514E+03  0.00000000000E+00 0. -1.
          6    1    1    2  501    0  0.14620913393E+02 -0.90886584007E+02  0.28103750108E+02  0.19797212690E+03  0.17300000000E+03 0. -1.
         -6    1    1    2    0  502 -0.14620913393E+02  0.90886584007E+02  0.60893499892E+03  0.63969131241E+03  0.17300000000E+03 0. -1.
<mgrwt>
<rscale>  2 0.19596720E+03</rscale>
<asrwt>0</asrwt>
<pdfrwt beam="1">  1       21 0.11343863E+00 0.19596720E+03</pdfrwt>
<pdfrwt beam="2">  1       21 0.15432669E-01 0.19596720E+03</pdfrwt>
<totfact> 0.22529511E+04</totfact>
</mgrwt>
</event>
<event>
 4    1  0.4495571E+000  0.2250436E+03  0.7546771E-02  0.1130178E+00
         21   -1    0    0  503  502  0.00000000000E+00  0.00000000000E+00  0.32683893052E+03  0.32683893052E+03  0.00000000000E+00 0. -1.
         21   -1    0    0  501  503 -0.00000000000E+00 -0.00000000000E+00 -0.59249974919E+03  0.59249974919E+03  0.00000000000E+00 0. -1.
          6    1    1    2  501    0  0.14183291892E+03  0.24475648225E+02 -0.52784554892E+03  0.57381665867E+03  0.17300000000E+03 0. -1.
         -6    1    1    2    0  502 -0.14183291892E+03 -0.24475648225E+02  0.26218473026E+03  0.34552202105E+03  0.17300000000E+03 0. -1.
<mgrwt>
<rscale>  2 0.22504363E+03</rscale>
<asrwt>0</asrwt>
<pdfrwt beam="1">  1       21 0.50282913E-01 0.22504363E+03</pdfrwt>
<pdfrwt beam="2">  1       21 0.91153807E-01 0.22504363E+03</pdfrwt>
<totfact> 0.37447449E+03</totfact>
</mgrwt>
</event>
<event>
 4    1  0.4495571E+000  0.2709652E+03  0.7546771E-02  0.1100728E+00
         21   -1    0    0  501  502  0.00000000000E+00  0.00000000000E+00  0.41680737094E+03  0.41680737094E+03  0.00000000000E+00 0. -1.
         21   -1    0    0  502  503 -0.00000000000E+00 -0.00000000000E+00 -0.18003766595E+03  0.18003766595E+03  0.00000000000E+00 0. -1.
          6    1    1    2  501    0  0.16783923597E+03 -0.12378673300E+03  0.16221642980E+03  0.31581059908E+03  0.17300000000E+03 0. -1.
         -6    1    1    2    0  503 -0.16783923597E+03  0.12378673300E+03  0.74553275189E+02  0.28103443781E+03  0.17300000000E+03 0. -1.
<mgrwt>
<rscale>  2 0.27096525E+03</rscale>
<asrwt>0</asrwt>
<pdfrwt beam="1">  1       21 0.64124211E-01 0.27096525E+03</pdfrwt>
<pdfrwt beam="2">  1       21 0.27698103E-01 0.27096525E+03</pdfrwt>
<totfact> 0.26869180E+04</totfact>
</mgrwt>
</event>
<event>
 4    1  0.4495571E+000  0.2384688E+03  0.7546771E-02  0.1120817E+00
         21   -1    0    0  501  502  0.00000000000E+00  0.00000000000E+00  0.11463371781E+03  0.11463371781E+03  0.00000000000E+00 0.  1.
         21   -1    0    0  502  503 -0.00000000000E+00 -0.00000000000E+00 -0.61999084311E+03  0.61999084311E+03  0.00000000000E+00 0. -1.
          6    1    1    2  501    0 -0.64833301579E+02  0.15078129376E+03 -0.88468565079E+02  0.25435023599E+03  0.17300000000E+03 0.  1.
         -6    1    1    2    0  503  0.64833301579E+02 -0.15078129376E+03 -0.41688856022E+03  0.48027432493E+03  0.17300000000E+03 0. -1.
<mgrwt>
<rscale>  2 0.23846877E+03</rscale>
<asrwt>0</asrwt>
<pdfrwt beam="1">  1       21 0.17635957E-01 0.23846877E+03</pdfrwt>
<pdfrwt beam="2">  1       21 0.95383207E-01 0.23846877E+03</pdfrwt>
<totfact> 0.26093088E+04</totfact>
</mgrwt>
</event>
<event>
 4    1  0.4495571E+000  0.2144534E+03  0.7546771E-02  0.1138087E+00
         21   -1    0    0  503  502  0.00000000000E+00  0.00000000000E+00  0.49480543176E+03  0.49480543176E+03  0.00000000000E+00 0.  1.
         21   -1    0    0  501  503 -0.00000000000E+00 -0.00000000000E+00 -0.20802126698E+03  0.20802126698E+03  0.00000000000E+00 0.  1.
          6    1    1    2  501    0  0.79310275868E+02 -0.98849063153E+02 -0.11797753955E+03  0.24476306295E+03  0.17300000000E+03 0.  1.
         -6    1    1    2    0  502 -0.79310275868E+02  0.98849063153E+02  0.40476170433E+03  0.45806363579E+03  0.17300000000E+03 0.  1.
<mgrwt>
<rscale>  2 0.21445339E+03</rscale>
<asrwt>0</asrwt>
<pdfrwt beam="1">  1       21 0.76123912E-01 0.21445339E+03</pdfrwt>
<pdfrwt beam="2">  1       21 0.32003272E-01 0.21445339E+03</pdfrwt>
<totfact> 0.14242875E+04</totfact>
</mgrwt>
</event>
<event>
 4    1  0.4495571E+000  0.2339846E+03  0.7546771E-02  0.1123866E+00
         21   -1    0    0  501  502  0.00000000000E+00  0.00000000000E+00  0.62541502995E+02  0.62541502995E+02  0.00000000000E+00 0. -1.
         21   -1    0    0  502  503 -0.00000000000E+00 -0.00000000000E+00 -0.87540008475E+03  0.87540008475E+03  0.00000000000E+00 0. -1.
          6    1    1    2  501    0  0.13127551629E+02 -0.15699504036E+03 -0.40692719182E+03  0.46940229521E+03  0.17300000000E+03 0. -1.
         -6    1    1    2    0  503 -0.13127551629E+02  0.15699504036E+03 -0.40593138994E+03  0.46853929253E+03  0.17300000000E+03 0. -1.
<mgrwt>
<rscale>  2 0.23398456E+03</rscale>
<asrwt>0</asrwt>
<pdfrwt beam="1">  1       21 0.96217695E-02 0.23398456E+03</pdfrwt>
<pdfrwt beam="2">  1       21 0.13467694E+00 0.23398456E+03</pdfrwt>
<totfact> 0.33543316E+04</totfact>
</mgrwt>
</event>
<event>
 4    1  0.4495571E+000  0.2432352E+03  0.7546771E-02  0.1117656E+00
         21   -1    0    0  501  502  0.00000000000E+00  0.00000000000E+00  0.47197562874E+02  0.47197562874E+02  0.00000000000E+00 0.  1.
         21   -1    0    0  502  503 -0.00000000000E+00 -0.00000000000E+00 -0.15241680695E+04  0.15241680695E+04  0.00000000000E+00 0.  1.
          6    1    1    2  501    0 -0.72351557131E+02 -0.15491814355E+03 -0.40740874824E+03  0.47449474935E+03  0.17300000000E+03 0.  1.
         -6    1    1    2    0  503  0.72351557131E+02  0.15491814355E+03 -0.10695617584E+04  0.10968708830E+04  0.17300000000E+03 0.  1.
<mgrwt>
<rscale>  2 0.24323523E+03</rscale>
<asrwt>0</asrwt>
<pdfrwt beam="1">  1       21 0.72611636E-02 0.24323523E+03</pdfrwt>
<pdfrwt beam="2">  1       21 0.23448739E+00 0.24323523E+03</pdfrwt>
<totfact> 0.11193673E+04</totfact>
</mgrwt>
</event>
<event>
 4    1  0.4495571E+000  0.3348800E+03  0.7546771E-02  0.1068998E+00
         21   -1    0    0  501  502  0.00000000000E+00  0.00000000000E+00  0.62027902503E+03  0.62027902503E+03  0.00000000000E+00 0.  1.
         21   -1    0    0  502  503 -0.00000000000E+00 -0.00000000000E+00 -0.68855913610E+03  0.68855913610E+03  0.00000000000E+00 0.  1.
          6    1    1    2  501    0 -0.23645246347E+03  0.16219086287E+03  0.52783294134E+03  0.62510179767E+03  0.17300000000E+03 0.  1.
         -6    1    1    2    0  503  0.23645246347E+03 -0.16219086287E+03 -0.59611305241E+03  0.68373636347E+03  0.17300000000E+03 0.  1.
<mgrwt>
<rscale>  2 0.33488004E+03</rscale>
<asrwt>0</asrwt>
<pdfrwt beam="1">  1       21 0.95427543E-01 0.33488004E+03</pdfrwt>
<pdfrwt beam="2">  1       21 0.10593217E+00 0.33488004E+03</pdfrwt>
<totfact> 0.58383512E+02</totfact>
</mgrwt>
</event>
<event>
 4    1  0.4495571E+000  0.1819164E+03  0.7546771E-02  0.1165961E+00
         21   -1    0    0  501  502  0.00000000000E+00  0.00000000000E+00  0.16218199337E+02  0.16218199337E+02  0.00000000000E+00 0. -1.
         21   -1    0    0  502  503 -0.00000000000E+00 -0.00000000000E+00 -0.20491768431E+04  0.20491768431E+04  0.00000000000E+00 0. -1.
          6    1    1    2  501    0 -0.37840840082E+02  0.41625243995E+02 -0.10835938861E+04  0.10987580717E+04  0.17300000000E+03 0. -1.
         -6    1    1    2    0  503  0.37840840082E+02 -0.41625243995E+02 -0.94936475762E+03  0.96663697070E+03  0.17300000000E+03 0. -1.
<mgrwt>
<rscale>  2 0.18191644E+03</rscale>
<asrwt>0</asrwt>
<pdfrwt beam="1">  1       21 0.24951096E-02 0.18191644E+03</pdfrwt>
<pdfrwt beam="2">  1       21 0.31525772E+00 0.18191644E+03</pdfrwt>
<totfact> 0.24170123E+04</totfact>
</mgrwt>
</event>
<event>
 4    1  0.4495571E+000  0.1998072E+03  0.7546771E-02  0.1149902E+00
         21   -1    0    0  501  502  0.00000000000E+00  0.00000000000E+00  0.24523874340E+02  0.24523874340E+02  0.00000000000E+00 0. -1.
         21   -1    0    0  502  503 -0.00000000000E+00 -0.00000000000E+00 -0.16279950169E+04  0.16279950169E+04  0.00000000000E+00 0. -1.
          6    1    1    2  501    0 -0.33315043448E+01  0.99914097461E+02 -0.79615777127E+03  0.82084719805E+03  0.17300000000E+03 0. -1.
         -6    1    1    2    0  503  0.33315043448E+01 -0.99914097461E+02 -0.80731337132E+03  0.83167169322E+03  0.17300000000E+03 0. -1.
<mgrwt>
<rscale>  2 0.19980722E+03</rscale>
<asrwt>0</asrwt>
<pdfrwt beam="1">  1       21 0.37729026E-02 0.19980722E+03</pdfrwt>
<pdfrwt beam="2">  1       21 0.25046085E+00 0.19980722E+03</pdfrwt>
<totfact> 0.28386336E+04</totfact>
</mgrwt>
</event>
<event>
 4    1  0.4495571E+000  0.2056430E+03  0.7546771E-02  0.1145064E+00
         21   -1    0    0  501  502  0.00000000000E+00  0.00000000000E+00  0.41005960414E+03  0.41005960414E+03  0.00000000000E+00 0. -1.
         21   -1    0    0  502  503 -0.00000000000E+00 -0.00000000000E+00 -0.10746462429E+03  0.10746462429E+03  0.00000000000E+00 0. -1.
          6    1    1    2  501    0  0.10490904364E+03  0.36798308825E+02  0.20327260415E+03  0.28915181923E+03  0.17300000000E+03 0. -1.
         -6    1    1    2    0  503 -0.10490904364E+03 -0.36798308825E+02  0.99322375696E+02  0.22837240920E+03  0.17300000000E+03 0. -1.
<mgrwt>
<rscale>  2 0.20564295E+03</rscale>
<asrwt>0</asrwt>
<pdfrwt beam="1">  1       21 0.63086092E-01 0.20564295E+03</pdfrwt>
<pdfrwt beam="2">  1       21 0.16533019E-01 0.20564295E+03</pdfrwt>
<totfact> 0.75924862E+04</totfact>
</mgrwt>
</event>
<event>
 4    1  0.4495571E+000  0.2510696E+03  0.7546771E-02  0.1112631E+00
         21   -1    0    0  503  502  0.00000000000E+00  0.00000000000E+00  0.27584440593E+03  0.27584440593E+03  0.00000000000E+00 0.  1.
         21   -1    0    0  501  503 -0.00000000000E+00 -0.00000000000E+00 -0.25352435899E+03  0.25352435899E+03  0.00000000000E+00 0. -1.
          6    1    1    2  501    0  0.18137922827E+03 -0.14440498315E+02  0.94284071683E+02  0.26818918437E+03  0.17300000000E+03 0.  1.
         -6    1    1    2    0  502 -0.18137922827E+03  0.14440498315E+02 -0.71964024744E+02  0.26117958055E+03  0.17300000000E+03 0. -1.
<mgrwt>
<rscale>  2 0.25106962E+03</rscale>
<asrwt>0</asrwt>
<pdfrwt beam="1">  1       21 0.42437601E-01 0.25106962E+03</pdfrwt>
<pdfrwt beam="2">  1       21 0.39003748E-01 0.25106962E+03</pdfrwt>
<totfact> 0.32906349E+04</totfact>
</mgrwt>
</event>
<event>
 4    1  0.4495571E+000  0.2108363E+03  0.7546771E-02  0.1140905E+00
         21   -1    0    0  503  502  0.00000000000E+00  0.00000000000E+00  0.12963385555E+04  0.12963385555E+04  0.00000000000E+00 0. -1.
         21   -1    0    0  501  503 -0.00000000000E+00 -0.00000000000E+00 -0.18579133700E+03  0.18579133700E+03  0.00000000000E+00 0.  1.
          6    1    1    2  501    0  0.61245150999E+02 -0.10378810631E+03 -0.11391914703E+03  0.23964455260E+03  0.17300000000E+03 0.  1.
         -6    1    1    2    0  502 -0.61245150999E+02  0.10378810631E+03  0.12244663656E+04  0.12424853399E+04  0.17300000000E+03 0. -1.
<mgrwt>
<rscale>  2 0.21083629E+03</rscale>
<asrwt>0</asrwt>
<pdfrwt beam="1">  1       21 0.19943669E+00 0.21083629E+03</pdfrwt>
<pdfrwt beam="2">  1       21 0.28583284E-01 0.21083629E+03</pdfrwt>
<totfact> 0.15553159E+03</totfact>
</mgrwt>
</event>
<event>
 4    1  0.4495571E+000  0.2141683E+03  0.7546771E-02  0.1138307E+00
         21   -1    0    0  503  502  0.00000000000E+00  0.00000000000E+00  0.35537331116E+02  0.35537331116E+02  0.00000000000E+00 0.  1.
         21   -1    0    0  501  503 -0.00000000000E+00 -0.00000000000E+00 -0.13831472649E+04  0.13831472649E+04  0.00000000000E+00 0. -1.
          6    1    1    2  501    0 -0.11246083367E+03 -0.57372582929E+02 -0.49041844379E+03  0.53514325408E+03  0.17300000000E+03 0.  1.
         -6    1    1    2    0  502  0.11246083367E+03  0.57372582929E+02 -0.85719148996E+03  0.88354134190E+03  0.17300000000E+03 0. -1.
<mgrwt>
<rscale>  2 0.21416828E+03</rscale>
<asrwt>0</asrwt>
<pdfrwt beam="1">  1       21 0.54672832E-02 0.21416828E+03</pdfrwt>
<pdfrwt beam="2">  1       21 0.21279183E+00 0.21416828E+03</pdfrwt>
<totfact> 0.25353992E+04</totfact>
</mgrwt>
</event>
<event>
 4    1  0.4495571E+000  0.2795520E+03  0.7546771E-02  0.1095934E+00
         21   -1    0    0  501  502  0.00000000000E+00  0.00000000000E+00  0.93407018330E+02  0.93407018330E+02  0.00000000000E+00 0.  1.
         21   -1    0    0  502  503 -0.00000000000E+00 -0.00000000000E+00 -0.12804586254E+04  0.12804586254E+04  0.00000000000E+00 0. -1.
          6    1    1    2  501    0 -0.30750152123E+02 -0.21742752230E+03 -0.18911039040E+03  0.33750857629E+03  0.17300000000E+03 0.  1.
         -6    1    1    2    0  503  0.30750152123E+02  0.21742752230E+03 -0.99794121664E+03  0.10363570674E+04  0.17300000000E+03 0. -1.
<mgrwt>
<rscale>  2 0.27955196E+03</rscale>
<asrwt>0</asrwt>
<pdfrwt beam="1">  1       21 0.14370312E-01 0.27955196E+03</pdfrwt>
<pdfrwt beam="2">  1       21 0.19699361E+00 0.27955196E+03</pdfrwt>
<totfact> 0.55714265E+03</totfact>
</mgrwt>
</event>
<event>
 4    1  0.4495571E+000  0.1968734E+03  0.7546771E-02  0.1152404E+00
         21   -1    0    0  501  502  0.00000000000E+00  0.00000000000E+00  0.19282909105E+03  0.19282909105E+03  0.00000000000E+00 0. -1.
         21   -1    0    0  502  503 -0.00000000000E+00 -0.00000000000E+00 -0.27112011996E+03  0.27112011996E+03  0.00000000000E+00 0. -1.
          6    1    1    2  501    0 -0.17314629088E+02  0.92359752608E+02  0.78824952907E+02  0.21206719096E+03  0.17300000000E+03 0. -1.
         -6    1    1    2    0  503  0.17314629088E+02 -0.92359752608E+02 -0.15711598181E+03  0.25188202005E+03  0.17300000000E+03 0. -1.
<mgrwt>
<rscale>  2 0.19687336E+03</rscale>
<asrwt>0</asrwt>
<pdfrwt beam="1">  1       21 0.29666014E-01 0.19687336E+03</pdfrwt>
<pdfrwt beam="2">  1       21 0.41710788E-01 0.19687336E+03</pdfrwt>
<totfact> 0.60148376E+04</totfact>
</mgrwt>
</event>
<event>
 4    1  0.4495571E+000  0.1850751E+03  0.7546771E-02  0.1162980E+00
         21   -1    0    0  501  502  0.00000000000E+00  0.00000000000E+00  0.36605147699E+03  0.36605147699E+03  0.00000000000E+00 0.  1.
         21   -1    0    0  502  503 -0.00000000000E+00 -0.00000000000E+00 -0.12490891895E+03  0.12490891895E+03  0.00000000000E+00 0.  1.
          6    1    1    2  501    0  0.61495638403E+02  0.23282411299E+02  0.24352346003E+03  0.30587000475E+03  0.17300000000E+03 0.  1.
         -6    1    1    2    0  503 -0.61495638403E+02 -0.23282411299E+02 -0.23809019958E+01  0.18509039120E+03  0.17300000000E+03 0.  1.
<mgrwt>
<rscale>  2 0.18507508E+03</rscale>
<asrwt>0</asrwt>
<pdfrwt beam="1">  1       21 0.56315611E-01 0.18507508E+03</pdfrwt>
<pdfrwt beam="2">  1       21 0.19216757E-01 0.18507508E+03</pdfrwt>
<totfact> 0.74011594E+04</totfact>
</mgrwt>
</event>
<event>
 4    1  0.4495571E+000  0.1979745E+03  0.7546771E-02  0.1151459E+00
         21   -1    0    0  503  502  0.00000000000E+00  0.00000000000E+00  0.11611658614E+03  0.11611658614E+03  0.00000000000E+00 0. -1.
         21   -1    0    0  501  503 -0.00000000000E+00 -0.00000000000E+00 -0.42971307064E+03  0.42971307064E+03  0.00000000000E+00 0. -1.
          6    1    1    2  501    0  0.26599820113E+02  0.92505867021E+02 -0.28319677778E+03  0.34553480404E+03  0.17300000000E+03 0.  1.
         -6    1    1    2    0  502 -0.26599820113E+02 -0.92505867021E+02 -0.30399706718E+02  0.20029485273E+03  0.17300000000E+03 0.  1.
<mgrwt>
<rscale>  2 0.19797446E+03</rscale>
<asrwt>0</asrwt>
<pdfrwt beam="1">  1       21 0.17864090E-01 0.19797446E+03</pdfrwt>
<pdfrwt beam="2">  1       21 0.66109703E-01 0.19797446E+03</pdfrwt>
<totfact> 0.59656590E+04</totfact>
</mgrwt>
</event>
<event>
 4    1  0.4495571E+000  0.2217405E+03  0.7546771E-02  0.1132592E+00
         21   -1    0    0  503  502  0.00000000000E+00  0.00000000000E+00  0.44772078484E+03  0.44772078484E+03  0.00000000000E+00 0. -1.
         21   -1    0    0  501  503 -0.00000000000E+00 -0.00000000000E+00 -0.21193364301E+03  0.21193364301E+03  0.00000000000E+00 0.  1.
          6    1    1    2  501    0  0.55351071910E+02 -0.12718537366E+03 -0.11104957254E+03  0.24799368540E+03  0.17300000000E+03 0.  1.
         -6    1    1    2    0  502 -0.55351071910E+02  0.12718537366E+03  0.34683671438E+03  0.41166074245E+03  0.17300000000E+03 0. -1.
<mgrwt>
<rscale>  2 0.22174053E+03</rscale>
<asrwt>0</asrwt>
<pdfrwt beam="1">  1       21 0.68880120E-01 0.22174053E+03</pdfrwt>
<pdfrwt beam="2">  1       21 0.32605176E-01 0.22174053E+03</pdfrwt>
<totfact> 0.17078132E+04</totfact>
</mgrwt>
</event>
<event>
 4    1  0.4495571E+000  0.1775818E+03  0.7546771E-02  0.1170164E+00
         21   -1    0    0  501  502  0.00000000000E+00  0.00000000000E+00  0.22965546986E+02  0.22965546986E+02  0.00000000000E+00 0.  1.
         21   -1    0    0  502  503 -0.00000000000E+00 -0.00000000000E+00 -0.14181000223E+04  0.14181000223E+04  0.00000000000E+00 0.  1.
          6    1    1    2  501    0 -0.13857613878E+02  0.37606808241E+02 -0.82583887371E+03  0.84471601786E+03  0.17300000000E+03 0.  1.
         -6    1    1    2    0  503  0.13857613878E+02 -0.37606808241E+02 -0.56929560162E+03  0.59634955145E+03  0.17300000000E+03 0.  1.
<mgrwt>
<rscale>  2 0.17758183E+03</rscale>
<asrwt>0</asrwt>
<pdfrwt beam="1">  1       21 0.35331614E-02 0.17758183E+03</pdfrwt>
<pdfrwt beam="2">  1       21 0.21816922E+00 0.17758183E+03</pdfrwt>
<totfact> 0.50313218E+04</totfact>
</mgrwt>
</event>
<event>
 4    1  0.4495571E+000  0.2013170E+03  0.7546771E-02  0.1148633E+00
         21   -1    0    0  503  502  0.00000000000E+00  0.00000000000E+00  0.48132738309E+03  0.48132738309E+03  0.00000000000E+00 0.  1.
         21   -1    0    0  501  503 -0.00000000000E+00 -0.00000000000E+00 -0.19511519123E+03  0.19511519123E+03  0.00000000000E+00 0.  1.
          6    1    1    2  501    0  0.18653416638E+02 -0.10125015076E+03 -0.11189834891E+03  0.23032538607E+03  0.17300000000E+03 0.  1.
         -6    1    1    2    0  502 -0.18653416638E+02  0.10125015076E+03  0.39811054077E+03  0.44611718825E+03  0.17300000000E+03 0.  1.
<mgrwt>
<rscale>  2 0.20131702E+03</rscale>
<asrwt>0</asrwt>
<pdfrwt beam="1">  1       21 0.74050366E-01 0.20131702E+03</pdfrwt>
<pdfrwt beam="2">  1       21 0.30017722E-01 0.20131702E+03</pdfrwt>
<totfact> 0.17316763E+04</totfact>
</mgrwt>
</event>
<event>
 4    1  0.4495571E+000  0.1863288E+03  0.7546771E-02  0.1161815E+00
         21   -1    0    0  501  502  0.00000000000E+00  0.00000000000E+00  0.41329894144E+03  0.41329894144E+03  0.00000000000E+00 0.  1.
         21   -1    0    0  502  503 -0.00000000000E+00 -0.00000000000E+00 -0.88241404074E+02  0.88241404074E+02  0.00000000000E+00 0.  1.
          6    1    1    2  501    0  0.24536615662E+01  0.69162039803E+02  0.21748712802E+03  0.28638969789E+03  0.17300000000E+03 0.  1.
         -6    1    1    2    0  503 -0.24536615662E+01 -0.69162039803E+02  0.10757040935E+03  0.21515064762E+03  0.17300000000E+03 0.  1.
<mgrwt>
<rscale>  2 0.18632876E+03</rscale>
<asrwt>0</asrwt>
<pdfrwt beam="1">  1       21 0.63584452E-01 0.18632876E+03</pdfrwt>
<pdfrwt beam="2">  1       21 0.13575601E-01 0.18632876E+03</pdfrwt>
<totfact> 0.10773224E+05</totfact>
</mgrwt>
</event>
<event>
 4    1  0.4495571E+000  0.1768742E+03  0.7546771E-02  0.1170863E+00
         21   -1    0    0  503  502  0.00000000000E+00  0.00000000000E+00  0.28400400019E+03  0.28400400019E+03  0.00000000000E+00 0.  1.
         21   -1    0    0  501  503 -0.00000000000E+00 -0.00000000000E+00 -0.18263169610E+03  0.18263169610E+03  0.00000000000E+00 0.  1.
          6    1    1    2  501    0  0.14741201888E+02  0.33736729658E+02 -0.96294097895E+02  0.20138774355E+03  0.17300000000E+03 0.  1.
         -6    1    1    2    0  502 -0.14741201888E+02 -0.33736729658E+02  0.19766640199E+03  0.26524795274E+03  0.17300000000E+03 0.  1.
<mgrwt>
<rscale>  2 0.17687416E+03</rscale>
<asrwt>0</asrwt>
<pdfrwt beam="1">  1       21 0.43692923E-01 0.17687416E+03</pdfrwt>
<pdfrwt beam="2">  1       21 0.28097184E-01 0.17687416E+03</pdfrwt>
<totfact> 0.61348344E+04</totfact>
</mgrwt>
</event>
<event>
 4    1  0.4495571E+000  0.1972553E+03  0.7546771E-02  0.1152076E+00
         21   -1    0    0  503  502  0.00000000000E+00  0.00000000000E+00  0.62710656760E+03  0.62710656760E+03  0.00000000000E+00 0.  1.
         21   -1    0    0  501  503 -0.00000000000E+00 -0.00000000000E+00 -0.82409081256E+02  0.82409081256E+02  0.00000000000E+00 0.  1.
          6    1    1    2  501    0  0.13463482757E+01 -0.94756660836E+02  0.96003773272E+02  0.21937721374E+03  0.17300000000E+03 0.  1.
         -6    1    1    2    0  502 -0.13463482757E+01  0.94756660836E+02  0.44869371308E+03  0.49013843512E+03  0.17300000000E+03 0.  1.
<mgrwt>
<rscale>  2 0.19725526E+03</rscale>
<asrwt>0</asrwt>
<pdfrwt beam="1">  1       21 0.96477930E-01 0.19725526E+03</pdfrwt>
<pdfrwt beam="2">  1       21 0.12678321E-01 0.19725526E+03</pdfrwt>
<totfact> 0.47393554E+04</totfact>
</mgrwt>
</event>
<event>
 4    1  0.4495571E+000  0.1799789E+03  0.7546771E-02  0.1167823E+00
         21   -1    0    0  503  502  0.00000000000E+00  0.00000000000E+00  0.11846803384E+04  0.11846803384E+04  0.00000000000E+00 0.  1.
         21   -1    0    0  501  503 -0.00000000000E+00 -0.00000000000E+00 -0.29189428380E+02  0.29189428380E+02  0.00000000000E+00 0.  1.
          6    1    1    2  501    0  0.42340780283E+02  0.25897384062E+02  0.73040541683E+03  0.75225294224E+03  0.17300000000E+03 0.  1.
         -6    1    1    2    0  502 -0.42340780283E+02 -0.25897384062E+02  0.42508549319E+03  0.46161682454E+03  0.17300000000E+03 0.  1.
<mgrwt>
<rscale>  2 0.17997893E+03</rscale>
<asrwt>0</asrwt>
<pdfrwt beam="1">  1       21 0.18225848E+00 0.17997893E+03</pdfrwt>
<pdfrwt beam="2">  1       21 0.44906822E-02 0.17997893E+03</pdfrwt>
<totfact> 0.57098869E+04</totfact>
</mgrwt>
</event>
<event>
 4    1  0.4495571E+000  0.2304807E+03  0.7546771E-02  0.1126302E+00
         21   -1    0    0  501  502  0.00000000000E+00  0.00000000000E+00  0.94967808554E+02  0.94967808554E+02  0.00000000000E+00 0.  1.
         21   -1    0    0  502  503 -0.00000000000E+00 -0.00000000000E+00 -0.79717147132E+03  0.79717147132E+03  0.00000000000E+00 0. -1.
          6    1    1    2  501    0 -0.20559206904E+02  0.15089624715E+03 -0.10746575037E+03  0.25430345238E+03  0.17300000000E+03 0.  1.
         -6    1    1    2    0  503  0.20559206904E+02 -0.15089624715E+03 -0.59473791240E+03  0.63783582749E+03  0.17300000000E+03 0. -1.
<mgrwt>
<rscale>  2 0.23048071E+03</rscale>
<asrwt>0</asrwt>
<pdfrwt beam="1">  1       21 0.14610432E-01 0.23048071E+03</pdfrwt>
<pdfrwt beam="2">  1       21 0.12264177E+00 0.23048071E+03</pdfrwt>
<totfact> 0.20118968E+04</totfact>
</mgrwt>
</event>
<event>
 4    1  0.4495571E+000  0.1921835E+03  0.7546771E-02  0.1156507E+00
         21   -1    0    0  501  502  0.00000000000E+00  0.00000000000E+00  0.26295756249E+03  0.26295756249E+03  0.00000000000E+00 0. -1.
         21   -1    0    0  502  503 -0.00000000000E+00 -0.00000000000E+00 -0.18820788733E+03  0.18820788733E+03  0.00000000000E+00 0. -1.
          6    1    1    2  501    0 -0.82930701181E+02 -0.11314120229E+02  0.15099955250E+03  0.24440821461E+03  0.17300000000E+03 0. -1.
         -6    1    1    2    0  503  0.82930701181E+02  0.11314120229E+02 -0.76249877348E+02  0.20675723521E+03  0.17300000000E+03 0. -1.
<mgrwt>
<rscale>  2 0.19218353E+03</rscale>
<asrwt>0</asrwt>
<pdfrwt beam="1">  1       21 0.40455009E-01 0.19218353E+03</pdfrwt>
<pdfrwt beam="2">  1       21 0.28955060E-01 0.19218353E+03</pdfrwt>
<totfact> 0.67232463E+04</totfact>
</mgrwt>
</event>
<event>
 4    1  0.4495571E+000  0.2162608E+03  0.7546771E-02  0.1136702E+00
         21   -1    0    0  501  502  0.00000000000E+00  0.00000000000E+00  0.71871324355E+02  0.71871324355E+02  0.00000000000E+00 0. -1.
         21   -1    0    0  502  503 -0.00000000000E+00 -0.00000000000E+00 -0.73416728557E+03  0.73416728557E+03  0.00000000000E+00 0. -1.
          6    1    1    2  501    0  0.97441889046E+02  0.85701860202E+02 -0.19528163118E+03  0.29138230224E+03  0.17300000000E+03 0. -1.
         -6    1    1    2    0  503 -0.97441889046E+02 -0.85701860202E+02 -0.46701433003E+03  0.51465630769E+03  0.17300000000E+03 0. -1.
<mgrwt>
<rscale>  2 0.21626079E+03</rscale>
<asrwt>0</asrwt>
<pdfrwt beam="1">  1       21 0.11057127E-01 0.21626079E+03</pdfrwt>
<pdfrwt beam="2">  1       21 0.11294881E+00 0.21626079E+03</pdfrwt>
<totfact> 0.41070428E+04</totfact>
</mgrwt>
</event>
<event>
 4    1  0.4495571E+000  0.3777659E+03  0.7546771E-02  0.1051763E+00
         21   -1    0    0  501  502  0.00000000000E+00  0.00000000000E+00  0.48232279247E+02  0.48232279247E+02  0.00000000000E+00 0.  1.
         21   -1    0    0  502  503 -0.00000000000E+00 -0.00000000000E+00 -0.29664878166E+04  0.29664878166E+04  0.00000000000E+00 0. -1.
          6    1    1    2  501    0 -0.33511842511E+03  0.21764966318E+02 -0.15361314945E+04  0.15818998201E+04  0.17300000000E+03 0. -1.
         -6    1    1    2    0  503  0.33511842511E+03 -0.21764966318E+02 -0.13821240428E+04  0.14328202757E+04  0.17300000000E+03 0. -1.
<mgrwt>
<rscale>  2 0.37776590E+03</rscale>
<asrwt>0</asrwt>
<pdfrwt beam="1">  1       21 0.74203512E-02 0.37776590E+03</pdfrwt>
<pdfrwt beam="2">  1       21 0.45638271E+00 0.37776590E+03</pdfrwt>
<totfact> 0.41742269E+02</totfact>
</mgrwt>
</event>
<event>
 4    1  0.4495571E+000  0.1775305E+03  0.7546771E-02  0.1170215E+00
         21   -1    0    0  503  502  0.00000000000E+00  0.00000000000E+00  0.11729595832E+03  0.11729595832E+03  0.00000000000E+00 0. -1.
         21   -1    0    0  501  503 -0.00000000000E+00 -0.00000000000E+00 -0.11472883167E+04  0.11472883167E+04  0.00000000000E+00 0. -1.
          6    1    1    2  501    0  0.34212091448E+02  0.20435968834E+02 -0.10683143071E+04  0.10829647062E+04  0.17300000000E+03 0. -1.
         -6    1    1    2    0  502 -0.34212091448E+02 -0.20435968834E+02  0.38321948756E+02  0.18161956882E+03  0.17300000000E+03 0. -1.
<mgrwt>
<rscale>  2 0.17753055E+03</rscale>
<asrwt>0</asrwt>
<pdfrwt beam="1">  1       21 0.18045532E-01 0.17753055E+03</pdfrwt>
<pdfrwt beam="2">  1       21 0.17650590E+00 0.17753055E+03</pdfrwt>
<totfact> 0.54461945E+03</totfact>
</mgrwt>
</event>
<event>
 4    1  0.4495571E+000  0.2008991E+03  0.7546771E-02  0.1148983E+00
         21   -1    0    0  503  502  0.00000000000E+00  0.00000000000E+00  0.87712649144E+03  0.87712649144E+03  0.00000000000E+00 0. -1.
         21   -1    0    0  501  503 -0.00000000000E+00 -0.00000000000E+00 -0.72460290891E+02  0.72460290891E+02  0.00000000000E+00 0. -1.
          6    1    1    2  501    0  0.83900613855E+02  0.58241873182E+02  0.11549692640E+03  0.23173253722E+03  0.17300000000E+03 0. -1.
         -6    1    1    2    0  502 -0.83900613855E+02 -0.58241873182E+02  0.68916927415E+03  0.71785424512E+03  0.17300000000E+03 0. -1.
<mgrwt>
<rscale>  2 0.20089905E+03</rscale>
<asrwt>0</asrwt>
<pdfrwt beam="1">  1       21 0.13494253E+00 0.20089905E+03</pdfrwt>
<pdfrwt beam="2">  1       21 0.11147738E-01 0.20089905E+03</pdfrwt>
<totfact> 0.26184301E+04</totfact>
</mgrwt>
</event>
<event>
 4    1  0.4495571E+000  0.1757619E+03  0.7546771E-02  0.1171969E+00
         21   -1    0    0  503  502  0.00000000000E+00  0.00000000000E+00  0.16678939537E+03  0.16678939537E+03  0.00000000000E+00 0. -1.
         21   -1    0    0  501  503 -0.00000000000E+00 -0.00000000000E+00 -0.19638754919E+03  0.19638754919E+03  0.00000000000E+00 0.  1.
          6    1    1    2  501    0 -0.21920365710E+02  0.21971752256E+02 -0.58106784464E+02  0.18511795896E+03  0.17300000000E+03 0.  1.
         -6    1    1    2    0  502  0.21920365710E+02 -0.21971752256E+02  0.28508630640E+02  0.17805898559E+03  0.17300000000E+03 0. -1.
<mgrwt>
<rscale>  2 0.17576194E+03</rscale>
<asrwt>0</asrwt>
<pdfrwt beam="1">  1       21 0.25659907E-01 0.17576194E+03</pdfrwt>
<pdfrwt beam="2">  1       21 0.30213469E-01 0.17576194E+03</pdfrwt>
<totfact> 0.15227955E+05</totfact>
</mgrwt>
</event>
<event>
 4    1  0.4495571E+000  0.2301233E+03  0.7546771E-02  0.1126553E+00
         21   -1    0    0  501  502  0.00000000000E+00  0.00000000000E+00  0.38301194316E+03  0.38301194316E+03  0.00000000000E+00 0.  1.
         21   -1    0    0  502  503 -0.00000000000E+00 -0.00000000000E+00 -0.16641653270E+03  0.16641653270E+03  0.00000000000E+00 0.  1.
          6    1    1    2  501    0  0.11578628205E+03  0.98088182841E+02  0.22128818240E+03  0.31925728558E+03  0.17300000000E+03 0.  1.
         -6    1    1    2    0  503 -0.11578628205E+03 -0.98088182841E+02 -0.46927719468E+01  0.23017119028E+03  0.17300000000E+03 0.  1.
<mgrwt>
<rscale>  2 0.23012335E+03</rscale>
<asrwt>0</asrwt>
<pdfrwt beam="1">  1       21 0.58924914E-01 0.23012335E+03</pdfrwt>
<pdfrwt beam="2">  1       21 0.25602544E-01 0.23012335E+03</pdfrwt>
<totfact> 0.38264754E+04</totfact>
</mgrwt>
</event>
<event>
 4    1  0.4495571E+000  0.1940062E+03  0.7546771E-02  0.1154897E+00
         21   -1    0    0  501  502  0.00000000000E+00  0.00000000000E+00  0.68917109734E+03  0.68917109734E+03  0.00000000000E+00 0. -1.
         21   -1    0    0  502  503 -0.00000000000E+00 -0.00000000000E+00 -0.58068572942E+02  0.58068572942E+02  0.00000000000E+00 0.  1.
          6    1    1    2  501    0 -0.23979724422E+02  0.84465283380E+02  0.40667984551E+03  0.45058507301E+03  0.17300000000E+03 0.  1.
         -6    1    1    2    0  503  0.23979724422E+02 -0.84465283380E+02  0.22442267889E+03  0.29665459726E+03  0.17300000000E+03 0.  1.
<mgrwt>
<rscale>  2 0.19400621E+03</rscale>
<asrwt>0</asrwt>
<pdfrwt beam="1">  1       21 0.10602632E+00 0.19400621E+03</pdfrwt>
<pdfrwt beam="2">  1       21 0.89336271E-02 0.19400621E+03</pdfrwt>
<totfact> 0.70588249E+04</totfact>
</mgrwt>
</event>
<event>
 4    1  0.4495571E+000  0.2480224E+03  0.7546771E-02  0.1114561E+00
         21   -1    0    0  503  502  0.00000000000E+00  0.00000000000E+00  0.21492720019E+03  0.21492720019E+03  0.00000000000E+00 0. -1.
         21   -1    0    0  501  503 -0.00000000000E+00 -0.00000000000E+00 -0.22058562140E+04  0.22058562140E+04  0.00000000000E+00 0.  1.
          6    1    1    2  501    0  0.17138040833E+03  0.47062283865E+02 -0.21246038047E+04  0.21390316571E+04  0.17300000000E+03 0.  1.
         -6    1    1    2    0  502 -0.17138040833E+03 -0.47062283865E+02  0.13367479091E+03  0.28175175713E+03  0.17300000000E+03 0. -1.
<mgrwt>
<rscale>  2 0.24802238E+03</rscale>
<asrwt>0</asrwt>
<pdfrwt beam="1">  1       21 0.33065722E-01 0.24802238E+03</pdfrwt>
<pdfrwt beam="2">  1       21 0.33936251E+00 0.24802238E+03</pdfrwt>
<totfact> 0.16401515E+02</totfact>
</mgrwt>
</event>
<event>
 4    1  0.4495571E+000  0.2010435E+03  0.7546771E-02  0.1148862E+00
         21   -1    0    0  503  502  0.00000000000E+00  0.00000000000E+00  0.18908609407E+03  0.18908609407E+03  0.00000000000E+00 0.  1.
         21   -1    0    0  501  503 -0.00000000000E+00 -0.00000000000E+00 -0.30570827397E+03  0.30570827397E+03  0.00000000000E+00 0. -1.
          6    1    1    2  501    0 -0.10198153899E+03  0.94473233236E+01 -0.19399236179E+03  0.27937702598E+03  0.17300000000E+03 0. -1.
         -6    1    1    2    0  502  0.10198153899E+03 -0.94473233236E+01  0.77370181891E+02  0.21541734205E+03  0.17300000000E+03 0. -1.
<mgrwt>
<rscale>  2 0.20104349E+03</rscale>
<asrwt>0</asrwt>
<pdfrwt beam="1">  1       21 0.29090169E-01 0.20104349E+03</pdfrwt>
<pdfrwt beam="2">  1       21 0.47032042E-01 0.20104349E+03</pdfrwt>
<totfact> 0.48749725E+04</totfact>
</mgrwt>
</event>
<event>
 4    1  0.4495571E+000  0.2284733E+03  0.7546771E-02  0.1127719E+00
         21   -1    0    0  501  502  0.00000000000E+00  0.00000000000E+00  0.62373368475E+03  0.62373368475E+03  0.00000000000E+00 0.  1.
         21   -1    0    0  502  503 -0.00000000000E+00 -0.00000000000E+00 -0.21986481613E+03  0.21986481613E+03  0.00000000000E+00 0.  1.
          6    1    1    2  501    0 -0.42037846436E+02 -0.14319166594E+03  0.53388769831E+03  0.58072033556E+03  0.17300000000E+03 0.  1.
         -6    1    1    2    0  503  0.42037846436E+02  0.14319166594E+03 -0.13001882969E+03  0.26287816532E+03  0.17300000000E+03 0.  1.
<mgrwt>
<rscale>  2 0.22847327E+03</rscale>
<asrwt>0</asrwt>
<pdfrwt beam="1">  1       21 0.95959028E-01 0.22847327E+03</pdfrwt>
<pdfrwt beam="2">  1       21 0.33825356E-01 0.22847327E+03</pdfrwt>
<totfact> 0.74290696E+03</totfact>
</mgrwt>
</event>
<event>
 4    1  0.4495571E+000  0.1983594E+03  0.7546771E-02  0.1151131E+00
         21   -1    0    0  501  502  0.00000000000E+00  0.00000000000E+00  0.21906000884E+03  0.21906000884E+03  0.00000000000E+00 0. -1.
         21   -1    0    0  502  503 -0.00000000000E+00 -0.00000000000E+00 -0.18224548569E+03  0.18224548569E+03  0.00000000000E+00 0. -1.
          6    1    1    2  501    0 -0.46354201677E+02 -0.85256850387E+02  0.42514229053E+02  0.20286424580E+03  0.17300000000E+03 0. -1.
         -6    1    1    2    0  503  0.46354201677E+02  0.85256850387E+02 -0.56997058936E+01  0.19844124873E+03  0.17300000000E+03 0. -1.
<mgrwt>
<rscale>  2 0.19835938E+03</rscale>
<asrwt>0</asrwt>
<pdfrwt beam="1">  1       21 0.33701540E-01 0.19835938E+03</pdfrwt>
<pdfrwt beam="2">  1       21 0.28037767E-01 0.19835938E+03</pdfrwt>
<totfact> 0.10282801E+05</totfact>
</mgrwt>
</event>
<event>
 4    1  0.4495571E+000  0.1800911E+03  0.7546771E-02  0.1167715E+00
         21   -1    0    0  501  502  0.00000000000E+00  0.00000000000E+00  0.50498118497E+03  0.50498118497E+03  0.00000000000E+00 0.  1.
         21   -1    0    0  502  503 -0.00000000000E+00 -0.00000000000E+00 -0.81002766523E+02  0.81002766523E+02  0.00000000000E+00 0.  1.
          6    1    1    2  501    0 -0.61254155685E+01  0.49661702183E+02  0.34532996406E+03  0.38946834204E+03  0.17300000000E+03 0.  1.
         -6    1    1    2    0  503  0.61254155685E+01 -0.49661702183E+02  0.78648454393E+02  0.19651560945E+03  0.17300000000E+03 0.  1.
<mgrwt>
<rscale>  2 0.18009110E+03</rscale>
<asrwt>0</asrwt>
<pdfrwt beam="1">  1       21 0.77689411E-01 0.18009110E+03</pdfrwt>
<pdfrwt beam="2">  1       21 0.12461964E-01 0.18009110E+03</pdfrwt>
<totfact> 0.81003928E+04</totfact>
</mgrwt>
</event>
<event>
 4    1  0.4495571E+000  0.1737500E+03  0.7546771E-02  0.1173993E+00
         21   -1    0    0  501  502  0.00000000000E+00  0.00000000000E+00  0.11523211535E+03  0.11523211535E+03  0.00000000000E+00 0. -1.
         21   -1    0    0  502  503 -0.00000000000E+00 -0.00000000000E+00 -0.26976791358E+03  0.26976791358E+03  0.00000000000E+00 0. -1.
          6    1    1    2  501    0  0.87092167606E+01  0.13572425669E+02 -0.44570540758E+02  0.17937556773E+03  0.17300000000E+03 0. -1.
         -6    1    1    2    0  503 -0.87092167606E+01 -0.13572425669E+02 -0.10996525747E+03  0.20562446120E+03  0.17300000000E+03 0. -1.
<mgrwt>
<rscale>  2 0.17375000E+03</rscale>
<asrwt>0</asrwt>
<pdfrwt beam="1">  1       21 0.17728018E-01 0.17375000E+03</pdfrwt>
<pdfrwt beam="2">  1       21 0.41502756E-01 0.17375000E+03</pdfrwt>
<totfact> 0.16238522E+05</totfact>
</mgrwt>
</event>
<event>
 4    1  0.4495571E+000  0.2030423E+03  0.7546771E-02  0.1147197E+00
         21   -1    0    0  501  502  0.00000000000E+00  0.00000000000E+00  0.70974381248E+02  0.70974381248E+02  0.00000000000E+00 0.  1.
         21   -1    0    0  502  503 -0.00000000000E+00 -0.00000000000E+00 -0.67891181613E+03  0.67891181613E+03  0.00000000000E+00 0.  1.
          6    1    1    2  501    0  0.88194976208E+02 -0.59319686903E+02 -0.16147802337E+03  0.25942500095E+03  0.17300000000E+03 0.  1.
         -6    1    1    2    0  503 -0.88194976208E+02  0.59319686903E+02 -0.44645941151E+03  0.49046119643E+03  0.17300000000E+03 0.  1.
<mgrwt>
<rscale>  2 0.20304231E+03</rscale>
<asrwt>0</asrwt>
<pdfrwt beam="1">  1       21 0.10919135E-01 0.20304231E+03</pdfrwt>
<pdfrwt beam="2">  1       21 0.10444797E+00 0.20304231E+03</pdfrwt>
<totfact> 0.51104202E+04</totfact>
</mgrwt>
</event>
<event>
 4    1  0.4495571E+000  0.4286259E+03  0.7546771E-02  0.1034295E+00
         21   -1    0    0  503  502  0.00000000000E+00  0.00000000000E+00  0.22192869942E+03  0.22192869942E+03  0.00000000000E+00 0. -1.
         21   -1    0    0  501  503 -0.00000000000E+00 -0.00000000000E+00 -0.16400852994E+04  0.16400852994E+04  0.00000000000E+00 0.  1.
          6    1    1    2  501    0 -0.37831311301E+03 -0.10329755819E+03 -0.13642646582E+04  0.14300133756E+04  0.17300000000E+03 0.  1.
         -6    1    1    2    0  502  0.37831311301E+03  0.10329755819E+03 -0.53891941786E+02  0.43200062314E+03  0.17300000000E+03 0. -1.
<mgrwt>
<rscale>  2 0.42862594E+03</rscale>
<asrwt>0</asrwt>
<pdfrwt beam="1">  1       21 0.34142877E-01 0.42862594E+03</pdfrwt>
<pdfrwt beam="2">  1       21 0.25232081E+00 0.42862594E+03</pdfrwt>
<totfact> 0.43528871E+02</totfact>
</mgrwt>
</event>
<event>
 4    1  0.4495571E+000  0.1932503E+03  0.7546771E-02  0.1155562E+00
         21   -1    0    0  501  502  0.00000000000E+00  0.00000000000E+00  0.61704098476E+02  0.61704098476E+02  0.00000000000E+00 0. -1.
         21   -1    0    0  502  503 -0.00000000000E+00 -0.00000000000E+00 -0.10721285464E+04  0.10721285464E+04  0.00000000000E+00 0. -1.
          6    1    1    2  501    0  0.23586317244E+02 -0.82827412149E+02 -0.13109918071E+03  0.23352235385E+03  0.17300000000E+03 0. -1.
         -6    1    1    2    0  503 -0.23586317244E+02  0.82827412149E+02 -0.87932526720E+03  0.90031029101E+03  0.17300000000E+03 0. -1.
<mgrwt>
<rscale>  2 0.19325034E+03</rscale>
<asrwt>0</asrwt>
<pdfrwt beam="1">  1       21 0.94929379E-02 0.19325034E+03</pdfrwt>
<pdfrwt beam="2">  1       21 0.16494286E+00 0.19325034E+03</pdfrwt>
<totfact> 0.20607035E+04</totfact>
</mgrwt>
</event>
<event>
 4    1  0.4495571E+000  0.1760889E+03  0.7546771E-02  0.1171643E+00
         21   -1    0    0  503  502  0.00000000000E+00  0.00000000000E+00  0.12991002350E+03  0.12991002350E+03  0.00000000000E+00 0. -1.
         21   -1    0    0  501  503 -0.00000000000E+00 -0.00000000000E+00 -0.41042415903E+03  0.41042415903E+03  0.00000000000E+00 0. -1.
          6    1    1    2  501    0 -0.13462631012E+02  0.29950954621E+02 -0.31502160056E+03  0.36089598354E+03  0.17300000000E+03 0. -1.
         -6    1    1    2    0  502  0.13462631012E+02 -0.29950954621E+02  0.34507465021E+02  0.17943819900E+03  0.17300000000E+03 0. -1.
<mgrwt>
<rscale>  2 0.17608890E+03</rscale>
<asrwt>0</asrwt>
<pdfrwt beam="1">  1       21 0.19986158E-01 0.17608890E+03</pdfrwt>
<pdfrwt beam="2">  1       21 0.63142176E-01 0.17608890E+03</pdfrwt>
<totfact> 0.54066142E+04</totfact>
</mgrwt>
</event>
<event>
 4    1  0.4495571E+000  0.1973076E+03  0.7546771E-02  0.1152031E+00
         21   -1    0    0  503  502  0.00000000000E+00  0.00000000000E+00  0.45869545495E+02  0.45869545495E+02  0.00000000000E+00 0. -1.
         21   -1    0    0  501  503 -0.00000000000E+00 -0.00000000000E+00 -0.84871784085E+03  0.84871784085E+03  0.00000000000E+00 0. -1.
          6    1    1    2  501    0  0.10113934196E+01 -0.94869641766E+02 -0.40103301697E+03  0.44694267255E+03  0.17300000000E+03 0. -1.
         -6    1    1    2    0  502 -0.10113934196E+01  0.94869641766E+02 -0.40181527839E+03  0.44764471380E+03  0.17300000000E+03 0. -1.
<mgrwt>
<rscale>  2 0.19730756E+03</rscale>
<asrwt>0</asrwt>
<pdfrwt beam="1">  1       21 0.70568538E-02 0.19730756E+03</pdfrwt>
<pdfrwt beam="2">  1       21 0.13057196E+00 0.19730756E+03</pdfrwt>
<totfact> 0.63614677E+04</totfact>
</mgrwt>
</event>
<event>
 4    1  0.4495571E+000  0.1775633E+03  0.7546771E-02  0.1170182E+00
         21   -1    0    0  501  502  0.00000000000E+00  0.00000000000E+00  0.23226618276E+03  0.23226618276E+03  0.00000000000E+00 0. -1.
         21   -1    0    0  502  503 -0.00000000000E+00 -0.00000000000E+00 -0.22706905111E+03  0.22706905111E+03  0.00000000000E+00 0. -1.
          6    1    1    2  501    0 -0.31594443522E+02  0.24525499667E+02  0.14825044032E+03  0.23131558972E+03  0.17300000000E+03 0. -1.
         -6    1    1    2    0  503  0.31594443522E+02 -0.24525499667E+02 -0.14305330866E+03  0.22801964414E+03  0.17300000000E+03 0. -1.
<mgrwt>
<rscale>  2 0.17756325E+03</rscale>
<asrwt>0</asrwt>
<pdfrwt beam="1">  1       21 0.35733259E-01 0.17756325E+03</pdfrwt>
<pdfrwt beam="2">  1       21 0.34933700E-01 0.17756325E+03</pdfrwt>
<totfact> 0.60054860E+04</totfact>
</mgrwt>
</event>
<event>
 4    1  0.4495571E+000  0.1732129E+03  0.7546771E-02  0.1174538E+00
         21   -1    0    0  501  502  0.00000000000E+00  0.00000000000E+00  0.26787633576E+03  0.26787633576E+03  0.00000000000E+00 0.  1.
         21   -1    0    0  502  503 -0.00000000000E+00 -0.00000000000E+00 -0.11228705697E+03  0.11228705697E+03  0.00000000000E+00 0.  1.
          6    1    1    2  501    0  0.73315259071E+00  0.85548950985E+01  0.68219786841E+02  0.18616300132E+03  0.17300000000E+03 0.  1.
         -6    1    1    2    0  503 -0.73315259071E+00 -0.85548950985E+01  0.87369491954E+02  0.19400039141E+03  0.17300000000E+03 0.  1.
<mgrwt>
<rscale>  2 0.17321294E+03</rscale>
<asrwt>0</asrwt>
<pdfrwt beam="1">  1       21 0.41211744E-01 0.17321294E+03</pdfrwt>
<pdfrwt beam="2">  1       21 0.17274932E-01 0.17321294E+03</pdfrwt>
<totfact> 0.17277983E+05</totfact>
</mgrwt>
</event>
<event>
 4    1  0.4495571E+000  0.2383185E+03  0.7546771E-02  0.1120918E+00
         21   -1    0    0  501  502  0.00000000000E+00  0.00000000000E+00  0.55390469840E+02  0.55390469840E+02  0.00000000000E+00 0.  1.
         21   -1    0    0  502  503 -0.00000000000E+00 -0.00000000000E+00 -0.10687034926E+04  0.10687034926E+04  0.00000000000E+00 0.  1.
          6    1    1    2  501    0  0.16158720363E+03 -0.27500617886E+02 -0.61983332247E+03  0.66407006859E+03  0.17300000000E+03 0.  1.
         -6    1    1    2    0  503 -0.16158720363E+03  0.27500617886E+02 -0.39347970025E+03  0.46002389380E+03  0.17300000000E+03 0.  1.
<mgrwt>
<rscale>  2 0.23831850E+03</rscale>
<asrwt>0</asrwt>
<pdfrwt beam="1">  1       21 0.85216106E-02 0.23831850E+03</pdfrwt>
<pdfrwt beam="2">  1       21 0.16441592E+00 0.23831850E+03</pdfrwt>
<totfact> 0.24420645E+04</totfact>
</mgrwt>
</event>
<event>
 4    1  0.4495571E+000  0.1817619E+03  0.7546771E-02  0.1166109E+00
         21   -1    0    0  501  502  0.00000000000E+00  0.00000000000E+00  0.99201572741E+03  0.99201572741E+03  0.00000000000E+00 0. -1.
         21   -1    0    0  502  503 -0.00000000000E+00 -0.00000000000E+00 -0.10021938852E+03  0.10021938852E+03  0.00000000000E+00 0. -1.
          6    1    1    2  501    0 -0.41532952755E+02 -0.37194298374E+02  0.89214538949E+03  0.91047284308E+03  0.17300000000E+03 0. -1.
         -6    1    1    2    0  503  0.41532952755E+02  0.37194298374E+02 -0.34905060210E+00  0.18176227285E+03  0.17300000000E+03 0. -1.
<mgrwt>
<rscale>  2 0.18176194E+03</rscale>
<asrwt>0</asrwt>
<pdfrwt beam="1">  1       21 0.15261780E+00 0.18176194E+03</pdfrwt>
<pdfrwt beam="2">  1       21 0.15418368E-01 0.18176194E+03</pdfrwt>
<totfact> 0.10742836E+04</totfact>
</mgrwt>
</event>
<event>
 4    1  0.4495571E+000  0.3165438E+03  0.7546771E-02  0.1077251E+00
         21   -1    0    0  501  502  0.00000000000E+00  0.00000000000E+00  0.89700593182E+03  0.89700593182E+03  0.00000000000E+00 0.  1.
         21   -1    0    0  502  503 -0.00000000000E+00 -0.00000000000E+00 -0.11342088137E+03  0.11342088137E+03  0.00000000000E+00 0.  1.
          6    1    1    2  501    0  0.12830792751E+03  0.23196556809E+03  0.45393462069E+03  0.55340454362E+03  0.17300000000E+03 0.  1.
         -6    1    1    2    0  503 -0.12830792751E+03 -0.23196556809E+03  0.32965042976E+03  0.45702226957E+03  0.17300000000E+03 0.  1.
<mgrwt>
<rscale>  2 0.31654376E+03</rscale>
<asrwt>0</asrwt>
<pdfrwt beam="1">  1       21 0.13800091E+00 0.31654376E+03</pdfrwt>
<pdfrwt beam="2">  1       21 0.17449367E-01 0.31654376E+03</pdfrwt>
<totfact> 0.10271033E+04</totfact>
</mgrwt>
</event>
<event>
 4    1  0.4495571E+000  0.2211563E+03  0.7546771E-02  0.1133024E+00
         21   -1    0    0  501  502  0.00000000000E+00  0.00000000000E+00  0.41444647321E+03  0.41444647321E+03  0.00000000000E+00 0. -1.
         21   -1    0    0  502  503 -0.00000000000E+00 -0.00000000000E+00 -0.11917707835E+03  0.11917707835E+03  0.00000000000E+00 0.  1.
          6    1    1    2  501    0  0.11182002660E+03 -0.80482263235E+02  0.17400293462E+03  0.28140208652E+03  0.17300000000E+03 0. -1.
         -6    1    1    2    0  503 -0.11182002660E+03  0.80482263235E+02  0.12126646024E+03  0.25222146503E+03  0.17300000000E+03 0.  1.
<mgrwt>
<rscale>  2 0.22115631E+03</rscale>
<asrwt>0</asrwt>
<pdfrwt beam="1">  1       21 0.63760995E-01 0.22115631E+03</pdfrwt>
<pdfrwt beam="2">  1       21 0.18334935E-01 0.22115631E+03</pdfrwt>
<totfact> 0.60870124E+04</totfact>
</mgrwt>
</event>
<event>
 4    1  0.4495571E+000  0.1878492E+03  0.7546771E-02  0.1160416E+00
         21   -1    0    0  503  502  0.00000000000E+00  0.00000000000E+00  0.24591890945E+03  0.24591890945E+03  0.00000000000E+00 0. -1.
         21   -1    0    0  501  503 -0.00000000000E+00 -0.00000000000E+00 -0.17565911856E+03  0.17565911856E+03  0.00000000000E+00 0. -1.
          6    1    1    2  501    0  0.54642783724E+02  0.48708098731E+02 -0.55073107049E+02  0.19575586789E+03  0.17300000000E+03 0. -1.
         -6    1    1    2    0  502 -0.54642783724E+02 -0.48708098731E+02  0.12533289793E+03  0.22582216012E+03  0.17300000000E+03 0. -1.
<mgrwt>
<rscale>  2 0.18784918E+03</rscale>
<asrwt>0</asrwt>
<pdfrwt beam="1">  1       21 0.37833678E-01 0.18784918E+03</pdfrwt>
<pdfrwt beam="2">  1       21 0.27024480E-01 0.18784918E+03</pdfrwt>
<totfact> 0.88068059E+04</totfact>
</mgrwt>
</event>
<event>
 4    1  0.4495571E+000  0.1813969E+03  0.7546771E-02  0.1166458E+00
         21   -1    0    0  501  502  0.00000000000E+00  0.00000000000E+00  0.13586500026E+04  0.13586500026E+04  0.00000000000E+00 0. -1.
         21   -1    0    0  502  503 -0.00000000000E+00 -0.00000000000E+00 -0.47933269128E+02  0.47933269128E+02  0.00000000000E+00 0. -1.
          6    1    1    2  501    0 -0.35744098482E+02 -0.41209345250E+02  0.16067901930E+03  0.24232746017E+03  0.17300000000E+03 0. -1.
         -6    1    1    2    0  503  0.35744098482E+02  0.41209345250E+02  0.11500377142E+04  0.11642558115E+04  0.17300000000E+03 0. -1.
<mgrwt>
<rscale>  2 0.18139694E+03</rscale>
<asrwt>0</asrwt>
<pdfrwt beam="1">  1       21 0.20902305E+00 0.18139694E+03</pdfrwt>
<pdfrwt beam="2">  1       21 0.73743501E-02 0.18139694E+03</pdfrwt>
<totfact> 0.16418027E+04</totfact>
</mgrwt>
</event>
<event>
 4    1  0.4495571E+000  0.1784496E+03  0.7546771E-02  0.1169312E+00
         21   -1    0    0  501  502  0.00000000000E+00  0.00000000000E+00  0.60912078524E+02  0.60912078524E+02  0.00000000000E+00 0.  1.
         21   -1    0    0  502  503 -0.00000000000E+00 -0.00000000000E+00 -0.57579585526E+03  0.57579585526E+03  0.00000000000E+00 0.  1.
          6    1    1    2  501    0 -0.16994583969E+02  0.40329049802E+02 -0.16085094646E+03  0.24024419893E+03  0.17300000000E+03 0.  1.
         -6    1    1    2    0  503  0.16994583969E+02 -0.40329049802E+02 -0.35403283027E+03  0.39646373485E+03  0.17300000000E+03 0.  1.
<mgrwt>
<rscale>  2 0.17844957E+03</rscale>
<asrwt>0</asrwt>
<pdfrwt beam="1">  1       21 0.93710886E-02 0.17844957E+03</pdfrwt>
<pdfrwt beam="2">  1       21 0.88583981E-01 0.17844957E+03</pdfrwt>
<totfact> 0.99728041E+04</totfact>
</mgrwt>
</event>
<event>
 4    1  0.4495571E+000  0.2226653E+03  0.7546771E-02  0.1131911E+00
         21   -1    0    0  503  502  0.00000000000E+00  0.00000000000E+00  0.13624533731E+03  0.13624533731E+03  0.00000000000E+00 0.  1.
         21   -1    0    0  501  503 -0.00000000000E+00 -0.00000000000E+00 -0.53175155487E+03  0.53175155487E+03  0.00000000000E+00 0.  1.
          6    1    1    2  501    0  0.33451823881E+01 -0.14014155357E+03 -0.38540422855E+03  0.44510253275E+03  0.17300000000E+03 0.  1.
         -6    1    1    2    0  502 -0.33451823881E+01  0.14014155357E+03 -0.10101989008E+02  0.22289435942E+03  0.17300000000E+03 0.  1.
<mgrwt>
<rscale>  2 0.22266532E+03</rscale>
<asrwt>0</asrwt>
<pdfrwt beam="1">  1       21 0.20960822E-01 0.22266532E+03</pdfrwt>
<pdfrwt beam="2">  1       21 0.81807930E-01 0.22266532E+03</pdfrwt>
<totfact> 0.27187651E+04</totfact>
</mgrwt>
</event>
<event>
 4    1  0.4495571E+000  0.1760036E+03  0.7546771E-02  0.1171728E+00
         21   -1    0    0  503  502  0.00000000000E+00  0.00000000000E+00  0.41208409794E+03  0.41208409794E+03  0.00000000000E+00 0. -1.
         21   -1    0    0  501  503 -0.00000000000E+00 -0.00000000000E+00 -0.10908089096E+03  0.10908089096E+03  0.00000000000E+00 0. -1.
          6    1    1    2  501    0 -0.30944761201E+02  0.95231892241E+01  0.62147249957E+01  0.17611329361E+03  0.17300000000E+03 0. -1.
         -6    1    1    2    0  502  0.30944761201E+02 -0.95231892241E+01  0.29678848199E+03  0.34505169529E+03  0.17300000000E+03 0. -1.
<mgrwt>
<rscale>  2 0.17600361E+03</rscale>
<asrwt>0</asrwt>
<pdfrwt beam="1">  1       21 0.63397553E-01 0.17600361E+03</pdfrwt>
<pdfrwt beam="2">  1       21 0.16781676E-01 0.17600361E+03</pdfrwt>
<totfact> 0.74032629E+04</totfact>
</mgrwt>
</event>
<event>
 4    1  0.4495571E+000  0.3531664E+03  0.7546771E-02  0.1061323E+00
         21   -1    0    0  501  502  0.00000000000E+00  0.00000000000E+00  0.93498056902E+03  0.93498056902E+03  0.00000000000E+00 0. -1.
         21   -1    0    0  502  503 -0.00000000000E+00 -0.00000000000E+00 -0.20819278519E+03  0.20819278519E+03  0.00000000000E+00 0. -1.
          6    1    1    2  501    0  0.55790221836E+02 -0.30279518412E+03  0.70598722928E+03  0.78939498369E+03  0.17300000000E+03 0. -1.
         -6    1    1    2    0  503 -0.55790221836E+02  0.30279518412E+03  0.20800554556E+02  0.35377837052E+03  0.17300000000E+03 0. -1.
<mgrwt>
<rscale>  2 0.35316635E+03</rscale>
<asrwt>0</asrwt>
<pdfrwt beam="1">  1       21 0.14384316E+00 0.35316635E+03</pdfrwt>
<pdfrwt beam="2">  1       21 0.32029660E-01 0.35316635E+03</pdfrwt>
<totfact> 0.28106769E+03</totfact>
</mgrwt>
</event>
<event>
 4    1  0.4495571E+000  0.2974000E+03  0.7546771E-02  0.1086548E+00
         21   -1    0    0  501  502  0.00000000000E+00  0.00000000000E+00  0.61901330443E+03  0.61901330443E+03  0.00000000000E+00 0.  1.
         21   -1    0    0  502  503 -0.00000000000E+00 -0.00000000000E+00 -0.17002421602E+03  0.17002421602E+03  0.00000000000E+00 0. -1.
          6    1    1    2  501    0  0.13584257068E+03 -0.20016128850E+03  0.38211895032E+03  0.48421238895E+03  0.17300000000E+03 0.  1.
         -6    1    1    2    0  503 -0.13584257068E+03  0.20016128850E+03  0.66870138093E+02  0.30482513150E+03  0.17300000000E+03 0. -1.
<mgrwt>
<rscale>  2 0.29739998E+03</rscale>
<asrwt>0</asrwt>
<pdfrwt beam="1">  1       21 0.95232815E-01 0.29739998E+03</pdfrwt>
<pdfrwt beam="2">  1       21 0.26157572E-01 0.29739998E+03</pdfrwt>
<totfact> 0.12066957E+04</totfact>
</mgrwt>
</event>
<event>
 4    1  0.4495571E+000  0.2652540E+03  0.7546771E-02  0.1104027E+00
         21   -1    0    0  501  502  0.00000000000E+00  0.00000000000E+00  0.11423516655E+03  0.11423516655E+03  0.00000000000E+00 0. -1.
         21   -1    0    0  502  503 -0.00000000000E+00 -0.00000000000E+00 -0.98129645678E+03  0.98129645678E+03  0.00000000000E+00 0. -1.
          6    1    1    2  501    0 -0.12046800279E+03  0.16099115380E+03 -0.99285385805E+02  0.28322655089E+03  0.17300000000E+03 0. -1.
         -6    1    1    2    0  503  0.12046800279E+03 -0.16099115380E+03 -0.76777590442E+03  0.81230507244E+03  0.17300000000E+03 0. -1.
<mgrwt>
<rscale>  2 0.26525401E+03</rscale>
<asrwt>0</asrwt>
<pdfrwt beam="1">  1       21 0.17574641E-01 0.26525401E+03</pdfrwt>
<pdfrwt beam="2">  1       21 0.15096868E+00 0.26525401E+03</pdfrwt>
<totfact> 0.82062894E+03</totfact>
</mgrwt>
</event>
<event>
 4    1  0.4495571E+000  0.2632947E+03  0.7546771E-02  0.1105180E+00
         21   -1    0    0  503  502  0.00000000000E+00  0.00000000000E+00  0.10342525732E+04  0.10342525732E+04  0.00000000000E+00 0. -1.
         21   -1    0    0  501  503 -0.00000000000E+00 -0.00000000000E+00 -0.68243508559E+02  0.68243508559E+02  0.00000000000E+00 0. -1.
          6    1    1    2  501    0  0.19523259604E+03  0.35767660383E+02  0.40944160299E+03  0.48679206890E+03  0.17300000000E+03 0. -1.
         -6    1    1    2    0  502 -0.19523259604E+03 -0.35767660383E+02  0.55656746170E+03  0.61570401291E+03  0.17300000000E+03 0. -1.
<mgrwt>
<rscale>  2 0.26329469E+03</rscale>
<asrwt>0</asrwt>
<pdfrwt beam="1">  1       21 0.15911577E+00 0.26329469E+03</pdfrwt>
<pdfrwt beam="2">  1       21 0.10499002E-01 0.26329469E+03</pdfrwt>
<totfact> 0.18210748E+04</totfact>
</mgrwt>
</event>
<event>
 4    1  0.4495571E+000  0.2017242E+03  0.7546771E-02  0.1148292E+00
         21   -1    0    0  501  502  0.00000000000E+00  0.00000000000E+00  0.13909252690E+04  0.13909252690E+04  0.00000000000E+00 0. -1.
         21   -1    0    0  502  503 -0.00000000000E+00 -0.00000000000E+00 -0.37525646659E+02  0.37525646659E+02  0.00000000000E+00 0. -1.
          6    1    1    2  501    0 -0.85414036425E+02  0.58890448783E+02  0.10119891564E+04  0.10318985877E+04  0.17300000000E+03 0. -1.
         -6    1    1    2    0  503  0.85414036425E+02 -0.58890448783E+02  0.34141046595E+03  0.39655232799E+03  0.17300000000E+03 0. -1.
<mgrwt>
<rscale>  2 0.20172417E+03</rscale>
<asrwt>0</asrwt>
<pdfrwt beam="1">  1       21 0.21398846E+00 0.20172417E+03</pdfrwt>
<pdfrwt beam="2">  1       21 0.57731775E-02 0.20172417E+03</pdfrwt>
<totfact> 0.22916751E+04</totfact>
</mgrwt>
</event>
<event>
 4    1  0.4495571E+000  0.2248047E+03  0.7546771E-02  0.1130351E+00
         21   -1    0    0  503  502  0.00000000000E+00  0.00000000000E+00  0.28534780637E+02  0.28534780637E+02  0.00000000000E+00 0.  1.
         21   -1    0    0  501  503 -0.00000000000E+00 -0.00000000000E+00 -0.19036317022E+04  0.19036317022E+04  0.00000000000E+00 0.  1.
          6    1    1    2  501    0  0.62089608626E+02  0.12943349696E+03 -0.11924831434E+04  0.12134880292E+04  0.17300000000E+03 0.  1.
         -6    1    1    2    0  502 -0.62089608626E+02 -0.12943349696E+03 -0.68261377819E+03  0.71867845370E+03  0.17300000000E+03 0.  1.
<mgrwt>
<rscale>  2 0.22480469E+03</rscale>
<asrwt>0</asrwt>
<pdfrwt beam="1">  1       21 0.43899665E-02 0.22480469E+03</pdfrwt>
<pdfrwt beam="2">  1       21 0.29286640E+00 0.22480469E+03</pdfrwt>
<totfact> 0.12185955E+04</totfact>
</mgrwt>
</event>
<event>
 4    1  0.4495571E+000  0.1846349E+03  0.7546771E-02  0.1163391E+00
         21   -1    0    0  501  502  0.00000000000E+00  0.00000000000E+00  0.11227077175E+03  0.11227077175E+03  0.00000000000E+00 0.  1.
         21   -1    0    0  502  503 -0.00000000000E+00 -0.00000000000E+00 -0.30508641964E+03  0.30508641964E+03  0.00000000000E+00 0.  1.
          6    1    1    2  501    0 -0.10329544004E+02 -0.63673822942E+02 -0.82046246423E+02  0.20204366300E+03  0.17300000000E+03 0.  1.
         -6    1    1    2    0  503  0.10329544004E+02  0.63673822942E+02 -0.11076940147E+03  0.21531352839E+03  0.17300000000E+03 0.  1.
<mgrwt>
<rscale>  2 0.18463492E+03</rscale>
<asrwt>0</asrwt>
<pdfrwt beam="1">  1       21 0.17272427E-01 0.18463492E+03</pdfrwt>
<pdfrwt beam="2">  1       21 0.46936372E-01 0.18463492E+03</pdfrwt>
<totfact> 0.13199345E+05</totfact>
</mgrwt>
</event>
<event>
 4    1  0.4495571E+000  0.2033990E+03  0.7546771E-02  0.1146903E+00
         21   -1    0    0  503  502  0.00000000000E+00  0.00000000000E+00  0.21866294773E+04  0.21866294773E+04  0.00000000000E+00 0. -1.
         21   -1    0    0  501  503 -0.00000000000E+00 -0.00000000000E+00 -0.19317753925E+02  0.19317753925E+02  0.00000000000E+00 0. -1.
          6    1    1    2  501    0  0.34749862251E+02  0.10116612503E+03  0.92539735526E+03  0.94748688799E+03  0.17300000000E+03 0.  1.
         -6    1    1    2    0  502 -0.34749862251E+02 -0.10116612503E+03  0.12419143681E+04  0.12584603432E+04  0.17300000000E+03 0.  1.
<mgrwt>
<rscale>  2 0.20339896E+03</rscale>
<asrwt>0</asrwt>
<pdfrwt beam="1">  1       21 0.33640434E+00 0.20339896E+03</pdfrwt>
<pdfrwt beam="2">  1       21 0.29719639E-02 0.20339896E+03</pdfrwt>
<totfact> 0.13346042E+04</totfact>
</mgrwt>
</event>
<event>
 4    1  0.4495571E+000  0.2006511E+03  0.7546771E-02  0.1149191E+00
         21   -1    0    0  501  502  0.00000000000E+00  0.00000000000E+00  0.12864787988E+03  0.12864787988E+03  0.00000000000E+00 0.  1.
         21   -1    0    0  502  503 -0.00000000000E+00 -0.00000000000E+00 -0.32043309401E+03  0.32043309401E+03  0.00000000000E+00 0. -1.
          6    1    1    2  501    0 -0.64437170955E+02 -0.78611122407E+02 -0.61587959261E+02  0.20989029109E+03  0.17300000000E+03 0.  1.
         -6    1    1    2    0  503  0.64437170955E+02  0.78611122407E+02 -0.13019725487E+03  0.23919068281E+03  0.17300000000E+03 0. -1.
<mgrwt>
<rscale>  2 0.20065108E+03</rscale>
<asrwt>0</asrwt>
<pdfrwt beam="1">  1       21 0.19791982E-01 0.20065108E+03</pdfrwt>
<pdfrwt beam="2">  1       21 0.49297398E-01 0.20065108E+03</pdfrwt>
<totfact> 0.92067015E+04</totfact>
</mgrwt>
</event>
<event>
 4    1  0.4495571E+000  0.1757662E+03  0.7546771E-02  0.1171965E+00
         21   -1    0    0  503  502  0.00000000000E+00  0.00000000000E+00  0.12849651612E+03  0.12849651612E+03  0.00000000000E+00 0.  1.
         21   -1    0    0  501  503 -0.00000000000E+00 -0.00000000000E+00 -0.25268060698E+03  0.25268060698E+03  0.00000000000E+00 0.  1.
          6    1    1    2  501    0  0.31033932466E+02 -0.12920431605E+01 -0.20118238090E+02  0.17691387126E+03  0.17300000000E+03 0.  1.
         -6    1    1    2    0  502 -0.31033932466E+02  0.12920431605E+01 -0.10406585277E+03  0.20426325184E+03  0.17300000000E+03 0.  1.
<mgrwt>
<rscale>  2 0.17576625E+03</rscale>
<asrwt>0</asrwt>
<pdfrwt beam="1">  1       21 0.19768695E-01 0.17576625E+03</pdfrwt>
<pdfrwt beam="2">  1       21 0.38873939E-01 0.17576625E+03</pdfrwt>
<totfact> 0.15133778E+05</totfact>
</mgrwt>
</event>
<event>
 4    1  0.4495571E+000  0.2994329E+03  0.7546771E-02  0.1085524E+00
         21   -1    0    0  503  502  0.00000000000E+00  0.00000000000E+00  0.39086135771E+02  0.39086135771E+02  0.00000000000E+00 0. -1.
         21   -1    0    0  501  503 -0.00000000000E+00 -0.00000000000E+00 -0.23162838991E+04  0.23162838991E+04  0.00000000000E+00 0.  1.
          6    1    1    2  501    0  0.24414502830E+03 -0.11146347383E+02 -0.12543471420E+04  0.12895917139E+04  0.17300000000E+03 0.  1.
         -6    1    1    2    0  502 -0.24414502830E+03  0.11146347383E+02 -0.10228506213E+04  0.10657783209E+04  0.17300000000E+03 0.  1.
<mgrwt>
<rscale>  2 0.29943286E+03</rscale>
<asrwt>0</asrwt>
<pdfrwt beam="1">  1       21 0.60132519E-02 0.29943286E+03</pdfrwt>
<pdfrwt beam="2">  1       21 0.35635136E+00 0.29943286E+03</pdfrwt>
<totfact> 0.28115329E+03</totfact>
</mgrwt>
</event>
<event>
 4    1  0.4495571E+000  0.2215883E+03  0.7546771E-02  0.1132704E+00
         21   -1    0    0  501  502  0.00000000000E+00  0.00000000000E+00  0.25989943412E+03  0.25989943412E+03  0.00000000000E+00 0. -1.
         21   -1    0    0  502  503 -0.00000000000E+00 -0.00000000000E+00 -0.50826504198E+03  0.50826504198E+03  0.00000000000E+00 0.  1.
          6    1    1    2  501    0 -0.11337694275E+03  0.79486145609E+02  0.18026027953E+03  0.28564864234E+03  0.17300000000E+03 0. -1.
         -6    1    1    2    0  503  0.11337694275E+03 -0.79486145609E+02 -0.42862588739E+03  0.48251583377E+03  0.17300000000E+03 0.  1.
<mgrwt>
<rscale>  2 0.22158831E+03</rscale>
<asrwt>0</asrwt>
<pdfrwt beam="1">  1       21 0.39984529E-01 0.22158831E+03</pdfrwt>
<pdfrwt beam="2">  1       21 0.78194621E-01 0.22158831E+03</pdfrwt>
<totfact> 0.85571316E+03</totfact>
</mgrwt>
</event>
<event>
 4    1  0.4495571E+000  0.1850377E+03  0.7546771E-02  0.1163015E+00
         21   -1    0    0  503  502  0.00000000000E+00  0.00000000000E+00  0.45927687914E+03  0.45927687914E+03  0.00000000000E+00 0.  1.
         21   -1    0    0  501  503 -0.00000000000E+00 -0.00000000000E+00 -0.75048214499E+02  0.75048214499E+02  0.00000000000E+00 0.  1.
          6    1    1    2  501    0 -0.45240345351E+02 -0.47573674932E+02  0.17033954467E+03  0.25150448082E+03  0.17300000000E+03 0.  1.
         -6    1    1    2    0  502  0.45240345351E+02  0.47573674932E+02  0.21388911998E+03  0.28282061282E+03  0.17300000000E+03 0.  1.
<mgrwt>
<rscale>  2 0.18503768E+03</rscale>
<asrwt>0</asrwt>
<pdfrwt beam="1">  1       21 0.70657979E-01 0.18503768E+03</pdfrwt>
<pdfrwt beam="2">  1       21 0.11545879E-01 0.18503768E+03</pdfrwt>
<totfact> 0.11443188E+05</totfact>
</mgrwt>
</event>
<event>
 4    1  0.4495571E+000  0.4261595E+03  0.7546771E-02  0.1035080E+00
         21   -1    0    0  503  502  0.00000000000E+00  0.00000000000E+00  0.22717721408E+04  0.22717721408E+04  0.00000000000E+00 0.  1.
         21   -1    0    0  501  503 -0.00000000000E+00 -0.00000000000E+00 -0.95934239335E+02  0.95934239335E+02  0.00000000000E+00 0. -1.
          6    1    1    2  501    0  0.38403412046E+03  0.64813110508E+02  0.60457743877E+03  0.73967954172E+03  0.17300000000E+03 0. -1.
         -6    1    1    2    0  502 -0.38403412046E+03 -0.64813110508E+02  0.15712604627E+04  0.16280268384E+04  0.17300000000E+03 0.  1.
<mgrwt>
<rscale>  2 0.42615953E+03</rscale>
<asrwt>0</asrwt>
<pdfrwt beam="1">  1       21 0.34950336E+00 0.42615953E+03</pdfrwt>
<pdfrwt beam="2">  1       21 0.14759116E-01 0.42615953E+03</pdfrwt>
<totfact> 0.56779652E+02</totfact>
</mgrwt>
</event>
<event>
 4    1  0.4495571E+000  0.2030621E+03  0.7546771E-02  0.1147181E+00
         21   -1    0    0  501  502  0.00000000000E+00  0.00000000000E+00  0.69226109672E+02  0.69226109672E+02  0.00000000000E+00 0.  1.
         21   -1    0    0  502  503 -0.00000000000E+00 -0.00000000000E+00 -0.92136085274E+03  0.92136085274E+03  0.00000000000E+00 0.  1.
          6    1    1    2  501    0  0.49017390381E+02  0.94353144547E+02 -0.13157988077E+03  0.24196587666E+03  0.17300000000E+03 0.  1.
         -6    1    1    2    0  503 -0.49017390381E+02 -0.94353144547E+02 -0.72055486231E+03  0.74862108576E+03  0.17300000000E+03 0.  1.
<mgrwt>
<rscale>  2 0.20306211E+03</rscale>
<asrwt>0</asrwt>
<pdfrwt beam="1">  1       21 0.10650172E-01 0.20306211E+03</pdfrwt>
<pdfrwt beam="2">  1       21 0.14174781E+00 0.20306211E+03</pdfrwt>
<totfact> 0.24984992E+04</totfact>
</mgrwt>
</event>
<event>
 4    1  0.4495571E+000  0.1849951E+03  0.7546771E-02  0.1163055E+00
         21   -1    0    0  501  502  0.00000000000E+00  0.00000000000E+00  0.38952556186E+02  0.38952556186E+02  0.00000000000E+00 0.  1.
         21   -1    0    0  502  503 -0.00000000000E+00 -0.00000000000E+00 -0.90923038676E+03  0.90923038676E+03  0.00000000000E+00 0. -1.
          6    1    1    2  501    0  0.16558600890E+02  0.63403341713E+02 -0.34810258870E+03  0.39420626995E+03  0.17300000000E+03 0.  1.
         -6    1    1    2    0  503 -0.16558600890E+02 -0.63403341713E+02 -0.52217524187E+03  0.55397667300E+03  0.17300000000E+03 0. -1.
<mgrwt>
<rscale>  2 0.18499506E+03</rscale>
<asrwt>0</asrwt>
<pdfrwt beam="1">  1       21 0.59927014E-02 0.18499506E+03</pdfrwt>
<pdfrwt beam="2">  1       21 0.13988159E+00 0.18499506E+03</pdfrwt>
<totfact> 0.71129654E+04</totfact>
</mgrwt>
</event>
<event>
 4    1  0.4495571E+000  0.1882077E+03  0.7546771E-02  0.1160088E+00
         21   -1    0    0  503  502  0.00000000000E+00  0.00000000000E+00  0.56598398477E+02  0.56598398477E+02  0.00000000000E+00 0.  1.
         21   -1    0    0  501  503 -0.00000000000E+00 -0.00000000000E+00 -0.88752387524E+03  0.88752387524E+03  0.00000000000E+00 0. -1.
          6    1    1    2  501    0  0.13112649464E+02  0.72946623150E+02 -0.67178585064E+03  0.69765204832E+03  0.17300000000E+03 0. -1.
         -6    1    1    2    0  502 -0.13112649464E+02 -0.72946623150E+02 -0.15913962612E+03  0.24647022540E+03  0.17300000000E+03 0.  1.
<mgrwt>
<rscale>  2 0.18820773E+03</rscale>
<asrwt>0</asrwt>
<pdfrwt beam="1">  1       21 0.87074469E-02 0.18820773E+03</pdfrwt>
<pdfrwt beam="2">  1       21 0.13654212E+00 0.18820773E+03</pdfrwt>
<totfact> 0.39600360E+04</totfact>
</mgrwt>
</event>
<event>
 4    1  0.4495571E+000  0.1757038E+03  0.7546771E-02  0.1172027E+00
         21   -1    0    0  501  502  0.00000000000E+00  0.00000000000E+00  0.78291984376E+02  0.78291984376E+02  0.00000000000E+00 0. -1.
         21   -1    0    0  502  503 -0.00000000000E+00 -0.00000000000E+00 -0.58763495853E+03  0.58763495853E+03  0.00000000000E+00 0. -1.
          6    1    1    2  501    0  0.13561732413E+02 -0.27548267300E+02 -0.63695242375E+02  0.18689278081E+03  0.17300000000E+03 0. -1.
         -6    1    1    2    0  503 -0.13561732413E+02  0.27548267300E+02 -0.44564773178E+03  0.47903416210E+03  0.17300000000E+03 0. -1.
<mgrwt>
<rscale>  2 0.17570381E+03</rscale>
<asrwt>0</asrwt>
<pdfrwt beam="1">  1       21 0.12044921E-01 0.17570381E+03</pdfrwt>
<pdfrwt beam="2">  1       21 0.90405376E-01 0.17570381E+03</pdfrwt>
<totfact> 0.61089810E+04</totfact>
</mgrwt>
</event>
<event>
 4    1  0.4495571E+000  0.2114658E+03  0.7546771E-02  0.1140410E+00
         21   -1    0    0  503  502  0.00000000000E+00  0.00000000000E+00  0.71417372610E+02  0.71417372610E+02  0.00000000000E+00 0.  1.
         21   -1    0    0  501  503 -0.00000000000E+00 -0.00000000000E+00 -0.78084570152E+03  0.78084570152E+03  0.00000000000E+00 0.  1.
          6    1    1    2  501    0 -0.95712486650E+02  0.75019300680E+02 -0.54438666081E+03  0.58401593475E+03  0.17300000000E+03 0.  1.
         -6    1    1    2    0  502  0.95712486650E+02 -0.75019300680E+02 -0.16504166810E+03  0.26824713938E+03  0.17300000000E+03 0.  1.
<mgrwt>
<rscale>  2 0.21146578E+03</rscale>
<asrwt>0</asrwt>
<pdfrwt beam="1">  1       21 0.10987288E-01 0.21146578E+03</pdfrwt>
<pdfrwt beam="2">  1       21 0.12013011E+00 0.21146578E+03</pdfrwt>
<totfact> 0.35788720E+04</totfact>
</mgrwt>
</event>
<event>
 4    1  0.4495571E+000  0.2809464E+03  0.7546771E-02  0.1095173E+00
         21   -1    0    0  501  502  0.00000000000E+00  0.00000000000E+00  0.18518303579E+03  0.18518303579E+03  0.00000000000E+00 0. -1.
         21   -1    0    0  502  503 -0.00000000000E+00 -0.00000000000E+00 -0.15994094850E+04  0.15994094850E+04  0.00000000000E+00 0.  1.
          6    1    1    2  501    0  0.14632043286E+03 -0.16610902974E+03  0.57094029684E+02  0.28668904245E+03  0.17300000000E+03 0. -1.
         -6    1    1    2    0  503 -0.14632043286E+03  0.16610902974E+03 -0.14713204788E+04  0.14979034783E+04  0.17300000000E+03 0.  1.
<mgrwt>
<rscale>  2 0.28094640E+03</rscale>
<asrwt>0</asrwt>
<pdfrwt beam="1">  1       21 0.28489698E-01 0.28094640E+03</pdfrwt>
<pdfrwt beam="2">  1       21 0.24606300E+00 0.28094640E+03</pdfrwt>
<totfact> 0.75364754E+02</totfact>
</mgrwt>
</event>
<event>
 4    1  0.4495571E+000  0.1984317E+03  0.7546771E-02  0.1151069E+00
         21   -1    0    0  501  502  0.00000000000E+00  0.00000000000E+00  0.29899022689E+03  0.29899022689E+03  0.00000000000E+00 0. -1.
         21   -1    0    0  502  503 -0.00000000000E+00 -0.00000000000E+00 -0.31107735293E+03  0.31107735293E+03  0.00000000000E+00 0. -1.
          6    1    1    2  501    0 -0.88016774452E+02  0.41221249230E+02  0.22559194030E+03  0.30044444995E+03  0.17300000000E+03 0. -1.
         -6    1    1    2    0  503  0.88016774452E+02 -0.41221249230E+02 -0.23767906634E+03  0.30962312987E+03  0.17300000000E+03 0. -1.
<mgrwt>
<rscale>  2 0.19843171E+03</rscale>
<asrwt>0</asrwt>
<pdfrwt beam="1">  1       21 0.45998497E-01 0.19843171E+03</pdfrwt>
<pdfrwt beam="2">  1       21 0.47858054E-01 0.19843171E+03</pdfrwt>
<totfact> 0.18837238E+04</totfact>
</mgrwt>
</event>
<event>
 4    1  0.4495571E+000  0.1893398E+03  0.7546771E-02  0.1159058E+00
         21   -1    0    0  501  502  0.00000000000E+00  0.00000000000E+00  0.23972398436E+03  0.23972398436E+03  0.00000000000E+00 0.  1.
         21   -1    0    0  502  503 -0.00000000000E+00 -0.00000000000E+00 -0.31438908325E+03  0.31438908325E+03  0.00000000000E+00 0.  1.
          6    1    1    2  501    0  0.28871152575E+02  0.71323272484E+02  0.16328604718E+03  0.25002377058E+03  0.17300000000E+03 0.  1.
         -6    1    1    2    0  503 -0.28871152575E+02 -0.71323272484E+02 -0.23795114608E+03  0.30408929703E+03  0.17300000000E+03 0.  1.
<mgrwt>
<rscale>  2 0.18933978E+03</rscale>
<asrwt>0</asrwt>
<pdfrwt beam="1">  1       21 0.36880613E-01 0.18933978E+03</pdfrwt>
<pdfrwt beam="2">  1       21 0.48367551E-01 0.18933978E+03</pdfrwt>
<totfact> 0.29001638E+04</totfact>
</mgrwt>
</event>
<event>
 4    1  0.4495571E+000  0.2717183E+03  0.7546771E-02  0.1100300E+00
         21   -1    0    0  501  502  0.00000000000E+00  0.00000000000E+00  0.15716557095E+04  0.15716557095E+04  0.00000000000E+00 0. -1.
         21   -1    0    0  502  503 -0.00000000000E+00 -0.00000000000E+00 -0.49915466594E+02  0.49915466594E+02  0.00000000000E+00 0.  1.
          6    1    1    2  501    0  0.11410900616E+03  0.17572987077E+03  0.95760767488E+03  0.99541112700E+03  0.17300000000E+03 0. -1.
         -6    1    1    2    0  503 -0.11410900616E+03 -0.17572987077E+03  0.56413256798E+03  0.62616004905E+03  0.17300000000E+03 0. -1.
<mgrwt>
<rscale>  2 0.27171833E+03</rscale>
<asrwt>0</asrwt>
<pdfrwt beam="1">  1       21 0.24179315E+00 0.27171833E+03</pdfrwt>
<pdfrwt beam="2">  1       21 0.76793037E-02 0.27171833E+03</pdfrwt>
<totfact> 0.89863764E+03</totfact>
</mgrwt>
</event>
<event>
 4    1  0.4495571E+000  0.2530491E+03  0.7546771E-02  0.1111393E+00
         21   -1    0    0  503  502  0.00000000000E+00  0.00000000000E+00  0.20895993829E+03  0.20895993829E+03  0.00000000000E+00 0.  1.
         21   -1    0    0  501  503 -0.00000000000E+00 -0.00000000000E+00 -0.31039013643E+03  0.31039013643E+03  0.00000000000E+00 0.  1.
          6    1    1    2  501    0 -0.13930819029E+03 -0.12123556108E+03 -0.80006687176E+02  0.26539574817E+03  0.17300000000E+03 0.  1.
         -6    1    1    2    0  502  0.13930819029E+03  0.12123556108E+03 -0.21423510960E+02  0.25395432655E+03  0.17300000000E+03 0.  1.
<mgrwt>
<rscale>  2 0.25304907E+03</rscale>
<asrwt>0</asrwt>
<pdfrwt beam="1">  1       21 0.32147683E-01 0.25304907E+03</pdfrwt>
<pdfrwt beam="2">  1       21 0.47752329E-01 0.25304907E+03</pdfrwt>
<totfact> 0.37928000E+04</totfact>
</mgrwt>
</event>
<event>
 4    1  0.4495571E+000  0.2060849E+03  0.7546771E-02  0.1144704E+00
         21   -1    0    0  501  502  0.00000000000E+00  0.00000000000E+00  0.13887120237E+04  0.13887120237E+04  0.00000000000E+00 0. -1.
         21   -1    0    0  502  503 -0.00000000000E+00 -0.00000000000E+00 -0.41019734720E+02  0.41019734720E+02  0.00000000000E+00 0. -1.
          6    1    1    2  501    0  0.15104983489E+02  0.11096763017E+03  0.31325875673E+03  0.37496936427E+03  0.17300000000E+03 0. -1.
         -6    1    1    2    0  503 -0.15104983489E+02 -0.11096763017E+03  0.10344335323E+04  0.10547623942E+04  0.17300000000E+03 0. -1.
<mgrwt>
<rscale>  2 0.20608487E+03</rscale>
<asrwt>0</asrwt>
<pdfrwt beam="1">  1       21 0.21364797E+00 0.20608487E+03</pdfrwt>
<pdfrwt beam="2">  1       21 0.63107295E-02 0.20608487E+03</pdfrwt>
<totfact> 0.19703400E+04</totfact>
</mgrwt>
</event>
<event>
 4    1  0.4495571E+000  0.1910016E+03  0.7546771E-02  0.1157561E+00
         21   -1    0    0  501  502  0.00000000000E+00  0.00000000000E+00  0.20376304920E+03  0.20376304920E+03  0.00000000000E+00 0.  1.
         21   -1    0    0  502  503 -0.00000000000E+00 -0.00000000000E+00 -0.33376284064E+03  0.33376284064E+03  0.00000000000E+00 0. -1.
          6    1    1    2  501    0  0.32623170719E+02 -0.74083296495E+02  0.11799059081E+03  0.22450698343E+03  0.17300000000E+03 0.  1.
         -6    1    1    2    0  503 -0.32623170719E+02  0.74083296495E+02 -0.24799038225E+03  0.31301890642E+03  0.17300000000E+03 0. -1.
<mgrwt>
<rscale>  2 0.19100159E+03</rscale>
<asrwt>0</asrwt>
<pdfrwt beam="1">  1       21 0.31348162E-01 0.19100159E+03</pdfrwt>
<pdfrwt beam="2">  1       21 0.51348129E-01 0.19100159E+03</pdfrwt>
<totfact> 0.35279214E+04</totfact>
</mgrwt>
</event>
<event>
 4    1  0.4495571E+000  0.1731581E+03  0.7546771E-02  0.1174594E+00
         21   -1    0    0  503  502  0.00000000000E+00  0.00000000000E+00  0.12517979209E+04  0.12517979209E+04  0.00000000000E+00 0.  1.
         21   -1    0    0  501  503 -0.00000000000E+00 -0.00000000000E+00 -0.31218670294E+02  0.31218670294E+02  0.00000000000E+00 0.  1.
          6    1    1    2  501    0  0.47142763094E+01  0.57013612926E+01  0.30079942503E+03  0.34707927627E+03  0.17300000000E+03 0.  1.
         -6    1    1    2    0  502 -0.47142763094E+01 -0.57013612926E+01  0.91977982560E+03  0.93593731495E+03  0.17300000000E+03 0.  1.
<mgrwt>
<rscale>  2 0.17315811E+03</rscale>
<asrwt>0</asrwt>
<pdfrwt beam="1">  1       21 0.19258426E+00 0.17315811E+03</pdfrwt>
<pdfrwt beam="2">  1       21 0.48028733E-02 0.17315811E+03</pdfrwt>
<totfact> 0.43757858E+04</totfact>
</mgrwt>
</event>
<event>
 4    1  0.4495571E+000  0.2012970E+03  0.7546771E-02  0.1148649E+00
         21   -1    0    0  503  502  0.00000000000E+00  0.00000000000E+00  0.28788888916E+03  0.28788888916E+03  0.00000000000E+00 0.  1.
         21   -1    0    0  501  503 -0.00000000000E+00 -0.00000000000E+00 -0.37427874898E+03  0.37427874898E+03  0.00000000000E+00 0.  1.
          6    1    1    2  501    0 -0.43467248957E+02  0.93285025017E+02 -0.30471806099E+03  0.36520349713E+03  0.17300000000E+03 0.  1.
         -6    1    1    2    0  502  0.43467248957E+02 -0.93285025017E+02  0.21832820116E+03  0.29696414101E+03  0.17300000000E+03 0.  1.
<mgrwt>
<rscale>  2 0.20129704E+03</rscale>
<asrwt>0</asrwt>
<pdfrwt beam="1">  1       21 0.44290598E-01 0.20129704E+03</pdfrwt>
<pdfrwt beam="2">  1       21 0.57581346E-01 0.20129704E+03</pdfrwt>
<totfact> 0.13775741E+04</totfact>
</mgrwt>
</event>
<event>
 4    1  0.4495571E+000  0.1783115E+03  0.7546771E-02  0.1169447E+00
         21   -1    0    0  501  502  0.00000000000E+00  0.00000000000E+00  0.13419291743E+04  0.13419291743E+04  0.00000000000E+00 0.  1.
         21   -1    0    0  502  503 -0.00000000000E+00 -0.00000000000E+00 -0.41287293089E+02  0.41287293089E+02  0.00000000000E+00 0.  1.
          6    1    1    2  501    0 -0.26298371146E+01  0.43117099102E+02  0.11017938308E+04  0.11161293141E+04  0.17300000000E+03 0.  1.
         -6    1    1    2    0  503  0.26298371146E+01 -0.43117099102E+02  0.19884805039E+03  0.26708715323E+03  0.17300000000E+03 0.  1.
<mgrwt>
<rscale>  2 0.17831153E+03</rscale>
<asrwt>0</asrwt>
<pdfrwt beam="1">  1       21 0.20645061E+00 0.17831153E+03</pdfrwt>
<pdfrwt beam="2">  1       21 0.63518923E-02 0.17831153E+03</pdfrwt>
<totfact> 0.22089077E+04</totfact>
</mgrwt>
</event>
<event>
 4    1  0.4495571E+000  0.1845314E+03  0.7546771E-02  0.1163488E+00
         21   -1    0    0  503  502  0.00000000000E+00  0.00000000000E+00  0.27374620143E+03  0.27374620143E+03  0.00000000000E+00 0. -1.
         21   -1    0    0  501  503 -0.00000000000E+00 -0.00000000000E+00 -0.14098687679E+03  0.14098687679E+03  0.00000000000E+00 0. -1.
          6    1    1    2  501    0 -0.62517931197E+02 -0.14641158897E+02 -0.47638826134E+01  0.18459293007E+03  0.17300000000E+03 0. -1.
         -6    1    1    2    0  502  0.62517931197E+02  0.14641158897E+02  0.13752320726E+03  0.23014014815E+03  0.17300000000E+03 0. -1.
<mgrwt>
<rscale>  2 0.18453145E+03</rscale>
<asrwt>0</asrwt>
<pdfrwt beam="1">  1       21 0.42114800E-01 0.18453145E+03</pdfrwt>
<pdfrwt beam="2">  1       21 0.21690289E-01 0.18453145E+03</pdfrwt>
<totfact> 0.10789310E+05</totfact>
</mgrwt>
</event>
<event>
 4    1  0.4495571E+000  0.1813878E+03  0.7546771E-02  0.1166467E+00
         21   -1    0    0  503  502  0.00000000000E+00  0.00000000000E+00  0.10665307961E+04  0.10665307961E+04  0.00000000000E+00 0. -1.
         21   -1    0    0  501  503 -0.00000000000E+00 -0.00000000000E+00 -0.83696041765E+02  0.83696041765E+02  0.00000000000E+00 0. -1.
          6    1    1    2  501    0  0.11343279988E+02 -0.53328032958E+02  0.34423016869E+02  0.18462527777E+03  0.17300000000E+03 0. -1.
         -6    1    1    2    0  502 -0.11343279988E+02  0.53328032958E+02  0.94841173748E+03  0.96560156011E+03  0.17300000000E+03 0. -1.
<mgrwt>
<rscale>  2 0.18138784E+03</rscale>
<asrwt>0</asrwt>
<pdfrwt beam="1">  1       21 0.16408165E+00 0.18138784E+03</pdfrwt>
<pdfrwt beam="2">  1       21 0.12876315E-01 0.18138784E+03</pdfrwt>
<totfact> 0.12262379E+04</totfact>
</mgrwt>
</event>
<event>
 4    1  0.4495571E+000  0.2079695E+03  0.7546771E-02  0.1143184E+00
         21   -1    0    0  503  502  0.00000000000E+00  0.00000000000E+00  0.13357947816E+04  0.13357947816E+04  0.00000000000E+00 0.  1.
         21   -1    0    0  501  503 -0.00000000000E+00 -0.00000000000E+00 -0.33183878806E+02  0.33183878806E+02  0.00000000000E+00 0.  1.
          6    1    1    2  501    0 -0.45988553357E+02 -0.10586490502E+03  0.75792673172E+03  0.78594163639E+03  0.17300000000E+03 0.  1.
         -6    1    1    2    0  502  0.45988553357E+02  0.10586490502E+03  0.54468417109E+03  0.58303702403E+03  0.17300000000E+03 0.  1.
<mgrwt>
<rscale>  2 0.20796953E+03</rscale>
<asrwt>0</asrwt>
<pdfrwt beam="1">  1       21 0.20550685E+00 0.20796953E+03</pdfrwt>
<pdfrwt beam="2">  1       21 0.51052132E-02 0.20796953E+03</pdfrwt>
<totfact> 0.31809839E+04</totfact>
</mgrwt>
</event>
<event>
 4    1  0.4495571E+000  0.2652621E+03  0.7546771E-02  0.1104022E+00
         21   -1    0    0  501  502  0.00000000000E+00  0.00000000000E+00  0.99986686494E+03  0.99986686494E+03  0.00000000000E+00 0.  1.
         21   -1    0    0  502  503 -0.00000000000E+00 -0.00000000000E+00 -0.79940520433E+02  0.79940520433E+02  0.00000000000E+00 0. -1.
          6    1    1    2  501    0  0.18617279853E+03 -0.75991251598E+02  0.64674067248E+03  0.69902609298E+03  0.17300000000E+03 0.  1.
         -6    1    1    2    0  503 -0.18617279853E+03  0.75991251598E+02  0.27318567202E+03  0.38078129239E+03  0.17300000000E+03 0. -1.
<mgrwt>
<rscale>  2 0.26526210E+03</rscale>
<asrwt>0</asrwt>
<pdfrwt beam="1">  1       21 0.15382566E+00 0.26526210E+03</pdfrwt>
<pdfrwt beam="2">  1       21 0.12298542E-01 0.26526210E+03</pdfrwt>
<totfact> 0.15007718E+04</totfact>
</mgrwt>
</event>
<event>
 4    1  0.4495571E+000  0.1990304E+03  0.7546771E-02  0.1150560E+00
         21   -1    0    0  503  502  0.00000000000E+00  0.00000000000E+00  0.21704275001E+02  0.21704275001E+02  0.00000000000E+00 0. -1.
         21   -1    0    0  501  503 -0.00000000000E+00 -0.00000000000E+00 -0.18324295616E+04  0.18324295616E+04  0.00000000000E+00 0. -1.
          6    1    1    2  501    0 -0.35671695359E+02 -0.91714838810E+02 -0.84684278250E+03  0.86991711087E+03  0.17300000000E+03 0.  1.
         -6    1    1    2    0  502  0.35671695359E+02  0.91714838810E+02 -0.96388250413E+03  0.98421672577E+03  0.17300000000E+03 0.  1.
<mgrwt>
<rscale>  2 0.19903035E+03</rscale>
<asrwt>0</asrwt>
<pdfrwt beam="1">  1       21 0.33391197E-02 0.19903035E+03</pdfrwt>
<pdfrwt beam="2">  1       21 0.28191220E+00 0.19903035E+03</pdfrwt>
<totfact> 0.22847573E+04</totfact>
</mgrwt>
</event>
<event>
 4    1  0.4495571E+000  0.2670261E+03  0.7546771E-02  0.1102994E+00
         21   -1    0    0  503  502  0.00000000000E+00  0.00000000000E+00  0.10673487872E+04  0.10673487872E+04  0.00000000000E+00 0.  1.
         21   -1    0    0  501  503 -0.00000000000E+00 -0.00000000000E+00 -0.66806139971E+02  0.66806139971E+02  0.00000000000E+00 0. -1.
          6    1    1    2  501    0 -0.96918848468E+02 -0.17883142293E+03  0.50363678311E+03  0.57004644575E+03  0.17300000000E+03 0.  1.
         -6    1    1    2    0  502  0.96918848468E+02  0.17883142293E+03  0.49690586414E+03  0.56410848144E+03  0.17300000000E+03 0.  1.
<mgrwt>
<rscale>  2 0.26702611E+03</rscale>
<asrwt>0</asrwt>
<pdfrwt beam="1">  1       21 0.16420749E+00 0.26702611E+03</pdfrwt>
<pdfrwt beam="2">  1       21 0.10277868E-01 0.26702611E+03</pdfrwt>
<totfact> 0.17316292E+04</totfact>
</mgrwt>
</event>
<event>
 4    1  0.4495571E+000  0.1827449E+03  0.7546771E-02  0.1165173E+00
         21   -1    0    0  503  502  0.00000000000E+00  0.00000000000E+00  0.52451470247E+03  0.52451470247E+03  0.00000000000E+00 0. -1.
         21   -1    0    0  501  503 -0.00000000000E+00 -0.00000000000E+00 -0.77375616710E+02  0.77375616710E+02  0.00000000000E+00 0. -1.
          6    1    1    2  501    0  0.10930539659E+02  0.57855087515E+02  0.96909531353E+02  0.20685053811E+03  0.17300000000E+03 0. -1.
         -6    1    1    2    0  502 -0.10930539659E+02 -0.57855087515E+02  0.35022955440E+03  0.39503978107E+03  0.17300000000E+03 0. -1.
<mgrwt>
<rscale>  2 0.18274487E+03</rscale>
<asrwt>0</asrwt>
<pdfrwt beam="1">  1       21 0.80694567E-01 0.18274487E+03</pdfrwt>
<pdfrwt beam="2">  1       21 0.11903941E-01 0.18274487E+03</pdfrwt>
<totfact> 0.80626935E+04</totfact>
</mgrwt>
</event>
<event>
 4    1  0.4495571E+000  0.2372787E+03  0.7546771E-02  0.1121619E+00
         21   -1    0    0  503  502  0.00000000000E+00  0.00000000000E+00  0.36066803537E+03  0.36066803537E+03  0.00000000000E+00 0.  1.
         21   -1    0    0  501  503 -0.00000000000E+00 -0.00000000000E+00 -0.27891852084E+03  0.27891852084E+03  0.00000000000E+00 0. -1.
          6    1    1    2  501    0 -0.15968670225E+03  0.29535148960E+02 -0.17133152383E+03  0.29266988051E+03  0.17300000000E+03 0. -1.
         -6    1    1    2    0  502  0.15968670225E+03 -0.29535148960E+02  0.25308103836E+03  0.34691667570E+03  0.17300000000E+03 0.  1.
<mgrwt>
<rscale>  2 0.23727867E+03</rscale>
<asrwt>0</asrwt>
<pdfrwt beam="1">  1       21 0.55487390E-01 0.23727867E+03</pdfrwt>
<pdfrwt beam="2">  1       21 0.42910542E-01 0.23727867E+03</pdfrwt>
<totfact> 0.15574513E+04</totfact>
</mgrwt>
</event>
<event>
 4    1  0.4495571E+000  0.1773313E+03  0.7546771E-02  0.1170411E+00
         21   -1    0    0  503  502  0.00000000000E+00  0.00000000000E+00  0.20784901966E+03  0.20784901966E+03  0.00000000000E+00 0.  1.
         21   -1    0    0  501  503 -0.00000000000E+00 -0.00000000000E+00 -0.21224477312E+03  0.21224477312E+03  0.00000000000E+00 0.  1.
          6    1    1    2  501    0 -0.37536160548E+02  0.10412959095E+02 -0.11475835903E+03  0.21122470034E+03  0.17300000000E+03 0.  1.
         -6    1    1    2    0  502  0.37536160548E+02 -0.10412959095E+02  0.11036260557E+03  0.20886909244E+03  0.17300000000E+03 0.  1.
<mgrwt>
<rscale>  2 0.17733131E+03</rscale>
<asrwt>0</asrwt>
<pdfrwt beam="1">  1       21 0.31976772E-01 0.17733131E+03</pdfrwt>
<pdfrwt beam="2">  1       21 0.32653042E-01 0.17733131E+03</pdfrwt>
<totfact> 0.85421165E+04</totfact>
</mgrwt>
</event>
<event>
 4    1  0.4495571E+000  0.1868008E+03  0.7546771E-02  0.1161379E+00
         21   -1    0    0  501  502  0.00000000000E+00  0.00000000000E+00  0.16379811440E+04  0.16379811440E+04  0.00000000000E+00 0. -1.
         21   -1    0    0  502  503 -0.00000000000E+00 -0.00000000000E+00 -0.30494318736E+02  0.30494318736E+02  0.00000000000E+00 0.  1.
          6    1    1    2  501    0  0.14827420502E+02  0.68888890316E+02  0.12617379959E+04  0.12754910043E+04  0.17300000000E+03 0. -1.
         -6    1    1    2    0  503 -0.14827420502E+02 -0.68888890316E+02  0.34574882933E+03  0.39298445846E+03  0.17300000000E+03 0.  1.
<mgrwt>
<rscale>  2 0.18680078E+03</rscale>
<asrwt>0</asrwt>
<pdfrwt beam="1">  1       21 0.25199703E+00 0.18680078E+03</pdfrwt>
<pdfrwt beam="2">  1       21 0.46914349E-02 0.18680078E+03</pdfrwt>
<totfact> 0.19492678E+04</totfact>
</mgrwt>
</event>
<event>
 4    1  0.4495571E+000  0.2160301E+03  0.7546771E-02  0.1136878E+00
         21   -1    0    0  503  502  0.00000000000E+00  0.00000000000E+00  0.46336260694E+03  0.46336260694E+03  0.00000000000E+00 0.  1.
         21   -1    0    0  501  503 -0.00000000000E+00 -0.00000000000E+00 -0.20398226217E+03  0.20398226217E+03  0.00000000000E+00 0.  1.
          6    1    1    2  501    0 -0.24414296191E+02 -0.12705878779E+03 -0.10771981078E+03  0.24139708169E+03  0.17300000000E+03 0.  1.
         -6    1    1    2    0  502  0.24414296191E+02  0.12705878779E+03  0.36710015555E+03  0.42594778743E+03  0.17300000000E+03 0.  1.
<mgrwt>
<rscale>  2 0.21603008E+03</rscale>
<asrwt>0</asrwt>
<pdfrwt beam="1">  1       21 0.71286555E-01 0.21603008E+03</pdfrwt>
<pdfrwt beam="2">  1       21 0.31381887E-01 0.21603008E+03</pdfrwt>
<totfact> 0.17122889E+04</totfact>
</mgrwt>
</event>
<event>
 4    1  0.4495571E+000  0.2032087E+03  0.7546771E-02  0.1147060E+00
         21   -1    0    0  503  502  0.00000000000E+00  0.00000000000E+00  0.43594752479E+03  0.43594752479E+03  0.00000000000E+00 0.  1.
         21   -1    0    0  501  503 -0.00000000000E+00 -0.00000000000E+00 -0.10375296723E+03  0.10375296723E+03  0.00000000000E+00 0.  1.
          6    1    1    2  501    0  0.13425174463E+02 -0.10575704373E+03  0.86482891954E+02  0.22084627733E+03  0.17300000000E+03 0.  1.
         -6    1    1    2    0  502 -0.13425174463E+02  0.10575704373E+03  0.24571166561E+03  0.31885421469E+03  0.17300000000E+03 0.  1.
<mgrwt>
<rscale>  2 0.20320873E+03</rscale>
<asrwt>0</asrwt>
<pdfrwt beam="1">  1       21 0.67068849E-01 0.20320873E+03</pdfrwt>
<pdfrwt beam="2">  1       21 0.15961995E-01 0.20320873E+03</pdfrwt>
<totfact> 0.70942324E+04</totfact>
</mgrwt>
</event>
<event>
 4    1  0.4495571E+000  0.1789351E+03  0.7546771E-02  0.1168838E+00
         21   -1    0    0  501  502  0.00000000000E+00  0.00000000000E+00  0.29880473342E+03  0.29880473342E+03  0.00000000000E+00 0.  1.
         21   -1    0    0  502  503 -0.00000000000E+00 -0.00000000000E+00 -0.89076188810E+03  0.89076188810E+03  0.00000000000E+00 0.  1.
          6    1    1    2  501    0 -0.95918442474E+01 -0.44685358906E+02  0.26188457052E+03  0.31717710045E+03  0.17300000000E+03 0.  1.
         -6    1    1    2    0  503  0.95918442474E+01  0.44685358906E+02 -0.85384172520E+03  0.87238952107E+03  0.17300000000E+03 0.  1.
<mgrwt>
<rscale>  2 0.17893514E+03</rscale>
<asrwt>0</asrwt>
<pdfrwt beam="1">  1       21 0.45969959E-01 0.17893514E+03</pdfrwt>
<pdfrwt beam="2">  1       21 0.13704029E+00 0.17893514E+03</pdfrwt>
<totfact> 0.17381545E+03</totfact>
</mgrwt>
</event>
<event>
 4    1  0.4495571E+000  0.1749126E+03  0.7546771E-02  0.1172819E+00
         21   -1    0    0  501  502  0.00000000000E+00  0.00000000000E+00  0.11663188174E+04  0.11663188174E+04  0.00000000000E+00 0.  1.
         21   -1    0    0  502  503 -0.00000000000E+00 -0.00000000000E+00 -0.11041802532E+03  0.11041802532E+03  0.00000000000E+00 0.  1.
          6    1    1    2  501    0  0.12134152496E+02  0.22763664710E+02  0.10853573882E+04  0.10993612155E+04  0.17300000000E+03 0.  1.
         -6    1    1    2    0  503 -0.12134152496E+02 -0.22763664710E+02 -0.29456596076E+02  0.17737562724E+03  0.17300000000E+03 0.  1.
<mgrwt>
<rscale>  2 0.17491261E+03</rscale>
<asrwt>0</asrwt>
<pdfrwt beam="1">  1       21 0.17943366E+00 0.17491261E+03</pdfrwt>
<pdfrwt beam="2">  1       21 0.16987389E-01 0.17491261E+03</pdfrwt>
<totfact> 0.58273109E+03</totfact>
</mgrwt>
</event>
<event>
 4    1  0.4495571E+000  0.2155588E+03  0.7546771E-02  0.1137238E+00
         21   -1    0    0  503  502  0.00000000000E+00  0.00000000000E+00  0.17962861852E+04  0.17962861852E+04  0.00000000000E+00 0.  1.
         21   -1    0    0  501  503 -0.00000000000E+00 -0.00000000000E+00 -0.29878818980E+02  0.29878818980E+02  0.00000000000E+00 0. -1.
          6    1    1    2  501    0 -0.90730039625E+02  0.91129918807E+02  0.54864923857E+03  0.58947569006E+03  0.17300000000E+03 0. -1.
         -6    1    1    2    0  502  0.90730039625E+02 -0.91129918807E+02  0.12177581277E+04  0.12366893142E+04  0.17300000000E+03 0.  1.
<mgrwt>
<rscale>  2 0.21555881E+03</rscale>
<asrwt>0</asrwt>
<pdfrwt beam="1">  1       21 0.27635164E+00 0.21555881E+03</pdfrwt>
<pdfrwt beam="2">  1       21 0.45967428E-02 0.21555881E+03</pdfrwt>
<totfact> 0.14177537E+04</totfact>
</mgrwt>
</event>
<event>
 4    1  0.4495571E+000  0.2372552E+03  0.7546771E-02  0.1121635E+00
         21   -1    0    0  503  502  0.00000000000E+00  0.00000000000E+00  0.61268497990E+02  0.61268497990E+02  0.00000000000E+00 0.  1.
         21   -1    0    0  501  503 -0.00000000000E+00 -0.00000000000E+00 -0.13420886513E+04  0.13420886513E+04  0.00000000000E+00 0.  1.
          6    1    1    2  501    0 -0.13705271829E+03  0.87049402387E+02 -0.10344995281E+04  0.10613573007E+04  0.17300000000E+03 0.  1.
         -6    1    1    2    0  502  0.13705271829E+03 -0.87049402387E+02 -0.24632062517E+03  0.34199984858E+03  0.17300000000E+03 0.  1.
<mgrwt>
<rscale>  2 0.23725523E+03</rscale>
<asrwt>0</asrwt>
<pdfrwt beam="1">  1       21 0.94259234E-02 0.23725523E+03</pdfrwt>
<pdfrwt beam="2">  1       21 0.20647516E+00 0.23725523E+03</pdfrwt>
<totfact> 0.10618877E+04</totfact>
</mgrwt>
</event>
<event>
 4    1  0.4495571E+000  0.2590711E+03  0.7546771E-02  0.1107703E+00
         21   -1    0    0  501  502  0.00000000000E+00  0.00000000000E+00  0.62436430685E+02  0.62436430685E+02  0.00000000000E+00 0.  1.
         21   -1    0    0  502  503 -0.00000000000E+00 -0.00000000000E+00 -0.10772991020E+04  0.10772991020E+04  0.00000000000E+00 0. -1.
          6    1    1    2  501    0 -0.18676212306E+03 -0.48049529870E+02 -0.53387765971E+03  0.59341655140E+03  0.17300000000E+03 0.  1.
         -6    1    1    2    0  503  0.18676212306E+03  0.48049529870E+02 -0.48098501159E+03  0.54631898128E+03  0.17300000000E+03 0. -1.
<mgrwt>
<rscale>  2 0.25907113E+03</rscale>
<asrwt>0</asrwt>
<pdfrwt beam="1">  1       21 0.96056043E-02 0.25907113E+03</pdfrwt>
<pdfrwt beam="2">  1       21 0.16573833E+00 0.25907113E+03</pdfrwt>
<totfact> 0.19117882E+04</totfact>
</mgrwt>
</event>
<event>
 4    1  0.4495571E+000  0.2285955E+03  0.7546771E-02  0.1127632E+00
         21   -1    0    0  503  502  0.00000000000E+00  0.00000000000E+00  0.64055181732E+03  0.64055181732E+03  0.00000000000E+00 0. -1.
         21   -1    0    0  501  503 -0.00000000000E+00 -0.00000000000E+00 -0.90427690952E+02  0.90427690952E+02  0.00000000000E+00 0.  1.
          6    1    1    2  501    0  0.12575458884E+03  0.80701166746E+02  0.16073427333E+03  0.27944838799E+03  0.17300000000E+03 0.  1.
         -6    1    1    2    0  502 -0.12575458884E+03 -0.80701166746E+02  0.38938985303E+03  0.45153112027E+03  0.17300000000E+03 0. -1.
<mgrwt>
<rscale>  2 0.22859548E+03</rscale>
<asrwt>0</asrwt>
<pdfrwt beam="1">  1       21 0.98546431E-01 0.22859548E+03</pdfrwt>
<pdfrwt beam="2">  1       21 0.13911953E-01 0.22859548E+03</pdfrwt>
<totfact> 0.37514942E+04</totfact>
</mgrwt>
</event>
<event>
 4    1  0.4495571E+000  0.1768187E+03  0.7546771E-02  0.1170918E+00
         21   -1    0    0  503  502  0.00000000000E+00  0.00000000000E+00  0.60485525913E+03  0.60485525913E+03  0.00000000000E+00 0.  1.
         21   -1    0    0  501  503 -0.00000000000E+00 -0.00000000000E+00 -0.46736455005E+03  0.46736455005E+03  0.00000000000E+00 0.  1.
          6    1    1    2  501    0  0.77759493477E+01 -0.35712775215E+02 -0.43684962354E+03  0.47127747802E+03  0.17300000000E+03 0.  1.
         -6    1    1    2    0  502 -0.77759493477E+01  0.35712775215E+02  0.57434033263E+03  0.60094233116E+03  0.17300000000E+03 0.  1.
<mgrwt>
<rscale>  2 0.17681874E+03</rscale>
<asrwt>0</asrwt>
<pdfrwt beam="1">  1       21 0.93054655E-01 0.17681874E+03</pdfrwt>
<pdfrwt beam="2">  1       21 0.71902238E-01 0.17681874E+03</pdfrwt>
<totfact> 0.17238046E+03</totfact>
</mgrwt>
</event>
<event>
 4    1  0.4495571E+000  0.3025333E+03  0.7546771E-02  0.1083981E+00
         21   -1    0    0  501  502  0.00000000000E+00  0.00000000000E+00  0.16914161888E+04  0.16914161888E+04  0.00000000000E+00 0. -1.
         21   -1    0    0  502  503 -0.00000000000E+00 -0.00000000000E+00 -0.58031915466E+02  0.58031915466E+02  0.00000000000E+00 0. -1.
          6    1    1    2  501    0  0.49982604704E+02  0.24310308081E+03  0.10440243790E+04  0.10869743661E+04  0.17300000000E+03 0. -1.
         -6    1    1    2    0  503 -0.49982604704E+02 -0.24310308081E+03  0.58935989429E+03  0.66247373810E+03  0.17300000000E+03 0. -1.
<mgrwt>
<rscale>  2 0.30253325E+03</rscale>
<asrwt>0</asrwt>
<pdfrwt beam="1">  1       21 0.26021784E+00 0.30253325E+03</pdfrwt>
<pdfrwt beam="2">  1       21 0.89279883E-02 0.30253325E+03</pdfrwt>
<totfact> 0.52339869E+03</totfact>
</mgrwt>
</event>
<event>
 4    1  0.4495571E+000  0.2383032E+03  0.7546771E-02  0.1120928E+00
         21   -1    0    0  503  502  0.00000000000E+00  0.00000000000E+00  0.11178195924E+04  0.11178195924E+04  0.00000000000E+00 0.  1.
         21   -1    0    0  501  503 -0.00000000000E+00 -0.00000000000E+00 -0.50962564751E+02  0.50962564751E+02  0.00000000000E+00 0. -1.
          6    1    1    2  501    0  0.15275393689E+03  0.59377189183E+02  0.50071276677E+03  0.55452834972E+03  0.17300000000E+03 0.  1.
         -6    1    1    2    0  502 -0.15275393689E+03 -0.59377189183E+02  0.56614426093E+03  0.61425380748E+03  0.17300000000E+03 0. -1.
<mgrwt>
<rscale>  2 0.23830320E+03</rscale>
<asrwt>0</asrwt>
<pdfrwt beam="1">  1       21 0.17197223E+00 0.23830320E+03</pdfrwt>
<pdfrwt beam="2">  1       21 0.78403955E-02 0.23830320E+03</pdfrwt>
<totfact> 0.24954745E+04</totfact>
</mgrwt>
</event>
<event>
 4    1  0.4495571E+000  0.1843861E+03  0.7546771E-02  0.1163624E+00
         21   -1    0    0  501  502  0.00000000000E+00  0.00000000000E+00  0.66627205863E+03  0.66627205863E+03  0.00000000000E+00 0. -1.
         21   -1    0    0  502  503 -0.00000000000E+00 -0.00000000000E+00 -0.52266050804E+02  0.52266050804E+02  0.00000000000E+00 0. -1.
          6    1    1    2  501    0 -0.47899559394E+02 -0.42129113305E+02  0.36230723098E+03  0.40652768614E+03  0.17300000000E+03 0. -1.
         -6    1    1    2    0  503  0.47899559394E+02  0.42129113305E+02  0.25169877684E+03  0.31201042329E+03  0.17300000000E+03 0. -1.
<mgrwt>
<rscale>  2 0.18438609E+03</rscale>
<asrwt>0</asrwt>
<pdfrwt beam="1">  1       21 0.10250339E+00 0.18438609E+03</pdfrwt>
<pdfrwt beam="2">  1       21 0.80409314E-02 0.18438609E+03</pdfrwt>
<totfact> 0.92378024E+04</totfact>
</mgrwt>
</event>
<event>
 4    1  0.4495571E+000  0.2455651E+03  0.7546771E-02  0.1116140E+00
         21   -1    0    0  503  502  0.00000000000E+00  0.00000000000E+00  0.60709245264E+03  0.60709245264E+03  0.00000000000E+00 0.  1.
         21   -1    0    0  501  503 -0.00000000000E+00 -0.00000000000E+00 -0.11634151241E+03  0.11634151241E+03  0.00000000000E+00 0. -1.
          6    1    1    2  501    0  0.84817842233E+00 -0.17427703205E+03  0.10705734051E+03  0.26788706102E+03  0.17300000000E+03 0. -1.
         -6    1    1    2    0  502 -0.84817842233E+00  0.17427703205E+03  0.38369359971E+03  0.45554690403E+03  0.17300000000E+03 0.  1.
<mgrwt>
<rscale>  2 0.24556507E+03</rscale>
<asrwt>0</asrwt>
<pdfrwt beam="1">  1       21 0.93398837E-01 0.24556507E+03</pdfrwt>
<pdfrwt beam="2">  1       21 0.17898695E-01 0.24556507E+03</pdfrwt>
<totfact> 0.26582893E+04</totfact>
</mgrwt>
</event>
<event>
 4    1  0.4495571E+000  0.2422294E+03  0.7546771E-02  0.1118317E+00
         21   -1    0    0  501  502  0.00000000000E+00  0.00000000000E+00  0.55438636477E+03  0.55438636477E+03  0.00000000000E+00 0. -1.
         21   -1    0    0  502  503 -0.00000000000E+00 -0.00000000000E+00 -0.25953113030E+03  0.25953113030E+03  0.00000000000E+00 0.  1.
          6    1    1    2  501    0  0.96922169184E+02 -0.13911207832E+03  0.46059971208E+03  0.52041058020E+03  0.17300000000E+03 0. -1.
         -6    1    1    2    0  503 -0.96922169184E+02  0.13911207832E+03 -0.16574447762E+03  0.29350691487E+03  0.17300000000E+03 0.  1.
<mgrwt>
<rscale>  2 0.24222939E+03</rscale>
<asrwt>0</asrwt>
<pdfrwt beam="1">  1       21 0.85290210E-01 0.24222939E+03</pdfrwt>
<pdfrwt beam="2">  1       21 0.39927866E-01 0.24222939E+03</pdfrwt>
<totfact> 0.69489193E+03</totfact>
</mgrwt>
</event>
<event>
 4    1  0.4495571E+000  0.2083200E+03  0.7546771E-02  0.1142903E+00
         21   -1    0    0  501  502  0.00000000000E+00  0.00000000000E+00  0.43188542867E+02  0.43188542867E+02  0.00000000000E+00 0. -1.
         21   -1    0    0  502  503 -0.00000000000E+00 -0.00000000000E+00 -0.11804380337E+04  0.11804380337E+04  0.00000000000E+00 0. -1.
          6    1    1    2  501    0 -0.72413684336E+02  0.90688921127E+02 -0.33264906392E+03  0.39249537809E+03  0.17300000000E+03 0. -1.
         -6    1    1    2    0  503  0.72413684336E+02 -0.90688921127E+02 -0.80460042687E+03  0.83113119844E+03  0.17300000000E+03 0. -1.
<mgrwt>
<rscale>  2 0.20832000E+03</rscale>
<asrwt>0</asrwt>
<pdfrwt beam="1">  1       21 0.66443912E-02 0.20832000E+03</pdfrwt>
<pdfrwt beam="2">  1       21 0.18160585E+00 0.20832000E+03</pdfrwt>
<totfact> 0.29058952E+04</totfact>
</mgrwt>
</event>
<event>
 4    1  0.4495571E+000  0.2279340E+03  0.7546771E-02  0.1128102E+00
         21   -1    0    0  503  502  0.00000000000E+00  0.00000000000E+00  0.26001630999E+03  0.26001630999E+03  0.00000000000E+00 0.  1.
         21   -1    0    0  501  503 -0.00000000000E+00 -0.00000000000E+00 -0.22232405378E+03  0.22232405378E+03  0.00000000000E+00 0.  1.
          6    1    1    2  501    0 -0.12106497027E+03  0.85838145985E+02 -0.57899770918E+02  0.23517291044E+03  0.17300000000E+03 0.  1.
         -6    1    1    2    0  502  0.12106497027E+03 -0.85838145985E+02  0.95592027132E+02  0.24716745333E+03  0.17300000000E+03 0.  1.
<mgrwt>
<rscale>  2 0.22793401E+03</rscale>
<asrwt>0</asrwt>
<pdfrwt beam="1">  1       21 0.40002509E-01 0.22793401E+03</pdfrwt>
<pdfrwt beam="2">  1       21 0.34203701E-01 0.22793401E+03</pdfrwt>
<totfact> 0.48795060E+04</totfact>
</mgrwt>
</event>
<event>
 4    1  0.4495571E+000  0.2377935E+03  0.7546771E-02  0.1121272E+00
         21   -1    0    0  501  502  0.00000000000E+00  0.00000000000E+00  0.12630533189E+04  0.12630533189E+04  0.00000000000E+00 0.  1.
         21   -1    0    0  502  503 -0.00000000000E+00 -0.00000000000E+00 -0.57668127555E+02  0.57668127555E+02  0.00000000000E+00 0. -1.
          6    1    1    2  501    0 -0.12322055880E+03 -0.10692720809E+03  0.91500709461E+03  0.94540135240E+03  0.17300000000E+03 0.  1.
         -6    1    1    2    0  503  0.12322055880E+03  0.10692720809E+03  0.29037809677E+03  0.37532009409E+03  0.17300000000E+03 0.  1.
<mgrwt>
<rscale>  2 0.23779347E+03</rscale>
<asrwt>0</asrwt>
<pdfrwt beam="1">  1       21 0.19431587E+00 0.23779347E+03</pdfrwt>
<pdfrwt beam="2">  1       21 0.88720206E-02 0.23779347E+03</pdfrwt>
<totfact> 0.14161627E+04</totfact>
</mgrwt>
</event>
<event>
 4    1  0.4495571E+000  0.1855059E+03  0.7546771E-02  0.1162578E+00
         21   -1    0    0  503  502  0.00000000000E+00  0.00000000000E+00  0.87095269295E+02  0.87095269295E+02  0.00000000000E+00 0.  1.
         21   -1    0    0  501  503 -0.00000000000E+00 -0.00000000000E+00 -0.41504008603E+03  0.41504008603E+03  0.00000000000E+00 0. -1.
          6    1    1    2  501    0  0.15951919562E+02  0.65030507017E+02 -0.21898638081E+03  0.28699732675E+03  0.17300000000E+03 0. -1.
         -6    1    1    2    0  502 -0.15951919562E+02 -0.65030507017E+02 -0.10895843593E+03  0.21513802858E+03  0.17300000000E+03 0.  1.
<mgrwt>
<rscale>  2 0.18550588E+03</rscale>
<asrwt>0</asrwt>
<pdfrwt beam="1">  1       21 0.13399272E-01 0.18550588E+03</pdfrwt>
<pdfrwt beam="2">  1       21 0.63852320E-01 0.18550588E+03</pdfrwt>
<totfact> 0.10933652E+05</totfact>
</mgrwt>
</event>
<event>
 4    1  0.4495571E+000  0.2180691E+03  0.7546771E-02  0.1135331E+00
         21   -1    0    0  503  502  0.00000000000E+00  0.00000000000E+00  0.34847515176E+02  0.34847515176E+02  0.00000000000E+00 0.  1.
         21   -1    0    0  501  503 -0.00000000000E+00 -0.00000000000E+00 -0.13869720728E+04  0.13869720728E+04  0.00000000000E+00 0.  1.
          6    1    1    2  501    0 -0.68110631102E+02  0.11395639324E+03 -0.76628162908E+03  0.79670675452E+03  0.17300000000E+03 0.  1.
         -6    1    1    2    0  502  0.68110631102E+02 -0.11395639324E+03 -0.58584292855E+03  0.62511283346E+03  0.17300000000E+03 0.  1.
<mgrwt>
<rscale>  2 0.21806907E+03</rscale>
<asrwt>0</asrwt>
<pdfrwt beam="1">  1       21 0.53611562E-02 0.21806907E+03</pdfrwt>
<pdfrwt beam="2">  1       21 0.21338032E+00 0.21806907E+03</pdfrwt>
<totfact> 0.25923359E+04</totfact>
</mgrwt>
</event>
<event>
 4    1  0.4495571E+000  0.2170966E+03  0.7546771E-02  0.1136066E+00
         21   -1    0    0  501  502  0.00000000000E+00  0.00000000000E+00  0.57848717777E+03  0.57848717777E+03  0.00000000000E+00 0.  1.
         21   -1    0    0  502  503 -0.00000000000E+00 -0.00000000000E+00 -0.91589800958E+02  0.91589800958E+02  0.00000000000E+00 0.  1.
          6    1    1    2  501    0  0.27612785820E+02  0.12821657232E+03  0.35480057721E+03  0.41595000294E+03  0.17300000000E+03 0.  1.
         -6    1    1    2    0  503 -0.27612785820E+02 -0.12821657232E+03  0.13209679960E+03  0.25412697579E+03  0.17300000000E+03 0.  1.
<mgrwt>
<rscale>  2 0.21709665E+03</rscale>
<asrwt>0</asrwt>
<pdfrwt beam="1">  1       21 0.88998025E-01 0.21709665E+03</pdfrwt>
<pdfrwt beam="2">  1       21 0.14090739E-01 0.21709665E+03</pdfrwt>
<totfact> 0.46803641E+04</totfact>
</mgrwt>
</event>
<event>
 4    1  0.4495571E+000  0.1827201E+03  0.7546771E-02  0.1165196E+00
         21   -1    0    0  503  502  0.00000000000E+00  0.00000000000E+00  0.37906135723E+03  0.37906135723E+03  0.00000000000E+00 0.  1.
         21   -1    0    0  501  503 -0.00000000000E+00 -0.00000000000E+00 -0.18512861833E+03  0.18512861833E+03  0.00000000000E+00 0.  1.
          6    1    1    2  501    0  0.56996608827E+02  0.14457676141E+02 -0.10728250954E+03  0.21188717439E+03  0.17300000000E+03 0.  1.
         -6    1    1    2    0  502 -0.56996608827E+02 -0.14457676141E+02  0.30121524845E+03  0.35230280117E+03  0.17300000000E+03 0.  1.
<mgrwt>
<rscale>  2 0.18272011E+03</rscale>
<asrwt>0</asrwt>
<pdfrwt beam="1">  1       21 0.58317132E-01 0.18272011E+03</pdfrwt>
<pdfrwt beam="2">  1       21 0.28481326E-01 0.18272011E+03</pdfrwt>
<totfact> 0.32635630E+04</totfact>
</mgrwt>
</event>
<event>
 4    1  0.4495571E+000  0.2256068E+03  0.7546771E-02  0.1129771E+00
         21   -1    0    0  503  502  0.00000000000E+00  0.00000000000E+00  0.43243076581E+03  0.43243076581E+03  0.00000000000E+00 0. -1.
         21   -1    0    0  501  503 -0.00000000000E+00 -0.00000000000E+00 -0.18397740571E+03  0.18397740571E+03  0.00000000000E+00 0.  1.
          6    1    1    2  501    0 -0.14422259940E+03  0.13011052883E+02 -0.60754995742E+02  0.23364420639E+03  0.17300000000E+03 0.  1.
         -6    1    1    2    0  502  0.14422259940E+03 -0.13011052883E+02  0.30920835584E+03  0.38276396512E+03  0.17300000000E+03 0. -1.
<mgrwt>
<rscale>  2 0.22560684E+03</rscale>
<asrwt>0</asrwt>
<pdfrwt beam="1">  1       21 0.66527810E-01 0.22560684E+03</pdfrwt>
<pdfrwt beam="2">  1       21 0.28304216E-01 0.22560684E+03</pdfrwt>
<totfact> 0.24270709E+04</totfact>
</mgrwt>
</event>
<event>
 4    1  0.4495571E+000  0.1791254E+03  0.7546771E-02  0.1168652E+00
         21   -1    0    0  503  502  0.00000000000E+00  0.00000000000E+00  0.16237735678E+03  0.16237735678E+03  0.00000000000E+00 0.  1.
         21   -1    0    0  501  503 -0.00000000000E+00 -0.00000000000E+00 -0.61702135366E+03  0.61702135366E+03  0.00000000000E+00 0.  1.
          6    1    1    2  501    0 -0.17609250139E+02 -0.42974710555E+02 -0.54861731444E+03  0.57711945829E+03  0.17300000000E+03 0.  1.
         -6    1    1    2    0  502  0.17609250139E+02  0.42974710555E+02  0.93973317556E+02  0.20227925215E+03  0.17300000000E+03 0.  1.
<mgrwt>
<rscale>  2 0.17912541E+03</rscale>
<asrwt>0</asrwt>
<pdfrwt beam="1">  1       21 0.24981131E-01 0.17912541E+03</pdfrwt>
<pdfrwt beam="2">  1       21 0.94926364E-01 0.17912541E+03</pdfrwt>
<totfact> 0.14203586E+04</totfact>
</mgrwt>
</event>
<event>
 4    1  0.4495571E+000  0.2766570E+03  0.7546771E-02  0.1097529E+00
         21   -1    0    0  503  502  0.00000000000E+00  0.00000000000E+00  0.72206875934E+03  0.72206875934E+03  0.00000000000E+00 0.  1.
         21   -1    0    0  501  503 -0.00000000000E+00 -0.00000000000E+00 -0.87101730710E+03  0.87101730710E+03  0.00000000000E+00 0.  1.
          6    1    1    2  501    0  0.18861189659E+03  0.10505067258E+03 -0.82097727658E+03  0.86633872129E+03  0.17300000000E+03 0.  1.
         -6    1    1    2    0  502 -0.18861189659E+03 -0.10505067258E+03  0.67202872881E+03  0.72674734516E+03  0.17300000000E+03 0.  1.
<mgrwt>
<rscale>  2 0.27665699E+03</rscale>
<asrwt>0</asrwt>
<pdfrwt beam="1">  1       21 0.11108750E+00 0.27665699E+03</pdfrwt>
<pdfrwt beam="2">  1       21 0.13400266E+00 0.27665699E+03</pdfrwt>
<totfact> 0.23397041E+02</totfact>
</mgrwt>
</event>
<event>
 4    1  0.4495571E+000  0.1878125E+03  0.7546771E-02  0.1160449E+00
         21   -1    0    0  503  502  0.00000000000E+00  0.00000000000E+00  0.29164330138E+03  0.29164330138E+03  0.00000000000E+00 0. -1.
         21   -1    0    0  501  503 -0.00000000000E+00 -0.00000000000E+00 -0.25095019294E+03  0.25095019294E+03  0.00000000000E+00 0.  1.
          6    1    1    2  501    0  0.48515195877E+02 -0.54688224159E+02 -0.17491961488E+03  0.25665228961E+03  0.17300000000E+03 0.  1.
         -6    1    1    2    0  502 -0.48515195877E+02  0.54688224159E+02  0.21561272332E+03  0.28594120471E+03  0.17300000000E+03 0. -1.
<mgrwt>
<rscale>  2 0.18781248E+03</rscale>
<asrwt>0</asrwt>
<pdfrwt beam="1">  1       21 0.44868200E-01 0.18781248E+03</pdfrwt>
<pdfrwt beam="2">  1       21 0.38607722E-01 0.18781248E+03</pdfrwt>
<totfact> 0.30920241E+04</totfact>
</mgrwt>
</event>
<event>
 4    1  0.4495571E+000  0.1949901E+03  0.7546771E-02  0.1154036E+00
         21   -1    0    0  501  502  0.00000000000E+00  0.00000000000E+00  0.21384751536E+03  0.21384751536E+03  0.00000000000E+00 0. -1.
         21   -1    0    0  502  503 -0.00000000000E+00 -0.00000000000E+00 -0.21024841987E+03  0.21024841987E+03  0.00000000000E+00 0. -1.
          6    1    1    2  501    0  0.78222074989E+02 -0.44423605502E+02  0.85108924860E+02  0.21275497370E+03  0.17300000000E+03 0. -1.
         -6    1    1    2    0  503 -0.78222074989E+02  0.44423605502E+02 -0.81509829366E+02  0.21134096154E+03  0.17300000000E+03 0. -1.
<mgrwt>
<rscale>  2 0.19499013E+03</rscale>
<asrwt>0</asrwt>
<pdfrwt beam="1">  1       21 0.32899618E-01 0.19499013E+03</pdfrwt>
<pdfrwt beam="2">  1       21 0.32345911E-01 0.19499013E+03</pdfrwt>
<totfact> 0.81709575E+04</totfact>
</mgrwt>
</event>
<event>
 4    1  0.4495571E+000  0.1984900E+03  0.7546771E-02  0.1151019E+00
         21   -1    0    0  503  502  0.00000000000E+00  0.00000000000E+00  0.29528045254E+03  0.29528045254E+03  0.00000000000E+00 0.  1.
         21   -1    0    0  501  503 -0.00000000000E+00 -0.00000000000E+00 -0.14426349225E+03  0.14426349225E+03  0.00000000000E+00 0. -1.
          6    1    1    2  501    0  0.86711417215E+02  0.44163253584E+02  0.13574317761E+03  0.24046719758E+03  0.17300000000E+03 0.  1.
         -6    1    1    2    0  502 -0.86711417215E+02 -0.44163253584E+02  0.15273782676E+02  0.19907674721E+03  0.17300000000E+03 0. -1.
<mgrwt>
<rscale>  2 0.19848996E+03</rscale>
<asrwt>0</asrwt>
<pdfrwt beam="1">  1       21 0.45427762E-01 0.19848996E+03</pdfrwt>
<pdfrwt beam="2">  1       21 0.22194383E-01 0.19848996E+03</pdfrwt>
<totfact> 0.88018815E+04</totfact>
</mgrwt>
</event>
<event>
 4    1  0.4495571E+000  0.1838181E+03  0.7546771E-02  0.1164158E+00
         21   -1    0    0  501  502  0.00000000000E+00  0.00000000000E+00  0.15380704059E+04  0.15380704059E+04  0.00000000000E+00 0.  1.
         21   -1    0    0  502  503 -0.00000000000E+00 -0.00000000000E+00 -0.14569544056E+03  0.14569544056E+03  0.00000000000E+00 0.  1.
          6    1    1    2  501    0  0.28986406007E+02 -0.54953374861E+02  0.14720073083E+04  0.14834401237E+04  0.17300000000E+03 0.  1.
         -6    1    1    2    0  503 -0.28986406007E+02  0.54953374861E+02 -0.79632342932E+02  0.20032572272E+03  0.17300000000E+03 0.  1.
<mgrwt>
<rscale>  2 0.18381808E+03</rscale>
<asrwt>0</asrwt>
<pdfrwt beam="1">  1       21 0.23662620E+00 0.18381808E+03</pdfrwt>
<pdfrwt beam="2">  1       21 0.22414684E-01 0.18381808E+03</pdfrwt>
<totfact> 0.15026426E+03</totfact>
</mgrwt>
</event>
<event>
 4    1  0.4495571E+000  0.2039055E+03  0.7546771E-02  0.1146485E+00
         21   -1    0    0  501  502  0.00000000000E+00  0.00000000000E+00  0.87363660540E+03  0.87363660540E+03  0.00000000000E+00 0.  1.
         21   -1    0    0  502  503 -0.00000000000E+00 -0.00000000000E+00 -0.58663655785E+02  0.58663655785E+02  0.00000000000E+00 0.  1.
          6    1    1    2  501    0  0.10499571334E+03  0.24987333842E+02  0.61000373935E+03  0.64318117874E+03  0.17300000000E+03 0. -1.
         -6    1    1    2    0  503 -0.10499571334E+03 -0.24987333842E+02  0.20496921026E+03  0.28911908244E+03  0.17300000000E+03 0. -1.
<mgrwt>
<rscale>  2 0.20390553E+03</rscale>
<asrwt>0</asrwt>
<pdfrwt beam="1">  1       21 0.13440562E+00 0.20390553E+03</pdfrwt>
<pdfrwt beam="2">  1       21 0.90251785E-02 0.20390553E+03</pdfrwt>
<totfact> 0.38366431E+04</totfact>
</mgrwt>
</event>
<event>
 4    1  0.4495571E+000  0.1960082E+03  0.7546771E-02  0.1153151E+00
         21   -1    0    0  503  502  0.00000000000E+00  0.00000000000E+00  0.54502060518E+03  0.54502060518E+03  0.00000000000E+00 0. -1.
         21   -1    0    0  501  503 -0.00000000000E+00 -0.00000000000E+00 -0.74137436189E+02  0.74137436189E+02  0.00000000000E+00 0.  1.
          6    1    1    2  501    0  0.49050827731E+02  0.78001431080E+02  0.16678698714E+03  0.25736570485E+03  0.17300000000E+03 0.  1.
         -6    1    1    2    0  502 -0.49050827731E+02 -0.78001431080E+02  0.30409618185E+03  0.36179233652E+03  0.17300000000E+03 0. -1.
<mgrwt>
<rscale>  2 0.19600818E+03</rscale>
<asrwt>0</asrwt>
<pdfrwt beam="1">  1       21 0.83849321E-01 0.19600818E+03</pdfrwt>
<pdfrwt beam="2">  1       21 0.11405760E-01 0.19600818E+03</pdfrwt>
<totfact> 0.79309763E+04</totfact>
</mgrwt>
</event>
<event>
 4    1  0.4495571E+000  0.3228779E+03  0.7546771E-02  0.1074332E+00
         21   -1    0    0  503  502  0.00000000000E+00  0.00000000000E+00  0.29444082299E+03  0.29444082299E+03  0.00000000000E+00 0.  1.
         21   -1    0    0  501  503 -0.00000000000E+00 -0.00000000000E+00 -0.38397088712E+03  0.38397088712E+03  0.00000000000E+00 0.  1.
          6    1    1    2  501    0  0.20848393966E+03  0.17565752229E+03  0.49906403942E+02  0.32671205577E+03  0.17300000000E+03 0.  1.
         -6    1    1    2    0  502 -0.20848393966E+03 -0.17565752229E+03 -0.13943646807E+03  0.35169965433E+03  0.17300000000E+03 0.  1.
<mgrwt>
<rscale>  2 0.32287787E+03</rscale>
<asrwt>0</asrwt>
<pdfrwt beam="1">  1       21 0.45298588E-01 0.32287787E+03</pdfrwt>
<pdfrwt beam="2">  1       21 0.59072444E-01 0.32287787E+03</pdfrwt>
<totfact> 0.11698717E+04</totfact>
</mgrwt>
</event>
<event>
 4    1  0.4495571E+000  0.1737032E+03  0.7546771E-02  0.1174040E+00
         21   -1    0    0  501  502  0.00000000000E+00  0.00000000000E+00  0.39103968421E+03  0.39103968421E+03  0.00000000000E+00 0. -1.
         21   -1    0    0  502  503 -0.00000000000E+00 -0.00000000000E+00 -0.12027391077E+03  0.12027391077E+03  0.00000000000E+00 0. -1.
          6    1    1    2  501    0 -0.11518447118E+02 -0.10541439064E+02  0.28844865986E+03  0.33671267564E+03  0.17300000000E+03 0. -1.
         -6    1    1    2    0  503  0.11518447118E+02  0.10541439064E+02 -0.17682886417E+02  0.17460091934E+03  0.17300000000E+03 0. -1.
<mgrwt>
<rscale>  2 0.17370319E+03</rscale>
<asrwt>0</asrwt>
<pdfrwt beam="1">  1       21 0.60159951E-01 0.17370319E+03</pdfrwt>
<pdfrwt beam="2">  1       21 0.18503679E-01 0.17370319E+03</pdfrwt>
<totfact> 0.69303642E+04</totfact>
</mgrwt>
</event>
<event>
 4    1  0.4495571E+000  0.1925478E+03  0.7546771E-02  0.1156183E+00
         21   -1    0    0  503  502  0.00000000000E+00  0.00000000000E+00  0.56257757446E+02  0.56257757446E+02  0.00000000000E+00 0.  1.
         21   -1    0    0  501  503 -0.00000000000E+00 -0.00000000000E+00 -0.65933583458E+03  0.65933583458E+03  0.00000000000E+00 0.  1.
          6    1    1    2  501    0 -0.15317581983E+01  0.84517999504E+02 -0.30944644840E+03  0.36446089358E+03  0.17300000000E+03 0.  1.
         -6    1    1    2    0  502  0.15317581983E+01 -0.84517999504E+02 -0.29363162873E+03  0.35113269844E+03  0.17300000000E+03 0.  1.
<mgrwt>
<rscale>  2 0.19254776E+03</rscale>
<asrwt>0</asrwt>
<pdfrwt beam="1">  1       21 0.86550397E-02 0.19254776E+03</pdfrwt>
<pdfrwt beam="2">  1       21 0.10143628E+00 0.19254776E+03</pdfrwt>
<totfact> 0.83017159E+04</totfact>
</mgrwt>
</event>
<event>
 4    1  0.4495571E+000  0.2186513E+03  0.7546771E-02  0.1134893E+00
         21   -1    0    0  501  502  0.00000000000E+00  0.00000000000E+00  0.31474605407E+03  0.31474605407E+03  0.00000000000E+00 0.  1.
         21   -1    0    0  502  503 -0.00000000000E+00 -0.00000000000E+00 -0.23634454848E+03  0.23634454848E+03  0.00000000000E+00 0. -1.
          6    1    1    2  501    0  0.21453521425E+02 -0.13198153858E+03  0.20391025337E+03  0.29897787801E+03  0.17300000000E+03 0.  1.
         -6    1    1    2    0  503 -0.21453521425E+02  0.13198153858E+03 -0.12550874778E+03  0.25211272455E+03  0.17300000000E+03 0. -1.
<mgrwt>
<rscale>  2 0.21865128E+03</rscale>
<asrwt>0</asrwt>
<pdfrwt beam="1">  1       21 0.48422470E-01 0.21865128E+03</pdfrwt>
<pdfrwt beam="2">  1       21 0.36360700E-01 0.21865128E+03</pdfrwt>
<totfact> 0.29298320E+04</totfact>
</mgrwt>
</event>
<event>
 4    1  0.4495571E+000  0.1802507E+03  0.7546771E-02  0.1167561E+00
         21   -1    0    0  503  502  0.00000000000E+00  0.00000000000E+00  0.78749324856E+03  0.78749324856E+03  0.00000000000E+00 0. -1.
         21   -1    0    0  501  503 -0.00000000000E+00 -0.00000000000E+00 -0.57929423065E+02  0.57929423065E+02  0.00000000000E+00 0. -1.
          6    1    1    2  501    0  0.63725904658E+01 -0.50206576364E+02  0.13801376366E+03  0.22702006338E+03  0.17300000000E+03 0. -1.
         -6    1    1    2    0  502 -0.63725904658E+01  0.50206576364E+02  0.59155006184E+03  0.61840260825E+03  0.17300000000E+03 0. -1.
<mgrwt>
<rscale>  2 0.18025069E+03</rscale>
<asrwt>0</asrwt>
<pdfrwt beam="1">  1       21 0.12115280E+00 0.18025069E+03</pdfrwt>
<pdfrwt beam="2">  1       21 0.89122195E-02 0.18025069E+03</pdfrwt>
<totfact> 0.51579008E+04</totfact>
</mgrwt>
</event>
<event>
 4    1  0.4495571E+000  0.2368518E+03  0.7546771E-02  0.1121908E+00
         21   -1    0    0  503  502  0.00000000000E+00  0.00000000000E+00  0.31726681276E+03  0.31726681276E+03  0.00000000000E+00 0.  1.
         21   -1    0    0  501  503 -0.00000000000E+00 -0.00000000000E+00 -0.18444996211E+03  0.18444996211E+03  0.00000000000E+00 0. -1.
          6    1    1    2  501    0 -0.14762073342E+03  0.66165493129E+02  0.15383401225E+02  0.23735080040E+03  0.17300000000E+03 0. -1.
         -6    1    1    2    0  502  0.14762073342E+03 -0.66165493129E+02  0.11743344943E+03  0.26436597447E+03  0.17300000000E+03 0. -1.
<mgrwt>
<rscale>  2 0.23685175E+03</rscale>
<asrwt>0</asrwt>
<pdfrwt beam="1">  1       21 0.48810279E-01 0.23685175E+03</pdfrwt>
<pdfrwt beam="2">  1       21 0.28376917E-01 0.23685175E+03</pdfrwt>
<totfact> 0.46595309E+04</totfact>
</mgrwt>
</event>
<event>
 4    1  0.4495571E+000  0.2483229E+03  0.7546771E-02  0.1114369E+00
         21   -1    0    0  503  502  0.00000000000E+00  0.00000000000E+00  0.78481116160E+03  0.78481116160E+03  0.00000000000E+00 0.  1.
         21   -1    0    0  501  503 -0.00000000000E+00 -0.00000000000E+00 -0.84096287411E+02  0.84096287411E+02  0.00000000000E+00 0. -1.
          6    1    1    2  501    0 -0.85524001140E+02 -0.15627194696E+03  0.23900786351E+03  0.34465785208E+03  0.17300000000E+03 0. -1.
         -6    1    1    2    0  502  0.85524001140E+02  0.15627194696E+03  0.46170701068E+03  0.52424959693E+03  0.17300000000E+03 0. -1.
<mgrwt>
<rscale>  2 0.24832293E+03</rscale>
<asrwt>0</asrwt>
<pdfrwt beam="1">  1       21 0.12074017E+00 0.24832293E+03</pdfrwt>
<pdfrwt beam="2">  1       21 0.12937891E-01 0.24832293E+03</pdfrwt>
<totfact> 0.25854910E+04</totfact>
</mgrwt>
</event>
<event>
 4    1  0.4495571E+000  0.1991076E+03  0.7546771E-02  0.1150494E+00
         21   -1    0    0  503  502  0.00000000000E+00  0.00000000000E+00  0.59784463612E+02  0.59784463612E+02  0.00000000000E+00 0.  1.
         21   -1    0    0  501  503 -0.00000000000E+00 -0.00000000000E+00 -0.13878238656E+04  0.13878238656E+04  0.00000000000E+00 0.  1.
          6    1    1    2  501    0 -0.74299717050E+02  0.64764093507E+02 -0.11870614853E+04  0.12036439696E+04  0.17300000000E+03 0.  1.
         -6    1    1    2    0  502  0.74299717050E+02 -0.64764093507E+02 -0.14097791675E+03  0.24396435964E+03  0.17300000000E+03 0.  1.
<mgrwt>
<rscale>  2 0.19910760E+03</rscale>
<asrwt>0</asrwt>
<pdfrwt beam="1">  1       21 0.91976088E-02 0.19910760E+03</pdfrwt>
<pdfrwt beam="2">  1       21 0.21351139E+00 0.19910760E+03</pdfrwt>
<totfact> 0.10316071E+04</totfact>
</mgrwt>
</event>
<event>
 4    1  0.4495571E+000  0.1969678E+03  0.7546771E-02  0.1152323E+00
         21   -1    0    0  503  502  0.00000000000E+00  0.00000000000E+00  0.71182249571E+02  0.71182249571E+02  0.00000000000E+00 0. -1.
         21   -1    0    0  501  503 -0.00000000000E+00 -0.00000000000E+00 -0.20525719382E+04  0.20525719382E+04  0.00000000000E+00 0.  1.
          6    1    1    2  501    0 -0.83679473530E+02  0.43186418689E+02 -0.19007339280E+04  0.19109122916E+04  0.17300000000E+03 0.  1.
         -6    1    1    2    0  502  0.83679473530E+02 -0.43186418689E+02 -0.80655760616E+02  0.21284189618E+03  0.17300000000E+03 0. -1.
<mgrwt>
<rscale>  2 0.19696782E+03</rscale>
<asrwt>0</asrwt>
<pdfrwt beam="1">  1       21 0.10951115E-01 0.19696782E+03</pdfrwt>
<pdfrwt beam="2">  1       21 0.31578031E+00 0.19696782E+03</pdfrwt>
<totfact> 0.19017154E+03</totfact>
</mgrwt>
</event>
<event>
 4    1  0.4495571E+000  0.2606116E+03  0.7546771E-02  0.1106776E+00
         21   -1    0    0  501  502  0.00000000000E+00  0.00000000000E+00  0.23702618170E+03  0.23702618170E+03  0.00000000000E+00 0. -1.
         21   -1    0    0  502  503 -0.00000000000E+00 -0.00000000000E+00 -0.29078011626E+03  0.29078011626E+03  0.00000000000E+00 0.  1.
          6    1    1    2  501    0  0.12144250178E+03 -0.15245041469E+03  0.49760433868E+01  0.26065910915E+03  0.17300000000E+03 0.  1.
         -6    1    1    2    0  503 -0.12144250178E+03  0.15245041469E+03 -0.58729977938E+02  0.26714718880E+03  0.17300000000E+03 0.  1.
<mgrwt>
<rscale>  2 0.26061161E+03</rscale>
<asrwt>0</asrwt>
<pdfrwt beam="1">  1       21 0.36465567E-01 0.26061161E+03</pdfrwt>
<pdfrwt beam="2">  1       21 0.44735402E-01 0.26061161E+03</pdfrwt>
<totfact> 0.33677606E+04</totfact>
</mgrwt>
</event>
<event>
 4    1  0.4495571E+000  0.1830709E+03  0.7546771E-02  0.1164864E+00
         21   -1    0    0  503  502  0.00000000000E+00  0.00000000000E+00  0.13185033268E+04  0.13185033268E+04  0.00000000000E+00 0.  1.
         21   -1    0    0  501  503 -0.00000000000E+00 -0.00000000000E+00 -0.26347275356E+02  0.26347275356E+02  0.00000000000E+00 0.  1.
          6    1    1    2  501    0 -0.59681644699E+02  0.49058606966E+01  0.51985836776E+03  0.55115123942E+03  0.17300000000E+03 0.  1.
         -6    1    1    2    0  502  0.59681644699E+02 -0.49058606966E+01  0.77229768364E+03  0.79369936269E+03  0.17300000000E+03 0.  1.
<mgrwt>
<rscale>  2 0.18307093E+03</rscale>
<asrwt>0</asrwt>
<pdfrwt beam="1">  1       21 0.20284661E+00 0.18307093E+03</pdfrwt>
<pdfrwt beam="2">  1       21 0.40534280E-02 0.18307093E+03</pdfrwt>
<totfact> 0.49658371E+04</totfact>
</mgrwt>
</event>
<event>
 4    1  0.4495571E+000  0.1925010E+03  0.7546771E-02  0.1156225E+00
         21   -1    0    0  501  502  0.00000000000E+00  0.00000000000E+00  0.12693045966E+04  0.12693045966E+04  0.00000000000E+00 0. -1.
         21   -1    0    0  502  503 -0.00000000000E+00 -0.00000000000E+00 -0.29742491694E+02  0.29742491694E+02  0.00000000000E+00 0. -1.
          6    1    1    2  501    0  0.70447836439E+02  0.46526549392E+02  0.70795150106E+03  0.73365655815E+03  0.17300000000E+03 0. -1.
         -6    1    1    2    0  503 -0.70447836439E+02 -0.46526549392E+02  0.53161060382E+03  0.56539053012E+03  0.17300000000E+03 0. -1.
<mgrwt>
<rscale>  2 0.19250095E+03</rscale>
<asrwt>0</asrwt>
<pdfrwt beam="1">  1       21 0.19527759E+00 0.19250095E+03</pdfrwt>
<pdfrwt beam="2">  1       21 0.45757689E-02 0.19250095E+03</pdfrwt>
<totfact> 0.45021109E+04</totfact>
</mgrwt>
</event>
<event>
 4    1  0.4495571E+000  0.2207653E+03  0.7546771E-02  0.1133314E+00
         21   -1    0    0  503  502  0.00000000000E+00  0.00000000000E+00  0.11906914288E+03  0.11906914288E+03  0.00000000000E+00 0.  1.
         21   -1    0    0  501  503 -0.00000000000E+00 -0.00000000000E+00 -0.46328436139E+03  0.46328436139E+03  0.00000000000E+00 0.  1.
          6    1    1    2  501    0 -0.56319063389E+02  0.12504591140E+03 -0.72729990771E+02  0.23243702032E+03  0.17300000000E+03 0.  1.
         -6    1    1    2    0  502  0.56319063389E+02 -0.12504591140E+03 -0.27148522774E+03  0.34991648395E+03  0.17300000000E+03 0.  1.
<mgrwt>
<rscale>  2 0.22076530E+03</rscale>
<asrwt>0</asrwt>
<pdfrwt beam="1">  1       21 0.18318330E-01 0.22076530E+03</pdfrwt>
<pdfrwt beam="2">  1       21 0.71274517E-01 0.22076530E+03</pdfrwt>
<totfact> 0.47737818E+04</totfact>
</mgrwt>
</event>
<event>
 4    1  0.4495571E+000  0.1790245E+03  0.7546771E-02  0.1168750E+00
         21   -1    0    0  501  502  0.00000000000E+00  0.00000000000E+00  0.50926222599E+03  0.50926222599E+03  0.00000000000E+00 0.  1.
         21   -1    0    0  502  503 -0.00000000000E+00 -0.00000000000E+00 -0.69609052068E+02  0.69609052068E+02  0.00000000000E+00 0.  1.
          6    1    1    2  501    0  0.23109049640E+02 -0.39833985266E+02  0.30945692998E+03  0.35750995241E+03  0.17300000000E+03 0. -1.
         -6    1    1    2    0  503 -0.23109049640E+02  0.39833985266E+02  0.13019624394E+03  0.22136132565E+03  0.17300000000E+03 0. -1.
<mgrwt>
<rscale>  2 0.17902451E+03</rscale>
<asrwt>0</asrwt>
<pdfrwt beam="1">  1       21 0.78348032E-01 0.17902451E+03</pdfrwt>
<pdfrwt beam="2">  1       21 0.10709085E-01 0.17902451E+03</pdfrwt>
<totfact> 0.10416800E+05</totfact>
</mgrwt>
</event>
<event>
 4    1  0.4495571E+000  0.2474778E+03  0.7546771E-02  0.1114909E+00
         21   -1    0    0  501  502  0.00000000000E+00  0.00000000000E+00  0.55622378257E+03  0.55622378257E+03  0.00000000000E+00 0. -1.
         21   -1    0    0  502  503 -0.00000000000E+00 -0.00000000000E+00 -0.12202606143E+03  0.12202606143E+03  0.00000000000E+00 0. -1.
          6    1    1    2  501    0  0.14482516964E+03  0.10169518427E+03  0.11112027064E+03  0.27128021456E+03  0.17300000000E+03 0. -1.
         -6    1    1    2    0  503 -0.14482516964E+03 -0.10169518427E+03  0.32307745050E+03  0.40696962944E+03  0.17300000000E+03 0. -1.
<mgrwt>
<rscale>  2 0.24747776E+03</rscale>
<asrwt>0</asrwt>
<pdfrwt beam="1">  1       21 0.85572888E-01 0.24747776E+03</pdfrwt>
<pdfrwt beam="2">  1       21 0.18773240E-01 0.24747776E+03</pdfrwt>
<totfact> 0.29791302E+04</totfact>
</mgrwt>
</event>
<event>
 4    1  0.4495571E+000  0.2319769E+03  0.7546771E-02  0.1125256E+00
         21   -1    0    0  501  502  0.00000000000E+00  0.00000000000E+00  0.10132303174E+03  0.10132303174E+03  0.00000000000E+00 0. -1.
         21   -1    0    0  502  503 -0.00000000000E+00 -0.00000000000E+00 -0.12595984491E+04  0.12595984491E+04  0.00000000000E+00 0. -1.
          6    1    1    2  501    0 -0.14756639936E+03  0.45917907767E+02 -0.61650684482E+02  0.24002938023E+03  0.17300000000E+03 0. -1.
         -6    1    1    2    0  503  0.14756639936E+03 -0.45917907767E+02 -0.10966247328E+04  0.11208921006E+04  0.17300000000E+03 0. -1.
<mgrwt>
<rscale>  2 0.23197693E+03</rscale>
<asrwt>0</asrwt>
<pdfrwt beam="1">  1       21 0.15588159E-01 0.23197693E+03</pdfrwt>
<pdfrwt beam="2">  1       21 0.19378437E+00 0.23197693E+03</pdfrwt>
<totfact> 0.52097487E+03</totfact>
</mgrwt>
</event>
<event>
 4    1  0.4495571E+000  0.1989256E+03  0.7546771E-02  0.1150649E+00
         21   -1    0    0  503  502  0.00000000000E+00  0.00000000000E+00  0.78869514985E+02  0.78869514985E+02  0.00000000000E+00 0. -1.
         21   -1    0    0  501  503 -0.00000000000E+00 -0.00000000000E+00 -0.16996134390E+04  0.16996134390E+04  0.00000000000E+00 0. -1.
          6    1    1    2  501    0 -0.57699601228E+02  0.79455446053E+02 -0.15569091225E+04  0.15695659997E+04  0.17300000000E+03 0. -1.
         -6    1    1    2    0  502  0.57699601228E+02 -0.79455446053E+02 -0.63834801559E+02  0.20891695427E+03  0.17300000000E+03 0. -1.
<mgrwt>
<rscale>  2 0.19892564E+03</rscale>
<asrwt>0</asrwt>
<pdfrwt beam="1">  1       21 0.12133772E-01 0.19892564E+03</pdfrwt>
<pdfrwt beam="2">  1       21 0.26147898E+00 0.19892564E+03</pdfrwt>
<totfact> 0.32546518E+03</totfact>
</mgrwt>
</event>
<event>
 4    1  0.4495571E+000  0.2020623E+03  0.7546771E-02  0.1148011E+00
         21   -1    0    0  503  502  0.00000000000E+00  0.00000000000E+00  0.67100171375E+03  0.67100171375E+03  0.00000000000E+00 0. -1.
         21   -1    0    0  501  503 -0.00000000000E+00 -0.00000000000E+00 -0.75244955457E+02  0.75244955457E+02  0.00000000000E+00 0. -1.
          6    1    1    2  501    0  0.59575261526E+02 -0.85737726748E+02  0.13466800592E+03  0.24282636058E+03  0.17300000000E+03 0. -1.
         -6    1    1    2    0  502 -0.59575261526E+02  0.85737726748E+02  0.46108875237E+03  0.50342030863E+03  0.17300000000E+03 0. -1.
<mgrwt>
<rscale>  2 0.20206229E+03</rscale>
<asrwt>0</asrwt>
<pdfrwt beam="1">  1       21 0.10323103E+00 0.20206229E+03</pdfrwt>
<pdfrwt beam="2">  1       21 0.11576147E-01 0.20206229E+03</pdfrwt>
<totfact> 0.47385885E+04</totfact>
</mgrwt>
</event>
<event>
 4    1  0.4495571E+000  0.2085236E+03  0.7546771E-02  0.1142740E+00
         21   -1    0    0  501  502  0.00000000000E+00  0.00000000000E+00  0.21636249008E+03  0.21636249008E+03  0.00000000000E+00 0.  1.
         21   -1    0    0  502  503 -0.00000000000E+00 -0.00000000000E+00 -0.35857911841E+03  0.35857911841E+03  0.00000000000E+00 0.  1.
          6    1    1    2  501    0 -0.98685318362E+02  0.61760078519E+02  0.11947884532E+03  0.24032747208E+03  0.17300000000E+03 0.  1.
         -6    1    1    2    0  503  0.98685318362E+02 -0.61760078519E+02 -0.26169547364E+03  0.33461413641E+03  0.17300000000E+03 0.  1.
<mgrwt>
<rscale>  2 0.20852362E+03</rscale>
<asrwt>0</asrwt>
<pdfrwt beam="1">  1       21 0.33286537E-01 0.20852362E+03</pdfrwt>
<pdfrwt beam="2">  1       21 0.55166018E-01 0.20852362E+03</pdfrwt>
<totfact> 0.26697962E+04</totfact>
</mgrwt>
</event>
<event>
 4    1  0.4495571E+000  0.3327913E+03  0.7546771E-02  0.1069908E+00
         21   -1    0    0  503  502  0.00000000000E+00  0.00000000000E+00  0.55404158125E+03  0.55404158125E+03  0.00000000000E+00 0. -1.
         21   -1    0    0  501  503 -0.00000000000E+00 -0.00000000000E+00 -0.22824642620E+03  0.22824642620E+03  0.00000000000E+00 0.  1.
          6    1    1    2  501    0  0.16998836745E+03  0.22787062196E+03  0.25042363744E+02  0.33373220612E+03  0.17300000000E+03 0.  1.
         -6    1    1    2    0  502 -0.16998836745E+03 -0.22787062196E+03  0.30075279131E+03  0.44855580132E+03  0.17300000000E+03 0. -1.
<mgrwt>
<rscale>  2 0.33279132E+03</rscale>
<asrwt>0</asrwt>
<pdfrwt beam="1">  1       21 0.85237166E-01 0.33279132E+03</pdfrwt>
<pdfrwt beam="2">  1       21 0.35114835E-01 0.33279132E+03</pdfrwt>
<totfact> 0.86190956E+03</totfact>
</mgrwt>
</event>
<event>
 4    1  0.4495571E+000  0.2092411E+03  0.7546771E-02  0.1142168E+00
         21   -1    0    0  503  502  0.00000000000E+00  0.00000000000E+00  0.27272343469E+03  0.27272343469E+03  0.00000000000E+00 0.  1.
         21   -1    0    0  501  503 -0.00000000000E+00 -0.00000000000E+00 -0.20210926820E+03  0.20210926820E+03  0.00000000000E+00 0. -1.
          6    1    1    2  501    0 -0.32202710645E+02  0.11320694599E+03 -0.72370810314E+02  0.22140316479E+03  0.17300000000E+03 0. -1.
         -6    1    1    2    0  502  0.32202710645E+02 -0.11320694599E+03  0.14298497680E+03  0.25342953811E+03  0.17300000000E+03 0.  1.
<mgrwt>
<rscale>  2 0.20924107E+03</rscale>
<asrwt>0</asrwt>
<pdfrwt beam="1">  1       21 0.41957451E-01 0.20924107E+03</pdfrwt>
<pdfrwt beam="2">  1       21 0.31093734E-01 0.20924107E+03</pdfrwt>
<totfact> 0.53901520E+04</totfact>
</mgrwt>
</event>
<event>
 4    1  0.4495571E+000  0.1816545E+03  0.7546771E-02  0.1166211E+00
         21   -1    0    0  503  502  0.00000000000E+00  0.00000000000E+00  0.20063737953E+02  0.20063737953E+02  0.00000000000E+00 0. -1.
         21   -1    0    0  501  503 -0.00000000000E+00 -0.00000000000E+00 -0.18345997486E+04  0.18345997486E+04  0.00000000000E+00 0. -1.
          6    1    1    2  501    0 -0.49738731142E+02  0.24400929875E+02 -0.12056373395E+04  0.12192455623E+04  0.17300000000E+03 0. -1.
         -6    1    1    2    0  502  0.49738731142E+02 -0.24400929875E+02 -0.60889867107E+03  0.63541792419E+03  0.17300000000E+03 0. -1.
<mgrwt>
<rscale>  2 0.18165447E+03</rscale>
<asrwt>0</asrwt>
<pdfrwt beam="1">  1       21 0.30867282E-02 0.18165447E+03</pdfrwt>
<pdfrwt beam="2">  1       21 0.28224618E+00 0.18165447E+03</pdfrwt>
<totfact> 0.26343500E+04</totfact>
</mgrwt>
</event>
<event>
 4    1  0.4495571E+000  0.1933226E+03  0.7546771E-02  0.1155498E+00
         21   -1    0    0  503  502  0.00000000000E+00  0.00000000000E+00  0.58160389422E+02  0.58160389422E+02  0.00000000000E+00 0. -1.
         21   -1    0    0  501  503 -0.00000000000E+00 -0.00000000000E+00 -0.10683859179E+04  0.10683859179E+04  0.00000000000E+00 0. -1.
          6    1    1    2  501    0  0.39695595612E+02 -0.76608775614E+02 -0.86070524070E+03  0.88214916889E+03  0.17300000000E+03 0. -1.
         -6    1    1    2    0  502 -0.39695595612E+02  0.76608775614E+02 -0.14952028777E+03  0.24439713842E+03  0.17300000000E+03 0. -1.
<mgrwt>
<rscale>  2 0.19332264E+03</rscale>
<asrwt>0</asrwt>
<pdfrwt beam="1">  1       21 0.89477528E-02 0.19332264E+03</pdfrwt>
<pdfrwt beam="2">  1       21 0.16436705E+00 0.19332264E+03</pdfrwt>
<totfact> 0.23081656E+04</totfact>
</mgrwt>
</event>
<event>
 4    1  0.4495571E+000  0.1792316E+03  0.7546771E-02  0.1168549E+00
         21   -1    0    0  501  502  0.00000000000E+00  0.00000000000E+00  0.34233831232E+03  0.34233831232E+03  0.00000000000E+00 0.  1.
         21   -1    0    0  502  503 -0.00000000000E+00 -0.00000000000E+00 -0.10219280560E+03  0.10219280560E+03  0.00000000000E+00 0.  1.
          6    1    1    2  501    0  0.45009312530E+02  0.13004584792E+02  0.18362917264E+03  0.25660013735E+03  0.17300000000E+03 0.  1.
         -6    1    1    2    0  503 -0.45009312530E+02 -0.13004584792E+02  0.56516334078E+02  0.18793098057E+03  0.17300000000E+03 0.  1.
<mgrwt>
<rscale>  2 0.17923157E+03</rscale>
<asrwt>0</asrwt>
<pdfrwt beam="1">  1       21 0.52667432E-01 0.17923157E+03</pdfrwt>
<pdfrwt beam="2">  1       21 0.15721970E-01 0.17923157E+03</pdfrwt>
<totfact> 0.12363238E+05</totfact>
</mgrwt>
</event>
<event>
 4    1  0.4495571E+000  0.1892344E+03  0.7546771E-02  0.1159154E+00
         21   -1    0    0  503  502  0.00000000000E+00  0.00000000000E+00  0.78127801721E+02  0.78127801721E+02  0.00000000000E+00 0.  1.
         21   -1    0    0  501  503 -0.00000000000E+00 -0.00000000000E+00 -0.71099265823E+03  0.71099265823E+03  0.00000000000E+00 0.  1.
          6    1    1    2  501    0  0.71804710167E+02 -0.26920788651E+02 -0.55163206710E+03  0.58318743361E+03  0.17300000000E+03 0.  1.
         -6    1    1    2    0  502 -0.71804710167E+02  0.26920788651E+02 -0.81232789408E+02  0.20593302634E+03  0.17300000000E+03 0.  1.
<mgrwt>
<rscale>  2 0.18923437E+03</rscale>
<asrwt>0</asrwt>
<pdfrwt beam="1">  1       21 0.12019662E-01 0.18923437E+03</pdfrwt>
<pdfrwt beam="2">  1       21 0.10938348E+00 0.18923437E+03</pdfrwt>
<totfact> 0.38808139E+04</totfact>
</mgrwt>
</event>
<event>
 4    1  0.4495571E+000  0.1788062E+03  0.7546771E-02  0.1168963E+00
         21   -1    0    0  503  502  0.00000000000E+00  0.00000000000E+00  0.10252218896E+04  0.10252218896E+04  0.00000000000E+00 0. -1.
         21   -1    0    0  501  503 -0.00000000000E+00 -0.00000000000E+00 -0.31586006010E+02  0.31586006010E+02  0.00000000000E+00 0. -1.
          6    1    1    2  501    0  0.12836659860E+02 -0.43334412785E+02  0.43728767121E+03  0.47243217350E+03  0.17300000000E+03 0.  1.
         -6    1    1    2    0  502 -0.12836659860E+02  0.43334412785E+02  0.55634821234E+03  0.58437572206E+03  0.17300000000E+03 0.  1.
<mgrwt>
<rscale>  2 0.17880618E+03</rscale>
<asrwt>0</asrwt>
<pdfrwt beam="1">  1       21 0.15772642E+00 0.17880618E+03</pdfrwt>
<pdfrwt beam="2">  1       21 0.48593863E-02 0.17880618E+03</pdfrwt>
<totfact> 0.74387110E+04</totfact>
</mgrwt>
</event>
<event>
 4    1  0.4495571E+000  0.1832288E+03  0.7546771E-02  0.1164714E+00
         21   -1    0    0  503  502  0.00000000000E+00  0.00000000000E+00  0.49799918591E+03  0.49799918591E+03  0.00000000000E+00 0. -1.
         21   -1    0    0  501  503 -0.00000000000E+00 -0.00000000000E+00 -0.13138433303E+03  0.13138433303E+03  0.00000000000E+00 0. -1.
          6    1    1    2  501    0 -0.22709113362E+02 -0.55929263403E+02 -0.36275376495E+02  0.18678514201E+03  0.17300000000E+03 0. -1.
         -6    1    1    2    0  502  0.22709113362E+02  0.55929263403E+02  0.40289022937E+03  0.44259837693E+03  0.17300000000E+03 0. -1.
<mgrwt>
<rscale>  2 0.18322878E+03</rscale>
<asrwt>0</asrwt>
<pdfrwt beam="1">  1       21 0.76615258E-01 0.18322878E+03</pdfrwt>
<pdfrwt beam="2">  1       21 0.20212975E-01 0.18322878E+03</pdfrwt>
<totfact> 0.34477225E+04</totfact>
</mgrwt>
</event>
<event>
 4    1  0.4495571E+000  0.1766021E+03  0.7546771E-02  0.1171133E+00
         21   -1    0    0  501  502  0.00000000000E+00  0.00000000000E+00  0.14982773679E+03  0.14982773679E+03  0.00000000000E+00 0. -1.
         21   -1    0    0  502  503 -0.00000000000E+00 -0.00000000000E+00 -0.93721102578E+03  0.93721102578E+03  0.00000000000E+00 0. -1.
          6    1    1    2  501    0  0.22452568382E+02 -0.27480526013E+02  0.85682928244E+02  0.19629024767E+03  0.17300000000E+03 0. -1.
         -6    1    1    2    0  503 -0.22452568382E+02  0.27480526013E+02 -0.87306621723E+03  0.89074851491E+03  0.17300000000E+03 0. -1.
<mgrwt>
<rscale>  2 0.17660209E+03</rscale>
<asrwt>0</asrwt>
<pdfrwt beam="1">  1       21 0.23050421E-01 0.17660209E+03</pdfrwt>
<pdfrwt beam="2">  1       21 0.14418631E+00 0.17660209E+03</pdfrwt>
<totfact> 0.59382278E+03</totfact>
</mgrwt>
</event>
<event>
 4    1  0.4495571E+000  0.1745789E+03  0.7546771E-02  0.1173155E+00
         21   -1    0    0  503  502  0.00000000000E+00  0.00000000000E+00  0.21691258415E+02  0.21691258415E+02  0.00000000000E+00 0.  1.
         21   -1    0    0  501  503 -0.00000000000E+00 -0.00000000000E+00 -0.17100122058E+04  0.17100122058E+04  0.00000000000E+00 0.  1.
          6    1    1    2  501    0  0.22861974893E+02  0.51106610967E+01 -0.12097981808E+04  0.12223295084E+04  0.17300000000E+03 0.  1.
         -6    1    1    2    0  502 -0.22861974893E+02 -0.51106610967E+01 -0.47852276651E+03  0.50937395577E+03  0.17300000000E+03 0.  1.
<mgrwt>
<rscale>  2 0.17457889E+03</rscale>
<asrwt>0</asrwt>
<pdfrwt beam="1">  1       21 0.33371159E-02 0.17457889E+03</pdfrwt>
<pdfrwt beam="2">  1       21 0.26307886E+00 0.17457889E+03</pdfrwt>
<totfact> 0.30047937E+04</totfact>
</mgrwt>
</event>
<event>
 4    1  0.4495571E+000  0.2202972E+03  0.7546771E-02  0.1133662E+00
         21   -1    0    0  503  502  0.00000000000E+00  0.00000000000E+00  0.15060718384E+04  0.15060718384E+04  0.00000000000E+00 0. -1.
         21   -1    0    0  501  503 -0.00000000000E+00 -0.00000000000E+00 -0.35918023181E+02  0.35918023181E+02  0.00000000000E+00 0.  1.
          6    1    1    2  501    0 -0.13172475146E+03  0.35361452843E+02  0.48780374626E+03  0.53524138233E+03  0.17300000000E+03 0.  1.
         -6    1    1    2    0  502  0.13172475146E+03 -0.35361452843E+02  0.98235006899E+03  0.10067484793E+04  0.17300000000E+03 0. -1.
<mgrwt>
<rscale>  2 0.22029717E+03</rscale>
<asrwt>0</asrwt>
<pdfrwt beam="1">  1       21 0.23170331E+00 0.22029717E+03</pdfrwt>
<pdfrwt beam="2">  1       21 0.55258509E-02 0.22029717E+03</pdfrwt>
<totfact> 0.18958437E+04</totfact>
</mgrwt>
</event>
<event>
 4    1  0.4495571E+000  0.2640466E+03  0.7546771E-02  0.1104736E+00
         21   -1    0    0  503  502  0.00000000000E+00  0.00000000000E+00  0.12402554604E+03  0.12402554604E+03  0.00000000000E+00 0. -1.
         21   -1    0    0  501  503 -0.00000000000E+00 -0.00000000000E+00 -0.85798355608E+03  0.85798355608E+03  0.00000000000E+00 0. -1.
          6    1    1    2  501    0  0.17854514711E+03  0.88956359966E+02 -0.65529707774E+03  0.70649477255E+03  0.17300000000E+03 0. -1.
         -6    1    1    2    0  502 -0.17854514711E+03 -0.88956359966E+02 -0.78660932296E+02  0.27551432958E+03  0.17300000000E+03 0. -1.
<mgrwt>
<rscale>  2 0.26404659E+03</rscale>
<asrwt>0</asrwt>
<pdfrwt beam="1">  1       21 0.19080852E-01 0.26404659E+03</pdfrwt>
<pdfrwt beam="2">  1       21 0.13199748E+00 0.26404659E+03</pdfrwt>
<totfact> 0.10009582E+04</totfact>
</mgrwt>
</event>
<event>
 4    1  0.4495571E+000  0.2984068E+03  0.7546771E-02  0.1086040E+00
         21   -1    0    0  501  502  0.00000000000E+00  0.00000000000E+00  0.23096785499E+03  0.23096785499E+03  0.00000000000E+00 0. -1.
         21   -1    0    0  502  503 -0.00000000000E+00 -0.00000000000E+00 -0.43409901894E+03  0.43409901894E+03  0.00000000000E+00 0.  1.
          6    1    1    2  501    0 -0.24311683275E+03  0.34373279801E+01  0.96562755363E+01  0.29856298037E+03  0.17300000000E+03 0. -1.
         -6    1    1    2    0  503  0.24311683275E+03 -0.34373279801E+01 -0.21278743949E+03  0.36650389356E+03  0.17300000000E+03 0.  1.
<mgrwt>
<rscale>  2 0.29840679E+03</rscale>
<asrwt>0</asrwt>
<pdfrwt beam="1">  1       21 0.35533517E-01 0.29840679E+03</pdfrwt>
<pdfrwt beam="2">  1       21 0.66784464E-01 0.29840679E+03</pdfrwt>
<totfact> 0.14839686E+04</totfact>
</mgrwt>
</event>
<event>
 4    1  0.4495571E+000  0.2868563E+03  0.7546771E-02  0.1092002E+00
         21   -1    0    0  501  502  0.00000000000E+00  0.00000000000E+00  0.20818736687E+04  0.20818736687E+04  0.00000000000E+00 0. -1.
         21   -1    0    0  502  503 -0.00000000000E+00 -0.00000000000E+00 -0.74868021016E+02  0.74868021016E+02  0.00000000000E+00 0.  1.
          6    1    1    2  501    0  0.22040092021E+03 -0.61489523366E+02  0.17444212699E+04  0.17678495677E+04  0.17300000000E+03 0. -1.
         -6    1    1    2    0  503 -0.22040092021E+03  0.61489523366E+02  0.26258437778E+03  0.38889212202E+03  0.17300000000E+03 0.  1.
<mgrwt>
<rscale>  2 0.28685628E+03</rscale>
<asrwt>0</asrwt>
<pdfrwt beam="1">  1       21 0.32028821E+00 0.28685628E+03</pdfrwt>
<pdfrwt beam="2">  1       21 0.11518159E-01 0.28685628E+03</pdfrwt>
<totfact> 0.14847067E+03</totfact>
</mgrwt>
</event>
<event>
 4    1  0.4495571E+000  0.3214338E+03  0.7546771E-02  0.1074991E+00
         21   -1    0    0  501  502  0.00000000000E+00  0.00000000000E+00  0.10056561375E+03  0.10056561375E+03  0.00000000000E+00 0.  1.
         21   -1    0    0  502  503 -0.00000000000E+00 -0.00000000000E+00 -0.11237157808E+04  0.11237157808E+04  0.00000000000E+00 0.  1.
          6    1    1    2  501    0 -0.89027231313E+02  0.25586100391E+03 -0.33234811712E+03  0.46235805627E+03  0.17300000000E+03 0.  1.
         -6    1    1    2    0  503  0.89027231313E+02 -0.25586100391E+03 -0.69080204996E+03  0.76192333832E+03  0.17300000000E+03 0.  1.
<mgrwt>
<rscale>  2 0.32143382E+03</rscale>
<asrwt>0</asrwt>
<pdfrwt beam="1">  1       21 0.15471633E-01 0.32143382E+03</pdfrwt>
<pdfrwt beam="2">  1       21 0.17287935E+00 0.32143382E+03</pdfrwt>
<totfact> 0.69445601E+03</totfact>
</mgrwt>
</event>
<event>
 4    1  0.4495571E+000  0.2757589E+03  0.7546771E-02  0.1098028E+00
         21   -1    0    0  503  502  0.00000000000E+00  0.00000000000E+00  0.39170631566E+03  0.39170631566E+03  0.00000000000E+00 0.  1.
         21   -1    0    0  501  503 -0.00000000000E+00 -0.00000000000E+00 -0.20455467638E+03  0.20455467638E+03  0.00000000000E+00 0.  1.
          6    1    1    2  501    0  0.18057514579E+03 -0.11621790673E+03  0.16087004192E+03  0.31925249491E+03  0.17300000000E+03 0.  1.
         -6    1    1    2    0  502 -0.18057514579E+03  0.11621790673E+03  0.26281597356E+02  0.27700849713E+03  0.17300000000E+03 0.  1.
<mgrwt>
<rscale>  2 0.27575893E+03</rscale>
<asrwt>0</asrwt>
<pdfrwt beam="1">  1       21 0.60262510E-01 0.27575893E+03</pdfrwt>
<pdfrwt beam="2">  1       21 0.31469950E-01 0.27575893E+03</pdfrwt>
<totfact> 0.23899598E+04</totfact>
</mgrwt>
</event>
<event>
 4    1  0.4495571E+000  0.2164761E+03  0.7546771E-02  0.1136538E+00
         21   -1    0    0  501  502  0.00000000000E+00  0.00000000000E+00  0.22314258309E+03  0.22314258309E+03  0.00000000000E+00 0.  1.
         21   -1    0    0  502  503 -0.00000000000E+00 -0.00000000000E+00 -0.22408295368E+03  0.22408295368E+03  0.00000000000E+00 0.  1.
          6    1    1    2  501    0 -0.12710347762E+02  0.12950427506E+03 -0.56510820512E+02  0.22373060370E+03  0.17300000000E+03 0.  1.
         -6    1    1    2    0  503  0.12710347762E+02 -0.12950427506E+03  0.55570449927E+02  0.22349493306E+03  0.17300000000E+03 0.  1.
<mgrwt>
<rscale>  2 0.21647612E+03</rscale>
<asrwt>0</asrwt>
<pdfrwt beam="1">  1       21 0.34329628E-01 0.21647612E+03</pdfrwt>
<pdfrwt beam="2">  1       21 0.34474300E-01 0.21647612E+03</pdfrwt>
<totfact> 0.65610202E+04</totfact>
</mgrwt>
</event>
<event>
 4    1  0.4495571E+000  0.1951460E+03  0.7546771E-02  0.1153900E+00
         21   -1    0    0  501  502  0.00000000000E+00  0.00000000000E+00  0.14818998212E+03  0.14818998212E+03  0.00000000000E+00 0. -1.
         21   -1    0    0  502  503 -0.00000000000E+00 -0.00000000000E+00 -0.27922616721E+03  0.27922616721E+03  0.00000000000E+00 0. -1.
          6    1    1    2  501    0  0.15752432641E+02  0.88909102076E+02 -0.51977924992E+01  0.19521522639E+03  0.17300000000E+03 0.  1.
         -6    1    1    2    0  503 -0.15752432641E+02 -0.88909102076E+02 -0.12583839260E+03  0.23220092295E+03  0.17300000000E+03 0.  1.
<mgrwt>
<rscale>  2 0.19514602E+03</rscale>
<asrwt>0</asrwt>
<pdfrwt beam="1">  1       21 0.22798459E-01 0.19514602E+03</pdfrwt>
<pdfrwt beam="2">  1       21 0.42957872E-01 0.19514602E+03</pdfrwt>
<totfact> 0.93953007E+04</totfact>
</mgrwt>
</event>
<event>
 4    1  0.4495571E+000  0.2262951E+03  0.7546771E-02  0.1129275E+00
         21   -1    0    0  501  502  0.00000000000E+00  0.00000000000E+00  0.28933282887E+03  0.28933282887E+03  0.00000000000E+00 0.  1.
         21   -1    0    0  502  503 -0.00000000000E+00 -0.00000000000E+00 -0.20497411194E+03  0.20497411194E+03  0.00000000000E+00 0. -1.
          6    1    1    2  501    0 -0.33985294803E+02  0.14186427255E+03  0.13349828038E+03  0.26273801201E+03  0.17300000000E+03 0.  1.
         -6    1    1    2    0  503  0.33985294803E+02 -0.14186427255E+03 -0.49139563451E+02  0.23156892880E+03  0.17300000000E+03 0.  1.
<mgrwt>
<rscale>  2 0.22629510E+03</rscale>
<asrwt>0</asrwt>
<pdfrwt beam="1">  1       21 0.44512743E-01 0.22629510E+03</pdfrwt>
<pdfrwt beam="2">  1       21 0.31534479E-01 0.22629510E+03</pdfrwt>
<totfact> 0.46094479E+04</totfact>
</mgrwt>
</event>
<event>
 4    1  0.4495571E+000  0.3140843E+03  0.7546771E-02  0.1078405E+00
         21   -1    0    0  503  502  0.00000000000E+00  0.00000000000E+00  0.17447015559E+04  0.17447015559E+04  0.00000000000E+00 0. -1.
         21   -1    0    0  501  503 -0.00000000000E+00 -0.00000000000E+00 -0.85909146948E+02  0.85909146948E+02  0.00000000000E+00 0. -1.
          6    1    1    2  501    0 -0.20727419885E+03 -0.16049097250E+03  0.29424433417E+03  0.43038200933E+03  0.17300000000E+03 0. -1.
         -6    1    1    2    0  502  0.20727419885E+03  0.16049097250E+03  0.13645480747E+04  0.14002286935E+04  0.17300000000E+03 0. -1.
<mgrwt>
<rscale>  2 0.31408430E+03</rscale>
<asrwt>0</asrwt>
<pdfrwt beam="1">  1       21 0.26841560E+00 0.31408430E+03</pdfrwt>
<pdfrwt beam="2">  1       21 0.13216793E-01 0.31408430E+03</pdfrwt>
<totfact> 0.22939134E+03</totfact>
</mgrwt>
</event>
<event>
 4    1  0.4495571E+000  0.2779992E+03  0.7546771E-02  0.1096787E+00
         21   -1    0    0  501  502  0.00000000000E+00  0.00000000000E+00  0.73411084355E+03  0.73411084355E+03  0.00000000000E+00 0. -1.
         21   -1    0    0  502  503 -0.00000000000E+00 -0.00000000000E+00 -0.30635057909E+03  0.30635057909E+03  0.00000000000E+00 0.  1.
          6    1    1    2  501    0 -0.20886643631E+03 -0.61068420353E+02  0.63534974378E+03  0.69350763306E+03  0.17300000000E+03 0. -1.
         -6    1    1    2    0  503  0.20886643631E+03  0.61068420353E+02 -0.20758947932E+03  0.34695378958E+03  0.17300000000E+03 0.  1.
<mgrwt>
<rscale>  2 0.27799917E+03</rscale>
<asrwt>0</asrwt>
<pdfrwt beam="1">  1       21 0.11294013E+00 0.27799917E+03</pdfrwt>
<pdfrwt beam="2">  1       21 0.47130859E-01 0.27799917E+03</pdfrwt>
<totfact> 0.24747133E+03</totfact>
</mgrwt>
</event>
<event>
 4    1  0.4495571E+000  0.1876565E+03  0.7546771E-02  0.1160592E+00
         21   -1    0    0  501  502  0.00000000000E+00  0.00000000000E+00  0.10823852149E+04  0.10823852149E+04  0.00000000000E+00 0.  1.
         21   -1    0    0  502  503 -0.00000000000E+00 -0.00000000000E+00 -0.35662617825E+02  0.35662617825E+02  0.00000000000E+00 0.  1.
          6    1    1    2  501    0  0.42498459409E+02  0.58990350211E+02  0.68892217535E+03  0.71402292971E+03  0.17300000000E+03 0.  1.
         -6    1    1    2    0  503 -0.42498459409E+02 -0.58990350211E+02  0.35780042177E+03  0.40402490305E+03  0.17300000000E+03 0.  1.
<mgrwt>
<rscale>  2 0.18765655E+03</rscale>
<asrwt>0</asrwt>
<pdfrwt beam="1">  1       21 0.16652078E+00 0.18765655E+03</pdfrwt>
<pdfrwt beam="2">  1       21 0.54865574E-02 0.18765655E+03</pdfrwt>
<totfact> 0.52027950E+04</totfact>
</mgrwt>
</event>
<event>
 4    1  0.4495571E+000  0.1784811E+03  0.7546771E-02  0.1169281E+00
         21   -1    0    0  503  502  0.00000000000E+00  0.00000000000E+00  0.38656496459E+03  0.38656496459E+03  0.00000000000E+00 0.  1.
         21   -1    0    0  501  503 -0.00000000000E+00 -0.00000000000E+00 -0.99489625292E+02  0.99489625292E+02  0.00000000000E+00 0.  1.
          6    1    1    2  501    0  0.28410122429E+02  0.33457045444E+02  0.42833280810E+02  0.18354890054E+03  0.17300000000E+03 0.  1.
         -6    1    1    2    0  502 -0.28410122429E+02 -0.33457045444E+02  0.24424205848E+03  0.30250568933E+03  0.17300000000E+03 0.  1.
<mgrwt>
<rscale>  2 0.17848112E+03</rscale>
<asrwt>0</asrwt>
<pdfrwt beam="1">  1       21 0.59471532E-01 0.17848112E+03</pdfrwt>
<pdfrwt beam="2">  1       21 0.15306096E-01 0.17848112E+03</pdfrwt>
<totfact> 0.10039552E+05</totfact>
</mgrwt>
</event>
<event>
 4    1  0.4495571E+000  0.1915862E+03  0.7546771E-02  0.1157038E+00
         21   -1    0    0  503  502  0.00000000000E+00  0.00000000000E+00  0.51377883779E+02  0.51377883779E+02  0.00000000000E+00 0. -1.
         21   -1    0    0  501  503 -0.00000000000E+00 -0.00000000000E+00 -0.72593760579E+03  0.72593760579E+03  0.00000000000E+00 0. -1.
          6    1    1    2  501    0 -0.15111513710E+02 -0.80919286492E+02 -0.28832057298E+03  0.34617053828E+03  0.17300000000E+03 0. -1.
         -6    1    1    2    0  502  0.15111513710E+02  0.80919286492E+02 -0.38623914904E+03  0.43114495129E+03  0.17300000000E+03 0. -1.
<mgrwt>
<rscale>  2 0.19158624E+03</rscale>
<asrwt>0</asrwt>
<pdfrwt beam="1">  1       21 0.79042905E-02 0.19158624E+03</pdfrwt>
<pdfrwt beam="2">  1       21 0.11168270E+00 0.19158624E+03</pdfrwt>
<totfact> 0.77182344E+04</totfact>
</mgrwt>
</event>
<event>
 4    1  0.4495571E+000  0.2165227E+03  0.7546771E-02  0.1136502E+00
         21   -1    0    0  503  502  0.00000000000E+00  0.00000000000E+00  0.10915314033E+04  0.10915314033E+04  0.00000000000E+00 0.  1.
         21   -1    0    0  501  503 -0.00000000000E+00 -0.00000000000E+00 -0.45837401328E+02  0.45837401328E+02  0.00000000000E+00 0. -1.
          6    1    1    2  501    0 -0.41634927795E+02  0.12336785407E+03  0.38013570989E+03  0.43747600227E+03  0.17300000000E+03 0. -1.
         -6    1    1    2    0  502  0.41634927795E+02 -0.12336785407E+03  0.66555829203E+03  0.69989280231E+03  0.17300000000E+03 0.  1.
<mgrwt>
<rscale>  2 0.21652273E+03</rscale>
<asrwt>0</asrwt>
<pdfrwt beam="1">  1       21 0.16792789E+00 0.21652273E+03</pdfrwt>
<pdfrwt beam="2">  1       21 0.70519087E-02 0.21652273E+03</pdfrwt>
<totfact> 0.32467461E+04</totfact>
</mgrwt>
</event>
<event>
 4    1  0.4495571E+000  0.1743144E+03  0.7546771E-02  0.1173422E+00
         21   -1    0    0  503  502  0.00000000000E+00  0.00000000000E+00  0.14060764252E+04  0.14060764252E+04  0.00000000000E+00 0.  1.
         21   -1    0    0  501  503 -0.00000000000E+00 -0.00000000000E+00 -0.66843241386E+02  0.66843241386E+02  0.00000000000E+00 0.  1.
          6    1    1    2  501    0 -0.25497570709E+00  0.21364476121E+02  0.63789757332E+02  0.18561960832E+03  0.17300000000E+03 0.  1.
         -6    1    1    2    0  502  0.25497570709E+00 -0.21364476121E+02  0.12754434265E+04  0.12873000582E+04  0.17300000000E+03 0.  1.
<mgrwt>
<rscale>  2 0.17431439E+03</rscale>
<asrwt>0</asrwt>
<pdfrwt beam="1">  1       21 0.21631943E+00 0.17431439E+03</pdfrwt>
<pdfrwt beam="2">  1       21 0.10283577E-01 0.17431439E+03</pdfrwt>
<totfact> 0.83266451E+03</totfact>
</mgrwt>
</event>
<event>
 4    1  0.4495571E+000  0.2290679E+03  0.7546771E-02  0.1127298E+00
         21   -1    0    0  501  502  0.00000000000E+00  0.00000000000E+00  0.13403496583E+04  0.13403496583E+04  0.00000000000E+00 0. -1.
         21   -1    0    0  502  503 -0.00000000000E+00 -0.00000000000E+00 -0.51486712355E+02  0.51486712355E+02  0.00000000000E+00 0. -1.
          6    1    1    2  501    0  0.88286948150E+02  0.12144354315E+03  0.98510945629E+03  0.10113914970E+04  0.17300000000E+03 0. -1.
         -6    1    1    2    0  503 -0.88286948150E+02 -0.12144354315E+03  0.30375348961E+03  0.38044487359E+03  0.17300000000E+03 0. -1.
<mgrwt>
<rscale>  2 0.22906794E+03</rscale>
<asrwt>0</asrwt>
<pdfrwt beam="1">  1       21 0.20620761E+00 0.22906794E+03</pdfrwt>
<pdfrwt beam="2">  1       21 0.79210337E-02 0.22906794E+03</pdfrwt>
<totfact> 0.14555272E+04</totfact>
</mgrwt>
</event>
<event>
 4    1  0.4495571E+000  0.2062498E+03  0.7546771E-02  0.1144571E+00
         21   -1    0    0  503  502  0.00000000000E+00  0.00000000000E+00  0.46630255940E+03  0.46630255940E+03  0.00000000000E+00 0.  1.
         21   -1    0    0  501  503 -0.00000000000E+00 -0.00000000000E+00 -0.10968897162E+03  0.10968897162E+03  0.00000000000E+00 0.  1.
          6    1    1    2  501    0  0.10613410195E+03  0.36681233252E+02  0.60151187985E+02  0.21484209524E+03  0.17300000000E+03 0.  1.
         -6    1    1    2    0  502 -0.10613410195E+03 -0.36681233252E+02  0.29646239980E+03  0.36114943578E+03  0.17300000000E+03 0.  1.
<mgrwt>
<rscale>  2 0.20624975E+03</rscale>
<asrwt>0</asrwt>
<pdfrwt beam="1">  1       21 0.71738855E-01 0.20624975E+03</pdfrwt>
<pdfrwt beam="2">  1       21 0.16875227E-01 0.20624975E+03</pdfrwt>
<totfact> 0.55138542E+04</totfact>
</mgrwt>
</event>
<event>
 4    1  0.4495571E+000  0.2399431E+03  0.7546771E-02  0.1119831E+00
         21   -1    0    0  503  502  0.00000000000E+00  0.00000000000E+00  0.80424809970E+03  0.80424809970E+03  0.00000000000E+00 0. -1.
         21   -1    0    0  501  503 -0.00000000000E+00 -0.00000000000E+00 -0.12699938629E+03  0.12699938629E+03  0.00000000000E+00 0. -1.
          6    1    1    2  501    0 -0.16555721792E+03  0.15313256122E+02  0.31055254154E+02  0.24194445030E+03  0.17300000000E+03 0. -1.
         -6    1    1    2    0  502  0.16555721792E+03 -0.15313256122E+02  0.64619345926E+03  0.68930303569E+03  0.17300000000E+03 0. -1.
<mgrwt>
<rscale>  2 0.23994309E+03</rscale>
<asrwt>0</asrwt>
<pdfrwt beam="1">  1       21 0.12373047E+00 0.23994309E+03</pdfrwt>
<pdfrwt beam="2">  1       21 0.19538368E-01 0.23994309E+03</pdfrwt>
<totfact> 0.11438212E+04</totfact>
</mgrwt>
</event>
<event>
 4    1  0.4495571E+000  0.1982205E+03  0.7546771E-02  0.1151249E+00
         21   -1    0    0  503  502  0.00000000000E+00  0.00000000000E+00  0.26716033711E+03  0.26716033711E+03  0.00000000000E+00 0.  1.
         21   -1    0    0  501  503 -0.00000000000E+00 -0.00000000000E+00 -0.10770134978E+04  0.10770134978E+04  0.00000000000E+00 0.  1.
          6    1    1    2  501    0  0.94916182756E+02  0.18796376753E+02 -0.10294418326E+04  0.10483519792E+04  0.17300000000E+03 0.  1.
         -6    1    1    2    0  502 -0.94916182756E+02 -0.18796376753E+02  0.21958867188E+03  0.29582185576E+03  0.17300000000E+03 0.  1.
<mgrwt>
<rscale>  2 0.19822055E+03</rscale>
<asrwt>0</asrwt>
<pdfrwt beam="1">  1       21 0.41101590E-01 0.19822055E+03</pdfrwt>
<pdfrwt beam="2">  1       21 0.16569439E+00 0.19822055E+03</pdfrwt>
<totfact> 0.12976283E+03</totfact>
</mgrwt>
</event>
<event>
 4    1  0.4495571E+000  0.1734191E+03  0.7546771E-02  0.1174328E+00
         21   -1    0    0  503  502  0.00000000000E+00  0.00000000000E+00  0.70368713789E+03  0.70368713789E+03  0.00000000000E+00 0. -1.
         21   -1    0    0  501  503 -0.00000000000E+00 -0.00000000000E+00 -0.56043152084E+02  0.56043152084E+02  0.00000000000E+00 0. -1.
          6    1    1    2  501    0  0.98626196790E+00  0.12009288553E+02  0.13873421265E+03  0.22208416756E+03  0.17300000000E+03 0. -1.
         -6    1    1    2    0  502 -0.98626196790E+00 -0.12009288553E+02  0.50890977316E+03  0.53764612241E+03  0.17300000000E+03 0. -1.
<mgrwt>
<rscale>  2 0.17341913E+03</rscale>
<asrwt>0</asrwt>
<pdfrwt beam="1">  1       21 0.10825955E+00 0.17341913E+03</pdfrwt>
<pdfrwt beam="2">  1       21 0.86220239E-02 0.17341913E+03</pdfrwt>
<totfact> 0.72123422E+04</totfact>
</mgrwt>
</event>
<event>
 4    1  0.4495571E+000  0.1824904E+03  0.7546771E-02  0.1165414E+00
         21   -1    0    0  503  502  0.00000000000E+00  0.00000000000E+00  0.23189478971E+03  0.23189478971E+03  0.00000000000E+00 0.  1.
         21   -1    0    0  501  503 -0.00000000000E+00 -0.00000000000E+00 -0.33814095750E+03  0.33814095750E+03  0.00000000000E+00 0.  1.
          6    1    1    2  501    0  0.18693484167E+02 -0.54993640433E+02 -0.26930330218E+03  0.32531064447E+03  0.17300000000E+03 0.  1.
         -6    1    1    2    0  502 -0.18693484167E+02  0.54993640433E+02  0.16305713439E+03  0.24472510274E+03  0.17300000000E+03 0.  1.
<mgrwt>
<rscale>  2 0.18249040E+03</rscale>
<asrwt>0</asrwt>
<pdfrwt beam="1">  1       21 0.35676122E-01 0.18249040E+03</pdfrwt>
<pdfrwt beam="2">  1       21 0.52021685E-01 0.18249040E+03</pdfrwt>
<totfact> 0.26720615E+04</totfact>
</mgrwt>
</event>
<event>
 4    1  0.4495571E+000  0.1753212E+03  0.7546771E-02  0.1172410E+00
         21   -1    0    0  503  502  0.00000000000E+00  0.00000000000E+00  0.24755203579E+02  0.24755203579E+02  0.00000000000E+00 0.  1.
         21   -1    0    0  501  503 -0.00000000000E+00 -0.00000000000E+00 -0.12511513849E+04  0.12511513849E+04  0.00000000000E+00 0.  1.
          6    1    1    2  501    0  0.26724030632E+02  0.97127274416E+01 -0.55762925920E+03  0.58454076129E+03  0.17300000000E+03 0.  1.
         -6    1    1    2    0  502 -0.26724030632E+02 -0.97127274416E+01 -0.66876692209E+03  0.69136582716E+03  0.17300000000E+03 0.  1.
<mgrwt>
<rscale>  2 0.17532116E+03</rscale>
<asrwt>0</asrwt>
<pdfrwt beam="1">  1       21 0.38084928E-02 0.17532116E+03</pdfrwt>
<pdfrwt beam="2">  1       21 0.19248483E+00 0.17532116E+03</pdfrwt>
<totfact> 0.64591390E+04</totfact>
</mgrwt>
</event>
<event>
 4    1  0.4495571E+000  0.3108584E+03  0.7546771E-02  0.1079935E+00
         21   -1    0    0  501  502  0.00000000000E+00  0.00000000000E+00  0.56670301074E+03  0.56670301074E+03  0.00000000000E+00 0.  1.
         21   -1    0    0  502  503 -0.00000000000E+00 -0.00000000000E+00 -0.18920231096E+03  0.18920231096E+03  0.00000000000E+00 0.  1.
          6    1    1    2  501    0  0.17440645372E+03  0.19048971318E+03  0.30752266870E+03  0.43726780546E+03  0.17300000000E+03 0.  1.
         -6    1    1    2    0  503 -0.17440645372E+03 -0.19048971318E+03  0.69978031078E+02  0.31863751625E+03  0.17300000000E+03 0.  1.
<mgrwt>
<rscale>  2 0.31085840E+03</rscale>
<asrwt>0</asrwt>
<pdfrwt beam="1">  1       21 0.87185078E-01 0.31085840E+03</pdfrwt>
<pdfrwt beam="2">  1       21 0.29108048E-01 0.31085840E+03</pdfrwt>
<totfact> 0.11984225E+04</totfact>
</mgrwt>
</event>
<event>
 4    1  0.4495571E+000  0.2113482E+03  0.7546771E-02  0.1140503E+00
         21   -1    0    0  503  502  0.00000000000E+00  0.00000000000E+00  0.11794598605E+04  0.11794598605E+04  0.00000000000E+00 0.  1.
         21   -1    0    0  501  503 -0.00000000000E+00 -0.00000000000E+00 -0.37871638800E+02  0.37871638800E+02  0.00000000000E+00 0. -1.
          6    1    1    2  501    0 -0.50666497715E+02 -0.11032658402E+03  0.57128187678E+03  0.60912316642E+03  0.17300000000E+03 0.  1.
         -6    1    1    2    0  502  0.50666497715E+02  0.11032658402E+03  0.57030634496E+03  0.60820833292E+03  0.17300000000E+03 0. -1.
<mgrwt>
<rscale>  2 0.21134817E+03</rscale>
<asrwt>0</asrwt>
<pdfrwt beam="1">  1       21 0.18145533E+00 0.21134817E+03</pdfrwt>
<pdfrwt beam="2">  1       21 0.58264069E-02 0.21134817E+03</pdfrwt>
<totfact> 0.36435278E+04</totfact>
</mgrwt>
</event>
<event>
 4    1  0.4495571E+000  0.2322019E+03  0.7546771E-02  0.1125099E+00
         21   -1    0    0  503  502  0.00000000000E+00  0.00000000000E+00  0.93763597241E+02  0.93763597241E+02  0.00000000000E+00 0. -1.
         21   -1    0    0  501  503 -0.00000000000E+00 -0.00000000000E+00 -0.68598474074E+03  0.68598474074E+03  0.00000000000E+00 0. -1.
          6    1    1    2  501    0 -0.15037588742E+03 -0.37092037454E+02 -0.45290207314E+03  0.50895777292E+03  0.17300000000E+03 0. -1.
         -6    1    1    2    0  502  0.15037588742E+03  0.37092037454E+02 -0.13931907036E+03  0.27079056506E+03  0.17300000000E+03 0. -1.
<mgrwt>
<rscale>  2 0.23220191E+03</rscale>
<asrwt>0</asrwt>
<pdfrwt beam="1">  1       21 0.14425169E-01 0.23220191E+03</pdfrwt>
<pdfrwt beam="2">  1       21 0.10553611E+00 0.23220191E+03</pdfrwt>
<totfact> 0.29745251E+04</totfact>
</mgrwt>
</event>
<event>
 4    1  0.4495571E+000  0.2025547E+03  0.7546771E-02  0.1147601E+00
         21   -1    0    0  501  502  0.00000000000E+00  0.00000000000E+00  0.60964870837E+03  0.60964870837E+03  0.00000000000E+00 0. -1.
         21   -1    0    0  502  503 -0.00000000000E+00 -0.00000000000E+00 -0.23393191865E+03  0.23393191865E+03  0.00000000000E+00 0. -1.
          6    1    1    2  501    0  0.26789987490E+02  0.10189068955E+03  0.54384443823E+03  0.58034058021E+03  0.17300000000E+03 0. -1.
         -6    1    1    2    0  503 -0.26789987490E+02 -0.10189068955E+03 -0.16812764851E+03  0.26324004680E+03  0.17300000000E+03 0. -1.
<mgrwt>
<rscale>  2 0.20255472E+03</rscale>
<asrwt>0</asrwt>
<pdfrwt beam="1">  1       21 0.93792108E-01 0.20255472E+03</pdfrwt>
<pdfrwt beam="2">  1       21 0.35989526E-01 0.20255472E+03</pdfrwt>
<totfact> 0.70539576E+03</totfact>
</mgrwt>
</event>
<event>
 4    1  0.4495571E+000  0.1916799E+03  0.7546771E-02  0.1156955E+00
         21   -1    0    0  501  502  0.00000000000E+00  0.00000000000E+00  0.79576605369E+03  0.79576605369E+03  0.00000000000E+00 0. -1.
         21   -1    0    0  502  503 -0.00000000000E+00 -0.00000000000E+00 -0.10851485684E+03  0.10851485684E+03  0.00000000000E+00 0. -1.
          6    1    1    2  501    0  0.38098760638E+02  0.73216530620E+02  0.68633514768E+03  0.71259884287E+03  0.17300000000E+03 0. -1.
         -6    1    1    2    0  503 -0.38098760638E+02 -0.73216530620E+02  0.91604916786E+00  0.19168206766E+03  0.17300000000E+03 0. -1.
<mgrwt>
<rscale>  2 0.19167988E+03</rscale>
<asrwt>0</asrwt>
<pdfrwt beam="1">  1       21 0.12242554E+00 0.19167988E+03</pdfrwt>
<pdfrwt beam="2">  1       21 0.16694594E-01 0.19167988E+03</pdfrwt>
<totfact> 0.16217828E+04</totfact>
</mgrwt>
</event>
<event>
 4    1  0.4495571E+000  0.2346587E+03  0.7546771E-02  0.1123403E+00
         21   -1    0    0  501  502  0.00000000000E+00  0.00000000000E+00  0.11178572808E+04  0.11178572808E+04  0.00000000000E+00 0. -1.
         21   -1    0    0  502  503 -0.00000000000E+00 -0.00000000000E+00 -0.49282510277E+02  0.49282510277E+02  0.00000000000E+00 0. -1.
          6    1    1    2  501    0 -0.15807479502E+03  0.12168045077E+02  0.52158271935E+03  0.57193813937E+03  0.17300000000E+03 0. -1.
         -6    1    1    2    0  503  0.15807479502E+03 -0.12168045077E+02  0.54699205114E+03  0.59520165168E+03  0.17300000000E+03 0. -1.
<mgrwt>
<rscale>  2 0.23465869E+03</rscale>
<asrwt>0</asrwt>
<pdfrwt beam="1">  1       21 0.17197802E+00 0.23465869E+03</pdfrwt>
<pdfrwt beam="2">  1       21 0.75819255E-02 0.23465869E+03</pdfrwt>
<totfact> 0.26510238E+04</totfact>
</mgrwt>
</event>
<event>
 4    1  0.4495571E+000  0.1904812E+03  0.7546771E-02  0.1158028E+00
         21   -1    0    0  503  502  0.00000000000E+00  0.00000000000E+00  0.74932024258E+02  0.74932024258E+02  0.00000000000E+00 0.  1.
         21   -1    0    0  501  503 -0.00000000000E+00 -0.00000000000E+00 -0.65388547386E+03  0.65388547386E+03  0.00000000000E+00 0.  1.
          6    1    1    2  501    0 -0.65433613937E+02 -0.45524968827E+02 -0.47510464503E+03  0.51186668611E+03  0.17300000000E+03 0.  1.
         -6    1    1    2    0  502  0.65433613937E+02  0.45524968827E+02 -0.10384880457E+03  0.21695081201E+03  0.17300000000E+03 0.  1.
<mgrwt>
<rscale>  2 0.19048118E+03</rscale>
<asrwt>0</asrwt>
<pdfrwt beam="1">  1       21 0.11528003E-01 0.19048118E+03</pdfrwt>
<pdfrwt beam="2">  1       21 0.10059777E+00 0.19048118E+03</pdfrwt>
<totfact> 0.51083907E+04</totfact>
</mgrwt>
</event>
<event>
 4    1  0.4495571E+000  0.1744505E+03  0.7546771E-02  0.1173285E+00
         21   -1    0    0  501  502  0.00000000000E+00  0.00000000000E+00  0.92449243055E+03  0.92449243055E+03  0.00000000000E+00 0.  1.
         21   -1    0    0  502  503 -0.00000000000E+00 -0.00000000000E+00 -0.99144968681E+02  0.99144968681E+02  0.00000000000E+00 0.  1.
          6    1    1    2  501    0  0.64527422201E+01 -0.21502059611E+02  0.83098190542E+03  0.84909593308E+03  0.17300000000E+03 0.  1.
         -6    1    1    2    0  503 -0.64527422201E+01  0.21502059611E+02 -0.56344435504E+01  0.17454146614E+03  0.17300000000E+03 0.  1.
<mgrwt>
<rscale>  2 0.17445050E+03</rscale>
<asrwt>0</asrwt>
<pdfrwt beam="1">  1       21 0.14222960E+00 0.17445050E+03</pdfrwt>
<pdfrwt beam="2">  1       21 0.15253073E-01 0.17445050E+03</pdfrwt>
<totfact> 0.13244217E+04</totfact>
</mgrwt>
</event>
<event>
 4    1  0.4495571E+000  0.1834008E+03  0.7546771E-02  0.1164552E+00
         21   -1    0    0  501  502  0.00000000000E+00  0.00000000000E+00  0.17299715784E+03  0.17299715784E+03  0.00000000000E+00 0.  1.
         21   -1    0    0  502  503 -0.00000000000E+00 -0.00000000000E+00 -0.31179511664E+03  0.31179511664E+03  0.00000000000E+00 0.  1.
          6    1    1    2  501    0 -0.66660335636E+01 -0.60517868322E+02  0.79317960345E+02  0.19981788514E+03  0.17300000000E+03 0.  1.
         -6    1    1    2    0  503  0.66660335636E+01  0.60517868322E+02 -0.21811591914E+03  0.28497438933E+03  0.17300000000E+03 0.  1.
<mgrwt>
<rscale>  2 0.18340079E+03</rscale>
<asrwt>0</asrwt>
<pdfrwt beam="1">  1       21 0.26614948E-01 0.18340079E+03</pdfrwt>
<pdfrwt beam="2">  1       21 0.47968479E-01 0.18340079E+03</pdfrwt>
<totfact> 0.56038974E+04</totfact>
</mgrwt>
</event>
<event>
 4    1  0.4495571E+000  0.2479483E+03  0.7546771E-02  0.1114608E+00
         21   -1    0    0  501  502  0.00000000000E+00  0.00000000000E+00  0.26679368789E+03  0.26679368789E+03  0.00000000000E+00 0.  1.
         21   -1    0    0  502  503 -0.00000000000E+00 -0.00000000000E+00 -0.23113168504E+03  0.23113168504E+03  0.00000000000E+00 0. -1.
          6    1    1    2  501    0 -0.17741025807E+03  0.86593370175E+01  0.31507636528E+02  0.24994222321E+03  0.17300000000E+03 0.  1.
         -6    1    1    2    0  503  0.17741025807E+03 -0.86593370175E+01  0.41543663202E+01  0.24798314972E+03  0.17300000000E+03 0.  1.
<mgrwt>
<rscale>  2 0.24794835E+03</rscale>
<asrwt>0</asrwt>
<pdfrwt beam="1">  1       21 0.41045183E-01 0.24794835E+03</pdfrwt>
<pdfrwt beam="2">  1       21 0.35558721E-01 0.24794835E+03</pdfrwt>
<totfact> 0.42493396E+04</totfact>
</mgrwt>
</event>
<event>
 4    1  0.4495571E+000  0.3067150E+03  0.7546771E-02  0.1081931E+00
         21   -1    0    0  503  502  0.00000000000E+00  0.00000000000E+00  0.94069873344E+02  0.94069873344E+02  0.00000000000E+00 0.  1.
         21   -1    0    0  501  503 -0.00000000000E+00 -0.00000000000E+00 -0.10718095066E+04  0.10718095066E+04  0.00000000000E+00 0. -1.
          6    1    1    2  501    0 -0.19476230315E+03 -0.16190352180E+03 -0.63971092665E+03  0.70943933833E+03  0.17300000000E+03 0. -1.
         -6    1    1    2    0  502  0.19476230315E+03  0.16190352180E+03 -0.33802870661E+03  0.45644004161E+03  0.17300000000E+03 0.  1.
<mgrwt>
<rscale>  2 0.30671502E+03</rscale>
<asrwt>0</asrwt>
<pdfrwt beam="1">  1       21 0.14472287E-01 0.30671502E+03</pdfrwt>
<pdfrwt beam="2">  1       21 0.16489378E+00 0.30671502E+03</pdfrwt>
<totfact> 0.90322850E+03</totfact>
</mgrwt>
</event>
<event>
 4    1  0.4495571E+000  0.2297763E+03  0.7546771E-02  0.1126797E+00
         21   -1    0    0  501  502  0.00000000000E+00  0.00000000000E+00  0.70740923298E+02  0.70740923298E+02  0.00000000000E+00 0. -1.
         21   -1    0    0  502  503 -0.00000000000E+00 -0.00000000000E+00 -0.82540272630E+03  0.82540272630E+03  0.00000000000E+00 0.  1.
          6    1    1    2  501    0 -0.15073476197E+03  0.12131276373E+02 -0.23865954266E+03  0.33129369694E+03  0.17300000000E+03 0. -1.
         -6    1    1    2    0  503  0.15073476197E+03 -0.12131276373E+02 -0.51600226034E+03  0.56484995265E+03  0.17300000000E+03 0.  1.
<mgrwt>
<rscale>  2 0.22977627E+03</rscale>
<asrwt>0</asrwt>
<pdfrwt beam="1">  1       21 0.10883219E-01 0.22977627E+03</pdfrwt>
<pdfrwt beam="2">  1       21 0.12698503E+00 0.22977627E+03</pdfrwt>
<totfact> 0.31364085E+04</totfact>
</mgrwt>
</event>
<event>
 4    1  0.4495571E+000  0.1815461E+03  0.7546771E-02  0.1166315E+00
         21   -1    0    0  501  502  0.00000000000E+00  0.00000000000E+00  0.28196114304E+02  0.28196114304E+02  0.00000000000E+00 0. -1.
         21   -1    0    0  502  503 -0.00000000000E+00 -0.00000000000E+00 -0.11746755340E+04  0.11746755340E+04  0.00000000000E+00 0. -1.
          6    1    1    2  501    0 -0.16304738978E+02 -0.52575117210E+02 -0.61534071863E+03  0.64156308144E+03  0.17300000000E+03 0.  1.
         -6    1    1    2    0  503  0.16304738978E+02  0.52575117210E+02 -0.53113870103E+03  0.56130856683E+03  0.17300000000E+03 0.  1.
<mgrwt>
<rscale>  2 0.18154610E+03</rscale>
<asrwt>0</asrwt>
<pdfrwt beam="1">  1       21 0.43378639E-02 0.18154610E+03</pdfrwt>
<pdfrwt beam="2">  1       21 0.18071930E+00 0.18154610E+03</pdfrwt>
<totfact> 0.61930201E+04</totfact>
</mgrwt>
</event>
<event>
 4    1  0.4495571E+000  0.1880769E+03  0.7546771E-02  0.1160207E+00
         21   -1    0    0  501  502  0.00000000000E+00  0.00000000000E+00  0.64353932648E+02  0.64353932648E+02  0.00000000000E+00 0. -1.
         21   -1    0    0  502  503 -0.00000000000E+00 -0.00000000000E+00 -0.10852850773E+04  0.10852850773E+04  0.00000000000E+00 0. -1.
          6    1    1    2  501    0  0.49602970535E+02  0.54621279106E+02 -0.10664443503E+03  0.21620817362E+03  0.17300000000E+03 0. -1.
         -6    1    1    2    0  503 -0.49602970535E+02 -0.54621279106E+02 -0.91428670967E+03  0.93343083637E+03  0.17300000000E+03 0. -1.
<mgrwt>
<rscale>  2 0.18807695E+03</rscale>
<asrwt>0</asrwt>
<pdfrwt beam="1">  1       21 0.99006050E-02 0.18807695E+03</pdfrwt>
<pdfrwt beam="2">  1       21 0.16696693E+00 0.18807695E+03</pdfrwt>
<totfact> 0.18575135E+04</totfact>
</mgrwt>
</event>
<event>
 4    1  0.4495571E+000  0.2009120E+03  0.7546771E-02  0.1148972E+00
         21   -1    0    0  501  502  0.00000000000E+00  0.00000000000E+00  0.30548953489E+03  0.30548953489E+03  0.00000000000E+00 0. -1.
         21   -1    0    0  502  503 -0.00000000000E+00 -0.00000000000E+00 -0.16210874965E+03  0.16210874965E+03  0.00000000000E+00 0. -1.
          6    1    1    2  501    0  0.53340269278E+02 -0.87128988661E+02  0.17222493717E+03  0.26462629117E+03  0.17300000000E+03 0. -1.
         -6    1    1    2    0  503 -0.53340269278E+02  0.87128988661E+02 -0.28844151932E+02  0.20297199337E+03  0.17300000000E+03 0. -1.
<mgrwt>
<rscale>  2 0.20091203E+03</rscale>
<asrwt>0</asrwt>
<pdfrwt beam="1">  1       21 0.46998390E-01 0.20091203E+03</pdfrwt>
<pdfrwt beam="2">  1       21 0.24939808E-01 0.20091203E+03</pdfrwt>
<totfact> 0.65685040E+04</totfact>
</mgrwt>
</event>
<event>
 4    1  0.4495571E+000  0.1813599E+03  0.7546771E-02  0.1166493E+00
         21   -1    0    0  503  502  0.00000000000E+00  0.00000000000E+00  0.13701738181E+03  0.13701738181E+03  0.00000000000E+00 0. -1.
         21   -1    0    0  501  503 -0.00000000000E+00 -0.00000000000E+00 -0.49085468029E+03  0.49085468029E+03  0.00000000000E+00 0. -1.
          6    1    1    2  501    0  0.16888525486E+02  0.51741409956E+02 -0.40132242228E+03  0.44039877659E+03  0.17300000000E+03 0. -1.
         -6    1    1    2    0  502 -0.16888525486E+02 -0.51741409956E+02  0.47485123806E+02  0.18747328551E+03  0.17300000000E+03 0. -1.
<mgrwt>
<rscale>  2 0.18135985E+03</rscale>
<asrwt>0</asrwt>
<pdfrwt beam="1">  1       21 0.21079597E-01 0.18135985E+03</pdfrwt>
<pdfrwt beam="2">  1       21 0.75516106E-01 0.18135985E+03</pdfrwt>
<totfact> 0.32952398E+04</totfact>
</mgrwt>
</event>
<event>
 4    1  0.4495571E+000  0.2070460E+03  0.7546771E-02  0.1143927E+00
         21   -1    0    0  503  502  0.00000000000E+00  0.00000000000E+00  0.16589767223E+03  0.16589767223E+03  0.00000000000E+00 0.  1.
         21   -1    0    0  501  503 -0.00000000000E+00 -0.00000000000E+00 -0.27617802203E+03  0.27617802203E+03  0.00000000000E+00 0. -1.
          6    1    1    2  501    0 -0.11848740612E+02 -0.11313109545E+03 -0.11122017358E+03  0.23502758226E+03  0.17300000000E+03 0.  1.
         -6    1    1    2    0  502  0.11848740612E+02  0.11313109545E+03  0.93982378277E+00  0.20704811199E+03  0.17300000000E+03 0. -1.
<mgrwt>
<rscale>  2 0.20704598E+03</rscale>
<asrwt>0</asrwt>
<pdfrwt beam="1">  1       21 0.25522719E-01 0.20704598E+03</pdfrwt>
<pdfrwt beam="2">  1       21 0.42488926E-01 0.20704598E+03</pdfrwt>
<totfact> 0.77107652E+04</totfact>
</mgrwt>
</event>
<event>
 4    1  0.4495571E+000  0.1891370E+03  0.7546771E-02  0.1159242E+00
         21   -1    0    0  503  502  0.00000000000E+00  0.00000000000E+00  0.49528375794E+03  0.49528375794E+03  0.00000000000E+00 0. -1.
         21   -1    0    0  501  503 -0.00000000000E+00 -0.00000000000E+00 -0.12682283080E+03  0.12682283080E+03  0.00000000000E+00 0. -1.
          6    1    1    2  501    0  0.71874060725E+02 -0.26037254567E+02 -0.19856916604E+02  0.19017654000E+03  0.17300000000E+03 0. -1.
         -6    1    1    2    0  502 -0.71874060725E+02  0.26037254567E+02  0.38831784374E+03  0.43193004873E+03  0.17300000000E+03 0. -1.
<mgrwt>
<rscale>  2 0.18913704E+03</rscale>
<asrwt>0</asrwt>
<pdfrwt beam="1">  1       21 0.76197500E-01 0.18913704E+03</pdfrwt>
<pdfrwt beam="2">  1       21 0.19511205E-01 0.18913704E+03</pdfrwt>
<totfact> 0.37164867E+04</totfact>
</mgrwt>
</event>
<event>
 4    1  0.4495571E+000  0.2069963E+03  0.7546771E-02  0.1143967E+00
         21   -1    0    0  501  502  0.00000000000E+00  0.00000000000E+00  0.36995348038E+02  0.36995348038E+02  0.00000000000E+00 0. -1.
         21   -1    0    0  502  503 -0.00000000000E+00 -0.00000000000E+00 -0.11625939659E+04  0.11625939659E+04  0.00000000000E+00 0.  1.
          6    1    1    2  501    0  0.57951209382E+02  0.97775916805E+02 -0.52586445227E+03  0.56513794310E+03  0.17300000000E+03 0. -1.
         -6    1    1    2    0  503 -0.57951209382E+02 -0.97775916805E+02 -0.59973416562E+03  0.63445137086E+03  0.17300000000E+03 0. -1.
<mgrwt>
<rscale>  2 0.20699631E+03</rscale>
<asrwt>0</asrwt>
<pdfrwt beam="1">  1       21 0.56915912E-02 0.20699631E+03</pdfrwt>
<pdfrwt beam="2">  1       21 0.17886064E+00 0.20699631E+03</pdfrwt>
<totfact> 0.39610335E+04</totfact>
</mgrwt>
</event>
<event>
 4    1  0.4495571E+000  0.2316218E+03  0.7546771E-02  0.1125503E+00
         21   -1    0    0  501  502  0.00000000000E+00  0.00000000000E+00  0.74644759290E+02  0.74644759290E+02  0.00000000000E+00 0. -1.
         21   -1    0    0  502  503 -0.00000000000E+00 -0.00000000000E+00 -0.80434103091E+03  0.80434103091E+03  0.00000000000E+00 0.  1.
          6    1    1    2  501    0  0.65390524163E+02  0.13944079519E+03 -0.22145682475E+03  0.32045558388E+03  0.17300000000E+03 0. -1.
         -6    1    1    2    0  503 -0.65390524163E+02 -0.13944079519E+03 -0.50823944687E+03  0.55853020632E+03  0.17300000000E+03 0.  1.
<mgrwt>
<rscale>  2 0.23162180E+03</rscale>
<asrwt>0</asrwt>
<pdfrwt beam="1">  1       21 0.11483809E-01 0.23162180E+03</pdfrwt>
<pdfrwt beam="2">  1       21 0.12374477E+00 0.23162180E+03</pdfrwt>
<totfact> 0.30380667E+04</totfact>
</mgrwt>
</event>
<event>
 4    1  0.4495571E+000  0.2542707E+03  0.7546771E-02  0.1110635E+00
         21   -1    0    0  501  502  0.00000000000E+00  0.00000000000E+00  0.97937724315E+03  0.97937724315E+03  0.00000000000E+00 0.  1.
         21   -1    0    0  502  503 -0.00000000000E+00 -0.00000000000E+00 -0.10286516441E+03  0.10286516441E+03  0.00000000000E+00 0. -1.
          6    1    1    2  501    0 -0.16932637608E+03 -0.77802083459E+02  0.76213304993E+03  0.80343037758E+03  0.17300000000E+03 0.  1.
         -6    1    1    2    0  503  0.16932637608E+03  0.77802083459E+02  0.11437902882E+03  0.27881202998E+03  0.17300000000E+03 0. -1.
<mgrwt>
<rscale>  2 0.25427069E+03</rscale>
<asrwt>0</asrwt>
<pdfrwt beam="1">  1       21 0.15067342E+00 0.25427069E+03</pdfrwt>
<pdfrwt beam="2">  1       21 0.15825411E-01 0.25427069E+03</pdfrwt>
<totfact> 0.10079390E+04</totfact>
</mgrwt>
</event>
<event>
 4    1  0.4495571E+000  0.2739288E+03  0.7546771E-02  0.1099052E+00
         21   -1    0    0  501  502  0.00000000000E+00  0.00000000000E+00  0.18511859598E+04  0.18511859598E+04  0.00000000000E+00 0. -1.
         21   -1    0    0  502  503 -0.00000000000E+00 -0.00000000000E+00 -0.68665734388E+02  0.68665734388E+02  0.00000000000E+00 0. -1.
          6    1    1    2  501    0  0.20540479565E+03  0.54007969029E+02  0.15056748948E+04  0.15303901070E+04  0.17300000000E+03 0. -1.
         -6    1    1    2    0  503 -0.20540479565E+03 -0.54007969029E+02  0.27684533056E+03  0.38946158713E+03  0.17300000000E+03 0. -1.
<mgrwt>
<rscale>  2 0.27392881E+03</rscale>
<asrwt>0</asrwt>
<pdfrwt beam="1">  1       21 0.28479780E+00 0.27392881E+03</pdfrwt>
<pdfrwt beam="2">  1       21 0.10563961E-01 0.27392881E+03</pdfrwt>
<totfact> 0.28353463E+03</totfact>
</mgrwt>
</event>
<event>
 4    1  0.4495571E+000  0.2243809E+03  0.7546771E-02  0.1130658E+00
         21   -1    0    0  503  502  0.00000000000E+00  0.00000000000E+00  0.78790661272E+02  0.78790661272E+02  0.00000000000E+00 0. -1.
         21   -1    0    0  501  503 -0.00000000000E+00 -0.00000000000E+00 -0.70547875012E+03  0.70547875012E+03  0.00000000000E+00 0.  1.
          6    1    1    2  501    0  0.12318607185E+03  0.72408579407E+02 -0.43372345838E+03  0.48832658029E+03  0.17300000000E+03 0.  1.
         -6    1    1    2    0  502 -0.12318607185E+03 -0.72408579407E+02 -0.19296463047E+03  0.29594283111E+03  0.17300000000E+03 0. -1.
<mgrwt>
<rscale>  2 0.22438095E+03</rscale>
<asrwt>0</asrwt>
<pdfrwt beam="1">  1       21 0.12121640E-01 0.22438095E+03</pdfrwt>
<pdfrwt beam="2">  1       21 0.10853519E+00 0.22438095E+03</pdfrwt>
<totfact> 0.38230122E+04</totfact>
</mgrwt>
</event>
<event>
 4    1  0.4495571E+000  0.2806358E+03  0.7546771E-02  0.1095342E+00
         21   -1    0    0  503  502  0.00000000000E+00  0.00000000000E+00  0.69937165847E+03  0.69937165847E+03  0.00000000000E+00 0.  1.
         21   -1    0    0  501  503 -0.00000000000E+00 -0.00000000000E+00 -0.15658129052E+03  0.15658129052E+03  0.00000000000E+00 0. -1.
          6    1    1    2  501    0 -0.21977726320E+03 -0.22922025698E+02  0.44600432583E+02  0.28415781402E+03  0.17300000000E+03 0. -1.
         -6    1    1    2    0  502  0.21977726320E+03  0.22922025698E+02  0.49818993536E+03  0.57179513497E+03  0.17300000000E+03 0.  1.
<mgrwt>
<rscale>  2 0.28063582E+03</rscale>
<asrwt>0</asrwt>
<pdfrwt beam="1">  1       21 0.10759564E+00 0.28063582E+03</pdfrwt>
<pdfrwt beam="2">  1       21 0.24089430E-01 0.28063582E+03</pdfrwt>
<totfact> 0.10625450E+04</totfact>
</mgrwt>
</event>
<event>
 4    1  0.4495571E+000  0.2536837E+03  0.7546771E-02  0.1110999E+00
         21   -1    0    0  501  502  0.00000000000E+00  0.00000000000E+00  0.13408385812E+04  0.13408385812E+04  0.00000000000E+00 0. -1.
         21   -1    0    0  502  503 -0.00000000000E+00 -0.00000000000E+00 -0.17234756126E+03  0.17234756126E+03  0.00000000000E+00 0.  1.
          6    1    1    2  501    0  0.19720128354E+02  0.18449268135E+03  0.12269105871E+04  0.12528627305E+04  0.17300000000E+03 0. -1.
         -6    1    1    2    0  503 -0.19720128354E+02 -0.18449268135E+03 -0.58419567180E+02  0.26032341186E+03  0.17300000000E+03 0.  1.
<mgrwt>
<rscale>  2 0.25368373E+03</rscale>
<asrwt>0</asrwt>
<pdfrwt beam="1">  1       21 0.20628285E+00 0.25368373E+03</pdfrwt>
<pdfrwt beam="2">  1       21 0.26515010E-01 0.25368373E+03</pdfrwt>
<totfact> 0.15633969E+03</totfact>
</mgrwt>
</event>
<event>
 4    1  0.4495571E+000  0.2689001E+03  0.7546771E-02  0.1101911E+00
         21   -1    0    0  503  502  0.00000000000E+00  0.00000000000E+00  0.85313120657E+02  0.85313120657E+02  0.00000000000E+00 0.  1.
         21   -1    0    0  501  503 -0.00000000000E+00 -0.00000000000E+00 -0.10079580508E+04  0.10079580508E+04  0.00000000000E+00 0.  1.
          6    1    1    2  501    0  0.19126543850E+03  0.76129964641E+02 -0.67938853727E+03  0.73066820380E+03  0.17300000000E+03 0.  1.
         -6    1    1    2    0  502 -0.19126543850E+03 -0.76129964641E+02 -0.24325639289E+03  0.36260296767E+03  0.17300000000E+03 0.  1.
<mgrwt>
<rscale>  2 0.26890005E+03</rscale>
<asrwt>0</asrwt>
<pdfrwt beam="1">  1       21 0.13125094E-01 0.26890005E+03</pdfrwt>
<pdfrwt beam="2">  1       21 0.15507048E+00 0.26890005E+03</pdfrwt>
<totfact> 0.13029048E+04</totfact>
</mgrwt>
</event>
<event>
 4    1  0.4495571E+000  0.2237342E+03  0.7546771E-02  0.1131129E+00
         21   -1    0    0  501  502  0.00000000000E+00  0.00000000000E+00  0.95776003858E+03  0.95776003858E+03  0.00000000000E+00 0.  1.
         21   -1    0    0  502  503 -0.00000000000E+00 -0.00000000000E+00 -0.72616866684E+02  0.72616866684E+02  0.00000000000E+00 0. -1.
          6    1    1    2  501    0 -0.39389793704E+02 -0.13629543969E+03  0.71531427630E+03  0.74948750264E+03  0.17300000000E+03 0.  1.
         -6    1    1    2    0  503  0.39389793704E+02  0.13629543969E+03  0.16982889559E+03  0.28088940263E+03  0.17300000000E+03 0. -1.
<mgrwt>
<rscale>  2 0.22373422E+03</rscale>
<asrwt>0</asrwt>
<pdfrwt beam="1">  1       21 0.14734769E+00 0.22373422E+03</pdfrwt>
<pdfrwt beam="2">  1       21 0.11171826E-01 0.22373422E+03</pdfrwt>
<totfact> 0.20470584E+04</totfact>
</mgrwt>
</event>
<event>
 4    1  0.4495571E+000  0.1830043E+03  0.7546771E-02  0.1164927E+00
         21   -1    0    0  501  502  0.00000000000E+00  0.00000000000E+00  0.41804090965E+03  0.41804090965E+03  0.00000000000E+00 0. -1.
         21   -1    0    0  502  503 -0.00000000000E+00 -0.00000000000E+00 -0.18487215136E+03  0.18487215136E+03  0.00000000000E+00 0. -1.
          6    1    1    2  501    0  0.50201700438E+02  0.32270235012E+02  0.34351055815E+03  0.38921726883E+03  0.17300000000E+03 0. -1.
         -6    1    1    2    0  503 -0.50201700438E+02 -0.32270235012E+02 -0.11034179987E+03  0.21369579217E+03  0.17300000000E+03 0. -1.
<mgrwt>
<rscale>  2 0.18300431E+03</rscale>
<asrwt>0</asrwt>
<pdfrwt beam="1">  1       21 0.64313986E-01 0.18300431E+03</pdfrwt>
<pdfrwt beam="2">  1       21 0.28441870E-01 0.18300431E+03</pdfrwt>
<totfact> 0.26504763E+04</totfact>
</mgrwt>
</event>
<event>
 4    1  0.4495571E+000  0.4073956E+03  0.7546771E-02  0.1041248E+00
         21   -1    0    0  501  502  0.00000000000E+00  0.00000000000E+00  0.25873294951E+03  0.25873294951E+03  0.00000000000E+00 0.  1.
         21   -1    0    0  502  503 -0.00000000000E+00 -0.00000000000E+00 -0.72108639165E+03  0.72108639165E+03  0.00000000000E+00 0.  1.
          6    1    1    2  501    0 -0.17850391950E+03  0.32276702970E+03 -0.68395295561E+02  0.41309698763E+03  0.17300000000E+03 0.  1.
         -6    1    1    2    0  503  0.17850391950E+03 -0.32276702970E+03 -0.39395814657E+03  0.56672235353E+03  0.17300000000E+03 0.  1.
<mgrwt>
<rscale>  2 0.40739564E+03</rscale>
<asrwt>0</asrwt>
<pdfrwt beam="1">  1       21 0.39805070E-01 0.40739564E+03</pdfrwt>
<pdfrwt beam="2">  1       21 0.11093637E+00 0.40739564E+03</pdfrwt>
<totfact> 0.34423228E+03</totfact>
</mgrwt>
</event>
<event>
 4    1  0.4495571E+000  0.3893859E+03  0.7546771E-02  0.1047518E+00
         21   -1    0    0  503  502  0.00000000000E+00  0.00000000000E+00  0.52338373093E+03  0.52338373093E+03  0.00000000000E+00 0. -1.
         21   -1    0    0  501  503 -0.00000000000E+00 -0.00000000000E+00 -0.46639083050E+03  0.46639083050E+03  0.00000000000E+00 0.  1.
          6    1    1    2  501    0  0.27435211793E+03 -0.21546056703E+03 -0.27611425880E+03  0.47734727869E+03  0.17300000000E+03 0.  1.
         -6    1    1    2    0  502 -0.27435211793E+03  0.21546056703E+03  0.33310715923E+03  0.51242728273E+03  0.17300000000E+03 0. -1.
<mgrwt>
<rscale>  2 0.38938585E+03</rscale>
<asrwt>0</asrwt>
<pdfrwt beam="1">  1       21 0.80520574E-01 0.38938585E+03</pdfrwt>
<pdfrwt beam="2">  1       21 0.71752435E-01 0.38938585E+03</pdfrwt>
<totfact> 0.21049936E+03</totfact>
</mgrwt>
</event>
<event>
 4    1  0.4495571E+000  0.1780648E+03  0.7546771E-02  0.1169689E+00
         21   -1    0    0  501  502  0.00000000000E+00  0.00000000000E+00  0.18936271777E+04  0.18936271777E+04  0.00000000000E+00 0. -1.
         21   -1    0    0  502  503 -0.00000000000E+00 -0.00000000000E+00 -0.39691203794E+02  0.39691203794E+02  0.00000000000E+00 0. -1.
          6    1    1    2  501    0  0.58615331939E+01 -0.41757943353E+02  0.16619728054E+04  0.16714845764E+04  0.17300000000E+03 0. -1.
         -6    1    1    2    0  503 -0.58615331939E+01  0.41757943353E+02  0.19196316851E+03  0.26183380506E+03  0.17300000000E+03 0. -1.
<mgrwt>
<rscale>  2 0.17806483E+03</rscale>
<asrwt>0</asrwt>
<pdfrwt beam="1">  1       21 0.29132719E+00 0.17806483E+03</pdfrwt>
<pdfrwt beam="2">  1       21 0.61063405E-02 0.17806483E+03</pdfrwt>
<totfact> 0.74486758E+03</totfact>
</mgrwt>
</event>
<event>
 4    1  0.4495571E+000  0.1965830E+03  0.7546771E-02  0.1152654E+00
         21   -1    0    0  501  502  0.00000000000E+00  0.00000000000E+00  0.73127966945E+03  0.73127966945E+03  0.00000000000E+00 0. -1.
         21   -1    0    0  502  503 -0.00000000000E+00 -0.00000000000E+00 -0.52894327972E+02  0.52894327972E+02  0.00000000000E+00 0. -1.
          6    1    1    2  501    0  0.93356468323E+02  0.65312361150E+00  0.35110259415E+03  0.40239021902E+03  0.17300000000E+03 0. -1.
         -6    1    1    2    0  503 -0.93356468323E+02 -0.65312361150E+00  0.32728274733E+03  0.38178377840E+03  0.17300000000E+03 0. -1.
<mgrwt>
<rscale>  2 0.19658295E+03</rscale>
<asrwt>0</asrwt>
<pdfrwt beam="1">  1       21 0.11250456E+00 0.19658295E+03</pdfrwt>
<pdfrwt beam="2">  1       21 0.81375894E-02 0.19658295E+03</pdfrwt>
<totfact> 0.71903759E+04</totfact>
</mgrwt>
</event>
<event>
 4    1  0.4495571E+000  0.2497533E+03  0.7546771E-02  0.1113461E+00
         21   -1    0    0  503  502  0.00000000000E+00  0.00000000000E+00  0.98695110860E+02  0.98695110860E+02  0.00000000000E+00 0.  1.
         21   -1    0    0  501  503 -0.00000000000E+00 -0.00000000000E+00 -0.20817897231E+04  0.20817897231E+04  0.00000000000E+00 0. -1.
          6    1    1    2  501    0  0.26215095466E+02 -0.17821465301E+03 -0.19013664130E+04  0.19176993847E+04  0.17300000000E+03 0. -1.
         -6    1    1    2    0  502 -0.26215095466E+02  0.17821465301E+03 -0.81728199272E+02  0.26278544924E+03  0.17300000000E+03 0.  1.
<mgrwt>
<rscale>  2 0.24975327E+03</rscale>
<asrwt>0</asrwt>
<pdfrwt beam="1">  1       21 0.15183865E-01 0.24975327E+03</pdfrwt>
<pdfrwt beam="2">  1       21 0.32027531E+00 0.24975327E+03</pdfrwt>
<totfact> 0.93240439E+02</totfact>
</mgrwt>
</event>
<event>
 4    1  0.4495571E+000  0.2204993E+03  0.7546771E-02  0.1133511E+00
         21   -1    0    0  503  502  0.00000000000E+00  0.00000000000E+00  0.36010522135E+03  0.36010522135E+03  0.00000000000E+00 0.  1.
         21   -1    0    0  501  503 -0.00000000000E+00 -0.00000000000E+00 -0.20383272982E+03  0.20383272982E+03  0.00000000000E+00 0.  1.
          6    1    1    2  501    0  0.12468309142E+03  0.56080825501E+02 -0.85700639184E+02  0.23656823927E+03  0.17300000000E+03 0.  1.
         -6    1    1    2    0  502 -0.12468309142E+03 -0.56080825501E+02  0.24197313072E+03  0.32736971190E+03  0.17300000000E+03 0.  1.
<mgrwt>
<rscale>  2 0.22049928E+03</rscale>
<asrwt>0</asrwt>
<pdfrwt beam="1">  1       21 0.55400803E-01 0.22049928E+03</pdfrwt>
<pdfrwt beam="2">  1       21 0.31358882E-01 0.22049928E+03</pdfrwt>
<totfact> 0.29572596E+04</totfact>
</mgrwt>
</event>
<event>
 4    1  0.4495571E+000  0.2009470E+03  0.7546771E-02  0.1148942E+00
         21   -1    0    0  501  502  0.00000000000E+00  0.00000000000E+00  0.53892292704E+02  0.53892292704E+02  0.00000000000E+00 0. -1.
         21   -1    0    0  502  503 -0.00000000000E+00 -0.00000000000E+00 -0.92384891077E+03  0.92384891077E+03  0.00000000000E+00 0. -1.
          6    1    1    2  501    0  0.47056116722E+02 -0.90754711473E+02 -0.22246137331E+03  0.29978118418E+03  0.17300000000E+03 0. -1.
         -6    1    1    2    0  503 -0.47056116722E+02  0.90754711473E+02 -0.64749524475E+03  0.67796001929E+03  0.17300000000E+03 0. -1.
<mgrwt>
<rscale>  2 0.20094700E+03</rscale>
<asrwt>0</asrwt>
<pdfrwt beam="1">  1       21 0.82911225E-02 0.20094700E+03</pdfrwt>
<pdfrwt beam="2">  1       21 0.14213059E+00 0.20094700E+03</pdfrwt>
<totfact> 0.38610667E+04</totfact>
</mgrwt>
</event>
<event>
 4    1  0.4495571E+000  0.2245860E+03  0.7546771E-02  0.1130509E+00
         21   -1    0    0  501  502  0.00000000000E+00  0.00000000000E+00  0.10168114437E+03  0.10168114437E+03  0.00000000000E+00 0.  1.
         21   -1    0    0  502  503 -0.00000000000E+00 -0.00000000000E+00 -0.72397138488E+03  0.72397138488E+03  0.00000000000E+00 0. -1.
          6    1    1    2  501    0  0.54044012058E+02  0.13262394784E+03 -0.79512476004E+02  0.23824588269E+03  0.17300000000E+03 0.  1.
         -6    1    1    2    0  503 -0.54044012058E+02 -0.13262394784E+03 -0.54277776450E+03  0.58740664656E+03  0.17300000000E+03 0. -1.
<mgrwt>
<rscale>  2 0.22458599E+03</rscale>
<asrwt>0</asrwt>
<pdfrwt beam="1">  1       21 0.15643254E-01 0.22458599E+03</pdfrwt>
<pdfrwt beam="2">  1       21 0.11138021E+00 0.22458599E+03</pdfrwt>
<totfact> 0.22594009E+04</totfact>
</mgrwt>
</event>
<event>
 4    1  0.4495571E+000  0.2092539E+03  0.7546771E-02  0.1142158E+00
         21   -1    0    0  503  502  0.00000000000E+00  0.00000000000E+00  0.72262031492E+03  0.72262031492E+03  0.00000000000E+00 0. -1.
         21   -1    0    0  501  503 -0.00000000000E+00 -0.00000000000E+00 -0.66282518585E+02  0.66282518585E+02  0.00000000000E+00 0. -1.
          6    1    1    2  501    0  0.20633324382E+02 -0.11589841400E+03  0.21262273872E+03  0.29832131245E+03  0.17300000000E+03 0. -1.
         -6    1    1    2    0  502 -0.20633324382E+02  0.11589841400E+03  0.44371505762E+03  0.49058152105E+03  0.17300000000E+03 0. -1.
<mgrwt>
<rscale>  2 0.20925386E+03</rscale>
<asrwt>0</asrwt>
<pdfrwt beam="1">  1       21 0.11117235E+00 0.20925386E+03</pdfrwt>
<pdfrwt beam="2">  1       21 0.10197311E-01 0.20925386E+03</pdfrwt>
<totfact> 0.49470396E+04</totfact>
</mgrwt>
</event>
<event>
 4    1  0.4495571E+000  0.1866378E+03  0.7546771E-02  0.1161529E+00
         21   -1    0    0  501  502  0.00000000000E+00  0.00000000000E+00  0.65739064363E+03  0.65739064363E+03  0.00000000000E+00 0. -1.
         21   -1    0    0  502  503 -0.00000000000E+00 -0.00000000000E+00 -0.16850791672E+03  0.16850791672E+03  0.00000000000E+00 0. -1.
          6    1    1    2  501    0 -0.68246948020E+02  0.15716682784E+02  0.58635422413E+03  0.61534131682E+03  0.17300000000E+03 0. -1.
         -6    1    1    2    0  503  0.68246948020E+02 -0.15716682784E+02 -0.97471497225E+02  0.21055724353E+03  0.17300000000E+03 0. -1.
<mgrwt>
<rscale>  2 0.18663778E+03</rscale>
<asrwt>0</asrwt>
<pdfrwt beam="1">  1       21 0.10113702E+00 0.18663778E+03</pdfrwt>
<pdfrwt beam="2">  1       21 0.25924295E-01 0.18663778E+03</pdfrwt>
<totfact> 0.11339642E+04</totfact>
</mgrwt>
</event>
<event>
 4    1  0.4495571E+000  0.2309174E+03  0.7546771E-02  0.1125996E+00
         21   -1    0    0  501  502  0.00000000000E+00  0.00000000000E+00  0.12865555017E+03  0.12865555017E+03  0.00000000000E+00 0. -1.
         21   -1    0    0  502  503 -0.00000000000E+00 -0.00000000000E+00 -0.42045618947E+03  0.42045618947E+03  0.00000000000E+00 0. -1.
          6    1    1    2  501    0 -0.54627207175E+02  0.14286264517E+03 -0.17868168203E+03  0.29197604464E+03  0.17300000000E+03 0. -1.
         -6    1    1    2    0  503  0.54627207175E+02 -0.14286264517E+03 -0.11311895726E+03  0.25713569500E+03  0.17300000000E+03 0. -1.
<mgrwt>
<rscale>  2 0.23091745E+03</rscale>
<asrwt>0</asrwt>
<pdfrwt beam="1">  1       21 0.19793162E-01 0.23091745E+03</pdfrwt>
<pdfrwt beam="2">  1       21 0.64685567E-01 0.23091745E+03</pdfrwt>
<totfact> 0.50923584E+04</totfact>
</mgrwt>
</event>
<event>
 4    1  0.4495571E+000  0.2659418E+03  0.7546771E-02  0.1103625E+00
         21   -1    0    0  501  502  0.00000000000E+00  0.00000000000E+00  0.50970835899E+03  0.50970835899E+03  0.00000000000E+00 0. -1.
         21   -1    0    0  502  503 -0.00000000000E+00 -0.00000000000E+00 -0.22538981531E+03  0.22538981531E+03  0.00000000000E+00 0. -1.
          6    1    1    2  501    0  0.18499649704E+03  0.81070111491E+02  0.37003184358E+03  0.45568479474E+03  0.17300000000E+03 0. -1.
         -6    1    1    2    0  503 -0.18499649704E+03 -0.81070111491E+02 -0.85713299905E+02  0.27941337956E+03  0.17300000000E+03 0. -1.
<mgrwt>
<rscale>  2 0.26594185E+03</rscale>
<asrwt>0</asrwt>
<pdfrwt beam="1">  1       21 0.78416670E-01 0.26594185E+03</pdfrwt>
<pdfrwt beam="2">  1       21 0.34675356E-01 0.26594185E+03</pdfrwt>
<totfact> 0.11040974E+04</totfact>
</mgrwt>
</event>
<event>
 4    1  0.4495571E+000  0.1852565E+03  0.7546771E-02  0.1162811E+00
         21   -1    0    0  503  502  0.00000000000E+00  0.00000000000E+00  0.27256519868E+03  0.27256519868E+03  0.00000000000E+00 0. -1.
         21   -1    0    0  501  503 -0.00000000000E+00 -0.00000000000E+00 -0.14770161173E+03  0.14770161173E+03  0.00000000000E+00 0. -1.
          6    1    1    2  501    0 -0.62610347712E+02  0.21700390237E+02 -0.18273201497E+02  0.18615550615E+03  0.17300000000E+03 0. -1.
         -6    1    1    2    0  502  0.62610347712E+02 -0.21700390237E+02  0.14313678845E+03  0.23411130426E+03  0.17300000000E+03 0. -1.
<mgrwt>
<rscale>  2 0.18525648E+03</rscale>
<asrwt>0</asrwt>
<pdfrwt beam="1">  1       21 0.41933107E-01 0.18525648E+03</pdfrwt>
<pdfrwt beam="2">  1       21 0.22723325E-01 0.18525648E+03</pdfrwt>
<totfact> 0.99680715E+04</totfact>
</mgrwt>
</event>
<event>
 4    1  0.4495571E+000  0.1915163E+03  0.7546771E-02  0.1157101E+00
         21   -1    0    0  503  502  0.00000000000E+00  0.00000000000E+00  0.42173887107E+03  0.42173887107E+03  0.00000000000E+00 0.  1.
         21   -1    0    0  501  503 -0.00000000000E+00 -0.00000000000E+00 -0.88111058270E+02  0.88111058270E+02  0.00000000000E+00 0. -1.
          6    1    1    2  501    0 -0.36951646243E+02  0.73376124838E+02  0.13779916947E+03  0.23593874409E+03  0.17300000000E+03 0.  1.
         -6    1    1    2    0  502  0.36951646243E+02 -0.73376124838E+02  0.19582864333E+03  0.27391118525E+03  0.17300000000E+03 0.  1.
<mgrwt>
<rscale>  2 0.19151627E+03</rscale>
<asrwt>0</asrwt>
<pdfrwt beam="1">  1       21 0.64882902E-01 0.19151627E+03</pdfrwt>
<pdfrwt beam="2">  1       21 0.13555548E-01 0.19151627E+03</pdfrwt>
<totfact> 0.10318526E+05</totfact>
</mgrwt>
</event>
<event>
 4    1  0.4495571E+000  0.2273400E+03  0.7546771E-02  0.1128526E+00
         21   -1    0    0  503  502  0.00000000000E+00  0.00000000000E+00  0.12338417340E+04  0.12338417340E+04  0.00000000000E+00 0.  1.
         21   -1    0    0  501  503 -0.00000000000E+00 -0.00000000000E+00 -0.46060603729E+02  0.46060603729E+02  0.00000000000E+00 0.  1.
          6    1    1    2  501    0  0.95728562736E+02 -0.11220738444E+03  0.40128303338E+03  0.46120659983E+03  0.17300000000E+03 0.  1.
         -6    1    1    2    0  502 -0.95728562736E+02  0.11220738444E+03  0.78649809690E+03  0.81869573791E+03  0.17300000000E+03 0.  1.
<mgrwt>
<rscale>  2 0.22733995E+03</rscale>
<asrwt>0</asrwt>
<pdfrwt beam="1">  1       21 0.18982178E+00 0.22733995E+03</pdfrwt>
<pdfrwt beam="2">  1       21 0.70862477E-02 0.22733995E+03</pdfrwt>
<totfact> 0.22612401E+04</totfact>
</mgrwt>
</event>
<event>
 4    1  0.4495571E+000  0.1895243E+03  0.7546771E-02  0.1158891E+00
         21   -1    0    0  501  502  0.00000000000E+00  0.00000000000E+00  0.11478768639E+03  0.11478768639E+03  0.00000000000E+00 0. -1.
         21   -1    0    0  502  503 -0.00000000000E+00 -0.00000000000E+00 -0.36162225982E+03  0.36162225982E+03  0.00000000000E+00 0. -1.
          6    1    1    2  501    0  0.77202365090E+02  0.54999301446E+01 -0.36000619367E+02  0.19291319033E+03  0.17300000000E+03 0. -1.
         -6    1    1    2    0  503 -0.77202365090E+02 -0.54999301446E+01 -0.21083395406E+03  0.28349675588E+03  0.17300000000E+03 0. -1.
<mgrwt>
<rscale>  2 0.18952428E+03</rscale>
<asrwt>0</asrwt>
<pdfrwt beam="1">  1       21 0.17659644E-01 0.18952428E+03</pdfrwt>
<pdfrwt beam="2">  1       21 0.55634193E-01 0.18952428E+03</pdfrwt>
<totfact> 0.88652199E+04</totfact>
</mgrwt>
</event>
<event>
 4    1  0.4495571E+000  0.2285030E+03  0.7546771E-02  0.1127698E+00
         21   -1    0    0  501  502  0.00000000000E+00  0.00000000000E+00  0.14506560425E+03  0.14506560425E+03  0.00000000000E+00 0. -1.
         21   -1    0    0  502  503 -0.00000000000E+00 -0.00000000000E+00 -0.37968386021E+03  0.37968386021E+03  0.00000000000E+00 0. -1.
          6    1    1    2  501    0  0.53066344310E+02  0.13952980809E+03 -0.17715390047E+03  0.28913164596E+03  0.17300000000E+03 0. -1.
         -6    1    1    2    0  503 -0.53066344310E+02 -0.13952980809E+03 -0.57464355488E+02  0.23561781850E+03  0.17300000000E+03 0. -1.
<mgrwt>
<rscale>  2 0.22850296E+03</rscale>
<asrwt>0</asrwt>
<pdfrwt beam="1">  1       21 0.22317785E-01 0.22850296E+03</pdfrwt>
<pdfrwt beam="2">  1       21 0.58412901E-01 0.22850296E+03</pdfrwt>
<totfact> 0.50706170E+04</totfact>
</mgrwt>
</event>
<event>
 4    1  0.4495571E+000  0.2919799E+03  0.7546771E-02  0.1089320E+00
         21   -1    0    0  501  502  0.00000000000E+00  0.00000000000E+00  0.20410745179E+03  0.20410745179E+03  0.00000000000E+00 0. -1.
         21   -1    0    0  502  503 -0.00000000000E+00 -0.00000000000E+00 -0.81014259283E+03  0.81014259283E+03  0.00000000000E+00 0.  1.
          6    1    1    2  501    0  0.23137688386E+03 -0.42284434551E+02  0.49947491445E+02  0.29622118035E+03  0.17300000000E+03 0. -1.
         -6    1    1    2    0  503 -0.23137688386E+03  0.42284434551E+02 -0.65598263249E+03  0.71802886427E+03  0.17300000000E+03 0.  1.
<mgrwt>
<rscale>  2 0.29197986E+03</rscale>
<asrwt>0</asrwt>
<pdfrwt beam="1">  1       21 0.31401146E-01 0.29197986E+03</pdfrwt>
<pdfrwt beam="2">  1       21 0.12463732E+00 0.29197986E+03</pdfrwt>
<totfact> 0.43762115E+03</totfact>
</mgrwt>
</event>
<event>
 4    1  0.4495571E+000  0.1950070E+03  0.7546771E-02  0.1154021E+00
         21   -1    0    0  503  502  0.00000000000E+00  0.00000000000E+00  0.69590764899E+02  0.69590764899E+02  0.00000000000E+00 0. -1.
         21   -1    0    0  501  503 -0.00000000000E+00 -0.00000000000E+00 -0.56252329048E+03  0.56252329048E+03  0.00000000000E+00 0. -1.
          6    1    1    2  501    0 -0.64478157281E+02  0.62779647610E+02 -0.29989537832E+03  0.35772189597E+03  0.17300000000E+03 0. -1.
         -6    1    1    2    0  502  0.64478157281E+02 -0.62779647610E+02 -0.19303714726E+03  0.27439215940E+03  0.17300000000E+03 0. -1.
<mgrwt>
<rscale>  2 0.19500697E+03</rscale>
<asrwt>0</asrwt>
<pdfrwt beam="1">  1       21 0.10706271E-01 0.19500697E+03</pdfrwt>
<pdfrwt beam="2">  1       21 0.86542046E-01 0.19500697E+03</pdfrwt>
<totfact> 0.82603792E+04</totfact>
</mgrwt>
</event>
<event>
 4    1  0.4495571E+000  0.1782233E+03  0.7546771E-02  0.1169534E+00
         21   -1    0    0  501  502  0.00000000000E+00  0.00000000000E+00  0.19414301701E+03  0.19414301701E+03  0.00000000000E+00 0. -1.
         21   -1    0    0  502  503 -0.00000000000E+00 -0.00000000000E+00 -0.17676753352E+03  0.17676753352E+03  0.00000000000E+00 0. -1.
          6    1    1    2  501    0 -0.17884861223E+01  0.42794159751E+02  0.59286773056E+02  0.18782561127E+03  0.17300000000E+03 0. -1.
         -6    1    1    2    0  503  0.17884861223E+01 -0.42794159751E+02 -0.41911289566E+02  0.18308493926E+03  0.17300000000E+03 0. -1.
<mgrwt>
<rscale>  2 0.17822328E+03</rscale>
<asrwt>0</asrwt>
<pdfrwt beam="1">  1       21 0.29868156E-01 0.17822328E+03</pdfrwt>
<pdfrwt beam="2">  1       21 0.27195005E-01 0.17822328E+03</pdfrwt>
<totfact> 0.13920032E+05</totfact>
</mgrwt>
</event>
<event>
 4    1  0.4495571E+000  0.1754058E+03  0.7546771E-02  0.1172325E+00
         21   -1    0    0  501  502  0.00000000000E+00  0.00000000000E+00  0.42081612589E+02  0.42081612589E+02  0.00000000000E+00 0.  1.
         21   -1    0    0  502  503 -0.00000000000E+00 -0.00000000000E+00 -0.10076451004E+04  0.10076451004E+04  0.00000000000E+00 0.  1.
          6    1    1    2  501    0  0.13293724112E+02  0.25719273530E+02 -0.20783379338E+03  0.27195972092E+03  0.17300000000E+03 0.  1.
         -6    1    1    2    0  503 -0.13293724112E+02 -0.25719273530E+02 -0.75772969445E+03  0.77776699209E+03  0.17300000000E+03 0.  1.
<mgrwt>
<rscale>  2 0.17540583E+03</rscale>
<asrwt>0</asrwt>
<pdfrwt beam="1">  1       21 0.64740946E-02 0.17540583E+03</pdfrwt>
<pdfrwt beam="2">  1       21 0.15502232E+00 0.17540583E+03</pdfrwt>
<totfact> 0.47890944E+04</totfact>
</mgrwt>
</event>
<event>
 4    1  0.4495571E+000  0.1859297E+03  0.7546771E-02  0.1162185E+00
         21   -1    0    0  501  502  0.00000000000E+00  0.00000000000E+00  0.69578576154E+02  0.69578576154E+02  0.00000000000E+00 0.  1.
         21   -1    0    0  502  503 -0.00000000000E+00 -0.00000000000E+00 -0.50396135121E+03  0.50396135121E+03  0.00000000000E+00 0.  1.
          6    1    1    2  501    0 -0.94614541472E+01 -0.67463536753E+02 -0.25126581298E+03  0.31257696121E+03  0.17300000000E+03 0.  1.
         -6    1    1    2    0  503  0.94614541472E+01  0.67463536753E+02 -0.18311696208E+03  0.26096296616E+03  0.17300000000E+03 0.  1.
<mgrwt>
<rscale>  2 0.18592969E+03</rscale>
<asrwt>0</asrwt>
<pdfrwt beam="1">  1       21 0.10704397E-01 0.18592969E+03</pdfrwt>
<pdfrwt beam="2">  1       21 0.77532513E-01 0.18592969E+03</pdfrwt>
<totfact> 0.10644122E+05</totfact>
</mgrwt>
</event>
<event>
 4    1  0.4495571E+000  0.2037511E+03  0.7546771E-02  0.1146612E+00
         21   -1    0    0  503  502  0.00000000000E+00  0.00000000000E+00  0.13728487806E+03  0.13728487806E+03  0.00000000000E+00 0.  1.
         21   -1    0    0  501  503 -0.00000000000E+00 -0.00000000000E+00 -0.33252587807E+03  0.33252587807E+03  0.00000000000E+00 0.  1.
          6    1    1    2  501    0 -0.10756362915E+03  0.39467894403E+01 -0.16832921834E+03  0.26429006264E+03  0.17300000000E+03 0.  1.
         -6    1    1    2    0  502  0.10756362915E+03 -0.39467894403E+01 -0.26911781673E+02  0.20552069350E+03  0.17300000000E+03 0.  1.
<mgrwt>
<rscale>  2 0.20375110E+03</rscale>
<asrwt>0</asrwt>
<pdfrwt beam="1">  1       21 0.21120750E-01 0.20375110E+03</pdfrwt>
<pdfrwt beam="2">  1       21 0.51157827E-01 0.20375110E+03</pdfrwt>
<totfact> 0.75342267E+04</totfact>
</mgrwt>
</event>
<event>
 4    1  0.4495571E+000  0.2575880E+03  0.7546771E-02  0.1108601E+00
         21   -1    0    0  503  502  0.00000000000E+00  0.00000000000E+00  0.64846048172E+02  0.64846048172E+02  0.00000000000E+00 0. -1.
         21   -1    0    0  501  503 -0.00000000000E+00 -0.00000000000E+00 -0.10485483982E+04  0.10485483982E+04  0.00000000000E+00 0.  1.
          6    1    1    2  501    0  0.18798636596E+03  0.32919690395E+02 -0.40532365182E+03  0.48024872985E+03  0.17300000000E+03 0. -1.
         -6    1    1    2    0  502 -0.18798636596E+03 -0.32919690395E+02 -0.57837869818E+03  0.63314571649E+03  0.17300000000E+03 0.  1.
<mgrwt>
<rscale>  2 0.25758800E+03</rscale>
<asrwt>0</asrwt>
<pdfrwt beam="1">  1       21 0.99763166E-02 0.25758800E+03</pdfrwt>
<pdfrwt beam="2">  1       21 0.16131511E+00 0.25758800E+03</pdfrwt>
<totfact> 0.19269860E+04</totfact>
</mgrwt>
</event>
<event>
 4    1  0.4495571E+000  0.1902649E+03  0.7546771E-02  0.1158223E+00
         21   -1    0    0  501  502  0.00000000000E+00  0.00000000000E+00  0.14600317944E+03  0.14600317944E+03  0.00000000000E+00 0. -1.
         21   -1    0    0  502  503 -0.00000000000E+00 -0.00000000000E+00 -0.26170767908E+03  0.26170767908E+03  0.00000000000E+00 0. -1.
          6    1    1    2  501    0 -0.75689000287E+02  0.23300003358E+02 -0.11103475212E+02  0.19058856756E+03  0.17300000000E+03 0. -1.
         -6    1    1    2    0  503  0.75689000287E+02 -0.23300003358E+02 -0.10460102443E+03  0.21712229096E+03  0.17300000000E+03 0. -1.
<mgrwt>
<rscale>  2 0.19026485E+03</rscale>
<asrwt>0</asrwt>
<pdfrwt beam="1">  1       21 0.22462028E-01 0.19026485E+03</pdfrwt>
<pdfrwt beam="2">  1       21 0.40262720E-01 0.19026485E+03</pdfrwt>
<totfact> 0.11043048E+05</totfact>
</mgrwt>
</event>
<event>
 4    1  0.4495571E+000  0.1824403E+03  0.7546771E-02  0.1165462E+00
         21   -1    0    0  501  502  0.00000000000E+00  0.00000000000E+00  0.25109066025E+03  0.25109066025E+03  0.00000000000E+00 0. -1.
         21   -1    0    0  502  503 -0.00000000000E+00 -0.00000000000E+00 -0.15488741344E+03  0.15488741344E+03  0.00000000000E+00 0. -1.
          6    1    1    2  501    0  0.28281121058E+02 -0.50553299126E+02  0.12517215895E+03  0.22125218018E+03  0.17300000000E+03 0. -1.
         -6    1    1    2    0  503 -0.28281121058E+02  0.50553299126E+02 -0.28968912142E+02  0.18472589351E+03  0.17300000000E+03 0. -1.
<mgrwt>
<rscale>  2 0.18244029E+03</rscale>
<asrwt>0</asrwt>
<pdfrwt beam="1">  1       21 0.38629332E-01 0.18244029E+03</pdfrwt>
<pdfrwt beam="2">  1       21 0.23828833E-01 0.18244029E+03</pdfrwt>
<totfact> 0.10764274E+05</totfact>
</mgrwt>
</event>
<event>
 4    1  0.4495571E+000  0.1961656E+03  0.7546771E-02  0.1153015E+00
         21   -1    0    0  503  502  0.00000000000E+00  0.00000000000E+00  0.12547152120E+03  0.12547152120E+03  0.00000000000E+00 0.  1.
         21   -1    0    0  501  503 -0.00000000000E+00 -0.00000000000E+00 -0.33145008942E+03  0.33145008942E+03  0.00000000000E+00 0.  1.
          6    1    1    2  501    0 -0.81295099198E+02 -0.44080178155E+02 -0.16543061303E+03  0.25660912491E+03  0.17300000000E+03 0. -1.
         -6    1    1    2    0  502  0.81295099198E+02  0.44080178155E+02 -0.40547955196E+02  0.20031248571E+03  0.17300000000E+03 0. -1.
<mgrwt>
<rscale>  2 0.19616563E+03</rscale>
<asrwt>0</asrwt>
<pdfrwt beam="1">  1       21 0.19303311E-01 0.19616563E+03</pdfrwt>
<pdfrwt beam="2">  1       21 0.50992320E-01 0.19616563E+03</pdfrwt>
<totfact> 0.90060850E+04</totfact>
</mgrwt>
</event>
<event>
 4    1  0.4495571E+000  0.2224022E+03  0.7546771E-02  0.1132105E+00
         21   -1    0    0  501  502  0.00000000000E+00  0.00000000000E+00  0.23706974499E+03  0.23706974499E+03  0.00000000000E+00 0.  1.
         21   -1    0    0  502  503 -0.00000000000E+00 -0.00000000000E+00 -0.24747597544E+03  0.24747597544E+03  0.00000000000E+00 0. -1.
          6    1    1    2  501    0 -0.13356030869E+03  0.41175004077E+02  0.90768638762E+02  0.24021174576E+03  0.17300000000E+03 0.  1.
         -6    1    1    2    0  503  0.13356030869E+03 -0.41175004077E+02 -0.10117486921E+03  0.24433397467E+03  0.17300000000E+03 0. -1.
<mgrwt>
<rscale>  2 0.22240220E+03</rscale>
<asrwt>0</asrwt>
<pdfrwt beam="1">  1       21 0.36472268E-01 0.22240220E+03</pdfrwt>
<pdfrwt beam="2">  1       21 0.38073227E-01 0.22240220E+03</pdfrwt>
<totfact> 0.47553655E+04</totfact>
</mgrwt>
</event>
<event>
 4    1  0.4495571E+000  0.2057594E+03  0.7546771E-02  0.1144969E+00
         21   -1    0    0  501  502  0.00000000000E+00  0.00000000000E+00  0.24058306255E+03  0.24058306255E+03  0.00000000000E+00 0. -1.
         21   -1    0    0  502  503 -0.00000000000E+00 -0.00000000000E+00 -0.20337662444E+03  0.20337662444E+03  0.00000000000E+00 0.  1.
          6    1    1    2  501    0 -0.23293316018E+02  0.10892824049E+03  0.10008117399E+03  0.22880817629E+03  0.17300000000E+03 0. -1.
         -6    1    1    2    0  503  0.23293316018E+02 -0.10892824049E+03 -0.62874735882E+02  0.21515151071E+03  0.17300000000E+03 0.  1.
<mgrwt>
<rscale>  2 0.20575942E+03</rscale>
<asrwt>0</asrwt>
<pdfrwt beam="1">  1       21 0.37012779E-01 0.20575942E+03</pdfrwt>
<pdfrwt beam="2">  1       21 0.31288711E-01 0.20575942E+03</pdfrwt>
<totfact> 0.68697843E+04</totfact>
</mgrwt>
</event>
<event>
 4    1  0.4495571E+000  0.2177094E+03  0.7546771E-02  0.1135602E+00
         21   -1    0    0  503  502  0.00000000000E+00  0.00000000000E+00  0.22447564200E+02  0.22447564200E+02  0.00000000000E+00 0.  1.
         21   -1    0    0  501  503 -0.00000000000E+00 -0.00000000000E+00 -0.21122510181E+04  0.21122510181E+04  0.00000000000E+00 0.  1.
          6    1    1    2  501    0 -0.28046262657E+02  0.12915799247E+03 -0.10654132574E+04  0.10874294409E+04  0.17300000000E+03 0.  1.
         -6    1    1    2    0  502  0.28046262657E+02 -0.12915799247E+03 -0.10243901965E+04  0.10472691414E+04  0.17300000000E+03 0.  1.
<mgrwt>
<rscale>  2 0.21770939E+03</rscale>
<asrwt>0</asrwt>
<pdfrwt beam="1">  1       21 0.34534700E-02 0.21770939E+03</pdfrwt>
<pdfrwt beam="2">  1       21 0.32496183E+00 0.21770939E+03</pdfrwt>
<totfact> 0.11947939E+04</totfact>
</mgrwt>
</event>
<event>
 4    1  0.4495571E+000  0.1795115E+03  0.7546771E-02  0.1168277E+00
         21   -1    0    0  503  502  0.00000000000E+00  0.00000000000E+00  0.17227670864E+04  0.17227670864E+04  0.00000000000E+00 0. -1.
         21   -1    0    0  501  503 -0.00000000000E+00 -0.00000000000E+00 -0.27611358293E+02  0.27611358293E+02  0.00000000000E+00 0. -1.
          6    1    1    2  501    0 -0.38486543903E+02  0.28533478625E+02  0.35051886337E+03  0.39381194376E+03  0.17300000000E+03 0. -1.
         -6    1    1    2    0  502  0.38486543903E+02 -0.28533478625E+02  0.13446368647E+04  0.13565665009E+04  0.17300000000E+03 0. -1.
<mgrwt>
<rscale>  2 0.17951149E+03</rscale>
<asrwt>0</asrwt>
<pdfrwt beam="1">  1       21 0.26504101E+00 0.17951149E+03</pdfrwt>
<pdfrwt beam="2">  1       21 0.42479026E-02 0.17951149E+03</pdfrwt>
<totfact> 0.19479006E+04</totfact>
</mgrwt>
</event>
<event>
 4    1  0.4495571E+000  0.2167906E+03  0.7546771E-02  0.1136299E+00
         21   -1    0    0  501  502  0.00000000000E+00  0.00000000000E+00  0.12489492531E+03  0.12489492531E+03  0.00000000000E+00 0.  1.
         21   -1    0    0  502  503 -0.00000000000E+00 -0.00000000000E+00 -0.37647763882E+03  0.37647763882E+03  0.00000000000E+00 0.  1.
          6    1    1    2  501    0 -0.73454410793E+02 -0.10804447284E+03 -0.13121238255E+03  0.25340648751E+03  0.17300000000E+03 0.  1.
         -6    1    1    2    0  503  0.73454410793E+02  0.10804447284E+03 -0.12037033096E+03  0.24796607662E+03  0.17300000000E+03 0.  1.
<mgrwt>
<rscale>  2 0.21679059E+03</rscale>
<asrwt>0</asrwt>
<pdfrwt beam="1">  1       21 0.19214604E-01 0.21679059E+03</pdfrwt>
<pdfrwt beam="2">  1       21 0.57919637E-01 0.21679059E+03</pdfrwt>
<totfact> 0.68771231E+04</totfact>
</mgrwt>
</event>
<event>
 4    1  0.4495571E+000  0.5283336E+03  0.7546771E-02  0.1006637E+00
         21   -1    0    0  503  502  0.00000000000E+00  0.00000000000E+00  0.25906578952E+03  0.25906578952E+03  0.00000000000E+00 0. -1.
         21   -1    0    0  501  503 -0.00000000000E+00 -0.00000000000E+00 -0.14239251533E+04  0.14239251533E+04  0.00000000000E+00 0.  1.
          6    1    1    2  501    0 -0.49728563306E+03  0.43753842254E+02 -0.99750778163E+03  0.11287861507E+04  0.17300000000E+03 0.  1.
         -6    1    1    2    0  502  0.49728563306E+03 -0.43753842254E+02 -0.16735158212E+03  0.55420479211E+03  0.17300000000E+03 0. -1.
<mgrwt>
<rscale>  2 0.52833361E+03</rscale>
<asrwt>0</asrwt>
<pdfrwt beam="1">  1       21 0.39856275E-01 0.52833361E+03</pdfrwt>
<pdfrwt beam="2">  1       21 0.21906541E+00 0.52833361E+03</pdfrwt>
<totfact> 0.48848368E+02</totfact>
</mgrwt>
</event>
<event>
 4    1  0.4495571E+000  0.3098524E+03  0.7546771E-02  0.1080417E+00
         21   -1    0    0  503  502  0.00000000000E+00  0.00000000000E+00  0.29184976049E+03  0.29184976049E+03  0.00000000000E+00 0.  1.
         21   -1    0    0  501  503 -0.00000000000E+00 -0.00000000000E+00 -0.54101333119E+03  0.54101333119E+03  0.00000000000E+00 0. -1.
          6    1    1    2  501    0 -0.20762098322E+03  0.15156857309E+03 -0.38529109876E+03  0.49442667384E+03  0.17300000000E+03 0.  1.
         -6    1    1    2    0  502  0.20762098322E+03 -0.15156857309E+03  0.13612752806E+03  0.33843641784E+03  0.17300000000E+03 0. -1.
<mgrwt>
<rscale>  2 0.30985239E+03</rscale>
<asrwt>0</asrwt>
<pdfrwt beam="1">  1       21 0.44899963E-01 0.30985239E+03</pdfrwt>
<pdfrwt beam="2">  1       21 0.83232820E-01 0.30985239E+03</pdfrwt>
<totfact> 0.55691341E+03</totfact>
</mgrwt>
</event>
<event>
 4    1  0.4495571E+000  0.2438566E+03  0.7546771E-02  0.1117250E+00
         21   -1    0    0  503  502  0.00000000000E+00  0.00000000000E+00  0.79497392950E+03  0.79497392950E+03  0.00000000000E+00 0. -1.
         21   -1    0    0  501  503 -0.00000000000E+00 -0.00000000000E+00 -0.80749492410E+02  0.80749492410E+02  0.00000000000E+00 0. -1.
          6    1    1    2  501    0 -0.17183562802E+03  0.30955424658E+01  0.23828539943E+03  0.34094867213E+03  0.17300000000E+03 0. -1.
         -6    1    1    2    0  502  0.17183562802E+03 -0.30955424658E+01  0.47593903765E+03  0.53477474978E+03  0.17300000000E+03 0. -1.
<mgrwt>
<rscale>  2 0.24385665E+03</rscale>
<asrwt>0</asrwt>
<pdfrwt beam="1">  1       21 0.12230368E+00 0.24385665E+03</pdfrwt>
<pdfrwt beam="2">  1       21 0.12422999E-01 0.24385665E+03</pdfrwt>
<totfact> 0.26998895E+04</totfact>
</mgrwt>
</event>
<event>
 4    1  0.4495571E+000  0.1803675E+03  0.7546771E-02  0.1167448E+00
         21   -1    0    0  503  502  0.00000000000E+00  0.00000000000E+00  0.17111016734E+03  0.17111016734E+03  0.00000000000E+00 0. -1.
         21   -1    0    0  501  503 -0.00000000000E+00 -0.00000000000E+00 -0.19915892352E+03  0.19915892352E+03  0.00000000000E+00 0. -1.
          6    1    1    2  501    0 -0.15919445203E+02  0.48476890552E+02 -0.53452794553E+02  0.18812134089E+03  0.17300000000E+03 0.  1.
         -6    1    1    2    0  502  0.15919445203E+02 -0.48476890552E+02  0.25404038380E+02  0.18214774997E+03  0.17300000000E+03 0.  1.
<mgrwt>
<rscale>  2 0.18036751E+03</rscale>
<asrwt>0</asrwt>
<pdfrwt beam="1">  1       21 0.26324641E-01 0.18036751E+03</pdfrwt>
<pdfrwt beam="2">  1       21 0.30639834E-01 0.18036751E+03</pdfrwt>
<totfact> 0.14088639E+05</totfact>
</mgrwt>
</event>
<event>
 4    1  0.4495571E+000  0.1834700E+03  0.7546771E-02  0.1164486E+00
         21   -1    0    0  501  502  0.00000000000E+00  0.00000000000E+00  0.14981935962E+04  0.14981935962E+04  0.00000000000E+00 0.  1.
         21   -1    0    0  502  503 -0.00000000000E+00 -0.00000000000E+00 -0.22510518063E+02  0.22510518063E+02  0.00000000000E+00 0.  1.
          6    1    1    2  501    0 -0.50235726391E+02 -0.34764950392E+02  0.70474869036E+03  0.72823893507E+03  0.17300000000E+03 0. -1.
         -6    1    1    2    0  503  0.50235726391E+02  0.34764950392E+02  0.77093438774E+03  0.79246517916E+03  0.17300000000E+03 0. -1.
<mgrwt>
<rscale>  2 0.18346997E+03</rscale>
<asrwt>0</asrwt>
<pdfrwt beam="1">  1       21 0.23049124E+00 0.18346997E+03</pdfrwt>
<pdfrwt beam="2">  1       21 0.34631578E-02 0.18346997E+03</pdfrwt>
<totfact> 0.43600753E+04</totfact>
</mgrwt>
</event>
<event>
 4    1  0.4495571E+000  0.1747019E+03  0.7546771E-02  0.1173031E+00
         21   -1    0    0  501  502  0.00000000000E+00  0.00000000000E+00  0.29765851868E+03  0.29765851868E+03  0.00000000000E+00 0.  1.
         21   -1    0    0  502  503 -0.00000000000E+00 -0.00000000000E+00 -0.21784232251E+03  0.21784232251E+03  0.00000000000E+00 0.  1.
          6    1    1    2  501    0  0.14157964276E+01 -0.24284545776E+02  0.22743113410E+03  0.28678504912E+03  0.17300000000E+03 0.  1.
         -6    1    1    2    0  503 -0.14157964276E+01  0.24284545776E+02 -0.14761493792E+03  0.22871579207E+03  0.17300000000E+03 0.  1.
<mgrwt>
<rscale>  2 0.17470187E+03</rscale>
<asrwt>0</asrwt>
<pdfrwt beam="1">  1       21 0.45793618E-01 0.17470187E+03</pdfrwt>
<pdfrwt beam="2">  1       21 0.33514203E-01 0.17470187E+03</pdfrwt>
<totfact> 0.39558548E+04</totfact>
</mgrwt>
</event>
<event>
 4    1  0.4495571E+000  0.3089942E+03  0.7546771E-02  0.1080829E+00
         21   -1    0    0  501  502  0.00000000000E+00  0.00000000000E+00  0.50777431848E+03  0.50777431848E+03  0.00000000000E+00 0. -1.
         21   -1    0    0  502  503 -0.00000000000E+00 -0.00000000000E+00 -0.22211920925E+03  0.22211920925E+03  0.00000000000E+00 0.  1.
          6    1    1    2  501    0 -0.91382457266E+02 -0.23916037975E+03  0.28579493088E+03  0.42089925547E+03  0.17300000000E+03 0. -1.
         -6    1    1    2    0  503  0.91382457266E+02  0.23916037975E+03 -0.13982164269E+00  0.30899427226E+03  0.17300000000E+03 0.  1.
<mgrwt>
<rscale>  2 0.30899424E+03</rscale>
<asrwt>0</asrwt>
<pdfrwt beam="1">  1       21 0.78119126E-01 0.30899424E+03</pdfrwt>
<pdfrwt beam="2">  1       21 0.34172186E-01 0.30899424E+03</pdfrwt>
<totfact> 0.11238454E+04</totfact>
</mgrwt>
</event>
<event>
 4    1  0.4495571E+000  0.3367355E+03  0.7546771E-02  0.1068195E+00
         21   -1    0    0  501  502  0.00000000000E+00  0.00000000000E+00  0.47098542094E+03  0.47098542094E+03  0.00000000000E+00 0. -1.
         21   -1    0    0  502  503 -0.00000000000E+00 -0.00000000000E+00 -0.27873615636E+03  0.27873615636E+03  0.00000000000E+00 0. -1.
          6    1    1    2  501    0  0.43069575920E+01 -0.28886540764E+03  0.23450468518E+03  0.41034524609E+03  0.17300000000E+03 0. -1.
         -6    1    1    2    0  503 -0.43069575920E+01  0.28886540764E+03 -0.42255420606E+02  0.33937633121E+03  0.17300000000E+03 0. -1.
<mgrwt>
<rscale>  2 0.33673547E+03</rscale>
<asrwt>0</asrwt>
<pdfrwt beam="1">  1       21 0.72459296E-01 0.33673547E+03</pdfrwt>
<pdfrwt beam="2">  1       21 0.42882485E-01 0.33673547E+03</pdfrwt>
<totfact> 0.82997133E+03</totfact>
</mgrwt>
</event>
<event>
 4    1  0.4495571E+000  0.1884171E+03  0.7546771E-02  0.1159897E+00
         21   -1    0    0  503  502  0.00000000000E+00  0.00000000000E+00  0.36538998235E+02  0.36538998235E+02  0.00000000000E+00 0.  1.
         21   -1    0    0  501  503 -0.00000000000E+00 -0.00000000000E+00 -0.11275821379E+04  0.11275821379E+04  0.00000000000E+00 0.  1.
          6    1    1    2  501    0  0.35610609068E+02 -0.65604136993E+02 -0.32902954716E+03  0.37915888645E+03  0.17300000000E+03 0.  1.
         -6    1    1    2    0  502 -0.35610609068E+02  0.65604136993E+02 -0.76201359245E+03  0.78496224963E+03  0.17300000000E+03 0.  1.
<mgrwt>
<rscale>  2 0.18841714E+03</rscale>
<asrwt>0</asrwt>
<pdfrwt beam="1">  1       21 0.56213844E-02 0.18841714E+03</pdfrwt>
<pdfrwt beam="2">  1       21 0.17347417E+00 0.18841714E+03</pdfrwt>
<totfact> 0.44590891E+04</totfact>
</mgrwt>
</event>
<event>
 4    1  0.4495571E+000  0.2986097E+03  0.7546771E-02  0.1085938E+00
         21   -1    0    0  503  502  0.00000000000E+00  0.00000000000E+00  0.13192181774E+03  0.13192181774E+03  0.00000000000E+00 0.  1.
         21   -1    0    0  501  503 -0.00000000000E+00 -0.00000000000E+00 -0.99127969560E+03  0.99127969560E+03  0.00000000000E+00 0. -1.
          6    1    1    2  501    0 -0.15951177445E+03  0.18383353062E+03 -0.74644377343E+03  0.80395651628E+03  0.17300000000E+03 0. -1.
         -6    1    1    2    0  502  0.15951177445E+03 -0.18383353062E+03 -0.11291410443E+03  0.31924499706E+03  0.17300000000E+03 0.  1.
<mgrwt>
<rscale>  2 0.29860973E+03</rscale>
<asrwt>0</asrwt>
<pdfrwt beam="1">  1       21 0.20295664E-01 0.29860973E+03</pdfrwt>
<pdfrwt beam="2">  1       21 0.15250457E+00 0.29860973E+03</pdfrwt>
<totfact> 0.59854952E+03</totfact>
</mgrwt>
</event>
<event>
 4    1  0.4495571E+000  0.1849851E+03  0.7546771E-02  0.1163064E+00
         21   -1    0    0  501  502  0.00000000000E+00  0.00000000000E+00  0.50034621871E+02  0.50034621871E+02  0.00000000000E+00 0.  1.
         21   -1    0    0  502  503 -0.00000000000E+00 -0.00000000000E+00 -0.94542557711E+03  0.94542557711E+03  0.00000000000E+00 0.  1.
          6    1    1    2  501    0  0.25743422922E+02  0.60230843983E+02 -0.18592297114E+03  0.26227243391E+03  0.17300000000E+03 0.  1.
         -6    1    1    2    0  503 -0.25743422922E+02 -0.60230843983E+02 -0.70946798410E+03  0.73318776507E+03  0.17300000000E+03 0.  1.
<mgrwt>
<rscale>  2 0.18498508E+03</rscale>
<asrwt>0</asrwt>
<pdfrwt beam="1">  1       21 0.76976340E-02 0.18498508E+03</pdfrwt>
<pdfrwt beam="2">  1       21 0.14545009E+00 0.18498508E+03</pdfrwt>
<totfact> 0.41762337E+04</totfact>
</mgrwt>
</event>
<event>
 4    1  0.4495571E+000  0.2154167E+03  0.7546771E-02  0.1137347E+00
         21   -1    0    0  501  502  0.00000000000E+00  0.00000000000E+00  0.22408624036E+03  0.22408624036E+03  0.00000000000E+00 0. -1.
         21   -1    0    0  502  503 -0.00000000000E+00 -0.00000000000E+00 -0.21405588331E+03  0.21405588331E+03  0.00000000000E+00 0. -1.
          6    1    1    2  501    0 -0.12666471535E+03 -0.20770746998E+02  0.44555328255E+02  0.21997625172E+03  0.17300000000E+03 0. -1.
         -6    1    1    2    0  503  0.12666471535E+03  0.20770746998E+02 -0.34524971206E+02  0.21816587195E+03  0.17300000000E+03 0. -1.
<mgrwt>
<rscale>  2 0.21541675E+03</rscale>
<asrwt>0</asrwt>
<pdfrwt beam="1">  1       21 0.34474806E-01 0.21541675E+03</pdfrwt>
<pdfrwt beam="2">  1       21 0.32931674E-01 0.21541675E+03</pdfrwt>
<totfact> 0.71271206E+04</totfact>
</mgrwt>
</event>
<event>
 4    1  0.4495571E+000  0.1789777E+03  0.7546771E-02  0.1168796E+00
         21   -1    0    0  501  502  0.00000000000E+00  0.00000000000E+00  0.41507473365E+03  0.41507473365E+03  0.00000000000E+00 0. -1.
         21   -1    0    0  502  503 -0.00000000000E+00 -0.00000000000E+00 -0.89777046327E+02  0.89777046327E+02  0.00000000000E+00 0. -1.
          6    1    1    2  501    0 -0.66238484225E+01 -0.45388876038E+02  0.25722616639E+03  0.31336612151E+03  0.17300000000E+03 0.  1.
         -6    1    1    2    0  503  0.66238484225E+01  0.45388876038E+02  0.68071520937E+02  0.19148565847E+03  0.17300000000E+03 0.  1.
<mgrwt>
<rscale>  2 0.17897772E+03</rscale>
<asrwt>0</asrwt>
<pdfrwt beam="1">  1       21 0.63857650E-01 0.17897772E+03</pdfrwt>
<pdfrwt beam="2">  1       21 0.13811854E-01 0.17897772E+03</pdfrwt>
<totfact> 0.10375162E+05</totfact>
</mgrwt>
</event>
<event>
 4    1  0.4495571E+000  0.2400855E+03  0.7546771E-02  0.1119736E+00
         21   -1    0    0  503  502  0.00000000000E+00  0.00000000000E+00  0.56412869681E+02  0.56412869681E+02  0.00000000000E+00 0. -1.
         21   -1    0    0  501  503 -0.00000000000E+00 -0.00000000000E+00 -0.13878226799E+04  0.13878226799E+04  0.00000000000E+00 0.  1.
          6    1    1    2  501    0  0.10071459484E+03  0.13254662940E+03 -0.10365667904E+04  0.10640074011E+04  0.17300000000E+03 0. -1.
         -6    1    1    2    0  502 -0.10071459484E+03 -0.13254662940E+03 -0.29484301980E+03  0.38022814849E+03  0.17300000000E+03 0.  1.
<mgrwt>
<rscale>  2 0.24008548E+03</rscale>
<asrwt>0</asrwt>
<pdfrwt beam="1">  1       21 0.86789034E-02 0.24008548E+03</pdfrwt>
<pdfrwt beam="2">  1       21 0.21351117E+00 0.24008548E+03</pdfrwt>
<totfact> 0.11063524E+04</totfact>
</mgrwt>
</event>
<event>
 4    1  0.4495571E+000  0.1820942E+03  0.7546771E-02  0.1165791E+00
         21   -1    0    0  501  502  0.00000000000E+00  0.00000000000E+00  0.25031965251E+03  0.25031965251E+03  0.00000000000E+00 0.  1.
         21   -1    0    0  502  503 -0.00000000000E+00 -0.00000000000E+00 -0.13467526457E+03  0.13467526457E+03  0.00000000000E+00 0.  1.
          6    1    1    2  501    0 -0.19234350387E+02 -0.53472880671E+02  0.82489088526E+02  0.19990687564E+03  0.17300000000E+03 0. -1.
         -6    1    1    2    0  503  0.19234350387E+02  0.53472880671E+02  0.33155299415E+02  0.18508804143E+03  0.17300000000E+03 0. -1.
<mgrwt>
<rscale>  2 0.18209423E+03</rscale>
<asrwt>0</asrwt>
<pdfrwt beam="1">  1       21 0.38510716E-01 0.18209423E+03</pdfrwt>
<pdfrwt beam="2">  1       21 0.20719272E-01 0.18209423E+03</pdfrwt>
<totfact> 0.14097471E+05</totfact>
</mgrwt>
</event>
<event>
 4    1  0.4495571E+000  0.2587167E+03  0.7546771E-02  0.1107917E+00
         21   -1    0    0  501  502  0.00000000000E+00  0.00000000000E+00  0.18200973400E+03  0.18200973400E+03  0.00000000000E+00 0.  1.
         21   -1    0    0  502  503 -0.00000000000E+00 -0.00000000000E+00 -0.73833300516E+03  0.73833300516E+03  0.00000000000E+00 0. -1.
          6    1    1    2  501    0  0.11129576456E+03 -0.15690303998E+03  0.47851769241E+02  0.26310473767E+03  0.17300000000E+03 0.  1.
         -6    1    1    2    0  503 -0.11129576456E+03  0.15690303998E+03 -0.60417504040E+03  0.65723800150E+03  0.17300000000E+03 0. -1.
<mgrwt>
<rscale>  2 0.25871666E+03</rscale>
<asrwt>0</asrwt>
<pdfrwt beam="1">  1       21 0.28001498E-01 0.25871666E+03</pdfrwt>
<pdfrwt beam="2">  1       21 0.11358969E+00 0.25871666E+03</pdfrwt>
<totfact> 0.70401876E+03</totfact>
</mgrwt>
</event>
<event>
 4    1  0.4495571E+000  0.1833484E+03  0.7546771E-02  0.1164601E+00
         21   -1    0    0  501  502  0.00000000000E+00  0.00000000000E+00  0.56359235643E+02  0.56359235643E+02  0.00000000000E+00 0. -1.
         21   -1    0    0  502  503 -0.00000000000E+00 -0.00000000000E+00 -0.61801651249E+03  0.61801651249E+03  0.00000000000E+00 0. -1.
          6    1    1    2  501    0  0.45030801589E+02 -0.40741607821E+02 -0.34378649811E+03  0.38962264819E+03  0.17300000000E+03 0. -1.
         -6    1    1    2    0  503 -0.45030801589E+02  0.40741607821E+02 -0.21787077873E+03  0.28475309994E+03  0.17300000000E+03 0. -1.
<mgrwt>
<rscale>  2 0.18334844E+03</rscale>
<asrwt>0</asrwt>
<pdfrwt beam="1">  1       21 0.86706511E-02 0.18334844E+03</pdfrwt>
<pdfrwt beam="2">  1       21 0.95079469E-01 0.18334844E+03</pdfrwt>
<totfact> 0.96773138E+04</totfact>
</mgrwt>
</event>
<event>
 4    1  0.4495571E+000  0.1777012E+03  0.7546771E-02  0.1170047E+00
         21   -1    0    0  501  502  0.00000000000E+00  0.00000000000E+00  0.27311116263E+02  0.27311116263E+02  0.00000000000E+00 0.  1.
         21   -1    0    0  502  503 -0.00000000000E+00 -0.00000000000E+00 -0.11574803923E+04  0.11574803923E+04  0.00000000000E+00 0.  1.
          6    1    1    2  501    0  0.40059325037E+02 -0.66310449978E+01 -0.54555383523E+03  0.57376537663E+03  0.17300000000E+03 0.  1.
         -6    1    1    2    0  503 -0.40059325037E+02  0.66310449978E+01 -0.58461544082E+03  0.61102613195E+03  0.17300000000E+03 0.  1.
<mgrwt>
<rscale>  2 0.17770121E+03</rscale>
<asrwt>0</asrwt>
<pdfrwt beam="1">  1       21 0.42017101E-02 0.17770121E+03</pdfrwt>
<pdfrwt beam="2">  1       21 0.17807391E+00 0.17770121E+03</pdfrwt>
<totfact> 0.68256155E+04</totfact>
</mgrwt>
</event>
<event>
 4    1  0.4495571E+000  0.2372945E+03  0.7546771E-02  0.1121608E+00
         21   -1    0    0  503  502  0.00000000000E+00  0.00000000000E+00  0.47722334215E+03  0.47722334215E+03  0.00000000000E+00 0. -1.
         21   -1    0    0  501  503 -0.00000000000E+00 -0.00000000000E+00 -0.12458403752E+03  0.12458403752E+03  0.00000000000E+00 0. -1.
          6    1    1    2  501    0 -0.26166081196E+02  0.16029671607E+03  0.10710551669E+03  0.26034648585E+03  0.17300000000E+03 0. -1.
         -6    1    1    2    0  502  0.26166081196E+02 -0.16029671607E+03  0.24553378795E+03  0.34146089382E+03  0.17300000000E+03 0. -1.
<mgrwt>
<rscale>  2 0.23729454E+03</rscale>
<asrwt>0</asrwt>
<pdfrwt beam="1">  1       21 0.73418975E-01 0.23729454E+03</pdfrwt>
<pdfrwt beam="2">  1       21 0.19166775E-01 0.23729454E+03</pdfrwt>
<totfact> 0.40765736E+04</totfact>
</mgrwt>
</event>
<event>
 4    1  0.4495571E+000  0.2237669E+03  0.7546771E-02  0.1131105E+00
         21   -1    0    0  503  502  0.00000000000E+00  0.00000000000E+00  0.25229707111E+02  0.25229707111E+02  0.00000000000E+00 0. -1.
         21   -1    0    0  501  503 -0.00000000000E+00 -0.00000000000E+00 -0.20377761193E+04  0.20377761193E+04  0.00000000000E+00 0. -1.
          6    1    1    2  501    0  0.96035437975E+01  0.14159935097E+03 -0.11728570047E+04  0.11940122100E+04  0.17300000000E+03 0. -1.
         -6    1    1    2    0  502 -0.96035437975E+01 -0.14159935097E+03 -0.83968940749E+03  0.86899361638E+03  0.17300000000E+03 0. -1.
<mgrwt>
<rscale>  2 0.22376685E+03</rscale>
<asrwt>0</asrwt>
<pdfrwt beam="1">  1       21 0.38814950E-02 0.22376685E+03</pdfrwt>
<pdfrwt beam="2">  1       21 0.31350389E+00 0.22376685E+03</pdfrwt>
<totfact> 0.11388574E+04</totfact>
</mgrwt>
</event>
<event>
 4    1  0.4495571E+000  0.1768839E+03  0.7546771E-02  0.1170853E+00
         21   -1    0    0  501  502  0.00000000000E+00  0.00000000000E+00  0.18228132547E+03  0.18228132547E+03  0.00000000000E+00 0. -1.
         21   -1    0    0  502  503 -0.00000000000E+00 -0.00000000000E+00 -0.22188710416E+03  0.22188710416E+03  0.00000000000E+00 0. -1.
          6    1    1    2  501    0  0.16354290483E+02 -0.33037067624E+02  0.76357177386E+02  0.19266117718E+03  0.17300000000E+03 0. -1.
         -6    1    1    2    0  503 -0.16354290483E+02  0.33037067624E+02 -0.11596295608E+03  0.21150725244E+03  0.17300000000E+03 0. -1.
<mgrwt>
<rscale>  2 0.17688389E+03</rscale>
<asrwt>0</asrwt>
<pdfrwt beam="1">  1       21 0.28043281E-01 0.17688389E+03</pdfrwt>
<pdfrwt beam="2">  1       21 0.34136478E-01 0.17688389E+03</pdfrwt>
<totfact> 0.10104021E+05</totfact>
</mgrwt>
</event>
<event>
 4    1  0.4495571E+000  0.2359704E+03  0.7546771E-02  0.1122507E+00
         21   -1    0    0  501  502  0.00000000000E+00  0.00000000000E+00  0.12187641761E+04  0.12187641761E+04  0.00000000000E+00 0.  1.
         21   -1    0    0  502  503 -0.00000000000E+00 -0.00000000000E+00 -0.45858944627E+02  0.45858944627E+02  0.00000000000E+00 0. -1.
          6    1    1    2  501    0 -0.15168081343E+03  0.52401750721E+02  0.54776541459E+03  0.59643018205E+03  0.17300000000E+03 0. -1.
         -6    1    1    2    0  503  0.15168081343E+03 -0.52401750721E+02  0.62513981686E+03  0.66819293865E+03  0.17300000000E+03 0.  1.
<mgrwt>
<rscale>  2 0.23597036E+03</rscale>
<asrwt>0</asrwt>
<pdfrwt beam="1">  1       21 0.18750216E+00 0.23597036E+03</pdfrwt>
<pdfrwt beam="2">  1       21 0.70552232E-02 0.23597036E+03</pdfrwt>
<totfact> 0.23484317E+04</totfact>
</mgrwt>
</event>
<event>
 4    1  0.4495571E+000  0.1827763E+03  0.7546771E-02  0.1165143E+00
         21   -1    0    0  503  502  0.00000000000E+00  0.00000000000E+00  0.18932849884E+04  0.18932849884E+04  0.00000000000E+00 0.  1.
         21   -1    0    0  501  503 -0.00000000000E+00 -0.00000000000E+00 -0.74833707543E+02  0.74833707543E+02  0.00000000000E+00 0.  1.
          6    1    1    2  501    0 -0.58163666669E+02 -0.97545420471E+01  0.48970055355E+02  0.18922269825E+03  0.17300000000E+03 0. -1.
         -6    1    1    2    0  502  0.58163666669E+02  0.97545420471E+01  0.17694812255E+04  0.17788959977E+04  0.17300000000E+03 0. -1.
<mgrwt>
<rscale>  2 0.18277627E+03</rscale>
<asrwt>0</asrwt>
<pdfrwt beam="1">  1       21 0.29127458E+00 0.18277627E+03</pdfrwt>
<pdfrwt beam="2">  1       21 0.11512880E-01 0.18277627E+03</pdfrwt>
<totfact> 0.24517425E+03</totfact>
</mgrwt>
</event>
<event>
 4    1  0.4495571E+000  0.2180038E+03  0.7546771E-02  0.1135380E+00
         21   -1    0    0  501  502  0.00000000000E+00  0.00000000000E+00  0.27958268293E+03  0.27958268293E+03  0.00000000000E+00 0. -1.
         21   -1    0    0  502  503 -0.00000000000E+00 -0.00000000000E+00 -0.18843501757E+03  0.18843501757E+03  0.00000000000E+00 0.  1.
          6    1    1    2  501    0  0.28159658887E+02  0.12962909361E+03 -0.27643843110E+02  0.21974951732E+03  0.17300000000E+03 0.  1.
         -6    1    1    2    0  503 -0.28159658887E+02 -0.12962909361E+03  0.11879150847E+03  0.24826818319E+03  0.17300000000E+03 0.  1.
<mgrwt>
<rscale>  2 0.21800383E+03</rscale>
<asrwt>0</asrwt>
<pdfrwt beam="1">  1       21 0.43012720E-01 0.21800383E+03</pdfrwt>
<pdfrwt beam="2">  1       21 0.28990003E-01 0.21800383E+03</pdfrwt>
<totfact> 0.58521421E+04</totfact>
</mgrwt>
</event>
<event>
 4    1  0.4495571E+000  0.1842411E+03  0.7546771E-02  0.1163760E+00
         21   -1    0    0  501  502  0.00000000000E+00  0.00000000000E+00  0.41999410762E+03  0.41999410762E+03  0.00000000000E+00 0.  1.
         21   -1    0    0  502  503 -0.00000000000E+00 -0.00000000000E+00 -0.13809268444E+03  0.13809268444E+03  0.00000000000E+00 0.  1.
          6    1    1    2  501    0  0.63188426433E+02  0.47972742489E+01 -0.38751057615E+02  0.18827223784E+03  0.17300000000E+03 0.  1.
         -6    1    1    2    0  503 -0.63188426433E+02 -0.47972742489E+01  0.32065248079E+03  0.36981455422E+03  0.17300000000E+03 0.  1.
<mgrwt>
<rscale>  2 0.18424112E+03</rscale>
<asrwt>0</asrwt>
<pdfrwt beam="1">  1       21 0.64614477E-01 0.18424112E+03</pdfrwt>
<pdfrwt beam="2">  1       21 0.21245029E-01 0.18424112E+03</pdfrwt>
<totfact> 0.45699592E+04</totfact>
</mgrwt>
</event>
<event>
 4    1  0.4495571E+000  0.1835919E+03  0.7546771E-02  0.1164371E+00
         21   -1    0    0  501  502  0.00000000000E+00  0.00000000000E+00  0.52927017571E+03  0.52927017571E+03  0.00000000000E+00 0. -1.
         21   -1    0    0  502  503 -0.00000000000E+00 -0.00000000000E+00 -0.32484568927E+03  0.32484568927E+03  0.00000000000E+00 0. -1.
          6    1    1    2  501    0  0.54334004727E+02  0.28719246668E+02  0.48512785405E+03  0.51870513201E+03  0.17300000000E+03 0. -1.
         -6    1    1    2    0  503 -0.54334004727E+02 -0.28719246668E+02 -0.28070336761E+03  0.33541073296E+03  0.17300000000E+03 0. -1.
<mgrwt>
<rscale>  2 0.18359188E+03</rscale>
<asrwt>0</asrwt>
<pdfrwt beam="1">  1       21 0.81426181E-01 0.18359188E+03</pdfrwt>
<pdfrwt beam="2">  1       21 0.49976260E-01 0.18359188E+03</pdfrwt>
<totfact> 0.50762831E+03</totfact>
</mgrwt>
</event>
<event>
 4    1  0.4495571E+000  0.1861963E+03  0.7546771E-02  0.1161937E+00
         21   -1    0    0  501  502  0.00000000000E+00  0.00000000000E+00  0.86625329875E+03  0.86625329875E+03  0.00000000000E+00 0.  1.
         21   -1    0    0  502  503 -0.00000000000E+00 -0.00000000000E+00 -0.40028476370E+02  0.40028476370E+02  0.00000000000E+00 0.  1.
          6    1    1    2  501    0 -0.18243666505E+02  0.66386920942E+02  0.40727965856E+03  0.44782337469E+03  0.17300000000E+03 0. -1.
         -6    1    1    2    0  503  0.18243666505E+02 -0.66386920942E+02  0.41894516382E+03  0.45845840044E+03  0.17300000000E+03 0. -1.
<mgrwt>
<rscale>  2 0.18619628E+03</rscale>
<asrwt>0</asrwt>
<pdfrwt beam="1">  1       21 0.13326972E+00 0.18619628E+03</pdfrwt>
<pdfrwt beam="2">  1       21 0.61582278E-02 0.18619628E+03</pdfrwt>
<totfact> 0.76786935E+04</totfact>
</mgrwt>
</event>
<event>
 4    1  0.4495571E+000  0.1823957E+03  0.7546771E-02  0.1165504E+00
         21   -1    0    0  501  502  0.00000000000E+00  0.00000000000E+00  0.37094882941E+03  0.37094882941E+03  0.00000000000E+00 0. -1.
         21   -1    0    0  502  503 -0.00000000000E+00 -0.00000000000E+00 -0.10050608789E+03  0.10050608789E+03  0.00000000000E+00 0. -1.
          6    1    1    2  501    0  0.16686712876E+01 -0.57761652996E+02  0.21257283397E+03  0.28009891603E+03  0.17300000000E+03 0. -1.
         -6    1    1    2    0  503 -0.16686712876E+01  0.57761652996E+02  0.57869907555E+02  0.19135600127E+03  0.17300000000E+03 0. -1.
<mgrwt>
<rscale>  2 0.18239570E+03</rscale>
<asrwt>0</asrwt>
<pdfrwt beam="1">  1       21 0.57069050E-01 0.18239570E+03</pdfrwt>
<pdfrwt beam="2">  1       21 0.15462475E-01 0.18239570E+03</pdfrwt>
<totfact> 0.10745342E+05</totfact>
</mgrwt>
</event>
<event>
 4    1  0.4495571E+000  0.1860831E+03  0.7546771E-02  0.1162042E+00
         21   -1    0    0  503  502  0.00000000000E+00  0.00000000000E+00  0.80545791313E+02  0.80545791313E+02  0.00000000000E+00 0.  1.
         21   -1    0    0  501  503 -0.00000000000E+00 -0.00000000000E+00 -0.11813053186E+04  0.11813053186E+04  0.00000000000E+00 0.  1.
          6    1    1    2  501    0  0.23577889595E+02 -0.64358333463E+02 -0.10535711287E+04  0.10698780469E+04  0.17300000000E+03 0.  1.
         -6    1    1    2    0  502 -0.23577889595E+02  0.64358333463E+02 -0.47188398568E+02  0.19197306301E+03  0.17300000000E+03 0.  1.
<mgrwt>
<rscale>  2 0.18608308E+03</rscale>
<asrwt>0</asrwt>
<pdfrwt beam="1">  1       21 0.12391661E-01 0.18608308E+03</pdfrwt>
<pdfrwt beam="2">  1       21 0.18173927E+00 0.18608308E+03</pdfrwt>
<totfact> 0.98633322E+03</totfact>
</mgrwt>
</event>
<event>
 4    1  0.4495571E+000  0.1921428E+03  0.7546771E-02  0.1156543E+00
         21   -1    0    0  501  502  0.00000000000E+00  0.00000000000E+00  0.16660485416E+03  0.16660485416E+03  0.00000000000E+00 0. -1.
         21   -1    0    0  502  503 -0.00000000000E+00 -0.00000000000E+00 -0.71384914841E+03  0.71384914841E+03  0.00000000000E+00 0. -1.
          6    1    1    2  501    0  0.37912144014E+02  0.74515259933E+02  0.91945714503E+02  0.21300908207E+03  0.17300000000E+03 0. -1.
         -6    1    1    2    0  503 -0.37912144014E+02 -0.74515259933E+02 -0.63919000875E+03  0.66744492050E+03  0.17300000000E+03 0. -1.
<mgrwt>
<rscale>  2 0.19214280E+03</rscale>
<asrwt>0</asrwt>
<pdfrwt beam="1">  1       21 0.25631516E-01 0.19214280E+03</pdfrwt>
<pdfrwt beam="2">  1       21 0.10982295E+00 0.19214280E+03</pdfrwt>
<totfact> 0.94725140E+03</totfact>
</mgrwt>
</event>
<event>
 4    1  0.4495571E+000  0.1809108E+03  0.7546771E-02  0.1166925E+00
         21   -1    0    0  503  502  0.00000000000E+00  0.00000000000E+00  0.23953512921E+03  0.23953512921E+03  0.00000000000E+00 0. -1.
         21   -1    0    0  501  503 -0.00000000000E+00 -0.00000000000E+00 -0.44737905175E+03  0.44737905175E+03  0.00000000000E+00 0. -1.
          6    1    1    2  501    0  0.27958969372E+02 -0.44922184511E+02 -0.39016609104E+03  0.43006776818E+03  0.17300000000E+03 0. -1.
         -6    1    1    2    0  502 -0.27958969372E+02  0.44922184511E+02  0.18232216850E+03  0.25684641278E+03  0.17300000000E+03 0. -1.
<mgrwt>
<rscale>  2 0.18091077E+03</rscale>
<asrwt>0</asrwt>
<pdfrwt beam="1">  1       21 0.36851559E-01 0.18091077E+03</pdfrwt>
<pdfrwt beam="2">  1       21 0.68827546E-01 0.18091077E+03</pdfrwt>
<totfact> 0.13762016E+04</totfact>
</mgrwt>
</event>
<event>
 4    1  0.4495571E+000  0.1812038E+03  0.7546771E-02  0.1166643E+00
         21   -1    0    0  503  502  0.00000000000E+00  0.00000000000E+00  0.74403377833E+02  0.74403377833E+02  0.00000000000E+00 0. -1.
         21   -1    0    0  501  503 -0.00000000000E+00 -0.00000000000E+00 -0.49764696577E+03  0.49764696577E+03  0.00000000000E+00 0. -1.
          6    1    1    2  501    0  0.53064319848E+02  0.94867531642E+01 -0.30785994056E+03  0.35722900712E+03  0.17300000000E+03 0.  1.
         -6    1    1    2    0  502 -0.53064319848E+02 -0.94867531642E+01 -0.11538364738E+03  0.21482133648E+03  0.17300000000E+03 0.  1.
<mgrwt>
<rscale>  2 0.18120381E+03</rscale>
<asrwt>0</asrwt>
<pdfrwt beam="1">  1       21 0.11446673E-01 0.18120381E+03</pdfrwt>
<pdfrwt beam="2">  1       21 0.76561073E-01 0.18120381E+03</pdfrwt>
<totfact> 0.97374711E+04</totfact>
</mgrwt>
</event>
<event>
 4    1  0.4495571E+000  0.3555597E+03  0.7546771E-02  0.1060356E+00
         21   -1    0    0  503  502  0.00000000000E+00  0.00000000000E+00  0.14532823500E+03  0.14532823500E+03  0.00000000000E+00 0. -1.
         21   -1    0    0  501  503 -0.00000000000E+00 -0.00000000000E+00 -0.10458807686E+04  0.10458807686E+04  0.00000000000E+00 0. -1.
          6    1    1    2  501    0 -0.30447728875E+03  0.61541114706E+02 -0.69458280107E+03  0.78029993958E+03  0.17300000000E+03 0. -1.
         -6    1    1    2    0  502  0.30447728875E+03 -0.61541114706E+02 -0.20596973252E+03  0.41090906400E+03  0.17300000000E+03 0. -1.
<mgrwt>
<rscale>  2 0.35555974E+03</rscale>
<asrwt>0</asrwt>
<pdfrwt beam="1">  1       21 0.22358190E-01 0.35555974E+03</pdfrwt>
<pdfrwt beam="2">  1       21 0.16090473E+00 0.35555974E+03</pdfrwt>
<totfact> 0.41790070E+03</totfact>
</mgrwt>
</event>
<event>
 4    1  0.4495571E+000  0.2067207E+03  0.7546771E-02  0.1144189E+00
         21   -1    0    0  501  502  0.00000000000E+00  0.00000000000E+00  0.65300413686E+02  0.65300413686E+02  0.00000000000E+00 0. -1.
         21   -1    0    0  502  503 -0.00000000000E+00 -0.00000000000E+00 -0.17181421151E+04  0.17181421151E+04  0.00000000000E+00 0. -1.
          6    1    1    2  501    0  0.24528815218E+02 -0.11046617757E+03 -0.12477961286E+03  0.24146095119E+03  0.17300000000E+03 0. -1.
         -6    1    1    2    0  503 -0.24528815218E+02  0.11046617757E+03 -0.15280620886E+04  0.15419815776E+04  0.17300000000E+03 0. -1.
<mgrwt>
<rscale>  2 0.20672068E+03</rscale>
<asrwt>0</asrwt>
<pdfrwt beam="1">  1       21 0.10046220E-01 0.20672068E+03</pdfrwt>
<pdfrwt beam="2">  1       21 0.26432949E+00 0.20672068E+03</pdfrwt>
<totfact> 0.43480950E+03</totfact>
</mgrwt>
</event>
<event>
 4    1  0.4495571E+000  0.2059177E+03  0.7546771E-02  0.1144840E+00
         21   -1    0    0  503  502  0.00000000000E+00  0.00000000000E+00  0.12878536963E+04  0.12878536963E+04  0.00000000000E+00 0. -1.
         21   -1    0    0  501  503 -0.00000000000E+00 -0.00000000000E+00 -0.68590822990E+02  0.68590822990E+02  0.00000000000E+00 0. -1.
          6    1    1    2  501    0 -0.81128065167E+02 -0.76755113894E+02  0.12056552723E+03  0.23861717629E+03  0.17300000000E+03 0. -1.
         -6    1    1    2    0  502  0.81128065167E+02  0.76755113894E+02  0.10986973461E+04  0.11178273430E+04  0.17300000000E+03 0. -1.
<mgrwt>
<rscale>  2 0.20591773E+03</rscale>
<asrwt>0</asrwt>
<pdfrwt beam="1">  1       21 0.19813132E+00 0.20591773E+03</pdfrwt>
<pdfrwt beam="2">  1       21 0.10552435E-01 0.20591773E+03</pdfrwt>
<totfact> 0.10073171E+04</totfact>
</mgrwt>
</event>
<event>
 4    1  0.4495571E+000  0.2035734E+03  0.7546771E-02  0.1146759E+00
         21   -1    0    0  501  502  0.00000000000E+00  0.00000000000E+00  0.44691375400E+02  0.44691375400E+02  0.00000000000E+00 0.  1.
         21   -1    0    0  502  503 -0.00000000000E+00 -0.00000000000E+00 -0.13259271304E+04  0.13259271304E+04  0.00000000000E+00 0.  1.
          6    1    1    2  501    0  0.83481599614E+02  0.67408801561E+02 -0.26485619636E+03  0.33405228446E+03  0.17300000000E+03 0.  1.
         -6    1    1    2    0  503 -0.83481599614E+02 -0.67408801561E+02 -0.10163795586E+04  0.10365662213E+04  0.17300000000E+03 0.  1.
<mgrwt>
<rscale>  2 0.20357339E+03</rscale>
<asrwt>0</asrwt>
<pdfrwt beam="1">  1       21 0.68755960E-02 0.20357339E+03</pdfrwt>
<pdfrwt beam="2">  1       21 0.20398880E+00 0.20357339E+03</pdfrwt>
<totfact> 0.19591123E+04</totfact>
</mgrwt>
</event>
<event>
 4    1  0.4495571E+000  0.2185135E+03  0.7546771E-02  0.1134996E+00
         21   -1    0    0  503  502  0.00000000000E+00  0.00000000000E+00  0.12872372188E+03  0.12872372188E+03  0.00000000000E+00 0.  1.
         21   -1    0    0  501  503 -0.00000000000E+00 -0.00000000000E+00 -0.38151116420E+03  0.38151116420E+03  0.00000000000E+00 0.  1.
          6    1    1    2  501    0 -0.12676880622E+03 -0.41818889077E+02 -0.16887015795E+03  0.27616169170E+03  0.17300000000E+03 0.  1.
         -6    1    1    2    0  502  0.12676880622E+03  0.41818889077E+02 -0.83917284370E+02  0.23407319439E+03  0.17300000000E+03 0.  1.
<mgrwt>
<rscale>  2 0.21851350E+03</rscale>
<asrwt>0</asrwt>
<pdfrwt beam="1">  1       21 0.19803649E-01 0.21851350E+03</pdfrwt>
<pdfrwt beam="2">  1       21 0.58694026E-01 0.21851350E+03</pdfrwt>
<totfact> 0.63126728E+04</totfact>
</mgrwt>
</event>
<event>
 4    1  0.4495571E+000  0.1900407E+03  0.7546771E-02  0.1158425E+00
         21   -1    0    0  503  502  0.00000000000E+00  0.00000000000E+00  0.41450057077E+03  0.41450057077E+03  0.00000000000E+00 0.  1.
         21   -1    0    0  501  503 -0.00000000000E+00 -0.00000000000E+00 -0.10676309157E+03  0.10676309157E+03  0.00000000000E+00 0.  1.
          6    1    1    2  501    0  0.30272388394E+02 -0.72595059483E+02  0.42102522381E+02  0.19464861302E+03  0.17300000000E+03 0.  1.
         -6    1    1    2    0  502 -0.30272388394E+02  0.72595059483E+02  0.26563495682E+03  0.32661504932E+03  0.17300000000E+03 0.  1.
<mgrwt>
<rscale>  2 0.19004068E+03</rscale>
<asrwt>0</asrwt>
<pdfrwt beam="1">  1       21 0.63769317E-01 0.19004068E+03</pdfrwt>
<pdfrwt beam="2">  1       21 0.16425091E-01 0.19004068E+03</pdfrwt>
<totfact> 0.75586106E+04</totfact>
</mgrwt>
</event>
<event>
 4    1  0.4495571E+000  0.2091741E+03  0.7546771E-02  0.1142222E+00
         21   -1    0    0  501  502  0.00000000000E+00  0.00000000000E+00  0.14736183646E+03  0.14736183646E+03  0.00000000000E+00 0. -1.
         21   -1    0    0  502  503 -0.00000000000E+00 -0.00000000000E+00 -0.29707889538E+03  0.29707889538E+03  0.00000000000E+00 0. -1.
          6    1    1    2  501    0 -0.43850644761E+02  0.10909585625E+03 -0.69622302697E+02  0.22045645813E+03  0.17300000000E+03 0. -1.
         -6    1    1    2    0  503  0.43850644761E+02 -0.10909585625E+03 -0.80094756228E+02  0.22398427371E+03  0.17300000000E+03 0. -1.
<mgrwt>
<rscale>  2 0.20917405E+03</rscale>
<asrwt>0</asrwt>
<pdfrwt beam="1">  1       21 0.22671052E-01 0.20917405E+03</pdfrwt>
<pdfrwt beam="2">  1       21 0.45704445E-01 0.20917405E+03</pdfrwt>
<totfact> 0.83127332E+04</totfact>
</mgrwt>
</event>
<event>
 4    1  0.4495571E+000  0.2063983E+03  0.7546771E-02  0.1144450E+00
         21   -1    0    0  503  502  0.00000000000E+00  0.00000000000E+00  0.71561214392E+02  0.71561214392E+02  0.00000000000E+00 0.  1.
         21   -1    0    0  501  503 -0.00000000000E+00 -0.00000000000E+00 -0.92128590079E+03  0.92128590079E+03  0.00000000000E+00 0. -1.
          6    1    1    2  501    0 -0.20422596651E+02  0.11069859749E+03 -0.72015712955E+03  0.74915055442E+03  0.17300000000E+03 0. -1.
         -6    1    1    2    0  502  0.20422596651E+02 -0.11069859749E+03 -0.12956755685E+03  0.24369656076E+03  0.17300000000E+03 0.  1.
<mgrwt>
<rscale>  2 0.20639831E+03</rscale>
<asrwt>0</asrwt>
<pdfrwt beam="1">  1       21 0.11009418E-01 0.20639831E+03</pdfrwt>
<pdfrwt beam="2">  1       21 0.14173628E+00 0.20639831E+03</pdfrwt>
<totfact> 0.23509055E+04</totfact>
</mgrwt>
</event>
<event>
 4    1  0.4495571E+000  0.1920887E+03  0.7546771E-02  0.1156591E+00
         21   -1    0    0  501  502  0.00000000000E+00  0.00000000000E+00  0.23849490392E+03  0.23849490392E+03  0.00000000000E+00 0. -1.
         21   -1    0    0  502  503 -0.00000000000E+00 -0.00000000000E+00 -0.17827921714E+03  0.17827921714E+03  0.00000000000E+00 0. -1.
          6    1    1    2  501    0 -0.30782706009E+02 -0.77598270629E+02  0.10587358510E+03  0.21933372430E+03  0.17300000000E+03 0. -1.
         -6    1    1    2    0  503  0.30782706009E+02  0.77598270629E+02 -0.45657898326E+02  0.19744039676E+03  0.17300000000E+03 0. -1.
<mgrwt>
<rscale>  2 0.19208869E+03</rscale>
<asrwt>0</asrwt>
<pdfrwt beam="1">  1       21 0.36691524E-01 0.19208869E+03</pdfrwt>
<pdfrwt beam="2">  1       21 0.27427572E-01 0.19208869E+03</pdfrwt>
<totfact> 0.90856657E+04</totfact>
</mgrwt>
</event>
<event>
 4    1  0.4495571E+000  0.2024897E+03  0.7546771E-02  0.1147655E+00
         21   -1    0    0  501  502  0.00000000000E+00  0.00000000000E+00  0.32099884761E+03  0.32099884761E+03  0.00000000000E+00 0. -1.
         21   -1    0    0  502  503 -0.00000000000E+00 -0.00000000000E+00 -0.14464783794E+03  0.14464783794E+03  0.00000000000E+00 0.  1.
          6    1    1    2  501    0 -0.16863604962E+02 -0.10386872347E+03  0.16779264685E+03  0.26297616855E+03  0.17300000000E+03 0. -1.
         -6    1    1    2    0  503  0.16863604962E+02  0.10386872347E+03  0.85583628293E+01  0.20267051700E+03  0.17300000000E+03 0.  1.
<mgrwt>
<rscale>  2 0.20248974E+03</rscale>
<asrwt>0</asrwt>
<pdfrwt beam="1">  1       21 0.49384438E-01 0.20248974E+03</pdfrwt>
<pdfrwt beam="2">  1       21 0.22253514E-01 0.20248974E+03</pdfrwt>
<totfact> 0.73541823E+04</totfact>
</mgrwt>
</event>
<event>
 4    1  0.4495571E+000  0.1764787E+03  0.7546771E-02  0.1171255E+00
         21   -1    0    0  501  502  0.00000000000E+00  0.00000000000E+00  0.38682419352E+03  0.38682419352E+03  0.00000000000E+00 0. -1.
         21   -1    0    0  502  503 -0.00000000000E+00 -0.00000000000E+00 -0.21229604756E+03  0.21229604756E+03  0.00000000000E+00 0. -1.
          6    1    1    2  501    0  0.77954929840E+01  0.33984683120E+02  0.32328000238E+03  0.36831330187E+03  0.17300000000E+03 0. -1.
         -6    1    1    2    0  503 -0.77954929840E+01 -0.33984683120E+02 -0.14875185642E+03  0.23080693921E+03  0.17300000000E+03 0. -1.
<mgrwt>
<rscale>  2 0.17647869E+03</rscale>
<asrwt>0</asrwt>
<pdfrwt beam="1">  1       21 0.59511414E-01 0.17647869E+03</pdfrwt>
<pdfrwt beam="2">  1       21 0.32660931E-01 0.17647869E+03</pdfrwt>
<totfact> 0.24015466E+04</totfact>
</mgrwt>
</event>
<event>
 4    1  0.4495571E+000  0.1817638E+03  0.7546771E-02  0.1166107E+00
         21   -1    0    0  503  502  0.00000000000E+00  0.00000000000E+00  0.17143224754E+03  0.17143224754E+03  0.00000000000E+00 0.  1.
         21   -1    0    0  501  503 -0.00000000000E+00 -0.00000000000E+00 -0.35537164760E+03  0.35537164760E+03  0.00000000000E+00 0.  1.
          6    1    1    2  501    0  0.50085069183E+02 -0.24506754212E+02 -0.27017038885E+03  0.32562268681E+03  0.17300000000E+03 0.  1.
         -6    1    1    2    0  502 -0.50085069183E+02  0.24506754212E+02  0.86230988782E+02  0.20118120833E+03  0.17300000000E+03 0.  1.
<mgrwt>
<rscale>  2 0.18176384E+03</rscale>
<asrwt>0</asrwt>
<pdfrwt beam="1">  1       21 0.26374192E-01 0.18176384E+03</pdfrwt>
<pdfrwt beam="2">  1       21 0.54672561E-01 0.18176384E+03</pdfrwt>
<totfact> 0.43418037E+04</totfact>
</mgrwt>
</event>
<event>
 4    1  0.4495571E+000  0.2152412E+03  0.7546771E-02  0.1137481E+00
         21   -1    0    0  501  502  0.00000000000E+00  0.00000000000E+00  0.37158553100E+03  0.37158553100E+03  0.00000000000E+00 0.  1.
         21   -1    0    0  502  503 -0.00000000000E+00 -0.00000000000E+00 -0.29370678726E+03  0.29370678726E+03  0.00000000000E+00 0. -1.
          6    1    1    2  501    0  0.35539876710E+02 -0.12303126575E+03 -0.21341163938E+03  0.30310609200E+03  0.17300000000E+03 0. -1.
         -6    1    1    2    0  503 -0.35539876710E+02  0.12303126575E+03  0.29129038313E+03  0.36218622626E+03  0.17300000000E+03 0.  1.
<mgrwt>
<rscale>  2 0.21524120E+03</rscale>
<asrwt>0</asrwt>
<pdfrwt beam="1">  1       21 0.57167005E-01 0.21524120E+03</pdfrwt>
<pdfrwt beam="2">  1       21 0.45185659E-01 0.21524120E+03</pdfrwt>
<totfact> 0.13309109E+04</totfact>
</mgrwt>
</event>
<event>
 4    1  0.4495571E+000  0.2762021E+03  0.7546771E-02  0.1097782E+00
         21   -1    0    0  503  502  0.00000000000E+00  0.00000000000E+00  0.51187732499E+03  0.51187732499E+03  0.00000000000E+00 0.  1.
         21   -1    0    0  501  503 -0.00000000000E+00 -0.00000000000E+00 -0.14949260731E+03  0.14949260731E+03  0.00000000000E+00 0. -1.
          6    1    1    2  501    0 -0.71340233131E+02 -0.20314810605E+03  0.16289441448E+03  0.32065896545E+03  0.17300000000E+03 0. -1.
         -6    1    1    2    0  502  0.71340233131E+02  0.20314810605E+03  0.19949030321E+03  0.34071096685E+03  0.17300000000E+03 0.  1.
<mgrwt>
<rscale>  2 0.27620207E+03</rscale>
<asrwt>0</asrwt>
<pdfrwt beam="1">  1       21 0.78750357E-01 0.27620207E+03</pdfrwt>
<pdfrwt beam="2">  1       21 0.22998863E-01 0.27620207E+03</pdfrwt>
<totfact> 0.24253183E+04</totfact>
</mgrwt>
</event>
<event>
 4    1  0.4495571E+000  0.1874324E+03  0.7546771E-02  0.1160798E+00
         21   -1    0    0  503  502  0.00000000000E+00  0.00000000000E+00  0.77670062459E+03  0.77670062459E+03  0.00000000000E+00 0.  1.
         21   -1    0    0  501  503 -0.00000000000E+00 -0.00000000000E+00 -0.46684211340E+02  0.46684211340E+02  0.00000000000E+00 0.  1.
          6    1    1    2  501    0  0.19896727192E+02  0.69325551010E+02  0.43764536055E+03  0.47609282014E+03  0.17300000000E+03 0.  1.
         -6    1    1    2    0  502 -0.19896727192E+02 -0.69325551010E+02  0.29237105270E+03  0.34729201579E+03  0.17300000000E+03 0.  1.
<mgrwt>
<rscale>  2 0.18743242E+03</rscale>
<asrwt>0</asrwt>
<pdfrwt beam="1">  1       21 0.11949239E+00 0.18743242E+03</pdfrwt>
<pdfrwt beam="2">  1       21 0.71821869E-02 0.18743242E+03</pdfrwt>
<totfact> 0.77407250E+04</totfact>
</mgrwt>
</event>
<event>
 4    1  0.4495571E+000  0.2234886E+03  0.7546771E-02  0.1131309E+00
         21   -1    0    0  501  502  0.00000000000E+00  0.00000000000E+00  0.55441805314E+03  0.55441805314E+03  0.00000000000E+00 0.  1.
         21   -1    0    0  502  503 -0.00000000000E+00 -0.00000000000E+00 -0.39622554968E+03  0.39622554968E+03  0.00000000000E+00 0. -1.
          6    1    1    2  501    0  0.50402860999E+02 -0.13220325742E+03  0.49690146551E+03  0.54484696576E+03  0.17300000000E+03 0.  1.
         -6    1    1    2    0  503 -0.50402860999E+02  0.13220325742E+03 -0.33870896206E+03  0.40579663706E+03  0.17300000000E+03 0. -1.
<mgrwt>
<rscale>  2 0.22348859E+03</rscale>
<asrwt>0</asrwt>
<pdfrwt beam="1">  1       21 0.85295085E-01 0.22348859E+03</pdfrwt>
<pdfrwt beam="2">  1       21 0.60957777E-01 0.22348859E+03</pdfrwt>
<totfact> 0.29032344E+03</totfact>
</mgrwt>
</event>
<event>
 4    1  0.4495571E+000  0.2819958E+03  0.7546771E-02  0.1094604E+00
         21   -1    0    0  501  502  0.00000000000E+00  0.00000000000E+00  0.60878018374E+03  0.60878018374E+03  0.00000000000E+00 0.  1.
         21   -1    0    0  502  503 -0.00000000000E+00 -0.00000000000E+00 -0.15717617365E+03  0.15717617365E+03  0.00000000000E+00 0. -1.
          6    1    1    2  501    0  0.16457382374E+03 -0.15002696830E+03  0.38320980680E+03  0.47578502572E+03  0.17300000000E+03 0.  1.
         -6    1    1    2    0  503 -0.16457382374E+03  0.15002696830E+03  0.68394203301E+02  0.29017133167E+03  0.17300000000E+03 0. -1.
<mgrwt>
<rscale>  2 0.28199581E+03</rscale>
<asrwt>0</asrwt>
<pdfrwt beam="1">  1       21 0.93658488E-01 0.28199581E+03</pdfrwt>
<pdfrwt beam="2">  1       21 0.24180950E-01 0.28199581E+03</pdfrwt>
<totfact> 0.14708280E+04</totfact>
</mgrwt>
</event>
<event>
 4    1  0.4495571E+000  0.2066641E+03  0.7546771E-02  0.1144235E+00
         21   -1    0    0  501  502  0.00000000000E+00  0.00000000000E+00  0.16581864883E+04  0.16581864883E+04  0.00000000000E+00 0.  1.
         21   -1    0    0  502  503 -0.00000000000E+00 -0.00000000000E+00 -0.32196504689E+02  0.32196504689E+02  0.00000000000E+00 0.  1.
          6    1    1    2  501    0  0.90540696535E+02  0.67701200155E+02  0.11909792527E+04  0.12087769234E+04  0.17300000000E+03 0.  1.
         -6    1    1    2    0  503 -0.90540696535E+02 -0.67701200155E+02  0.43501073085E+03  0.48160606951E+03  0.17300000000E+03 0.  1.
<mgrwt>
<rscale>  2 0.20666415E+03</rscale>
<asrwt>0</asrwt>
<pdfrwt beam="1">  1       21 0.25510555E+00 0.20666415E+03</pdfrwt>
<pdfrwt beam="2">  1       21 0.49533097E-02 0.20666415E+03</pdfrwt>
<totfact> 0.16751662E+04</totfact>
</mgrwt>
</event>
<event>
 4    1  0.4495571E+000  0.1784506E+03  0.7546771E-02  0.1169311E+00
         21   -1    0    0  501  502  0.00000000000E+00  0.00000000000E+00  0.28736476673E+02  0.28736476673E+02  0.00000000000E+00 0.  1.
         21   -1    0    0  502  503 -0.00000000000E+00 -0.00000000000E+00 -0.13142553964E+04  0.13142553964E+04  0.00000000000E+00 0.  1.
          6    1    1    2  501    0  0.27176454875E+02 -0.34308422480E+02 -0.37684793979E+03  0.41696402396E+03  0.17300000000E+03 0.  1.
         -6    1    1    2    0  503 -0.27176454875E+02  0.34308422480E+02 -0.90867097989E+03  0.92602784906E+03  0.17300000000E+03 0.  1.
<mgrwt>
<rscale>  2 0.17845063E+03</rscale>
<asrwt>0</asrwt>
<pdfrwt beam="1">  1       21 0.44209969E-02 0.17845063E+03</pdfrwt>
<pdfrwt beam="2">  1       21 0.20219312E+00 0.17845063E+03</pdfrwt>
<totfact> 0.43474543E+04</totfact>
</mgrwt>
</event>
<event>
 4    1  0.4495571E+000  0.2050329E+03  0.7546771E-02  0.1145561E+00
         21   -1    0    0  503  502  0.00000000000E+00  0.00000000000E+00  0.10679149447E+03  0.10679149447E+03  0.00000000000E+00 0.  1.
         21   -1    0    0  501  503 -0.00000000000E+00 -0.00000000000E+00 -0.43182956529E+03  0.43182956529E+03  0.00000000000E+00 0.  1.
          6    1    1    2  501    0 -0.84366886852E+02  0.70652228047E+02 -0.24259656381E+03  0.31763438369E+03  0.17300000000E+03 0.  1.
         -6    1    1    2    0  502  0.84366886852E+02 -0.70652228047E+02 -0.82441507005E+02  0.22098667607E+03  0.17300000000E+03 0.  1.
<mgrwt>
<rscale>  2 0.20503295E+03</rscale>
<asrwt>0</asrwt>
<pdfrwt beam="1">  1       21 0.16429461E-01 0.20503295E+03</pdfrwt>
<pdfrwt beam="2">  1       21 0.66435318E-01 0.20503295E+03</pdfrwt>
<totfact> 0.68639534E+04</totfact>
</mgrwt>
</event>
<event>
 4    1  0.4495571E+000  0.2109176E+03  0.7546771E-02  0.1140841E+00
         21   -1    0    0  503  502  0.00000000000E+00  0.00000000000E+00  0.20083364001E+03  0.20083364001E+03  0.00000000000E+00 0. -1.
         21   -1    0    0  501  503 -0.00000000000E+00 -0.00000000000E+00 -0.35762039080E+03  0.35762039080E+03  0.00000000000E+00 0. -1.
          6    1    1    2  501    0  0.11887865752E+03 -0.20617829787E+02 -0.25065770157E+03  0.32759046609E+03  0.17300000000E+03 0. -1.
         -6    1    1    2    0  502 -0.11887865752E+03  0.20617829787E+02  0.93870950773E+02  0.23086356472E+03  0.17300000000E+03 0. -1.
<mgrwt>
<rscale>  2 0.21091759E+03</rscale>
<asrwt>0</asrwt>
<pdfrwt beam="1">  1       21 0.30897483E-01 0.21091759E+03</pdfrwt>
<pdfrwt beam="2">  1       21 0.55018521E-01 0.21091759E+03</pdfrwt>
<totfact> 0.31049165E+04</totfact>
</mgrwt>
</event>
<event>
 4    1  0.4495571E+000  0.2145050E+03  0.7546771E-02  0.1138047E+00
         21   -1    0    0  501  502  0.00000000000E+00  0.00000000000E+00  0.72152989224E+02  0.72152989224E+02  0.00000000000E+00 0. -1.
         21   -1    0    0  502  503 -0.00000000000E+00 -0.00000000000E+00 -0.65166023675E+03  0.65166023675E+03  0.00000000000E+00 0. -1.
          6    1    1    2  501    0 -0.14985830987E+02 -0.12593187445E+03 -0.23679519733E+03  0.31950645942E+03  0.17300000000E+03 0. -1.
         -6    1    1    2    0  503  0.14985830987E+02  0.12593187445E+03 -0.34271205020E+03  0.40430676656E+03  0.17300000000E+03 0. -1.
<mgrwt>
<rscale>  2 0.21450504E+03</rscale>
<asrwt>0</asrwt>
<pdfrwt beam="1">  1       21 0.11100460E-01 0.21450504E+03</pdfrwt>
<pdfrwt beam="2">  1       21 0.10025542E+00 0.21450504E+03</pdfrwt>
<totfact> 0.54435034E+04</totfact>
</mgrwt>
</event>
<event>
 4    1  0.4495571E+000  0.2177258E+03  0.7546771E-02  0.1135590E+00
         21   -1    0    0  503  502  0.00000000000E+00  0.00000000000E+00  0.94822684441E+02  0.94822684441E+02  0.00000000000E+00 0. -1.
         21   -1    0    0  501  503 -0.00000000000E+00 -0.00000000000E+00 -0.87871769354E+03  0.87871769354E+03  0.00000000000E+00 0. -1.
          6    1    1    2  501    0  0.87881005876E+02  0.98754598948E+02 -0.71154119817E+03  0.74410712851E+03  0.17300000000E+03 0. -1.
         -6    1    1    2    0  502 -0.87881005876E+02 -0.98754598948E+02 -0.72353810932E+02  0.22943324947E+03  0.17300000000E+03 0. -1.
<mgrwt>
<rscale>  2 0.21772584E+03</rscale>
<asrwt>0</asrwt>
<pdfrwt beam="1">  1       21 0.14588106E-01 0.21772584E+03</pdfrwt>
<pdfrwt beam="2">  1       21 0.13518733E+00 0.21772584E+03</pdfrwt>
<totfact> 0.15887246E+04</totfact>
</mgrwt>
</event>
<event>
 4    1  0.4495571E+000  0.2007081E+03  0.7546771E-02  0.1149143E+00
         21   -1    0    0  501  502  0.00000000000E+00  0.00000000000E+00  0.47882116732E+03  0.47882116732E+03  0.00000000000E+00 0. -1.
         21   -1    0    0  502  503 -0.00000000000E+00 -0.00000000000E+00 -0.12495247098E+03  0.12495247098E+03  0.00000000000E+00 0. -1.
          6    1    1    2  501    0 -0.77131520457E+02  0.66373783210E+02  0.34948457355E+03  0.40301763943E+03  0.17300000000E+03 0. -1.
         -6    1    1    2    0  503  0.77131520457E+02 -0.66373783210E+02  0.43841227868E+01  0.20075599886E+03  0.17300000000E+03 0. -1.
<mgrwt>
<rscale>  2 0.20070812E+03</rscale>
<asrwt>0</asrwt>
<pdfrwt beam="1">  1       21 0.73664794E-01 0.20070812E+03</pdfrwt>
<pdfrwt beam="2">  1       21 0.19223457E-01 0.20070812E+03</pdfrwt>
<totfact> 0.40954554E+04</totfact>
</mgrwt>
</event>
<event>
 4    1  0.4495571E+000  0.1848942E+03  0.7546771E-02  0.1163149E+00
         21   -1    0    0  503  502  0.00000000000E+00  0.00000000000E+00  0.93016058865E+03  0.93016058865E+03  0.00000000000E+00 0. -1.
         21   -1    0    0  501  503 -0.00000000000E+00 -0.00000000000E+00 -0.44454145740E+02  0.44454145740E+02  0.00000000000E+00 0.  1.
          6    1    1    2  501    0  0.55320719667E+02  0.34590273655E+02  0.24002223318E+03  0.30297944068E+03  0.17300000000E+03 0.  1.
         -6    1    1    2    0  502 -0.55320719667E+02 -0.34590273655E+02  0.64568420973E+03  0.67163529371E+03  0.17300000000E+03 0. -1.
<mgrwt>
<rscale>  2 0.18489421E+03</rscale>
<asrwt>0</asrwt>
<pdfrwt beam="1">  1       21 0.14310161E+00 0.18489421E+03</pdfrwt>
<pdfrwt beam="2">  1       21 0.68391000E-02 0.18489421E+03</pdfrwt>
<totfact> 0.53456210E+04</totfact>
</mgrwt>
</event>
<event>
 4    1  0.4495571E+000  0.1828516E+03  0.7546771E-02  0.1165071E+00
         21   -1    0    0  503  502  0.00000000000E+00  0.00000000000E+00  0.87075375061E+02  0.87075375061E+02  0.00000000000E+00 0. -1.
         21   -1    0    0  501  503 -0.00000000000E+00 -0.00000000000E+00 -0.64824919053E+03  0.64824919053E+03  0.00000000000E+00 0. -1.
          6    1    1    2  501    0  0.35526187088E+02  0.47366544724E+02 -0.51533717827E+03  0.54681542300E+03  0.17300000000E+03 0. -1.
         -6    1    1    2    0  502 -0.35526187088E+02 -0.47366544724E+02 -0.45836637197E+02  0.18850914258E+03  0.17300000000E+03 0. -1.
<mgrwt>
<rscale>  2 0.18285158E+03</rscale>
<asrwt>0</asrwt>
<pdfrwt beam="1">  1       21 0.13396212E-01 0.18285158E+03</pdfrwt>
<pdfrwt beam="2">  1       21 0.99730640E-01 0.18285158E+03</pdfrwt>
<totfact> 0.39990973E+04</totfact>
</mgrwt>
</event>
<event>
 4    1  0.4495571E+000  0.2196237E+03  0.7546771E-02  0.1134164E+00
         21   -1    0    0  503  502  0.00000000000E+00  0.00000000000E+00  0.20954555189E+03  0.20954555189E+03  0.00000000000E+00 0.  1.
         21   -1    0    0  501  503 -0.00000000000E+00 -0.00000000000E+00 -0.23654301091E+03  0.23654301091E+03  0.00000000000E+00 0. -1.
          6    1    1    2  501    0  0.11225475768E+03  0.75527605575E+02 -0.50062134268E+02  0.22525711335E+03  0.17300000000E+03 0.  1.
         -6    1    1    2    0  502 -0.11225475768E+03 -0.75527605575E+02  0.23064675244E+02  0.22083144946E+03  0.17300000000E+03 0. -1.
<mgrwt>
<rscale>  2 0.21962365E+03</rscale>
<asrwt>0</asrwt>
<pdfrwt beam="1">  1       21 0.32237777E-01 0.21962365E+03</pdfrwt>
<pdfrwt beam="2">  1       21 0.36391233E-01 0.21962365E+03</pdfrwt>
<totfact> 0.66613923E+04</totfact>
</mgrwt>
</event>
<event>
 4    1  0.4495571E+000  0.2623087E+03  0.7546771E-02  0.1105764E+00
         21   -1    0    0  501  502  0.00000000000E+00  0.00000000000E+00  0.62700699796E+03  0.62700699796E+03  0.00000000000E+00 0. -1.
         21   -1    0    0  502  503 -0.00000000000E+00 -0.00000000000E+00 -0.10980174943E+03  0.10980174943E+03  0.00000000000E+00 0. -1.
          6    1    1    2  501    0  0.65812488064E+02 -0.18586433017E+03  0.24965267524E+03  0.36212192845E+03  0.17300000000E+03 0. -1.
         -6    1    1    2    0  503 -0.65812488064E+02  0.18586433017E+03  0.26755257329E+03  0.37468681894E+03  0.17300000000E+03 0. -1.
<mgrwt>
<rscale>  2 0.26230866E+03</rscale>
<asrwt>0</asrwt>
<pdfrwt beam="1">  1       21 0.96462613E-01 0.26230866E+03</pdfrwt>
<pdfrwt beam="2">  1       21 0.16892577E-01 0.26230866E+03</pdfrwt>
<totfact> 0.27214306E+04</totfact>
</mgrwt>
</event>
<event>
 4    1  0.4495571E+000  0.2720621E+03  0.7546771E-02  0.1100105E+00
         21   -1    0    0  503  502  0.00000000000E+00  0.00000000000E+00  0.17333851420E+04  0.17333851420E+04  0.00000000000E+00 0. -1.
         21   -1    0    0  501  503 -0.00000000000E+00 -0.00000000000E+00 -0.16381091709E+03  0.16381091709E+03  0.00000000000E+00 0.  1.
          6    1    1    2  501    0  0.19833120941E+03  0.68945740378E+02 -0.30855916192E+02  0.27380626601E+03  0.17300000000E+03 0.  1.
         -6    1    1    2    0  502 -0.19833120941E+03 -0.68945740378E+02  0.16004301411E+04  0.16233897930E+04  0.17300000000E+03 0. -1.
<mgrwt>
<rscale>  2 0.27206210E+03</rscale>
<asrwt>0</asrwt>
<pdfrwt beam="1">  1       21 0.26667462E+00 0.27206210E+03</pdfrwt>
<pdfrwt beam="2">  1       21 0.25201681E-01 0.27206210E+03</pdfrwt>
<totfact> 0.72618688E+02</totfact>
</mgrwt>
</event>
<event>
 4    1  0.4495571E+000  0.1969204E+03  0.7546771E-02  0.1152364E+00
         21   -1    0    0  501  502  0.00000000000E+00  0.00000000000E+00  0.79767294697E+03  0.79767294697E+03  0.00000000000E+00 0.  1.
         21   -1    0    0  502  503 -0.00000000000E+00 -0.00000000000E+00 -0.73011840797E+02  0.73011840797E+02  0.00000000000E+00 0. -1.
          6    1    1    2  501    0  0.94023357875E+02 -0.28697056392E+01  0.61399100982E+03  0.64479654712E+03  0.17300000000E+03 0.  1.
         -6    1    1    2    0  503 -0.94023357875E+02  0.28697056392E+01  0.11067009635E+03  0.22588824065E+03  0.17300000000E+03 0. -1.
<mgrwt>
<rscale>  2 0.19692036E+03</rscale>
<asrwt>0</asrwt>
<pdfrwt beam="1">  1       21 0.12271891E+00 0.19692036E+03</pdfrwt>
<pdfrwt beam="2">  1       21 0.11232591E-01 0.19692036E+03</pdfrwt>
<totfact> 0.32898350E+04</totfact>
</mgrwt>
</event>
<event>
 4    1  0.4495571E+000  0.1828853E+03  0.7546771E-02  0.1165039E+00
         21   -1    0    0  503  502  0.00000000000E+00  0.00000000000E+00  0.16016136998E+03  0.16016136998E+03  0.00000000000E+00 0. -1.
         21   -1    0    0  501  503 -0.00000000000E+00 -0.00000000000E+00 -0.21725199078E+03  0.21725199078E+03  0.00000000000E+00 0. -1.
          6    1    1    2  501    0  0.49790351273E+02  0.32232944186E+02 -0.65692448569E+02  0.19432585924E+03  0.17300000000E+03 0. -1.
         -6    1    1    2    0  502 -0.49790351273E+02 -0.32232944186E+02  0.86018277706E+01  0.18308750152E+03  0.17300000000E+03 0. -1.
<mgrwt>
<rscale>  2 0.18288532E+03</rscale>
<asrwt>0</asrwt>
<pdfrwt beam="1">  1       21 0.24640211E-01 0.18288532E+03</pdfrwt>
<pdfrwt beam="2">  1       21 0.33423383E-01 0.18288532E+03</pdfrwt>
<totfact> 0.13468194E+05</totfact>
</mgrwt>
</event>
<event>
 4    1  0.4495571E+000  0.2797289E+03  0.7546771E-02  0.1095837E+00
         21   -1    0    0  501  502  0.00000000000E+00  0.00000000000E+00  0.90266161563E+03  0.90266161563E+03  0.00000000000E+00 0. -1.
         21   -1    0    0  502  503 -0.00000000000E+00 -0.00000000000E+00 -0.91603395782E+02  0.91603395782E+02  0.00000000000E+00 0. -1.
          6    1    1    2  501    0 -0.15175690793E+03  0.15902547115E+03  0.52070918662E+03  0.59108909363E+03  0.17300000000E+03 0. -1.
         -6    1    1    2    0  503  0.15175690793E+03 -0.15902547115E+03  0.29034903322E+03  0.40317591777E+03  0.17300000000E+03 0. -1.
<mgrwt>
<rscale>  2 0.27972890E+03</rscale>
<asrwt>0</asrwt>
<pdfrwt beam="1">  1       21 0.13887101E+00 0.27972890E+03</pdfrwt>
<pdfrwt beam="2">  1       21 0.14092831E-01 0.27972890E+03</pdfrwt>
<totfact> 0.15249998E+04</totfact>
</mgrwt>
</event>
<event>
 4    1  0.4495571E+000  0.1835064E+03  0.7546771E-02  0.1164452E+00
         21   -1    0    0  501  502  0.00000000000E+00  0.00000000000E+00  0.10525786138E+03  0.10525786138E+03  0.00000000000E+00 0. -1.
         21   -1    0    0  502  503 -0.00000000000E+00 -0.00000000000E+00 -0.44237329437E+03  0.44237329437E+03  0.00000000000E+00 0. -1.
          6    1    1    2  501    0  0.52483469081E+02  0.31481364683E+02 -0.24498653769E+02  0.18513447784E+03  0.17300000000E+03 0. -1.
         -6    1    1    2    0  503 -0.52483469081E+02 -0.31481364683E+02 -0.31261677921E+03  0.36249667791E+03  0.17300000000E+03 0. -1.
<mgrwt>
<rscale>  2 0.18350638E+03</rscale>
<asrwt>0</asrwt>
<pdfrwt beam="1">  1       21 0.16193517E-01 0.18350638E+03</pdfrwt>
<pdfrwt beam="2">  1       21 0.68057431E-01 0.18350638E+03</pdfrwt>
<totfact> 0.67504822E+04</totfact>
</mgrwt>
</event>
<event>
 4    1  0.4495571E+000  0.1808648E+03  0.7546771E-02  0.1166969E+00
         21   -1    0    0  501  502  0.00000000000E+00  0.00000000000E+00  0.79852802905E+02  0.79852802905E+02  0.00000000000E+00 0.  1.
         21   -1    0    0  502  503 -0.00000000000E+00 -0.00000000000E+00 -0.58080605423E+03  0.58080605423E+03  0.00000000000E+00 0.  1.
          6    1    1    2  501    0 -0.32241863680E+02  0.41755622180E+02 -0.71159417704E+02  0.19435980162E+03  0.17300000000E+03 0.  1.
         -6    1    1    2    0  503  0.32241863680E+02 -0.41755622180E+02 -0.42979383362E+03  0.46629905552E+03  0.17300000000E+03 0.  1.
<mgrwt>
<rscale>  2 0.18086478E+03</rscale>
<asrwt>0</asrwt>
<pdfrwt beam="1">  1       21 0.12285046E-01 0.18086478E+03</pdfrwt>
<pdfrwt beam="2">  1       21 0.89354780E-01 0.18086478E+03</pdfrwt>
<totfact> 0.60435024E+04</totfact>
</mgrwt>
</event>
<event>
 4    1  0.4495571E+000  0.2050900E+03  0.7546771E-02  0.1145514E+00
         21   -1    0    0  501  502  0.00000000000E+00  0.00000000000E+00  0.10027693674E+04  0.10027693674E+04  0.00000000000E+00 0. -1.
         21   -1    0    0  502  503 -0.00000000000E+00 -0.00000000000E+00 -0.48940533987E+02  0.48940533987E+02  0.00000000000E+00 0. -1.
          6    1    1    2  501    0  0.10411604659E+03 -0.35955149313E+02  0.67571535808E+03  0.70615378570E+03  0.17300000000E+03 0. -1.
         -6    1    1    2    0  503 -0.10411604659E+03  0.35955149313E+02  0.27811347531E+03  0.34555611566E+03  0.17300000000E+03 0. -1.
<mgrwt>
<rscale>  2 0.20509004E+03</rscale>
<asrwt>0</asrwt>
<pdfrwt beam="1">  1       21 0.15427219E+00 0.20509004E+03</pdfrwt>
<pdfrwt beam="2">  1       21 0.75293137E-02 0.20509004E+03</pdfrwt>
<totfact> 0.36725141E+04</totfact>
</mgrwt>
</event>
<event>
 4    1  0.4495571E+000  0.2175572E+03  0.7546771E-02  0.1135717E+00
         21   -1    0    0  501  502  0.00000000000E+00  0.00000000000E+00  0.75605119762E+03  0.75605119762E+03  0.00000000000E+00 0. -1.
         21   -1    0    0  502  503 -0.00000000000E+00 -0.00000000000E+00 -0.66539516203E+02  0.66539516203E+02  0.00000000000E+00 0. -1.
          6    1    1    2  501    0 -0.10836653608E+03  0.75225178062E+02  0.44479397874E+03  0.49514928767E+03  0.17300000000E+03 0. -1.
         -6    1    1    2    0  503  0.10836653608E+03 -0.75225178062E+02  0.24471770268E+03  0.32744142615E+03  0.17300000000E+03 0. -1.
<mgrwt>
<rscale>  2 0.21755720E+03</rscale>
<asrwt>0</asrwt>
<pdfrwt beam="1">  1       21 0.11631556E+00 0.21755720E+03</pdfrwt>
<pdfrwt beam="2">  1       21 0.10236849E-01 0.21755720E+03</pdfrwt>
<totfact> 0.43811891E+04</totfact>
</mgrwt>
</event>
<event>
 4    1  0.4495571E+000  0.2256265E+03  0.7546771E-02  0.1129756E+00
         21   -1    0    0  501  502  0.00000000000E+00  0.00000000000E+00  0.10003354982E+03  0.10003354982E+03  0.00000000000E+00 0. -1.
         21   -1    0    0  502  503 -0.00000000000E+00 -0.00000000000E+00 -0.60528860836E+03  0.60528860836E+03  0.00000000000E+00 0.  1.
          6    1    1    2  501    0 -0.11386397756E+02 -0.14439062396E+03 -0.11189840567E+03  0.25185026411E+03  0.17300000000E+03 0. -1.
         -6    1    1    2    0  503  0.11386397756E+02  0.14439062396E+03 -0.39335665288E+03  0.45347189406E+03  0.17300000000E+03 0.  1.
<mgrwt>
<rscale>  2 0.22562647E+03</rscale>
<asrwt>0</asrwt>
<pdfrwt beam="1">  1       21 0.15389777E-01 0.22562647E+03</pdfrwt>
<pdfrwt beam="2">  1       21 0.93121321E-01 0.22562647E+03</pdfrwt>
<totfact> 0.35711304E+04</totfact>
</mgrwt>
</event>
<event>
 4    1  0.4495571E+000  0.1978614E+03  0.7546771E-02  0.1151556E+00
         21   -1    0    0  501  502  0.00000000000E+00  0.00000000000E+00  0.43235715335E+02  0.43235715335E+02  0.00000000000E+00 0. -1.
         21   -1    0    0  502  503 -0.00000000000E+00 -0.00000000000E+00 -0.10860308766E+04  0.10860308766E+04  0.00000000000E+00 0.  1.
          6    1    1    2  501    0  0.92705783648E+02 -0.25015773340E+02 -0.29117755780E+03  0.35204193131E+03  0.17300000000E+03 0. -1.
         -6    1    1    2    0  503 -0.92705783648E+02  0.25015773340E+02 -0.75161760348E+03  0.77722466063E+03  0.17300000000E+03 0.  1.
<mgrwt>
<rscale>  2 0.19786144E+03</rscale>
<asrwt>0</asrwt>
<pdfrwt beam="1">  1       21 0.66516479E-02 0.19786144E+03</pdfrwt>
<pdfrwt beam="2">  1       21 0.16708169E+00 0.19786144E+03</pdfrwt>
<totfact> 0.36841100E+04</totfact>
</mgrwt>
</event>
<event>
 4    1  0.4495571E+000  0.1763133E+03  0.7546771E-02  0.1171419E+00
         21   -1    0    0  501  502  0.00000000000E+00  0.00000000000E+00  0.33245083456E+03  0.33245083456E+03  0.00000000000E+00 0. -1.
         21   -1    0    0  502  503 -0.00000000000E+00 -0.00000000000E+00 -0.15224398903E+03  0.15224398903E+03  0.00000000000E+00 0. -1.
          6    1    1    2  501    0  0.16512028366E+01 -0.33980206327E+02  0.24063418224E+03  0.29831391278E+03  0.17300000000E+03 0. -1.
         -6    1    1    2    0  503 -0.16512028366E+01  0.33980206327E+02 -0.60427336708E+02  0.18638091081E+03  0.17300000000E+03 0. -1.
<mgrwt>
<rscale>  2 0.17631330E+03</rscale>
<asrwt>0</asrwt>
<pdfrwt beam="1">  1       21 0.51146282E-01 0.17631330E+03</pdfrwt>
<pdfrwt beam="2">  1       21 0.23422152E-01 0.17631330E+03</pdfrwt>
<totfact> 0.62771144E+04</totfact>
</mgrwt>
</event>
<event>
 4    1  0.4495571E+000  0.2255942E+03  0.7546771E-02  0.1129780E+00
         21   -1    0    0  501  502  0.00000000000E+00  0.00000000000E+00  0.13850778971E+04  0.13850778971E+04  0.00000000000E+00 0.  1.
         21   -1    0    0  502  503 -0.00000000000E+00 -0.00000000000E+00 -0.78224632343E+02  0.78224632343E+02  0.00000000000E+00 0. -1.
          6    1    1    2  501    0  0.11616663722E+03 -0.86423748990E+02  0.11862179344E+04  0.12074790846E+04  0.17300000000E+03 0.  1.
         -6    1    1    2    0  503 -0.11616663722E+03  0.86423748990E+02  0.12063533043E+03  0.25582344486E+03  0.17300000000E+03 0. -1.
<mgrwt>
<rscale>  2 0.22559422E+03</rscale>
<asrwt>0</asrwt>
<pdfrwt beam="1">  1       21 0.21308889E+00 0.22559422E+03</pdfrwt>
<pdfrwt beam="2">  1       21 0.12034560E-01 0.22559422E+03</pdfrwt>
<totfact> 0.62957461E+03</totfact>
</mgrwt>
</event>
<event>
 4    1  0.4495571E+000  0.1770097E+03  0.7546771E-02  0.1170729E+00
         21   -1    0    0  501  502  0.00000000000E+00  0.00000000000E+00  0.15684141287E+03  0.15684141287E+03  0.00000000000E+00 0.  1.
         21   -1    0    0  502  503 -0.00000000000E+00 -0.00000000000E+00 -0.20306475703E+03  0.20306475703E+03  0.00000000000E+00 0.  1.
          6    1    1    2  501    0  0.31822193905E+02 -0.19767841030E+02 -0.19427783721E+00  0.17700976614E+03  0.17300000000E+03 0.  1.
         -6    1    1    2    0  503 -0.31822193905E+02  0.19767841030E+02 -0.46029066319E+02  0.18289640376E+03  0.17300000000E+03 0.  1.
<mgrwt>
<rscale>  2 0.17700966E+03</rscale>
<asrwt>0</asrwt>
<pdfrwt beam="1">  1       21 0.24129448E-01 0.17700966E+03</pdfrwt>
<pdfrwt beam="2">  1       21 0.31240732E-01 0.17700966E+03</pdfrwt>
<totfact> 0.16032522E+05</totfact>
</mgrwt>
</event>
<event>
 4    1  0.4495571E+000  0.1951275E+03  0.7546771E-02  0.1153916E+00
         21   -1    0    0  501  502  0.00000000000E+00  0.00000000000E+00  0.25130200494E+03  0.25130200494E+03  0.00000000000E+00 0. -1.
         21   -1    0    0  502  503 -0.00000000000E+00 -0.00000000000E+00 -0.15308732730E+03  0.15308732730E+03  0.00000000000E+00 0. -1.
          6    1    1    2  501    0 -0.53651755715E+02 -0.72575646437E+02  0.69632103987E+02  0.20717954835E+03  0.17300000000E+03 0. -1.
         -6    1    1    2    0  503  0.53651755715E+02  0.72575646437E+02  0.28582573659E+02  0.19720978390E+03  0.17300000000E+03 0. -1.
<mgrwt>
<rscale>  2 0.19512748E+03</rscale>
<asrwt>0</asrwt>
<pdfrwt beam="1">  1       21 0.38661847E-01 0.19512748E+03</pdfrwt>
<pdfrwt beam="2">  1       21 0.23551897E-01 0.19512748E+03</pdfrwt>
<totfact> 0.10936333E+05</totfact>
</mgrwt>
</event>
<event>
 4    1  0.4495571E+000  0.1750426E+03  0.7546771E-02  0.1172689E+00
         21   -1    0    0  503  502  0.00000000000E+00  0.00000000000E+00  0.23082830119E+03  0.23082830119E+03  0.00000000000E+00 0.  1.
         21   -1    0    0  501  503 -0.00000000000E+00 -0.00000000000E+00 -0.27721151803E+04  0.27721151803E+04  0.00000000000E+00 0.  1.
          6    1    1    2  501    0 -0.25164265094E+02 -0.88122158272E+01 -0.27357262798E+04  0.27413205163E+04  0.17300000000E+03 0.  1.
         -6    1    1    2    0  502  0.25164265094E+02  0.88122158272E+01  0.19443940065E+03  0.26162296518E+03  0.17300000000E+03 0.  1.
<mgrwt>
<rscale>  2 0.17504255E+03</rscale>
<asrwt>0</asrwt>
<pdfrwt beam="1">  1       21 0.35512045E-01 0.17504255E+03</pdfrwt>
<pdfrwt beam="2">  1       21 0.42647928E+00 0.17504255E+03</pdfrwt>
<totfact> 0.46991235E+01</totfact>
</mgrwt>
</event>
<event>
 4    1  0.4495571E+000  0.1731341E+03  0.7546771E-02  0.1174618E+00
         21   -1    0    0  501  502  0.00000000000E+00  0.00000000000E+00  0.55910934140E+03  0.55910934140E+03  0.00000000000E+00 0.  1.
         21   -1    0    0  502  503 -0.00000000000E+00 -0.00000000000E+00 -0.86923004553E+02  0.86923004553E+02  0.00000000000E+00 0.  1.
          6    1    1    2  501    0  0.25762078360E+01 -0.63082746528E+01  0.43605421015E+03  0.46916809927E+03  0.17300000000E+03 0.  1.
         -6    1    1    2    0  503 -0.25762078360E+01  0.63082746528E+01  0.36132126689E+02  0.17686424668E+03  0.17300000000E+03 0.  1.
<mgrwt>
<rscale>  2 0.17313414E+03</rscale>
<asrwt>0</asrwt>
<pdfrwt beam="1">  1       21 0.86016819E-01 0.17313414E+03</pdfrwt>
<pdfrwt beam="2">  1       21 0.13372770E-01 0.17313414E+03</pdfrwt>
<totfact> 0.56855279E+04</totfact>
</mgrwt>
</event>
<event>
 4    1  0.4495571E+000  0.2019405E+03  0.7546771E-02  0.1148112E+00
         21   -1    0    0  503  502  0.00000000000E+00  0.00000000000E+00  0.89854596619E+03  0.89854596619E+03  0.00000000000E+00 0. -1.
         21   -1    0    0  501  503 -0.00000000000E+00 -0.00000000000E+00 -0.50402679090E+02  0.50402679090E+02  0.00000000000E+00 0.  1.
          6    1    1    2  501    0  0.10414406722E+03 -0.22276771182E+01  0.27435699845E+03  0.34066363451E+03  0.17300000000E+03 0.  1.
         -6    1    1    2    0  502 -0.10414406722E+03  0.22276771182E+01  0.57378628865E+03  0.60828501077E+03  0.17300000000E+03 0. -1.
<mgrwt>
<rscale>  2 0.20194046E+03</rscale>
<asrwt>0</asrwt>
<pdfrwt beam="1">  1       21 0.13823783E+00 0.20194046E+03</pdfrwt>
<pdfrwt beam="2">  1       21 0.77542590E-02 0.20194046E+03</pdfrwt>
<totfact> 0.46597311E+04</totfact>
</mgrwt>
</event>
<event>
 4    1  0.4495571E+000  0.1842935E+03  0.7546771E-02  0.1163711E+00
         21   -1    0    0  501  502  0.00000000000E+00  0.00000000000E+00  0.17912964899E+03  0.17912964899E+03  0.00000000000E+00 0. -1.
         21   -1    0    0  502  503 -0.00000000000E+00 -0.00000000000E+00 -0.22368524942E+03  0.22368524942E+03  0.00000000000E+00 0. -1.
          6    1    1    2  501    0  0.20603386390E+02 -0.60088327813E+02  0.56336232000E+02  0.19271190338E+03  0.17300000000E+03 0. -1.
         -6    1    1    2    0  503 -0.20603386390E+02  0.60088327813E+02 -0.10089183243E+03  0.21010299503E+03  0.17300000000E+03 0. -1.
<mgrwt>
<rscale>  2 0.18429353E+03</rscale>
<asrwt>0</asrwt>
<pdfrwt beam="1">  1       21 0.27558408E-01 0.18429353E+03</pdfrwt>
<pdfrwt beam="2">  1       21 0.34413115E-01 0.18429353E+03</pdfrwt>
<totfact> 0.10255563E+05</totfact>
</mgrwt>
</event>
<event>
 4    1  0.4495571E+000  0.1781286E+03  0.7546771E-02  0.1169627E+00
         21   -1    0    0  501  502  0.00000000000E+00  0.00000000000E+00  0.11638061583E+04  0.11638061583E+04  0.00000000000E+00 0.  1.
         21   -1    0    0  502  503 -0.00000000000E+00 -0.00000000000E+00 -0.31973014538E+02  0.31973014538E+02  0.00000000000E+00 0.  1.
          6    1    1    2  501    0  0.41365254788E+02 -0.94716256488E+01  0.79537432423E+03  0.81507675200E+03  0.17300000000E+03 0.  1.
         -6    1    1    2    0  503 -0.41365254788E+02  0.94716256488E+01  0.33645881954E+03  0.38070242085E+03  0.17300000000E+03 0.  1.
<mgrwt>
<rscale>  2 0.17812859E+03</rscale>
<asrwt>0</asrwt>
<pdfrwt beam="1">  1       21 0.17904707E+00 0.17812859E+03</pdfrwt>
<pdfrwt beam="2">  1       21 0.49189262E-02 0.17812859E+03</pdfrwt>
<totfact> 0.51535990E+04</totfact>
</mgrwt>
</event>
<event>
 4    1  0.4495571E+000  0.2110873E+03  0.7546771E-02  0.1140708E+00
         21   -1    0    0  501  502  0.00000000000E+00  0.00000000000E+00  0.29970019442E+03  0.29970019442E+03  0.00000000000E+00 0.  1.
         21   -1    0    0  502  503 -0.00000000000E+00 -0.00000000000E+00 -0.16592473082E+03  0.16592473082E+03  0.00000000000E+00 0.  1.
          6    1    1    2  501    0 -0.11968324090E+03  0.17458002347E+02  0.14195396339E+03  0.25437922030E+03  0.17300000000E+03 0.  1.
         -6    1    1    2    0  503  0.11968324090E+03 -0.17458002347E+02 -0.81784997930E+01  0.21124570495E+03  0.17300000000E+03 0.  1.
<mgrwt>
<rscale>  2 0.21108733E+03</rscale>
<asrwt>0</asrwt>
<pdfrwt beam="1">  1       21 0.46107722E-01 0.21108733E+03</pdfrwt>
<pdfrwt beam="2">  1       21 0.25526882E-01 0.21108733E+03</pdfrwt>
<totfact> 0.65061876E+04</totfact>
</mgrwt>
</event>
<event>
 4    1  0.4495571E+000  0.1824282E+03  0.7546771E-02  0.1165473E+00
         21   -1    0    0  503  502  0.00000000000E+00  0.00000000000E+00  0.94585943471E+02  0.94585943471E+02  0.00000000000E+00 0.  1.
         21   -1    0    0  501  503 -0.00000000000E+00 -0.00000000000E+00 -0.36772476365E+03  0.36772476365E+03  0.00000000000E+00 0.  1.
          6    1    1    2  501    0 -0.81300244736E+01  0.57314592483E+02 -0.18459766289E+03  0.25953103274E+03  0.17300000000E+03 0.  1.
         -6    1    1    2    0  502  0.81300244736E+01 -0.57314592483E+02 -0.88541157291E+02  0.20277967439E+03  0.17300000000E+03 0.  1.
<mgrwt>
<rscale>  2 0.18242823E+03</rscale>
<asrwt>0</asrwt>
<pdfrwt beam="1">  1       21 0.14551684E-01 0.18242823E+03</pdfrwt>
<pdfrwt beam="2">  1       21 0.56573041E-01 0.18242823E+03</pdfrwt>
<totfact> 0.12223933E+05</totfact>
</mgrwt>
</event>
<event>
 4    1  0.4495571E+000  0.2228862E+03  0.7546771E-02  0.1131749E+00
         21   -1    0    0  501  502  0.00000000000E+00  0.00000000000E+00  0.92218812820E+02  0.92218812820E+02  0.00000000000E+00 0. -1.
         21   -1    0    0  502  503 -0.00000000000E+00 -0.00000000000E+00 -0.12666120422E+04  0.12666120422E+04  0.00000000000E+00 0.  1.
          6    1    1    2  501    0  0.12696178185E+03 -0.60249309911E+02 -0.72142271892E+02  0.23427074250E+03  0.17300000000E+03 0. -1.
         -6    1    1    2    0  503 -0.12696178185E+03  0.60249309911E+02 -0.11022509575E+04  0.11245601125E+04  0.17300000000E+03 0.  1.
<mgrwt>
<rscale>  2 0.22288623E+03</rscale>
<asrwt>0</asrwt>
<pdfrwt beam="1">  1       21 0.14187510E-01 0.22288623E+03</pdfrwt>
<pdfrwt beam="2">  1       21 0.19486339E+00 0.22288623E+03</pdfrwt>
<totfact> 0.61313939E+03</totfact>
</mgrwt>
</event>
<event>
 4    1  0.4495571E+000  0.1836725E+03  0.7546771E-02  0.1164295E+00
         21   -1    0    0  501  502  0.00000000000E+00  0.00000000000E+00  0.76611223411E+03  0.76611223411E+03  0.00000000000E+00 0. -1.
         21   -1    0    0  502  503 -0.00000000000E+00 -0.00000000000E+00 -0.53004398664E+02  0.53004398664E+02  0.00000000000E+00 0. -1.
          6    1    1    2  501    0 -0.60752554525E+02  0.10757822923E+02  0.52503306376E+03  0.55623315406E+03  0.17300000000E+03 0. -1.
         -6    1    1    2    0  503  0.60752554525E+02 -0.10757822923E+02  0.18807477168E+03  0.26288347871E+03  0.17300000000E+03 0. -1.
<mgrwt>
<rscale>  2 0.18367254E+03</rscale>
<asrwt>0</asrwt>
<pdfrwt beam="1">  1       21 0.11786341E+00 0.18367254E+03</pdfrwt>
<pdfrwt beam="2">  1       21 0.81545234E-02 0.18367254E+03</pdfrwt>
<totfact> 0.64356256E+04</totfact>
</mgrwt>
</event>
<event>
 4    1  0.4495571E+000  0.1970146E+03  0.7546771E-02  0.1152283E+00
         21   -1    0    0  503  502  0.00000000000E+00  0.00000000000E+00  0.76899840752E+03  0.76899840752E+03  0.00000000000E+00 0.  1.
         21   -1    0    0  501  503 -0.00000000000E+00 -0.00000000000E+00 -0.61665300438E+02  0.61665300438E+02  0.00000000000E+00 0. -1.
          6    1    1    2  501    0  0.86471549313E+02  0.37528926234E+02  0.17673433260E+03  0.26466917740E+03  0.17300000000E+03 0. -1.
         -6    1    1    2    0  502 -0.86471549313E+02 -0.37528926234E+02  0.53059877448E+03  0.56599453056E+03  0.17300000000E+03 0.  1.
<mgrwt>
<rscale>  2 0.19701459E+03</rscale>
<asrwt>0</asrwt>
<pdfrwt beam="1">  1       21 0.11830744E+00 0.19701459E+03</pdfrwt>
<pdfrwt beam="2">  1       21 0.94869699E-02 0.19701459E+03</pdfrwt>
<totfact> 0.48593852E+04</totfact>
</mgrwt>
</event>
<event>
 4    1  0.4495571E+000  0.2392603E+03  0.7546771E-02  0.1120287E+00
         21   -1    0    0  503  502  0.00000000000E+00  0.00000000000E+00  0.12359511434E+03  0.12359511434E+03  0.00000000000E+00 0.  1.
         21   -1    0    0  501  503 -0.00000000000E+00 -0.00000000000E+00 -0.46570412501E+03  0.46570412501E+03  0.00000000000E+00 0.  1.
          6    1    1    2  501    0 -0.39306019769E+02 -0.16053506397E+03 -0.19279251280E+03  0.30726930036E+03  0.17300000000E+03 0.  1.
         -6    1    1    2    0  502  0.39306019769E+02  0.16053506397E+03 -0.14931649786E+03  0.28202993899E+03  0.17300000000E+03 0.  1.
<mgrwt>
<rscale>  2 0.23926026E+03</rscale>
<asrwt>0</asrwt>
<pdfrwt beam="1">  1       21 0.19014633E-01 0.23926026E+03</pdfrwt>
<pdfrwt beam="2">  1       21 0.71646787E-01 0.23926026E+03</pdfrwt>
<totfact> 0.43659005E+04</totfact>
</mgrwt>
</event>
<event>
 4    1  0.4495571E+000  0.2159812E+03  0.7546771E-02  0.1136915E+00
         21   -1    0    0  501  502  0.00000000000E+00  0.00000000000E+00  0.30310339917E+03  0.30310339917E+03  0.00000000000E+00 0. -1.
         21   -1    0    0  502  503 -0.00000000000E+00 -0.00000000000E+00 -0.16187667359E+03  0.16187667359E+03  0.00000000000E+00 0. -1.
          6    1    1    2  501    0 -0.91558488087E+02  0.91301306764E+02  0.12221918114E+03  0.24816408603E+03  0.17300000000E+03 0. -1.
         -6    1    1    2    0  503  0.91558488087E+02 -0.91301306764E+02  0.19007544436E+02  0.21681598673E+03  0.17300000000E+03 0. -1.
<mgrwt>
<rscale>  2 0.21598122E+03</rscale>
<asrwt>0</asrwt>
<pdfrwt beam="1">  1       21 0.46631292E-01 0.21598122E+03</pdfrwt>
<pdfrwt beam="2">  1       21 0.24904104E-01 0.21598122E+03</pdfrwt>
<totfact> 0.66499633E+04</totfact>
</mgrwt>
</event>
<event>
 4    1  0.4495571E+000  0.1849663E+03  0.7546771E-02  0.1163081E+00
         21   -1    0    0  501  502  0.00000000000E+00  0.00000000000E+00  0.21726990320E+03  0.21726990320E+03  0.00000000000E+00 0. -1.
         21   -1    0    0  502  503 -0.00000000000E+00 -0.00000000000E+00 -0.17353187970E+03  0.17353187970E+03  0.00000000000E+00 0. -1.
          6    1    1    2  501    0  0.86883353324E+01 -0.64869576101E+02  0.81324744102E+02  0.20205509911E+03  0.17300000000E+03 0. -1.
         -6    1    1    2    0  503 -0.86883353324E+01  0.64869576101E+02 -0.37586720606E+02  0.18874668379E+03  0.17300000000E+03 0. -1.
<mgrwt>
<rscale>  2 0.18496635E+03</rscale>
<asrwt>0</asrwt>
<pdfrwt beam="1">  1       21 0.33426139E-01 0.18496635E+03</pdfrwt>
<pdfrwt beam="2">  1       21 0.26697212E-01 0.18496635E+03</pdfrwt>
<totfact> 0.11543761E+05</totfact>
</mgrwt>
</event>
<event>
 4    1  0.4495571E+000  0.1921782E+03  0.7546771E-02  0.1156511E+00
         21   -1    0    0  503  502  0.00000000000E+00  0.00000000000E+00  0.13999761937E+03  0.13999761937E+03  0.00000000000E+00 0.  1.
         21   -1    0    0  501  503 -0.00000000000E+00 -0.00000000000E+00 -0.29441953519E+03  0.29441953519E+03  0.00000000000E+00 0.  1.
          6    1    1    2  501    0 -0.76208969119E+02 -0.34578033155E+02 -0.14724972227E+03  0.24210520040E+03  0.17300000000E+03 0.  1.
         -6    1    1    2    0  502  0.76208969119E+02  0.34578033155E+02 -0.71721935532E+01  0.19231195416E+03  0.17300000000E+03 0.  1.
<mgrwt>
<rscale>  2 0.19217817E+03</rscale>
<asrwt>0</asrwt>
<pdfrwt beam="1">  1       21 0.21538095E-01 0.19217817E+03</pdfrwt>
<pdfrwt beam="2">  1       21 0.45295313E-01 0.19217817E+03</pdfrwt>
<totfact> 0.93951093E+04</totfact>
</mgrwt>
</event>
<event>
 4    1  0.4495571E+000  0.3778285E+03  0.7546771E-02  0.1051739E+00
         21   -1    0    0  503  502  0.00000000000E+00  0.00000000000E+00  0.11555361847E+04  0.11555361847E+04  0.00000000000E+00 0. -1.
         21   -1    0    0  501  503 -0.00000000000E+00 -0.00000000000E+00 -0.24693147212E+03  0.24693147212E+03  0.00000000000E+00 0.  1.
          6    1    1    2  501    0 -0.32690401310E+03 -0.77195291598E+02 -0.41396723462E+02  0.38008950990E+03  0.17300000000E+03 0.  1.
         -6    1    1    2    0  502  0.32690401310E+03  0.77195291598E+02  0.95000143607E+03  0.10223781470E+04  0.17300000000E+03 0. -1.
<mgrwt>
<rscale>  2 0.37782846E+03</rscale>
<asrwt>0</asrwt>
<pdfrwt beam="1">  1       21 0.17777479E+00 0.37782846E+03</pdfrwt>
<pdfrwt beam="2">  1       21 0.37989458E-01 0.37782846E+03</pdfrwt>
<totfact> 0.10959537E+03</totfact>
</mgrwt>
</event>
<event>
 4    1  0.4495571E+000  0.2218330E+03  0.7546771E-02  0.1132524E+00
         21   -1    0    0  503  502  0.00000000000E+00  0.00000000000E+00  0.19852470388E+03  0.19852470388E+03  0.00000000000E+00 0. -1.
         21   -1    0    0  501  503 -0.00000000000E+00 -0.00000000000E+00 -0.15958131538E+04  0.15958131538E+04  0.00000000000E+00 0. -1.
          6    1    1    2  501    0 -0.30002122625E+01  0.13882327134E+03 -0.15231955765E+04  0.15392643263E+04  0.17300000000E+03 0. -1.
         -6    1    1    2    0  502  0.30002122625E+01 -0.13882327134E+03  0.12590712651E+03  0.25507353145E+03  0.17300000000E+03 0. -1.
<mgrwt>
<rscale>  2 0.22183305E+03</rscale>
<asrwt>0</asrwt>
<pdfrwt beam="1">  1       21 0.30542263E-01 0.22183305E+03</pdfrwt>
<pdfrwt beam="2">  1       21 0.24550971E+00 0.22183305E+03</pdfrwt>
<totfact> 0.70225326E+02</totfact>
</mgrwt>
</event>
<event>
 4    1  0.4495571E+000  0.1807323E+03  0.7546771E-02  0.1167096E+00
         21   -1    0    0  501  502  0.00000000000E+00  0.00000000000E+00  0.28573081996E+03  0.28573081996E+03  0.00000000000E+00 0.  1.
         21   -1    0    0  502  503 -0.00000000000E+00 -0.00000000000E+00 -0.13540994102E+03  0.13540994102E+03  0.00000000000E+00 0.  1.
          6    1    1    2  501    0 -0.23107052971E+02  0.46917096581E+02 -0.79453385035E+01  0.18090682202E+03  0.17300000000E+03 0.  1.
         -6    1    1    2    0  503  0.23107052971E+02 -0.46917096581E+02  0.15826621744E+03  0.24023393897E+03  0.17300000000E+03 0.  1.
<mgrwt>
<rscale>  2 0.18073226E+03</rscale>
<asrwt>0</asrwt>
<pdfrwt beam="1">  1       21 0.43958587E-01 0.18073226E+03</pdfrwt>
<pdfrwt beam="2">  1       21 0.20832299E-01 0.18073226E+03</pdfrwt>
<totfact> 0.10679804E+05</totfact>
</mgrwt>
</event>
<event>
 4    1  0.4495571E+000  0.2493655E+03  0.7546771E-02  0.1113706E+00
         21   -1    0    0  501  502  0.00000000000E+00  0.00000000000E+00  0.34515133182E+03  0.34515133182E+03  0.00000000000E+00 0.  1.
         21   -1    0    0  502  503 -0.00000000000E+00 -0.00000000000E+00 -0.22763246552E+03  0.22763246552E+03  0.00000000000E+00 0. -1.
          6    1    1    2  501    0  0.12122844711E+03 -0.13250592842E+03  0.18954364824E+03  0.31322508208E+03  0.17300000000E+03 0.  1.
         -6    1    1    2    0  503 -0.12122844711E+03  0.13250592842E+03 -0.72024781945E+02  0.25955871526E+03  0.17300000000E+03 0. -1.
<mgrwt>
<rscale>  2 0.24936551E+03</rscale>
<asrwt>0</asrwt>
<pdfrwt beam="1">  1       21 0.53100205E-01 0.24936551E+03</pdfrwt>
<pdfrwt beam="2">  1       21 0.35020379E-01 0.24936551E+03</pdfrwt>
<totfact> 0.25639855E+04</totfact>
</mgrwt>
</event>
<event>
 4    1  0.4495571E+000  0.1909419E+03  0.7546771E-02  0.1157615E+00
         21   -1    0    0  501  502  0.00000000000E+00  0.00000000000E+00  0.23059161493E+03  0.23059161493E+03  0.00000000000E+00 0.  1.
         21   -1    0    0  502  503 -0.00000000000E+00 -0.00000000000E+00 -0.17205507409E+03  0.17205507409E+03  0.00000000000E+00 0.  1.
          6    1    1    2  501    0 -0.59366578795E+02 -0.54821835649E+02  0.86583743374E+02  0.20965583454E+03  0.17300000000E+03 0.  1.
         -6    1    1    2    0  503  0.59366578795E+02  0.54821835649E+02 -0.28047202526E+02  0.19299085448E+03  0.17300000000E+03 0.  1.
<mgrwt>
<rscale>  2 0.19094194E+03</rscale>
<asrwt>0</asrwt>
<pdfrwt beam="1">  1       21 0.35475633E-01 0.19094194E+03</pdfrwt>
<pdfrwt beam="2">  1       21 0.26470012E-01 0.19094194E+03</pdfrwt>
<totfact> 0.10408592E+05</totfact>
</mgrwt>
</event>
<event>
 4    1  0.4495571E+000  0.2158699E+03  0.7546771E-02  0.1137000E+00
         21   -1    0    0  501  502  0.00000000000E+00  0.00000000000E+00  0.11529653303E+03  0.11529653303E+03  0.00000000000E+00 0. -1.
         21   -1    0    0  502  503 -0.00000000000E+00 -0.00000000000E+00 -0.40450228148E+03  0.40450228148E+03  0.00000000000E+00 0. -1.
          6    1    1    2  501    0 -0.31733427539E+02  0.12515516260E+03 -0.13719534750E+03  0.25577800633E+03  0.17300000000E+03 0. -1.
         -6    1    1    2    0  503  0.31733427539E+02 -0.12515516260E+03 -0.15201040095E+03  0.26402080817E+03  0.17300000000E+03 0. -1.
<mgrwt>
<rscale>  2 0.21586993E+03</rscale>
<asrwt>0</asrwt>
<pdfrwt beam="1">  1       21 0.17737928E-01 0.21586993E+03</pdfrwt>
<pdfrwt beam="2">  1       21 0.62231120E-01 0.21586993E+03</pdfrwt>
<totfact> 0.68384523E+04</totfact>
</mgrwt>
</event>
<event>
 4    1  0.4495571E+000  0.1950619E+03  0.7546771E-02  0.1153973E+00
         21   -1    0    0  501  502  0.00000000000E+00  0.00000000000E+00  0.30548183369E+03  0.30548183369E+03  0.00000000000E+00 0.  1.
         21   -1    0    0  502  503 -0.00000000000E+00 -0.00000000000E+00 -0.12509374591E+03  0.12509374591E+03  0.00000000000E+00 0.  1.
          6    1    1    2  501    0  0.73004188679E+02 -0.52825314391E+02  0.10432951823E+03  0.22120979585E+03  0.17300000000E+03 0.  1.
         -6    1    1    2    0  503 -0.73004188679E+02  0.52825314391E+02  0.76058569556E+02  0.20936578376E+03  0.17300000000E+03 0.  1.
<mgrwt>
<rscale>  2 0.19506185E+03</rscale>
<asrwt>0</asrwt>
<pdfrwt beam="1">  1       21 0.46997205E-01 0.19506185E+03</pdfrwt>
<pdfrwt beam="2">  1       21 0.19245192E-01 0.19506185E+03</pdfrwt>
<totfact> 0.10736389E+05</totfact>
</mgrwt>
</event>
<event>
 4    1  0.4495571E+000  0.2011352E+03  0.7546771E-02  0.1148785E+00
         21   -1    0    0  503  502  0.00000000000E+00  0.00000000000E+00  0.73297578367E+03  0.73297578367E+03  0.00000000000E+00 0.  1.
         21   -1    0    0  501  503 -0.00000000000E+00 -0.00000000000E+00 -0.96023747914E+02  0.96023747914E+02  0.00000000000E+00 0. -1.
          6    1    1    2  501    0 -0.33950970235E+02 -0.96817802315E+02  0.48187862706E+02  0.20682704208E+03  0.17300000000E+03 0. -1.
         -6    1    1    2    0  502  0.33950970235E+02  0.96817802315E+02  0.58876417305E+03  0.62217248950E+03  0.17300000000E+03 0.  1.
<mgrwt>
<rscale>  2 0.20113517E+03</rscale>
<asrwt>0</asrwt>
<pdfrwt beam="1">  1       21 0.11276550E+00 0.20113517E+03</pdfrwt>
<pdfrwt beam="2">  1       21 0.14772885E-01 0.20113517E+03</pdfrwt>
<totfact> 0.24674539E+04</totfact>
</mgrwt>
</event>
<event>
 4    1  0.4495571E+000  0.1764331E+03  0.7546771E-02  0.1171300E+00
         21   -1    0    0  501  502  0.00000000000E+00  0.00000000000E+00  0.68646611882E+02  0.68646611882E+02  0.00000000000E+00 0. -1.
         21   -1    0    0  502  503 -0.00000000000E+00 -0.00000000000E+00 -0.47200987233E+03  0.47200987233E+03  0.00000000000E+00 0. -1.
          6    1    1    2  501    0 -0.33365285434E+02  0.92950631878E+01 -0.25526883797E+03  0.31030762174E+03  0.17300000000E+03 0.  1.
         -6    1    1    2    0  503  0.33365285434E+02 -0.92950631878E+01 -0.14809442248E+03  0.23034886247E+03  0.17300000000E+03 0.  1.
<mgrwt>
<rscale>  2 0.17643310E+03</rscale>
<asrwt>0</asrwt>
<pdfrwt beam="1">  1       21 0.10561017E-01 0.17643310E+03</pdfrwt>
<pdfrwt beam="2">  1       21 0.72616903E-01 0.17643310E+03</pdfrwt>
<totfact> 0.12660363E+05</totfact>
</mgrwt>
</event>
<event>
 4    1  0.4495571E+000  0.1758172E+03  0.7546771E-02  0.1171914E+00
         21   -1    0    0  501  502  0.00000000000E+00  0.00000000000E+00  0.52031788821E+03  0.52031788821E+03  0.00000000000E+00 0.  1.
         21   -1    0    0  502  503 -0.00000000000E+00 -0.00000000000E+00 -0.16756800588E+03  0.16756800588E+03  0.00000000000E+00 0.  1.
          6    1    1    2  501    0 -0.12131587592E+02 -0.28905431983E+02  0.45270089885E+03  0.48564369988E+03  0.17300000000E+03 0.  1.
         -6    1    1    2    0  503  0.12131587592E+02  0.28905431983E+02 -0.99951016517E+02  0.20224219421E+03  0.17300000000E+03 0.  1.
<mgrwt>
<rscale>  2 0.17581723E+03</rscale>
<asrwt>0</asrwt>
<pdfrwt beam="1">  1       21 0.80048905E-01 0.17581723E+03</pdfrwt>
<pdfrwt beam="2">  1       21 0.25779693E-01 0.17581723E+03</pdfrwt>
<totfact> 0.19820193E+04</totfact>
</mgrwt>
</event>
<event>
 4    1  0.4495571E+000  0.1743625E+03  0.7546771E-02  0.1173373E+00
         21   -1    0    0  501  502  0.00000000000E+00  0.00000000000E+00  0.11413948909E+03  0.11413948909E+03  0.00000000000E+00 0.  1.
         21   -1    0    0  502  503 -0.00000000000E+00 -0.00000000000E+00 -0.27034982171E+03  0.27034982171E+03  0.00000000000E+00 0.  1.
          6    1    1    2  501    0 -0.15432985058E+02  0.15333540278E+02 -0.54753374708E+02  0.18275728857E+03  0.17300000000E+03 0.  1.
         -6    1    1    2    0  503  0.15432985058E+02 -0.15333540278E+02 -0.10145695791E+03  0.20173202223E+03  0.17300000000E+03 0.  1.
<mgrwt>
<rscale>  2 0.17436254E+03</rscale>
<asrwt>0</asrwt>
<pdfrwt beam="1">  1       21 0.17559922E-01 0.17436254E+03</pdfrwt>
<pdfrwt beam="2">  1       21 0.41592280E-01 0.17436254E+03</pdfrwt>
<totfact> 0.16450591E+05</totfact>
</mgrwt>
</event>
<event>
 4    1  0.4495571E+000  0.2622313E+03  0.7546771E-02  0.1105810E+00
         21   -1    0    0  501  502  0.00000000000E+00  0.00000000000E+00  0.15412361379E+03  0.15412361379E+03  0.00000000000E+00 0. -1.
         21   -1    0    0  502  503 -0.00000000000E+00 -0.00000000000E+00 -0.71916191584E+03  0.71916191584E+03  0.00000000000E+00 0.  1.
          6    1    1    2  501    0 -0.10268155154E+03 -0.16820451344E+03 -0.55154140058E+03  0.61070711141E+03  0.17300000000E+03 0.  1.
         -6    1    1    2    0  503  0.10268155154E+03  0.16820451344E+03 -0.13496901469E+02  0.26257841822E+03  0.17300000000E+03 0. -1.
<mgrwt>
<rscale>  2 0.26223131E+03</rscale>
<asrwt>0</asrwt>
<pdfrwt beam="1">  1       21 0.23711326E-01 0.26223131E+03</pdfrwt>
<pdfrwt beam="2">  1       21 0.11064029E+00 0.26223131E+03</pdfrwt>
<totfact> 0.10329234E+04</totfact>
</mgrwt>
</event>
<event>
 4    1  0.4495571E+000  0.1967549E+03  0.7546771E-02  0.1152506E+00
         21   -1    0    0  503  502  0.00000000000E+00  0.00000000000E+00  0.17096834923E+03  0.17096834923E+03  0.00000000000E+00 0. -1.
         21   -1    0    0  501  503 -0.00000000000E+00 -0.00000000000E+00 -0.26499352418E+03  0.26499352418E+03  0.00000000000E+00 0. -1.
          6    1    1    2  501    0 -0.92494133244E+01  0.93262716805E+02 -0.13016698119E+03  0.23591508851E+03  0.17300000000E+03 0. -1.
         -6    1    1    2    0  502  0.92494133244E+01 -0.93262716805E+02  0.36141806230E+02  0.20004678490E+03  0.17300000000E+03 0. -1.
<mgrwt>
<rscale>  2 0.19675489E+03</rscale>
<asrwt>0</asrwt>
<pdfrwt beam="1">  1       21 0.26302823E-01 0.19675489E+03</pdfrwt>
<pdfrwt beam="2">  1       21 0.40768234E-01 0.19675489E+03</pdfrwt>
<totfact> 0.79518188E+04</totfact>
</mgrwt>
</event>
<event>
 4    1  0.4495571E+000  0.1821147E+03  0.7546771E-02  0.1165772E+00
         21   -1    0    0  501  502  0.00000000000E+00  0.00000000000E+00  0.87167117002E+03  0.87167117002E+03  0.00000000000E+00 0.  1.
         21   -1    0    0  502  503 -0.00000000000E+00 -0.00000000000E+00 -0.15611311331E+03  0.15611311331E+03  0.00000000000E+00 0.  1.
          6    1    1    2  501    0  0.35677746129E+02 -0.44315283571E+02  0.80468095986E+03  0.82503163157E+03  0.17300000000E+03 0.  1.
         -6    1    1    2    0  503 -0.35677746129E+02  0.44315283571E+02 -0.89122903150E+02  0.20275265175E+03  0.17300000000E+03 0.  1.
<mgrwt>
<rscale>  2 0.18211465E+03</rscale>
<asrwt>0</asrwt>
<pdfrwt beam="1">  1       21 0.13410325E+00 0.18211465E+03</pdfrwt>
<pdfrwt beam="2">  1       21 0.24017403E-01 0.18211465E+03</pdfrwt>
<totfact> 0.65874833E+03</totfact>
</mgrwt>
</event>
<event>
 4    1  0.4495571E+000  0.3492234E+03  0.7546771E-02  0.1062934E+00
         21   -1    0    0  501  502  0.00000000000E+00  0.00000000000E+00  0.13733055377E+03  0.13733055377E+03  0.00000000000E+00 0. -1.
         21   -1    0    0  502  503 -0.00000000000E+00 -0.00000000000E+00 -0.88835471471E+03  0.88835471471E+03  0.00000000000E+00 0.  1.
          6    1    1    2  501    0  0.26621214492E+02 -0.30219077358E+03 -0.36607709032E+03  0.50593417433E+03  0.17300000000E+03 0. -1.
         -6    1    1    2    0  503 -0.26621214492E+02  0.30219077358E+03 -0.38494707061E+03  0.51975109415E+03  0.17300000000E+03 0.  1.
<mgrwt>
<rscale>  2 0.34922336E+03</rscale>
<asrwt>0</asrwt>
<pdfrwt beam="1">  1       21 0.21127778E-01 0.34922336E+03</pdfrwt>
<pdfrwt beam="2">  1       21 0.13666995E+00 0.34922336E+03</pdfrwt>
<totfact> 0.72411403E+03</totfact>
</mgrwt>
</event>
<event>
 4    1  0.4495571E+000  0.1830194E+03  0.7546771E-02  0.1164912E+00
         21   -1    0    0  503  502  0.00000000000E+00  0.00000000000E+00  0.35226848326E+02  0.35226848326E+02  0.00000000000E+00 0.  1.
         21   -1    0    0  501  503 -0.00000000000E+00 -0.00000000000E+00 -0.13630981305E+04  0.13630981305E+04  0.00000000000E+00 0.  1.
          6    1    1    2  501    0  0.51194405983E+02 -0.30760702394E+02 -0.10484250197E+04  0.10642796202E+04  0.17300000000E+03 0.  1.
         -6    1    1    2    0  502 -0.51194405983E+02  0.30760702394E+02 -0.27944626246E+03  0.33404535863E+03  0.17300000000E+03 0.  1.
<mgrwt>
<rscale>  2 0.18301937E+03</rscale>
<asrwt>0</asrwt>
<pdfrwt beam="1">  1       21 0.54195149E-02 0.18301937E+03</pdfrwt>
<pdfrwt beam="2">  1       21 0.20970741E+00 0.18301937E+03</pdfrwt>
<totfact> 0.27534295E+04</totfact>
</mgrwt>
</event>
<event>
 4    1  0.4495571E+000  0.1980158E+03  0.7546771E-02  0.1151424E+00
         21   -1    0    0  503  502  0.00000000000E+00  0.00000000000E+00  0.76822574883E+02  0.76822574883E+02  0.00000000000E+00 0. -1.
         21   -1    0    0  501  503 -0.00000000000E+00 -0.00000000000E+00 -0.79330102974E+03  0.79330102974E+03  0.00000000000E+00 0. -1.
          6    1    1    2  501    0 -0.92310877693E+02  0.27567127633E+02 -0.61804523270E+03  0.64899164426E+03  0.17300000000E+03 0. -1.
         -6    1    1    2    0  502  0.92310877693E+02 -0.27567127633E+02 -0.98433222158E+02  0.22113196036E+03  0.17300000000E+03 0. -1.
<mgrwt>
<rscale>  2 0.19801577E+03</rscale>
<asrwt>0</asrwt>
<pdfrwt beam="1">  1       21 0.11818858E-01 0.19801577E+03</pdfrwt>
<pdfrwt beam="2">  1       21 0.12204631E+00 0.19801577E+03</pdfrwt>
<totfact> 0.30437181E+04</totfact>
</mgrwt>
</event>
<event>
 4    1  0.4495571E+000  0.3178632E+03  0.7546771E-02  0.1076637E+00
         21   -1    0    0  501  502  0.00000000000E+00  0.00000000000E+00  0.25285518040E+03  0.25285518040E+03  0.00000000000E+00 0. -1.
         21   -1    0    0  502  503 -0.00000000000E+00 -0.00000000000E+00 -0.93264186600E+03  0.93264186600E+03  0.00000000000E+00 0. -1.
          6    1    1    2  501    0 -0.95375097308E+02 -0.24902129040E+03  0.10823250989E+03  0.33578458639E+03  0.17300000000E+03 0. -1.
         -6    1    1    2    0  503  0.95375097308E+02  0.24902129040E+03 -0.78801919548E+03  0.84971246001E+03  0.17300000000E+03 0. -1.
<mgrwt>
<rscale>  2 0.31786320E+03</rscale>
<asrwt>0</asrwt>
<pdfrwt beam="1">  1       21 0.38900797E-01 0.31786320E+03</pdfrwt>
<pdfrwt beam="2">  1       21 0.14348337E+00 0.31786320E+03</pdfrwt>
<totfact> 0.19495427E+03</totfact>
</mgrwt>
</event>
<event>
 4    1  0.4495571E+000  0.1988541E+03  0.7546771E-02  0.1150709E+00
         21   -1    0    0  501  502  0.00000000000E+00  0.00000000000E+00  0.10943775836E+03  0.10943775836E+03  0.00000000000E+00 0. -1.
         21   -1    0    0  502  503 -0.00000000000E+00 -0.00000000000E+00 -0.54180195309E+03  0.54180195309E+03  0.00000000000E+00 0. -1.
          6    1    1    2  501    0  0.97809857096E+02  0.68701387327E+01 -0.28251533993E+02  0.20085097989E+03  0.17300000000E+03 0. -1.
         -6    1    1    2    0  503 -0.97809857096E+02 -0.68701387327E+01 -0.40411266073E+03  0.45038873156E+03  0.17300000000E+03 0. -1.
<mgrwt>
<rscale>  2 0.19885413E+03</rscale>
<asrwt>0</asrwt>
<pdfrwt beam="1">  1       21 0.16836578E-01 0.19885413E+03</pdfrwt>
<pdfrwt beam="2">  1       21 0.83354147E-01 0.19885413E+03</pdfrwt>
<totfact> 0.39658852E+04</totfact>
</mgrwt>
</event>
<event>
 4    1  0.4495571E+000  0.2332732E+03  0.7546771E-02  0.1124357E+00
         21   -1    0    0  501  502  0.00000000000E+00  0.00000000000E+00  0.61416832436E+03  0.61416832436E+03  0.00000000000E+00 0.  1.
         21   -1    0    0  502  503 -0.00000000000E+00 -0.00000000000E+00 -0.10754809009E+03  0.10754809009E+03  0.00000000000E+00 0.  1.
          6    1    1    2  501    0 -0.47686116174E+02  0.14904168679E+03  0.40477008763E+03  0.46717792533E+03  0.17300000000E+03 0.  1.
         -6    1    1    2    0  503  0.47686116174E+02 -0.14904168679E+03  0.10185014664E+03  0.25453848913E+03  0.17300000000E+03 0.  1.
<mgrwt>
<rscale>  2 0.23327321E+03</rscale>
<asrwt>0</asrwt>
<pdfrwt beam="1">  1       21 0.94487432E-01 0.23327321E+03</pdfrwt>
<pdfrwt beam="2">  1       21 0.16545860E-01 0.23327321E+03</pdfrwt>
<totfact> 0.30096794E+04</totfact>
</mgrwt>
</event>
<event>
 4    1  0.4495571E+000  0.2277933E+03  0.7546771E-02  0.1128203E+00
         21   -1    0    0  501  502  0.00000000000E+00  0.00000000000E+00  0.15237391748E+03  0.15237391748E+03  0.00000000000E+00 0.  1.
         21   -1    0    0  502  503 -0.00000000000E+00 -0.00000000000E+00 -0.52005001091E+03  0.52005001091E+03  0.00000000000E+00 0.  1.
          6    1    1    2  501    0  0.14811903992E+03 -0.46423789685E+01  0.13691408910E+02  0.22820441790E+03  0.17300000000E+03 0.  1.
         -6    1    1    2    0  503 -0.14811903992E+03  0.46423789685E+01 -0.38136750234E+03  0.44421951050E+03  0.17300000000E+03 0.  1.
<mgrwt>
<rscale>  2 0.22779333E+03</rscale>
<asrwt>0</asrwt>
<pdfrwt beam="1">  1       21 0.23442141E-01 0.22779333E+03</pdfrwt>
<pdfrwt beam="2">  1       21 0.80007693E-01 0.22779333E+03</pdfrwt>
<totfact> 0.23077775E+04</totfact>
</mgrwt>
</event>
<event>
 4    1  0.4495571E+000  0.3468169E+03  0.7546771E-02  0.1063929E+00
         21   -1    0    0  503  502  0.00000000000E+00  0.00000000000E+00  0.18275483223E+03  0.18275483223E+03  0.00000000000E+00 0.  1.
         21   -1    0    0  501  503 -0.00000000000E+00 -0.00000000000E+00 -0.79824859581E+03  0.79824859581E+03  0.00000000000E+00 0. -1.
          6    1    1    2  501    0  0.12108534613E+03 -0.27512048741E+03 -0.51322834114E+03  0.61942333972E+03  0.17300000000E+03 0. -1.
         -6    1    1    2    0  502 -0.12108534613E+03  0.27512048741E+03 -0.10226542244E+03  0.36158008831E+03  0.17300000000E+03 0.  1.
<mgrwt>
<rscale>  2 0.34681687E+03</rscale>
<asrwt>0</asrwt>
<pdfrwt beam="1">  1       21 0.28116128E-01 0.34681687E+03</pdfrwt>
<pdfrwt beam="2">  1       21 0.12280748E+00 0.34681687E+03</pdfrwt>
<totfact> 0.54968792E+03</totfact>
</mgrwt>
</event>
<event>
 4    1  0.4495571E+000  0.1752882E+03  0.7546771E-02  0.1172443E+00
         21   -1    0    0  503  502  0.00000000000E+00  0.00000000000E+00  0.29830167105E+03  0.29830167105E+03  0.00000000000E+00 0. -1.
         21   -1    0    0  501  503 -0.00000000000E+00 -0.00000000000E+00 -0.15430852919E+03  0.15430852919E+03  0.00000000000E+00 0. -1.
          6    1    1    2  501    0  0.19167081270E+02  0.20725863014E+02 -0.58494822138E+02  0.18479064538E+03  0.17300000000E+03 0. -1.
         -6    1    1    2    0  502 -0.19167081270E+02 -0.20725863014E+02  0.20248796400E+03  0.26781955486E+03  0.17300000000E+03 0. -1.
<mgrwt>
<rscale>  2 0.17528816E+03</rscale>
<asrwt>0</asrwt>
<pdfrwt beam="1">  1       21 0.45892564E-01 0.17528816E+03</pdfrwt>
<pdfrwt beam="2">  1       21 0.23739774E-01 0.17528816E+03</pdfrwt>
<totfact> 0.76621558E+04</totfact>
</mgrwt>
</event>
<event>
 4    1  0.4495571E+000  0.2063841E+03  0.7546771E-02  0.1144462E+00
         21   -1    0    0  501  502  0.00000000000E+00  0.00000000000E+00  0.16531767796E+03  0.16531767796E+03  0.00000000000E+00 0. -1.
         21   -1    0    0  502  503 -0.00000000000E+00 -0.00000000000E+00 -0.29216102965E+03  0.29216102965E+03  0.00000000000E+00 0. -1.
          6    1    1    2  501    0  0.46962243532E+02  0.10227391913E+03  0.15191803003E+02  0.20694249861E+03  0.17300000000E+03 0. -1.
         -6    1    1    2    0  503 -0.46962243532E+02 -0.10227391913E+03 -0.14203515470E+03  0.25053620900E+03  0.17300000000E+03 0. -1.
<mgrwt>
<rscale>  2 0.20638412E+03</rscale>
<asrwt>0</asrwt>
<pdfrwt beam="1">  1       21 0.25433489E-01 0.20638412E+03</pdfrwt>
<pdfrwt beam="2">  1       21 0.44947851E-01 0.20638412E+03</pdfrwt>
<totfact> 0.69195380E+04</totfact>
</mgrwt>
</event>
<event>
 4    1  0.4495571E+000  0.2094054E+03  0.7546771E-02  0.1142038E+00
         21   -1    0    0  503  502  0.00000000000E+00  0.00000000000E+00  0.16888660471E+03  0.16888660471E+03  0.00000000000E+00 0.  1.
         21   -1    0    0  501  503 -0.00000000000E+00 -0.00000000000E+00 -0.56949299825E+03  0.56949299825E+03  0.00000000000E+00 0.  1.
          6    1    1    2  501    0  0.10346956224E+03 -0.56706747955E+02 -0.47262327906E+03  0.51693652365E+03  0.17300000000E+03 0.  1.
         -6    1    1    2    0  502 -0.10346956224E+03  0.56706747955E+02  0.72016885527E+02  0.22144307931E+03  0.17300000000E+03 0.  1.
<mgrwt>
<rscale>  2 0.20940536E+03</rscale>
<asrwt>0</asrwt>
<pdfrwt beam="1">  1       21 0.25982554E-01 0.20940536E+03</pdfrwt>
<pdfrwt beam="2">  1       21 0.87614308E-01 0.20940536E+03</pdfrwt>
<totfact> 0.15560356E+04</totfact>
</mgrwt>
</event>
<event>
 4    1  0.4495571E+000  0.1809962E+03  0.7546771E-02  0.1166842E+00
         21   -1    0    0  503  502  0.00000000000E+00  0.00000000000E+00  0.86804555375E+02  0.86804555375E+02  0.00000000000E+00 0.  1.
         21   -1    0    0  501  503 -0.00000000000E+00 -0.00000000000E+00 -0.37808570343E+03  0.37808570343E+03  0.00000000000E+00 0.  1.
          6    1    1    2  501    0 -0.50150130475E+02  0.17764860937E+02 -0.15557393379E+03  0.23866896477E+03  0.17300000000E+03 0.  1.
         -6    1    1    2    0  502  0.50150130475E+02 -0.17764860937E+02 -0.13570721427E+03  0.22622129404E+03  0.17300000000E+03 0.  1.
<mgrwt>
<rscale>  2 0.18099620E+03</rscale>
<asrwt>0</asrwt>
<pdfrwt beam="1">  1       21 0.13354547E-01 0.18099620E+03</pdfrwt>
<pdfrwt beam="2">  1       21 0.58167032E-01 0.18099620E+03</pdfrwt>
<totfact> 0.13463543E+05</totfact>
</mgrwt>
</event>
<event>
 4    1  0.4495571E+000  0.2504028E+03  0.7546771E-02  0.1113051E+00
         21   -1    0    0  501  502  0.00000000000E+00  0.00000000000E+00  0.18555122742E+03  0.18555122742E+03  0.00000000000E+00 0.  1.
         21   -1    0    0  502  503 -0.00000000000E+00 -0.00000000000E+00 -0.43893392542E+03  0.43893392542E+03  0.00000000000E+00 0. -1.
          6    1    1    2  501    0 -0.16186325740E+03 -0.81073151846E+02  0.23098375254E+02  0.25146591217E+03  0.17300000000E+03 0.  1.
         -6    1    1    2    0  503  0.16186325740E+03  0.81073151846E+02 -0.27648107324E+03  0.37301924067E+03  0.17300000000E+03 0. -1.
<mgrwt>
<rscale>  2 0.25040282E+03</rscale>
<asrwt>0</asrwt>
<pdfrwt beam="1">  1       21 0.28546343E-01 0.25040282E+03</pdfrwt>
<pdfrwt beam="2">  1       21 0.67528296E-01 0.25040282E+03</pdfrwt>
<totfact> 0.22820004E+04</totfact>
</mgrwt>
</event>
<event>
 4    1  0.4495571E+000  0.2926167E+03  0.7546771E-02  0.1088991E+00
         21   -1    0    0  503  502  0.00000000000E+00  0.00000000000E+00  0.33538898639E+03  0.33538898639E+03  0.00000000000E+00 0. -1.
         21   -1    0    0  501  503 -0.00000000000E+00 -0.00000000000E+00 -0.25557214635E+03  0.25557214635E+03  0.00000000000E+00 0.  1.
          6    1    1    2  501    0  0.22181796391E+03  0.80574790315E+02  0.30250327411E+02  0.29417611775E+03  0.17300000000E+03 0.  1.
         -6    1    1    2    0  502 -0.22181796391E+03 -0.80574790315E+02  0.49566512628E+02  0.29678501499E+03  0.17300000000E+03 0.  1.
<mgrwt>
<rscale>  2 0.29261665E+03</rscale>
<asrwt>0</asrwt>
<pdfrwt beam="1">  1       21 0.51598306E-01 0.29261665E+03</pdfrwt>
<pdfrwt beam="2">  1       21 0.39318792E-01 0.29261665E+03</pdfrwt>
<totfact> 0.21177274E+04</totfact>
</mgrwt>
</event>
<event>
 4    1  0.4495571E+000  0.1839824E+03  0.7546771E-02  0.1164004E+00
         21   -1    0    0  501  502  0.00000000000E+00  0.00000000000E+00  0.64404521743E+03  0.64404521743E+03  0.00000000000E+00 0. -1.
         21   -1    0    0  502  503 -0.00000000000E+00 -0.00000000000E+00 -0.52985680268E+02  0.52985680268E+02  0.00000000000E+00 0. -1.
          6    1    1    2  501    0 -0.57820170408E+02 -0.24028452488E+02  0.32685195296E+03  0.37507564275E+03  0.17300000000E+03 0.  1.
         -6    1    1    2    0  503  0.57820170408E+02  0.24028452488E+02  0.26420758420E+03  0.32195525494E+03  0.17300000000E+03 0.  1.
<mgrwt>
<rscale>  2 0.18398244E+03</rscale>
<asrwt>0</asrwt>
<pdfrwt beam="1">  1       21 0.99083874E-01 0.18398244E+03</pdfrwt>
<pdfrwt beam="2">  1       21 0.81516436E-02 0.18398244E+03</pdfrwt>
<totfact> 0.97794742E+04</totfact>
</mgrwt>
</event>
<event>
 4    1  0.4495571E+000  0.2058450E+03  0.7546771E-02  0.1144899E+00
         21   -1    0    0  501  502  0.00000000000E+00  0.00000000000E+00  0.10152327127E+03  0.10152327127E+03  0.00000000000E+00 0.  1.
         21   -1    0    0  502  503 -0.00000000000E+00 -0.00000000000E+00 -0.41819792135E+03  0.41819792135E+03  0.00000000000E+00 0.  1.
          6    1    1    2  501    0 -0.42553142905E+02  0.10311352547E+03 -0.16994071987E+03  0.26693073517E+03  0.17300000000E+03 0.  1.
         -6    1    1    2    0  503  0.42553142905E+02 -0.10311352547E+03 -0.14673393021E+03  0.25279045746E+03  0.17300000000E+03 0.  1.
<mgrwt>
<rscale>  2 0.20584501E+03</rscale>
<asrwt>0</asrwt>
<pdfrwt beam="1">  1       21 0.15618965E-01 0.20584501E+03</pdfrwt>
<pdfrwt beam="2">  1       21 0.64338141E-01 0.20584501E+03</pdfrwt>
<totfact> 0.80742338E+04</totfact>
</mgrwt>
</event>
<event>
 4    1  0.4495571E+000  0.1966654E+03  0.7546771E-02  0.1152583E+00
         21   -1    0    0  503  502  0.00000000000E+00  0.00000000000E+00  0.17545862397E+04  0.17545862397E+04  0.00000000000E+00 0. -1.
         21   -1    0    0  501  503 -0.00000000000E+00 -0.00000000000E+00 -0.10243780389E+03  0.10243780389E+03  0.00000000000E+00 0. -1.
          6    1    1    2  501    0  0.58370663836E+02  0.73083239259E+02  0.35097803952E+01  0.19669675344E+03  0.17300000000E+03 0. -1.
         -6    1    1    2    0  502 -0.58370663836E+02 -0.73083239259E+02  0.16486386554E+04  0.16603272901E+04  0.17300000000E+03 0. -1.
<mgrwt>
<rscale>  2 0.19666544E+03</rscale>
<asrwt>0</asrwt>
<pdfrwt beam="1">  1       21 0.26993632E+00 0.19666544E+03</pdfrwt>
<pdfrwt beam="2">  1       21 0.15759663E-01 0.19666544E+03</pdfrwt>
<totfact> 0.18150405E+03</totfact>
</mgrwt>
</event>
<event>
 4    1  0.4495571E+000  0.1810564E+03  0.7546771E-02  0.1166785E+00
         21   -1    0    0  501  502  0.00000000000E+00  0.00000000000E+00  0.95664849590E+03  0.95664849590E+03  0.00000000000E+00 0.  1.
         21   -1    0    0  502  503 -0.00000000000E+00 -0.00000000000E+00 -0.57019278732E+02  0.57019278732E+02  0.00000000000E+00 0. -1.
          6    1    1    2  501    0  0.41905112564E+02 -0.33111915445E+02  0.76997499814E+03  0.79097593842E+03  0.17300000000E+03 0.  1.
         -6    1    1    2    0  503 -0.41905112564E+02  0.33111915445E+02  0.12965421903E+03  0.22269183621E+03  0.17300000000E+03 0. -1.
<mgrwt>
<rscale>  2 0.18105645E+03</rscale>
<asrwt>0</asrwt>
<pdfrwt beam="1">  1       21 0.14717668E+00 0.18105645E+03</pdfrwt>
<pdfrwt beam="2">  1       21 0.87721974E-02 0.18105645E+03</pdfrwt>
<totfact> 0.32329609E+04</totfact>
</mgrwt>
</event>
<event>
 4    1  0.4495571E+000  0.3151915E+03  0.7546771E-02  0.1077884E+00
         21   -1    0    0  503  502  0.00000000000E+00  0.00000000000E+00  0.94365918729E+03  0.94365918729E+03  0.00000000000E+00 0.  1.
         21   -1    0    0  501  503 -0.00000000000E+00 -0.00000000000E+00 -0.65102634080E+03  0.65102634080E+03  0.00000000000E+00 0. -1.
          6    1    1    2  501    0 -0.24055549816E+03  0.10746965475E+03 -0.58371635293E+03  0.66337806344E+03  0.17300000000E+03 0. -1.
         -6    1    1    2    0  502  0.24055549816E+03 -0.10746965475E+03  0.87634919941E+03  0.93130746464E+03  0.17300000000E+03 0.  1.
<mgrwt>
<rscale>  2 0.31519149E+03</rscale>
<asrwt>0</asrwt>
<pdfrwt beam="1">  1       21 0.14517834E+00 0.31519149E+03</pdfrwt>
<pdfrwt beam="2">  1       21 0.10015790E+00 0.31519149E+03</pdfrwt>
<totfact> 0.23670932E+02</totfact>
</mgrwt>
</event>
<event>
 4    1  0.4495571E+000  0.1896332E+03  0.7546771E-02  0.1158793E+00
         21   -1    0    0  501  502  0.00000000000E+00  0.00000000000E+00  0.67934401974E+02  0.67934401974E+02  0.00000000000E+00 0.  1.
         21   -1    0    0  502  503 -0.00000000000E+00 -0.00000000000E+00 -0.80353544959E+03  0.80353544959E+03  0.00000000000E+00 0.  1.
          6    1    1    2  501    0 -0.75074175002E+02  0.19890093825E+02 -0.11326647959E+03  0.22088468254E+03  0.17300000000E+03 0.  1.
         -6    1    1    2    0  503  0.75074175002E+02 -0.19890093825E+02 -0.62233456803E+03  0.65058516902E+03  0.17300000000E+03 0.  1.
<mgrwt>
<rscale>  2 0.18963319E+03</rscale>
<asrwt>0</asrwt>
<pdfrwt beam="1">  1       21 0.10451447E-01 0.18963319E+03</pdfrwt>
<pdfrwt beam="2">  1       21 0.12362083E+00 0.18963319E+03</pdfrwt>
<totfact> 0.36868758E+04</totfact>
</mgrwt>
</event>
<event>
 4    1  0.4495571E+000  0.3513026E+03  0.7546771E-02  0.1062082E+00
         21   -1    0    0  501  502  0.00000000000E+00  0.00000000000E+00  0.31936358225E+03  0.31936358225E+03  0.00000000000E+00 0.  1.
         21   -1    0    0  502  503 -0.00000000000E+00 -0.00000000000E+00 -0.10549683605E+04  0.10549683605E+04  0.00000000000E+00 0. -1.
          6    1    1    2  501    0  0.43380711516E+02 -0.30265927909E+03  0.17921761140E+03  0.39437606112E+03  0.17300000000E+03 0.  1.
         -6    1    1    2    0  503 -0.43380711516E+02  0.30265927909E+03 -0.91482238968E+03  0.97995588166E+03  0.17300000000E+03 0. -1.
<mgrwt>
<rscale>  2 0.35130261E+03</rscale>
<asrwt>0</asrwt>
<pdfrwt beam="1">  1       21 0.49132860E-01 0.35130261E+03</pdfrwt>
<pdfrwt beam="2">  1       21 0.16230282E+00 0.35130261E+03</pdfrwt>
<totfact> 0.84405622E+02</totfact>
</mgrwt>
</event>
<event>
 4    1  0.4495571E+000  0.2283730E+03  0.7546771E-02  0.1127790E+00
         21   -1    0    0  503  502  0.00000000000E+00  0.00000000000E+00  0.15414008835E+03  0.15414008835E+03  0.00000000000E+00 0.  1.
         21   -1    0    0  501  503 -0.00000000000E+00 -0.00000000000E+00 -0.34798677039E+03  0.34798677039E+03  0.00000000000E+00 0.  1.
          6    1    1    2  501    0  0.77307713018E+02  0.12747063140E+03 -0.13868998562E+03  0.26718749311E+03  0.17300000000E+03 0.  1.
         -6    1    1    2    0  502 -0.77307713018E+02 -0.12747063140E+03 -0.55156696427E+02  0.23493936563E+03  0.17300000000E+03 0.  1.
<mgrwt>
<rscale>  2 0.22837304E+03</rscale>
<asrwt>0</asrwt>
<pdfrwt beam="1">  1       21 0.23713860E-01 0.22837304E+03</pdfrwt>
<pdfrwt beam="2">  1       21 0.53536425E-01 0.22837304E+03</pdfrwt>
<totfact> 0.54408393E+04</totfact>
</mgrwt>
</event>
<event>
 4    1  0.4495571E+000  0.2699946E+03  0.7546771E-02  0.1101283E+00
         21   -1    0    0  503  502  0.00000000000E+00  0.00000000000E+00  0.72013785026E+03  0.72013785026E+03  0.00000000000E+00 0.  1.
         21   -1    0    0  501  503 -0.00000000000E+00 -0.00000000000E+00 -0.36667842648E+03  0.36667842648E+03  0.00000000000E+00 0.  1.
          6    1    1    2  501    0  0.64585357614E+02 -0.19696904555E+03 -0.28562613609E+03  0.39303862780E+03  0.17300000000E+03 0.  1.
         -6    1    1    2    0  502 -0.64585357614E+02  0.19696904555E+03  0.63908555988E+03  0.69377764894E+03  0.17300000000E+03 0.  1.
<mgrwt>
<rscale>  2 0.26999458E+03</rscale>
<asrwt>0</asrwt>
<pdfrwt beam="1">  1       21 0.11079044E+00 0.26999458E+03</pdfrwt>
<pdfrwt beam="2">  1       21 0.56412066E-01 0.26999458E+03</pdfrwt>
<totfact> 0.17836051E+03</totfact>
</mgrwt>
</event>
<event>
 4    1  0.4495571E+000  0.2863328E+03  0.7546771E-02  0.1092280E+00
         21   -1    0    0  501  502  0.00000000000E+00  0.00000000000E+00  0.20600781253E+03  0.20600781253E+03  0.00000000000E+00 0.  1.
         21   -1    0    0  502  503 -0.00000000000E+00 -0.00000000000E+00 -0.13530562042E+04  0.13530562042E+04  0.00000000000E+00 0. -1.
          6    1    1    2  501    0 -0.22744449610E+03  0.18068728612E+02  0.81406899659E+02  0.29768030011E+03  0.17300000000E+03 0.  1.
         -6    1    1    2    0  503  0.22744449610E+03 -0.18068728612E+02 -0.12284552913E+04  0.12613837166E+04  0.17300000000E+03 0. -1.
<mgrwt>
<rscale>  2 0.28633281E+03</rscale>
<asrwt>0</asrwt>
<pdfrwt beam="1">  1       21 0.31693510E-01 0.28633281E+03</pdfrwt>
<pdfrwt beam="2">  1       21 0.20816249E+00 0.28633281E+03</pdfrwt>
<totfact> 0.10449210E+03</totfact>
</mgrwt>
</event>
<event>
 4    1  0.4495571E+000  0.1881110E+03  0.7546771E-02  0.1160176E+00
         21   -1    0    0  501  502  0.00000000000E+00  0.00000000000E+00  0.62935751242E+02  0.62935751242E+02  0.00000000000E+00 0.  1.
         21   -1    0    0  502  503 -0.00000000000E+00 -0.00000000000E+00 -0.10333317817E+04  0.10333317817E+04  0.00000000000E+00 0.  1.
          6    1    1    2  501    0  0.82723482110E+00  0.73865078020E+02 -0.11510232562E+03  0.22053181047E+03  0.17300000000E+03 0.  1.
         -6    1    1    2    0  503 -0.82723482110E+00 -0.73865078020E+02 -0.85529370487E+03  0.87573572249E+03  0.17300000000E+03 0.  1.
<mgrwt>
<rscale>  2 0.18811096E+03</rscale>
<asrwt>0</asrwt>
<pdfrwt beam="1">  1       21 0.96824230E-02 0.18811096E+03</pdfrwt>
<pdfrwt beam="2">  1       21 0.15897412E+00 0.18811096E+03</pdfrwt>
<totfact> 0.22066102E+04</totfact>
</mgrwt>
</event>
<event>
 4    1  0.4495571E+000  0.2012702E+03  0.7546771E-02  0.1148672E+00
         21   -1    0    0  503  502  0.00000000000E+00  0.00000000000E+00  0.95452140240E+02  0.95452140240E+02  0.00000000000E+00 0. -1.
         21   -1    0    0  501  503 -0.00000000000E+00 -0.00000000000E+00 -0.90283786294E+03  0.90283786294E+03  0.00000000000E+00 0.  1.
          6    1    1    2  501    0 -0.10095435881E+03 -0.19721001825E+02 -0.76705151569E+03  0.79301811341E+03  0.17300000000E+03 0.  1.
         -6    1    1    2    0  502  0.10095435881E+03  0.19721001825E+02 -0.40334207011E+02  0.20527188977E+03  0.17300000000E+03 0. -1.
<mgrwt>
<rscale>  2 0.20127022E+03</rscale>
<asrwt>0</asrwt>
<pdfrwt beam="1">  1       21 0.14684944E-01 0.20127022E+03</pdfrwt>
<pdfrwt beam="2">  1       21 0.13889814E+00 0.20127022E+03</pdfrwt>
<totfact> 0.14801419E+04</totfact>
</mgrwt>
</event>
<event>
 4    1  0.4495571E+000  0.1979950E+03  0.7546771E-02  0.1151442E+00
         21   -1    0    0  501  502  0.00000000000E+00  0.00000000000E+00  0.16575670450E+04  0.16575670450E+04  0.00000000000E+00 0.  1.
         21   -1    0    0  502  503 -0.00000000000E+00 -0.00000000000E+00 -0.28386443269E+02  0.28386443269E+02  0.00000000000E+00 0.  1.
          6    1    1    2  501    0 -0.15087760051E+02  0.95107273034E+02  0.11589167761E+04  0.11757083515E+04  0.17300000000E+03 0.  1.
         -6    1    1    2    0  503  0.15087760051E+02 -0.95107273034E+02  0.47026382562E+03  0.51024513675E+03  0.17300000000E+03 0.  1.
<mgrwt>
<rscale>  2 0.19799504E+03</rscale>
<asrwt>0</asrwt>
<pdfrwt beam="1">  1       21 0.25501024E+00 0.19799504E+03</pdfrwt>
<pdfrwt beam="2">  1       21 0.43671464E-02 0.19799504E+03</pdfrwt>
<totfact> 0.20911617E+04</totfact>
</mgrwt>
</event>
<event>
 4    1  0.4495571E+000  0.2532151E+03  0.7546771E-02  0.1111290E+00
         21   -1    0    0  501  502  0.00000000000E+00  0.00000000000E+00  0.32495760469E+03  0.32495760469E+03  0.00000000000E+00 0. -1.
         21   -1    0    0  502  503 -0.00000000000E+00 -0.00000000000E+00 -0.49444948770E+03  0.49444948770E+03  0.00000000000E+00 0.  1.
          6    1    1    2  501    0 -0.10888928767E+02 -0.18458150035E+03  0.23285939169E+03  0.34400784197E+03  0.17300000000E+03 0. -1.
         -6    1    1    2    0  503  0.10888928767E+02  0.18458150035E+03 -0.40235127470E+03  0.47539925042E+03  0.17300000000E+03 0.  1.
<mgrwt>
<rscale>  2 0.25321512E+03</rscale>
<asrwt>0</asrwt>
<pdfrwt beam="1">  1       21 0.49993478E-01 0.25321512E+03</pdfrwt>
<pdfrwt beam="2">  1       21 0.76069151E-01 0.25321512E+03</pdfrwt>
<totfact> 0.56325633E+03</totfact>
</mgrwt>
</event>
<event>
 4    1  0.4495571E+000  0.1807042E+03  0.7546771E-02  0.1167123E+00
         21   -1    0    0  501  502  0.00000000000E+00  0.00000000000E+00  0.33295683759E+03  0.33295683759E+03  0.00000000000E+00 0.  1.
         21   -1    0    0  502  503 -0.00000000000E+00 -0.00000000000E+00 -0.33236328142E+03  0.33236328142E+03  0.00000000000E+00 0.  1.
          6    1    1    2  501    0  0.11453936761E+02 -0.50929459175E+02  0.27959713026E+03  0.33290923347E+03  0.17300000000E+03 0.  1.
         -6    1    1    2    0  503 -0.11453936761E+02  0.50929459175E+02 -0.27900357408E+03  0.33241088554E+03  0.17300000000E+03 0.  1.
<mgrwt>
<rscale>  2 0.18070419E+03</rscale>
<asrwt>0</asrwt>
<pdfrwt beam="1">  1       21 0.51224129E-01 0.18070419E+03</pdfrwt>
<pdfrwt beam="2">  1       21 0.51132813E-01 0.18070419E+03</pdfrwt>
<totfact> 0.13276017E+04</totfact>
</mgrwt>
</event>
<event>
 4    1  0.4495571E+000  0.1757993E+03  0.7546771E-02  0.1171932E+00
         21   -1    0    0  501  502  0.00000000000E+00  0.00000000000E+00  0.12414588295E+02  0.12414588295E+02  0.00000000000E+00 0. -1.
         21   -1    0    0  502  503 -0.00000000000E+00 -0.00000000000E+00 -0.26025306992E+04  0.26025306992E+04  0.00000000000E+00 0. -1.
          6    1    1    2  501    0 -0.11100952629E+02  0.29208755020E+02 -0.10225077934E+04  0.10375102747E+04  0.17300000000E+03 0. -1.
         -6    1    1    2    0  503  0.11100952629E+02 -0.29208755020E+02 -0.15676083176E+04  0.15774350129E+04  0.17300000000E+03 0. -1.
<mgrwt>
<rscale>  2 0.17579927E+03</rscale>
<asrwt>0</asrwt>
<pdfrwt beam="1">  1       21 0.19099356E-02 0.17579927E+03</pdfrwt>
<pdfrwt beam="2">  1       21 0.40038956E+00 0.17579927E+03</pdfrwt>
<totfact> 0.11755609E+04</totfact>
</mgrwt>
</event>
<event>
 4    1  0.4495571E+000  0.1997384E+03  0.7546771E-02  0.1149960E+00
         21   -1    0    0  503  502  0.00000000000E+00  0.00000000000E+00  0.19208878655E+03  0.19208878655E+03  0.00000000000E+00 0.  1.
         21   -1    0    0  501  503 -0.00000000000E+00 -0.00000000000E+00 -0.34188402100E+03  0.34188402100E+03  0.00000000000E+00 0.  1.
          6    1    1    2  501    0  0.65932952283E+02  0.74961803544E+02 -0.24216530891E+03  0.31390996006E+03  0.17300000000E+03 0.  1.
         -6    1    1    2    0  502 -0.65932952283E+02 -0.74961803544E+02  0.92370074460E+02  0.22006284748E+03  0.17300000000E+03 0.  1.
<mgrwt>
<rscale>  2 0.19973839E+03</rscale>
<asrwt>0</asrwt>
<pdfrwt beam="1">  1       21 0.29552121E-01 0.19973839E+03</pdfrwt>
<pdfrwt beam="2">  1       21 0.52597542E-01 0.19973839E+03</pdfrwt>
<totfact> 0.37466594E+04</totfact>
</mgrwt>
</event>
<event>
 4    1  0.4495571E+000  0.2586610E+03  0.7546771E-02  0.1107950E+00
         21   -1    0    0  501  502  0.00000000000E+00  0.00000000000E+00  0.53723471885E+03  0.53723471885E+03  0.00000000000E+00 0.  1.
         21   -1    0    0  502  503 -0.00000000000E+00 -0.00000000000E+00 -0.13599251515E+03  0.13599251515E+03  0.00000000000E+00 0.  1.
          6    1    1    2  501    0 -0.13580483916E+03  0.13613799919E+03  0.29831888311E+03  0.39484131646E+03  0.17300000000E+03 0.  1.
         -6    1    1    2    0  503  0.13580483916E+03 -0.13613799919E+03  0.10292332059E+03  0.27838591754E+03  0.17300000000E+03 0.  1.
<mgrwt>
<rscale>  2 0.25866099E+03</rscale>
<asrwt>0</asrwt>
<pdfrwt beam="1">  1       21 0.82651494E-01 0.25866099E+03</pdfrwt>
<pdfrwt beam="2">  1       21 0.20921926E-01 0.25866099E+03</pdfrwt>
<totfact> 0.26193389E+04</totfact>
</mgrwt>
</event>
<event>
 4    1  0.4495571E+000  0.1794435E+03  0.7546771E-02  0.1168343E+00
         21   -1    0    0  503  502  0.00000000000E+00  0.00000000000E+00  0.98491039160E+02  0.98491039160E+02  0.00000000000E+00 0.  1.
         21   -1    0    0  501  503 -0.00000000000E+00 -0.00000000000E+00 -0.83541676359E+03  0.83541676359E+03  0.00000000000E+00 0.  1.
          6    1    1    2  501    0  0.37948407098E+02 -0.28825237594E+02 -0.73276434481E+03  0.75441603969E+03  0.17300000000E+03 0.  1.
         -6    1    1    2    0  502 -0.37948407098E+02  0.28825237594E+02 -0.41613796187E+01  0.17949176305E+03  0.17300000000E+03 0.  1.
<mgrwt>
<rscale>  2 0.17944352E+03</rscale>
<asrwt>0</asrwt>
<pdfrwt beam="1">  1       21 0.15152468E-01 0.17944352E+03</pdfrwt>
<pdfrwt beam="2">  1       21 0.12852565E+00 0.17944352E+03</pdfrwt>
<totfact> 0.17284298E+04</totfact>
</mgrwt>
</event>
<event>
 4    1  0.4495571E+000  0.1955173E+03  0.7546771E-02  0.1153577E+00
         21   -1    0    0  503  502  0.00000000000E+00  0.00000000000E+00  0.61315149656E+03  0.61315149656E+03  0.00000000000E+00 0. -1.
         21   -1    0    0  501  503 -0.00000000000E+00 -0.00000000000E+00 -0.71963676949E+02  0.71963676949E+02  0.00000000000E+00 0.  1.
          6    1    1    2  501    0 -0.37550816426E+02  0.82993715581E+02  0.14535731463E+03  0.24363039539E+03  0.17300000000E+03 0.  1.
         -6    1    1    2    0  502  0.37550816426E+02 -0.82993715581E+02  0.39583050498E+03  0.44148477812E+03  0.17300000000E+03 0. -1.
<mgrwt>
<rscale>  2 0.19551732E+03</rscale>
<asrwt>0</asrwt>
<pdfrwt beam="1">  1       21 0.94330996E-01 0.19551732E+03</pdfrwt>
<pdfrwt beam="2">  1       21 0.11071335E-01 0.19551732E+03</pdfrwt>
<totfact> 0.63720419E+04</totfact>
</mgrwt>
</event>
<event>
 4    1  0.4495571E+000  0.1930503E+03  0.7546771E-02  0.1155739E+00
         21   -1    0    0  503  502  0.00000000000E+00  0.00000000000E+00  0.12208740283E+04  0.12208740283E+04  0.00000000000E+00 0.  1.
         21   -1    0    0  501  503 -0.00000000000E+00 -0.00000000000E+00 -0.43399705466E+02  0.43399705466E+02  0.00000000000E+00 0. -1.
          6    1    1    2  501    0  0.85622875899E+02 -0.28499485233E+01  0.24445102609E+03  0.31148788619E+03  0.17300000000E+03 0. -1.
         -6    1    1    2    0  502 -0.85622875899E+02  0.28499485233E+01  0.93302329672E+03  0.95278584755E+03  0.17300000000E+03 0.  1.
<mgrwt>
<rscale>  2 0.19305025E+03</rscale>
<asrwt>0</asrwt>
<pdfrwt beam="1">  1       21 0.18782675E+00 0.19305025E+03</pdfrwt>
<pdfrwt beam="2">  1       21 0.66768787E-02 0.19305025E+03</pdfrwt>
<totfact> 0.26451016E+04</totfact>
</mgrwt>
</event>
<event>
 4    1  0.4495571E+000  0.1801442E+03  0.7546771E-02  0.1167664E+00
         21   -1    0    0  503  502  0.00000000000E+00  0.00000000000E+00  0.14093793142E+03  0.14093793142E+03  0.00000000000E+00 0.  1.
         21   -1    0    0  501  503 -0.00000000000E+00 -0.00000000000E+00 -0.35745629746E+03  0.35745629746E+03  0.00000000000E+00 0.  1.
          6    1    1    2  501    0  0.33174337552E+02 -0.37714499545E+02 -0.25691235939E+03  0.31377680054E+03  0.17300000000E+03 0.  1.
         -6    1    1    2    0  502 -0.33174337552E+02  0.37714499545E+02  0.40393993361E+02  0.18461742834E+03  0.17300000000E+03 0.  1.
<mgrwt>
<rscale>  2 0.18014416E+03</rscale>
<asrwt>0</asrwt>
<pdfrwt beam="1">  1       21 0.21682759E-01 0.18014416E+03</pdfrwt>
<pdfrwt beam="2">  1       21 0.54993276E-01 0.18014416E+03</pdfrwt>
<totfact> 0.62240110E+04</totfact>
</mgrwt>
</event>
<event>
 4    1  0.4495571E+000  0.1747902E+03  0.7546771E-02  0.1172943E+00
         21   -1    0    0  503  502  0.00000000000E+00  0.00000000000E+00  0.93999993500E+02  0.93999993500E+02  0.00000000000E+00 0.  1.
         21   -1    0    0  501  503 -0.00000000000E+00 -0.00000000000E+00 -0.42342890699E+03  0.42342890699E+03  0.00000000000E+00 0.  1.
          6    1    1    2  501    0  0.26959770445E+01 -0.24805862791E+02 -0.28943964917E+03  0.33812262514E+03  0.17300000000E+03 0.  1.
         -6    1    1    2    0  502 -0.26959770445E+01  0.24805862791E+02 -0.39989264329E+02  0.17930627536E+03  0.17300000000E+03 0.  1.
<mgrwt>
<rscale>  2 0.17479016E+03</rscale>
<asrwt>0</asrwt>
<pdfrwt beam="1">  1       21 0.14461537E-01 0.17479016E+03</pdfrwt>
<pdfrwt beam="2">  1       21 0.65142910E-01 0.17479016E+03</pdfrwt>
<totfact> 0.91591790E+04</totfact>
</mgrwt>
</event>
<event>
 4    1  0.4495571E+000  0.2684373E+03  0.7546771E-02  0.1102177E+00
         21   -1    0    0  501  502  0.00000000000E+00  0.00000000000E+00  0.43469986232E+02  0.43469986232E+02  0.00000000000E+00 0. -1.
         21   -1    0    0  502  503 -0.00000000000E+00 -0.00000000000E+00 -0.20025023246E+04  0.20025023246E+04  0.00000000000E+00 0. -1.
          6    1    1    2  501    0 -0.26124260821E+02  0.20358565736E+03 -0.55500267209E+03  0.61651160810E+03  0.17300000000E+03 0. -1.
         -6    1    1    2    0  503  0.26124260821E+02 -0.20358565736E+03 -0.14040296663E+04  0.14294607027E+04  0.17300000000E+03 0. -1.
<mgrwt>
<rscale>  2 0.26843732E+03</rscale>
<asrwt>0</asrwt>
<pdfrwt beam="1">  1       21 0.66876889E-02 0.26843732E+03</pdfrwt>
<pdfrwt beam="2">  1       21 0.30807734E+00 0.26843732E+03</pdfrwt>
<totfact> 0.46511124E+03</totfact>
</mgrwt>
</event>
<event>
 4    1  0.4495571E+000  0.1973439E+03  0.7546771E-02  0.1151999E+00
         21   -1    0    0  503  502  0.00000000000E+00  0.00000000000E+00  0.11679662872E+03  0.11679662872E+03  0.00000000000E+00 0.  1.
         21   -1    0    0  501  503 -0.00000000000E+00 -0.00000000000E+00 -0.37022348579E+03  0.37022348579E+03  0.00000000000E+00 0. -1.
          6    1    1    2  501    0 -0.89865814989E+02  0.30655552668E+02 -0.20346961633E+03  0.28345107582E+03  0.17300000000E+03 0. -1.
         -6    1    1    2    0  502  0.89865814989E+02 -0.30655552668E+02 -0.49957240738E+02  0.20356903869E+03  0.17300000000E+03 0.  1.
<mgrwt>
<rscale>  2 0.19734393E+03</rscale>
<asrwt>0</asrwt>
<pdfrwt beam="1">  1       21 0.17968712E-01 0.19734393E+03</pdfrwt>
<pdfrwt beam="2">  1       21 0.56957459E-01 0.19734393E+03</pdfrwt>
<totfact> 0.81409594E+04</totfact>
</mgrwt>
</event>
<event>
 4    1  0.4495571E+000  0.1950739E+03  0.7546771E-02  0.1153963E+00
         21   -1    0    0  503  502  0.00000000000E+00  0.00000000000E+00  0.33862321053E+03  0.33862321053E+03  0.00000000000E+00 0.  1.
         21   -1    0    0  501  503 -0.00000000000E+00 -0.00000000000E+00 -0.12250228089E+03  0.12250228089E+03  0.00000000000E+00 0.  1.
          6    1    1    2  501    0 -0.54377705971E+02  0.71888004495E+02  0.17434280209E+03  0.26162804272E+03  0.17300000000E+03 0.  1.
         -6    1    1    2    0  502  0.54377705971E+02 -0.71888004495E+02  0.41778127551E+02  0.19949744870E+03  0.17300000000E+03 0.  1.
<mgrwt>
<rscale>  2 0.19507388E+03</rscale>
<asrwt>0</asrwt>
<pdfrwt beam="1">  1       21 0.52095878E-01 0.19507388E+03</pdfrwt>
<pdfrwt beam="2">  1       21 0.18846505E-01 0.19507388E+03</pdfrwt>
<totfact> 0.90075442E+04</totfact>
</mgrwt>
</event>
<event>
 4    1  0.4495571E+000  0.1852696E+03  0.7546771E-02  0.1162798E+00
         21   -1    0    0  503  502  0.00000000000E+00  0.00000000000E+00  0.46413277077E+03  0.46413277077E+03  0.00000000000E+00 0.  1.
         21   -1    0    0  501  503 -0.00000000000E+00 -0.00000000000E+00 -0.74015713357E+02  0.74015713357E+02  0.00000000000E+00 0.  1.
          6    1    1    2  501    0 -0.18408676754E+02 -0.63694164314E+02  0.18733666383E+03  0.26347647250E+03  0.17300000000E+03 0.  1.
         -6    1    1    2    0  502  0.18408676754E+02  0.63694164314E+02  0.20278039358E+03  0.27467201162E+03  0.17300000000E+03 0.  1.
<mgrwt>
<rscale>  2 0.18526960E+03</rscale>
<asrwt>0</asrwt>
<pdfrwt beam="1">  1       21 0.71405039E-01 0.18526960E+03</pdfrwt>
<pdfrwt beam="2">  1       21 0.11387033E-01 0.18526960E+03</pdfrwt>
<totfact> 0.11458880E+05</totfact>
</mgrwt>
</event>
<event>
 4    1  0.4495571E+000  0.3039898E+03  0.7546771E-02  0.1083263E+00
         21   -1    0    0  501  502  0.00000000000E+00  0.00000000000E+00  0.90415180304E+02  0.90415180304E+02  0.00000000000E+00 0.  1.
         21   -1    0    0  502  503 -0.00000000000E+00 -0.00000000000E+00 -0.10531710504E+04  0.10531710504E+04  0.00000000000E+00 0. -1.
          6    1    1    2  501    0 -0.82545561252E+02  0.23593864872E+03 -0.57965244812E+03  0.65452790334E+03  0.17300000000E+03 0.  1.
         -6    1    1    2    0  503  0.82545561252E+02 -0.23593864872E+03 -0.38310342201E+03  0.48905832739E+03  0.17300000000E+03 0. -1.
<mgrwt>
<rscale>  2 0.30398983E+03</rscale>
<asrwt>0</asrwt>
<pdfrwt beam="1">  1       21 0.13910028E-01 0.30398983E+03</pdfrwt>
<pdfrwt beam="2">  1       21 0.16202632E+00 0.30398983E+03</pdfrwt>
<totfact> 0.10209302E+04</totfact>
</mgrwt>
</event>
<event>
 4    1  0.4495571E+000  0.1973629E+03  0.7546771E-02  0.1151983E+00
         21   -1    0    0  501  502  0.00000000000E+00  0.00000000000E+00  0.11324647812E+03  0.11324647812E+03  0.00000000000E+00 0. -1.
         21   -1    0    0  502  503 -0.00000000000E+00 -0.00000000000E+00 -0.37776701660E+03  0.37776701660E+03  0.00000000000E+00 0. -1.
          6    1    1    2  501    0  0.12242039089E+01  0.94982267573E+02 -0.58815284983E+02  0.20594020388E+03  0.17300000000E+03 0. -1.
         -6    1    1    2    0  503 -0.12242039089E+01 -0.94982267573E+02 -0.20570525350E+03  0.28507329083E+03  0.17300000000E+03 0. -1.
<mgrwt>
<rscale>  2 0.19736294E+03</rscale>
<asrwt>0</asrwt>
<pdfrwt beam="1">  1       21 0.17422535E-01 0.19736294E+03</pdfrwt>
<pdfrwt beam="2">  1       21 0.58118003E-01 0.19736294E+03</pdfrwt>
<totfact> 0.82555336E+04</totfact>
</mgrwt>
</event>
<event>
 4    1  0.4495571E+000  0.2162019E+03  0.7546771E-02  0.1136747E+00
         21   -1    0    0  503  502  0.00000000000E+00  0.00000000000E+00  0.21190075330E+03  0.21190075330E+03  0.00000000000E+00 0. -1.
         21   -1    0    0  501  503 -0.00000000000E+00 -0.00000000000E+00 -0.92206487562E+03  0.92206487562E+03  0.00000000000E+00 0.  1.
          6    1    1    2  501    0  0.17948853998E+02  0.12842156944E+03 -0.84961486937E+03  0.87669189976E+03  0.17300000000E+03 0.  1.
         -6    1    1    2    0  502 -0.17948853998E+02 -0.12842156944E+03  0.13945074706E+03  0.25727372915E+03  0.17300000000E+03 0. -1.
<mgrwt>
<rscale>  2 0.21620190E+03</rscale>
<asrwt>0</asrwt>
<pdfrwt beam="1">  1       21 0.32600116E-01 0.21620190E+03</pdfrwt>
<pdfrwt beam="2">  1       21 0.14185613E+00 0.21620190E+03</pdfrwt>
<totfact> 0.30685654E+03</totfact>
</mgrwt>
</event>
<event>
 4    1  0.4495571E+000  0.2414071E+03  0.7546771E-02  0.1118859E+00
         21   -1    0    0  501  502  0.00000000000E+00  0.00000000000E+00  0.17900517761E+03  0.17900517761E+03  0.00000000000E+00 0. -1.
         21   -1    0    0  502  503 -0.00000000000E+00 -0.00000000000E+00 -0.47813661964E+03  0.47813661964E+03  0.00000000000E+00 0.  1.
          6    1    1    2  501    0  0.13364472176E+02  0.16783855444E+03  0.36040871853E+02  0.24408263748E+03  0.17300000000E+03 0. -1.
         -6    1    1    2    0  503 -0.13364472176E+02 -0.16783855444E+03 -0.33517231389E+03  0.41305915977E+03  0.17300000000E+03 0.  1.
<mgrwt>
<rscale>  2 0.24140710E+03</rscale>
<asrwt>0</asrwt>
<pdfrwt beam="1">  1       21 0.27539258E-01 0.24140710E+03</pdfrwt>
<pdfrwt beam="2">  1       21 0.73559479E-01 0.24140710E+03</pdfrwt>
<totfact> 0.20323954E+04</totfact>
</mgrwt>
</event>
<event>
 4    1  0.4495571E+000  0.2180576E+03  0.7546771E-02  0.1135340E+00
         21   -1    0    0  501  502  0.00000000000E+00  0.00000000000E+00  0.11560446951E+03  0.11560446951E+03  0.00000000000E+00 0.  1.
         21   -1    0    0  502  503 -0.00000000000E+00 -0.00000000000E+00 -0.58939406097E+03  0.58939406097E+03  0.00000000000E+00 0.  1.
          6    1    1    2  501    0 -0.90882869961E+02  0.96749170097E+02 -0.43132298006E+02  0.22228246242E+03  0.17300000000E+03 0.  1.
         -6    1    1    2    0  503  0.90882869961E+02 -0.96749170097E+02 -0.43065729345E+03  0.48271606807E+03  0.17300000000E+03 0.  1.
<mgrwt>
<rscale>  2 0.21805756E+03</rscale>
<asrwt>0</asrwt>
<pdfrwt beam="1">  1       21 0.17785303E-01 0.21805756E+03</pdfrwt>
<pdfrwt beam="2">  1       21 0.90676009E-01 0.21805756E+03</pdfrwt>
<totfact> 0.29224137E+04</totfact>
</mgrwt>
</event>
<event>
 4    1  0.4495571E+000  0.1761939E+03  0.7546771E-02  0.1171538E+00
         21   -1    0    0  503  502  0.00000000000E+00  0.00000000000E+00  0.14222243182E+03  0.14222243182E+03  0.00000000000E+00 0.  1.
         21   -1    0    0  501  503 -0.00000000000E+00 -0.00000000000E+00 -0.23135167063E+03  0.23135167063E+03  0.00000000000E+00 0. -1.
          6    1    1    2  501    0 -0.36093665117E+01  0.33200216784E+02 -0.88964270393E+02  0.19738014927E+03  0.17300000000E+03 0. -1.
         -6    1    1    2    0  502  0.36093665117E+01 -0.33200216784E+02 -0.16496840776E+00  0.17619395318E+03  0.17300000000E+03 0.  1.
<mgrwt>
<rscale>  2 0.17619388E+03</rscale>
<asrwt>0</asrwt>
<pdfrwt beam="1">  1       21 0.21880374E-01 0.17619388E+03</pdfrwt>
<pdfrwt beam="2">  1       21 0.35592565E-01 0.17619388E+03</pdfrwt>
<totfact> 0.14923163E+05</totfact>
</mgrwt>
</event>
<event>
 4    1  0.4495571E+000  0.2077205E+03  0.7546771E-02  0.1143384E+00
         21   -1    0    0  503  502  0.00000000000E+00  0.00000000000E+00  0.48838886285E+03  0.48838886285E+03  0.00000000000E+00 0. -1.
         21   -1    0    0  501  503 -0.00000000000E+00 -0.00000000000E+00 -0.12277675165E+03  0.12277675165E+03  0.00000000000E+00 0.  1.
          6    1    1    2  501    0 -0.44425348305E+02 -0.10604328545E+03  0.20984447710E+02  0.20877772153E+03  0.17300000000E+03 0.  1.
         -6    1    1    2    0  502  0.44425348305E+02  0.10604328545E+03  0.34462766350E+03  0.40238789297E+03  0.17300000000E+03 0. -1.
<mgrwt>
<rscale>  2 0.20772046E+03</rscale>
<asrwt>0</asrwt>
<pdfrwt beam="1">  1       21 0.75136747E-01 0.20772046E+03</pdfrwt>
<pdfrwt beam="2">  1       21 0.18888731E-01 0.20772046E+03</pdfrwt>
<totfact> 0.40341838E+04</totfact>
</mgrwt>
</event>
<event>
 4    1  0.4495571E+000  0.1978975E+03  0.7546771E-02  0.1151525E+00
         21   -1    0    0  503  502  0.00000000000E+00  0.00000000000E+00  0.27006084519E+03  0.27006084519E+03  0.00000000000E+00 0.  1.
         21   -1    0    0  501  503 -0.00000000000E+00 -0.00000000000E+00 -0.28407671685E+03  0.28407671685E+03  0.00000000000E+00 0. -1.
          6    1    1    2  501    0  0.24868795555E+02 -0.92822318153E+02 -0.20085993899E+03  0.28197190433E+03  0.17300000000E+03 0. -1.
         -6    1    1    2    0  502 -0.24868795555E+02  0.92822318153E+02  0.18684406733E+03  0.27216565771E+03  0.17300000000E+03 0.  1.
<mgrwt>
<rscale>  2 0.19789755E+03</rscale>
<asrwt>0</asrwt>
<pdfrwt beam="1">  1       21 0.41547822E-01 0.19789755E+03</pdfrwt>
<pdfrwt beam="2">  1       21 0.43704110E-01 0.19789755E+03</pdfrwt>
<totfact> 0.27979462E+04</totfact>
</mgrwt>
</event>
<event>
 4    1  0.4495571E+000  0.2073220E+03  0.7546771E-02  0.1143704E+00
         21   -1    0    0  501  502  0.00000000000E+00  0.00000000000E+00  0.38866467431E+03  0.38866467431E+03  0.00000000000E+00 0.  1.
         21   -1    0    0  502  503 -0.00000000000E+00 -0.00000000000E+00 -0.12618934507E+03  0.12618934507E+03  0.00000000000E+00 0. -1.
          6    1    1    2  501    0 -0.88980892523E+02  0.71664540198E+02  0.22174769181E+03  0.30356950502E+03  0.17300000000E+03 0. -1.
         -6    1    1    2    0  503  0.88980892523E+02 -0.71664540198E+02  0.40727637436E+02  0.21128451436E+03  0.17300000000E+03 0. -1.
<mgrwt>
<rscale>  2 0.20732199E+03</rscale>
<asrwt>0</asrwt>
<pdfrwt beam="1">  1       21 0.59794565E-01 0.20732199E+03</pdfrwt>
<pdfrwt beam="2">  1       21 0.19413746E-01 0.20732199E+03</pdfrwt>
<totfact> 0.63264258E+04</totfact>
</mgrwt>
</event>
<event>
 4    1  0.4495571E+000  0.1931545E+03  0.7546771E-02  0.1155647E+00
         21   -1    0    0  503  502  0.00000000000E+00  0.00000000000E+00  0.23841795569E+04  0.23841795569E+04  0.00000000000E+00 0. -1.
         21   -1    0    0  501  503 -0.00000000000E+00 -0.00000000000E+00 -0.21475110673E+02  0.21475110673E+02  0.00000000000E+00 0.  1.
          6    1    1    2  501    0 -0.45901155407E+02 -0.72613544465E+02  0.55481544819E+03  0.58747665865E+03  0.17300000000E+03 0.  1.
         -6    1    1    2    0  502  0.45901155407E+02  0.72613544465E+02  0.18078889980E+04  0.18181780089E+04  0.17300000000E+03 0. -1.
<mgrwt>
<rscale>  2 0.19315445E+03</rscale>
<asrwt>0</asrwt>
<pdfrwt beam="1">  1       21 0.36679665E+00 0.19315445E+03</pdfrwt>
<pdfrwt beam="2">  1       21 0.33038651E-02 0.19315445E+03</pdfrwt>
<totfact> 0.74856507E+03</totfact>
</mgrwt>
</event>
<event>
 4    1  0.4495571E+000  0.1960250E+03  0.7546771E-02  0.1153137E+00
         21   -1    0    0  501  502  0.00000000000E+00  0.00000000000E+00  0.83490434020E+02  0.83490434020E+02  0.00000000000E+00 0.  1.
         21   -1    0    0  502  503 -0.00000000000E+00 -0.00000000000E+00 -0.47586614844E+03  0.47586614844E+03  0.00000000000E+00 0. -1.
          6    1    1    2  501    0 -0.62285560978E+02  0.67950854894E+02 -0.14551053926E+03  0.24412932397E+03  0.17300000000E+03 0. -1.
         -6    1    1    2    0  503  0.62285560978E+02 -0.67950854894E+02 -0.24686517516E+03  0.31522725849E+03  0.17300000000E+03 0. -1.
<mgrwt>
<rscale>  2 0.19602502E+03</rscale>
<asrwt>0</asrwt>
<pdfrwt beam="1">  1       21 0.12844682E-01 0.19602502E+03</pdfrwt>
<pdfrwt beam="2">  1       21 0.73210177E-01 0.19602502E+03</pdfrwt>
<totfact> 0.87025847E+04</totfact>
</mgrwt>
</event>
<event>
 4    1  0.4495571E+000  0.2219820E+03  0.7546771E-02  0.1132414E+00
         21   -1    0    0  503  502  0.00000000000E+00  0.00000000000E+00  0.13567922897E+04  0.13567922897E+04  0.00000000000E+00 0.  1.
         21   -1    0    0  501  503 -0.00000000000E+00 -0.00000000000E+00 -0.40098099308E+02  0.40098099308E+02  0.00000000000E+00 0. -1.
          6    1    1    2  501    0  0.12371977673E+03  0.63564444859E+02  0.44389989745E+03  0.49630952113E+03  0.17300000000E+03 0. -1.
         -6    1    1    2    0  502 -0.12371977673E+03 -0.63564444859E+02  0.87279429291E+03  0.90058086785E+03  0.17300000000E+03 0. -1.
<mgrwt>
<rscale>  2 0.22198203E+03</rscale>
<asrwt>0</asrwt>
<pdfrwt beam="1">  1       21 0.20873724E+00 0.22198203E+03</pdfrwt>
<pdfrwt beam="2">  1       21 0.61689394E-02 0.22198203E+03</pdfrwt>
<totfact> 0.21743455E+04</totfact>
</mgrwt>
</event>
<event>
 4    1  0.4495571E+000  0.2456700E+03  0.7546771E-02  0.1116072E+00
         21   -1    0    0  503  502  0.00000000000E+00  0.00000000000E+00  0.26710280687E+03  0.26710280687E+03  0.00000000000E+00 0.  1.
         21   -1    0    0  501  503 -0.00000000000E+00 -0.00000000000E+00 -0.22597260631E+03  0.22597260631E+03  0.00000000000E+00 0.  1.
          6    1    1    2  501    0  0.17364466230E+03  0.16500672512E+02  0.22615891518E+02  0.24670877465E+03  0.17300000000E+03 0.  1.
         -6    1    1    2    0  502 -0.17364466230E+03 -0.16500672512E+02  0.18514309051E+02  0.24636663853E+03  0.17300000000E+03 0.  1.
<mgrwt>
<rscale>  2 0.24566998E+03</rscale>
<asrwt>0</asrwt>
<pdfrwt beam="1">  1       21 0.41092740E-01 0.24566998E+03</pdfrwt>
<pdfrwt beam="2">  1       21 0.34765016E-01 0.24566998E+03</pdfrwt>
<totfact> 0.44390365E+04</totfact>
</mgrwt>
</event>
<event>
 4    1  0.4495571E+000  0.1839180E+03  0.7546771E-02  0.1164064E+00
         21   -1    0    0  503  502  0.00000000000E+00  0.00000000000E+00  0.26023969961E+03  0.26023969961E+03  0.00000000000E+00 0. -1.
         21   -1    0    0  501  503 -0.00000000000E+00 -0.00000000000E+00 -0.17263603777E+03  0.17263603777E+03  0.00000000000E+00 0. -1.
          6    1    1    2  501    0 -0.61692072537E+02  0.95357925246E+01 -0.63785215601E+02  0.19466483217E+03  0.17300000000E+03 0. -1.
         -6    1    1    2    0  502  0.61692072537E+02 -0.95357925246E+01  0.15138887744E+03  0.23821090522E+03  0.17300000000E+03 0. -1.
<mgrwt>
<rscale>  2 0.18391803E+03</rscale>
<asrwt>0</asrwt>
<pdfrwt beam="1">  1       21 0.40036877E-01 0.18391803E+03</pdfrwt>
<pdfrwt beam="2">  1       21 0.26559390E-01 0.18391803E+03</pdfrwt>
<totfact> 0.81387626E+04</totfact>
</mgrwt>
</event>
<event>
 4    1  0.4495571E+000  0.1868490E+03  0.7546771E-02  0.1161334E+00
         21   -1    0    0  501  502  0.00000000000E+00  0.00000000000E+00  0.81159507963E+03  0.81159507963E+03  0.00000000000E+00 0.  1.
         21   -1    0    0  502  503 -0.00000000000E+00 -0.00000000000E+00 -0.12802068537E+03  0.12802068537E+03  0.00000000000E+00 0.  1.
          6    1    1    2  501    0  0.68291714388E+02 -0.17882833878E+02  0.72461068216E+03  0.74831356709E+03  0.17300000000E+03 0.  1.
         -6    1    1    2    0  503 -0.68291714388E+02  0.17882833878E+02 -0.41036287891E+02  0.19130219791E+03  0.17300000000E+03 0.  1.
<mgrwt>
<rscale>  2 0.18684901E+03</rscale>
<asrwt>0</asrwt>
<pdfrwt beam="1">  1       21 0.12486078E+00 0.18684901E+03</pdfrwt>
<pdfrwt beam="2">  1       21 0.19695491E-01 0.18684901E+03</pdfrwt>
<totfact> 0.11409677E+04</totfact>
</mgrwt>
</event>
<event>
 4    1  0.4495571E+000  0.2859661E+03  0.7546771E-02  0.1092474E+00
         21   -1    0    0  503  502  0.00000000000E+00  0.00000000000E+00  0.18641384352E+03  0.18641384352E+03  0.00000000000E+00 0.  1.
         21   -1    0    0  501  503 -0.00000000000E+00 -0.00000000000E+00 -0.45485659982E+03  0.45485659982E+03  0.00000000000E+00 0.  1.
          6    1    1    2  501    0  0.16443775082E+03  0.15750508771E+03 -0.73760525431E+02  0.29532565357E+03  0.17300000000E+03 0.  1.
         -6    1    1    2    0  502 -0.16443775082E+03 -0.15750508771E+03 -0.19468223087E+03  0.34594478976E+03  0.17300000000E+03 0.  1.
<mgrwt>
<rscale>  2 0.28596613E+03</rscale>
<asrwt>0</asrwt>
<pdfrwt beam="1">  1       21 0.28679053E-01 0.28596613E+03</pdfrwt>
<pdfrwt beam="2">  1       21 0.69977938E-01 0.28596613E+03</pdfrwt>
<totfact> 0.20569184E+04</totfact>
</mgrwt>
</event>
<event>
 4    1  0.4495571E+000  0.1981261E+03  0.7546771E-02  0.1151330E+00
         21   -1    0    0  503  502  0.00000000000E+00  0.00000000000E+00  0.94248514628E+02  0.94248514628E+02  0.00000000000E+00 0.  1.
         21   -1    0    0  501  503 -0.00000000000E+00 -0.00000000000E+00 -0.43652054448E+03  0.43652054448E+03  0.00000000000E+00 0.  1.
          6    1    1    2  501    0 -0.24686263968E+02  0.93357007164E+02 -0.22797889680E+03  0.30204026189E+03  0.17300000000E+03 0. -1.
         -6    1    1    2    0  502  0.24686263968E+02 -0.93357007164E+02 -0.11429313305E+03  0.22872879722E+03  0.17300000000E+03 0. -1.
<mgrwt>
<rscale>  2 0.19812608E+03</rscale>
<asrwt>0</asrwt>
<pdfrwt beam="1">  1       21 0.14499772E-01 0.19812608E+03</pdfrwt>
<pdfrwt beam="2">  1       21 0.67157007E-01 0.19812608E+03</pdfrwt>
<totfact> 0.84484107E+04</totfact>
</mgrwt>
</event>
<event>
 4    1  0.4495571E+000  0.1741410E+03  0.7546771E-02  0.1173597E+00
         21   -1    0    0  503  502  0.00000000000E+00  0.00000000000E+00  0.55937101316E+02  0.55937101316E+02  0.00000000000E+00 0.  1.
         21   -1    0    0  501  503 -0.00000000000E+00 -0.00000000000E+00 -0.71293383732E+03  0.71293383732E+03  0.00000000000E+00 0.  1.
          6    1    1    2  501    0 -0.11533727770E+02 -0.16218962647E+02 -0.51666815822E+03  0.54522570313E+03  0.17300000000E+03 0.  1.
         -6    1    1    2    0  502  0.11533727770E+02  0.16218962647E+02 -0.14032857778E+03  0.22364523551E+03  0.17300000000E+03 0.  1.
<mgrwt>
<rscale>  2 0.17414098E+03</rscale>
<asrwt>0</asrwt>
<pdfrwt beam="1">  1       21 0.86057080E-02 0.17414098E+03</pdfrwt>
<pdfrwt beam="2">  1       21 0.10968213E+00 0.17414098E+03</pdfrwt>
<totfact> 0.70097749E+04</totfact>
</mgrwt>
</event>
<event>
 4    1  0.4495571E+000  0.2434536E+03  0.7546771E-02  0.1117513E+00
         21   -1    0    0  503  502  0.00000000000E+00  0.00000000000E+00  0.45544979529E+02  0.45544979529E+02  0.00000000000E+00 0.  1.
         21   -1    0    0  501  503 -0.00000000000E+00 -0.00000000000E+00 -0.13032937136E+04  0.13032937136E+04  0.00000000000E+00 0. -1.
          6    1    1    2  501    0  0.19523727786E+01  0.17128002250E+03 -0.60278505201E+03  0.65009189873E+03  0.17300000000E+03 0.  1.
         -6    1    1    2    0  502 -0.19523727786E+01 -0.17128002250E+03 -0.65496368207E+03  0.69874679441E+03  0.17300000000E+03 0.  1.
<mgrwt>
<rscale>  2 0.24345361E+03</rscale>
<asrwt>0</asrwt>
<pdfrwt beam="1">  1       21 0.70069191E-02 0.24345361E+03</pdfrwt>
<pdfrwt beam="2">  1       21 0.20050675E+00 0.24345361E+03</pdfrwt>
<totfact> 0.19420989E+04</totfact>
</mgrwt>
</event>
<event>
 4    1  0.4495571E+000  0.1945797E+03  0.7546771E-02  0.1154394E+00
         21   -1    0    0  503  502  0.00000000000E+00  0.00000000000E+00  0.18195381770E+03  0.18195381770E+03  0.00000000000E+00 0.  1.
         21   -1    0    0  501  503 -0.00000000000E+00 -0.00000000000E+00 -0.39262468895E+03  0.39262468895E+03  0.00000000000E+00 0.  1.
          6    1    1    2  501    0 -0.85959850048E+02 -0.23306004199E+02 -0.30229601571E+03  0.35950541966E+03  0.17300000000E+03 0.  1.
         -6    1    1    2    0  502  0.85959850048E+02  0.23306004199E+02  0.91625144455E+02  0.21507308699E+03  0.17300000000E+03 0.  1.
<mgrwt>
<rscale>  2 0.19457972E+03</rscale>
<asrwt>0</asrwt>
<pdfrwt beam="1">  1       21 0.27992895E-01 0.19457972E+03</pdfrwt>
<pdfrwt beam="2">  1       21 0.60403798E-01 0.19457972E+03</pdfrwt>
<totfact> 0.31102164E+04</totfact>
</mgrwt>
</event>
<event>
 4    1  0.4495571E+000  0.2492617E+03  0.7546771E-02  0.1113772E+00
         21   -1    0    0  503  502  0.00000000000E+00  0.00000000000E+00  0.11767190897E+03  0.11767190897E+03  0.00000000000E+00 0.  1.
         21   -1    0    0  501  503 -0.00000000000E+00 -0.00000000000E+00 -0.61629592642E+03  0.61629592642E+03  0.00000000000E+00 0. -1.
          6    1    1    2  501    0 -0.17052790264E+03  0.55880461338E+02 -0.38821438782E+03  0.46134781071E+03  0.17300000000E+03 0.  1.
         -6    1    1    2    0  502  0.17052790264E+03 -0.55880461338E+02 -0.11040962964E+03  0.27262002468E+03  0.17300000000E+03 0. -1.
<mgrwt>
<rscale>  2 0.24926169E+03</rscale>
<asrwt>0</asrwt>
<pdfrwt beam="1">  1       21 0.18103371E-01 0.24926169E+03</pdfrwt>
<pdfrwt beam="2">  1       21 0.94814757E-01 0.24926169E+03</pdfrwt>
<totfact> 0.25077244E+04</totfact>
</mgrwt>
</event>
<event>
 4    1  0.4495571E+000  0.1882511E+03  0.7546771E-02  0.1160048E+00
         21   -1    0    0  501  502  0.00000000000E+00  0.00000000000E+00  0.22615979737E+03  0.22615979737E+03  0.00000000000E+00 0. -1.
         21   -1    0    0  502  503 -0.00000000000E+00 -0.00000000000E+00 -0.18919204160E+03  0.18919204160E+03  0.00000000000E+00 0.  1.
          6    1    1    2  501    0 -0.50566287611E+02 -0.54337190632E+02  0.10455266498E+03  0.21533634037E+03  0.17300000000E+03 0. -1.
         -6    1    1    2    0  503  0.50566287611E+02  0.54337190632E+02 -0.67584909208E+02  0.20001549860E+03  0.17300000000E+03 0.  1.
<mgrwt>
<rscale>  2 0.18825111E+03</rscale>
<asrwt>0</asrwt>
<pdfrwt beam="1">  1       21 0.34793815E-01 0.18825111E+03</pdfrwt>
<pdfrwt beam="2">  1       21 0.29106468E-01 0.18825111E+03</pdfrwt>
<totfact> 0.90142744E+04</totfact>
</mgrwt>
</event>
<event>
 4    1  0.4495571E+000  0.2375290E+03  0.7546771E-02  0.1121450E+00
         21   -1    0    0  501  502  0.00000000000E+00  0.00000000000E+00  0.27691167311E+03  0.27691167311E+03  0.00000000000E+00 0. -1.
         21   -1    0    0  502  503 -0.00000000000E+00 -0.00000000000E+00 -0.25457267805E+03  0.25457267805E+03  0.00000000000E+00 0.  1.
          6    1    1    2  501    0 -0.14518396106E+03 -0.73570576943E+02  0.12990888314E+03  0.27073295008E+03  0.17300000000E+03 0. -1.
         -6    1    1    2    0  503  0.14518396106E+03  0.73570576943E+02 -0.10756988809E+03  0.26075140108E+03  0.17300000000E+03 0.  1.
<mgrwt>
<rscale>  2 0.23752897E+03</rscale>
<asrwt>0</asrwt>
<pdfrwt beam="1">  1       21 0.42601796E-01 0.23752897E+03</pdfrwt>
<pdfrwt beam="2">  1       21 0.39165028E-01 0.23752897E+03</pdfrwt>
<totfact> 0.32569904E+04</totfact>
</mgrwt>
</event>
<event>
 4    1  0.4495571E+000  0.2039441E+03  0.7546771E-02  0.1146453E+00
         21   -1    0    0  501  502  0.00000000000E+00  0.00000000000E+00  0.93116644424E+02  0.93116644424E+02  0.00000000000E+00 0. -1.
         21   -1    0    0  502  503 -0.00000000000E+00 -0.00000000000E+00 -0.68804176301E+03  0.68804176301E+03  0.00000000000E+00 0. -1.
          6    1    1    2  501    0  0.38782121725E+02  0.10079761220E+03 -0.66129757707E+02  0.21439765961E+03  0.17300000000E+03 0. -1.
         -6    1    1    2    0  503 -0.38782121725E+02 -0.10079761220E+03 -0.52879536088E+03  0.56676074783E+03  0.17300000000E+03 0. -1.
<mgrwt>
<rscale>  2 0.20394414E+03</rscale>
<asrwt>0</asrwt>
<pdfrwt beam="1">  1       21 0.14325637E-01 0.20394414E+03</pdfrwt>
<pdfrwt beam="2">  1       21 0.10585258E+00 0.20394414E+03</pdfrwt>
<totfact> 0.30362126E+04</totfact>
</mgrwt>
</event>
<event>
 4    1  0.4495571E+000  0.2023294E+03  0.7546771E-02  0.1147788E+00
         21   -1    0    0  501  502  0.00000000000E+00  0.00000000000E+00  0.60369498315E+03  0.60369498315E+03  0.00000000000E+00 0. -1.
         21   -1    0    0  502  503 -0.00000000000E+00 -0.00000000000E+00 -0.70530562536E+02  0.70530562536E+02  0.00000000000E+00 0. -1.
          6    1    1    2  501    0 -0.98961288773E+02 -0.34854762504E+02  0.33277824972E+03  0.38945931063E+03  0.17300000000E+03 0. -1.
         -6    1    1    2    0  503  0.98961288773E+02  0.34854762504E+02  0.20038617089E+03  0.28476623505E+03  0.17300000000E+03 0. -1.
<mgrwt>
<rscale>  2 0.20232941E+03</rscale>
<asrwt>0</asrwt>
<pdfrwt beam="1">  1       21 0.92876148E-01 0.20232941E+03</pdfrwt>
<pdfrwt beam="2">  1       21 0.10850856E-01 0.20232941E+03</pdfrwt>
<totfact> 0.68259252E+04</totfact>
</mgrwt>
</event>
<event>
 4    1  0.4495571E+000  0.1751023E+03  0.7546771E-02  0.1172629E+00
         21   -1    0    0  501  502  0.00000000000E+00  0.00000000000E+00  0.31077881231E+03  0.31077881231E+03  0.00000000000E+00 0.  1.
         21   -1    0    0  502  503 -0.00000000000E+00 -0.00000000000E+00 -0.18770394947E+03  0.18770394947E+03  0.00000000000E+00 0.  1.
          6    1    1    2  501    0  0.62873063463E+01 -0.26311566090E+02  0.23320585874E+03  0.29162613272E+03  0.17300000000E+03 0.  1.
         -6    1    1    2    0  503 -0.62873063463E+01  0.26311566090E+02 -0.11013099591E+03  0.20685662907E+03  0.17300000000E+03 0.  1.
<mgrwt>
<rscale>  2 0.17510234E+03</rscale>
<asrwt>0</asrwt>
<pdfrwt beam="1">  1       21 0.47812125E-01 0.17510234E+03</pdfrwt>
<pdfrwt beam="2">  1       21 0.28877531E-01 0.17510234E+03</pdfrwt>
<totfact> 0.48398153E+04</totfact>
</mgrwt>
</event>
<event>
 4    1  0.4495571E+000  0.2429426E+03  0.7546771E-02  0.1117848E+00
         21   -1    0    0  501  502  0.00000000000E+00  0.00000000000E+00  0.11787636821E+03  0.11787636821E+03  0.00000000000E+00 0. -1.
         21   -1    0    0  502  503 -0.00000000000E+00 -0.00000000000E+00 -0.13233602519E+04  0.13233602519E+04  0.00000000000E+00 0.  1.
          6    1    1    2  501    0 -0.51948408282E+02 -0.16246072146E+03 -0.34575532855E+02  0.24539068974E+03  0.17300000000E+03 0. -1.
         -6    1    1    2    0  503  0.51948408282E+02  0.16246072146E+03 -0.11709083509E+04  0.11958459304E+04  0.17300000000E+03 0.  1.
<mgrwt>
<rscale>  2 0.24294263E+03</rscale>
<asrwt>0</asrwt>
<pdfrwt beam="1">  1       21 0.18134827E-01 0.24294263E+03</pdfrwt>
<pdfrwt beam="2">  1       21 0.20359388E+00 0.24294263E+03</pdfrwt>
<totfact> 0.33720567E+03</totfact>
</mgrwt>
</event>
<event>
 4    1  0.4495571E+000  0.2005976E+03  0.7546771E-02  0.1149236E+00
         21   -1    0    0  501  502  0.00000000000E+00  0.00000000000E+00  0.25787981822E+03  0.25787981822E+03  0.00000000000E+00 0. -1.
         21   -1    0    0  502  503 -0.00000000000E+00 -0.00000000000E+00 -0.19512636163E+03  0.19512636163E+03  0.00000000000E+00 0. -1.
          6    1    1    2  501    0  0.79228672392E+02  0.63507737691E+02 -0.69998546769E+02  0.21245990640E+03  0.17300000000E+03 0. -1.
         -6    1    1    2    0  503 -0.79228672392E+02 -0.63507737691E+02  0.13275200336E+03  0.24054627345E+03  0.17300000000E+03 0. -1.
<mgrwt>
<rscale>  2 0.20059765E+03</rscale>
<asrwt>0</asrwt>
<pdfrwt beam="1">  1       21 0.39673818E-01 0.20059765E+03</pdfrwt>
<pdfrwt beam="2">  1       21 0.30019440E-01 0.20059765E+03</pdfrwt>
<totfact> 0.64940302E+04</totfact>
</mgrwt>
</event>
<event>
 4    1  0.4495571E+000  0.1836451E+03  0.7546771E-02  0.1164321E+00
         21   -1    0    0  501  502  0.00000000000E+00  0.00000000000E+00  0.30789179206E+03  0.30789179206E+03  0.00000000000E+00 0. -1.
         21   -1    0    0  502  503 -0.00000000000E+00 -0.00000000000E+00 -0.27276620552E+03  0.27276620552E+03  0.00000000000E+00 0. -1.
          6    1    1    2  501    0 -0.47444104138E+02 -0.39313762523E+02  0.24215474588E+03  0.30391517878E+03  0.17300000000E+03 0. -1.
         -6    1    1    2    0  503  0.47444104138E+02  0.39313762523E+02 -0.20702915934E+03  0.27674281880E+03  0.17300000000E+03 0. -1.
<mgrwt>
<rscale>  2 0.18364508E+03</rscale>
<asrwt>0</asrwt>
<pdfrwt beam="1">  1       21 0.47367968E-01 0.18364508E+03</pdfrwt>
<pdfrwt beam="2">  1       21 0.41964032E-01 0.18364508E+03</pdfrwt>
<totfact> 0.23422381E+04</totfact>
</mgrwt>
</event>
<event>
 4    1  0.4495571E+000  0.2172885E+03  0.7546771E-02  0.1135921E+00
         21   -1    0    0  501  502  0.00000000000E+00  0.00000000000E+00  0.11694156240E+03  0.11694156240E+03  0.00000000000E+00 0. -1.
         21   -1    0    0  502  503 -0.00000000000E+00 -0.00000000000E+00 -0.42211208189E+03  0.42211208189E+03  0.00000000000E+00 0. -1.
          6    1    1    2  501    0 -0.84722724180E+02 -0.10053539234E+03 -0.96359533743E+02  0.23769616078E+03  0.17300000000E+03 0. -1.
         -6    1    1    2    0  503  0.84722724180E+02  0.10053539234E+03 -0.20881098575E+03  0.30135748352E+03  0.17300000000E+03 0. -1.
<mgrwt>
<rscale>  2 0.21728853E+03</rscale>
<asrwt>0</asrwt>
<pdfrwt beam="1">  1       21 0.17991009E-01 0.21728853E+03</pdfrwt>
<pdfrwt beam="2">  1       21 0.64940321E-01 0.21728853E+03</pdfrwt>
<totfact> 0.60679875E+04</totfact>
</mgrwt>
</event>
<event>
 4    1  0.4495571E+000  0.1901825E+03  0.7546771E-02  0.1158297E+00
         21   -1    0    0  503  502  0.00000000000E+00  0.00000000000E+00  0.47057180423E+03  0.47057180423E+03  0.00000000000E+00 0. -1.
         21   -1    0    0  501  503 -0.00000000000E+00 -0.00000000000E+00 -0.24875772974E+03  0.24875772974E+03  0.00000000000E+00 0. -1.
          6    1    1    2  501    0  0.56710895709E+02 -0.54993081462E+02 -0.18807246217E+03  0.26747077546E+03  0.17300000000E+03 0. -1.
         -6    1    1    2    0  502 -0.56710895709E+02  0.54993081462E+02  0.40988653666E+03  0.45185875850E+03  0.17300000000E+03 0. -1.
<mgrwt>
<rscale>  2 0.19018245E+03</rscale>
<asrwt>0</asrwt>
<pdfrwt beam="1">  1       21 0.72395662E-01 0.19018245E+03</pdfrwt>
<pdfrwt beam="2">  1       21 0.38270420E-01 0.19018245E+03</pdfrwt>
<totfact> 0.11344156E+04</totfact>
</mgrwt>
</event>
<event>
 4    1  0.4495571E+000  0.1894719E+03  0.7546771E-02  0.1158939E+00
         21   -1    0    0  503  502  0.00000000000E+00  0.00000000000E+00  0.73470325404E+03  0.73470325404E+03  0.00000000000E+00 0. -1.
         21   -1    0    0  501  503 -0.00000000000E+00 -0.00000000000E+00 -0.65558750167E+02  0.65558750167E+02  0.00000000000E+00 0. -1.
          6    1    1    2  501    0 -0.74176409314E+02 -0.21644032965E+02  0.53649879028E+03  0.56897324703E+03  0.17300000000E+03 0. -1.
         -6    1    1    2    0  502  0.74176409314E+02  0.21644032965E+02  0.13264571359E+03  0.23128875717E+03  0.17300000000E+03 0. -1.
<mgrwt>
<rscale>  2 0.18947191E+03</rscale>
<asrwt>0</asrwt>
<pdfrwt beam="1">  1       21 0.11303126E+00 0.18947191E+03</pdfrwt>
<pdfrwt beam="2">  1       21 0.10085962E-01 0.18947191E+03</pdfrwt>
<totfact> 0.48950053E+04</totfact>
</mgrwt>
</event>
<event>
 4    1  0.4495571E+000  0.2138780E+03  0.7546771E-02  0.1138531E+00
         21   -1    0    0  501  502  0.00000000000E+00  0.00000000000E+00  0.12810966278E+04  0.12810966278E+04  0.00000000000E+00 0.  1.
         21   -1    0    0  502  503 -0.00000000000E+00 -0.00000000000E+00 -0.42954016295E+02  0.42954016295E+02  0.00000000000E+00 0.  1.
          6    1    1    2  501    0  0.11385271811E+03 -0.53407453229E+02  0.89100298924E+03  0.91631333305E+03  0.17300000000E+03 0.  1.
         -6    1    1    2    0  503 -0.11385271811E+03  0.53407453229E+02  0.34713962230E+03  0.40773731109E+03  0.17300000000E+03 0.  1.
<mgrwt>
<rscale>  2 0.21387800E+03</rscale>
<asrwt>0</asrwt>
<pdfrwt beam="1">  1       21 0.19709176E+00 0.21387800E+03</pdfrwt>
<pdfrwt beam="2">  1       21 0.66083112E-02 0.21387800E+03</pdfrwt>
<totfact> 0.23064198E+04</totfact>
</mgrwt>
</event>
<event>
 4    1  0.4495571E+000  0.2215093E+03  0.7546771E-02  0.1132763E+00
         21   -1    0    0  503  502  0.00000000000E+00  0.00000000000E+00  0.79432272997E+02  0.79432272997E+02  0.00000000000E+00 0. -1.
         21   -1    0    0  501  503 -0.00000000000E+00 -0.00000000000E+00 -0.84624263012E+03  0.84624263012E+03  0.00000000000E+00 0.  1.
          6    1    1    2  501    0  0.13703581488E+03 -0.18935119897E+02 -0.62392575410E+03  0.66207982899E+03  0.17300000000E+03 0.  1.
         -6    1    1    2    0  502 -0.13703581488E+03  0.18935119897E+02 -0.14288460303E+03  0.26359507413E+03  0.17300000000E+03 0. -1.
<mgrwt>
<rscale>  2 0.22150926E+03</rscale>
<asrwt>0</asrwt>
<pdfrwt beam="1">  1       21 0.12220350E-01 0.22150926E+03</pdfrwt>
<pdfrwt beam="2">  1       21 0.13019117E+00 0.22150926E+03</pdfrwt>
<totfact> 0.24037188E+04</totfact>
</mgrwt>
</event>
<event>
 4    1  0.4495571E+000  0.1843495E+03  0.7546771E-02  0.1163659E+00
         21   -1    0    0  501  502  0.00000000000E+00  0.00000000000E+00  0.47994834656E+02  0.47994834656E+02  0.00000000000E+00 0. -1.
         21   -1    0    0  502  503 -0.00000000000E+00 -0.00000000000E+00 -0.77885206129E+03  0.77885206129E+03  0.00000000000E+00 0.  1.
          6    1    1    2  501    0  0.77123801736E+01 -0.63215949360E+02 -0.24081568941E+03  0.30327699109E+03  0.17300000000E+03 0. -1.
         -6    1    1    2    0  503 -0.77123801736E+01  0.63215949360E+02 -0.49004153722E+03  0.52356990485E+03  0.17300000000E+03 0.  1.
<mgrwt>
<rscale>  2 0.18434950E+03</rscale>
<asrwt>0</asrwt>
<pdfrwt beam="1">  1       21 0.73838216E-02 0.18434950E+03</pdfrwt>
<pdfrwt beam="2">  1       21 0.11982338E+00 0.18434950E+03</pdfrwt>
<totfact> 0.73388946E+04</totfact>
</mgrwt>
</event>
<event>
 4    1  0.4495571E+000  0.1916708E+03  0.7546771E-02  0.1156963E+00
         21   -1    0    0  503  502  0.00000000000E+00  0.00000000000E+00  0.12035521015E+03  0.12035521015E+03  0.00000000000E+00 0. -1.
         21   -1    0    0  501  503 -0.00000000000E+00 -0.00000000000E+00 -0.42547756070E+03  0.42547756070E+03  0.00000000000E+00 0. -1.
          6    1    1    2  501    0 -0.77442770102E+02 -0.28483326019E+02 -0.29764015207E+03  0.35401602029E+03  0.17300000000E+03 0. -1.
         -6    1    1    2    0  502  0.77442770102E+02  0.28483326019E+02 -0.74821984823E+01  0.19181675056E+03  0.17300000000E+03 0. -1.
<mgrwt>
<rscale>  2 0.19167077E+03</rscale>
<asrwt>0</asrwt>
<pdfrwt beam="1">  1       21 0.18516186E-01 0.19167077E+03</pdfrwt>
<pdfrwt beam="2">  1       21 0.65458087E-01 0.19167077E+03</pdfrwt>
<totfact> 0.57217395E+04</totfact>
</mgrwt>
</event>
<event>
 4    1  0.4495571E+000  0.1903341E+03  0.7546771E-02  0.1158160E+00
         21   -1    0    0  503  502  0.00000000000E+00  0.00000000000E+00  0.38771663740E+03  0.38771663740E+03  0.00000000000E+00 0.  1.
         21   -1    0    0  501  503 -0.00000000000E+00 -0.00000000000E+00 -0.11181140099E+03  0.11181140099E+03  0.00000000000E+00 0.  1.
          6    1    1    2  501    0 -0.75084111247E+02  0.25699393395E+02  0.36703015145E+02  0.19384064048E+03  0.17300000000E+03 0.  1.
         -6    1    1    2    0  502  0.75084111247E+02 -0.25699393395E+02  0.23920222126E+03  0.30568739791E+03  0.17300000000E+03 0.  1.
<mgrwt>
<rscale>  2 0.19033413E+03</rscale>
<asrwt>0</asrwt>
<pdfrwt beam="1">  1       21 0.59648713E-01 0.19033413E+03</pdfrwt>
<pdfrwt beam="2">  1       21 0.17201754E-01 0.19033413E+03</pdfrwt>
<totfact> 0.80182826E+04</totfact>
</mgrwt>
</event>
<event>
 4    1  0.4495571E+000  0.2000072E+03  0.7546771E-02  0.1149733E+00
         21   -1    0    0  501  502  0.00000000000E+00  0.00000000000E+00  0.45538687863E+03  0.45538687863E+03  0.00000000000E+00 0. -1.
         21   -1    0    0  502  503 -0.00000000000E+00 -0.00000000000E+00 -0.13164700904E+03  0.13164700904E+03  0.00000000000E+00 0. -1.
          6    1    1    2  501    0  0.83592157722E+02  0.55553743184E+02  0.33117936602E+03  0.38688840729E+03  0.17300000000E+03 0. -1.
         -6    1    1    2    0  503 -0.83592157722E+02 -0.55553743184E+02 -0.74394964309E+01  0.20014548039E+03  0.17300000000E+03 0. -1.
<mgrwt>
<rscale>  2 0.20000717E+03</rscale>
<asrwt>0</asrwt>
<pdfrwt beam="1">  1       21 0.70059519E-01 0.20000717E+03</pdfrwt>
<pdfrwt beam="2">  1       21 0.20253386E-01 0.20000717E+03</pdfrwt>
<totfact> 0.41539539E+04</totfact>
</mgrwt>
</event>
<event>
 4    1  0.4495571E+000  0.1960076E+03  0.7546771E-02  0.1153152E+00
         21   -1    0    0  503  502  0.00000000000E+00  0.00000000000E+00  0.28967532776E+03  0.28967532776E+03  0.00000000000E+00 0.  1.
         21   -1    0    0  501  503 -0.00000000000E+00 -0.00000000000E+00 -0.13297468153E+03  0.13297468153E+03  0.00000000000E+00 0.  1.
          6    1    1    2  501    0  0.72727621310E+02 -0.56574579131E+02  0.67556335619E+02  0.20732305320E+03  0.17300000000E+03 0.  1.
         -6    1    1    2    0  502 -0.72727621310E+02  0.56574579131E+02  0.89144310609E+02  0.21532695609E+03  0.17300000000E+03 0.  1.
<mgrwt>
<rscale>  2 0.19600763E+03</rscale>
<asrwt>0</asrwt>
<pdfrwt beam="1">  1       21 0.44565435E-01 0.19600763E+03</pdfrwt>
<pdfrwt beam="2">  1       21 0.20457643E-01 0.19600763E+03</pdfrwt>
<totfact> 0.10682267E+05</totfact>
</mgrwt>
</event>
<event>
 4    1  0.4495571E+000  0.2368203E+03  0.7546771E-02  0.1121929E+00
         21   -1    0    0  503  502  0.00000000000E+00  0.00000000000E+00  0.73561464830E+02  0.73561464830E+02  0.00000000000E+00 0.  1.
         21   -1    0    0  501  503 -0.00000000000E+00 -0.00000000000E+00 -0.12534203292E+04  0.12534203292E+04  0.00000000000E+00 0.  1.
          6    1    1    2  501    0  0.16169448526E+03 -0.31189331470E+01 -0.10052016624E+04  0.10327217517E+04  0.17300000000E+03 0.  1.
         -6    1    1    2    0  502 -0.16169448526E+03  0.31189331470E+01 -0.17465720191E+03  0.29426004229E+03  0.17300000000E+03 0.  1.
<mgrwt>
<rscale>  2 0.23682026E+03</rscale>
<asrwt>0</asrwt>
<pdfrwt beam="1">  1       21 0.11317149E-01 0.23682026E+03</pdfrwt>
<pdfrwt beam="2">  1       21 0.19283389E+00 0.23682026E+03</pdfrwt>
<totfact> 0.94079077E+03</totfact>
</mgrwt>
</event>
<event>
 4    1  0.4495571E+000  0.3566167E+03  0.7546771E-02  0.1059932E+00
         21   -1    0    0  501  502  0.00000000000E+00  0.00000000000E+00  0.25749136306E+03  0.25749136306E+03  0.00000000000E+00 0. -1.
         21   -1    0    0  502  503 -0.00000000000E+00 -0.00000000000E+00 -0.62005761424E+03  0.62005761424E+03  0.00000000000E+00 0.  1.
          6    1    1    2  501    0 -0.27733112152E+02 -0.31060799937E+03  0.16631976386E+02  0.35700431009E+03  0.17300000000E+03 0. -1.
         -6    1    1    2    0  503  0.27733112152E+02  0.31060799937E+03 -0.37919822757E+03  0.52054466722E+03  0.17300000000E+03 0.  1.
<mgrwt>
<rscale>  2 0.35661668E+03</rscale>
<asrwt>0</asrwt>
<pdfrwt beam="1">  1       21 0.39614056E-01 0.35661668E+03</pdfrwt>
<pdfrwt beam="2">  1       21 0.95393479E-01 0.35661668E+03</pdfrwt>
<totfact> 0.51268084E+03</totfact>
</mgrwt>
</event>
<event>
 4    1  0.4495571E+000  0.1861765E+03  0.7546771E-02  0.1161956E+00
         21   -1    0    0  503  502  0.00000000000E+00  0.00000000000E+00  0.22144140249E+03  0.22144140249E+03  0.00000000000E+00 0.  1.
         21   -1    0    0  501  503 -0.00000000000E+00 -0.00000000000E+00 -0.17025496361E+03  0.17025496361E+03  0.00000000000E+00 0.  1.
          6    1    1    2  501    0  0.68358621576E+02 -0.77318992333E+01 -0.30018175133E+02  0.18858094879E+03  0.17300000000E+03 0.  1.
         -6    1    1    2    0  502 -0.68358621576E+02  0.77318992333E+01  0.81204614009E+02  0.20311541730E+03  0.17300000000E+03 0.  1.
<mgrwt>
<rscale>  2 0.18617648E+03</rscale>
<asrwt>0</asrwt>
<pdfrwt beam="1">  1       21 0.34067908E-01 0.18617648E+03</pdfrwt>
<pdfrwt beam="2">  1       21 0.26193071E-01 0.18617648E+03</pdfrwt>
<totfact> 0.11527686E+05</totfact>
</mgrwt>
</event>
<event>
 4    1  0.4495571E+000  0.1816183E+03  0.7546771E-02  0.1166246E+00
         21   -1    0    0  501  502  0.00000000000E+00  0.00000000000E+00  0.11629622058E+03  0.11629622058E+03  0.00000000000E+00 0. -1.
         21   -1    0    0  502  503 -0.00000000000E+00 -0.00000000000E+00 -0.56515344344E+03  0.56515344344E+03  0.00000000000E+00 0. -1.
          6    1    1    2  501    0  0.54772656751E+02  0.74938706990E+01  0.16050403202E+02  0.18232612942E+03  0.17300000000E+03 0. -1.
         -6    1    1    2    0  503 -0.54772656751E+02 -0.74938706990E+01 -0.46490762606E+03  0.49912353460E+03  0.17300000000E+03 0. -1.
<mgrwt>
<rscale>  2 0.18161829E+03</rscale>
<asrwt>0</asrwt>
<pdfrwt beam="1">  1       21 0.17891726E-01 0.18161829E+03</pdfrwt>
<pdfrwt beam="2">  1       21 0.86946684E-01 0.18161829E+03</pdfrwt>
<totfact> 0.32492244E+04</totfact>
</mgrwt>
</event>
<event>
 4    1  0.4495571E+000  0.2272291E+03  0.7546771E-02  0.1128605E+00
         21   -1    0    0  503  502  0.00000000000E+00  0.00000000000E+00  0.25551745833E+03  0.25551745833E+03  0.00000000000E+00 0. -1.
         21   -1    0    0  501  503 -0.00000000000E+00 -0.00000000000E+00 -0.42746531673E+03  0.42746531673E+03  0.00000000000E+00 0. -1.
          6    1    1    2  501    0 -0.14647845697E+03 -0.15752602678E+02 -0.33394398015E+03  0.40392036929E+03  0.17300000000E+03 0. -1.
         -6    1    1    2    0  502  0.14647845697E+03  0.15752602678E+02  0.16199612175E+03  0.27906240577E+03  0.17300000000E+03 0. -1.
<mgrwt>
<rscale>  2 0.22722914E+03</rscale>
<asrwt>0</asrwt>
<pdfrwt beam="1">  1       21 0.39310378E-01 0.22722914E+03</pdfrwt>
<pdfrwt beam="2">  1       21 0.65763895E-01 0.22722914E+03</pdfrwt>
<totfact> 0.12971317E+04</totfact>
</mgrwt>
</event>
<event>
 4    1  0.4495571E+000  0.1900573E+03  0.7546771E-02  0.1158410E+00
         21   -1    0    0  503  502  0.00000000000E+00  0.00000000000E+00  0.21447644288E+03  0.21447644288E+03  0.00000000000E+00 0.  1.
         21   -1    0    0  501  503 -0.00000000000E+00 -0.00000000000E+00 -0.17960498898E+03  0.17960498898E+03  0.00000000000E+00 0. -1.
          6    1    1    2  501    0 -0.32227439569E+02  0.71792460041E+02 -0.31739559865E+02  0.19268929612E+03  0.17300000000E+03 0.  1.
         -6    1    1    2    0  502  0.32227439569E+02 -0.71792460041E+02  0.66611013772E+02  0.20139213573E+03  0.17300000000E+03 0.  1.
<mgrwt>
<rscale>  2 0.19005727E+03</rscale>
<asrwt>0</asrwt>
<pdfrwt beam="1">  1       21 0.32996376E-01 0.19005727E+03</pdfrwt>
<pdfrwt beam="2">  1       21 0.27631537E-01 0.19005727E+03</pdfrwt>
<totfact> 0.11063305E+05</totfact>
</mgrwt>
</event>
<event>
 4    1  0.4495571E+000  0.1914874E+03  0.7546771E-02  0.1157127E+00
         21   -1    0    0  501  502  0.00000000000E+00  0.00000000000E+00  0.38656230558E+03  0.38656230558E+03  0.00000000000E+00 0. -1.
         21   -1    0    0  502  503 -0.00000000000E+00 -0.00000000000E+00 -0.97075262450E+02  0.97075262450E+02  0.00000000000E+00 0. -1.
          6    1    1    2  501    0 -0.24436709433E+02  0.78366255999E+02  0.18131343215E+03  0.26370814080E+03  0.17300000000E+03 0. -1.
         -6    1    1    2    0  503  0.24436709433E+02 -0.78366255999E+02  0.10817361097E+03  0.21992942722E+03  0.17300000000E+03 0. -1.
<mgrwt>
<rscale>  2 0.19148740E+03</rscale>
<asrwt>0</asrwt>
<pdfrwt beam="1">  1       21 0.59471123E-01 0.19148740E+03</pdfrwt>
<pdfrwt beam="2">  1       21 0.14934656E-01 0.19148740E+03</pdfrwt>
<totfact> 0.10447499E+05</totfact>
</mgrwt>
</event>
<event>
 4    1  0.4495571E+000  0.2890751E+03  0.7546771E-02  0.1090833E+00
         21   -1    0    0  501  502  0.00000000000E+00  0.00000000000E+00  0.13872016685E+04  0.13872016685E+04  0.00000000000E+00 0. -1.
         21   -1    0    0  502  503 -0.00000000000E+00 -0.00000000000E+00 -0.60254051640E+02  0.60254051640E+02  0.00000000000E+00 0.  1.
          6    1    1    2  501    0  0.22428664712E+03 -0.57713946068E+02  0.65224482071E+03  0.71343374310E+03  0.17300000000E+03 0. -1.
         -6    1    1    2    0  503 -0.22428664712E+03  0.57713946068E+02  0.67470279611E+03  0.73402197700E+03  0.17300000000E+03 0. -1.
<mgrwt>
<rscale>  2 0.28907508E+03</rscale>
<asrwt>0</asrwt>
<pdfrwt beam="1">  1       21 0.21341562E+00 0.28907508E+03</pdfrwt>
<pdfrwt beam="2">  1       21 0.92698552E-02 0.28907508E+03</pdfrwt>
<totfact> 0.95552046E+03</totfact>
</mgrwt>
</event>
<event>
 4    1  0.4495571E+000  0.2316964E+03  0.7546771E-02  0.1125451E+00
         21   -1    0    0  503  502  0.00000000000E+00  0.00000000000E+00  0.15999344021E+04  0.15999344021E+04  0.00000000000E+00 0.  1.
         21   -1    0    0  501  503 -0.00000000000E+00 -0.00000000000E+00 -0.63449588859E+02  0.63449588859E+02  0.00000000000E+00 0.  1.
          6    1    1    2  501    0 -0.14569264001E+03 -0.50278168870E+02  0.19734768613E+03  0.30435070041E+03  0.17300000000E+03 0.  1.
         -6    1    1    2    0  502  0.14569264001E+03  0.50278168870E+02  0.13391371271E+04  0.13590332905E+04  0.17300000000E+03 0.  1.
<mgrwt>
<rscale>  2 0.23169644E+03</rscale>
<asrwt>0</asrwt>
<pdfrwt beam="1">  1       21 0.24614373E+00 0.23169644E+03</pdfrwt>
<pdfrwt beam="2">  1       21 0.97614764E-02 0.23169644E+03</pdfrwt>
<totfact> 0.57184843E+03</totfact>
</mgrwt>
</event>
<event>
 4    1  0.4495571E+000  0.2811540E+03  0.7546771E-02  0.1095060E+00
         21   -1    0    0  503  502  0.00000000000E+00  0.00000000000E+00  0.85574793916E+03  0.85574793916E+03  0.00000000000E+00 0. -1.
         21   -1    0    0  501  503 -0.00000000000E+00 -0.00000000000E+00 -0.10301268081E+03  0.10301268081E+03  0.00000000000E+00 0. -1.
          6    1    1    2  501    0 -0.12917450118E+03  0.18009023439E+03  0.22230045398E+03  0.35842019491E+03  0.17300000000E+03 0. -1.
         -6    1    1    2    0  502  0.12917450118E+03 -0.18009023439E+03  0.53043480437E+03  0.60034042506E+03  0.17300000000E+03 0. -1.
<mgrwt>
<rscale>  2 0.28115395E+03</rscale>
<asrwt>0</asrwt>
<pdfrwt beam="1">  1       21 0.13165352E+00 0.28115395E+03</pdfrwt>
<pdfrwt beam="2">  1       21 0.15848105E-01 0.28115395E+03</pdfrwt>
<totfact> 0.14101212E+04</totfact>
</mgrwt>
</event>
<event>
 4    1  0.4495571E+000  0.1890417E+03  0.7546771E-02  0.1159328E+00
         21   -1    0    0  503  502  0.00000000000E+00  0.00000000000E+00  0.26171929204E+04  0.26171929204E+04  0.00000000000E+00 0.  1.
         21   -1    0    0  501  503 -0.00000000000E+00 -0.00000000000E+00 -0.14325510247E+02  0.14325510247E+02  0.00000000000E+00 0.  1.
          6    1    1    2  501    0  0.31200328062E+01  0.76144871815E+02  0.10166947105E+04  0.10341203559E+04  0.17300000000E+03 0.  1.
         -6    1    1    2    0  502 -0.31200328062E+01 -0.76144871815E+02  0.15861726996E+04  0.15973980748E+04  0.17300000000E+03 0.  1.
<mgrwt>
<rscale>  2 0.18904173E+03</rscale>
<asrwt>0</asrwt>
<pdfrwt beam="1">  1       21 0.40264468E+00 0.18904173E+03</pdfrwt>
<pdfrwt beam="2">  1       21 0.22039267E-02 0.18904173E+03</pdfrwt>
<totfact> 0.88543528E+03</totfact>
</mgrwt>
</event>
<event>
 4    1  0.4495571E+000  0.1835753E+03  0.7546771E-02  0.1164387E+00
         21   -1    0    0  501  502  0.00000000000E+00  0.00000000000E+00  0.99819292082E+02  0.99819292082E+02  0.00000000000E+00 0. -1.
         21   -1    0    0  502  503 -0.00000000000E+00 -0.00000000000E+00 -0.39222797772E+03  0.39222797772E+03  0.00000000000E+00 0. -1.
          6    1    1    2  501    0  0.27779572972E+02 -0.54764844983E+02 -0.54396608726E+02  0.19146509855E+03  0.17300000000E+03 0. -1.
         -6    1    1    2    0  503 -0.27779572972E+02  0.54764844983E+02 -0.23801207691E+03  0.30058217125E+03  0.17300000000E+03 0. -1.
<mgrwt>
<rscale>  2 0.18357531E+03</rscale>
<asrwt>0</asrwt>
<pdfrwt beam="1">  1       21 0.15356814E-01 0.18357531E+03</pdfrwt>
<pdfrwt beam="2">  1       21 0.60342766E-01 0.18357531E+03</pdfrwt>
<totfact> 0.96538047E+04</totfact>
</mgrwt>
</event>
<event>
 4    1  0.4495571E+000  0.2330820E+03  0.7546771E-02  0.1124489E+00
         21   -1    0    0  501  502  0.00000000000E+00  0.00000000000E+00  0.72493120521E+03  0.72493120521E+03  0.00000000000E+00 0. -1.
         21   -1    0    0  502  503 -0.00000000000E+00 -0.00000000000E+00 -0.85965987668E+02  0.85965987668E+02  0.00000000000E+00 0.  1.
          6    1    1    2  501    0  0.67701180753E+02 -0.14076491955E+03  0.46467960889E+03  0.51985993438E+03  0.17300000000E+03 0.  1.
         -6    1    1    2    0  503 -0.67701180753E+02  0.14076491955E+03  0.17428560865E+03  0.29103725850E+03  0.17300000000E+03 0.  1.
<mgrwt>
<rscale>  2 0.23308199E+03</rscale>
<asrwt>0</asrwt>
<pdfrwt beam="1">  1       21 0.11152787E+00 0.23308199E+03</pdfrwt>
<pdfrwt beam="2">  1       21 0.13225537E-01 0.23308199E+03</pdfrwt>
<totfact> 0.30443537E+04</totfact>
</mgrwt>
</event>
<event>
 4    1  0.4495571E+000  0.2920206E+03  0.7546771E-02  0.1089299E+00
         21   -1    0    0  503  502  0.00000000000E+00  0.00000000000E+00  0.22469549875E+04  0.22469549875E+04  0.00000000000E+00 0. -1.
         21   -1    0    0  501  503 -0.00000000000E+00 -0.00000000000E+00 -0.52594245828E+02  0.52594245828E+02  0.00000000000E+00 0.  1.
          6    1    1    2  501    0 -0.11967224975E+03 -0.20254778974E+03  0.17038468004E+04  0.17286902481E+04  0.17300000000E+03 0. -1.
         -6    1    1    2    0  502  0.11967224975E+03  0.20254778974E+03  0.49051394132E+03  0.57085898532E+03  0.17300000000E+03 0.  1.
<mgrwt>
<rscale>  2 0.29202064E+03</rscale>
<asrwt>0</asrwt>
<pdfrwt beam="1">  1       21 0.34568531E+00 0.29202064E+03</pdfrwt>
<pdfrwt beam="2">  1       21 0.80914242E-02 0.29202064E+03</pdfrwt>
<totfact> 0.19555877E+03</totfact>
</mgrwt>
</event>
<event>
 4    1  0.4495571E+000  0.1942273E+03  0.7546771E-02  0.1154703E+00
         21   -1    0    0  501  502  0.00000000000E+00  0.00000000000E+00  0.30301612644E+03  0.30301612644E+03  0.00000000000E+00 0. -1.
         21   -1    0    0  502  503 -0.00000000000E+00 -0.00000000000E+00 -0.19796125429E+03  0.19796125429E+03  0.00000000000E+00 0.  1.
          6    1    1    2  501    0  0.41288416015E+02  0.78041660672E+02  0.20512219501E+03  0.28248778555E+03  0.17300000000E+03 0. -1.
         -6    1    1    2    0  503 -0.41288416015E+02 -0.78041660672E+02 -0.10006732287E+03  0.21848959518E+03  0.17300000000E+03 0.  1.
<mgrwt>
<rscale>  2 0.19422727E+03</rscale>
<asrwt>0</asrwt>
<pdfrwt beam="1">  1       21 0.46617866E-01 0.19422727E+03</pdfrwt>
<pdfrwt beam="2">  1       21 0.30455578E-01 0.19422727E+03</pdfrwt>
<totfact> 0.45560804E+04</totfact>
</mgrwt>
</event>
<event>
 4    1  0.4495571E+000  0.2021040E+03  0.7546771E-02  0.1147976E+00
         21   -1    0    0  501  502  0.00000000000E+00  0.00000000000E+00  0.17239111437E+04  0.17239111437E+04  0.00000000000E+00 0. -1.
         21   -1    0    0  502  503 -0.00000000000E+00 -0.00000000000E+00 -0.43555195642E+02  0.43555195642E+02  0.00000000000E+00 0. -1.
          6    1    1    2  501    0  0.85035544002E+01  0.10413792708E+03  0.14369465879E+04  0.14510897680E+04  0.17300000000E+03 0. -1.
         -6    1    1    2    0  503 -0.85035544002E+01 -0.10413792708E+03  0.24340936021E+03  0.31637657140E+03  0.17300000000E+03 0. -1.
<mgrwt>
<rscale>  2 0.20210398E+03</rscale>
<asrwt>0</asrwt>
<pdfrwt beam="1">  1       21 0.26521705E+00 0.20210398E+03</pdfrwt>
<pdfrwt beam="2">  1       21 0.67008007E-02 0.20210398E+03</pdfrwt>
<totfact> 0.87558406E+03</totfact>
</mgrwt>
</event>
<event>
 4    1  0.4495571E+000  0.1877721E+03  0.7546771E-02  0.1160486E+00
         21   -1    0    0  501  502  0.00000000000E+00  0.00000000000E+00  0.27455239056E+02  0.27455239056E+02  0.00000000000E+00 0.  1.
         21   -1    0    0  502  503 -0.00000000000E+00 -0.00000000000E+00 -0.16210758563E+04  0.16210758563E+04  0.00000000000E+00 0.  1.
          6    1    1    2  501    0  0.13748838643E+02  0.71695985866E+02 -0.42106571044E+03  0.46103652508E+03  0.17300000000E+03 0.  1.
         -6    1    1    2    0  503 -0.13748838643E+02 -0.71695985866E+02 -0.11725549068E+04  0.11874945703E+04  0.17300000000E+03 0.  1.
<mgrwt>
<rscale>  2 0.18777206E+03</rscale>
<asrwt>0</asrwt>
<pdfrwt beam="1">  1       21 0.42238840E-02 0.18777206E+03</pdfrwt>
<pdfrwt beam="2">  1       21 0.24939622E+00 0.18777206E+03</pdfrwt>
<totfact> 0.24075268E+04</totfact>
</mgrwt>
</event>
<event>
 4    1  0.4495571E+000  0.3176881E+03  0.7546771E-02  0.1076718E+00
         21   -1    0    0  501  502  0.00000000000E+00  0.00000000000E+00  0.40416235975E+03  0.40416235975E+03  0.00000000000E+00 0.  1.
         21   -1    0    0  502  503 -0.00000000000E+00 -0.00000000000E+00 -0.27146791912E+03  0.27146791912E+03  0.00000000000E+00 0. -1.
          6    1    1    2  501    0  0.15337007726E+03  0.21788614570E+03  0.16197190012E+03  0.35659591909E+03  0.17300000000E+03 0.  1.
         -6    1    1    2    0  503 -0.15337007726E+03 -0.21788614570E+03 -0.29277459488E+02  0.31903435978E+03  0.17300000000E+03 0. -1.
<mgrwt>
<rscale>  2 0.31768814E+03</rscale>
<asrwt>0</asrwt>
<pdfrwt beam="1">  1       21 0.62178825E-01 0.31768814E+03</pdfrwt>
<pdfrwt beam="2">  1       21 0.41764295E-01 0.31768814E+03</pdfrwt>
<totfact> 0.12404302E+04</totfact>
</mgrwt>
</event>
<event>
 4    1  0.4495571E+000  0.1860770E+03  0.7546771E-02  0.1162048E+00
         21   -1    0    0  501  502  0.00000000000E+00  0.00000000000E+00  0.21427911019E+04  0.21427911019E+04  0.00000000000E+00 0. -1.
         21   -1    0    0  502  503 -0.00000000000E+00 -0.00000000000E+00 -0.51560336012E+02  0.51560336012E+02  0.00000000000E+00 0. -1.
          6    1    1    2  501    0  0.65264225927E+02  0.20886324109E+02  0.19547541118E+04  0.19635906639E+04  0.17300000000E+03 0. -1.
         -6    1    1    2    0  503 -0.65264225927E+02 -0.20886324109E+02  0.13647665411E+03  0.23076077405E+03  0.17300000000E+03 0. -1.
<mgrwt>
<rscale>  2 0.18607702E+03</rscale>
<asrwt>0</asrwt>
<pdfrwt beam="1">  1       21 0.32966010E+00 0.18607702E+03</pdfrwt>
<pdfrwt beam="2">  1       21 0.79323610E-02 0.18607702E+03</pdfrwt>
<totfact> 0.28262224E+03</totfact>
</mgrwt>
</event>
<event>
 4    1  0.4495571E+000  0.2265585E+03  0.7546771E-02  0.1129086E+00
         21   -1    0    0  503  502  0.00000000000E+00  0.00000000000E+00  0.59332544403E+03  0.59332544403E+03  0.00000000000E+00 0.  1.
         21   -1    0    0  501  503 -0.00000000000E+00 -0.00000000000E+00 -0.26267256892E+03  0.26267256892E+03  0.00000000000E+00 0. -1.
          6    1    1    2  501    0 -0.10581904847E+03  0.10100545997E+03 -0.18517663004E+03  0.29260751575E+03  0.17300000000E+03 0.  1.
         -6    1    1    2    0  502  0.10581904847E+03 -0.10100545997E+03  0.51582950514E+03  0.56339049720E+03  0.17300000000E+03 0.  1.
<mgrwt>
<rscale>  2 0.22655854E+03</rscale>
<asrwt>0</asrwt>
<pdfrwt beam="1">  1       21 0.91280837E-01 0.22655854E+03</pdfrwt>
<pdfrwt beam="2">  1       21 0.40411165E-01 0.22655854E+03</pdfrwt>
<totfact> 0.58522817E+03</totfact>
</mgrwt>
</event>
<event>
 4    1  0.4495571E+000  0.1870600E+03  0.7546771E-02  0.1161140E+00
         21   -1    0    0  501  502  0.00000000000E+00  0.00000000000E+00  0.58631136101E+03  0.58631136101E+03  0.00000000000E+00 0. -1.
         21   -1    0    0  502  503 -0.00000000000E+00 -0.00000000000E+00 -0.94323159067E+02  0.94323159067E+02  0.00000000000E+00 0. -1.
          6    1    1    2  501    0  0.17867414707E+02 -0.68870955180E+02  0.39751027736E+02  0.19123701834E+03  0.17300000000E+03 0.  1.
         -6    1    1    2    0  503 -0.17867414707E+02  0.68870955180E+02  0.45223717421E+03  0.48939750174E+03  0.17300000000E+03 0.  1.
<mgrwt>
<rscale>  2 0.18706003E+03</rscale>
<asrwt>0</asrwt>
<pdfrwt beam="1">  1       21 0.90201745E-01 0.18706003E+03</pdfrwt>
<pdfrwt beam="2">  1       21 0.14511256E-01 0.18706003E+03</pdfrwt>
<totfact> 0.43668523E+04</totfact>
</mgrwt>
</event>
<event>
 4    1  0.4495571E+000  0.1779379E+03  0.7546771E-02  0.1169814E+00
         21   -1    0    0  503  502  0.00000000000E+00  0.00000000000E+00  0.64727140235E+03  0.64727140235E+03  0.00000000000E+00 0. -1.
         21   -1    0    0  501  503 -0.00000000000E+00 -0.00000000000E+00 -0.89364479539E+02  0.89364479539E+02  0.00000000000E+00 0. -1.
          6    1    1    2  501    0 -0.79586437952E+01  0.40860227555E+02  0.31158908218E+02  0.18064544215E+03  0.17300000000E+03 0. -1.
         -6    1    1    2    0  502  0.79586437952E+01 -0.40860227555E+02  0.52674801460E+03  0.55599043975E+03  0.17300000000E+03 0. -1.
<mgrwt>
<rscale>  2 0.17793791E+03</rscale>
<asrwt>0</asrwt>
<pdfrwt beam="1">  1       21 0.99580213E-01 0.17793791E+03</pdfrwt>
<pdfrwt beam="2">  1       21 0.13748382E-01 0.17793791E+03</pdfrwt>
<totfact> 0.38400601E+04</totfact>
</mgrwt>
</event>
<event>
 4    1  0.4495571E+000  0.2788696E+03  0.7546771E-02  0.1096308E+00
         21   -1    0    0  501  502  0.00000000000E+00  0.00000000000E+00  0.44807653527E+02  0.44807653527E+02  0.00000000000E+00 0. -1.
         21   -1    0    0  502  503 -0.00000000000E+00 -0.00000000000E+00 -0.20514173975E+04  0.20514173975E+04  0.00000000000E+00 0. -1.
          6    1    1    2  501    0 -0.19841799537E+03 -0.92030097729E+02 -0.59206260162E+03  0.65445119299E+03  0.17300000000E+03 0. -1.
         -6    1    1    2    0  503  0.19841799537E+03  0.92030097729E+02 -0.14145471424E+04  0.14417738581E+04  0.17300000000E+03 0. -1.
<mgrwt>
<rscale>  2 0.27886957E+03</rscale>
<asrwt>0</asrwt>
<pdfrwt beam="1">  1       21 0.68934841E-02 0.27886957E+03</pdfrwt>
<pdfrwt beam="2">  1       21 0.31560273E+00 0.27886957E+03</pdfrwt>
<totfact> 0.39494616E+03</totfact>
</mgrwt>
</event>
<event>
 4    1  0.4495571E+000  0.2027946E+03  0.7546771E-02  0.1147402E+00
         21   -1    0    0  501  502  0.00000000000E+00  0.00000000000E+00  0.17274622126E+03  0.17274622126E+03  0.00000000000E+00 0. -1.
         21   -1    0    0  502  503 -0.00000000000E+00 -0.00000000000E+00 -0.32632594547E+03  0.32632594547E+03  0.00000000000E+00 0. -1.
          6    1    1    2  501    0  0.10136387467E+03 -0.30364435456E+02  0.52981952106E+02  0.20960133892E+03  0.17300000000E+03 0. -1.
         -6    1    1    2    0  503 -0.10136387467E+03  0.30364435456E+02 -0.20656167632E+03  0.28947082781E+03  0.17300000000E+03 0. -1.
<mgrwt>
<rscale>  2 0.20279456E+03</rscale>
<asrwt>0</asrwt>
<pdfrwt beam="1">  1       21 0.26576342E-01 0.20279456E+03</pdfrwt>
<pdfrwt beam="2">  1       21 0.50203991E-01 0.20279456E+03</pdfrwt>
<totfact> 0.50652228E+04</totfact>
</mgrwt>
</event>
<event>
 4    1  0.4495571E+000  0.2334038E+03  0.7546771E-02  0.1124267E+00
         21   -1    0    0  503  502  0.00000000000E+00  0.00000000000E+00  0.58661788816E+03  0.58661788816E+03  0.00000000000E+00 0.  1.
         21   -1    0    0  501  503 -0.00000000000E+00 -0.00000000000E+00 -0.11577937264E+03  0.11577937264E+03  0.00000000000E+00 0. -1.
          6    1    1    2  501    0  0.14136289961E+03 -0.67563849418E+02  0.79185862939E+02  0.24647057436E+03  0.17300000000E+03 0. -1.
         -6    1    1    2    0  502 -0.14136289961E+03  0.67563849418E+02  0.39165265258E+03  0.45592668644E+03  0.17300000000E+03 0.  1.
<mgrwt>
<rscale>  2 0.23340382E+03</rscale>
<asrwt>0</asrwt>
<pdfrwt beam="1">  1       21 0.90248904E-01 0.23340382E+03</pdfrwt>
<pdfrwt beam="2">  1       21 0.17812211E-01 0.23340382E+03</pdfrwt>
<totfact> 0.29234289E+04</totfact>
</mgrwt>
</event>
<event>
 4    1  0.4495571E+000  0.1749752E+03  0.7546771E-02  0.1172757E+00
         21   -1    0    0  501  502  0.00000000000E+00  0.00000000000E+00  0.22715873503E+02  0.22715873503E+02  0.00000000000E+00 0.  1.
         21   -1    0    0  502  503 -0.00000000000E+00 -0.00000000000E+00 -0.14984085464E+04  0.14984085464E+04  0.00000000000E+00 0.  1.
          6    1    1    2  501    0 -0.18381605054E+02 -0.18693438721E+02 -0.49671567151E+03  0.52663344593E+03  0.17300000000E+03 0.  1.
         -6    1    1    2    0  503  0.18381605054E+02  0.18693438721E+02 -0.97897700135E+03  0.99449097393E+03  0.17300000000E+03 0.  1.
<mgrwt>
<rscale>  2 0.17497522E+03</rscale>
<asrwt>0</asrwt>
<pdfrwt beam="1">  1       21 0.34947501E-02 0.17497522E+03</pdfrwt>
<pdfrwt beam="2">  1       21 0.23052437E+00 0.17497522E+03</pdfrwt>
<totfact> 0.43209399E+04</totfact>
</mgrwt>
</event>
<event>
 4    1  0.4495571E+000  0.2467156E+03  0.7546771E-02  0.1115398E+00
         21   -1    0    0  503  502  0.00000000000E+00  0.00000000000E+00  0.33202103326E+02  0.33202103326E+02  0.00000000000E+00 0.  1.
         21   -1    0    0  501  503 -0.00000000000E+00 -0.00000000000E+00 -0.21054207751E+04  0.21054207751E+04  0.00000000000E+00 0.  1.
          6    1    1    2  501    0  0.58770072512E+02 -0.16578797951E+03 -0.14205557453E+04  0.14418207937E+04  0.17300000000E+03 0.  1.
         -6    1    1    2    0  502 -0.58770072512E+02  0.16578797951E+03 -0.65166292648E+03  0.69680208476E+03  0.17300000000E+03 0.  1.
<mgrwt>
<rscale>  2 0.24671558E+03</rscale>
<asrwt>0</asrwt>
<pdfrwt beam="1">  1       21 0.51080152E-02 0.24671558E+03</pdfrwt>
<pdfrwt beam="2">  1       21 0.32391093E+00 0.24671558E+03</pdfrwt>
<totfact> 0.60862040E+03</totfact>
</mgrwt>
</event>
<event>
 4    1  0.4495571E+000  0.1757573E+03  0.7546771E-02  0.1171973E+00
         21   -1    0    0  503  502  0.00000000000E+00  0.00000000000E+00  0.51793626765E+03  0.51793626765E+03  0.00000000000E+00 0.  1.
         21   -1    0    0  501  503 -0.00000000000E+00 -0.00000000000E+00 -0.68649447525E+02  0.68649447525E+02  0.00000000000E+00 0.  1.
          6    1    1    2  501    0  0.29502045557E+02 -0.95529972884E+01  0.11840302761E+03  0.21191957766E+03  0.17300000000E+03 0.  1.
         -6    1    1    2    0  502 -0.29502045557E+02  0.95529972884E+01  0.33088379252E+03  0.37466613751E+03  0.17300000000E+03 0.  1.
<mgrwt>
<rscale>  2 0.17575731E+03</rscale>
<asrwt>0</asrwt>
<pdfrwt beam="1">  1       21 0.79682500E-01 0.17575731E+03</pdfrwt>
<pdfrwt beam="2">  1       21 0.10561454E-01 0.17575731E+03</pdfrwt>
<totfact> 0.10291490E+05</totfact>
</mgrwt>
</event>
<event>
 4    1  0.4495571E+000  0.2504483E+03  0.7546771E-02  0.1113022E+00
         21   -1    0    0  503  502  0.00000000000E+00  0.00000000000E+00  0.13014562605E+03  0.13014562605E+03  0.00000000000E+00 0. -1.
         21   -1    0    0  501  503 -0.00000000000E+00 -0.00000000000E+00 -0.50329532055E+03  0.50329532055E+03  0.00000000000E+00 0. -1.
          6    1    1    2  501    0  0.16268210139E+03 -0.79560604031E+02 -0.25179225738E+03  0.35513898224E+03  0.17300000000E+03 0. -1.
         -6    1    1    2    0  502 -0.16268210139E+03  0.79560604031E+02 -0.12135743712E+03  0.27830196437E+03  0.17300000000E+03 0. -1.
<mgrwt>
<rscale>  2 0.25044831E+03</rscale>
<asrwt>0</asrwt>
<pdfrwt beam="1">  1       21 0.20022404E-01 0.25044831E+03</pdfrwt>
<pdfrwt beam="2">  1       21 0.77430048E-01 0.25044831E+03</pdfrwt>
<totfact> 0.33134012E+04</totfact>
</mgrwt>
</event>
<event>
 4    1  0.4495571E+000  0.1941817E+03  0.7546771E-02  0.1154743E+00
         21   -1    0    0  503  502  0.00000000000E+00  0.00000000000E+00  0.15910132901E+03  0.15910132901E+03  0.00000000000E+00 0.  1.
         21   -1    0    0  501  503 -0.00000000000E+00 -0.00000000000E+00 -0.24034807282E+03  0.24034807282E+03  0.00000000000E+00 0.  1.
          6    1    1    2  501    0  0.43695698337E+02 -0.76604291801E+02 -0.64206742364E+02  0.20452148381E+03  0.17300000000E+03 0.  1.
         -6    1    1    2    0  502 -0.43695698337E+02  0.76604291801E+02 -0.17040001450E+02  0.19492791802E+03  0.17300000000E+03 0.  1.
<mgrwt>
<rscale>  2 0.19418170E+03</rscale>
<asrwt>0</asrwt>
<pdfrwt beam="1">  1       21 0.24477128E-01 0.19418170E+03</pdfrwt>
<pdfrwt beam="2">  1       21 0.36976626E-01 0.19418170E+03</pdfrwt>
<totfact> 0.11117731E+05</totfact>
</mgrwt>
</event>
<event>
 4    1  0.4495571E+000  0.2127193E+03  0.7546771E-02  0.1139431E+00
         21   -1    0    0  503  502  0.00000000000E+00  0.00000000000E+00  0.40467920096E+02  0.40467920096E+02  0.00000000000E+00 0. -1.
         21   -1    0    0  501  503 -0.00000000000E+00 -0.00000000000E+00 -0.11831279864E+04  0.11831279864E+04  0.00000000000E+00 0.  1.
          6    1    1    2  501    0 -0.11929967054E+03  0.32986250663E+02 -0.42796258159E+03  0.47791366937E+03  0.17300000000E+03 0. -1.
         -6    1    1    2    0  502  0.11929967054E+03 -0.32986250663E+02 -0.71469748475E+03  0.74568223717E+03  0.17300000000E+03 0.  1.
<mgrwt>
<rscale>  2 0.21271931E+03</rscale>
<asrwt>0</asrwt>
<pdfrwt beam="1">  1       21 0.62258333E-02 0.21271931E+03</pdfrwt>
<pdfrwt beam="2">  1       21 0.18201971E+00 0.21271931E+03</pdfrwt>
<totfact> 0.32203601E+04</totfact>
</mgrwt>
</event>
<event>
 4    1  0.4495571E+000  0.2377621E+03  0.7546771E-02  0.1121293E+00
         21   -1    0    0  503  502  0.00000000000E+00  0.00000000000E+00  0.14533433852E+03  0.14533433852E+03  0.00000000000E+00 0.  1.
         21   -1    0    0  501  503 -0.00000000000E+00 -0.00000000000E+00 -0.43880526649E+03  0.43880526649E+03  0.00000000000E+00 0.  1.
          6    1    1    2  501    0  0.15129819634E+03 -0.60915328704E+02 -0.24516272979E+03  0.34151952443E+03  0.17300000000E+03 0.  1.
         -6    1    1    2    0  502 -0.15129819634E+03  0.60915328704E+02 -0.48308198181E+02  0.24262008058E+03  0.17300000000E+03 0.  1.
<mgrwt>
<rscale>  2 0.23776211E+03</rscale>
<asrwt>0</asrwt>
<pdfrwt beam="1">  1       21 0.22359129E-01 0.23776211E+03</pdfrwt>
<pdfrwt beam="2">  1       21 0.67508504E-01 0.23776211E+03</pdfrwt>
<totfact> 0.36736186E+04</totfact>
</mgrwt>
</event>
<event>
 4    1  0.4495571E+000  0.1988143E+03  0.7546771E-02  0.1150743E+00
         21   -1    0    0  501  502  0.00000000000E+00  0.00000000000E+00  0.35822715617E+03  0.35822715617E+03  0.00000000000E+00 0. -1.
         21   -1    0    0  502  503 -0.00000000000E+00 -0.00000000000E+00 -0.11558470399E+03  0.11558470399E+03  0.00000000000E+00 0. -1.
          6    1    1    2  501    0  0.21853016819E+02  0.95501716778E+02  0.17178108521E+03  0.26274678588E+03  0.17300000000E+03 0. -1.
         -6    1    1    2    0  503 -0.21853016819E+02 -0.95501716778E+02  0.70861366969E+02  0.21106507428E+03  0.17300000000E+03 0. -1.
<mgrwt>
<rscale>  2 0.19881432E+03</rscale>
<asrwt>0</asrwt>
<pdfrwt beam="1">  1       21 0.55111870E-01 0.19881432E+03</pdfrwt>
<pdfrwt beam="2">  1       21 0.17782262E-01 0.19881432E+03</pdfrwt>
<totfact> 0.88950424E+04</totfact>
</mgrwt>
</event>
<event>
 4    1  0.4495571E+000  0.2034901E+03  0.7546771E-02  0.1146827E+00
         21   -1    0    0  501  502  0.00000000000E+00  0.00000000000E+00  0.27065522371E+03  0.27065522371E+03  0.00000000000E+00 0. -1.
         21   -1    0    0  502  503 -0.00000000000E+00 -0.00000000000E+00 -0.15325325462E+03  0.15325325462E+03  0.00000000000E+00 0. -1.
          6    1    1    2  501    0 -0.10665531527E+03  0.10191199185E+02  0.49957975206E+02  0.20953285208E+03  0.17300000000E+03 0. -1.
         -6    1    1    2    0  503  0.10665531527E+03 -0.10191199185E+02  0.67443993883E+02  0.21437562624E+03  0.17300000000E+03 0. -1.
<mgrwt>
<rscale>  2 0.20349009E+03</rscale>
<asrwt>0</asrwt>
<pdfrwt beam="1">  1       21 0.41639265E-01 0.20349009E+03</pdfrwt>
<pdfrwt beam="2">  1       21 0.23577424E-01 0.20349009E+03</pdfrwt>
<totfact> 0.93609901E+04</totfact>
</mgrwt>
</event>
<event>
 4    1  0.4495571E+000  0.1738106E+03  0.7546771E-02  0.1173931E+00
         21   -1    0    0  501  502  0.00000000000E+00  0.00000000000E+00  0.98928722695E+03  0.98928722695E+03  0.00000000000E+00 0. -1.
         21   -1    0    0  502  503 -0.00000000000E+00 -0.00000000000E+00 -0.20924900038E+03  0.20924900038E+03  0.00000000000E+00 0. -1.
          6    1    1    2  501    0  0.11875486000E+02 -0.11835678782E+02  0.94383579023E+03  0.95970626203E+03  0.17300000000E+03 0. -1.
         -6    1    1    2    0  503 -0.11875486000E+02  0.11835678782E+02 -0.16379756366E+03  0.23882996529E+03  0.17300000000E+03 0. -1.
<mgrwt>
<rscale>  2 0.17381056E+03</rscale>
<asrwt>0</asrwt>
<pdfrwt beam="1">  1       21 0.15219803E+00 0.17381056E+03</pdfrwt>
<pdfrwt beam="2">  1       21 0.32192154E-01 0.17381056E+03</pdfrwt>
<totfact> 0.27188079E+03</totfact>
</mgrwt>
</event>
<event>
 4    1  0.4495571E+000  0.2123602E+03  0.7546771E-02  0.1139710E+00
         21   -1    0    0  503  502  0.00000000000E+00  0.00000000000E+00  0.77212026341E+02  0.77212026341E+02  0.00000000000E+00 0. -1.
         21   -1    0    0  501  503 -0.00000000000E+00 -0.00000000000E+00 -0.59544454183E+03  0.59544454183E+03  0.00000000000E+00 0. -1.
          6    1    1    2  501    0 -0.48683236425E+02  0.11312734285E+03 -0.30561084438E+03  0.37214895057E+03  0.17300000000E+03 0. -1.
         -6    1    1    2    0  502  0.48683236425E+02 -0.11312734285E+03 -0.21262167110E+03  0.30050761760E+03  0.17300000000E+03 0. -1.
<mgrwt>
<rscale>  2 0.21236020E+03</rscale>
<asrwt>0</asrwt>
<pdfrwt beam="1">  1       21 0.11878773E-01 0.21236020E+03</pdfrwt>
<pdfrwt beam="2">  1       21 0.91606852E-01 0.21236020E+03</pdfrwt>
<totfact> 0.59689278E+04</totfact>
</mgrwt>
</event>
<event>
 4    1  0.4495571E+000  0.2857234E+03  0.7546771E-02  0.1092603E+00
         21   -1    0    0  501  502  0.00000000000E+00  0.00000000000E+00  0.92326706848E+03  0.92326706848E+03  0.00000000000E+00 0.  1.
         21   -1    0    0  502  503 -0.00000000000E+00 -0.00000000000E+00 -0.17096683755E+03  0.17096683755E+03  0.00000000000E+00 0.  1.
          6    1    1    2  501    0 -0.13630428729E+02 -0.22698693524E+03  0.75631070509E+03  0.80848236839E+03  0.17300000000E+03 0.  1.
         -6    1    1    2    0  503  0.13630428729E+02  0.22698693524E+03 -0.40104741635E+01  0.28575153763E+03  0.17300000000E+03 0.  1.
<mgrwt>
<rscale>  2 0.28572339E+03</rscale>
<asrwt>0</asrwt>
<pdfrwt beam="1">  1       21 0.14204108E+00 0.28572339E+03</pdfrwt>
<pdfrwt beam="2">  1       21 0.26302591E-01 0.28572339E+03</pdfrwt>
<totfact> 0.44355295E+03</totfact>
</mgrwt>
</event>
<event>
 4    1  0.4495571E+000  0.2627601E+03  0.7546771E-02  0.1105496E+00
         21   -1    0    0  503  502  0.00000000000E+00  0.00000000000E+00  0.30328026092E+03  0.30328026092E+03  0.00000000000E+00 0. -1.
         21   -1    0    0  501  503 -0.00000000000E+00 -0.00000000000E+00 -0.27935890848E+03  0.27935890848E+03  0.00000000000E+00 0. -1.
          6    1    1    2  501    0  0.13466211190E+03  0.14484460529E+03 -0.11336959355E+03  0.28617391357E+03  0.17300000000E+03 0. -1.
         -6    1    1    2    0  502 -0.13466211190E+03 -0.14484460529E+03  0.13729094600E+03  0.29646525583E+03  0.17300000000E+03 0. -1.
<mgrwt>
<rscale>  2 0.26276005E+03</rscale>
<asrwt>0</asrwt>
<pdfrwt beam="1">  1       21 0.46658502E-01 0.26276005E+03</pdfrwt>
<pdfrwt beam="2">  1       21 0.42978293E-01 0.26276005E+03</pdfrwt>
<totfact> 0.22079752E+04</totfact>
</mgrwt>
</event>
<event>
 4    1  0.4495571E+000  0.2063548E+03  0.7546771E-02  0.1144486E+00
         21   -1    0    0  501  502  0.00000000000E+00  0.00000000000E+00  0.34759433447E+03  0.34759433447E+03  0.00000000000E+00 0.  1.
         21   -1    0    0  502  503 -0.00000000000E+00 -0.00000000000E+00 -0.19852043542E+03  0.19852043542E+03  0.00000000000E+00 0.  1.
          6    1    1    2  501    0 -0.37377757669E+02  0.10609519141E+03  0.24350329785E+03  0.31918042307E+03  0.17300000000E+03 0.  1.
         -6    1    1    2    0  503  0.37377757669E+02 -0.10609519141E+03 -0.94429398791E+02  0.22693434682E+03  0.17300000000E+03 0.  1.
<mgrwt>
<rscale>  2 0.20635476E+03</rscale>
<asrwt>0</asrwt>
<pdfrwt beam="1">  1       21 0.53476052E-01 0.20635476E+03</pdfrwt>
<pdfrwt beam="2">  1       21 0.30541605E-01 0.20635476E+03</pdfrwt>
<totfact> 0.33811287E+04</totfact>
</mgrwt>
</event>
<event>
 4    1  0.4495571E+000  0.2080583E+03  0.7546771E-02  0.1143113E+00
         21   -1    0    0  503  502  0.00000000000E+00  0.00000000000E+00  0.53392810897E+03  0.53392810897E+03  0.00000000000E+00 0. -1.
         21   -1    0    0  501  503 -0.00000000000E+00 -0.00000000000E+00 -0.98785582184E+02  0.98785582184E+02  0.00000000000E+00 0.  1.
          6    1    1    2  501    0 -0.90253433338E+02 -0.72204987928E+02  0.83620130971E+02  0.22423329105E+03  0.17300000000E+03 0.  1.
         -6    1    1    2    0  502  0.90253433338E+02  0.72204987928E+02  0.35152239582E+03  0.40848040011E+03  0.17300000000E+03 0. -1.
<mgrwt>
<rscale>  2 0.20805827E+03</rscale>
<asrwt>0</asrwt>
<pdfrwt beam="1">  1       21 0.82142785E-01 0.20805827E+03</pdfrwt>
<pdfrwt beam="2">  1       21 0.15197782E-01 0.20805827E+03</pdfrwt>
<totfact> 0.49237553E+04</totfact>
</mgrwt>
</event>
<event>
 4    1  0.4495571E+000  0.2248636E+03  0.7546771E-02  0.1130308E+00
         21   -1    0    0  503  502  0.00000000000E+00  0.00000000000E+00  0.36490375828E+03  0.36490375828E+03  0.00000000000E+00 0. -1.
         21   -1    0    0  501  503 -0.00000000000E+00 -0.00000000000E+00 -0.15171393840E+03  0.15171393840E+03  0.00000000000E+00 0. -1.
          6    1    1    2  501    0 -0.12957856101E+03  0.62000433317E+02  0.30555781567E+02  0.22693019410E+03  0.17300000000E+03 0. -1.
         -6    1    1    2    0  502  0.12957856101E+03 -0.62000433317E+02  0.18263403831E+03  0.28968750259E+03  0.17300000000E+03 0. -1.
<mgrwt>
<rscale>  2 0.22486364E+03</rscale>
<asrwt>0</asrwt>
<pdfrwt beam="1">  1       21 0.56139039E-01 0.22486364E+03</pdfrwt>
<pdfrwt beam="2">  1       21 0.23340606E-01 0.22486364E+03</pdfrwt>
<totfact> 0.50778139E+04</totfact>
</mgrwt>
</event>
<event>
 4    1  0.4495571E+000  0.2032748E+03  0.7546771E-02  0.1147005E+00
         21   -1    0    0  501  502  0.00000000000E+00  0.00000000000E+00  0.23011158324E+03  0.23011158324E+03  0.00000000000E+00 0.  1.
         21   -1    0    0  502  503 -0.00000000000E+00 -0.00000000000E+00 -0.28434984494E+03  0.28434984494E+03  0.00000000000E+00 0.  1.
          6    1    1    2  501    0  0.70779692459E+02  0.79886656448E+02  0.12903002923E+03  0.24076833510E+03  0.17300000000E+03 0.  1.
         -6    1    1    2    0  503 -0.70779692459E+02 -0.79886656448E+02 -0.18326829092E+03  0.27369309308E+03  0.17300000000E+03 0.  1.
<mgrwt>
<rscale>  2 0.20327480E+03</rscale>
<asrwt>0</asrwt>
<pdfrwt beam="1">  1       21 0.35401782E-01 0.20327480E+03</pdfrwt>
<pdfrwt beam="2">  1       21 0.43746129E-01 0.20327480E+03</pdfrwt>
<totfact> 0.38415381E+04</totfact>
</mgrwt>
</event>
<event>
 4    1  0.4495571E+000  0.2364610E+03  0.7546771E-02  0.1122173E+00
         21   -1    0    0  503  502  0.00000000000E+00  0.00000000000E+00  0.38572435374E+03  0.38572435374E+03  0.00000000000E+00 0. -1.
         21   -1    0    0  501  503 -0.00000000000E+00 -0.00000000000E+00 -0.14497225084E+03  0.14497225084E+03  0.00000000000E+00 0. -1.
          6    1    1    2  501    0  0.16109782952E+03  0.56817947903E+01  0.11773627846E+03  0.26415076137E+03  0.17300000000E+03 0. -1.
         -6    1    1    2    0  502 -0.16109782952E+03 -0.56817947903E+01  0.12301582444E+03  0.26654584320E+03  0.17300000000E+03 0. -1.
<mgrwt>
<rscale>  2 0.23646098E+03</rscale>
<asrwt>0</asrwt>
<pdfrwt beam="1">  1       21 0.59342208E-01 0.23646098E+03</pdfrwt>
<pdfrwt beam="2">  1       21 0.22303423E-01 0.23646098E+03</pdfrwt>
<totfact> 0.48907081E+04</totfact>
</mgrwt>
</event>
<event>
 4    1  0.4495571E+000  0.1859300E+03  0.7546771E-02  0.1162184E+00
         21   -1    0    0  503  502  0.00000000000E+00  0.00000000000E+00  0.24367585398E+03  0.24367585398E+03  0.00000000000E+00 0.  1.
         21   -1    0    0  501  503 -0.00000000000E+00 -0.00000000000E+00 -0.16179017739E+03  0.16179017739E+03  0.00000000000E+00 0. -1.
          6    1    1    2  501    0 -0.35913877700E+02  0.57889040584E+02 -0.30196606831E+02  0.18836608690E+03  0.17300000000E+03 0. -1.
         -6    1    1    2    0  502  0.35913877700E+02 -0.57889040584E+02  0.11208228342E+03  0.21709994447E+03  0.17300000000E+03 0.  1.
<mgrwt>
<rscale>  2 0.18592995E+03</rscale>
<asrwt>0</asrwt>
<pdfrwt beam="1">  1       21 0.37488593E-01 0.18592995E+03</pdfrwt>
<pdfrwt beam="2">  1       21 0.24890797E-01 0.18592995E+03</pdfrwt>
<totfact> 0.10507478E+05</totfact>
</mgrwt>
</event>
<event>
 4    1  0.4495571E+000  0.1987241E+03  0.7546771E-02  0.1150820E+00
         21   -1    0    0  501  502  0.00000000000E+00  0.00000000000E+00  0.23608599275E+03  0.23608599275E+03  0.00000000000E+00 0. -1.
         21   -1    0    0  502  503 -0.00000000000E+00 -0.00000000000E+00 -0.28263602078E+03  0.28263602078E+03  0.00000000000E+00 0. -1.
          6    1    1    2  501    0  0.97668679979E+02 -0.48078228703E+01  0.14242420416E+03  0.24449118622E+03  0.17300000000E+03 0. -1.
         -6    1    1    2    0  503 -0.97668679979E+02  0.48078228703E+01 -0.18897423220E+03  0.27423082731E+03  0.17300000000E+03 0. -1.
<mgrwt>
<rscale>  2 0.19872415E+03</rscale>
<asrwt>0</asrwt>
<pdfrwt beam="1">  1       21 0.36320922E-01 0.19872415E+03</pdfrwt>
<pdfrwt beam="2">  1       21 0.43482465E-01 0.19872415E+03</pdfrwt>
<totfact> 0.37044910E+04</totfact>
</mgrwt>
</event>
<event>
 4    1  0.4495571E+000  0.2305864E+03  0.7546771E-02  0.1126228E+00
         21   -1    0    0  501  502  0.00000000000E+00  0.00000000000E+00  0.12228830784E+04  0.12228830784E+04  0.00000000000E+00 0. -1.
         21   -1    0    0  502  503 -0.00000000000E+00 -0.00000000000E+00 -0.48682333492E+02  0.48682333492E+02  0.00000000000E+00 0.  1.
          6    1    1    2  501    0 -0.98197349381E+02 -0.11661197286E+03  0.79495146094E+03  0.82771848891E+03  0.17300000000E+03 0. -1.
         -6    1    1    2    0  503  0.98197349381E+02  0.11661197286E+03  0.37924928393E+03  0.44384692294E+03  0.17300000000E+03 0.  1.
<mgrwt>
<rscale>  2 0.23058636E+03</rscale>
<asrwt>0</asrwt>
<pdfrwt beam="1">  1       21 0.18813584E+00 0.23058636E+03</pdfrwt>
<pdfrwt beam="2">  1       21 0.74895907E-02 0.23058636E+03</pdfrwt>
<totfact> 0.21032064E+04</totfact>
</mgrwt>
</event>
<event>
 4    1  0.4495571E+000  0.1808700E+03  0.7546771E-02  0.1166964E+00
         21   -1    0    0  503  502  0.00000000000E+00  0.00000000000E+00  0.37320865460E+03  0.37320865460E+03  0.00000000000E+00 0. -1.
         21   -1    0    0  501  503 -0.00000000000E+00 -0.00000000000E+00 -0.17410097235E+03  0.17410097235E+03  0.00000000000E+00 0. -1.
          6    1    1    2  501    0 -0.48112924955E+02  0.21681939370E+02 -0.93275218288E+02  0.20350485594E+03  0.17300000000E+03 0. -1.
         -6    1    1    2    0  502  0.48112924955E+02 -0.21681939370E+02  0.29238290054E+03  0.34380477101E+03  0.17300000000E+03 0. -1.
<mgrwt>
<rscale>  2 0.18087001E+03</rscale>
<asrwt>0</asrwt>
<pdfrwt beam="1">  1       21 0.57416716E-01 0.18087001E+03</pdfrwt>
<pdfrwt beam="2">  1       21 0.26784765E-01 0.18087001E+03</pdfrwt>
<totfact> 0.38013468E+04</totfact>
</mgrwt>
</event>
<event>
 4    1  0.4495571E+000  0.3296214E+03  0.7546771E-02  0.1071305E+00
         21   -1    0    0  503  502  0.00000000000E+00  0.00000000000E+00  0.11497041525E+03  0.11497041525E+03  0.00000000000E+00 0. -1.
         21   -1    0    0  501  503 -0.00000000000E+00 -0.00000000000E+00 -0.18340279833E+04  0.18340279833E+04  0.00000000000E+00 0.  1.
          6    1    1    2  501    0 -0.17243026572E+03  0.22133468690E+03 -0.15379968788E+04  0.15729223247E+04  0.17300000000E+03 0.  1.
         -6    1    1    2    0  502  0.17243026572E+03 -0.22133468690E+03 -0.18106068922E+03  0.37607607388E+03  0.17300000000E+03 0. -1.
<mgrwt>
<rscale>  2 0.32962136E+03</rscale>
<asrwt>0</asrwt>
<pdfrwt beam="1">  1       21 0.17687757E-01 0.32962136E+03</pdfrwt>
<pdfrwt beam="2">  1       21 0.28215814E+00 0.32962136E+03</pdfrwt>
<totfact> 0.10977185E+03</totfact>
</mgrwt>
</event>
<event>
 4    1  0.4495571E+000  0.3163619E+03  0.7546771E-02  0.1077336E+00
         21   -1    0    0  503  502  0.00000000000E+00  0.00000000000E+00  0.34906227557E+03  0.34906227557E+03  0.00000000000E+00 0.  1.
         21   -1    0    0  501  503 -0.00000000000E+00 -0.00000000000E+00 -0.31185161646E+03  0.31185161646E+03  0.00000000000E+00 0.  1.
          6    1    1    2  501    0  0.24974385338E+03 -0.88226157816E+02 -0.75195942030E+02  0.32517576312E+03  0.17300000000E+03 0.  1.
         -6    1    1    2    0  502 -0.24974385338E+03  0.88226157816E+02  0.11240660114E+03  0.33573812891E+03  0.17300000000E+03 0.  1.
<mgrwt>
<rscale>  2 0.31636189E+03</rscale>
<asrwt>0</asrwt>
<pdfrwt beam="1">  1       21 0.53701889E-01 0.31636189E+03</pdfrwt>
<pdfrwt beam="2">  1       21 0.47977172E-01 0.31636189E+03</pdfrwt>
<totfact> 0.12770299E+04</totfact>
</mgrwt>
</event>
<event>
 4    1  0.4495571E+000  0.2341575E+03  0.7546771E-02  0.1123747E+00
         21   -1    0    0  501  502  0.00000000000E+00  0.00000000000E+00  0.62246671161E+02  0.62246671161E+02  0.00000000000E+00 0. -1.
         21   -1    0    0  502  503 -0.00000000000E+00 -0.00000000000E+00 -0.12577697396E+04  0.12577697396E+04  0.00000000000E+00 0.  1.
          6    1    1    2  501    0 -0.15290725074E+03  0.38988390698E+02 -0.23645518273E+03  0.33277736608E+03  0.17300000000E+03 0. -1.
         -6    1    1    2    0  503  0.15290725074E+03 -0.38988390698E+02 -0.95906788575E+03  0.98723904472E+03  0.17300000000E+03 0.  1.
<mgrwt>
<rscale>  2 0.23415747E+03</rscale>
<asrwt>0</asrwt>
<pdfrwt beam="1">  1       21 0.95764114E-02 0.23415747E+03</pdfrwt>
<pdfrwt beam="2">  1       21 0.19350303E+00 0.23415747E+03</pdfrwt>
<totfact> 0.12558587E+04</totfact>
</mgrwt>
</event>
<event>
 4    1  0.4495571E+000  0.1931333E+03  0.7546771E-02  0.1155665E+00
         21   -1    0    0  501  502  0.00000000000E+00  0.00000000000E+00  0.85746704401E+03  0.85746704401E+03  0.00000000000E+00 0. -1.
         21   -1    0    0  502  503 -0.00000000000E+00 -0.00000000000E+00 -0.43514149805E+02  0.43514149805E+02  0.00000000000E+00 0. -1.
          6    1    1    2  501    0  0.76336843176E+02  0.39295640545E+02  0.39907163055E+03  0.44334932875E+03  0.17300000000E+03 0. -1.
         -6    1    1    2    0  503 -0.76336843176E+02 -0.39295640545E+02  0.41488126365E+03  0.45763186506E+03  0.17300000000E+03 0. -1.
<mgrwt>
<rscale>  2 0.19313327E+03</rscale>
<asrwt>0</asrwt>
<pdfrwt beam="1">  1       21 0.13191799E+00 0.19313327E+03</pdfrwt>
<pdfrwt beam="2">  1       21 0.66944852E-02 0.19313327E+03</pdfrwt>
<totfact> 0.68038609E+04</totfact>
</mgrwt>
</event>
<event>
 4    1  0.4495571E+000  0.2010529E+03  0.7546771E-02  0.1148854E+00
         21   -1    0    0  501  502  0.00000000000E+00  0.00000000000E+00  0.67505581581E+02  0.67505581581E+02  0.00000000000E+00 0. -1.
         21   -1    0    0  502  503 -0.00000000000E+00 -0.00000000000E+00 -0.77909032871E+03  0.77909032871E+03  0.00000000000E+00 0.  1.
          6    1    1    2  501    0  0.74591122067E+02 -0.70209983078E+02 -0.55942137873E+03  0.59445315728E+03  0.17300000000E+03 0. -1.
         -6    1    1    2    0  503 -0.74591122067E+02  0.70209983078E+02 -0.15216336840E+03  0.25214275301E+03  0.17300000000E+03 0.  1.
<mgrwt>
<rscale>  2 0.20105292E+03</rscale>
<asrwt>0</asrwt>
<pdfrwt beam="1">  1       21 0.10385474E-01 0.20105292E+03</pdfrwt>
<pdfrwt beam="2">  1       21 0.11986005E+00 0.20105292E+03</pdfrwt>
<totfact> 0.40007684E+04</totfact>
</mgrwt>
</event>
<event>
 4    1  0.4495571E+000  0.2003925E+03  0.7546771E-02  0.1149408E+00
         21   -1    0    0  501  502  0.00000000000E+00  0.00000000000E+00  0.57722003672E+02  0.57722003672E+02  0.00000000000E+00 0. -1.
         21   -1    0    0  502  503 -0.00000000000E+00 -0.00000000000E+00 -0.70084508155E+03  0.70084508155E+03  0.00000000000E+00 0. -1.
          6    1    1    2  501    0 -0.37928282227E+02 -0.93752939203E+02 -0.35406060412E+03  0.40683667435E+03  0.17300000000E+03 0. -1.
         -6    1    1    2    0  503  0.37928282227E+02  0.93752939203E+02 -0.28906247376E+03  0.35173041088E+03  0.17300000000E+03 0. -1.
<mgrwt>
<rscale>  2 0.20039254E+03</rscale>
<asrwt>0</asrwt>
<pdfrwt beam="1">  1       21 0.88803080E-02 0.20039254E+03</pdfrwt>
<pdfrwt beam="2">  1       21 0.10782232E+00 0.20039254E+03</pdfrwt>
<totfact> 0.68288592E+04</totfact>
</mgrwt>
</event>
<event>
 4    1  0.4495571E+000  0.2097034E+03  0.7546771E-02  0.1141801E+00
         21   -1    0    0  501  502  0.00000000000E+00  0.00000000000E+00  0.43277452436E+02  0.43277452436E+02  0.00000000000E+00 0.  1.
         21   -1    0    0  502  503 -0.00000000000E+00 -0.00000000000E+00 -0.12140616483E+04  0.12140616483E+04  0.00000000000E+00 0.  1.
          6    1    1    2  501    0  0.77158240297E+02  0.89961703710E+02 -0.33155209104E+03  0.39230382518E+03  0.17300000000E+03 0.  1.
         -6    1    1    2    0  503 -0.77158240297E+02 -0.89961703710E+02 -0.83923210481E+03  0.86503527553E+03  0.17300000000E+03 0.  1.
<mgrwt>
<rscale>  2 0.20970337E+03</rscale>
<asrwt>0</asrwt>
<pdfrwt beam="1">  1       21 0.66580699E-02 0.20970337E+03</pdfrwt>
<pdfrwt beam="2">  1       21 0.18677871E+00 0.20970337E+03</pdfrwt>
<totfact> 0.26699365E+04</totfact>
</mgrwt>
</event>
<event>
 4    1  0.4495571E+000  0.2319476E+03  0.7546771E-02  0.1125276E+00
         21   -1    0    0  501  502  0.00000000000E+00  0.00000000000E+00  0.16809562453E+03  0.16809562453E+03  0.00000000000E+00 0. -1.
         21   -1    0    0  502  503 -0.00000000000E+00 -0.00000000000E+00 -0.32258635384E+03  0.32258635384E+03  0.00000000000E+00 0. -1.
          6    1    1    2  501    0  0.39880090105E+02  0.14926572412E+03 -0.55507903726E+02  0.23849697139E+03  0.17300000000E+03 0. -1.
         -6    1    1    2    0  503 -0.39880090105E+02 -0.14926572412E+03 -0.98982825582E+02  0.25218500698E+03  0.17300000000E+03 0. -1.
<mgrwt>
<rscale>  2 0.23194758E+03</rscale>
<asrwt>0</asrwt>
<pdfrwt beam="1">  1       21 0.25860865E-01 0.23194758E+03</pdfrwt>
<pdfrwt beam="2">  1       21 0.49628670E-01 0.23194758E+03</pdfrwt>
<totfact> 0.53972434E+04</totfact>
</mgrwt>
</event>
<event>
 4    1  0.4495571E+000  0.2856966E+03  0.7546771E-02  0.1092618E+00
         21   -1    0    0  503  502  0.00000000000E+00  0.00000000000E+00  0.14060456808E+04  0.14060456808E+04  0.00000000000E+00 0. -1.
         21   -1    0    0  501  503 -0.00000000000E+00 -0.00000000000E+00 -0.67020545145E+02  0.67020545145E+02  0.00000000000E+00 0.  1.
          6    1    1    2  501    0 -0.44600316874E+02 -0.22294468515E+03  0.40006721323E+03  0.49160583398E+03  0.17300000000E+03 0.  1.
         -6    1    1    2    0  502  0.44600316874E+02  0.22294468515E+03  0.93895792241E+03  0.98146039194E+03  0.17300000000E+03 0. -1.
<mgrwt>
<rscale>  2 0.28569655E+03</rscale>
<asrwt>0</asrwt>
<pdfrwt beam="1">  1       21 0.21631470E+00 0.28569655E+03</pdfrwt>
<pdfrwt beam="2">  1       21 0.10310854E-01 0.28569655E+03</pdfrwt>
<totfact> 0.75944108E+03</totfact>
</mgrwt>
</event>
<event>
 4    1  0.4495571E+000  0.2277344E+03  0.7546771E-02  0.1128245E+00
         21   -1    0    0  503  502  0.00000000000E+00  0.00000000000E+00  0.95021957011E+03  0.95021957011E+03  0.00000000000E+00 0. -1.
         21   -1    0    0  501  503 -0.00000000000E+00 -0.00000000000E+00 -0.71976263880E+02  0.71976263880E+02  0.00000000000E+00 0. -1.
          6    1    1    2  501    0 -0.10382253988E+03 -0.10561640483E+03  0.18785319671E+03  0.29521478329E+03  0.17300000000E+03 0. -1.
         -6    1    1    2    0  502  0.10382253988E+03  0.10561640483E+03  0.69039010952E+03  0.72698105070E+03  0.17300000000E+03 0. -1.
<mgrwt>
<rscale>  2 0.22773437E+03</rscale>
<asrwt>0</asrwt>
<pdfrwt beam="1">  1       21 0.14618762E+00 0.22773437E+03</pdfrwt>
<pdfrwt beam="2">  1       21 0.11073272E-01 0.22773437E+03</pdfrwt>
<totfact> 0.21183703E+04</totfact>
</mgrwt>
</event>
<event>
 4    1  0.4495571E+000  0.1824627E+03  0.7546771E-02  0.1165441E+00
         21   -1    0    0  503  502  0.00000000000E+00  0.00000000000E+00  0.19055965129E+03  0.19055965129E+03  0.00000000000E+00 0.  1.
         21   -1    0    0  501  503 -0.00000000000E+00 -0.00000000000E+00 -0.19304115033E+03  0.19304115033E+03  0.00000000000E+00 0.  1.
          6    1    1    2  501    0  0.12862246227E+02  0.56552516864E+02 -0.60345537296E+02  0.19218274744E+03  0.17300000000E+03 0.  1.
         -6    1    1    2    0  502 -0.12862246227E+02 -0.56552516864E+02  0.57864038254E+02  0.19141805418E+03  0.17300000000E+03 0.  1.
<mgrwt>
<rscale>  2 0.18246267E+03</rscale>
<asrwt>0</asrwt>
<pdfrwt beam="1">  1       21 0.29316870E-01 0.18246267E+03</pdfrwt>
<pdfrwt beam="2">  1       21 0.29698638E-01 0.18246267E+03</pdfrwt>
<totfact> 0.12155022E+05</totfact>
</mgrwt>
</event>
<event>
 4    1  0.4495571E+000  0.2495450E+03  0.7546771E-02  0.1113593E+00
         21   -1    0    0  503  502  0.00000000000E+00  0.00000000000E+00  0.16470050016E+04  0.16470050016E+04  0.00000000000E+00 0. -1.
         21   -1    0    0  501  503 -0.00000000000E+00 -0.00000000000E+00 -0.17248189843E+03  0.17248189843E+03  0.00000000000E+00 0.  1.
          6    1    1    2  501    0 -0.21291342769E+02 -0.17857875259E+03 -0.66609189712E+02  0.25828177695E+03  0.17300000000E+03 0.  1.
         -6    1    1    2    0  502  0.21291342769E+02  0.17857875259E+03  0.15411322929E+04  0.15612051231E+04  0.17300000000E+03 0. -1.
<mgrwt>
<rscale>  2 0.24954497E+03</rscale>
<asrwt>0</asrwt>
<pdfrwt beam="1">  1       21 0.25338537E+00 0.24954497E+03</pdfrwt>
<pdfrwt beam="2">  1       21 0.26535678E-01 0.24954497E+03</pdfrwt>
<totfact> 0.80524155E+02</totfact>
</mgrwt>
</event>
<event>
 4    1  0.4495571E+000  0.2336232E+03  0.7546771E-02  0.1124115E+00
         21   -1    0    0  501  502  0.00000000000E+00  0.00000000000E+00  0.29747829060E+03  0.29747829060E+03  0.00000000000E+00 0.  1.
         21   -1    0    0  502  503 -0.00000000000E+00 -0.00000000000E+00 -0.28541359091E+03  0.28541359091E+03  0.00000000000E+00 0.  1.
          6    1    1    2  501    0 -0.35440749009E+02  0.15295339099E+03  0.18020914929E+03  0.29505105320E+03  0.17300000000E+03 0.  1.
         -6    1    1    2    0  503  0.35440749009E+02 -0.15295339099E+03 -0.16814444960E+03  0.28784082830E+03  0.17300000000E+03 0.  1.
<mgrwt>
<rscale>  2 0.23362317E+03</rscale>
<asrwt>0</asrwt>
<pdfrwt beam="1">  1       21 0.45765891E-01 0.23362317E+03</pdfrwt>
<pdfrwt beam="2">  1       21 0.43909783E-01 0.23362317E+03</pdfrwt>
<totfact> 0.22296556E+04</totfact>
</mgrwt>
</event>
<event>
 4    1  0.4495571E+000  0.1952479E+03  0.7546771E-02  0.1153811E+00
         21   -1    0    0  503  502  0.00000000000E+00  0.00000000000E+00  0.69924250176E+03  0.69924250176E+03  0.00000000000E+00 0.  1.
         21   -1    0    0  501  503 -0.00000000000E+00 -0.00000000000E+00 -0.13104344712E+03  0.13104344712E+03  0.00000000000E+00 0.  1.
          6    1    1    2  501    0 -0.79347084499E+02 -0.43551850491E+02 -0.33142903225E+02  0.19804084310E+03  0.17300000000E+03 0.  1.
         -6    1    1    2    0  502  0.79347084499E+02  0.43551850491E+02  0.60134195786E+03  0.63224510578E+03  0.17300000000E+03 0.  1.
<mgrwt>
<rscale>  2 0.19524785E+03</rscale>
<asrwt>0</asrwt>
<pdfrwt beam="1">  1       21 0.10757577E+00 0.19524785E+03</pdfrwt>
<pdfrwt beam="2">  1       21 0.20160531E-01 0.19524785E+03</pdfrwt>
<totfact> 0.15647288E+04</totfact>
</mgrwt>
</event>
<event>
 4    1  0.4495571E+000  0.2082532E+03  0.7546771E-02  0.1142957E+00
         21   -1    0    0  501  502  0.00000000000E+00  0.00000000000E+00  0.28684300405E+03  0.28684300405E+03  0.00000000000E+00 0.  1.
         21   -1    0    0  502  503 -0.00000000000E+00 -0.00000000000E+00 -0.15758465358E+03  0.15758465358E+03  0.00000000000E+00 0. -1.
          6    1    1    2  501    0  0.72098799667E+02  0.90786258009E+02  0.10937315238E+03  0.23522726887E+03  0.17300000000E+03 0.  1.
         -6    1    1    2    0  503 -0.72098799667E+02 -0.90786258009E+02  0.19885198084E+02  0.20920038877E+03  0.17300000000E+03 0.  1.
<mgrwt>
<rscale>  2 0.20825317E+03</rscale>
<asrwt>0</asrwt>
<pdfrwt beam="1">  1       21 0.44129693E-01 0.20825317E+03</pdfrwt>
<pdfrwt beam="2">  1       21 0.24243793E-01 0.20825317E+03</pdfrwt>
<totfact> 0.78682884E+04</totfact>
</mgrwt>
</event>
<event>
 4    1  0.4495571E+000  0.1778958E+03  0.7546771E-02  0.1169855E+00
         21   -1    0    0  503  502  0.00000000000E+00  0.00000000000E+00  0.19623142091E+03  0.19623142091E+03  0.00000000000E+00 0. -1.
         21   -1    0    0  501  503 -0.00000000000E+00 -0.00000000000E+00 -0.22346065826E+03  0.22346065826E+03  0.00000000000E+00 0. -1.
          6    1    1    2  501    0  0.21314690356E+02 -0.35547287911E+02 -0.12431538773E+03  0.21702820399E+03  0.17300000000E+03 0. -1.
         -6    1    1    2    0  502 -0.21314690356E+02  0.35547287911E+02  0.97086150377E+02  0.20266387517E+03  0.17300000000E+03 0. -1.
<mgrwt>
<rscale>  2 0.17789583E+03</rscale>
<asrwt>0</asrwt>
<pdfrwt beam="1">  1       21 0.30189450E-01 0.17789583E+03</pdfrwt>
<pdfrwt beam="2">  1       21 0.34378563E-01 0.17789583E+03</pdfrwt>
<totfact> 0.86334076E+04</totfact>
</mgrwt>
</event>
<event>
 4    1  0.4495571E+000  0.1886668E+03  0.7546771E-02  0.1159669E+00
         21   -1    0    0  503  502  0.00000000000E+00  0.00000000000E+00  0.25799922151E+03  0.25799922151E+03  0.00000000000E+00 0.  1.
         21   -1    0    0  501  503 -0.00000000000E+00 -0.00000000000E+00 -0.15817559349E+03  0.15817559349E+03  0.00000000000E+00 0.  1.
          6    1    1    2  501    0  0.31522835703E+02 -0.68355520108E+02 -0.24467633580E+02  0.19024676447E+03  0.17300000000E+03 0.  1.
         -6    1    1    2    0  502 -0.31522835703E+02  0.68355520108E+02  0.12429126160E+03  0.22592805052E+03  0.17300000000E+03 0.  1.
<mgrwt>
<rscale>  2 0.18866681E+03</rscale>
<asrwt>0</asrwt>
<pdfrwt beam="1">  1       21 0.39692188E-01 0.18866681E+03</pdfrwt>
<pdfrwt beam="2">  1       21 0.24334707E-01 0.18866681E+03</pdfrwt>
<totfact> 0.97709954E+04</totfact>
</mgrwt>
</event>
<event>
 4    1  0.4495571E+000  0.3001943E+03  0.7546771E-02  0.1085144E+00
         21   -1    0    0  501  502  0.00000000000E+00  0.00000000000E+00  0.16281890255E+03  0.16281890255E+03  0.00000000000E+00 0. -1.
         21   -1    0    0  502  503 -0.00000000000E+00 -0.00000000000E+00 -0.57653470808E+03  0.57653470808E+03  0.00000000000E+00 0. -1.
          6    1    1    2  501    0  0.24461058256E+03 -0.18795418945E+02 -0.13292929947E+03  0.32830900616E+03  0.17300000000E+03 0. -1.
         -6    1    1    2    0  503 -0.24461058256E+03  0.18795418945E+02 -0.28078650607E+03  0.41104460447E+03  0.17300000000E+03 0. -1.
<mgrwt>
<rscale>  2 0.30019428E+03</rscale>
<asrwt>0</asrwt>
<pdfrwt beam="1">  1       21 0.25049061E-01 0.30019428E+03</pdfrwt>
<pdfrwt beam="2">  1       21 0.88697649E-01 0.30019428E+03</pdfrwt>
<totfact> 0.15491791E+04</totfact>
</mgrwt>
</event>
<event>
 4    1  0.4495571E+000  0.2841037E+03  0.7546771E-02  0.1093468E+00
         21   -1    0    0  501  502  0.00000000000E+00  0.00000000000E+00  0.34543408897E+03  0.34543408897E+03  0.00000000000E+00 0. -1.
         21   -1    0    0  502  503 -0.00000000000E+00 -0.00000000000E+00 -0.24938253406E+03  0.24938253406E+03  0.00000000000E+00 0. -1.
          6    1    1    2  501    0 -0.39832049192E+02  0.22180915351E+03 -0.26645026679E+02  0.28535039893E+03  0.17300000000E+03 0. -1.
         -6    1    1    2    0  503  0.39832049192E+02 -0.22180915351E+03  0.12269658158E+03  0.30946622410E+03  0.17300000000E+03 0. -1.
<mgrwt>
<rscale>  2 0.28410367E+03</rscale>
<asrwt>0</asrwt>
<pdfrwt beam="1">  1       21 0.53143706E-01 0.28410367E+03</pdfrwt>
<pdfrwt beam="2">  1       21 0.38366544E-01 0.28410367E+03</pdfrwt>
<totfact> 0.20980724E+04</totfact>
</mgrwt>
</event>
<event>
 4    1  0.4495571E+000  0.1749321E+03  0.7546771E-02  0.1172800E+00
         21   -1    0    0  503  502  0.00000000000E+00  0.00000000000E+00  0.52539888107E+03  0.52539888107E+03  0.00000000000E+00 0.  1.
         21   -1    0    0  501  503 -0.00000000000E+00 -0.00000000000E+00 -0.91333736276E+02  0.91333736276E+02  0.00000000000E+00 0.  1.
          6    1    1    2  501    0  0.25587249304E+02 -0.41888243630E+01  0.31423607912E+02  0.17773209252E+03  0.17300000000E+03 0.  1.
         -6    1    1    2    0  502 -0.25587249304E+02  0.41888243630E+01  0.40264153688E+03  0.43900052483E+03  0.17300000000E+03 0.  1.
<mgrwt>
<rscale>  2 0.17493214E+03</rscale>
<asrwt>0</asrwt>
<pdfrwt beam="1">  1       21 0.80830595E-01 0.17493214E+03</pdfrwt>
<pdfrwt beam="2">  1       21 0.14051344E-01 0.17493214E+03</pdfrwt>
<totfact> 0.59838693E+04</totfact>
</mgrwt>
</event>
<event>
 4    1  0.4495571E+000  0.1769821E+03  0.7546771E-02  0.1170756E+00
         21   -1    0    0  503  502  0.00000000000E+00  0.00000000000E+00  0.23505909125E+02  0.23505909125E+02  0.00000000000E+00 0. -1.
         21   -1    0    0  501  503 -0.00000000000E+00 -0.00000000000E+00 -0.14539352756E+04  0.14539352756E+04  0.00000000000E+00 0. -1.
          6    1    1    2  501    0 -0.24138049528E+02  0.28478530852E+02 -0.92866673906E+03  0.94538065581E+03  0.17300000000E+03 0.  1.
         -6    1    1    2    0  502  0.24138049528E+02 -0.28478530852E+02 -0.50176262745E+03  0.53206052894E+03  0.17300000000E+03 0.  1.
<mgrwt>
<rscale>  2 0.17698212E+03</rscale>
<asrwt>0</asrwt>
<pdfrwt beam="1">  1       21 0.36162934E-02 0.17698212E+03</pdfrwt>
<pdfrwt beam="2">  1       21 0.22368237E+00 0.17698212E+03</pdfrwt>
<totfact> 0.44816814E+04</totfact>
</mgrwt>
</event>
<event>
 4    1  0.4495571E+000  0.2192498E+03  0.7546771E-02  0.1134444E+00
         21   -1    0    0  503  502  0.00000000000E+00  0.00000000000E+00  0.11690984090E+04  0.11690984090E+04  0.00000000000E+00 0.  1.
         21   -1    0    0  501  503 -0.00000000000E+00 -0.00000000000E+00 -0.41421804097E+02  0.41421804097E+02  0.00000000000E+00 0. -1.
          6    1    1    2  501    0 -0.13437470370E+03  0.92148833903E+01  0.61571089525E+03  0.65358272744E+03  0.17300000000E+03 0.  1.
         -6    1    1    2    0  502  0.13437470370E+03 -0.92148833903E+01  0.51196570961E+03  0.55693748561E+03  0.17300000000E+03 0. -1.
<mgrwt>
<rscale>  2 0.21924980E+03</rscale>
<asrwt>0</asrwt>
<pdfrwt beam="1">  1       21 0.17986127E+00 0.21924980E+03</pdfrwt>
<pdfrwt beam="2">  1       21 0.63725861E-02 0.21924980E+03</pdfrwt>
<totfact> 0.31873403E+04</totfact>
</mgrwt>
</event>
<event>
 4    1  0.4495571E+000  0.5156429E+03  0.7546771E-02  0.1009775E+00
         21   -1    0    0  503  502  0.00000000000E+00  0.00000000000E+00  0.77242416573E+03  0.77242416573E+03  0.00000000000E+00 0.  1.
         21   -1    0    0  501  503 -0.00000000000E+00 -0.00000000000E+00 -0.73382975086E+03  0.73382975086E+03  0.00000000000E+00 0. -1.
          6    1    1    2  501    0  0.25405795057E+03 -0.41402073529E+03 -0.52946314715E+03  0.73906619168E+03  0.17300000000E+03 0. -1.
         -6    1    1    2    0  502 -0.25405795057E+03  0.41402073529E+03  0.56805756202E+03  0.76718772492E+03  0.17300000000E+03 0.  1.
<mgrwt>
<rscale>  2 0.51564291E+03</rscale>
<asrwt>0</asrwt>
<pdfrwt beam="1">  1       21 0.11883449E+00 0.51564291E+03</pdfrwt>
<pdfrwt beam="2">  1       21 0.11289688E+00 0.51564291E+03</pdfrwt>
<totfact> 0.26543721E+02</totfact>
</mgrwt>
</event>
<event>
 4    1  0.4495571E+000  0.2081855E+03  0.7546771E-02  0.1143011E+00
         21   -1    0    0  503  502  0.00000000000E+00  0.00000000000E+00  0.49280356432E+03  0.49280356432E+03  0.00000000000E+00 0. -1.
         21   -1    0    0  501  503 -0.00000000000E+00 -0.00000000000E+00 -0.98192523692E+02  0.98192523692E+02  0.00000000000E+00 0.  1.
          6    1    1    2  501    0 -0.11579889982E+03 -0.16822579655E+01  0.10185994308E+03  0.23176855523E+03  0.17300000000E+03 0.  1.
         -6    1    1    2    0  502  0.11579889982E+03  0.16822579655E+01  0.29275109754E+03  0.35922753278E+03  0.17300000000E+03 0.  1.
<mgrwt>
<rscale>  2 0.20818553E+03</rscale>
<asrwt>0</asrwt>
<pdfrwt beam="1">  1       21 0.75815932E-01 0.20818553E+03</pdfrwt>
<pdfrwt beam="2">  1       21 0.15106542E-01 0.20818553E+03</pdfrwt>
<totfact> 0.59659454E+04</totfact>
</mgrwt>
</event>
<event>
 4    1  0.4495571E+000  0.2058941E+03  0.7546771E-02  0.1144859E+00
         21   -1    0    0  501  502  0.00000000000E+00  0.00000000000E+00  0.15013500505E+04  0.15013500505E+04  0.00000000000E+00 0. -1.
         21   -1    0    0  502  503 -0.00000000000E+00 -0.00000000000E+00 -0.28938430914E+02  0.28938430914E+02  0.00000000000E+00 0.  1.
          6    1    1    2  501    0  0.71281147465E+02  0.85920777638E+02  0.85539961397E+03  0.87983002995E+03  0.17300000000E+03 0.  1.
         -6    1    1    2    0  503 -0.71281147465E+02 -0.85920777638E+02  0.61701200561E+03  0.65045845147E+03  0.17300000000E+03 0.  1.
<mgrwt>
<rscale>  2 0.20589410E+03</rscale>
<asrwt>0</asrwt>
<pdfrwt beam="1">  1       21 0.23097687E+00 0.20589410E+03</pdfrwt>
<pdfrwt beam="2">  1       21 0.44520675E-02 0.20589410E+03</pdfrwt>
<totfact> 0.27948652E+04</totfact>
</mgrwt>
</event>
<event>
 4    1  0.4495571E+000  0.2406245E+03  0.7546771E-02  0.1119378E+00
         21   -1    0    0  503  502  0.00000000000E+00  0.00000000000E+00  0.14227537809E+03  0.14227537809E+03  0.00000000000E+00 0.  1.
         21   -1    0    0  501  503 -0.00000000000E+00 -0.00000000000E+00 -0.40715720445E+03  0.40715720445E+03  0.00000000000E+00 0. -1.
          6    1    1    2  501    0 -0.15263453211E+03 -0.68365412661E+02 -0.13851453901E+03  0.27764439047E+03  0.17300000000E+03 0.  1.
         -6    1    1    2    0  502  0.15263453211E+03  0.68365412661E+02 -0.12636728734E+03  0.27178819207E+03  0.17300000000E+03 0. -1.
<mgrwt>
<rscale>  2 0.24062446E+03</rscale>
<asrwt>0</asrwt>
<pdfrwt beam="1">  1       21 0.21888520E-01 0.24062446E+03</pdfrwt>
<pdfrwt beam="2">  1       21 0.62639569E-01 0.24062446E+03</pdfrwt>
<totfact> 0.45001431E+04</totfact>
</mgrwt>
</event>
<event>
 4    1  0.4495571E+000  0.1786578E+03  0.7546771E-02  0.1169108E+00
         21   -1    0    0  501  502  0.00000000000E+00  0.00000000000E+00  0.54382909328E+02  0.54382909328E+02  0.00000000000E+00 0. -1.
         21   -1    0    0  502  503 -0.00000000000E+00 -0.00000000000E+00 -0.83751776170E+03  0.83751776170E+03  0.00000000000E+00 0. -1.
          6    1    1    2  501    0 -0.29706420257E+02 -0.33273583586E+02 -0.14763186433E+03  0.23176231388E+03  0.17300000000E+03 0. -1.
         -6    1    1    2    0  503  0.29706420257E+02  0.33273583586E+02 -0.63550298804E+03  0.66013835715E+03  0.17300000000E+03 0. -1.
<mgrwt>
<rscale>  2 0.17865778E+03</rscale>
<asrwt>0</asrwt>
<pdfrwt beam="1">  1       21 0.83666023E-02 0.17865778E+03</pdfrwt>
<pdfrwt beam="2">  1       21 0.12884887E+00 0.17865778E+03</pdfrwt>
<totfact> 0.49429789E+04</totfact>
</mgrwt>
</event>
<event>
 4    1  0.4495571E+000  0.2012106E+03  0.7546771E-02  0.1148722E+00
         21   -1    0    0  503  502  0.00000000000E+00  0.00000000000E+00  0.63119620588E+02  0.63119620588E+02  0.00000000000E+00 0. -1.
         21   -1    0    0  501  503 -0.00000000000E+00 -0.00000000000E+00 -0.11812847726E+04  0.11812847726E+04  0.00000000000E+00 0. -1.
          6    1    1    2  501    0 -0.87111598042E+02  0.54481892184E+02 -0.97971213668E+03  0.10001607760E+04  0.17300000000E+03 0. -1.
         -6    1    1    2    0  502  0.87111598042E+02 -0.54481892184E+02 -0.13845301536E+03  0.24424361722E+03  0.17300000000E+03 0. -1.
<mgrwt>
<rscale>  2 0.20121060E+03</rscale>
<asrwt>0</asrwt>
<pdfrwt beam="1">  1       21 0.97107107E-02 0.20121060E+03</pdfrwt>
<pdfrwt beam="2">  1       21 0.18173612E+00 0.20121060E+03</pdfrwt>
<totfact> 0.15036309E+04</totfact>
</mgrwt>
</event>
<event>
 4    1  0.4495571E+000  0.3041491E+03  0.7546771E-02  0.1083185E+00
         21   -1    0    0  503  502  0.00000000000E+00  0.00000000000E+00  0.29177591370E+03  0.29177591370E+03  0.00000000000E+00 0. -1.
         21   -1    0    0  501  503 -0.00000000000E+00 -0.00000000000E+00 -0.62057280789E+03  0.62057280789E+03  0.00000000000E+00 0.  1.
          6    1    1    2  501    0 -0.20756192132E+03  0.13962712380E+03 -0.48342901467E+03  0.57114822692E+03  0.17300000000E+03 0.  1.
         -6    1    1    2    0  502  0.20756192132E+03 -0.13962712380E+03  0.15463212048E+03  0.34120049468E+03  0.17300000000E+03 0.  1.
<mgrwt>
<rscale>  2 0.30414912E+03</rscale>
<asrwt>0</asrwt>
<pdfrwt beam="1">  1       21 0.44888602E-01 0.30414912E+03</pdfrwt>
<pdfrwt beam="2">  1       21 0.95472741E-01 0.30414912E+03</pdfrwt>
<totfact> 0.40532557E+03</totfact>
</mgrwt>
</event>
<event>
 4    1  0.4495571E+000  0.2444151E+03  0.7546771E-02  0.1116886E+00
         21   -1    0    0  501  502  0.00000000000E+00  0.00000000000E+00  0.95820685973E+02  0.95820685973E+02  0.00000000000E+00 0. -1.
         21   -1    0    0  502  503 -0.00000000000E+00 -0.00000000000E+00 -0.63349044765E+03  0.63349044765E+03  0.00000000000E+00 0. -1.
          6    1    1    2  501    0  0.15622474681E+03 -0.73508915899E+02 -0.22291068911E+03  0.33079889291E+03  0.17300000000E+03 0. -1.
         -6    1    1    2    0  503 -0.15622474681E+03  0.73508915899E+02 -0.31475907257E+03  0.39851224072E+03  0.17300000000E+03 0. -1.
<mgrwt>
<rscale>  2 0.24441508E+03</rscale>
<asrwt>0</asrwt>
<pdfrwt beam="1">  1       21 0.14741644E-01 0.24441508E+03</pdfrwt>
<pdfrwt beam="2">  1       21 0.97460070E-01 0.24441508E+03</pdfrwt>
<totfact> 0.34399107E+04</totfact>
</mgrwt>
</event>
<event>
 4    1  0.4495571E+000  0.2081624E+03  0.7546771E-02  0.1143029E+00
         21   -1    0    0  501  502  0.00000000000E+00  0.00000000000E+00  0.42693105421E+03  0.42693105421E+03  0.00000000000E+00 0.  1.
         21   -1    0    0  502  503 -0.00000000000E+00 -0.00000000000E+00 -0.16821764196E+03  0.16821764196E+03  0.00000000000E+00 0. -1.
          6    1    1    2  501    0 -0.10434280526E+03  0.50151412801E+02  0.31676753299E+03  0.37904255061E+03  0.17300000000E+03 0.  1.
         -6    1    1    2    0  503  0.10434280526E+03 -0.50151412801E+02 -0.58054120738E+02  0.21610614556E+03  0.17300000000E+03 0. -1.
<mgrwt>
<rscale>  2 0.20816240E+03</rscale>
<asrwt>0</asrwt>
<pdfrwt beam="1">  1       21 0.65681700E-01 0.20816240E+03</pdfrwt>
<pdfrwt beam="2">  1       21 0.25879637E-01 0.20816240E+03</pdfrwt>
<totfact> 0.29948258E+04</totfact>
</mgrwt>
</event>
<event>
 4    1  0.4495571E+000  0.2013091E+03  0.7546771E-02  0.1148639E+00
         21   -1    0    0  503  502  0.00000000000E+00  0.00000000000E+00  0.27243150976E+03  0.27243150976E+03  0.00000000000E+00 0.  1.
         21   -1    0    0  501  503 -0.00000000000E+00 -0.00000000000E+00 -0.53323052157E+03  0.53323052157E+03  0.00000000000E+00 0.  1.
          6    1    1    2  501    0 -0.46107965713E+02 -0.92034769054E+02 -0.47245783964E+03  0.51355793583E+03  0.17300000000E+03 0.  1.
         -6    1    1    2    0  502  0.46107965713E+02  0.92034769054E+02  0.21165882782E+03  0.29210409551E+03  0.17300000000E+03 0.  1.
<mgrwt>
<rscale>  2 0.20130907E+03</rscale>
<asrwt>0</asrwt>
<pdfrwt beam="1">  1       21 0.41912540E-01 0.20130907E+03</pdfrwt>
<pdfrwt beam="2">  1       21 0.82035464E-01 0.20130907E+03</pdfrwt>
<totfact> 0.70737353E+03</totfact>
</mgrwt>
</event>
<event>
 4    1  0.4495571E+000  0.1956355E+03  0.7546771E-02  0.1153475E+00
         21   -1    0    0  501  502  0.00000000000E+00  0.00000000000E+00  0.34273152706E+03  0.34273152706E+03  0.00000000000E+00 0. -1.
         21   -1    0    0  502  503 -0.00000000000E+00 -0.00000000000E+00 -0.66591463283E+03  0.66591463283E+03  0.00000000000E+00 0. -1.
          6    1    1    2  501    0  0.72072588771E+02  0.56122849120E+02  0.29850592491E+03  0.35690197457E+03  0.17300000000E+03 0. -1.
         -6    1    1    2    0  503 -0.72072588771E+02 -0.56122849120E+02 -0.62168903067E+03  0.65174418532E+03  0.17300000000E+03 0. -1.
<mgrwt>
<rscale>  2 0.19563546E+03</rscale>
<asrwt>0</asrwt>
<pdfrwt beam="1">  1       21 0.52727927E-01 0.19563546E+03</pdfrwt>
<pdfrwt beam="2">  1       21 0.10244841E+00 0.19563546E+03</pdfrwt>
<totfact> 0.26353120E+03</totfact>
</mgrwt>
</event>
<event>
 4    1  0.4495571E+000  0.1896925E+03  0.7546771E-02  0.1158739E+00
         21   -1    0    0  501  502  0.00000000000E+00  0.00000000000E+00  0.15295329919E+03  0.15295329919E+03  0.00000000000E+00 0. -1.
         21   -1    0    0  502  503 -0.00000000000E+00 -0.00000000000E+00 -0.49869487786E+03  0.49869487786E+03  0.00000000000E+00 0. -1.
          6    1    1    2  501    0 -0.32798116922E+02  0.70558685108E+02  0.63942095703E+02  0.20017950974E+03  0.17300000000E+03 0. -1.
         -6    1    1    2    0  503  0.32798116922E+02 -0.70558685108E+02 -0.40968367437E+03  0.45146866731E+03  0.17300000000E+03 0. -1.
<mgrwt>
<rscale>  2 0.18969250E+03</rscale>
<asrwt>0</asrwt>
<pdfrwt beam="1">  1       21 0.23531277E-01 0.18969250E+03</pdfrwt>
<pdfrwt beam="2">  1       21 0.76722290E-01 0.18969250E+03</pdfrwt>
<totfact> 0.25728474E+04</totfact>
</mgrwt>
</event>
<event>
 4    1  0.4495571E+000  0.1950914E+03  0.7546771E-02  0.1153948E+00
         21   -1    0    0  503  502  0.00000000000E+00  0.00000000000E+00  0.11642290297E+03  0.11642290297E+03  0.00000000000E+00 0. -1.
         21   -1    0    0  501  503 -0.00000000000E+00 -0.00000000000E+00 -0.33393282630E+03  0.33393282630E+03  0.00000000000E+00 0. -1.
          6    1    1    2  501    0  0.89276004356E+02  0.12705651457E+02 -0.14139361769E+03  0.24094147351E+03  0.17300000000E+03 0. -1.
         -6    1    1    2    0  502 -0.89276004356E+02 -0.12705651457E+02 -0.76116305635E+02  0.20941425576E+03  0.17300000000E+03 0. -1.
<mgrwt>
<rscale>  2 0.19509136E+03</rscale>
<asrwt>0</asrwt>
<pdfrwt beam="1">  1       21 0.17911216E-01 0.19509136E+03</pdfrwt>
<pdfrwt beam="2">  1       21 0.51374280E-01 0.19509136E+03</pdfrwt>
<totfact> 0.10192088E+05</totfact>
</mgrwt>
</event>
<event>
 4    1  0.4495571E+000  0.3098027E+03  0.7546771E-02  0.1080440E+00
         21   -1    0    0  501  502  0.00000000000E+00  0.00000000000E+00  0.84873117638E+02  0.84873117638E+02  0.00000000000E+00 0. -1.
         21   -1    0    0  502  503 -0.00000000000E+00 -0.00000000000E+00 -0.11583663754E+04  0.11583663754E+04  0.00000000000E+00 0.  1.
          6    1    1    2  501    0  0.39397322552E+02  0.25396171643E+03 -0.44091778991E+03  0.53887493901E+03  0.17300000000E+03 0. -1.
         -6    1    1    2    0  503 -0.39397322552E+02 -0.25396171643E+03 -0.63257546785E+03  0.70436455403E+03  0.17300000000E+03 0. -1.
<mgrwt>
<rscale>  2 0.30980268E+03</rscale>
<asrwt>0</asrwt>
<pdfrwt beam="1">  1       21 0.13057404E-01 0.30980268E+03</pdfrwt>
<pdfrwt beam="2">  1       21 0.17821020E+00 0.30980268E+03</pdfrwt>
<totfact> 0.87441416E+03</totfact>
</mgrwt>
</event>
