<event>
 4    1  0.6365705E-002  0.1878025E+03  0.7818608E-02  0.1160458E+00
          2   -1    0    0  502    0  0.00000000000E+00  0.00000000000E+00  0.18844190659E+04  0.18844190659E+04  0.00000000000E+00 0. -1.
         -2   -1    0    0    0  501 -0.00000000000E+00 -0.00000000000E+00 -0.25676213779E+02  0.25676213779E+02  0.00000000000E+00 0.  1.
          6    1    1    2  502    0 -0.75331998934E+02  0.32940146817E+01  0.14265984431E+04  0.14389068345E+04  0.17200000000E+03 0. -1.
         -6    1    1    2    0  501  0.75331998934E+02 -0.32940146817E+01  0.43214440903E+03  0.47118844516E+03  0.17200000000E+03 0. -1.
</event>
<event>
 4    1  0.6365705E-002  0.2157906E+03  0.7818608E-02  0.1137061E+00
         -4   -1    0    0    0  501 -0.00000000000E+00  0.00000000000E+00  0.76418192422E+03  0.76418192422E+03  0.00000000000E+00 0.  1.
          4   -1    0    0  502    0  0.00000000000E+00 -0.00000000000E+00 -0.71413881076E+02  0.71413881076E+02  0.00000000000E+00 0. -1.
          6    1    1    2  502    0  0.91062145128E+02 -0.93216181654E+02  0.18634405402E+03  0.28511344631E+03  0.17200000000E+03 0. -1.
         -6    1    1    2    0  501 -0.91062145128E+02  0.93216181654E+02  0.50642398912E+03  0.55048235898E+03  0.17200000000E+03 0.  1.
</event>
<event>
 4    1  0.6365705E-002  0.1919644E+03  0.7818608E-02  0.1156701E+00
         -2   -1    0    0    0  501 -0.00000000000E+00  0.00000000000E+00  0.15397400827E+03  0.15397400827E+03  0.00000000000E+00 0.  1.
          2   -1    0    0  502    0  0.00000000000E+00 -0.00000000000E+00 -0.21322655396E+04  0.21322655396E+04  0.00000000000E+00 0. -1.
          6    1    1    2  502    0 -0.66296324905E+02 -0.53582981240E+02 -0.20662040367E+04  0.20751022769E+04  0.17200000000E+03 0. -1.
         -6    1    1    2    0  501  0.66296324905E+02  0.53582981240E+02  0.87912505355E+02  0.21113727092E+03  0.17200000000E+03 0.  1.
</event>
<event>
 4    1  0.6365705E-002  0.1722842E+03  0.7818608E-02  0.1175486E+00
          2   -1    0    0  502    0  0.00000000000E+00  0.00000000000E+00  0.10915993631E+04  0.10915993631E+04  0.00000000000E+00 0. -1.
         -2   -1    0    0    0  501 -0.00000000000E+00 -0.00000000000E+00 -0.27319889992E+02  0.27319889992E+02  0.00000000000E+00 0.  1.
          6    1    1    2  502    0  0.95638464633E+01  0.25287769466E+01  0.57054186909E+03  0.59598648160E+03  0.17200000000E+03 0. -1.
         -6    1    1    2    0  501 -0.95638464633E+01 -0.25287769466E+01  0.49373760401E+03  0.52293277148E+03  0.17200000000E+03 0.  1.
</event>
<event>
 4    1  0.6365705E-002  0.1978307E+03  0.7818608E-02  0.1151582E+00
          2   -1    0    0  502    0  0.00000000000E+00  0.00000000000E+00  0.47541983733E+03  0.47541983733E+03  0.00000000000E+00 0. -1.
         -2   -1    0    0    0  501 -0.00000000000E+00 -0.00000000000E+00 -0.14606759442E+03  0.14606759442E+03  0.00000000000E+00 0.  1.
          6    1    1    2  502    0  0.36899586213E+02 -0.90506294356E+02  0.36995978754E+03  0.41953213605E+03  0.17200000000E+03 0. -1.
         -6    1    1    2    0  501 -0.36899586213E+02  0.90506294356E+02 -0.40607544625E+02  0.20195529570E+03  0.17200000000E+03 0.  1.
</event>
<event>
 4    1  0.6365705E-002  0.2501464E+03  0.7818608E-02  0.1113212E+00
         -1   -1    0    0    0  501 -0.00000000000E+00  0.00000000000E+00  0.14845367761E+03  0.14845367761E+03  0.00000000000E+00 0.  1.
          1   -1    0    0  502    0  0.00000000000E+00 -0.00000000000E+00 -0.62539187685E+03  0.62539187685E+03  0.00000000000E+00 0. -1.
          6    1    1    2  502    0  0.87369497061E+02 -0.15923500209E+03 -0.45939580364E+03  0.52308481082E+03  0.17200000000E+03 0.  1.
         -6    1    1    2    0  501 -0.87369497061E+02  0.15923500209E+03 -0.17542395597E+02  0.25076074364E+03  0.17200000000E+03 0.  1.
</event>
<event>
 4    1  0.6365705E-002  0.8793832E+03  0.7818608E-02  0.9451727E-01
         -2   -1    0    0    0  501 -0.00000000000E+00  0.00000000000E+00  0.15821797366E+04  0.15821797366E+04  0.00000000000E+00 0.  1.
          2   -1    0    0  502    0  0.00000000000E+00 -0.00000000000E+00 -0.48950829391E+03  0.48950829391E+03  0.00000000000E+00 0. -1.
          6    1    1    2  502    0 -0.83696460392E+03  0.20789695351E+03  0.50598562831E+03  0.10145621457E+04  0.17200000000E+03 0. -1.
         -6    1    1    2    0  501  0.83696460392E+03 -0.20789695351E+03  0.58668581438E+03  0.10571258848E+04  0.17200000000E+03 0.  1.
</event>
<event>
 4    1  0.6365705E-002  0.3572262E+03  0.7818608E-02  0.1059688E+00
         -2   -1    0    0    0  501 -0.00000000000E+00  0.00000000000E+00  0.29120799781E+03  0.29120799781E+03  0.00000000000E+00 0.  1.
          2   -1    0    0  502    0  0.00000000000E+00 -0.00000000000E+00 -0.10810296600E+04  0.10810296600E+04  0.00000000000E+00 0. -1.
          6    1    1    2  502    0 -0.10000776555E+03  0.29669010569E+03 -0.92399497022E+03  0.99064487934E+03  0.17200000000E+03 0. -1.
         -6    1    1    2    0  501  0.10000776555E+03 -0.29669010569E+03  0.13417330803E+03  0.38159277846E+03  0.17200000000E+03 0.  1.
</event>
<event>
 4    1  0.6365705E-002  0.1863589E+03  0.7818608E-02  0.1161787E+00
          1   -1    0    0  502    0  0.00000000000E+00  0.00000000000E+00  0.70234065189E+03  0.70234065189E+03  0.00000000000E+00 0. -1.
         -1   -1    0    0    0  501 -0.00000000000E+00 -0.00000000000E+00 -0.52190943713E+02  0.52190943713E+02  0.00000000000E+00 0.  1.
          6    1    1    2  502    0 -0.67183219840E+02 -0.25140592583E+02  0.23859296234E+03  0.30274780941E+03  0.17200000000E+03 0. -1.
         -6    1    1    2    0  501  0.67183219840E+02  0.25140592583E+02  0.41155674584E+03  0.45178378620E+03  0.17200000000E+03 0.  1.
</event>
<event>
 4    1  0.6365705E-002  0.2375555E+03  0.7818608E-02  0.1121432E+00
          2   -1    0    0  502    0  0.00000000000E+00  0.00000000000E+00  0.20768667403E+03  0.20768667403E+03  0.00000000000E+00 0. -1.
         -2   -1    0    0    0  501 -0.00000000000E+00 -0.00000000000E+00 -0.27200964515E+03  0.27200964515E+03  0.00000000000E+00 0.  1.
          6    1    1    2  502    0 -0.16245079313E+03 -0.21409744958E+02 -0.24335739844E+02  0.23879879732E+03  0.17200000000E+03 0. -1.
         -6    1    1    2    0  501  0.16245079313E+03  0.21409744958E+02 -0.39987231278E+02  0.24089752185E+03  0.17200000000E+03 0.  1.
</event>
<event>
 4    1  0.6365705E-002  0.2116004E+03  0.7818608E-02  0.1140305E+00
         -2   -1    0    0    0  501 -0.00000000000E+00  0.00000000000E+00  0.59264393590E+03  0.59264393590E+03  0.00000000000E+00 0.  1.
          2   -1    0    0  502    0  0.00000000000E+00 -0.00000000000E+00 -0.60814501806E+03  0.60814501806E+03  0.00000000000E+00 0. -1.
          6    1    1    2  502    0  0.11563523066E+03  0.42652515091E+02 -0.56961468984E+03  0.60764762692E+03  0.17200000000E+03 0. -1.
         -6    1    1    2    0  501 -0.11563523066E+03 -0.42652515091E+02  0.55411360769E+03  0.59314132704E+03  0.17200000000E+03 0.  1.
</event>
<event>
 4    1  0.6365705E-002  0.2173648E+03  0.7818608E-02  0.1135863E+00
          2   -1    0    0  502    0  0.00000000000E+00  0.00000000000E+00  0.40709749772E+03  0.40709749772E+03  0.00000000000E+00 0. -1.
         -2   -1    0    0    0  501 -0.00000000000E+00 -0.00000000000E+00 -0.11668642292E+03  0.11668642292E+03  0.00000000000E+00 0.  1.
          6    1    1    2  502    0 -0.44468872655E+02 -0.12524364340E+03  0.12600611579E+03  0.25124687473E+03  0.17200000000E+03 0.  1.
         -6    1    1    2    0  501  0.44468872655E+02  0.12524364340E+03  0.16440495900E+03  0.27253704591E+03  0.17200000000E+03 0. -1.
</event>
<event>
 4    1  0.6365705E-002  0.2212270E+03  0.7818608E-02  0.1132972E+00
         -4   -1    0    0    0  501 -0.00000000000E+00  0.00000000000E+00  0.81858733320E+02  0.81858733320E+02  0.00000000000E+00 0.  1.
          4   -1    0    0  502    0  0.00000000000E+00 -0.00000000000E+00 -0.61365231009E+03  0.61365231009E+03  0.00000000000E+00 0. -1.
          6    1    1    2  502    0  0.78494133631E+02  0.11487407233E+03 -0.32165565960E+03  0.39038922226E+03  0.17200000000E+03 0.  1.
         -6    1    1    2    0  501 -0.78494133631E+02 -0.11487407233E+03 -0.21013791717E+03  0.30512182115E+03  0.17200000000E+03 0.  1.
</event>
<event>
 4    1  0.6365705E-002  0.2226455E+03  0.7818608E-02  0.1131926E+00
         -3   -1    0    0    0  501 -0.00000000000E+00  0.00000000000E+00  0.20175509066E+03  0.20175509066E+03  0.00000000000E+00 0.  1.
          3   -1    0    0  502    0  0.00000000000E+00 -0.00000000000E+00 -0.28075283625E+03  0.28075283625E+03  0.00000000000E+00 0. -1.
          6    1    1    2  502    0  0.13973039465E+03  0.21504776399E+02 -0.12474599167E+03  0.25521089522E+03  0.17200000000E+03 0. -1.
         -6    1    1    2    0  501 -0.13973039465E+03 -0.21504776399E+02  0.45748246083E+02  0.22729703170E+03  0.17200000000E+03 0.  1.
</event>
<event>
 4    1  0.6365705E-002  0.2381948E+03  0.7818608E-02  0.1121001E+00
          4   -1    0    0  502    0  0.00000000000E+00  0.00000000000E+00  0.16059129902E+03  0.16059129902E+03  0.00000000000E+00 0. -1.
         -4   -1    0    0    0  501 -0.00000000000E+00 -0.00000000000E+00 -0.46375703133E+03  0.46375703133E+03  0.00000000000E+00 0.  1.
          6    1    1    2  502    0  0.15206623670E+03 -0.63471496557E+02  0.76979272926E+00  0.23819606168E+03  0.17200000000E+03 0. -1.
         -6    1    1    2    0  501 -0.15206623670E+03  0.63471496557E+02 -0.30393552504E+03  0.38615226867E+03  0.17200000000E+03 0.  1.
</event>
<event>
 4    1  0.6365705E-002  0.1954383E+03  0.7818608E-02  0.1153646E+00
          2   -1    0    0  502    0  0.00000000000E+00  0.00000000000E+00  0.77249360583E+03  0.77249360583E+03  0.00000000000E+00 0. -1.
         -2   -1    0    0    0  501 -0.00000000000E+00 -0.00000000000E+00 -0.70259455165E+02  0.70259455165E+02  0.00000000000E+00 0.  1.
          6    1    1    2  502    0 -0.76819546165E+02  0.52066253389E+02  0.12176752271E+03  0.23026825010E+03  0.17200000000E+03 0.  1.
         -6    1    1    2    0  501  0.76819546165E+02 -0.52066253389E+02  0.58046662795E+03  0.61248481090E+03  0.17200000000E+03 0. -1.
</event>
<event>
 4    1  0.6365705E-002  0.4112463E+03  0.7818608E-02  0.1039954E+00
          2   -1    0    0  502    0  0.00000000000E+00  0.00000000000E+00  0.12584027976E+04  0.12584027976E+04  0.00000000000E+00 0. -1.
         -2   -1    0    0    0  501 -0.00000000000E+00 -0.00000000000E+00 -0.13826080574E+03  0.13826080574E+03  0.00000000000E+00 0.  1.
          6    1    1    2  502    0 -0.81541770491E+02 -0.36454138393E+03  0.67683602358E+03  0.79197884047E+03  0.17200000000E+03 0. -1.
         -6    1    1    2    0  501  0.81541770491E+02  0.36454138393E+03  0.44330596827E+03  0.60468476286E+03  0.17200000000E+03 0.  1.
</event>
<event>
 4    1  0.6365705E-002  0.2826411E+03  0.7818608E-02  0.1094255E+00
         -2   -1    0    0    0  501 -0.00000000000E+00  0.00000000000E+00  0.56014599281E+02  0.56014599281E+02  0.00000000000E+00 0.  1.
          2   -1    0    0  502    0  0.00000000000E+00 -0.00000000000E+00 -0.21718959085E+04  0.21718959085E+04  0.00000000000E+00 0. -1.
          6    1    1    2  502    0 -0.18654876182E+03 -0.12450524138E+03 -0.17106797932E+04  0.17338717803E+04  0.17200000000E+03 0. -1.
         -6    1    1    2    0  501  0.18654876182E+03  0.12450524138E+03 -0.40520151604E+03  0.49403872750E+03  0.17200000000E+03 0.  1.
</event>
<event>
 4    1  0.6365705E-002  0.2585853E+03  0.7818608E-02  0.1107996E+00
          3   -1    0    0  502    0  0.00000000000E+00  0.00000000000E+00  0.14406373623E+04  0.14406373623E+04  0.00000000000E+00 0. -1.
         -3   -1    0    0    0  501 -0.00000000000E+00 -0.00000000000E+00 -0.47920158827E+02  0.47920158827E+02  0.00000000000E+00 0.  1.
          6    1    1    2  502    0  0.16776466413E+03  0.95589660552E+02  0.82829040865E+03  0.86771617871E+03  0.17200000000E+03 0. -1.
         -6    1    1    2    0  501 -0.16776466413E+03 -0.95589660552E+02  0.56442679480E+03  0.62084134240E+03  0.17200000000E+03 0.  1.
</event>
<event>
 4    1  0.6365705E-002  0.1797193E+03  0.7818608E-02  0.1168075E+00
          1   -1    0    0  502    0  0.00000000000E+00  0.00000000000E+00  0.10175602697E+04  0.10175602697E+04  0.00000000000E+00 0. -1.
         -1   -1    0    0    0  501 -0.00000000000E+00 -0.00000000000E+00 -0.22300730220E+03  0.22300730220E+03  0.00000000000E+00 0.  1.
          6    1    1    2  502    0  0.26629087772E+02 -0.44787476431E+02  0.97172273184E+03  0.98820245595E+03  0.17200000000E+03 0. -1.
         -6    1    1    2    0  501 -0.26629087772E+02  0.44787476431E+02 -0.17716976434E+03  0.25236511597E+03  0.17200000000E+03 0.  1.
</event>
<event>
 4    1  0.6365705E-002  0.1872871E+03  0.7818608E-02  0.1160931E+00
          1   -1    0    0  502    0  0.00000000000E+00  0.00000000000E+00  0.21215689662E+03  0.21215689662E+03  0.00000000000E+00 0. -1.
         -1   -1    0    0    0  501 -0.00000000000E+00 -0.00000000000E+00 -0.17193535169E+03  0.17193535169E+03  0.00000000000E+00 0.  1.
          6    1    1    2  502    0 -0.72155716348E+02  0.16911342424E+02 -0.17523805823E+02  0.18810508944E+03  0.17200000000E+03 0. -1.
         -6    1    1    2    0  501  0.72155716348E+02 -0.16911342424E+02  0.57745350754E+02  0.19598715886E+03  0.17200000000E+03 0. -1.
</event>
<event>
 4    1  0.6365705E-002  0.2426507E+03  0.7818608E-02  0.1118040E+00
         -2   -1    0    0    0  501 -0.00000000000E+00  0.00000000000E+00  0.17940206790E+03  0.17940206790E+03  0.00000000000E+00 0.  1.
          2   -1    0    0  502    0  0.00000000000E+00 -0.00000000000E+00 -0.22153236375E+04  0.22153236375E+04  0.00000000000E+00 0. -1.
          6    1    1    2  502    0  0.16695551733E+03 -0.37698905446E+02 -0.21230761763E+04  0.21368977052E+04  0.17200000000E+03 0. -1.
         -6    1    1    2    0  501 -0.16695551733E+03  0.37698905446E+02  0.87154606652E+02  0.25782800023E+03  0.17200000000E+03 0.  1.
</event>
<event>
 4    1  0.6365705E-002  0.1739896E+03  0.7818608E-02  0.1173750E+00
         -2   -1    0    0    0  501 -0.00000000000E+00  0.00000000000E+00  0.84137703770E+03  0.84137703770E+03  0.00000000000E+00 0.  1.
          2   -1    0    0  502    0  0.00000000000E+00 -0.00000000000E+00 -0.46440815592E+02  0.46440815592E+02  0.00000000000E+00 0. -1.
          6    1    1    2  502    0 -0.10630234796E+02  0.23987156872E+02  0.18678213927E+03  0.25526447684E+03  0.17200000000E+03 0. -1.
         -6    1    1    2    0  501  0.10630234796E+02 -0.23987156872E+02  0.60815408284E+03  0.63255337645E+03  0.17200000000E+03 0.  1.
</event>
<event>
 4    1  0.6365705E-002  0.2287738E+03  0.7818608E-02  0.1127506E+00
         -2   -1    0    0    0  501 -0.00000000000E+00  0.00000000000E+00  0.65960430768E+02  0.65960430768E+02  0.00000000000E+00 0.  1.
          2   -1    0    0  502    0  0.00000000000E+00 -0.00000000000E+00 -0.79736112585E+03  0.79736112585E+03  0.00000000000E+00 0. -1.
          6    1    1    2  502    0  0.62866355736E+02 -0.13711780277E+03 -0.39586384301E+03  0.45721510552E+03  0.17200000000E+03 0.  1.
         -6    1    1    2    0  501 -0.62866355736E+02  0.13711780277E+03 -0.33553685207E+03  0.40610645109E+03  0.17200000000E+03 0. -1.
</event>
<event>
 4    1  0.6365705E-002  0.3685477E+03  0.7818608E-02  0.1055250E+00
         -2   -1    0    0    0  501 -0.00000000000E+00  0.00000000000E+00  0.33851070540E+03  0.33851070540E+03  0.00000000000E+00 0.  1.
          2   -1    0    0  502    0  0.00000000000E+00 -0.00000000000E+00 -0.42348755405E+03  0.42348755405E+03  0.00000000000E+00 0. -1.
          6    1    1    2  502    0 -0.21217703667E+03 -0.24743544805E+03  0.44818337134E+02  0.37126281686E+03  0.17200000000E+03 0. -1.
         -6    1    1    2    0  501  0.21217703667E+03  0.24743544805E+03 -0.12979518578E+03  0.39073544259E+03  0.17200000000E+03 0.  1.
</event>
<event>
 4    1  0.6365705E-002  0.1763081E+03  0.7818608E-02  0.1171425E+00
          2   -1    0    0  502    0  0.00000000000E+00  0.00000000000E+00  0.15073765772E+04  0.15073765772E+04  0.00000000000E+00 0. -1.
         -2   -1    0    0    0  501 -0.00000000000E+00 -0.00000000000E+00 -0.43813444459E+02  0.43813444459E+02  0.00000000000E+00 0.  1.
          6    1    1    2  502    0  0.12963755355E+02 -0.36503175645E+02  0.12960669539E+04  0.13080038569E+04  0.17200000000E+03 0. -1.
         -6    1    1    2    0  501 -0.12963755355E+02  0.36503175645E+02  0.16749617886E+03  0.24318616473E+03  0.17200000000E+03 0.  1.
</event>
<event>
 4    1  0.6365705E-002  0.2407244E+03  0.7818608E-02  0.1119311E+00
         -2   -1    0    0    0  501 -0.00000000000E+00  0.00000000000E+00  0.54801198141E+02  0.54801198141E+02  0.00000000000E+00 0.  1.
          2   -1    0    0  502    0  0.00000000000E+00 -0.00000000000E+00 -0.15300568334E+04  0.15300568334E+04  0.00000000000E+00 0. -1.
          6    1    1    2  502    0 -0.29707935906E+02  0.16577593494E+03 -0.11780483188E+04  0.12023918095E+04  0.17200000000E+03 0. -1.
         -6    1    1    2    0  501  0.29707935906E+02 -0.16577593494E+03 -0.29720731643E+03  0.38246622204E+03  0.17200000000E+03 0.  1.
</event>
<event>
 4    1  0.6365705E-002  0.1869530E+03  0.7818608E-02  0.1161239E+00
          2   -1    0    0  502    0  0.00000000000E+00  0.00000000000E+00  0.10832822489E+04  0.10832822489E+04  0.00000000000E+00 0. -1.
         -2   -1    0    0    0  501 -0.00000000000E+00 -0.00000000000E+00 -0.33634943086E+02  0.33634943086E+02  0.00000000000E+00 0.  1.
          6    1    1    2  502    0  0.45920151677E+02 -0.57085691660E+02  0.41209243176E+03  0.45251697077E+03  0.17200000000E+03 0.  1.
         -6    1    1    2    0  501 -0.45920151677E+02  0.57085691660E+02  0.63755487410E+03  0.66440022126E+03  0.17200000000E+03 0. -1.
</event>
<event>
 4    1  0.6365705E-002  0.3420381E+03  0.7818608E-02  0.1065931E+00
          2   -1    0    0  502    0  0.00000000000E+00  0.00000000000E+00  0.26082935624E+04  0.26082935624E+04  0.00000000000E+00 0. -1.
         -2   -1    0    0    0  501 -0.00000000000E+00 -0.00000000000E+00 -0.75821517818E+02  0.75821517818E+02  0.00000000000E+00 0.  1.
          6    1    1    2  502    0  0.29562587994E+03 -0.33760120737E+01  0.21239340100E+04  0.21512986165E+04  0.17200000000E+03 0. -1.
         -6    1    1    2    0  501 -0.29562587994E+03  0.33760120737E+01  0.40853803458E+03  0.53281646375E+03  0.17200000000E+03 0.  1.
</event>
<event>
 4    1  0.6365705E-002  0.2044983E+03  0.7818608E-02  0.1145998E+00
         -1   -1    0    0    0  501 -0.00000000000E+00  0.00000000000E+00  0.64585421841E+03  0.64585421841E+03  0.00000000000E+00 0.  1.
          1   -1    0    0  502    0  0.00000000000E+00 -0.00000000000E+00 -0.16713577702E+03  0.16713577702E+03  0.00000000000E+00 0. -1.
          6    1    1    2  502    0  0.50327536383E+02  0.98502234729E+02 -0.78795738912E+02  0.21915364390E+03  0.17200000000E+03 0. -1.
         -6    1    1    2    0  501 -0.50327536383E+02 -0.98502234729E+02  0.55751418029E+03  0.59383635153E+03  0.17200000000E+03 0.  1.
</event>
<event>
 4    1  0.6365705E-002  0.3067907E+03  0.7818608E-02  0.1081894E+00
         -3   -1    0    0    0  501 -0.00000000000E+00  0.00000000000E+00  0.48342226689E+03  0.48342226689E+03  0.00000000000E+00 0.  1.
          3   -1    0    0  502    0  0.00000000000E+00 -0.00000000000E+00 -0.22918682384E+03  0.22918682384E+03  0.00000000000E+00 0. -1.
          6    1    1    2  502    0  0.24680336405E+03 -0.60205092463E+02 -0.11103931905E+02  0.30699161384E+03  0.17200000000E+03 0. -1.
         -6    1    1    2    0  501 -0.24680336405E+03  0.60205092463E+02  0.26533937496E+03  0.40561747690E+03  0.17200000000E+03 0.  1.
</event>
<event>
 4    1  0.6365705E-002  0.3449389E+03  0.7818608E-02  0.1064712E+00
         -1   -1    0    0    0  501 -0.00000000000E+00  0.00000000000E+00  0.46815747819E+03  0.46815747819E+03  0.00000000000E+00 0.  1.
          1   -1    0    0  502    0  0.00000000000E+00 -0.00000000000E+00 -0.28835667026E+03  0.28835667026E+03  0.00000000000E+00 0. -1.
          6    1    1    2  502    0 -0.29288813109E+03 -0.60127990599E+02 -0.40377029375E+02  0.34729402110E+03  0.17200000000E+03 0. -1.
         -6    1    1    2    0  501  0.29288813109E+03  0.60127990599E+02  0.22017783731E+03  0.40922012735E+03  0.17200000000E+03 0.  1.
</event>
<event>
 4    1  0.6365705E-002  0.2552947E+03  0.7818608E-02  0.1110004E+00
          2   -1    0    0  502    0  0.00000000000E+00  0.00000000000E+00  0.64034488471E+03  0.64034488471E+03  0.00000000000E+00 0. -1.
         -2   -1    0    0    0  501 -0.00000000000E+00 -0.00000000000E+00 -0.12332392309E+03  0.12332392309E+03  0.00000000000E+00 0.  1.
          6    1    1    2  502    0 -0.13720267173E+03 -0.12948670089E+03  0.41809723468E+03  0.48987822617E+03  0.17200000000E+03 0. -1.
         -6    1    1    2    0  501  0.13720267173E+03  0.12948670089E+03  0.98923726950E+02  0.27379058163E+03  0.17200000000E+03 0.  1.
</event>
<event>
 4    1  0.6365705E-002  0.1897996E+03  0.7818608E-02  0.1158642E+00
          2   -1    0    0  502    0  0.00000000000E+00  0.00000000000E+00  0.39151732985E+03  0.39151732985E+03  0.00000000000E+00 0. -1.
         -2   -1    0    0    0  501 -0.00000000000E+00 -0.00000000000E+00 -0.17844500326E+03  0.17844500326E+03  0.00000000000E+00 0.  1.
          6    1    1    2  502    0  0.49208529170E+02 -0.63390870639E+02  0.30487437881E+03  0.35912709266E+03  0.17200000000E+03 0. -1.
         -6    1    1    2    0  501 -0.49208529170E+02  0.63390870639E+02 -0.91802052223E+02  0.21083524045E+03  0.17200000000E+03 0.  1.
</event>
<event>
 4    1  0.6365705E-002  0.2038724E+03  0.7818608E-02  0.1146512E+00
          2   -1    0    0  502    0  0.00000000000E+00  0.00000000000E+00  0.22418622031E+04  0.22418622031E+04  0.00000000000E+00 0. -1.
         -2   -1    0    0    0  501 -0.00000000000E+00 -0.00000000000E+00 -0.20121052075E+02  0.20121052075E+02  0.00000000000E+00 0.  1.
          6    1    1    2  502    0  0.96797046177E+02  0.51091124028E+02  0.14279124140E+04  0.14423930924E+04  0.17200000000E+03 0.  1.
         -6    1    1    2    0  501 -0.96797046177E+02 -0.51091124028E+02  0.79382873704E+03  0.81959016274E+03  0.17200000000E+03 0.  1.
</event>
<event>
 4    1  0.6365705E-002  0.1736167E+03  0.7818608E-02  0.1174128E+00
          2   -1    0    0  502    0  0.00000000000E+00  0.00000000000E+00  0.19928261120E+04  0.19928261120E+04  0.00000000000E+00 0. -1.
         -2   -1    0    0    0  501 -0.00000000000E+00 -0.00000000000E+00 -0.28079620441E+02  0.28079620441E+02  0.00000000000E+00 0.  1.
          6    1    1    2  502    0 -0.22826692218E+02 -0.61398660506E+01  0.29606031062E+03  0.34321198021E+03  0.17200000000E+03 0.  1.
         -6    1    1    2    0  501  0.22826692218E+02  0.61398660506E+01  0.16686861809E+04  0.16776937522E+04  0.17200000000E+03 0. -1.
</event>
<event>
 4    1  0.6365705E-002  0.2598404E+03  0.7818608E-02  0.1107239E+00
         -1   -1    0    0    0  501 -0.00000000000E+00  0.00000000000E+00  0.16616994200E+04  0.16616994200E+04  0.00000000000E+00 0.  1.
          1   -1    0    0  502    0  0.00000000000E+00 -0.00000000000E+00 -0.72945383255E+02  0.72945383255E+02  0.00000000000E+00 0. -1.
          6    1    1    2  502    0 -0.18436093091E+03  0.62801901887E+02  0.13716450147E+04  0.13960397838E+04  0.17200000000E+03 0.  1.
         -6    1    1    2    0  501  0.18436093091E+03 -0.62801901887E+02  0.21710902208E+03  0.33860501945E+03  0.17200000000E+03 0. -1.
</event>
<event>
 4    1  0.6365705E-002  0.1967216E+03  0.7818608E-02  0.1152535E+00
          1   -1    0    0  502    0  0.00000000000E+00  0.00000000000E+00  0.17872396038E+04  0.17872396038E+04  0.00000000000E+00 0. -1.
         -1   -1    0    0    0  501 -0.00000000000E+00 -0.00000000000E+00 -0.23278792074E+02  0.23278792074E+02  0.00000000000E+00 0.  1.
          6    1    1    2  502    0  0.69733970137E+02 -0.65211528996E+02  0.11212045315E+04  0.11383316615E+04  0.17200000000E+03 0. -1.
         -6    1    1    2    0  501 -0.69733970137E+02  0.65211528996E+02  0.64275628022E+03  0.67218673437E+03  0.17200000000E+03 0.  1.
</event>
<event>
 4    1  0.6365705E-002  0.3670342E+03  0.7818608E-02  0.1055833E+00
          1   -1    0    0  502    0  0.00000000000E+00  0.00000000000E+00  0.11616783677E+04  0.11616783677E+04  0.00000000000E+00 0. -1.
         -1   -1    0    0    0  501 -0.00000000000E+00 -0.00000000000E+00 -0.12297247375E+03  0.12297247375E+03  0.00000000000E+00 0.  1.
          6    1    1    2  502    0  0.29126073025E+03  0.14246861467E+03  0.67268380568E+03  0.76630126033E+03  0.17200000000E+03 0. -1.
         -6    1    1    2    0  501 -0.29126073025E+03 -0.14246861467E+03  0.36602208827E+03  0.51834958113E+03  0.17200000000E+03 0. -1.
</event>
<event>
 4    1  0.6365705E-002  0.2343207E+03  0.7818608E-02  0.1123635E+00
          4   -1    0    0  502    0  0.00000000000E+00  0.00000000000E+00  0.98455681587E+03  0.98455681587E+03  0.00000000000E+00 0. -1.
         -4   -1    0    0    0  501 -0.00000000000E+00 -0.00000000000E+00 -0.62636197537E+02  0.62636197537E+02  0.00000000000E+00 0.  1.
          6    1    1    2  502    0 -0.78830560230E+02  0.13823139506E+03  0.63435042640E+03  0.67624451147E+03  0.17200000000E+03 0. -1.
         -6    1    1    2    0  501  0.78830560230E+02 -0.13823139506E+03  0.28757019193E+03  0.37094850195E+03  0.17200000000E+03 0.  1.
</event>
<event>
 4    1  0.6365705E-002  0.1977228E+03  0.7818608E-02  0.1151675E+00
         -1   -1    0    0    0  501 -0.00000000000E+00  0.00000000000E+00  0.95331893825E+02  0.95331893825E+02  0.00000000000E+00 0.  1.
          1   -1    0    0  502    0  0.00000000000E+00 -0.00000000000E+00 -0.45924640020E+03  0.45924640020E+03  0.00000000000E+00 0. -1.
          6    1    1    2  502    0  0.92505604452E+02 -0.30870917675E+02 -0.27268006860E+03  0.33682149609E+03  0.17200000000E+03 0.  1.
         -6    1    1    2    0  501 -0.92505604452E+02  0.30870917675E+02 -0.91234437773E+02  0.21775679794E+03  0.17200000000E+03 0.  1.
</event>
<event>
 4    1  0.6365705E-002  0.7345167E+03  0.7818608E-02  0.9659959E-01
          2   -1    0    0  502    0  0.00000000000E+00  0.00000000000E+00  0.20424394347E+04  0.20424394347E+04  0.00000000000E+00 0. -1.
         -2   -1    0    0    0  501 -0.00000000000E+00 -0.00000000000E+00 -0.47697513019E+03  0.47697513019E+03  0.00000000000E+00 0.  1.
          6    1    1    2  502    0 -0.60983227200E+03  0.37153107911E+03  0.16241874426E+04  0.17825542324E+04  0.17200000000E+03 0. -1.
         -6    1    1    2    0  501  0.60983227200E+03 -0.37153107911E+03 -0.58723138051E+02  0.73686033253E+03  0.17200000000E+03 0.  1.
</event>
<event>
 4    1  0.6365705E-002  0.4492141E+03  0.7818608E-02  0.1027957E+00
          2   -1    0    0  502    0  0.00000000000E+00  0.00000000000E+00  0.22209786395E+04  0.22209786395E+04  0.00000000000E+00 0. -1.
         -2   -1    0    0    0  501 -0.00000000000E+00 -0.00000000000E+00 -0.12692939460E+03  0.12692939460E+03  0.00000000000E+00 0.  1.
          6    1    1    2  502    0  0.37687317364E+02  0.41326625120E+03  0.16728488823E+04  0.17321133656E+04  0.17200000000E+03 0. -1.
         -6    1    1    2    0  501 -0.37687317364E+02 -0.41326625120E+03  0.42120036254E+03  0.61579466844E+03  0.17200000000E+03 0.  1.
</event>
<event>
 4    1  0.6365705E-002  0.3398903E+03  0.7818608E-02  0.1066843E+00
          1   -1    0    0  502    0  0.00000000000E+00  0.00000000000E+00  0.99026311548E+03  0.99026311548E+03  0.00000000000E+00 0. -1.
         -1   -1    0    0    0  501 -0.00000000000E+00 -0.00000000000E+00 -0.19157154828E+03  0.19157154828E+03  0.00000000000E+00 0.  1.
          6    1    1    2  502    0 -0.26822930528E+03  0.11829829301E+03  0.76886042790E+03  0.84063773644E+03  0.17200000000E+03 0. -1.
         -6    1    1    2    0  501  0.26822930528E+03 -0.11829829301E+03  0.29831139298E+02  0.34119692732E+03  0.17200000000E+03 0.  1.
</event>
<event>
 4    1  0.6365705E-002  0.2316041E+03  0.7818608E-02  0.1125516E+00
         -1   -1    0    0    0  501 -0.00000000000E+00  0.00000000000E+00  0.49970448202E+02  0.49970448202E+02  0.00000000000E+00 0.  1.
          1   -1    0    0  502    0  0.00000000000E+00 -0.00000000000E+00 -0.10900159253E+04  0.10900159253E+04  0.00000000000E+00 0. -1.
          6    1    1    2  502    0 -0.12574901668E+03 -0.90794426195E+02 -0.59030550464E+03  0.63411436810E+03  0.17200000000E+03 0.  1.
         -6    1    1    2    0  501  0.12574901668E+03  0.90794426195E+02 -0.44973997245E+03  0.50587200540E+03  0.17200000000E+03 0.  1.
</event>
<event>
 4    1  0.6365705E-002  0.2187501E+03  0.7818608E-02  0.1134818E+00
          2   -1    0    0  502    0  0.00000000000E+00  0.00000000000E+00  0.84445801913E+03  0.84445801913E+03  0.00000000000E+00 0. -1.
         -2   -1    0    0    0  501 -0.00000000000E+00 -0.00000000000E+00 -0.66362006065E+02  0.66362006065E+02  0.00000000000E+00 0.  1.
          6    1    1    2  502    0  0.55234959104E+02  0.12335593375E+03  0.56312915862E+03  0.60412418954E+03  0.17200000000E+03 0. -1.
         -6    1    1    2    0  501 -0.55234959104E+02 -0.12335593375E+03  0.21496685445E+03  0.30669583566E+03  0.17200000000E+03 0.  1.
</event>
<event>
 4    1  0.6365705E-002  0.2928242E+03  0.7818608E-02  0.1088884E+00
          3   -1    0    0  502    0  0.00000000000E+00  0.00000000000E+00  0.34877787762E+02  0.34877787762E+02  0.00000000000E+00 0. -1.
         -3   -1    0    0    0  501 -0.00000000000E+00 -0.00000000000E+00 -0.38685222069E+04  0.38685222069E+04  0.00000000000E+00 0.  1.
          6    1    1    2  502    0  0.95668884581E+02  0.21681674427E+03 -0.73851664451E+03  0.79445130140E+03  0.17200000000E+03 0. -1.
         -6    1    1    2    0  501 -0.95668884581E+02 -0.21681674427E+03 -0.30951277746E+04  0.31089486932E+04  0.17200000000E+03 0.  1.
</event>
<event>
 4    1  0.6365705E-002  0.1852895E+03  0.7818608E-02  0.1162780E+00
         -2   -1    0    0    0  501 -0.00000000000E+00  0.00000000000E+00  0.37869086228E+02  0.37869086228E+02  0.00000000000E+00 0.  1.
          2   -1    0    0  502    0  0.00000000000E+00 -0.00000000000E+00 -0.96504945351E+03  0.96504945351E+03  0.00000000000E+00 0. -1.
          6    1    1    2  502    0 -0.63469064581E+02  0.26830415309E+02 -0.58699817425E+03  0.61554776412E+03  0.17200000000E+03 0. -1.
         -6    1    1    2    0  501  0.63469064581E+02 -0.26830415309E+02 -0.34018219303E+03  0.38737077561E+03  0.17200000000E+03 0.  1.
</event>
<event>
 4    1  0.6365705E-002  0.2411886E+03  0.7818608E-02  0.1119004E+00
         -3   -1    0    0    0  501 -0.00000000000E+00  0.00000000000E+00  0.44301068282E+03  0.44301068282E+03  0.00000000000E+00 0.  1.
          3   -1    0    0  502    0  0.00000000000E+00 -0.00000000000E+00 -0.21677425232E+03  0.21677425232E+03  0.00000000000E+00 0. -1.
          6    1    1    2  502    0  0.11514145492E+03 -0.12381593397E+03 -0.94019704467E+02  0.25886607536E+03  0.17200000000E+03 0. -1.
         -6    1    1    2    0  501 -0.11514145492E+03  0.12381593397E+03  0.32025613496E+03  0.40091885978E+03  0.17200000000E+03 0.  1.
</event>
<event>
 4    1  0.6365705E-002  0.3885115E+03  0.7818608E-02  0.1047832E+00
         -1   -1    0    0    0  501 -0.00000000000E+00  0.00000000000E+00  0.97352424617E+02  0.97352424617E+02  0.00000000000E+00 0.  1.
          1   -1    0    0  502    0  0.00000000000E+00 -0.00000000000E+00 -0.15704383425E+04  0.15704383425E+04  0.00000000000E+00 0. -1.
          6    1    1    2  502    0  0.15053444468E+03 -0.31416004400E+03 -0.83059502608E+03  0.91696742016E+03  0.17200000000E+03 0. -1.
         -6    1    1    2    0  501 -0.15053444468E+03  0.31416004400E+03 -0.64249089177E+03  0.75082334693E+03  0.17200000000E+03 0.  1.
</event>
<event>
 4    1  0.6365705E-002  0.2703301E+03  0.7818608E-02  0.1101091E+00
          2   -1    0    0  502    0  0.00000000000E+00  0.00000000000E+00  0.17412712657E+04  0.17412712657E+04  0.00000000000E+00 0. -1.
         -2   -1    0    0    0  501 -0.00000000000E+00 -0.00000000000E+00 -0.49896784880E+02  0.49896784880E+02  0.00000000000E+00 0.  1.
          6    1    1    2  502    0 -0.18071649243E+03 -0.10409577082E+03  0.48869214959E+03  0.55847864526E+03  0.17200000000E+03 0.  1.
         -6    1    1    2    0  501  0.18071649243E+03  0.10409577082E+03  0.12026823312E+04  0.12326894053E+04  0.17200000000E+03 0. -1.
</event>
<event>
 4    1  0.6365705E-002  0.1844601E+03  0.7818608E-02  0.1163555E+00
         -2   -1    0    0    0  501 -0.00000000000E+00  0.00000000000E+00  0.14806037601E+02  0.14806037601E+02  0.00000000000E+00 0.  1.
          2   -1    0    0  502    0  0.00000000000E+00 -0.00000000000E+00 -0.23005927298E+04  0.23005927298E+04  0.00000000000E+00 0. -1.
          6    1    1    2  502    0  0.53893694353E+02  0.39204739353E+02 -0.11046757031E+04  0.11199705134E+04  0.17200000000E+03 0. -1.
         -6    1    1    2    0  501 -0.53893694353E+02 -0.39204739353E+02 -0.11811109890E+04  0.11954282539E+04  0.17200000000E+03 0. -1.
</event>
<event>
 4    1  0.6365705E-002  0.2440883E+03  0.7818608E-02  0.1117099E+00
          2   -1    0    0  502    0  0.00000000000E+00  0.00000000000E+00  0.23783077143E+03  0.23783077143E+03  0.00000000000E+00 0. -1.
         -2   -1    0    0    0  501 -0.00000000000E+00 -0.00000000000E+00 -0.36296480613E+03  0.36296480613E+03  0.00000000000E+00 0.  1.
          6    1    1    2  502    0  0.76720911476E+01 -0.17302089968E+03  0.10463927686E+03  0.26557196947E+03  0.17200000000E+03 0. -1.
         -6    1    1    2    0  501 -0.76720911476E+01  0.17302089968E+03 -0.22977331156E+03  0.33522360808E+03  0.17200000000E+03 0.  1.
</event>
<event>
 4    1  0.6365705E-002  0.1832892E+03  0.7818608E-02  0.1164657E+00
         -2   -1    0    0    0  501 -0.00000000000E+00  0.00000000000E+00  0.22466530131E+02  0.22466530131E+02  0.00000000000E+00 0.  1.
          2   -1    0    0  502    0  0.00000000000E+00 -0.00000000000E+00 -0.18474068505E+04  0.18474068505E+04  0.00000000000E+00 0. -1.
          6    1    1    2  502    0 -0.43711420895E+02 -0.45828493228E+02 -0.13206184162E+04  0.13332771431E+04  0.17200000000E+03 0. -1.
         -6    1    1    2    0  501  0.43711420895E+02  0.45828493228E+02 -0.50432190419E+03  0.53659623755E+03  0.17200000000E+03 0.  1.
</event>
<event>
 4    1  0.6365705E-002  0.2026987E+03  0.7818608E-02  0.1147482E+00
          1   -1    0    0  502    0  0.00000000000E+00  0.00000000000E+00  0.39141113592E+03  0.39141113592E+03  0.00000000000E+00 0. -1.
         -1   -1    0    0    0  501 -0.00000000000E+00 -0.00000000000E+00 -0.12595240930E+03  0.12595240930E+03  0.00000000000E+00 0.  1.
          6    1    1    2  502    0  0.70594337553E+02 -0.80741695438E+02  0.23830917448E+03  0.31285466996E+03  0.17200000000E+03 0. -1.
         -6    1    1    2    0  501 -0.70594337553E+02  0.80741695438E+02  0.27149552138E+02  0.20450887525E+03  0.17200000000E+03 0.  1.
</event>
<event>
 4    1  0.6365705E-002  0.2001276E+03  0.7818608E-02  0.1149631E+00
         -2   -1    0    0    0  501 -0.00000000000E+00  0.00000000000E+00  0.23977947238E+02  0.23977947238E+02  0.00000000000E+00 0.  1.
          2   -1    0    0  502    0  0.00000000000E+00 -0.00000000000E+00 -0.17539329270E+04  0.17539329270E+04  0.00000000000E+00 0. -1.
          6    1    1    2  502    0  0.97761697228E+02 -0.30161164031E+02 -0.67089403981E+03  0.70010703318E+03  0.17200000000E+03 0.  1.
         -6    1    1    2    0  501 -0.97761697228E+02  0.30161164031E+02 -0.10590609400E+04  0.10778038411E+04  0.17200000000E+03 0. -1.
</event>
<event>
 4    1  0.6365705E-002  0.5287304E+03  0.7818608E-02  0.1006540E+00
          2   -1    0    0  502    0  0.00000000000E+00  0.00000000000E+00  0.13161306088E+04  0.13161306088E+04  0.00000000000E+00 0. -1.
         -2   -1    0    0    0  501 -0.00000000000E+00 -0.00000000000E+00 -0.25703556250E+03  0.25703556250E+03  0.00000000000E+00 0.  1.
          6    1    1    2  502    0  0.12663392840E+03 -0.48366899679E+03  0.85730500266E+03  0.10072376670E+04  0.17200000000E+03 0.  1.
         -6    1    1    2    0  501 -0.12663392840E+03  0.48366899679E+03  0.20179004369E+03  0.56592850433E+03  0.17200000000E+03 0.  1.
</event>
<event>
 4    1  0.6365705E-002  0.2334368E+03  0.7818608E-02  0.1124244E+00
         -2   -1    0    0    0  501 -0.00000000000E+00  0.00000000000E+00  0.35272749828E+02  0.35272749828E+02  0.00000000000E+00 0.  1.
          2   -1    0    0  502    0  0.00000000000E+00 -0.00000000000E+00 -0.19862503679E+04  0.19862503679E+04  0.00000000000E+00 0. -1.
          6    1    1    2  502    0  0.11779416785E+03 -0.10503946084E+03 -0.14519473300E+04  0.14705930108E+04  0.17200000000E+03 0. -1.
         -6    1    1    2    0  501 -0.11779416785E+03  0.10503946084E+03 -0.49903028809E+03  0.55093010694E+03  0.17200000000E+03 0. -1.
</event>
<event>
 4    1  0.6365705E-002  0.2448786E+03  0.7818608E-02  0.1116585E+00
         -1   -1    0    0    0  501 -0.00000000000E+00  0.00000000000E+00  0.19813754754E+03  0.19813754754E+03  0.00000000000E+00 0.  1.
          1   -1    0    0  502    0  0.00000000000E+00 -0.00000000000E+00 -0.34261870089E+03  0.34261870089E+03  0.00000000000E+00 0. -1.
          6    1    1    2  502    0 -0.17425565787E+03  0.40586233273E+01 -0.16459305919E+03  0.29505318480E+03  0.17200000000E+03 0. -1.
         -6    1    1    2    0  501  0.17425565787E+03 -0.40586233273E+01  0.20111905850E+02  0.24570306364E+03  0.17200000000E+03 0.  1.
</event>
<event>
 4    1  0.6365705E-002  0.1954226E+03  0.7818608E-02  0.1153659E+00
          1   -1    0    0  502    0  0.00000000000E+00  0.00000000000E+00  0.13295850514E+04  0.13295850514E+04  0.00000000000E+00 0. -1.
         -1   -1    0    0    0  501 -0.00000000000E+00 -0.00000000000E+00 -0.29590414890E+02  0.29590414890E+02  0.00000000000E+00 0.  1.
          6    1    1    2  502    0  0.20197493177E+02  0.90543003801E+02  0.76633660953E+03  0.79086141224E+03  0.17200000000E+03 0. -1.
         -6    1    1    2    0  501 -0.20197493177E+02 -0.90543003801E+02  0.53365802698E+03  0.56831405405E+03  0.17200000000E+03 0. -1.
</event>
<event>
 4    1  0.6365705E-002  0.2335307E+03  0.7818608E-02  0.1124179E+00
          2   -1    0    0  502    0  0.00000000000E+00  0.00000000000E+00  0.25416414602E+04  0.25416414602E+04  0.00000000000E+00 0. -1.
         -2   -1    0    0    0  501 -0.00000000000E+00 -0.00000000000E+00 -0.24684659316E+02  0.24684659316E+02  0.00000000000E+00 0.  1.
          6    1    1    2  502    0 -0.14146718654E+03  0.70282550146E+02  0.17224551488E+04  0.17382141242E+04  0.17200000000E+03 0. -1.
         -6    1    1    2    0  501  0.14146718654E+03 -0.70282550146E+02  0.79450165202E+03  0.82811199532E+03  0.17200000000E+03 0. -1.
</event>
<event>
 4    1  0.6365705E-002  0.1802584E+03  0.7818608E-02  0.1167553E+00
         -3   -1    0    0    0  501 -0.00000000000E+00  0.00000000000E+00  0.77024614284E+02  0.77024614284E+02  0.00000000000E+00 0.  1.
          3   -1    0    0  502    0  0.00000000000E+00 -0.00000000000E+00 -0.77692350951E+03  0.77692350951E+03  0.00000000000E+00 0. -1.
          6    1    1    2  502    0 -0.29301189068E+02  0.45282724516E+02 -0.63859807895E+03  0.66355149857E+03  0.17200000000E+03 0. -1.
         -6    1    1    2    0  501  0.29301189068E+02 -0.45282724516E+02 -0.61300816281E+02  0.19039662523E+03  0.17200000000E+03 0.  1.
</event>
<event>
 4    1  0.6365705E-002  0.4343938E+03  0.7818608E-02  0.1032481E+00
         -1   -1    0    0    0  501 -0.00000000000E+00  0.00000000000E+00  0.14553017073E+04  0.14553017073E+04  0.00000000000E+00 0.  1.
          1   -1    0    0  502    0  0.00000000000E+00 -0.00000000000E+00 -0.14837404172E+03  0.14837404172E+03  0.00000000000E+00 0. -1.
          6    1    1    2  502    0  0.93744731720E+02 -0.38771880769E+03  0.36871414379E+03  0.56977896450E+03  0.17200000000E+03 0. -1.
         -6    1    1    2    0  501 -0.93744731720E+02  0.38771880769E+03  0.93821352181E+03  0.10338967845E+04  0.17200000000E+03 0.  1.
</event>
<event>
 4    1  0.6365705E-002  0.5271569E+03  0.7818608E-02  0.1006924E+00
         -1   -1    0    0    0  501 -0.00000000000E+00  0.00000000000E+00  0.20800155009E+03  0.20800155009E+03  0.00000000000E+00 0.  1.
          1   -1    0    0  502    0  0.00000000000E+00 -0.00000000000E+00 -0.13661418310E+04  0.13661418310E+04  0.00000000000E+00 0. -1.
          6    1    1    2  502    0  0.43814618577E+03  0.23735684899E+03 -0.46220020045E+03  0.70108728356E+03  0.17200000000E+03 0. -1.
         -6    1    1    2    0  501 -0.43814618577E+03 -0.23735684899E+03 -0.69594008047E+03  0.87305609755E+03  0.17200000000E+03 0. -1.
</event>
<event>
 4    1  0.6365705E-002  0.2075864E+03  0.7818608E-02  0.1143492E+00
          3   -1    0    0  502    0  0.00000000000E+00  0.00000000000E+00  0.71048218538E+03  0.71048218538E+03  0.00000000000E+00 0. -1.
         -3   -1    0    0    0  501 -0.00000000000E+00 -0.00000000000E+00 -0.87405174228E+02  0.87405174228E+02  0.00000000000E+00 0.  1.
          6    1    1    2  502    0  0.50854317501E+02 -0.10450818016E+03  0.90823844951E+02  0.22658572802E+03  0.17200000000E+03 0. -1.
         -6    1    1    2    0  501 -0.50854317501E+02  0.10450818016E+03  0.53225316620E+03  0.57130163159E+03  0.17200000000E+03 0. -1.
</event>
<event>
 4    1  0.6365705E-002  0.2129790E+03  0.7818608E-02  0.1139228E+00
          4   -1    0    0  502    0  0.00000000000E+00  0.00000000000E+00  0.97620902792E+02  0.97620902792E+02  0.00000000000E+00 0. -1.
         -4   -1    0    0    0  501 -0.00000000000E+00 -0.00000000000E+00 -0.48976113627E+03  0.48976113627E+03  0.00000000000E+00 0.  1.
          6    1    1    2  502    0  0.28247862354E+02 -0.12238512778E+03 -0.12957547983E+03  0.24929874890E+03  0.17200000000E+03 0. -1.
         -6    1    1    2    0  501 -0.28247862354E+02  0.12238512778E+03 -0.26256475365E+03  0.33808329016E+03  0.17200000000E+03 0.  1.
</event>
<event>
 4    1  0.6365705E-002  0.2159966E+03  0.7818608E-02  0.1136903E+00
          2   -1    0    0  502    0  0.00000000000E+00  0.00000000000E+00  0.70528407520E+03  0.70528407520E+03  0.00000000000E+00 0. -1.
         -2   -1    0    0    0  501 -0.00000000000E+00 -0.00000000000E+00 -0.20353582605E+03  0.20353582605E+03  0.00000000000E+00 0.  1.
          6    1    1    2  502    0 -0.52101411243E+02  0.11981638815E+03  0.62420886526E+03  0.66052345257E+03  0.17200000000E+03 0. -1.
         -6    1    1    2    0  501  0.52101411243E+02 -0.11981638815E+03 -0.12246061611E+03  0.24829644867E+03  0.17200000000E+03 0.  1.
</event>
<event>
 4    1  0.6365705E-002  0.3234318E+03  0.7818608E-02  0.1074081E+00
          1   -1    0    0  502    0  0.00000000000E+00  0.00000000000E+00  0.11725563498E+03  0.11725563498E+03  0.00000000000E+00 0. -1.
         -1   -1    0    0    0  501 -0.00000000000E+00 -0.00000000000E+00 -0.16716019405E+04  0.16716019405E+04  0.00000000000E+00 0.  1.
          6    1    1    2  502    0 -0.89783767255E+02  0.25877210873E+03 -0.16640337863E+03  0.36372821384E+03  0.17200000000E+03 0. -1.
         -6    1    1    2    0  501  0.89783767255E+02 -0.25877210873E+03 -0.13879429269E+04  0.14251293617E+04  0.17200000000E+03 0.  1.
</event>
<event>
 4    1  0.6365705E-002  0.4089511E+03  0.7818608E-02  0.1040724E+00
         -1   -1    0    0    0  501 -0.00000000000E+00  0.00000000000E+00  0.96821033466E+02  0.96821033466E+02  0.00000000000E+00 0.  1.
          1   -1    0    0  502    0  0.00000000000E+00 -0.00000000000E+00 -0.40597551858E+04  0.40597551858E+04  0.00000000000E+00 0. -1.
          6    1    1    2  502    0  0.28836423457E+03  0.23345891800E+03 -0.35567571458E+04  0.35801902732E+04  0.17200000000E+03 0. -1.
         -6    1    1    2    0  501 -0.28836423457E+03 -0.23345891800E+03 -0.40617700653E+03  0.57638594605E+03  0.17200000000E+03 0.  1.
</event>
<event>
 4    1  0.6365705E-002  0.1913509E+03  0.7818608E-02  0.1157248E+00
          1   -1    0    0  502    0  0.00000000000E+00  0.00000000000E+00  0.45624203658E+03  0.45624203658E+03  0.00000000000E+00 0. -1.
         -1   -1    0    0    0  501 -0.00000000000E+00 -0.00000000000E+00 -0.13436415271E+03  0.13436415271E+03  0.00000000000E+00 0.  1.
          6    1    1    2  502    0 -0.62353952134E+02 -0.56063961763E+02  0.34833749918E+03  0.39743451849E+03  0.17200000000E+03 0. -1.
         -6    1    1    2    0  501  0.62353952134E+02  0.56063961763E+02 -0.26459615304E+02  0.19317167079E+03  0.17200000000E+03 0.  1.
</event>
<event>
 4    1  0.6365705E-002  0.3441837E+03  0.7818608E-02  0.1065028E+00
         -2   -1    0    0    0  501 -0.00000000000E+00  0.00000000000E+00  0.36873559691E+02  0.36873559691E+02  0.00000000000E+00 0.  1.
          2   -1    0    0  502    0  0.00000000000E+00 -0.00000000000E+00 -0.36015691304E+04  0.36015691304E+04  0.00000000000E+00 0. -1.
          6    1    1    2  502    0 -0.28299398514E+03  0.93770201379E+02 -0.23801536361E+04  0.24049103471E+04  0.17200000000E+03 0. -1.
         -6    1    1    2    0  501  0.28299398514E+03 -0.93770201379E+02 -0.11845419347E+04  0.12335323430E+04  0.17200000000E+03 0.  1.
</event>
<event>
 4    1  0.6365705E-002  0.3213576E+03  0.7818608E-02  0.1075026E+00
         -1   -1    0    0    0  501 -0.00000000000E+00  0.00000000000E+00  0.30382135039E+03  0.30382135039E+03  0.00000000000E+00 0.  1.
          1   -1    0    0  502    0  0.00000000000E+00 -0.00000000000E+00 -0.41497884420E+03  0.41497884420E+03  0.00000000000E+00 0. -1.
          6    1    1    2  502    0 -0.26839167941E+03  0.40652416225E+02 -0.20844320706E+03  0.38303953202E+03  0.17200000000E+03 0. -1.
         -6    1    1    2    0  501  0.26839167941E+03 -0.40652416225E+02  0.97285713250E+02  0.33576066256E+03  0.17200000000E+03 0.  1.
</event>
<event>
 4    1  0.6365705E-002  0.6389518E+03  0.7818608E-02  0.9827734E-01
          1   -1    0    0  502    0  0.00000000000E+00  0.00000000000E+00  0.14787922950E+04  0.14787922950E+04  0.00000000000E+00 0. -1.
         -1   -1    0    0    0  501 -0.00000000000E+00 -0.00000000000E+00 -0.31695676692E+03  0.31695676692E+03  0.00000000000E+00 0.  1.
          6    1    1    2  502    0 -0.18294325007E+03  0.58754336999E+03  0.90337622801E+03  0.11065026225E+04  0.17200000000E+03 0. -1.
         -6    1    1    2    0  501  0.18294325007E+03 -0.58754336999E+03  0.25845930003E+03  0.68924643934E+03  0.17200000000E+03 0.  1.
</event>
<event>
 4    1  0.6365705E-002  0.2384658E+03  0.7818608E-02  0.1120819E+00
         -2   -1    0    0    0  501 -0.00000000000E+00  0.00000000000E+00  0.37369790453E+02  0.37369790453E+02  0.00000000000E+00 0.  1.
          2   -1    0    0  502    0  0.00000000000E+00 -0.00000000000E+00 -0.15383441431E+04  0.15383441431E+04  0.00000000000E+00 0. -1.
          6    1    1    2  502    0  0.65745151982E+02  0.15152401747E+03 -0.83241504502E+03  0.86589881630E+03  0.17200000000E+03 0. -1.
         -6    1    1    2    0  501 -0.65745151982E+02 -0.15152401747E+03 -0.66855930767E+03  0.70981511730E+03  0.17200000000E+03 0.  1.
</event>
<event>
 4    1  0.6365705E-002  0.1881308E+03  0.7818608E-02  0.1160158E+00
          2   -1    0    0  502    0  0.00000000000E+00  0.00000000000E+00  0.45423254773E+04  0.45423254773E+04  0.00000000000E+00 0. -1.
         -2   -1    0    0    0  501 -0.00000000000E+00 -0.00000000000E+00 -0.15456000244E+02  0.15456000244E+02  0.00000000000E+00 0.  1.
          6    1    1    2  502    0  0.45234179219E+02 -0.61343932337E+02  0.38681810554E+04  0.38727532694E+04  0.17200000000E+03 0. -1.
         -6    1    1    2    0  501 -0.45234179219E+02  0.61343932337E+02  0.65868842166E+03  0.68502820806E+03  0.17200000000E+03 0.  1.
</event>
<event>
 4    1  0.6365705E-002  0.1736282E+03  0.7818608E-02  0.1174116E+00
          2   -1    0    0  502    0  0.00000000000E+00  0.00000000000E+00  0.44501151199E+03  0.44501151199E+03  0.00000000000E+00 0. -1.
         -2   -1    0    0    0  501 -0.00000000000E+00 -0.00000000000E+00 -0.92541779937E+02  0.92541779937E+02  0.00000000000E+00 0.  1.
          6    1    1    2  502    0  0.56568561897E+01 -0.23038318969E+02  0.31536810323E+03  0.36000528427E+03  0.17200000000E+03 0. -1.
         -6    1    1    2    0  501 -0.56568561897E+01  0.23038318969E+02  0.37101628818E+02  0.17754800766E+03  0.17200000000E+03 0.  1.
</event>
<event>
 4    1  0.6365705E-002  0.2032338E+03  0.7818608E-02  0.1147039E+00
          2   -1    0    0  502    0  0.00000000000E+00  0.00000000000E+00  0.33999382573E+04  0.33999382573E+04  0.00000000000E+00 0. -1.
         -2   -1    0    0    0  501 -0.00000000000E+00 -0.00000000000E+00 -0.12818116712E+02  0.12818116712E+02  0.00000000000E+00 0.  1.
          6    1    1    2  502    0  0.40152019614E+02  0.10053754902E+03  0.20835848498E+04  0.20934731452E+04  0.17200000000E+03 0. -1.
         -6    1    1    2    0  501 -0.40152019614E+02 -0.10053754902E+03  0.13035352908E+04  0.13192832288E+04  0.17200000000E+03 0.  1.
</event>
<event>
 4    1  0.6365705E-002  0.1946938E+03  0.7818608E-02  0.1154295E+00
         -1   -1    0    0    0  501 -0.00000000000E+00  0.00000000000E+00  0.54139619654E+02  0.54139619654E+02  0.00000000000E+00 0.  1.
          1   -1    0    0  502    0  0.00000000000E+00 -0.00000000000E+00 -0.74939949286E+03  0.74939949286E+03  0.00000000000E+00 0. -1.
          6    1    1    2  502    0  0.74558166608E+02  0.52561945068E+02 -0.45062954578E+03  0.49088966765E+03  0.17200000000E+03 0. -1.
         -6    1    1    2    0  501 -0.74558166608E+02 -0.52561945068E+02 -0.24463032743E+03  0.31264944487E+03  0.17200000000E+03 0.  1.
</event>
<event>
 4    1  0.6365705E-002  0.2202896E+03  0.7818608E-02  0.1133667E+00
          2   -1    0    0  502    0  0.00000000000E+00  0.00000000000E+00  0.11115667574E+03  0.11115667574E+03  0.00000000000E+00 0. -1.
         -2   -1    0    0    0  501 -0.00000000000E+00 -0.00000000000E+00 -0.43658458064E+03  0.43658458064E+03  0.00000000000E+00 0.  1.
          6    1    1    2  502    0 -0.85174017797E+02  0.10811518530E+03 -0.16105341589E+03  0.27288405848E+03  0.17200000000E+03 0.  1.
         -6    1    1    2    0  501  0.85174017797E+02 -0.10811518530E+03 -0.16437448901E+03  0.27485719790E+03  0.17200000000E+03 0.  1.
</event>
<event>
 4    1  0.6365705E-002  0.3893628E+03  0.7818608E-02  0.1047526E+00
          2   -1    0    0  502    0  0.00000000000E+00  0.00000000000E+00  0.11393035899E+04  0.11393035899E+04  0.00000000000E+00 0. -1.
         -2   -1    0    0    0  501 -0.00000000000E+00 -0.00000000000E+00 -0.14412958629E+03  0.14412958629E+03  0.00000000000E+00 0.  1.
          6    1    1    2  502    0  0.34712542411E+03 -0.39029885052E+02  0.67537421564E+03  0.77957278245E+03  0.17200000000E+03 0. -1.
         -6    1    1    2    0  501 -0.34712542411E+03  0.39029885052E+02  0.31979978795E+03  0.50386039372E+03  0.17200000000E+03 0.  1.
</event>
<event>
 4    1  0.6365705E-002  0.4049682E+03  0.7818608E-02  0.1042073E+00
         -1   -1    0    0    0  501 -0.00000000000E+00  0.00000000000E+00  0.28996612548E+03  0.28996612548E+03  0.00000000000E+00 0.  1.
          1   -1    0    0  502    0  0.00000000000E+00 -0.00000000000E+00 -0.57748900209E+03  0.57748900209E+03  0.00000000000E+00 0. -1.
          6    1    1    2  502    0 -0.30177099480E+03  0.20820545215E+03 -0.20604452454E+03  0.45437164271E+03  0.17200000000E+03 0. -1.
         -6    1    1    2    0  501  0.30177099480E+03 -0.20820545215E+03 -0.81478352064E+02  0.41308348486E+03  0.17200000000E+03 0.  1.
</event>
<event>
 4    1  0.6365705E-002  0.2248777E+03  0.7818608E-02  0.1130298E+00
          4   -1    0    0  502    0  0.00000000000E+00  0.00000000000E+00  0.95202404519E+02  0.95202404519E+02  0.00000000000E+00 0. -1.
         -4   -1    0    0    0  501 -0.00000000000E+00 -0.00000000000E+00 -0.54069757037E+03  0.54069757037E+03  0.00000000000E+00 0.  1.
          6    1    1    2  502    0 -0.11504386752E+03  0.88039080275E+02 -0.26492294976E+03  0.34749696462E+03  0.17200000000E+03 0. -1.
         -6    1    1    2    0  501  0.11504386752E+03 -0.88039080275E+02 -0.18057221609E+03  0.28840301027E+03  0.17200000000E+03 0.  1.
</event>
<event>
 4    1  0.6365705E-002  0.2557255E+03  0.7818608E-02  0.1109739E+00
         -2   -1    0    0    0  501 -0.00000000000E+00  0.00000000000E+00  0.11930801663E+03  0.11930801663E+03  0.00000000000E+00 0.  1.
          2   -1    0    0  502    0  0.00000000000E+00 -0.00000000000E+00 -0.10287162791E+04  0.10287162791E+04  0.00000000000E+00 0. -1.
          6    1    1    2  502    0  0.11556422515E+03  0.14985467700E+03 -0.84704355358E+03  0.88480410036E+03  0.17200000000E+03 0. -1.
         -6    1    1    2    0  501 -0.11556422515E+03 -0.14985467700E+03 -0.62364708927E+02  0.26322019541E+03  0.17200000000E+03 0.  1.
</event>
<event>
 4    1  0.6365705E-002  0.2866549E+03  0.7818608E-02  0.1092109E+00
          1   -1    0    0  502    0  0.00000000000E+00  0.00000000000E+00  0.82206990505E+03  0.82206990505E+03  0.00000000000E+00 0. -1.
         -1   -1    0    0    0  501 -0.00000000000E+00 -0.00000000000E+00 -0.51039038327E+03  0.51039038327E+03  0.00000000000E+00 0.  1.
          6    1    1    2  502    0 -0.22809113050E+03 -0.23695081208E+02  0.75328042048E+03  0.80597916385E+03  0.17200000000E+03 0. -1.
         -6    1    1    2    0  501  0.22809113050E+03  0.23695081208E+02 -0.44160089870E+03  0.52648112446E+03  0.17200000000E+03 0.  1.
</event>
<event>
 4    1  0.6365705E-002  0.2354638E+03  0.7818608E-02  0.1122852E+00
         -1   -1    0    0    0  501 -0.00000000000E+00  0.00000000000E+00  0.25866754445E+03  0.25866754445E+03  0.00000000000E+00 0.  1.
          1   -1    0    0  502    0  0.00000000000E+00 -0.00000000000E+00 -0.40970669337E+03  0.40970669337E+03  0.00000000000E+00 0. -1.
          6    1    1    2  502    0  0.71453516123E+02 -0.14406112209E+03 -0.30628815369E+03  0.38633618127E+03  0.17200000000E+03 0. -1.
         -6    1    1    2    0  501 -0.71453516123E+02  0.14406112209E+03  0.15524900476E+03  0.28203805655E+03  0.17200000000E+03 0.  1.
</event>
<event>
 4    1  0.6365705E-002  0.2873660E+03  0.7818608E-02  0.1091732E+00
         -1   -1    0    0    0  501 -0.00000000000E+00  0.00000000000E+00  0.45015646791E+03  0.45015646791E+03  0.00000000000E+00 0.  1.
          1   -1    0    0  502    0  0.00000000000E+00 -0.00000000000E+00 -0.55253376282E+03  0.55253376282E+03  0.00000000000E+00 0. -1.
          6    1    1    2  502    0 -0.11597865522E+02  0.22991460201E+03 -0.46094191088E+03  0.54318199520E+03  0.17200000000E+03 0. -1.
         -6    1    1    2    0  501  0.11597865522E+02 -0.22991460201E+03  0.35856461597E+03  0.45950823553E+03  0.17200000000E+03 0.  1.
</event>
<event>
 4    1  0.6365705E-002  0.3839796E+03  0.7818608E-02  0.1049473E+00
          2   -1    0    0  502    0  0.00000000000E+00  0.00000000000E+00  0.11760970979E+04  0.11760970979E+04  0.00000000000E+00 0. -1.
         -2   -1    0    0    0  501 -0.00000000000E+00 -0.00000000000E+00 -0.17366028721E+03  0.17366028721E+03  0.00000000000E+00 0.  1.
          6    1    1    2  502    0  0.29442075238E+03  0.17655803562E+03  0.14531510483E+03  0.41055669409E+03  0.17200000000E+03 0. -1.
         -6    1    1    2    0  501 -0.29442075238E+03 -0.17655803562E+03  0.85712170590E+03  0.93920069106E+03  0.17200000000E+03 0.  1.
</event>
<event>
 4    1  0.6365705E-002  0.1987596E+03  0.7818608E-02  0.1150790E+00
         -3   -1    0    0    0  501 -0.00000000000E+00  0.00000000000E+00  0.30904422408E+03  0.30904422408E+03  0.00000000000E+00 0.  1.
          3   -1    0    0  502    0  0.00000000000E+00 -0.00000000000E+00 -0.16851687690E+03  0.16851687690E+03  0.00000000000E+00 0. -1.
          6    1    1    2  502    0  0.93175622210E+02  0.35208845625E+02  0.18759131659E+03  0.27330543618E+03  0.17200000000E+03 0.  1.
         -6    1    1    2    0  501 -0.93175622210E+02 -0.35208845625E+02 -0.47063969414E+02  0.20425566480E+03  0.17200000000E+03 0. -1.
</event>
<event>
 4    1  0.6365705E-002  0.2781770E+03  0.7818608E-02  0.1096689E+00
          2   -1    0    0  502    0  0.00000000000E+00  0.00000000000E+00  0.99288782713E+03  0.99288782713E+03  0.00000000000E+00 0. -1.
         -2   -1    0    0    0  501 -0.00000000000E+00 -0.00000000000E+00 -0.79051482976E+02  0.79051482976E+02  0.00000000000E+00 0.  1.
          6    1    1    2  502    0 -0.21755855171E+03 -0.21604210482E+02  0.52056366854E+03  0.59022792067E+03  0.17200000000E+03 0.  1.
         -6    1    1    2    0  501  0.21755855171E+03  0.21604210482E+02  0.39327267562E+03  0.48171138944E+03  0.17200000000E+03 0.  1.
</event>
<event>
 4    1  0.6365705E-002  0.2100003E+03  0.7818608E-02  0.1141566E+00
          1   -1    0    0  502    0  0.00000000000E+00  0.00000000000E+00  0.16346090604E+04  0.16346090604E+04  0.00000000000E+00 0. -1.
         -1   -1    0    0    0  501 -0.00000000000E+00 -0.00000000000E+00 -0.35170222234E+02  0.35170222234E+02  0.00000000000E+00 0.  1.
          6    1    1    2  502    0 -0.11612431439E+03 -0.32113435438E+02  0.12026365082E+04  0.12208336086E+04  0.17200000000E+03 0. -1.
         -6    1    1    2    0  501  0.11612431439E+03  0.32113435438E+02  0.39680232995E+03  0.44894567398E+03  0.17200000000E+03 0.  1.
</event>
<event>
 4    1  0.6365705E-002  0.2066865E+03  0.7818608E-02  0.1144217E+00
          1   -1    0    0  502    0  0.00000000000E+00  0.00000000000E+00  0.31656280650E+02  0.31656280650E+02  0.00000000000E+00 0. -1.
         -1   -1    0    0    0  501 -0.00000000000E+00 -0.00000000000E+00 -0.13985513403E+04  0.13985513403E+04  0.00000000000E+00 0.  1.
          6    1    1    2  502    0 -0.30623432481E+02  0.11044235423E+03 -0.54948815470E+03  0.58707456117E+03  0.17200000000E+03 0.  1.
         -6    1    1    2    0  501  0.30623432481E+02 -0.11044235423E+03 -0.81740690490E+03  0.84313305973E+03  0.17200000000E+03 0.  1.
</event>
<event>
 4    1  0.6365705E-002  0.1961161E+03  0.7818608E-02  0.1153058E+00
         -1   -1    0    0    0  501 -0.00000000000E+00  0.00000000000E+00  0.27520269456E+03  0.27520269456E+03  0.00000000000E+00 0.  1.
          1   -1    0    0  502    0  0.00000000000E+00 -0.00000000000E+00 -0.14192482660E+03  0.14192482660E+03  0.00000000000E+00 0. -1.
          6    1    1    2  502    0 -0.40304246630E+02  0.85165112852E+02  0.92414757958E+02  0.21679948393E+03  0.17200000000E+03 0. -1.
         -6    1    1    2    0  501  0.40304246630E+02 -0.85165112852E+02  0.40863109998E+02  0.20032803723E+03  0.17200000000E+03 0. -1.
</event>
<event>
 4    1  0.6365705E-002  0.3691512E+03  0.7818608E-02  0.1055018E+00
          2   -1    0    0  502    0  0.00000000000E+00  0.00000000000E+00  0.24762238193E+04  0.24762238193E+04  0.00000000000E+00 0. -1.
         -2   -1    0    0    0  501 -0.00000000000E+00 -0.00000000000E+00 -0.15189702555E+03  0.15189702555E+03  0.00000000000E+00 0.  1.
          6    1    1    2  502    0  0.19643729260E+02  0.32604102062E+03  0.22115203070E+04  0.22421183492E+04  0.17200000000E+03 0. -1.
         -6    1    1    2    0  501 -0.19643729260E+02 -0.32604102062E+03  0.11280648672E+03  0.38600249568E+03  0.17200000000E+03 0.  1.
</event>
<event>
 4    1  0.6365705E-002  0.2886812E+03  0.7818608E-02  0.1091040E+00
          2   -1    0    0  502    0  0.00000000000E+00  0.00000000000E+00  0.11833580094E+04  0.11833580094E+04  0.00000000000E+00 0. -1.
         -2   -1    0    0    0  501 -0.00000000000E+00 -0.00000000000E+00 -0.91945120631E+02  0.91945120631E+02  0.00000000000E+00 0.  1.
          6    1    1    2  502    0  0.17337083698E+03 -0.15393309383E+03  0.23720927325E+03  0.37363763703E+03  0.17200000000E+03 0.  1.
         -6    1    1    2    0  501 -0.17337083698E+03  0.15393309383E+03  0.85420361553E+03  0.90166549300E+03  0.17200000000E+03 0. -1.
</event>
<event>
 4    1  0.6365705E-002  0.3292579E+03  0.7818608E-02  0.1071466E+00
          2   -1    0    0  502    0  0.00000000000E+00  0.00000000000E+00  0.10993748634E+04  0.10993748634E+04  0.00000000000E+00 0. -1.
         -2   -1    0    0    0  501 -0.00000000000E+00 -0.00000000000E+00 -0.12040509944E+03  0.12040509944E+03  0.00000000000E+00 0.  1.
          6    1    1    2  502    0 -0.23918450301E+03 -0.14702900042E+03  0.74896005786E+03  0.81813930459E+03  0.17200000000E+03 0. -1.
         -6    1    1    2    0  501  0.23918450301E+03  0.14702900042E+03  0.23000970609E+03  0.40164065823E+03  0.17200000000E+03 0.  1.
</event>
<event>
 4    1  0.6365705E-002  0.2979511E+03  0.7818608E-02  0.1086269E+00
         -2   -1    0    0    0  501 -0.00000000000E+00  0.00000000000E+00  0.47384673936E+02  0.47384673936E+02  0.00000000000E+00 0.  1.
          2   -1    0    0  502    0  0.00000000000E+00 -0.00000000000E+00 -0.23081455874E+04  0.23081455874E+04  0.00000000000E+00 0. -1.
          6    1    1    2  502    0 -0.20456958263E+03  0.13168963488E+03 -0.16414712123E+04  0.16682933240E+04  0.17200000000E+03 0. -1.
         -6    1    1    2    0  501  0.20456958263E+03 -0.13168963488E+03 -0.61928970109E+03  0.68723693727E+03  0.17200000000E+03 0.  1.
</event>
<event>
 4    1  0.6365705E-002  0.3680931E+03  0.7818608E-02  0.1055425E+00
         -2   -1    0    0    0  501 -0.00000000000E+00  0.00000000000E+00  0.17261711733E+03  0.17261711733E+03  0.00000000000E+00 0.  1.
          2   -1    0    0  502    0  0.00000000000E+00 -0.00000000000E+00 -0.95310931326E+03  0.95310931326E+03  0.00000000000E+00 0. -1.
          6    1    1    2  502    0 -0.32347998108E+03 -0.35625906044E+02 -0.62668377302E+03  0.72679092916E+03  0.17200000000E+03 0. -1.
         -6    1    1    2    0  501  0.32347998108E+03  0.35625906044E+02 -0.15380842292E+03  0.39893550143E+03  0.17200000000E+03 0.  1.
</event>
<event>
 4    1  0.6365705E-002  0.2086367E+03  0.7818608E-02  0.1142650E+00
          2   -1    0    0  502    0  0.00000000000E+00  0.00000000000E+00  0.15218477749E+03  0.15218477749E+03  0.00000000000E+00 0. -1.
         -2   -1    0    0    0  501 -0.00000000000E+00 -0.00000000000E+00 -0.57147120285E+03  0.57147120285E+03  0.00000000000E+00 0.  1.
          6    1    1    2  502    0 -0.31616092860E+02 -0.11377914727E+03  0.46076387569E+02  0.21366400065E+03  0.17200000000E+03 0. -1.
         -6    1    1    2    0  501  0.31616092860E+02  0.11377914727E+03 -0.46536281293E+03  0.50999197968E+03  0.17200000000E+03 0.  1.
</event>
<event>
 4    1  0.6365705E-002  0.5399644E+03  0.7818608E-02  0.1003844E+00
          1   -1    0    0  502    0  0.00000000000E+00  0.00000000000E+00  0.70723767827E+03  0.70723767827E+03  0.00000000000E+00 0. -1.
         -1   -1    0    0    0  501 -0.00000000000E+00 -0.00000000000E+00 -0.41292565912E+03  0.41292565912E+03  0.00000000000E+00 0.  1.
          6    1    1    2  502    0 -0.29526254863E+03  0.41808802592E+03  0.16974444346E+03  0.56601655994E+03  0.17200000000E+03 0. -1.
         -6    1    1    2    0  501  0.29526254863E+03 -0.41808802592E+03  0.12456757570E+03  0.55414677745E+03  0.17200000000E+03 0.  1.
</event>
<event>
 4    1  0.6365705E-002  0.3645894E+03  0.7818608E-02  0.1056781E+00
         -2   -1    0    0    0  501 -0.00000000000E+00  0.00000000000E+00  0.11088159336E+03  0.11088159336E+03  0.00000000000E+00 0.  1.
          2   -1    0    0  502    0  0.00000000000E+00 -0.00000000000E+00 -0.11997580011E+04  0.11997580011E+04  0.00000000000E+00 0. -1.
          6    1    1    2  502    0 -0.14513617268E+02 -0.32113977798E+03 -0.52596822567E+03  0.63997498115E+03  0.17200000000E+03 0.  1.
         -6    1    1    2    0  501  0.14513617268E+02  0.32113977798E+03 -0.56290818202E+03  0.67066461326E+03  0.17200000000E+03 0. -1.
</event>
<event>
 4    1  0.6365705E-002  0.1854210E+03  0.7818608E-02  0.1162657E+00
         -2   -1    0    0    0  501 -0.00000000000E+00  0.00000000000E+00  0.13630505575E+02  0.13630505575E+02  0.00000000000E+00 0.  1.
          2   -1    0    0  502    0  0.00000000000E+00 -0.00000000000E+00 -0.25548416884E+04  0.25548416884E+04  0.00000000000E+00 0. -1.
          6    1    1    2  502    0  0.26702453867E+02 -0.63905616224E+02 -0.11257858103E+04  0.11409533906E+04  0.17200000000E+03 0.  1.
         -6    1    1    2    0  501 -0.26702453867E+02  0.63905616224E+02 -0.14154253724E+04  0.14275188033E+04  0.17200000000E+03 0.  1.
</event>
<event>
 4    1  0.6365705E-002  0.2416460E+03  0.7818608E-02  0.1118701E+00
         -1   -1    0    0    0  501 -0.00000000000E+00  0.00000000000E+00  0.22282436937E+03  0.22282436937E+03  0.00000000000E+00 0.  1.
          1   -1    0    0  502    0  0.00000000000E+00 -0.00000000000E+00 -0.39755069652E+03  0.39755069652E+03  0.00000000000E+00 0. -1.
          6    1    1    2  502    0  0.48659775800E+02 -0.16260687150E+03 -0.26845006197E+03  0.36118998354E+03  0.17200000000E+03 0. -1.
         -6    1    1    2    0  501 -0.48659775800E+02  0.16260687150E+03  0.93723734825E+02  0.25918508234E+03  0.17200000000E+03 0.  1.
</event>
<event>
 4    1  0.6365705E-002  0.1906406E+03  0.7818608E-02  0.1157885E+00
          2   -1    0    0  502    0  0.00000000000E+00  0.00000000000E+00  0.37631645546E+04  0.37631645546E+04  0.00000000000E+00 0. -1.
         -2   -1    0    0    0  501 -0.00000000000E+00 -0.00000000000E+00 -0.96643927243E+01  0.96643927243E+01  0.00000000000E+00 0.  1.
          6    1    1    2  502    0  0.28753881215E+02  0.77026273611E+02  0.19260777313E+04  0.19354894109E+04  0.17200000000E+03 0. -1.
         -6    1    1    2    0  501 -0.28753881215E+02 -0.77026273611E+02  0.18274224305E+04  0.18373395364E+04  0.17200000000E+03 0.  1.
</event>
<event>
 4    1  0.6365705E-002  0.3099001E+03  0.7818608E-02  0.1080394E+00
         -1   -1    0    0    0  501 -0.00000000000E+00  0.00000000000E+00  0.11005431185E+03  0.11005431185E+03  0.00000000000E+00 0.  1.
          1   -1    0    0  502    0  0.00000000000E+00 -0.00000000000E+00 -0.12824089441E+04  0.12824089441E+04  0.00000000000E+00 0. -1.
          6    1    1    2  502    0 -0.79228844670E+02 -0.24530968803E+03 -0.19261930581E+03  0.36488388542E+03  0.17200000000E+03 0. -1.
         -6    1    1    2    0  501  0.79228844670E+02  0.24530968803E+03 -0.97973532645E+03  0.10275793705E+04  0.17200000000E+03 0. -1.
</event>
<event>
 4    1  0.6365705E-002  0.2558524E+03  0.7818608E-02  0.1109661E+00
          2   -1    0    0  502    0  0.00000000000E+00  0.00000000000E+00  0.17272311489E+04  0.17272311489E+04  0.00000000000E+00 0. -1.
         -2   -1    0    0    0  501 -0.00000000000E+00 -0.00000000000E+00 -0.39955917111E+02  0.39955917111E+02  0.00000000000E+00 0.  1.
          6    1    1    2  502    0  0.13022908578E+03 -0.13753841142E+03  0.64316064149E+03  0.69218208598E+03  0.17200000000E+03 0.  1.
         -6    1    1    2    0  501 -0.13022908578E+03  0.13753841142E+03  0.10441145903E+04  0.10750049800E+04  0.17200000000E+03 0. -1.
</event>
<event>
 4    1  0.6365705E-002  0.6433471E+03  0.7818608E-02  0.9819343E-01
         -2   -1    0    0    0  501 -0.00000000000E+00  0.00000000000E+00  0.15240104541E+04  0.15240104541E+04  0.00000000000E+00 0.  1.
          2   -1    0    0  502    0  0.00000000000E+00 -0.00000000000E+00 -0.45755100582E+03  0.45755100582E+03  0.00000000000E+00 0. -1.
          6    1    1    2  502    0 -0.11016010988E+03  0.61006253531E+03  0.11648800810E+04  0.13307295555E+04  0.17200000000E+03 0. -1.
         -6    1    1    2    0  501  0.11016010988E+03 -0.61006253531E+03 -0.98420632756E+02  0.65083190438E+03  0.17200000000E+03 0. -1.
</event>
<event>
 4    1  0.6365705E-002  0.2017044E+03  0.7818608E-02  0.1148309E+00
         -1   -1    0    0    0  501 -0.00000000000E+00  0.00000000000E+00  0.14594571214E+03  0.14594571214E+03  0.00000000000E+00 0.  1.
          1   -1    0    0  502    0  0.00000000000E+00 -0.00000000000E+00 -0.28037351992E+03  0.28037351992E+03  0.00000000000E+00 0. -1.
          6    1    1    2  502    0 -0.48317301335E+02  0.93627517490E+02 -0.83355304813E+02  0.21824935391E+03  0.17200000000E+03 0. -1.
         -6    1    1    2    0  501  0.48317301335E+02 -0.93627517490E+02 -0.51072502967E+02  0.20806987816E+03  0.17200000000E+03 0.  1.
</event>
<event>
 4    1  0.6365705E-002  0.2109548E+03  0.7818608E-02  0.1140812E+00
         -1   -1    0    0    0  501 -0.00000000000E+00  0.00000000000E+00  0.59672274623E+02  0.59672274623E+02  0.00000000000E+00 0.  1.
          1   -1    0    0  502    0  0.00000000000E+00 -0.00000000000E+00 -0.18652191827E+04  0.18652191827E+04  0.00000000000E+00 0. -1.
          6    1    1    2  502    0 -0.10171129395E+03 -0.67621992906E+02 -0.16483857910E+04  0.16618296053E+04  0.17200000000E+03 0. -1.
         -6    1    1    2    0  501  0.10171129395E+03  0.67621992906E+02 -0.15716111707E+03  0.26306185196E+03  0.17200000000E+03 0.  1.
</event>
<event>
 4    1  0.6365705E-002  0.1915270E+03  0.7818608E-02  0.1157091E+00
         -1   -1    0    0    0  501 -0.00000000000E+00  0.00000000000E+00  0.40142304875E+02  0.40142304875E+02  0.00000000000E+00 0.  1.
          1   -1    0    0  502    0  0.00000000000E+00 -0.00000000000E+00 -0.11294502509E+04  0.11294502509E+04  0.00000000000E+00 0. -1.
          6    1    1    2  502    0  0.71943006523E+02 -0.43849552877E+02 -0.80017841735E+03  0.82278069926E+03  0.17200000000E+03 0. -1.
         -6    1    1    2    0  501 -0.71943006523E+02  0.43849552877E+02 -0.28912952872E+03  0.34681185656E+03  0.17200000000E+03 0.  1.
</event>
<event>
 4    1  0.6365705E-002  0.2358268E+03  0.7818608E-02  0.1122605E+00
         -1   -1    0    0    0  501 -0.00000000000E+00  0.00000000000E+00  0.93025389030E+02  0.93025389030E+02  0.00000000000E+00 0.  1.
          1   -1    0    0  502    0  0.00000000000E+00 -0.00000000000E+00 -0.71200386278E+03  0.71200386278E+03  0.00000000000E+00 0. -1.
          6    1    1    2  502    0 -0.81934854997E+02 -0.13898545490E+03 -0.47066704914E+03  0.52644254034E+03  0.17200000000E+03 0. -1.
         -6    1    1    2    0  501  0.81934854997E+02  0.13898545490E+03 -0.14831142462E+03  0.27858671147E+03  0.17200000000E+03 0. -1.
</event>
<event>
 4    1  0.6365705E-002  0.1977153E+03  0.7818608E-02  0.1151681E+00
         -2   -1    0    0    0  501 -0.00000000000E+00  0.00000000000E+00  0.42247507472E+02  0.42247507472E+02  0.00000000000E+00 0.  1.
          2   -1    0    0  502    0  0.00000000000E+00 -0.00000000000E+00 -0.20340361297E+04  0.20340361297E+04  0.00000000000E+00 0. -1.
          6    1    1    2  502    0  0.92079503233E+02  0.32073231857E+02 -0.17623601544E+04  0.17734160935E+04  0.17200000000E+03 0. -1.
         -6    1    1    2    0  501 -0.92079503233E+02 -0.32073231857E+02 -0.22942846783E+03  0.30286754360E+03  0.17200000000E+03 0.  1.
</event>
<event>
 4    1  0.6365705E-002  0.1982976E+03  0.7818608E-02  0.1151183E+00
         -2   -1    0    0    0  501 -0.00000000000E+00  0.00000000000E+00  0.27388913634E+04  0.27388913634E+04  0.00000000000E+00 0.  1.
          2   -1    0    0  502    0  0.00000000000E+00 -0.00000000000E+00 -0.15451031026E+02  0.15451031026E+02  0.00000000000E+00 0. -1.
          6    1    1    2  502    0 -0.76842280072E+02  0.61912862415E+02  0.99524246714E+03  0.10148051571E+04  0.17200000000E+03 0. -1.
         -6    1    1    2    0  501  0.76842280072E+02 -0.61912862415E+02  0.17281978652E+04  0.17395372373E+04  0.17200000000E+03 0. -1.
</event>
<event>
 4    1  0.6365705E-002  0.1760245E+03  0.7818608E-02  0.1171707E+00
         -1   -1    0    0    0  501 -0.00000000000E+00  0.00000000000E+00  0.44881924720E+02  0.44881924720E+02  0.00000000000E+00 0.  1.
          1   -1    0    0  502    0  0.00000000000E+00 -0.00000000000E+00 -0.88325914065E+03  0.88325914065E+03  0.00000000000E+00 0. -1.
          6    1    1    2  502    0 -0.31687993679E+02  0.19911834380E+02 -0.63606234421E+03  0.65996963250E+03  0.17200000000E+03 0. -1.
         -6    1    1    2    0  501  0.31687993679E+02 -0.19911834380E+02 -0.20231487172E+03  0.26817143287E+03  0.17200000000E+03 0.  1.
</event>
<event>
 4    1  0.6365705E-002  0.5599811E+03  0.7818608E-02  0.9992097E-01
          2   -1    0    0  502    0  0.00000000000E+00  0.00000000000E+00  0.56330172090E+03  0.56330172090E+03  0.00000000000E+00 0. -1.
         -2   -1    0    0    0  501 -0.00000000000E+00 -0.00000000000E+00 -0.55719954965E+03  0.55719954965E+03  0.00000000000E+00 0.  1.
          6    1    1    2  502    0  0.45672741141E+02 -0.53095087022E+03  0.20158043442E+02  0.56034379857E+03  0.17200000000E+03 0. -1.
         -6    1    1    2    0  501 -0.45672741141E+02  0.53095087022E+03 -0.14055872201E+02  0.56015747198E+03  0.17200000000E+03 0.  1.
</event>
<event>
 4    1  0.6365705E-002  0.2566956E+03  0.7818608E-02  0.1109145E+00
         -1   -1    0    0    0  501 -0.00000000000E+00  0.00000000000E+00  0.39659909357E+02  0.39659909357E+02  0.00000000000E+00 0.  1.
          1   -1    0    0  502    0  0.00000000000E+00 -0.00000000000E+00 -0.16836099064E+04  0.16836099064E+04  0.00000000000E+00 0. -1.
          6    1    1    2  502    0  0.63828861359E+02 -0.17953966248E+03 -0.92084649488E+03  0.95595548070E+03  0.17200000000E+03 0. -1.
         -6    1    1    2    0  501 -0.63828861359E+02  0.17953966248E+03 -0.72310350215E+03  0.76731433505E+03  0.17200000000E+03 0. -1.
</event>
<event>
 4    1  0.6365705E-002  0.3122795E+03  0.7818608E-02  0.1079258E+00
         -4   -1    0    0    0  501 -0.00000000000E+00  0.00000000000E+00  0.91914928662E+02  0.91914928662E+02  0.00000000000E+00 0.  1.
          4   -1    0    0  502    0  0.00000000000E+00 -0.00000000000E+00 -0.10767132786E+04  0.10767132786E+04  0.00000000000E+00 0. -1.
          6    1    1    2  502    0 -0.56748122550E+02  0.25438971730E+03 -0.56306664944E+03  0.64386530376E+03  0.17200000000E+03 0. -1.
         -6    1    1    2    0  501  0.56748122550E+02 -0.25438971730E+03 -0.42173170048E+03  0.52476290348E+03  0.17200000000E+03 0.  1.
</event>
<event>
 4    1  0.6365705E-002  0.2603831E+03  0.7818608E-02  0.1106913E+00
         -2   -1    0    0    0  501 -0.00000000000E+00  0.00000000000E+00  0.44241255357E+02  0.44241255357E+02  0.00000000000E+00 0.  1.
          2   -1    0    0  502    0  0.00000000000E+00 -0.00000000000E+00 -0.26494725576E+04  0.26494725576E+04  0.00000000000E+00 0. -1.
          6    1    1    2  502    0  0.14550399502E+03 -0.13055246833E+03 -0.42810601921E+03  0.50107297197E+03  0.17200000000E+03 0.  1.
         -6    1    1    2    0  501 -0.14550399502E+03  0.13055246833E+03 -0.21771252831E+04  0.21926408410E+04  0.17200000000E+03 0. -1.
</event>
<event>
 4    1  0.6365705E-002  0.1950705E+03  0.7818608E-02  0.1153966E+00
         -1   -1    0    0    0  501 -0.00000000000E+00  0.00000000000E+00  0.37978392483E+02  0.37978392483E+02  0.00000000000E+00 0.  1.
          1   -1    0    0  502    0  0.00000000000E+00 -0.00000000000E+00 -0.16529385103E+04  0.16529385103E+04  0.00000000000E+00 0. -1.
          6    1    1    2  502    0  0.82183704080E+02  0.41404450821E+02 -0.13380592782E+04  0.13522038018E+04  0.17200000000E+03 0. -1.
         -6    1    1    2    0  501 -0.82183704080E+02 -0.41404450821E+02 -0.27690083963E+03  0.33871310094E+03  0.17200000000E+03 0.  1.
</event>
<event>
 4    1  0.6365705E-002  0.3278591E+03  0.7818608E-02  0.1072088E+00
         -2   -1    0    0    0  501 -0.00000000000E+00  0.00000000000E+00  0.46088222508E+03  0.46088222508E+03  0.00000000000E+00 0.  1.
          2   -1    0    0  502    0  0.00000000000E+00 -0.00000000000E+00 -0.36863236423E+03  0.36863236423E+03  0.00000000000E+00 0. -1.
          6    1    1    2  502    0 -0.90083860094E+02 -0.26418262445E+03 -0.20524332298E+03  0.38680276956E+03  0.17200000000E+03 0. -1.
         -6    1    1    2    0  501  0.90083860094E+02  0.26418262445E+03  0.29749318384E+03  0.44271181974E+03  0.17200000000E+03 0.  1.
</event>
<event>
 4    1  0.6365705E-002  0.1739324E+03  0.7818608E-02  0.1173808E+00
         -1   -1    0    0    0  501 -0.00000000000E+00  0.00000000000E+00  0.10230916962E+03  0.10230916962E+03  0.00000000000E+00 0.  1.
          1   -1    0    0  502    0  0.00000000000E+00 -0.00000000000E+00 -0.31409978109E+03  0.31409978109E+03  0.00000000000E+00 0. -1.
          6    1    1    2  502    0 -0.23204087347E+02 -0.11403671028E+02 -0.15629207764E+03  0.23383688100E+03  0.17200000000E+03 0. -1.
         -6    1    1    2    0  501  0.23204087347E+02  0.11403671028E+02 -0.55498533828E+02  0.18257206971E+03  0.17200000000E+03 0.  1.
</event>
<event>
 4    1  0.6365705E-002  0.1741183E+03  0.7818608E-02  0.1173620E+00
         -2   -1    0    0    0  501 -0.00000000000E+00  0.00000000000E+00  0.33790932823E+02  0.33790932823E+02  0.00000000000E+00 0.  1.
          2   -1    0    0  502    0  0.00000000000E+00 -0.00000000000E+00 -0.10358451433E+04  0.10358451433E+04  0.00000000000E+00 0. -1.
          6    1    1    2  502    0 -0.27017672401E+02  0.17958935124E+01 -0.69669206095E+03  0.71812046876E+03  0.17200000000E+03 0. -1.
         -6    1    1    2    0  501  0.27017672401E+02 -0.17958935124E+01 -0.30536214949E+03  0.35151560733E+03  0.17200000000E+03 0.  1.
</event>
<event>
 4    1  0.6365705E-002  0.1969860E+03  0.7818608E-02  0.1152307E+00
          1   -1    0    0  502    0  0.00000000000E+00  0.00000000000E+00  0.68954075601E+03  0.68954075601E+03  0.00000000000E+00 0. -1.
         -1   -1    0    0    0  501 -0.00000000000E+00 -0.00000000000E+00 -0.63895499348E+02  0.63895499348E+02  0.00000000000E+00 0.  1.
          6    1    1    2  502    0 -0.84394626948E+02 -0.45793521414E+02  0.44292640182E+03  0.48475488352E+03  0.17200000000E+03 0.  1.
         -6    1    1    2    0  501  0.84394626948E+02  0.45793521414E+02  0.18271885484E+03  0.26868137184E+03  0.17200000000E+03 0.  1.
</event>
<event>
 4    1  0.6365705E-002  0.3057731E+03  0.7818608E-02  0.1082390E+00
          1   -1    0    0  502    0  0.00000000000E+00  0.00000000000E+00  0.66640331049E+03  0.66640331049E+03  0.00000000000E+00 0. -1.
         -1   -1    0    0    0  501 -0.00000000000E+00 -0.00000000000E+00 -0.15484052128E+03  0.15484052128E+03  0.00000000000E+00 0.  1.
          6    1    1    2  502    0 -0.95447465642E+02  0.23410030301E+03  0.38160791411E+03  0.48900078801E+03  0.17200000000E+03 0. -1.
         -6    1    1    2    0  501  0.95447465642E+02 -0.23410030301E+03  0.12995487510E+03  0.33224304376E+03  0.17200000000E+03 0.  1.
</event>
<event>
 4    1  0.6365705E-002  0.2171492E+03  0.7818608E-02  0.1136026E+00
         -1   -1    0    0    0  501 -0.00000000000E+00  0.00000000000E+00  0.51954353074E+02  0.51954353074E+02  0.00000000000E+00 0.  1.
          1   -1    0    0  502    0  0.00000000000E+00 -0.00000000000E+00 -0.90827200291E+03  0.90827200291E+03  0.00000000000E+00 0. -1.
          6    1    1    2  502    0 -0.13254560646E+03  0.12001976644E+01 -0.41510087190E+03  0.46846826160E+03  0.17200000000E+03 0. -1.
         -6    1    1    2    0  501  0.13254560646E+03 -0.12001976644E+01 -0.44121677793E+03  0.49175809438E+03  0.17200000000E+03 0.  1.
</event>
<event>
 4    1  0.6365705E-002  0.2315823E+03  0.7818608E-02  0.1125531E+00
         -2   -1    0    0    0  501 -0.00000000000E+00  0.00000000000E+00  0.31710295918E+03  0.31710295918E+03  0.00000000000E+00 0.  1.
          2   -1    0    0  502    0  0.00000000000E+00 -0.00000000000E+00 -0.19069530706E+03  0.19069530706E+03  0.00000000000E+00 0. -1.
          6    1    1    2  502    0  0.23432568661E-01  0.15506889220E+03  0.14859423551E+03  0.27515560816E+03  0.17200000000E+03 0.  1.
         -6    1    1    2    0  501 -0.23432568661E-01 -0.15506889220E+03 -0.22186583392E+02  0.23264265808E+03  0.17200000000E+03 0. -1.
</event>
<event>
 4    1  0.6365705E-002  0.2613996E+03  0.7818608E-02  0.1106305E+00
         -1   -1    0    0    0  501 -0.00000000000E+00  0.00000000000E+00  0.37254969831E+03  0.37254969831E+03  0.00000000000E+00 0.  1.
          1   -1    0    0  502    0  0.00000000000E+00 -0.00000000000E+00 -0.20956882742E+03  0.20956882742E+03  0.00000000000E+00 0. -1.
          6    1    1    2  502    0 -0.79040498824E+02  0.18027292729E+03 -0.21339262654E+02  0.26226912304E+03  0.17200000000E+03 0. -1.
         -6    1    1    2    0  501  0.79040498824E+02 -0.18027292729E+03  0.18432013355E+03  0.31984940269E+03  0.17200000000E+03 0.  1.
</event>
<event>
 4    1  0.6365705E-002  0.1758907E+03  0.7818608E-02  0.1171840E+00
         -2   -1    0    0    0  501 -0.00000000000E+00  0.00000000000E+00  0.34486804660E+02  0.34486804660E+02  0.00000000000E+00 0.  1.
          2   -1    0    0  502    0  0.00000000000E+00 -0.00000000000E+00 -0.89709047336E+03  0.89709047336E+03  0.00000000000E+00 0. -1.
          6    1    1    2  502    0 -0.67726725070E+01  0.36161877413E+02 -0.43002234148E+03  0.46460387928E+03  0.17200000000E+03 0. -1.
         -6    1    1    2    0  501  0.67726725070E+01 -0.36161877413E+02 -0.43258132723E+03  0.46697339875E+03  0.17200000000E+03 0.  1.
</event>
<event>
 4    1  0.6365705E-002  0.1722621E+03  0.7818608E-02  0.1175509E+00
          1   -1    0    0  502    0  0.00000000000E+00  0.00000000000E+00  0.30997086939E+03  0.30997086939E+03  0.00000000000E+00 0. -1.
         -1   -1    0    0    0  501 -0.00000000000E+00 -0.00000000000E+00 -0.13712482907E+03  0.13712482907E+03  0.00000000000E+00 0.  1.
          6    1    1    2  502    0 -0.50061741105E+01  0.80725064896E+01  0.20924423217E+03  0.27103021203E+03  0.17200000000E+03 0. -1.
         -6    1    1    2    0  501  0.50061741105E+01 -0.80725064896E+01 -0.36398191849E+02  0.17606548643E+03  0.17200000000E+03 0.  1.
</event>
<event>
 4    1  0.6365705E-002  0.1974785E+03  0.7818608E-02  0.1151884E+00
         -2   -1    0    0    0  501 -0.00000000000E+00  0.00000000000E+00  0.20513606926E+03  0.20513606926E+03  0.00000000000E+00 0.  1.
          2   -1    0    0  502    0  0.00000000000E+00 -0.00000000000E+00 -0.39645396148E+03  0.39645396148E+03  0.00000000000E+00 0. -1.
          6    1    1    2  502    0 -0.16032069765E+01  0.97011233659E+02 -0.31266585714E+03  0.36980763641E+03  0.17200000000E+03 0. -1.
         -6    1    1    2    0  501  0.16032069765E+01 -0.97011233659E+02  0.12134796492E+03  0.23178239432E+03  0.17200000000E+03 0.  1.
</event>
<event>
 4    1  0.6365705E-002  0.3085750E+03  0.7818608E-02  0.1081031E+00
          2   -1    0    0  502    0  0.00000000000E+00  0.00000000000E+00  0.55178765686E+03  0.55178765686E+03  0.00000000000E+00 0. -1.
         -2   -1    0    0    0  501 -0.00000000000E+00 -0.00000000000E+00 -0.13689759028E+04  0.13689759028E+04  0.00000000000E+00 0.  1.
          6    1    1    2  502    0  0.71132422773E+02  0.24611932303E+03  0.48921997307E+03  0.57840705804E+03  0.17200000000E+03 0. -1.
         -6    1    1    2    0  501 -0.71132422773E+02 -0.24611932303E+03 -0.13064082190E+04  0.13423565016E+04  0.17200000000E+03 0.  1.
</event>
<event>
 4    1  0.6365705E-002  0.2913932E+03  0.7818608E-02  0.1089624E+00
          1   -1    0    0  502    0  0.00000000000E+00  0.00000000000E+00  0.56113276910E+03  0.56113276910E+03  0.00000000000E+00 0. -1.
         -1   -1    0    0    0  501 -0.00000000000E+00 -0.00000000000E+00 -0.16584983808E+03  0.16584983808E+03  0.00000000000E+00 0.  1.
          6    1    1    2  502    0 -0.22429037794E+03  0.70850573648E+02  0.30523439933E+03  0.42199290984E+03  0.17200000000E+03 0. -1.
         -6    1    1    2    0  501  0.22429037794E+03 -0.70850573648E+02  0.90048531692E+02  0.30498969734E+03  0.17200000000E+03 0.  1.
</event>
<event>
 4    1  0.6365705E-002  0.3290873E+03  0.7818608E-02  0.1071541E+00
          1   -1    0    0  502    0  0.00000000000E+00  0.00000000000E+00  0.98450116732E+03  0.98450116732E+03  0.00000000000E+00 0. -1.
         -1   -1    0    0    0  501 -0.00000000000E+00 -0.00000000000E+00 -0.15444005069E+03  0.15444005069E+03  0.00000000000E+00 0.  1.
          6    1    1    2  502    0  0.25887628479E+03  0.10815521205E+03  0.72049592725E+03  0.79209397290E+03  0.17200000000E+03 0. -1.
         -6    1    1    2    0  501 -0.25887628479E+03 -0.10815521205E+03  0.10956518938E+03  0.34684724512E+03  0.17200000000E+03 0.  1.
</event>
<event>
 4    1  0.6365705E-002  0.2226123E+03  0.7818608E-02  0.1131950E+00
         -1   -1    0    0    0  501 -0.00000000000E+00  0.00000000000E+00  0.48614421412E+03  0.48614421412E+03  0.00000000000E+00 0.  1.
          1   -1    0    0  502    0  0.00000000000E+00 -0.00000000000E+00 -0.11100341825E+03  0.11100341825E+03  0.00000000000E+00 0. -1.
          6    1    1    2  502    0 -0.71455337345E+02  0.12192776660E+03  0.10224203776E+03  0.24496873227E+03  0.17200000000E+03 0. -1.
         -6    1    1    2    0  501  0.71455337345E+02 -0.12192776660E+03  0.27289875811E+03  0.35217890011E+03  0.17200000000E+03 0.  1.
</event>
<event>
 4    1  0.6365705E-002  0.2126292E+03  0.7818608E-02  0.1139501E+00
          2   -1    0    0  502    0  0.00000000000E+00  0.00000000000E+00  0.26751883215E+04  0.26751883215E+04  0.00000000000E+00 0. -1.
         -2   -1    0    0    0  501 -0.00000000000E+00 -0.00000000000E+00 -0.17291871144E+02  0.17291871144E+02  0.00000000000E+00 0.  1.
          6    1    1    2  502    0 -0.95926188377E+02  0.80158119442E+02  0.15315646913E+04  0.15462540417E+04  0.17200000000E+03 0. -1.
         -6    1    1    2    0  501  0.95926188377E+02 -0.80158119442E+02  0.11263317591E+04  0.11462261510E+04  0.17200000000E+03 0.  1.
</event>
<event>
 4    1  0.6365705E-002  0.5323221E+03  0.7818608E-02  0.1005671E+00
         -1   -1    0    0    0  501 -0.00000000000E+00  0.00000000000E+00  0.20218222378E+04  0.20218222378E+04  0.00000000000E+00 0.  1.
          1   -1    0    0  502    0  0.00000000000E+00 -0.00000000000E+00 -0.27775015826E+03  0.27775015826E+03  0.00000000000E+00 0. -1.
          6    1    1    2  502    0  0.30433222491E+03  0.40145319244E+03  0.62767127350E+02  0.53600977707E+03  0.17200000000E+03 0. -1.
         -6    1    1    2    0  501 -0.30433222491E+03 -0.40145319244E+03  0.16813049522E+04  0.17635626190E+04  0.17200000000E+03 0.  1.
</event>
<event>
 4    1  0.6365705E-002  0.3266883E+03  0.7818608E-02  0.1072612E+00
         -2   -1    0    0    0  501 -0.00000000000E+00  0.00000000000E+00  0.16869169357E+03  0.16869169357E+03  0.00000000000E+00 0.  1.
          2   -1    0    0  502    0  0.00000000000E+00 -0.00000000000E+00 -0.70372373086E+03  0.70372373086E+03  0.00000000000E+00 0. -1.
          6    1    1    2  502    0 -0.10833904854E+03  0.25574190572E+03 -0.12890363719E+03  0.35119997076E+03  0.17200000000E+03 0. -1.
         -6    1    1    2    0  501  0.10833904854E+03 -0.25574190572E+03 -0.40612840010E+03  0.52121545367E+03  0.17200000000E+03 0.  1.
</event>
<event>
 4    1  0.6365705E-002  0.1744265E+03  0.7818608E-02  0.1173309E+00
          2   -1    0    0  502    0  0.00000000000E+00  0.00000000000E+00  0.27088143140E+04  0.27088143140E+04  0.00000000000E+00 0. -1.
         -2   -1    0    0    0  501 -0.00000000000E+00 -0.00000000000E+00 -0.56217775438E+02  0.56217775438E+02  0.00000000000E+00 0.  1.
          6    1    1    2  502    0  0.28477168021E+02  0.54466303415E+01  0.25630210503E+04  0.25689494972E+04  0.17200000000E+03 0. -1.
         -6    1    1    2    0  501 -0.28477168021E+02 -0.54466303415E+01  0.89575488256E+02  0.19608259223E+03  0.17200000000E+03 0.  1.
</event>
<event>
 4    1  0.6365705E-002  0.3626606E+03  0.7818608E-02  0.1057535E+00
          2   -1    0    0  502    0  0.00000000000E+00  0.00000000000E+00  0.14331312456E+04  0.14331312456E+04  0.00000000000E+00 0. -1.
         -2   -1    0    0    0  501 -0.00000000000E+00 -0.00000000000E+00 -0.11740637256E+03  0.11740637256E+03  0.00000000000E+00 0.  1.
          6    1    1    2  502    0 -0.27933803167E+03  0.15462528640E+03  0.10201134257E+04  0.10826606654E+04  0.17200000000E+03 0. -1.
         -6    1    1    2    0  501  0.27933803167E+03 -0.15462528640E+03  0.29561144738E+03  0.46787695279E+03  0.17200000000E+03 0.  1.
</event>
<event>
 4    1  0.6365705E-002  0.2414985E+03  0.7818608E-02  0.1118799E+00
         -2   -1    0    0    0  501 -0.00000000000E+00  0.00000000000E+00  0.13034149402E+03  0.13034149402E+03  0.00000000000E+00 0.  1.
          2   -1    0    0  502    0  0.00000000000E+00 -0.00000000000E+00 -0.17022904406E+04  0.17022904406E+04  0.00000000000E+00 0. -1.
          6    1    1    2  502    0  0.16068637154E+03  0.54012992579E+02 -0.15726984682E+04  0.15911322966E+04  0.17200000000E+03 0. -1.
         -6    1    1    2    0  501 -0.16068637154E+03 -0.54012992579E+02  0.74952165835E+00  0.24149963799E+03  0.17200000000E+03 0.  1.
</event>
<event>
 4    1  0.6365705E-002  0.3081067E+03  0.7818608E-02  0.1081257E+00
         -2   -1    0    0    0  501 -0.00000000000E+00  0.00000000000E+00  0.76100556120E+02  0.76100556120E+02  0.00000000000E+00 0.  1.
          2   -1    0    0  502    0  0.00000000000E+00 -0.00000000000E+00 -0.14948135626E+04  0.14948135626E+04  0.00000000000E+00 0. -1.
          6    1    1    2  502    0 -0.16473926046E+03  0.19546537718E+03 -0.10288917164E+04  0.10740334733E+04  0.17200000000E+03 0. -1.
         -6    1    1    2    0  501  0.16473926046E+03 -0.19546537718E+03 -0.38982128999E+03  0.49688064537E+03  0.17200000000E+03 0.  1.
</event>
<event>
 4    1  0.6365705E-002  0.1778179E+03  0.7818608E-02  0.1169932E+00
         -2   -1    0    0    0  501 -0.00000000000E+00  0.00000000000E+00  0.37938628207E+03  0.37938628207E+03  0.00000000000E+00 0.  1.
          2   -1    0    0  502    0  0.00000000000E+00 -0.00000000000E+00 -0.10114647495E+03  0.10114647495E+03  0.00000000000E+00 0. -1.
          6    1    1    2  502    0  0.74638367417E+01  0.44491699463E+02  0.23992188622E+03  0.29863310545E+03  0.17200000000E+03 0.  1.
         -6    1    1    2    0  501 -0.74638367417E+01 -0.44491699463E+02  0.38317920906E+02  0.18189965157E+03  0.17200000000E+03 0. -1.
</event>
<event>
 4    1  0.6365705E-002  0.2428649E+03  0.7818608E-02  0.1117899E+00
          2   -1    0    0  502    0  0.00000000000E+00  0.00000000000E+00  0.76494154637E+03  0.76494154637E+03  0.00000000000E+00 0. -1.
         -2   -1    0    0    0  501 -0.00000000000E+00 -0.00000000000E+00 -0.11953810662E+03  0.11953810662E+03  0.00000000000E+00 0.  1.
          6    1    1    2  502    0 -0.98125570346E+02 -0.14060849455E+03  0.59226386341E+02  0.24998228164E+03  0.17200000000E+03 0. -1.
         -6    1    1    2    0  501  0.98125570346E+02  0.14060849455E+03  0.58617705341E+03  0.63449737134E+03  0.17200000000E+03 0.  1.
</event>
<event>
 4    1  0.6365705E-002  0.2919974E+03  0.7818608E-02  0.1089311E+00
          1   -1    0    0  502    0  0.00000000000E+00  0.00000000000E+00  0.18855631562E+03  0.18855631562E+03  0.00000000000E+00 0. -1.
         -1   -1    0    0    0  501 -0.00000000000E+00 -0.00000000000E+00 -0.47852050120E+03  0.47852050120E+03  0.00000000000E+00 0.  1.
          6    1    1    2  502    0 -0.14650599416E+03 -0.18497156420E+03 -0.22322768577E+03  0.36755011302E+03  0.17200000000E+03 0. -1.
         -6    1    1    2    0  501  0.14650599416E+03  0.18497156420E+03 -0.66736499806E+02  0.29952670380E+03  0.17200000000E+03 0.  1.
</event>
<event>
 4    1  0.6365705E-002  0.2540607E+03  0.7818608E-02  0.1110765E+00
          1   -1    0    0  502    0  0.00000000000E+00  0.00000000000E+00  0.16990429180E+04  0.16990429180E+04  0.00000000000E+00 0. -1.
         -1   -1    0    0    0  501 -0.00000000000E+00 -0.00000000000E+00 -0.40870843182E+03  0.40870843182E+03  0.00000000000E+00 0.  1.
          6    1    1    2  502    0  0.10963394896E+03 -0.15147021682E+03  0.16488688195E+04  0.16683270702E+04  0.17200000000E+03 0. -1.
         -6    1    1    2    0  501 -0.10963394896E+03  0.15147021682E+03 -0.35853433331E+03  0.43942427961E+03  0.17200000000E+03 0.  1.
</event>
<event>
 4    1  0.6365705E-002  0.2312100E+03  0.7818608E-02  0.1125791E+00
         -2   -1    0    0    0  501 -0.00000000000E+00  0.00000000000E+00  0.90704938307E+02  0.90704938307E+02  0.00000000000E+00 0.  1.
          2   -1    0    0  502    0  0.00000000000E+00 -0.00000000000E+00 -0.10211289541E+04  0.10211289541E+04  0.00000000000E+00 0. -1.
          6    1    1    2  502    0 -0.13979576874E+03  0.65811939025E+02 -0.82670025522E+03  0.85842377662E+03  0.17200000000E+03 0. -1.
         -6    1    1    2    0  501  0.13979576874E+03 -0.65811939025E+02 -0.10372376056E+03  0.25341011578E+03  0.17200000000E+03 0.  1.
</event>
<event>
 4    1  0.6365705E-002  0.2452102E+03  0.7818608E-02  0.1116370E+00
          1   -1    0    0  502    0  0.00000000000E+00  0.00000000000E+00  0.73542510310E+02  0.73542510310E+02  0.00000000000E+00 0. -1.
         -1   -1    0    0    0  501 -0.00000000000E+00 -0.00000000000E+00 -0.96984043333E+03  0.96984043333E+03  0.00000000000E+00 0.  1.
          6    1    1    2  502    0 -0.15013249498E+03  0.89466739111E+02 -0.24145190979E+03  0.34413237017E+03  0.17200000000E+03 0. -1.
         -6    1    1    2    0  501  0.15013249498E+03 -0.89466739111E+02 -0.65484601323E+03  0.69925057348E+03  0.17200000000E+03 0. -1.
</event>
<event>
 4    1  0.6365705E-002  0.6312391E+03  0.7818608E-02  0.9842634E-01
         -1   -1    0    0    0  501 -0.00000000000E+00  0.00000000000E+00  0.89570403608E+03  0.89570403608E+03  0.00000000000E+00 0.  1.
          1   -1    0    0  502    0  0.00000000000E+00 -0.00000000000E+00 -0.65070460281E+03  0.65070460281E+03  0.00000000000E+00 0. -1.
          6    1    1    2  502    0 -0.18140287545E+03 -0.57963079320E+03 -0.31238297085E+03  0.70430531740E+03  0.17200000000E+03 0. -1.
         -6    1    1    2    0  501  0.18140287545E+03  0.57963079320E+03  0.55738240411E+03  0.84210332149E+03  0.17200000000E+03 0.  1.
</event>
<event>
 4    1  0.6365705E-002  0.1907866E+03  0.7818608E-02  0.1157754E+00
          2   -1    0    0  502    0  0.00000000000E+00  0.00000000000E+00  0.13843608707E+03  0.13843608707E+03  0.00000000000E+00 0. -1.
         -2   -1    0    0    0  501 -0.00000000000E+00 -0.00000000000E+00 -0.28031907006E+03  0.28031907006E+03  0.00000000000E+00 0.  1.
          6    1    1    2  502    0 -0.81277892343E+02 -0.14471672259E+02 -0.18798650082E+02  0.19171049613E+03  0.17200000000E+03 0. -1.
         -6    1    1    2    0  501  0.81277892343E+02  0.14471672259E+02 -0.12308433291E+03  0.22704466100E+03  0.17200000000E+03 0. -1.
</event>
<event>
 4    1  0.6365705E-002  0.1969339E+03  0.7818608E-02  0.1152352E+00
          2   -1    0    0  502    0  0.00000000000E+00  0.00000000000E+00  0.29385850426E+03  0.29385850426E+03  0.00000000000E+00 0. -1.
         -2   -1    0    0    0  501 -0.00000000000E+00 -0.00000000000E+00 -0.25599221899E+03  0.25599221899E+03  0.00000000000E+00 0.  1.
          6    1    1    2  502    0  0.93229130618E+02  0.22522774874E+02  0.21028674230E+03  0.28810321097E+03  0.17200000000E+03 0. -1.
         -6    1    1    2    0  501 -0.93229130618E+02 -0.22522774874E+02 -0.17242045703E+03  0.26174751228E+03  0.17200000000E+03 0.  1.
</event>
<event>
 4    1  0.6365705E-002  0.1881427E+03  0.7818608E-02  0.1160147E+00
          2   -1    0    0  502    0  0.00000000000E+00  0.00000000000E+00  0.50298781600E+03  0.50298781600E+03  0.00000000000E+00 0. -1.
         -2   -1    0    0    0  501 -0.00000000000E+00 -0.00000000000E+00 -0.16360854398E+03  0.16360854398E+03  0.00000000000E+00 0.  1.
          6    1    1    2  502    0 -0.58476569540E+02 -0.48930201802E+02  0.42129302276E+03  0.46139515045E+03  0.17200000000E+03 0. -1.
         -6    1    1    2    0  501  0.58476569540E+02  0.48930201802E+02 -0.81913750733E+02  0.20520120953E+03  0.17200000000E+03 0.  1.
</event>
<event>
 4    1  0.6365705E-002  0.4144450E+03  0.7818608E-02  0.1038890E+00
         -2   -1    0    0    0  501 -0.00000000000E+00  0.00000000000E+00  0.76111142216E+03  0.76111142216E+03  0.00000000000E+00 0.  1.
          2   -1    0    0  502    0  0.00000000000E+00 -0.00000000000E+00 -0.31608580018E+03  0.31608580018E+03  0.00000000000E+00 0. -1.
          6    1    1    2  502    0  0.18755408335E+03 -0.32711483374E+03 -0.65538780070E+02  0.41959501942E+03  0.17200000000E+03 0. -1.
         -6    1    1    2    0  501 -0.18755408335E+03  0.32711483374E+03  0.51056440205E+03  0.65760220291E+03  0.17200000000E+03 0.  1.
</event>
<event>
 4    1  0.6365705E-002  0.3835052E+03  0.7818608E-02  0.1049646E+00
          2   -1    0    0  502    0  0.00000000000E+00  0.00000000000E+00  0.36962150793E+04  0.36962150793E+04  0.00000000000E+00 0. -1.
         -2   -1    0    0    0  501 -0.00000000000E+00 -0.00000000000E+00 -0.53374540216E+02  0.53374540216E+02  0.00000000000E+00 0.  1.
          6    1    1    2  502    0  0.15843668920E+03 -0.30395729499E+03  0.87563487220E+03  0.95593548479E+03  0.17200000000E+03 0.  1.
         -6    1    1    2    0  501 -0.15843668920E+03  0.30395729499E+03  0.27672056668E+04  0.27936541347E+04  0.17200000000E+03 0. -1.
</event>
<event>
 4    1  0.6365705E-002  0.1906991E+03  0.7818608E-02  0.1157832E+00
          3   -1    0    0  502    0  0.00000000000E+00  0.00000000000E+00  0.20497847571E+03  0.20497847571E+03  0.00000000000E+00 0. -1.
         -3   -1    0    0    0  501 -0.00000000000E+00 -0.00000000000E+00 -0.30160904037E+03  0.30160904037E+03  0.00000000000E+00 0.  1.
          6    1    1    2  502    0  0.27810485452E+02  0.77515940853E+02  0.11422224336E+03  0.22229004716E+03  0.17200000000E+03 0. -1.
         -6    1    1    2    0  501 -0.27810485452E+02 -0.77515940853E+02 -0.21085280801E+03  0.28429746892E+03  0.17200000000E+03 0.  1.
</event>
<event>
 4    1  0.6365705E-002  0.1893260E+03  0.7818608E-02  0.1159071E+00
          2   -1    0    0  502    0  0.00000000000E+00  0.00000000000E+00  0.11342290788E+04  0.11342290788E+04  0.00000000000E+00 0. -1.
         -2   -1    0    0    0  501 -0.00000000000E+00 -0.00000000000E+00 -0.50676308433E+02  0.50676308433E+02  0.00000000000E+00 0.  1.
          6    1    1    2  502    0 -0.21459989102E+02 -0.76156486687E+02  0.90524861461E+03  0.92483479381E+03  0.17200000000E+03 0. -1.
         -6    1    1    2    0  501  0.21459989102E+02  0.76156486687E+02  0.17830415573E+03  0.26007059339E+03  0.17200000000E+03 0.  1.
</event>
<event>
 4    1  0.6365705E-002  0.5885776E+03  0.7818608E-02  0.9929391E-01
          2   -1    0    0  502    0  0.00000000000E+00  0.00000000000E+00  0.40001811844E+04  0.40001811844E+04  0.00000000000E+00 0. -1.
         -2   -1    0    0    0  501 -0.00000000000E+00 -0.00000000000E+00 -0.86674191496E+02  0.86674191496E+02  0.00000000000E+00 0.  1.
          6    1    1    2  502    0  0.12553328948E+02 -0.56274504271E+03  0.18977674976E+04  0.19869436439E+04  0.17200000000E+03 0. -1.
         -6    1    1    2    0  501 -0.12553328948E+02  0.56274504271E+03  0.20157394954E+04  0.20999117320E+04  0.17200000000E+03 0.  1.
</event>
<event>
 4    1  0.6365705E-002  0.2339843E+03  0.7818608E-02  0.1123866E+00
          1   -1    0    0  502    0  0.00000000000E+00  0.00000000000E+00  0.76138107867E+02  0.76138107867E+02  0.00000000000E+00 0. -1.
         -1   -1    0    0    0  501 -0.00000000000E+00 -0.00000000000E+00 -0.77357423344E+03  0.77357423344E+03  0.00000000000E+00 0.  1.
          6    1    1    2  502    0 -0.12369703573E+03 -0.99316210307E+02 -0.23594532819E+03  0.33229334055E+03  0.17200000000E+03 0. -1.
         -6    1    1    2    0  501  0.12369703573E+03  0.99316210307E+02 -0.46149079738E+03  0.51741900076E+03  0.17200000000E+03 0.  1.
</event>
<event>
 4    1  0.6365705E-002  0.3588038E+03  0.7818608E-02  0.1059059E+00
         -1   -1    0    0    0  501 -0.00000000000E+00  0.00000000000E+00  0.10170853481E+03  0.10170853481E+03  0.00000000000E+00 0.  1.
          1   -1    0    0  502    0  0.00000000000E+00 -0.00000000000E+00 -0.14950992283E+04  0.14950992283E+04  0.00000000000E+00 0. -1.
          6    1    1    2  502    0  0.25765247156E+03  0.18102868690E+03 -0.10093839368E+04  0.10712591253E+04  0.17200000000E+03 0. -1.
         -6    1    1    2    0  501 -0.25765247156E+03 -0.18102868690E+03 -0.38400675673E+03  0.52554863790E+03  0.17200000000E+03 0.  1.
</event>
<event>
 4    1  0.6365705E-002  0.4847724E+03  0.7818608E-02  0.1017832E+00
          2   -1    0    0  502    0  0.00000000000E+00  0.00000000000E+00  0.89246302501E+03  0.89246302501E+03  0.00000000000E+00 0. -1.
         -2   -1    0    0    0  501 -0.00000000000E+00 -0.00000000000E+00 -0.66316064096E+03  0.66316064096E+03  0.00000000000E+00 0.  1.
          6    1    1    2  502    0  0.43356548269E+03 -0.13206528368E+03  0.71861107518E+03  0.86683686141E+03  0.17200000000E+03 0. -1.
         -6    1    1    2    0  501 -0.43356548269E+03  0.13206528368E+03 -0.48930869113E+03  0.68878680456E+03  0.17200000000E+03 0.  1.
</event>
<event>
 4    1  0.6365705E-002  0.2820852E+03  0.7818608E-02  0.1094555E+00
         -2   -1    0    0    0  501 -0.00000000000E+00  0.00000000000E+00  0.19091201543E+02  0.19091201543E+02  0.00000000000E+00 0.  1.
          2   -1    0    0  502    0  0.00000000000E+00 -0.00000000000E+00 -0.41998043013E+04  0.41998043013E+04  0.00000000000E+00 0. -1.
          6    1    1    2  502    0  0.12871352505E+03 -0.18281374896E+03 -0.22739381917E+04  0.22913679185E+04  0.17200000000E+03 0. -1.
         -6    1    1    2    0  501 -0.12871352505E+03  0.18281374896E+03 -0.19067749081E+04  0.19275275844E+04  0.17200000000E+03 0.  1.
</event>
<event>
 4    1  0.6365705E-002  0.2929489E+03  0.7818608E-02  0.1088819E+00
         -2   -1    0    0    0  501 -0.00000000000E+00  0.00000000000E+00  0.12089655962E+03  0.12089655962E+03  0.00000000000E+00 0.  1.
          2   -1    0    0  502    0  0.00000000000E+00 -0.00000000000E+00 -0.76283307076E+03  0.76283307076E+03  0.00000000000E+00 0. -1.
          6    1    1    2  502    0  0.20960148259E+03  0.11091572813E+03 -0.43741328100E+03  0.52644986337E+03  0.17200000000E+03 0. -1.
         -6    1    1    2    0  501 -0.20960148259E+03 -0.11091572813E+03 -0.20452323014E+03  0.35727976701E+03  0.17200000000E+03 0.  1.
</event>
<event>
 4    1  0.6365705E-002  0.3215967E+03  0.7818608E-02  0.1074917E+00
          1   -1    0    0  502    0  0.00000000000E+00  0.00000000000E+00  0.71852517130E+03  0.71852517130E+03  0.00000000000E+00 0. -1.
         -1   -1    0    0    0  501 -0.00000000000E+00 -0.00000000000E+00 -0.21640318603E+03  0.21640318603E+03  0.00000000000E+00 0.  1.
          6    1    1    2  502    0 -0.21659858192E+03  0.16408985294E+03  0.52156617491E+03  0.61274440050E+03  0.17200000000E+03 0. -1.
         -6    1    1    2    0  501  0.21659858192E+03 -0.16408985294E+03 -0.19444189647E+02  0.32218395683E+03  0.17200000000E+03 0.  1.
</event>
<event>
 4    1  0.6365705E-002  0.2422167E+03  0.7818608E-02  0.1118325E+00
          2   -1    0    0  502    0  0.00000000000E+00  0.00000000000E+00  0.54066701635E+03  0.54066701635E+03  0.00000000000E+00 0. -1.
         -2   -1    0    0    0  501 -0.00000000000E+00 -0.00000000000E+00 -0.17531644215E+03  0.17531644215E+03  0.00000000000E+00 0.  1.
          6    1    1    2  502    0 -0.15401294199E+03  0.73245909763E+02 -0.38310222290E+02  0.24522769568E+03  0.17200000000E+03 0.  1.
         -6    1    1    2    0  501  0.15401294199E+03 -0.73245909763E+02  0.40366079650E+03  0.47075576282E+03  0.17200000000E+03 0. -1.
</event>
<event>
 4    1  0.6365705E-002  0.3148262E+03  0.7818608E-02  0.1078055E+00
         -2   -1    0    0    0  501 -0.00000000000E+00  0.00000000000E+00  0.51837199062E+02  0.51837199062E+02  0.00000000000E+00 0.  1.
          2   -1    0    0  502    0  0.00000000000E+00 -0.00000000000E+00 -0.22681699602E+04  0.22681699602E+04  0.00000000000E+00 0. -1.
          6    1    1    2  502    0 -0.23486184055E+03  0.11988106523E+03 -0.15678054078E+04  0.15991026704E+04  0.17200000000E+03 0. -1.
         -6    1    1    2    0  501  0.23486184055E+03 -0.11988106523E+03 -0.64852735335E+03  0.72090448881E+03  0.17200000000E+03 0.  1.
</event>
<event>
 4    1  0.6365705E-002  0.4221473E+03  0.7818608E-02  0.1036370E+00
          2   -1    0    0  502    0  0.00000000000E+00  0.00000000000E+00  0.14737289502E+04  0.14737289502E+04  0.00000000000E+00 0. -1.
         -2   -1    0    0    0  501 -0.00000000000E+00 -0.00000000000E+00 -0.14409047161E+03  0.14409047161E+03  0.00000000000E+00 0.  1.
          6    1    1    2  502    0 -0.34130403771E+03  0.17926477136E+03  0.98917234277E+03  0.10754860427E+04  0.17200000000E+03 0. -1.
         -6    1    1    2    0  501  0.34130403771E+03 -0.17926477136E+03  0.34046613579E+03  0.54233337904E+03  0.17200000000E+03 0.  1.
</event>
<event>
 4    1  0.6365705E-002  0.2285258E+03  0.7818608E-02  0.1127682E+00
          2   -1    0    0  502    0  0.00000000000E+00  0.00000000000E+00  0.11514697129E+04  0.11514697129E+04  0.00000000000E+00 0. -1.
         -2   -1    0    0    0  501 -0.00000000000E+00 -0.00000000000E+00 -0.50162151941E+02  0.50162151941E+02  0.00000000000E+00 0.  1.
          6    1    1    2  502    0 -0.45804270819E+01 -0.15039629571E+03  0.73666190463E+03  0.77129422908E+03  0.17200000000E+03 0. -1.
         -6    1    1    2    0  501  0.45804270819E+01  0.15039629571E+03  0.36464565632E+03  0.43033763576E+03  0.17200000000E+03 0.  1.
</event>
<event>
 4    1  0.6365705E-002  0.1945895E+03  0.7818608E-02  0.1154386E+00
         -1   -1    0    0    0  501 -0.00000000000E+00  0.00000000000E+00  0.53196637585E+02  0.53196637585E+02  0.00000000000E+00 0.  1.
          1   -1    0    0  502    0  0.00000000000E+00 -0.00000000000E+00 -0.71409707863E+03  0.71409707863E+03  0.00000000000E+00 0. -1.
          6    1    1    2  502    0 -0.90969223278E+02  0.23818414097E+01 -0.30866497017E+03  0.36488235990E+03  0.17200000000E+03 0. -1.
         -6    1    1    2    0  501  0.90969223278E+02 -0.23818414097E+01 -0.35223547087E+03  0.40241135631E+03  0.17200000000E+03 0.  1.
</event>
<event>
 4    1  0.6365705E-002  0.2308499E+03  0.7818608E-02  0.1126043E+00
          2   -1    0    0  502    0  0.00000000000E+00  0.00000000000E+00  0.37849142229E+03  0.37849142229E+03  0.00000000000E+00 0. -1.
         -2   -1    0    0    0  501 -0.00000000000E+00 -0.00000000000E+00 -0.27144741145E+03  0.27144741145E+03  0.00000000000E+00 0.  1.
          6    1    1    2  502    0 -0.68787631948E+02  0.13775319690E+03  0.27897170002E+03  0.36210066415E+03  0.17200000000E+03 0. -1.
         -6    1    1    2    0  501  0.68787631948E+02 -0.13775319690E+03 -0.17192768918E+03  0.28783816959E+03  0.17200000000E+03 0.  1.
</event>
<event>
 4    1  0.6365705E-002  0.1907155E+03  0.7818608E-02  0.1157818E+00
          2   -1    0    0  502    0  0.00000000000E+00  0.00000000000E+00  0.52601729990E+03  0.52601729990E+03  0.00000000000E+00 0. -1.
         -2   -1    0    0    0  501 -0.00000000000E+00 -0.00000000000E+00 -0.85566630037E+02  0.85566630037E+02  0.00000000000E+00 0.  1.
          6    1    1    2  502    0  0.58693608201E+02 -0.57822534320E+02  0.86270348070E+02  0.20932022854E+03  0.17200000000E+03 0.  1.
         -6    1    1    2    0  501 -0.58693608201E+02  0.57822534320E+02  0.35418032179E+03  0.40226370140E+03  0.17200000000E+03 0. -1.
</event>
<event>
 4    1  0.6365705E-002  0.2057463E+03  0.7818608E-02  0.1144979E+00
          2   -1    0    0  502    0  0.00000000000E+00  0.00000000000E+00  0.13309139722E+04  0.13309139722E+04  0.00000000000E+00 0. -1.
         -2   -1    0    0    0  501 -0.00000000000E+00 -0.00000000000E+00 -0.49037396671E+02  0.49037396671E+02  0.00000000000E+00 0.  1.
          6    1    1    2  502    0  0.99075755568E+02 -0.54143746849E+02  0.23193614764E+03  0.31004181532E+03  0.17200000000E+03 0.  1.
         -6    1    1    2    0  501 -0.99075755568E+02  0.54143746849E+02  0.10499404279E+04  0.10699095536E+04  0.17200000000E+03 0.  1.
</event>
<event>
 4    1  0.6365705E-002  0.1921332E+03  0.7818608E-02  0.1156551E+00
          1   -1    0    0  502    0  0.00000000000E+00  0.00000000000E+00  0.79438889877E+03  0.79438889877E+03  0.00000000000E+00 0. -1.
         -1   -1    0    0    0  501 -0.00000000000E+00 -0.00000000000E+00 -0.52722883271E+02  0.52722883271E+02  0.00000000000E+00 0.  1.
          6    1    1    2  502    0 -0.46466193849E+02  0.71917031396E+02  0.22496667960E+03  0.29584653708E+03  0.17200000000E+03 0. -1.
         -6    1    1    2    0  501  0.46466193849E+02 -0.71917031396E+02  0.51669933590E+03  0.55126524496E+03  0.17200000000E+03 0. -1.
</event>
<event>
 4    1  0.6365705E-002  0.1751315E+03  0.7818608E-02  0.1172600E+00
         -2   -1    0    0    0  501 -0.00000000000E+00  0.00000000000E+00  0.54758956384E+02  0.54758956384E+02  0.00000000000E+00 0.  1.
          2   -1    0    0  502    0  0.00000000000E+00 -0.00000000000E+00 -0.86524506506E+03  0.86524506506E+03  0.00000000000E+00 0. -1.
          6    1    1    2  502    0 -0.20527630247E+01  0.32906244003E+02 -0.67841511571E+03  0.70065548164E+03  0.17200000000E+03 0. -1.
         -6    1    1    2    0  501  0.20527630247E+01 -0.32906244003E+02 -0.13207099297E+03  0.21934853980E+03  0.17200000000E+03 0.  1.
</event>
<event>
 4    1  0.6365705E-002  0.2063962E+03  0.7818608E-02  0.1144452E+00
          1   -1    0    0  502    0  0.00000000000E+00  0.00000000000E+00  0.89219156909E+03  0.89219156909E+03  0.00000000000E+00 0. -1.
         -1   -1    0    0    0  501 -0.00000000000E+00 -0.00000000000E+00 -0.47854594252E+02  0.47854594252E+02  0.00000000000E+00 0.  1.
          6    1    1    2  502    0 -0.10260841996E+03  0.49868866010E+02  0.44446469493E+03  0.49004923904E+03  0.17200000000E+03 0.  1.
         -6    1    1    2    0  501  0.10260841996E+03 -0.49868866010E+02  0.39987227990E+03  0.44999692430E+03  0.17200000000E+03 0.  1.
</event>
<event>
 4    1  0.6365705E-002  0.2918194E+03  0.7818608E-02  0.1089403E+00
          2   -1    0    0  502    0  0.00000000000E+00  0.00000000000E+00  0.14276816905E+04  0.14276816905E+04  0.00000000000E+00 0. -1.
         -2   -1    0    0    0  501 -0.00000000000E+00 -0.00000000000E+00 -0.59666504344E+02  0.59666504344E+02  0.00000000000E+00 0.  1.
          6    1    1    2  502    0  0.21237436952E+03  0.10233124422E+03  0.69705466781E+03  0.75567437848E+03  0.17200000000E+03 0. -1.
         -6    1    1    2    0  501 -0.21237436952E+03 -0.10233124422E+03  0.67096051830E+03  0.73167381632E+03  0.17200000000E+03 0. -1.
</event>
<event>
 4    1  0.6365705E-002  0.2135998E+03  0.7818608E-02  0.1138747E+00
          2   -1    0    0  502    0  0.00000000000E+00  0.00000000000E+00  0.27307851052E+04  0.27307851052E+04  0.00000000000E+00 0. -1.
         -2   -1    0    0    0  501 -0.00000000000E+00 -0.00000000000E+00 -0.20272577620E+02  0.20272577620E+02  0.00000000000E+00 0.  1.
          6    1    1    2  502    0 -0.42178086541E+02  0.11942314686E+03  0.77843227721E+03  0.80720610082E+03  0.17200000000E+03 0.  1.
         -6    1    1    2    0  501  0.42178086541E+02 -0.11942314686E+03  0.19320802504E+04  0.19438515820E+04  0.17200000000E+03 0. -1.
</event>
<event>
 4    1  0.6365705E-002  0.2177196E+03  0.7818608E-02  0.1135595E+00
         -2   -1    0    0    0  501 -0.00000000000E+00  0.00000000000E+00  0.16726855416E+02  0.16726855416E+02  0.00000000000E+00 0.  1.
          2   -1    0    0  502    0  0.00000000000E+00 -0.00000000000E+00 -0.28948832907E+04  0.28948832907E+04  0.00000000000E+00 0. -1.
          6    1    1    2  502    0  0.13267383873E+03 -0.14679180484E+02 -0.16504175509E+04  0.16647161674E+04  0.17200000000E+03 0. -1.
         -6    1    1    2    0  501 -0.13267383873E+03  0.14679180484E+02 -0.12277388844E+04  0.12468939786E+04  0.17200000000E+03 0.  1.
</event>
<event>
 4    1  0.6365705E-002  0.2945496E+03  0.7818608E-02  0.1087997E+00
          2   -1    0    0  502    0  0.00000000000E+00  0.00000000000E+00  0.12908159391E+04  0.12908159391E+04  0.00000000000E+00 0. -1.
         -2   -1    0    0    0  501 -0.00000000000E+00 -0.00000000000E+00 -0.15457030908E+03  0.15457030908E+03  0.00000000000E+00 0.  1.
          6    1    1    2  502    0  0.26806098847E+02 -0.23760662071E+03  0.11114241545E+04  0.11497926441E+04  0.17200000000E+03 0. -1.
         -6    1    1    2    0  501 -0.26806098847E+02  0.23760662071E+03  0.24821475509E+02  0.29559360411E+03  0.17200000000E+03 0.  1.
</event>
<event>
 4    1  0.6365705E-002  0.1777112E+03  0.7818608E-02  0.1170037E+00
          1   -1    0    0  502    0  0.00000000000E+00  0.00000000000E+00  0.60634659579E+03  0.60634659579E+03  0.00000000000E+00 0. -1.
         -1   -1    0    0    0  501 -0.00000000000E+00 -0.00000000000E+00 -0.61257623796E+02  0.61257623796E+02  0.00000000000E+00 0.  1.
          6    1    1    2  502    0 -0.29070882719E+02  0.33943615365E+02  0.40171596052E+03  0.43926870841E+03  0.17200000000E+03 0. -1.
         -6    1    1    2    0  501  0.29070882719E+02 -0.33943615365E+02  0.14337301147E+03  0.22833551117E+03  0.17200000000E+03 0.  1.
</event>
<event>
 4    1  0.6365705E-002  0.4059681E+03  0.7818608E-02  0.1041733E+00
         -1   -1    0    0    0  501 -0.00000000000E+00  0.00000000000E+00  0.80304692362E+03  0.80304692362E+03  0.00000000000E+00 0.  1.
          1   -1    0    0  502    0  0.00000000000E+00 -0.00000000000E+00 -0.20615657152E+03  0.20615657152E+03  0.00000000000E+00 0. -1.
          6    1    1    2  502    0  0.30943462173E+03 -0.19868646440E+03  0.26463378683E+03  0.48460410377E+03  0.17200000000E+03 0. -1.
         -6    1    1    2    0  501 -0.30943462173E+03  0.19868646440E+03  0.33225656527E+03  0.52459939137E+03  0.17200000000E+03 0. -1.
</event>
<event>
 4    1  0.6365705E-002  0.1980211E+03  0.7818608E-02  0.1151419E+00
          2   -1    0    0  502    0  0.00000000000E+00  0.00000000000E+00  0.29803511513E+03  0.29803511513E+03  0.00000000000E+00 0. -1.
         -2   -1    0    0    0  501 -0.00000000000E+00 -0.00000000000E+00 -0.14323168474E+03  0.14323168474E+03  0.00000000000E+00 0.  1.
          6    1    1    2  502    0  0.93571178141E+02  0.29542778737E+02  0.14035828194E+03  0.24271956753E+03  0.17200000000E+03 0. -1.
         -6    1    1    2    0  501 -0.93571178141E+02 -0.29542778737E+02  0.14445148458E+02  0.19854723234E+03  0.17200000000E+03 0.  1.
</event>
<event>
 4    1  0.6365705E-002  0.2247393E+03  0.7818608E-02  0.1130398E+00
         -2   -1    0    0    0  501 -0.00000000000E+00  0.00000000000E+00  0.10725154205E+03  0.10725154205E+03  0.00000000000E+00 0.  1.
          2   -1    0    0  502    0  0.00000000000E+00 -0.00000000000E+00 -0.56497215470E+03  0.56497215470E+03  0.00000000000E+00 0. -1.
          6    1    1    2  502    0  0.69929713834E+02 -0.12662382083E+03 -0.36599146519E+03  0.42948516793E+03  0.17200000000E+03 0. -1.
         -6    1    1    2    0  501 -0.69929713834E+02  0.12662382083E+03 -0.91729147469E+02  0.24273852882E+03  0.17200000000E+03 0. -1.
</event>
<event>
 4    1  0.6365705E-002  0.3770988E+03  0.7818608E-02  0.1052011E+00
         -2   -1    0    0    0  501 -0.00000000000E+00  0.00000000000E+00  0.12257182769E+04  0.12257182769E+04  0.00000000000E+00 0.  1.
          2   -1    0    0  502    0  0.00000000000E+00 -0.00000000000E+00 -0.11672412713E+03  0.11672412713E+03  0.00000000000E+00 0. -1.
          6    1    1    2  502    0 -0.33201945837E+03 -0.48811851476E+02  0.60676007293E+03  0.71439576125E+03  0.17200000000E+03 0. -1.
         -6    1    1    2    0  501  0.33201945837E+03  0.48811851476E+02  0.50223407689E+03  0.62804664283E+03  0.17200000000E+03 0.  1.
</event>
<event>
 4    1  0.6365705E-002  0.1722124E+03  0.7818608E-02  0.1175560E+00
         -2   -1    0    0    0  501 -0.00000000000E+00  0.00000000000E+00  0.25348436277E+03  0.25348436277E+03  0.00000000000E+00 0.  1.
          2   -1    0    0  502    0  0.00000000000E+00 -0.00000000000E+00 -0.12487382542E+03  0.12487382542E+03  0.00000000000E+00 0. -1.
          6    1    1    2  502    0 -0.42611790697E+01 -0.74124323869E+01  0.11181605101E+03  0.20532883642E+03  0.17200000000E+03 0.  1.
         -6    1    1    2    0  501  0.42611790697E+01  0.74124323869E+01  0.16794486337E+02  0.17302935177E+03  0.17200000000E+03 0. -1.
</event>
<event>
 4    1  0.6365705E-002  0.4683134E+03  0.7818608E-02  0.1022397E+00
          1   -1    0    0  502    0  0.00000000000E+00  0.00000000000E+00  0.10718199513E+04  0.10718199513E+04  0.00000000000E+00 0. -1.
         -1   -1    0    0    0  501 -0.00000000000E+00 -0.00000000000E+00 -0.21010612981E+03  0.21010612981E+03  0.00000000000E+00 0.  1.
          6    1    1    2  502    0  0.43324449156E+03 -0.45084601191E+02  0.32729808485E+03  0.57135054658E+03  0.17200000000E+03 0. -1.
         -6    1    1    2    0  501 -0.43324449156E+03  0.45084601191E+02  0.53441573667E+03  0.71057553457E+03  0.17200000000E+03 0.  1.
</event>
<event>
 4    1  0.6365705E-002  0.2128461E+03  0.7818608E-02  0.1139332E+00
          2   -1    0    0  502    0  0.00000000000E+00  0.00000000000E+00  0.13599613154E+04  0.13599613154E+04  0.00000000000E+00 0. -1.
         -2   -1    0    0    0  501 -0.00000000000E+00 -0.00000000000E+00 -0.55863855371E+02  0.55863855371E+02  0.00000000000E+00 0.  1.
          6    1    1    2  502    0  0.77769097610E+02  0.98343474060E+02  0.11018308674E+04  0.11222008429E+04  0.17200000000E+03 0. -1.
         -6    1    1    2    0  501 -0.77769097610E+02 -0.98343474060E+02  0.20226659265E+03  0.29362432790E+03  0.17200000000E+03 0.  1.
</event>
<event>
 4    1  0.6365705E-002  0.2972932E+03  0.7818608E-02  0.1086602E+00
          1   -1    0    0  502    0  0.00000000000E+00  0.00000000000E+00  0.11724115862E+04  0.11724115862E+04  0.00000000000E+00 0. -1.
         -1   -1    0    0    0  501 -0.00000000000E+00 -0.00000000000E+00 -0.26852075654E+03  0.26852075654E+03  0.00000000000E+00 0.  1.
          6    1    1    2  502    0 -0.85538771113E+02 -0.22689731408E+03  0.10629648470E+04  0.11037561046E+04  0.17200000000E+03 0. -1.
         -6    1    1    2    0  501  0.85538771113E+02  0.22689731408E+03 -0.15907401741E+03  0.33717623807E+03  0.17200000000E+03 0.  1.
</event>
<event>
 4    1  0.6365705E-002  0.1969292E+03  0.7818608E-02  0.1152356E+00
          2   -1    0    0  502    0  0.00000000000E+00  0.00000000000E+00  0.26353345451E+03  0.26353345451E+03  0.00000000000E+00 0. -1.
         -2   -1    0    0    0  501 -0.00000000000E+00 -0.00000000000E+00 -0.14857266533E+03  0.14857266533E+03  0.00000000000E+00 0.  1.
          6    1    1    2  502    0  0.85739197746E+02  0.42963827723E+02  0.77585696051E+02  0.21166161852E+03  0.17200000000E+03 0. -1.
         -6    1    1    2    0  501 -0.85739197746E+02 -0.42963827723E+02  0.37375093129E+02  0.20044450132E+03  0.17200000000E+03 0.  1.
</event>
<event>
 4    1  0.6365705E-002  0.3097856E+03  0.7818608E-02  0.1080449E+00
          2   -1    0    0  502    0  0.00000000000E+00  0.00000000000E+00  0.74808013379E+03  0.74808013379E+03  0.00000000000E+00 0. -1.
         -2   -1    0    0    0  501 -0.00000000000E+00 -0.00000000000E+00 -0.14082230376E+03  0.14082230376E+03  0.00000000000E+00 0.  1.
          6    1    1    2  502    0  0.21753909227E+03 -0.13805736286E+03  0.43624584497E+03  0.53504909061E+03  0.17200000000E+03 0. -1.
         -6    1    1    2    0  501 -0.21753909227E+03  0.13805736286E+03  0.17101198506E+03  0.35385334694E+03  0.17200000000E+03 0.  1.
</event>
<event>
 4    1  0.6365705E-002  0.7309633E+03  0.7818608E-02  0.9665698E-01
          2   -1    0    0  502    0  0.00000000000E+00  0.00000000000E+00  0.13574826203E+04  0.13574826203E+04  0.00000000000E+00 0. -1.
         -2   -1    0    0    0  501 -0.00000000000E+00 -0.00000000000E+00 -0.46178128244E+03  0.46178128244E+03  0.00000000000E+00 0.  1.
          6    1    1    2  502    0 -0.83698219982E+02  0.70549132353E+03  0.79737295385E+03  0.10817167037E+04  0.17200000000E+03 0. -1.
         -6    1    1    2    0  501  0.83698219982E+02 -0.70549132353E+03  0.98328383971E+02  0.73754719896E+03  0.17200000000E+03 0.  1.
</event>
<event>
 4    1  0.6365705E-002  0.1877000E+03  0.7818608E-02  0.1160552E+00
         -1   -1    0    0    0  501 -0.00000000000E+00  0.00000000000E+00  0.20181022435E+02  0.20181022435E+02  0.00000000000E+00 0.  1.
          1   -1    0    0  502    0  0.00000000000E+00 -0.00000000000E+00 -0.19421074407E+04  0.19421074407E+04  0.00000000000E+00 0. -1.
          6    1    1    2  502    0 -0.44933658839E+02  0.60235045977E+02 -0.64899893260E+03  0.67559670586E+03  0.17200000000E+03 0.  1.
         -6    1    1    2    0  501  0.44933658839E+02 -0.60235045977E+02 -0.12729274856E+04  0.12866917572E+04  0.17200000000E+03 0. -1.
</event>
<event>
 4    1  0.6365705E-002  0.2465198E+03  0.7818608E-02  0.1115524E+00
         -2   -1    0    0    0  501 -0.00000000000E+00  0.00000000000E+00  0.35218094751E+02  0.35218094751E+02  0.00000000000E+00 0.  1.
          2   -1    0    0  502    0  0.00000000000E+00 -0.00000000000E+00 -0.20718332110E+04  0.20718332110E+04  0.00000000000E+00 0. -1.
          6    1    1    2  502    0 -0.49612062425E+02  0.16948940372E+03 -0.14489907776E+04  0.14698116506E+04  0.17200000000E+03 0. -1.
         -6    1    1    2    0  501  0.49612062425E+02 -0.16948940372E+03 -0.58762433872E+03  0.63723965521E+03  0.17200000000E+03 0.  1.
</event>
<event>
 4    1  0.6365705E-002  0.2067982E+03  0.7818608E-02  0.1144127E+00
          2   -1    0    0  502    0  0.00000000000E+00  0.00000000000E+00  0.15112444891E+04  0.15112444891E+04  0.00000000000E+00 0. -1.
         -2   -1    0    0    0  501 -0.00000000000E+00 -0.00000000000E+00 -0.58447769122E+02  0.58447769122E+02  0.00000000000E+00 0.  1.
          6    1    1    2  502    0 -0.60978232175E+00  0.11480900207E+03  0.12900894904E+04  0.13065589814E+04  0.17200000000E+03 0. -1.
         -6    1    1    2    0  501  0.60978232175E+00 -0.11480900207E+03  0.16270722962E+03  0.26313327680E+03  0.17200000000E+03 0.  1.
</event>
<event>
 4    1  0.6365705E-002  0.1986599E+03  0.7818608E-02  0.1150875E+00
         -1   -1    0    0    0  501 -0.00000000000E+00  0.00000000000E+00  0.23410685444E+03  0.23410685444E+03  0.00000000000E+00 0.  1.
          1   -1    0    0  502    0  0.00000000000E+00 -0.00000000000E+00 -0.95703550851E+03  0.95703550851E+03  0.00000000000E+00 0. -1.
          6    1    1    2  502    0 -0.38818524902E+02 -0.91514285315E+02  0.17911350808E+03  0.26748344074E+03  0.17200000000E+03 0.  1.
         -6    1    1    2    0  501  0.38818524902E+02  0.91514285315E+02 -0.90204216215E+03  0.92365892221E+03  0.17200000000E+03 0. -1.
</event>
<event>
 4    1  0.6365705E-002  0.1855525E+03  0.7818608E-02  0.1162535E+00
          2   -1    0    0  502    0  0.00000000000E+00  0.00000000000E+00  0.11515757301E+04  0.11515757301E+04  0.00000000000E+00 0. -1.
         -2   -1    0    0    0  501 -0.00000000000E+00 -0.00000000000E+00 -0.36887563616E+02  0.36887563616E+02  0.00000000000E+00 0.  1.
          6    1    1    2  502    0  0.44983929613E+02 -0.53124077809E+02  0.81601240177E+03  0.83684285347E+03  0.17200000000E+03 0. -1.
         -6    1    1    2    0  501 -0.44983929613E+02  0.53124077809E+02  0.29867576468E+03  0.35162044021E+03  0.17200000000E+03 0.  1.
</event>
<event>
 4    1  0.6365705E-002  0.2843433E+03  0.7818608E-02  0.1093340E+00
         -1   -1    0    0    0  501 -0.00000000000E+00  0.00000000000E+00  0.18457620053E+03  0.18457620053E+03  0.00000000000E+00 0.  1.
          1   -1    0    0  502    0  0.00000000000E+00 -0.00000000000E+00 -0.75587383504E+03  0.75587383504E+03  0.00000000000E+00 0. -1.
          6    1    1    2  502    0  0.18736591249E+03 -0.12712638068E+03 -0.59056717468E+03  0.65545456718E+03  0.17200000000E+03 0. -1.
         -6    1    1    2    0  501 -0.18736591249E+03  0.12712638068E+03  0.19269540159E+02  0.28499546839E+03  0.17200000000E+03 0.  1.
</event>
<event>
 4    1  0.6365705E-002  0.3873018E+03  0.7818608E-02  0.1048268E+00
          2   -1    0    0  502    0  0.00000000000E+00  0.00000000000E+00  0.17314813976E+04  0.17314813976E+04  0.00000000000E+00 0. -1.
         -2   -1    0    0    0  501 -0.00000000000E+00 -0.00000000000E+00 -0.12753225738E+03  0.12753225738E+03  0.00000000000E+00 0.  1.
          6    1    1    2  502    0 -0.22477478907E+03  0.26437660328E+03  0.13283583785E+04  0.13836685571E+04  0.17200000000E+03 0. -1.
         -6    1    1    2    0  501  0.22477478907E+03 -0.26437660328E+03  0.27559076178E+03  0.47534509795E+03  0.17200000000E+03 0.  1.
</event>
<event>
 4    1  0.6365705E-002  0.2206930E+03  0.7818608E-02  0.1133367E+00
          2   -1    0    0  502    0  0.00000000000E+00  0.00000000000E+00  0.33002350170E+04  0.33002350170E+04  0.00000000000E+00 0. -1.
         -2   -1    0    0    0  501 -0.00000000000E+00 -0.00000000000E+00 -0.15208897225E+02  0.15208897225E+02  0.00000000000E+00 0.  1.
          6    1    1    2  502    0  0.13027066144E+03  0.46378526722E+02  0.19278921336E+04  0.19404827986E+04  0.17200000000E+03 0.  1.
         -6    1    1    2    0  501 -0.13027066144E+03 -0.46378526722E+02  0.13571339861E+04  0.13749611155E+04  0.17200000000E+03 0. -1.
</event>
<event>
 4    1  0.6365705E-002  0.2530690E+03  0.7818608E-02  0.1111380E+00
          1   -1    0    0  502    0  0.00000000000E+00  0.00000000000E+00  0.27871657932E+03  0.27871657932E+03  0.00000000000E+00 0. -1.
         -1   -1    0    0    0  501 -0.00000000000E+00 -0.00000000000E+00 -0.22978492978E+03  0.22978492978E+03  0.00000000000E+00 0.  1.
          6    1    1    2  502    0 -0.30824245802E+02  0.18305682538E+03  0.25436849306E+02  0.25434419347E+03  0.17200000000E+03 0. -1.
         -6    1    1    2    0  501  0.30824245802E+02 -0.18305682538E+03  0.23494800231E+02  0.25415731563E+03  0.17200000000E+03 0.  1.
</event>
<event>
 4    1  0.6365705E-002  0.2618585E+03  0.7818608E-02  0.1106032E+00
          1   -1    0    0  502    0  0.00000000000E+00  0.00000000000E+00  0.23968909162E+03  0.23968909162E+03  0.00000000000E+00 0. -1.
         -1   -1    0    0    0  501 -0.00000000000E+00 -0.00000000000E+00 -0.28608220753E+03  0.28608220753E+03  0.00000000000E+00 0.  1.
          6    1    1    2  502    0 -0.12583584464E+03 -0.15215525984E+03 -0.24149779879E+02  0.26296976016E+03  0.17200000000E+03 0. -1.
         -6    1    1    2    0  501  0.12583584464E+03  0.15215525984E+03 -0.22243336033E+02  0.26280153898E+03  0.17200000000E+03 0.  1.
</event>
<event>
 4    1  0.6365705E-002  0.1846129E+03  0.7818608E-02  0.1163412E+00
          2   -1    0    0  502    0  0.00000000000E+00  0.00000000000E+00  0.10311147544E+04  0.10311147544E+04  0.00000000000E+00 0. -1.
         -2   -1    0    0    0  501 -0.00000000000E+00 -0.00000000000E+00 -0.37755641427E+02  0.37755641427E+02  0.00000000000E+00 0.  1.
          6    1    1    2  502    0  0.49804880968E+02 -0.44915419634E+02  0.68528461376E+03  0.70971608615E+03  0.17200000000E+03 0. -1.
         -6    1    1    2    0  501 -0.49804880968E+02  0.44915419634E+02  0.30807449919E+03  0.35915430965E+03  0.17200000000E+03 0.  1.
</event>
<event>
 4    1  0.6365705E-002  0.3058605E+03  0.7818608E-02  0.1082347E+00
         -1   -1    0    0    0  501 -0.00000000000E+00  0.00000000000E+00  0.13805112832E+03  0.13805112832E+03  0.00000000000E+00 0.  1.
          1   -1    0    0  502    0  0.00000000000E+00 -0.00000000000E+00 -0.68770439878E+03  0.68770439878E+03  0.00000000000E+00 0. -1.
          6    1    1    2  502    0 -0.13145144312E+03  0.21607210269E+03 -0.32474421605E+03  0.44610474254E+03  0.17200000000E+03 0. -1.
         -6    1    1    2    0  501  0.13145144312E+03 -0.21607210269E+03 -0.22490905440E+03  0.37965078456E+03  0.17200000000E+03 0.  1.
</event>
<event>
 4    1  0.6365705E-002  0.3845064E+03  0.7818608E-02  0.1049281E+00
          1   -1    0    0  502    0  0.00000000000E+00  0.00000000000E+00  0.80298535996E+03  0.80298535996E+03  0.00000000000E+00 0. -1.
         -1   -1    0    0    0  501 -0.00000000000E+00 -0.00000000000E+00 -0.46128161298E+03  0.46128161298E+03  0.00000000000E+00 0.  1.
          6    1    1    2  502    0  0.91815141453E+02 -0.33140783151E+03  0.66084811280E+03  0.76456876680E+03  0.17200000000E+03 0. -1.
         -6    1    1    2    0  501 -0.91815141453E+02  0.33140783151E+03 -0.31914436581E+03  0.49969820614E+03  0.17200000000E+03 0.  1.
</event>
<event>
 4    1  0.6365705E-002  0.2358738E+03  0.7818608E-02  0.1122572E+00
          1   -1    0    0  502    0  0.00000000000E+00  0.00000000000E+00  0.59354295574E+03  0.59354295574E+03  0.00000000000E+00 0. -1.
         -1   -1    0    0    0  501 -0.00000000000E+00 -0.00000000000E+00 -0.12389620440E+03  0.12389620440E+03  0.00000000000E+00 0.  1.
          6    1    1    2  502    0 -0.13374608297E+03 -0.90357313278E+02  0.41181055644E+03  0.47457812124E+03  0.17200000000E+03 0. -1.
         -6    1    1    2    0  501  0.13374608297E+03  0.90357313278E+02  0.57836194896E+02  0.24286103889E+03  0.17200000000E+03 0.  1.
</event>
<event>
 4    1  0.6365705E-002  0.3939716E+03  0.7818608E-02  0.1045887E+00
         -2   -1    0    0    0  501 -0.00000000000E+00  0.00000000000E+00  0.66746641106E+02  0.66746641106E+02  0.00000000000E+00 0.  1.
          2   -1    0    0  502    0  0.00000000000E+00 -0.00000000000E+00 -0.28004285241E+04  0.28004285241E+04  0.00000000000E+00 0. -1.
          6    1    1    2  502    0  0.37756073113E+01 -0.35442261073E+03 -0.19572662421E+04  0.19965231741E+04  0.17200000000E+03 0. -1.
         -6    1    1    2    0  501 -0.37756073113E+01  0.35442261073E+03 -0.77641564088E+03  0.87065199110E+03  0.17200000000E+03 0.  1.
</event>
<event>
 4    1  0.6365705E-002  0.2293398E+03  0.7818608E-02  0.1127105E+00
          2   -1    0    0  502    0  0.00000000000E+00  0.00000000000E+00  0.10675338816E+04  0.10675338816E+04  0.00000000000E+00 0. -1.
         -2   -1    0    0    0  501 -0.00000000000E+00 -0.00000000000E+00 -0.13867049708E+03  0.13867049708E+03  0.00000000000E+00 0.  1.
          6    1    1    2  502    0  0.15168237242E+03  0.22829439971E+01  0.94868243188E+03  0.97600979016E+03  0.17200000000E+03 0. -1.
         -6    1    1    2    0  501 -0.15168237242E+03 -0.22829439971E+01 -0.19819047375E+02  0.23019458850E+03  0.17200000000E+03 0.  1.
</event>
<event>
 4    1  0.6365705E-002  0.2258116E+03  0.7818608E-02  0.1129623E+00
          3   -1    0    0  502    0  0.00000000000E+00  0.00000000000E+00  0.60728639741E+03  0.60728639741E+03  0.00000000000E+00 0. -1.
         -3   -1    0    0    0  501 -0.00000000000E+00 -0.00000000000E+00 -0.96182814658E+02  0.96182814658E+02  0.00000000000E+00 0.  1.
          6    1    1    2  502    0 -0.14512417489E+03 -0.18597485395E+02  0.38091222438E+03  0.44281487699E+03  0.17200000000E+03 0. -1.
         -6    1    1    2    0  501  0.14512417489E+03  0.18597485395E+02  0.13019135837E+03  0.26065433508E+03  0.17200000000E+03 0. -1.
</event>
<event>
 4    1  0.6365705E-002  0.2965684E+03  0.7818608E-02  0.1086969E+00
          2   -1    0    0  502    0  0.00000000000E+00  0.00000000000E+00  0.64733591738E+03  0.64733591738E+03  0.00000000000E+00 0. -1.
         -2   -1    0    0    0  501 -0.00000000000E+00 -0.00000000000E+00 -0.16899193656E+03  0.16899193656E+03  0.00000000000E+00 0.  1.
          6    1    1    2  502    0  0.16607485526E+03  0.17546494843E+03  0.41987560321E+03  0.51405090005E+03  0.17200000000E+03 0. -1.
         -6    1    1    2    0  501 -0.16607485526E+03 -0.17546494843E+03  0.58468377611E+02  0.30227695390E+03  0.17200000000E+03 0.  1.
</event>
<event>
 4    1  0.6365705E-002  0.7198541E+03  0.7818608E-02  0.9683869E-01
          1   -1    0    0  502    0  0.00000000000E+00  0.00000000000E+00  0.21171939583E+04  0.21171939583E+04  0.00000000000E+00 0. -1.
         -1   -1    0    0    0  501 -0.00000000000E+00 -0.00000000000E+00 -0.25795462315E+03  0.25795462315E+03  0.00000000000E+00 0.  1.
          6    1    1    2  502    0 -0.49461495262E+03 -0.49392506651E+03  0.66096148212E+03  0.97727171428E+03  0.17200000000E+03 0. -1.
         -6    1    1    2    0  501  0.49461495262E+03  0.49392506651E+03  0.11982778530E+04  0.13978768671E+04  0.17200000000E+03 0.  1.
</event>
<event>
 4    1  0.6365705E-002  0.2640596E+03  0.7818608E-02  0.1104728E+00
          2   -1    0    0  502    0  0.00000000000E+00  0.00000000000E+00  0.44333089747E+03  0.44333089747E+03  0.00000000000E+00 0. -1.
         -2   -1    0    0    0  501 -0.00000000000E+00 -0.00000000000E+00 -0.30309046306E+03  0.30309046306E+03  0.00000000000E+00 0.  1.
          6    1    1    2  502    0 -0.10357842237E+03  0.17150791975E+03 -0.18873744284E+03  0.32457553581E+03  0.17200000000E+03 0. -1.
         -6    1    1    2    0  501  0.10357842237E+03 -0.17150791975E+03  0.32897787725E+03  0.42184582472E+03  0.17200000000E+03 0.  1.
</event>
<event>
 4    1  0.6365705E-002  0.1816992E+03  0.7818608E-02  0.1166169E+00
         -2   -1    0    0    0  501 -0.00000000000E+00  0.00000000000E+00  0.96879688672E+02  0.96879688672E+02  0.00000000000E+00 0.  1.
          2   -1    0    0  502    0  0.00000000000E+00 -0.00000000000E+00 -0.39997522217E+03  0.39997522217E+03  0.00000000000E+00 0. -1.
          6    1    1    2  502    0  0.13922373259E+02 -0.56892448884E+02 -0.24711946280E+03  0.30672889024E+03  0.17200000000E+03 0. -1.
         -6    1    1    2    0  501 -0.13922373259E+02  0.56892448884E+02 -0.55976070701E+02  0.19012602060E+03  0.17200000000E+03 0.  1.
</event>
<event>
 4    1  0.6365705E-002  0.3499263E+03  0.7818608E-02  0.1062645E+00
         -1   -1    0    0    0  501 -0.00000000000E+00  0.00000000000E+00  0.62992522125E+02  0.62992522125E+02  0.00000000000E+00 0.  1.
          1   -1    0    0  502    0  0.00000000000E+00 -0.00000000000E+00 -0.19608020537E+04  0.19608020537E+04  0.00000000000E+00 0. -1.
          6    1    1    2  502    0 -0.92263843625E+02  0.29043380306E+03 -0.85483500538E+03  0.92368354820E+03  0.17200000000E+03 0.  1.
         -6    1    1    2    0  501  0.92263843625E+02 -0.29043380306E+03 -0.10429745262E+04  0.11001110276E+04  0.17200000000E+03 0. -1.
</event>
<event>
 4    1  0.6365705E-002  0.1794991E+03  0.7818608E-02  0.1168289E+00
          1   -1    0    0  502    0  0.00000000000E+00  0.00000000000E+00  0.65092079207E+03  0.65092079207E+03  0.00000000000E+00 0. -1.
         -1   -1    0    0    0  501 -0.00000000000E+00 -0.00000000000E+00 -0.63519695621E+02  0.63519695621E+02  0.00000000000E+00 0.  1.
          6    1    1    2  502    0 -0.33247089745E+02 -0.39122292732E+02  0.46152945685E+03  0.49520638355E+03  0.17200000000E+03 0. -1.
         -6    1    1    2    0  501  0.33247089745E+02  0.39122292732E+02  0.12587163960E+03  0.21923410415E+03  0.17200000000E+03 0.  1.
</event>
<event>
 4    1  0.6365705E-002  0.5502819E+03  0.7818608E-02  0.1001429E+00
          2   -1    0    0  502    0  0.00000000000E+00  0.00000000000E+00  0.22277767300E+04  0.22277767300E+04  0.00000000000E+00 0. -1.
         -2   -1    0    0    0  501 -0.00000000000E+00 -0.00000000000E+00 -0.29732333249E+03  0.29732333249E+03  0.00000000000E+00 0.  1.
          6    1    1    2  502    0  0.11151848657E+03 -0.51067581805E+03  0.18954428098E+04  0.19737055528E+04  0.17200000000E+03 0. -1.
         -6    1    1    2    0  501 -0.11151848657E+03  0.51067581805E+03  0.35010587648E+02  0.55139450962E+03  0.17200000000E+03 0.  1.
</event>
<event>
 4    1  0.6365705E-002  0.1834958E+03  0.7818608E-02  0.1164462E+00
          2   -1    0    0  502    0  0.00000000000E+00  0.00000000000E+00  0.36908347038E+04  0.36908347038E+04  0.00000000000E+00 0. -1.
         -2   -1    0    0    0  501 -0.00000000000E+00 -0.00000000000E+00 -0.92274293163E+01  0.92274293163E+01  0.00000000000E+00 0.  1.
          6    1    1    2  502    0  0.82425238349E+01  0.63393628858E+02  0.16437898892E+04  0.16539999671E+04  0.17200000000E+03 0. -1.
         -6    1    1    2    0  501 -0.82425238349E+01 -0.63393628858E+02  0.20378173853E+04  0.20460621660E+04  0.17200000000E+03 0.  1.
</event>
<event>
 4    1  0.6365705E-002  0.1795790E+03  0.7818608E-02  0.1168211E+00
         -2   -1    0    0    0  501 -0.00000000000E+00  0.00000000000E+00  0.62109020415E+02  0.62109020415E+02  0.00000000000E+00 0.  1.
          2   -1    0    0  502    0  0.00000000000E+00 -0.00000000000E+00 -0.62001618779E+03  0.62001618779E+03  0.00000000000E+00 0. -1.
          6    1    1    2  502    0 -0.28568001532E+02  0.42994142283E+02 -0.14144132576E+03  0.22859194127E+03  0.17200000000E+03 0.  1.
         -6    1    1    2    0  501  0.28568001532E+02 -0.42994142283E+02 -0.41646584162E+03  0.45353326693E+03  0.17200000000E+03 0. -1.
</event>
<event>
 4    1  0.6365705E-002  0.4166085E+03  0.7818608E-02  0.1038176E+00
         -2   -1    0    0    0  501 -0.00000000000E+00  0.00000000000E+00  0.11604706449E+04  0.11604706449E+04  0.00000000000E+00 0.  1.
          2   -1    0    0  502    0  0.00000000000E+00 -0.00000000000E+00 -0.14966841739E+03  0.14966841739E+03  0.00000000000E+00 0. -1.
          6    1    1    2  502    0 -0.10289688880E+03 -0.36522713667E+03  0.52284584761E+03  0.66852854198E+03  0.17200000000E+03 0. -1.
         -6    1    1    2    0  501  0.10289688880E+03  0.36522713667E+03  0.48795637992E+03  0.64161052033E+03  0.17200000000E+03 0.  1.
</event>
<event>
 4    1  0.6365705E-002  0.1862378E+03  0.7818608E-02  0.1161899E+00
         -2   -1    0    0    0  501 -0.00000000000E+00  0.00000000000E+00  0.34988629676E+03  0.34988629676E+03  0.00000000000E+00 0.  1.
          2   -1    0    0  502    0  0.00000000000E+00 -0.00000000000E+00 -0.50869926575E+03  0.50869926575E+03  0.00000000000E+00 0. -1.
          6    1    1    2  502    0 -0.57020414052E+02  0.43002170867E+02 -0.46460648332E+03  0.50054340337E+03  0.17200000000E+03 0. -1.
         -6    1    1    2    0  501  0.57020414052E+02 -0.43002170867E+02  0.30579351433E+03  0.35804215914E+03  0.17200000000E+03 0.  1.
</event>
<event>
 4    1  0.6365705E-002  0.1806823E+03  0.7818608E-02  0.1167144E+00
         -2   -1    0    0    0  501 -0.00000000000E+00  0.00000000000E+00  0.37263361518E+03  0.37263361518E+03  0.00000000000E+00 0.  1.
          2   -1    0    0  502    0  0.00000000000E+00 -0.00000000000E+00 -0.91529950052E+02  0.91529950052E+02  0.00000000000E+00 0. -1.
          6    1    1    2  502    0  0.55335334544E+02 -0.30211339946E+00  0.92517659462E+02  0.20299164474E+03  0.17200000000E+03 0. -1.
         -6    1    1    2    0  501 -0.55335334544E+02  0.30211339946E+00  0.18858600567E+03  0.26117192050E+03  0.17200000000E+03 0.  1.
</event>
<event>
 4    1  0.6365705E-002  0.2501906E+03  0.7818608E-02  0.1113184E+00
         -2   -1    0    0    0  501 -0.00000000000E+00  0.00000000000E+00  0.11411617710E+03  0.11411617710E+03  0.00000000000E+00 0.  1.
          2   -1    0    0  502    0  0.00000000000E+00 -0.00000000000E+00 -0.59390628576E+03  0.59390628576E+03  0.00000000000E+00 0. -1.
          6    1    1    2  502    0 -0.65613685857E+02  0.16942900693E+03 -0.33775527726E+03  0.42032602998E+03  0.17200000000E+03 0.  1.
         -6    1    1    2    0  501  0.65613685857E+02 -0.16942900693E+03 -0.14203483141E+03  0.28769643289E+03  0.17200000000E+03 0.  1.
</event>
<event>
 4    1  0.6365705E-002  0.1778736E+03  0.7818608E-02  0.1169877E+00
          1   -1    0    0  502    0  0.00000000000E+00  0.00000000000E+00  0.13784948721E+03  0.13784948721E+03  0.00000000000E+00 0. -1.
         -1   -1    0    0    0  501 -0.00000000000E+00 -0.00000000000E+00 -0.34056625800E+03  0.34056625800E+03  0.00000000000E+00 0.  1.
          6    1    1    2  502    0  0.42023678282E+02  0.17000332322E+02  0.35234994769E+02  0.18132982571E+03  0.17200000000E+03 0. -1.
         -6    1    1    2    0  501 -0.42023678282E+02 -0.17000332322E+02 -0.23795176555E+03  0.29708591950E+03  0.17200000000E+03 0.  1.
</event>
<event>
 4    1  0.6365705E-002  0.3160024E+03  0.7818608E-02  0.1077504E+00
          2   -1    0    0  502    0  0.00000000000E+00  0.00000000000E+00  0.19548996197E+04  0.19548996197E+04  0.00000000000E+00 0. -1.
         -2   -1    0    0    0  501 -0.00000000000E+00 -0.00000000000E+00 -0.10822020611E+03  0.10822020611E+03  0.00000000000E+00 0.  1.
          6    1    1    2  502    0  0.70887405260E+02 -0.25543788654E+03  0.17377570770E+03  0.36063213208E+03  0.17200000000E+03 0.  1.
         -6    1    1    2    0  501 -0.70887405260E+02  0.25543788654E+03  0.16729037059E+04  0.17024876938E+04  0.17200000000E+03 0. -1.
</event>
<event>
 4    1  0.6365705E-002  0.2303798E+03  0.7818608E-02  0.1126373E+00
         -3   -1    0    0    0  501 -0.00000000000E+00  0.00000000000E+00  0.43149250698E+02  0.43149250698E+02  0.00000000000E+00 0.  1.
          3   -1    0    0  502    0  0.00000000000E+00 -0.00000000000E+00 -0.13939541945E+04  0.13939541945E+04  0.00000000000E+00 0. -1.
          6    1    1    2  502    0 -0.48760719943E+02 -0.14530394386E+03 -0.92181126439E+03  0.95016359174E+03  0.17200000000E+03 0. -1.
         -6    1    1    2    0  501  0.48760719943E+02  0.14530394386E+03 -0.42899367942E+03  0.48693985346E+03  0.17200000000E+03 0.  1.
</event>
<event>
 4    1  0.6365705E-002  0.1905137E+03  0.7818608E-02  0.1157999E+00
         -2   -1    0    0    0  501 -0.00000000000E+00  0.00000000000E+00  0.87278708406E+02  0.87278708406E+02  0.00000000000E+00 0.  1.
          2   -1    0    0  502    0  0.00000000000E+00 -0.00000000000E+00 -0.41612495297E+03  0.41612495297E+03  0.00000000000E+00 0. -1.
          6    1    1    2  502    0  0.70232386664E+02  0.42176914871E+02 -0.15803854024E+03  0.24753113034E+03  0.17200000000E+03 0. -1.
         -6    1    1    2    0  501 -0.70232386664E+02 -0.42176914871E+02 -0.17080770432E+03  0.25587253104E+03  0.17200000000E+03 0.  1.
</event>
<event>
 4    1  0.6365705E-002  0.1927006E+03  0.7818608E-02  0.1156048E+00
          1   -1    0    0  502    0  0.00000000000E+00  0.00000000000E+00  0.12889562916E+04  0.12889562916E+04  0.00000000000E+00 0. -1.
         -1   -1    0    0    0  501 -0.00000000000E+00 -0.00000000000E+00 -0.10224940699E+03  0.10224940699E+03  0.00000000000E+00 0.  1.
          6    1    1    2  502    0  0.18527177262E+02  0.84889788159E+02  0.11828733999E+04  0.11984669427E+04  0.17200000000E+03 0. -1.
         -6    1    1    2    0  501 -0.18527177262E+02 -0.84889788159E+02  0.38334846916E+01  0.19273875593E+03  0.17200000000E+03 0.  1.
</event>
<event>
 4    1  0.6365705E-002  0.2658305E+03  0.7818608E-02  0.1103690E+00
          2   -1    0    0  502    0  0.00000000000E+00  0.00000000000E+00  0.36560439719E+03  0.36560439719E+03  0.00000000000E+00 0. -1.
         -2   -1    0    0    0  501 -0.00000000000E+00 -0.00000000000E+00 -0.30269283579E+03  0.30269283579E+03  0.00000000000E+00 0.  1.
          6    1    1    2  502    0  0.60898537745E+02  0.19332159845E+03  0.23234779182E+03  0.35306000721E+03  0.17200000000E+03 0. -1.
         -6    1    1    2    0  501 -0.60898537745E+02 -0.19332159845E+03 -0.16943623042E+03  0.31523722576E+03  0.17200000000E+03 0.  1.
</event>
<event>
 4    1  0.6365705E-002  0.2646742E+03  0.7818608E-02  0.1104367E+00
         -2   -1    0    0    0  501 -0.00000000000E+00  0.00000000000E+00  0.54620096270E+02  0.54620096270E+02  0.00000000000E+00 0.  1.
          2   -1    0    0  502    0  0.00000000000E+00 -0.00000000000E+00 -0.12927909070E+04  0.12927909070E+04  0.00000000000E+00 0. -1.
          6    1    1    2  502    0  0.17643607184E+03 -0.96637249371E+02 -0.67907723134E+03  0.72883354173E+03  0.17200000000E+03 0. -1.
         -6    1    1    2    0  501 -0.17643607184E+03  0.96637249371E+02 -0.55909357934E+03  0.61857746150E+03  0.17200000000E+03 0.  1.
</event>
<event>
 4    1  0.6365705E-002  0.1969942E+03  0.7818608E-02  0.1152300E+00
         -1   -1    0    0    0  501 -0.00000000000E+00  0.00000000000E+00  0.27116463633E+03  0.27116463633E+03  0.00000000000E+00 0.  1.
          1   -1    0    0  502    0  0.00000000000E+00 -0.00000000000E+00 -0.15675361759E+03  0.15675361759E+03  0.00000000000E+00 0. -1.
          6    1    1    2  502    0 -0.93369040056E+02  0.22471124628E+02 -0.59143159231E+01  0.19708299829E+03  0.17200000000E+03 0. -1.
         -6    1    1    2    0  501  0.93369040056E+02 -0.22471124628E+02  0.12032533466E+03  0.23083525564E+03  0.17200000000E+03 0.  1.
</event>
<event>
 4    1  0.6365705E-002  0.1769301E+03  0.7818608E-02  0.1170808E+00
          1   -1    0    0  502    0  0.00000000000E+00  0.00000000000E+00  0.20805337401E+03  0.20805337401E+03  0.00000000000E+00 0. -1.
         -1   -1    0    0    0  501 -0.00000000000E+00 -0.00000000000E+00 -0.20065459135E+03  0.20065459135E+03  0.00000000000E+00 0.  1.
          6    1    1    2  502    0  0.77346008566E+01 -0.40748525768E+02 -0.98506389533E+02  0.20250376585E+03  0.17200000000E+03 0.  1.
         -6    1    1    2    0  501 -0.77346008566E+01  0.40748525768E+02  0.10590517219E+03  0.20620419952E+03  0.17200000000E+03 0. -1.
</event>
<event>
 4    1  0.6365705E-002  0.1851912E+03  0.7818608E-02  0.1162871E+00
         -2   -1    0    0    0  501 -0.00000000000E+00  0.00000000000E+00  0.59134789438E+02  0.59134789438E+02  0.00000000000E+00 0.  1.
          2   -1    0    0  502    0  0.00000000000E+00 -0.00000000000E+00 -0.58608462067E+03  0.58608462067E+03  0.00000000000E+00 0. -1.
          6    1    1    2  502    0 -0.45605883746E+02  0.51301823845E+02 -0.29645563143E+03  0.34954501165E+03  0.17200000000E+03 0. -1.
         -6    1    1    2    0  501  0.45605883746E+02 -0.51301823845E+02 -0.23049419980E+03  0.29567439846E+03  0.17200000000E+03 0. -1.
</event>
<event>
 4    1  0.6365705E-002  0.3343265E+03  0.7818608E-02  0.1069238E+00
          2   -1    0    0  502    0  0.00000000000E+00  0.00000000000E+00  0.11157639434E+04  0.11157639434E+04  0.00000000000E+00 0. -1.
         -2   -1    0    0    0  501 -0.00000000000E+00 -0.00000000000E+00 -0.44790929765E+03  0.44790929765E+03  0.00000000000E+00 0.  1.
          6    1    1    2  502    0 -0.23508327483E+03 -0.16409168867E+03  0.10228068726E+04  0.10760613956E+04  0.17200000000E+03 0. -1.
         -6    1    1    2    0  501  0.23508327483E+03  0.16409168867E+03 -0.35495222692E+03  0.48761184542E+03  0.17200000000E+03 0.  1.
</event>
<event>
 4    1  0.6365705E-002  0.2133142E+03  0.7818608E-02  0.1138968E+00
          2   -1    0    0  502    0  0.00000000000E+00  0.00000000000E+00  0.21656309738E+04  0.21656309738E+04  0.00000000000E+00 0. -1.
         -2   -1    0    0    0  501 -0.00000000000E+00 -0.00000000000E+00 -0.21016540026E+02  0.21016540026E+02  0.00000000000E+00 0.  1.
          6    1    1    2  502    0  0.10761782571E+03  0.65858486586E+02  0.10552074804E+04  0.10765527221E+04  0.17200000000E+03 0. -1.
         -6    1    1    2    0  501 -0.10761782571E+03 -0.65858486586E+02  0.10894069534E+04  0.11100947918E+04  0.17200000000E+03 0. -1.
</event>
<event>
 4    1  0.6365705E-002  0.1766476E+03  0.7818608E-02  0.1171087E+00
          4   -1    0    0  502    0  0.00000000000E+00  0.00000000000E+00  0.39310264633E+03  0.39310264633E+03  0.00000000000E+00 0. -1.
         -4   -1    0    0    0  501 -0.00000000000E+00 -0.00000000000E+00 -0.16351560012E+03  0.16351560012E+03  0.00000000000E+00 0.  1.
          6    1    1    2  502    0 -0.31818341228E+02 -0.24657229908E+02  0.31442931944E+03  0.36065244038E+03  0.17200000000E+03 0. -1.
         -6    1    1    2    0  501  0.31818341228E+02  0.24657229908E+02 -0.84842273227E+02  0.19596580608E+03  0.17200000000E+03 0.  1.
</event>
<event>
 4    1  0.6365705E-002  0.1989956E+03  0.7818608E-02  0.1150589E+00
         -2   -1    0    0    0  501 -0.00000000000E+00  0.00000000000E+00  0.49694403957E+02  0.49694403957E+02  0.00000000000E+00 0.  1.
          2   -1    0    0  502    0  0.00000000000E+00 -0.00000000000E+00 -0.95710547203E+03  0.95710547203E+03  0.00000000000E+00 0. -1.
          6    1    1    2  502    0  0.67718351131E+02 -0.73684992033E+02 -0.65968901940E+03  0.68904924022E+03  0.17200000000E+03 0. -1.
         -6    1    1    2    0  501 -0.67718351131E+02  0.73684992033E+02 -0.24772204867E+03  0.31775063576E+03  0.17200000000E+03 0.  1.
</event>
<event>
 4    1  0.6365705E-002  0.2287710E+03  0.7818608E-02  0.1127508E+00
          2   -1    0    0  502    0  0.00000000000E+00  0.00000000000E+00  0.87556339318E+03  0.87556339318E+03  0.00000000000E+00 0. -1.
         -2   -1    0    0    0  501 -0.00000000000E+00 -0.00000000000E+00 -0.59830821975E+02  0.59830821975E+02  0.00000000000E+00 0.  1.
          6    1    1    2  502    0  0.14536232318E+03  0.40273444076E+02  0.39348630174E+03  0.45515670374E+03  0.17200000000E+03 0. -1.
         -6    1    1    2    0  501 -0.14536232318E+03 -0.40273444076E+02  0.42224626947E+03  0.48023751142E+03  0.17200000000E+03 0.  1.
</event>
<event>
 4    1  0.6365705E-002  0.1880179E+03  0.7818608E-02  0.1160261E+00
         -1   -1    0    0    0  501 -0.00000000000E+00  0.00000000000E+00  0.10472352471E+03  0.10472352471E+03  0.00000000000E+00 0.  1.
          1   -1    0    0  502    0  0.00000000000E+00 -0.00000000000E+00 -0.13976000413E+04  0.13976000413E+04  0.00000000000E+00 0. -1.
          6    1    1    2  502    0  0.43259289205E+02 -0.62412905269E+02 -0.13006263748E+04  0.13141459979E+04  0.17200000000E+03 0. -1.
         -6    1    1    2    0  501 -0.43259289205E+02  0.62412905269E+02  0.77498582399E+01  0.18817756814E+03  0.17200000000E+03 0.  1.
</event>
<event>
 4    1  0.6365705E-002  0.2019606E+03  0.7818608E-02  0.1148095E+00
         -1   -1    0    0    0  501 -0.00000000000E+00  0.00000000000E+00  0.85967074006E+03  0.85967074006E+03  0.00000000000E+00 0.  1.
          1   -1    0    0  502    0  0.00000000000E+00 -0.00000000000E+00 -0.66656661289E+02  0.66656661289E+02  0.00000000000E+00 0. -1.
          6    1    1    2  502    0  0.10329270138E+03  0.23123365018E+02  0.14786066599E+03  0.25030151561E+03  0.17200000000E+03 0. -1.
         -6    1    1    2    0  501 -0.10329270138E+03 -0.23123365018E+02  0.64515341278E+03  0.67602588574E+03  0.17200000000E+03 0.  1.
</event>
<event>
 4    1  0.6365705E-002  0.1948237E+03  0.7818608E-02  0.1154181E+00
          2   -1    0    0  502    0  0.00000000000E+00  0.00000000000E+00  0.86776920807E+03  0.86776920807E+03  0.00000000000E+00 0. -1.
         -2   -1    0    0    0  501 -0.00000000000E+00 -0.00000000000E+00 -0.53311253813E+02  0.53311253813E+02  0.00000000000E+00 0.  1.
          6    1    1    2  502    0 -0.50937680119E+02  0.76010669518E+02  0.60236677195E+03  0.63308924891E+03  0.17200000000E+03 0.  1.
         -6    1    1    2    0  501  0.50937680119E+02 -0.76010669518E+02  0.21209118230E+03  0.28799121297E+03  0.17200000000E+03 0.  1.
</event>
<event>
 4    1  0.6365705E-002  0.1939798E+03  0.7818608E-02  0.1154920E+00
         -2   -1    0    0    0  501 -0.00000000000E+00  0.00000000000E+00  0.31068121830E+02  0.31068121830E+02  0.00000000000E+00 0.  1.
          2   -1    0    0  502    0  0.00000000000E+00 -0.00000000000E+00 -0.20409829612E+04  0.20409829612E+04  0.00000000000E+00 0. -1.
          6    1    1    2  502    0 -0.59173118104E+02 -0.67399620032E+02 -0.16655687549E+04  0.16768265992E+04  0.17200000000E+03 0. -1.
         -6    1    1    2    0  501  0.59173118104E+02  0.67399620032E+02 -0.34434608452E+03  0.39522448382E+03  0.17200000000E+03 0.  1.
</event>
<event>
 4    1  0.6365705E-002  0.2037195E+03  0.7818608E-02  0.1146638E+00
         -2   -1    0    0    0  501 -0.00000000000E+00  0.00000000000E+00  0.30541276990E+03  0.30541276990E+03  0.00000000000E+00 0.  1.
          2   -1    0    0  502    0  0.00000000000E+00 -0.00000000000E+00 -0.31645184287E+03  0.31645184287E+03  0.00000000000E+00 0. -1.
          6    1    1    2  502    0  0.10614540835E+03 -0.25510526925E+02 -0.24039010171E+03  0.31510162757E+03  0.17200000000E+03 0. -1.
         -6    1    1    2    0  501 -0.10614540835E+03  0.25510526925E+02  0.22935102875E+03  0.30676298519E+03  0.17200000000E+03 0.  1.
</event>
<event>
 4    1  0.6365705E-002  0.2142829E+03  0.7818608E-02  0.1138219E+00
         -1   -1    0    0    0  501 -0.00000000000E+00  0.00000000000E+00  0.39526278511E+03  0.39526278511E+03  0.00000000000E+00 0.  1.
          1   -1    0    0  502    0  0.00000000000E+00 -0.00000000000E+00 -0.13989372072E+03  0.13989372072E+03  0.00000000000E+00 0. -1.
          6    1    1    2  502    0  0.72876821987E+02 -0.10498630128E+03  0.23787783947E+03  0.32016093009E+03  0.17200000000E+03 0.  1.
         -6    1    1    2    0  501 -0.72876821987E+02  0.10498630128E+03  0.17491224921E+02  0.21499557574E+03  0.17200000000E+03 0. -1.
</event>
<event>
 4    1  0.6365705E-002  0.3958403E+03  0.7818608E-02  0.1045230E+00
         -1   -1    0    0    0  501 -0.00000000000E+00  0.00000000000E+00  0.15327610946E+03  0.15327610946E+03  0.00000000000E+00 0.  1.
          1   -1    0    0  502    0  0.00000000000E+00 -0.00000000000E+00 -0.10942814578E+04  0.10942814578E+04  0.00000000000E+00 0. -1.
          6    1    1    2  502    0 -0.34310699509E+03  0.96866376934E+02 -0.63052041208E+03  0.74447665854E+03  0.17200000000E+03 0. -1.
         -6    1    1    2    0  501  0.34310699509E+03 -0.96866376934E+02 -0.31048493623E+03  0.50308090868E+03  0.17200000000E+03 0. -1.
</event>
<event>
 4    1  0.6365705E-002  0.2073331E+03  0.7818608E-02  0.1143695E+00
          2   -1    0    0  502    0  0.00000000000E+00  0.00000000000E+00  0.11720637014E+04  0.11720637014E+04  0.00000000000E+00 0. -1.
         -2   -1    0    0    0  501 -0.00000000000E+00 -0.00000000000E+00 -0.14696833923E+03  0.14696833923E+03  0.00000000000E+00 0.  1.
          6    1    1    2  502    0 -0.11574381404E+03 -0.25268876605E+01  0.10838755984E+04  0.11035276745E+04  0.17200000000E+03 0. -1.
         -6    1    1    2    0  501  0.11574381404E+03  0.25268876605E+01 -0.58780236198E+02  0.21550436612E+03  0.17200000000E+03 0.  1.
</event>
<event>
 4    1  0.6365705E-002  0.1743552E+03  0.7818608E-02  0.1173381E+00
         -2   -1    0    0    0  501 -0.00000000000E+00  0.00000000000E+00  0.74334451547E+02  0.74334451547E+02  0.00000000000E+00 0.  1.
          2   -1    0    0  502    0  0.00000000000E+00 -0.00000000000E+00 -0.42019962051E+03  0.42019962051E+03  0.00000000000E+00 0. -1.
          6    1    1    2  502    0  0.18488286974E+02  0.21769745929E+02 -0.21337477546E+03  0.27555132624E+03  0.17200000000E+03 0. -1.
         -6    1    1    2    0  501 -0.18488286974E+02 -0.21769745929E+02 -0.13249039351E+03  0.21898274581E+03  0.17200000000E+03 0.  1.
</event>
<event>
 4    1  0.6365705E-002  0.2768001E+03  0.7818608E-02  0.1097450E+00
         -1   -1    0    0    0  501 -0.00000000000E+00  0.00000000000E+00  0.52440400427E+03  0.52440400427E+03  0.00000000000E+00 0.  1.
          1   -1    0    0  502    0  0.00000000000E+00 -0.00000000000E+00 -0.14893438342E+03  0.14893438342E+03  0.00000000000E+00 0. -1.
          6    1    1    2  502    0  0.19888550783E+03 -0.86480428567E+02  0.14133530573E+03  0.31079571811E+03  0.17200000000E+03 0. -1.
         -6    1    1    2    0  501 -0.19888550783E+03  0.86480428567E+02  0.23413431512E+03  0.36254266958E+03  0.17200000000E+03 0.  1.
</event>
<event>
 4    1  0.6365705E-002  0.2398415E+03  0.7818608E-02  0.1119898E+00
         -2   -1    0    0    0  501 -0.00000000000E+00  0.00000000000E+00  0.44002202915E+03  0.44002202915E+03  0.00000000000E+00 0.  1.
          2   -1    0    0  502    0  0.00000000000E+00 -0.00000000000E+00 -0.14489438880E+03  0.14489438880E+03  0.00000000000E+00 0. -1.
          6    1    1    2  502    0 -0.10707003869E+03 -0.12835865798E+03  0.56122626709E+02  0.24632029452E+03  0.17200000000E+03 0. -1.
         -6    1    1    2    0  501  0.10707003869E+03  0.12835865798E+03  0.23900501364E+03  0.33859612344E+03  0.17200000000E+03 0.  1.
</event>
<event>
 4    1  0.6365705E-002  0.2358296E+03  0.7818608E-02  0.1122603E+00
         -2   -1    0    0    0  501 -0.00000000000E+00  0.00000000000E+00  0.77775673787E+02  0.77775673787E+02  0.00000000000E+00 0.  1.
          2   -1    0    0  502    0  0.00000000000E+00 -0.00000000000E+00 -0.72981771658E+03  0.72981771658E+03  0.00000000000E+00 0. -1.
          6    1    1    2  502    0  0.16124794535E+03 -0.55421592987E+01 -0.26863434361E+03  0.35746332116E+03  0.17200000000E+03 0. -1.
         -6    1    1    2    0  501 -0.16124794535E+03  0.55421592987E+01 -0.38340769919E+03  0.45013006921E+03  0.17200000000E+03 0.  1.
</event>
<event>
 4    1  0.6365705E-002  0.2145686E+03  0.7818608E-02  0.1137998E+00
         -2   -1    0    0    0  501 -0.00000000000E+00  0.00000000000E+00  0.29289423544E+02  0.29289423544E+02  0.00000000000E+00 0.  1.
          2   -1    0    0  502    0  0.00000000000E+00 -0.00000000000E+00 -0.16216628572E+04  0.16216628572E+04  0.00000000000E+00 0. -1.
          6    1    1    2  502    0 -0.11957072750E+03 -0.46459737084E+02 -0.94080837120E+03  0.96496635038E+03  0.17200000000E+03 0. -1.
         -6    1    1    2    0  501  0.11957072750E+03  0.46459737084E+02 -0.65156506242E+03  0.68598593033E+03  0.17200000000E+03 0. -1.
</event>
<event>
 4    1  0.6365705E-002  0.3225938E+03  0.7818608E-02  0.1074462E+00
          2   -1    0    0  502    0  0.00000000000E+00  0.00000000000E+00  0.13832344863E+04  0.13832344863E+04  0.00000000000E+00 0. -1.
         -2   -1    0    0    0  501 -0.00000000000E+00 -0.00000000000E+00 -0.12103632137E+03  0.12103632137E+03  0.00000000000E+00 0.  1.
          6    1    1    2  502    0  0.14580182402E+03 -0.23070460874E+03  0.10937784351E+04  0.11403587389E+04  0.17200000000E+03 0. -1.
         -6    1    1    2    0  501 -0.14580182402E+03  0.23070460874E+03  0.16841972984E+03  0.36391206875E+03  0.17200000000E+03 0.  1.
</event>
<event>
 4    1  0.6365705E-002  0.2126890E+03  0.7818608E-02  0.1139454E+00
          2   -1    0    0  502    0  0.00000000000E+00  0.00000000000E+00  0.20599815058E+03  0.20599815058E+03  0.00000000000E+00 0. -1.
         -2   -1    0    0    0  501 -0.00000000000E+00 -0.00000000000E+00 -0.31936214334E+03  0.31936214334E+03  0.00000000000E+00 0.  1.
          6    1    1    2  502    0  0.39518408265E+02 -0.11870508744E+03 -0.20349842953E+03  0.29436068555E+03  0.17200000000E+03 0.  1.
         -6    1    1    2    0  501 -0.39518408265E+02  0.11870508744E+03  0.90134436769E+02  0.23099960837E+03  0.17200000000E+03 0.  1.
</event>
<event>
 4    1  0.6365705E-002  0.3581921E+03  0.7818608E-02  0.1059302E+00
         -2   -1    0    0    0  501 -0.00000000000E+00  0.00000000000E+00  0.62059942655E+02  0.62059942655E+02  0.00000000000E+00 0.  1.
          2   -1    0    0  502    0  0.00000000000E+00 -0.00000000000E+00 -0.26939572454E+04  0.26939572454E+04  0.00000000000E+00 0. -1.
          6    1    1    2  502    0 -0.31352940751E+03 -0.20418535168E+02 -0.19805224372E+04  0.20126526601E+04  0.17200000000E+03 0. -1.
         -6    1    1    2    0  501  0.31352940751E+03  0.20418535168E+02 -0.65137486552E+03  0.74336452793E+03  0.17200000000E+03 0.  1.
</event>
<event>
 4    1  0.6365705E-002  0.1927620E+03  0.7818608E-02  0.1155993E+00
         -2   -1    0    0    0  501 -0.00000000000E+00  0.00000000000E+00  0.10994323699E+03  0.10994323699E+03  0.00000000000E+00 0.  1.
          2   -1    0    0  502    0  0.00000000000E+00 -0.00000000000E+00 -0.34017359565E+03  0.34017359565E+03  0.00000000000E+00 0. -1.
          6    1    1    2  502    0  0.67919051479E+02 -0.54407762515E+02 -0.13324075617E+03  0.23432947164E+03  0.17200000000E+03 0. -1.
         -6    1    1    2    0  501 -0.67919051479E+02  0.54407762515E+02 -0.96989602492E+02  0.21578736100E+03  0.17200000000E+03 0. -1.
</event>
<event>
 4    1  0.6365705E-002  0.3762390E+03  0.7818608E-02  0.1052333E+00
          2   -1    0    0  502    0  0.00000000000E+00  0.00000000000E+00  0.21727433589E+03  0.21727433589E+03  0.00000000000E+00 0. -1.
         -2   -1    0    0    0  501 -0.00000000000E+00 -0.00000000000E+00 -0.65616110705E+03  0.65616110705E+03  0.00000000000E+00 0.  1.
          6    1    1    2  502    0 -0.16859790932E+03  0.28904421600E+03 -0.18266436054E+03  0.41823687360E+03  0.17200000000E+03 0. -1.
         -6    1    1    2    0  501  0.16859790932E+03 -0.28904421600E+03 -0.25622241062E+03  0.45519856934E+03  0.17200000000E+03 0. -1.
</event>
<event>
 4    1  0.6365705E-002  0.3007936E+03  0.7818608E-02  0.1084845E+00
         -2   -1    0    0    0  501 -0.00000000000E+00  0.00000000000E+00  0.45971017245E+03  0.45971017245E+03  0.00000000000E+00 0.  1.
          2   -1    0    0  502    0  0.00000000000E+00 -0.00000000000E+00 -0.51835091031E+03  0.51835091031E+03  0.00000000000E+00 0. -1.
          6    1    1    2  502    0 -0.16324207852E+03  0.18505352209E+03 -0.41447965382E+03  0.51212319383E+03  0.17200000000E+03 0. -1.
         -6    1    1    2    0  501  0.16324207852E+03 -0.18505352209E+03  0.35583891595E+03  0.46593788893E+03  0.17200000000E+03 0.  1.
</event>
<event>
 4    1  0.6365705E-002  0.3601634E+03  0.7818608E-02  0.1058519E+00
         -2   -1    0    0    0  501 -0.00000000000E+00  0.00000000000E+00  0.47626112369E+03  0.47626112369E+03  0.00000000000E+00 0.  1.
          2   -1    0    0  502    0  0.00000000000E+00 -0.00000000000E+00 -0.62423594638E+03  0.62423594638E+03  0.00000000000E+00 0. -1.
          6    1    1    2  502    0 -0.25177058287E+03  0.19169046312E+03 -0.48710641884E+03  0.60579726256E+03  0.17200000000E+03 0. -1.
         -6    1    1    2    0  501  0.25177058287E+03 -0.19169046312E+03  0.33913159614E+03  0.49469980751E+03  0.17200000000E+03 0.  1.
</event>
<event>
 4    1  0.6365705E-002  0.5505851E+03  0.7818608E-02  0.1001359E+00
         -1   -1    0    0    0  501 -0.00000000000E+00  0.00000000000E+00  0.95327457520E+03  0.95327457520E+03  0.00000000000E+00 0.  1.
          1   -1    0    0  502    0  0.00000000000E+00 -0.00000000000E+00 -0.62225017454E+03  0.62225017454E+03  0.00000000000E+00 0. -1.
          6    1    1    2  502    0 -0.40149036191E+03 -0.33520962256E+03 -0.38532863348E+03  0.67202839043E+03  0.17200000000E+03 0. -1.
         -6    1    1    2    0  501  0.40149036191E+03  0.33520962256E+03  0.71635303415E+03  0.90349635931E+03  0.17200000000E+03 0.  1.
</event>
<event>
 4    1  0.6365705E-002  0.1816447E+03  0.7818608E-02  0.1166221E+00
          1   -1    0    0  502    0  0.00000000000E+00  0.00000000000E+00  0.23444015643E+03  0.23444015643E+03  0.00000000000E+00 0. -1.
         -1   -1    0    0    0  501 -0.00000000000E+00 -0.00000000000E+00 -0.15629402278E+03  0.15629402278E+03  0.00000000000E+00 0.  1.
          6    1    1    2  502    0  0.49940550416E+02  0.30277432534E+02  0.10070715948E+03  0.20769379737E+03  0.17200000000E+03 0. -1.
         -6    1    1    2    0  501 -0.49940550416E+02 -0.30277432534E+02 -0.22561025840E+02  0.18304038184E+03  0.17200000000E+03 0.  1.
</event>
<event>
 4    1  0.6365705E-002  0.2349349E+03  0.7818608E-02  0.1123214E+00
          2   -1    0    0  502    0  0.00000000000E+00  0.00000000000E+00  0.28250048529E+04  0.28250048529E+04  0.00000000000E+00 0. -1.
         -2   -1    0    0    0  501 -0.00000000000E+00 -0.00000000000E+00 -0.19620143847E+02  0.19620143847E+02  0.00000000000E+00 0.  1.
          6    1    1    2  502    0 -0.12179099713E+03  0.10381398210E+03  0.14948327625E+04  0.15131818720E+04  0.17200000000E+03 0. -1.
         -6    1    1    2    0  501  0.12179099713E+03 -0.10381398210E+03  0.13105519466E+04  0.13314431248E+04  0.17200000000E+03 0.  1.
</event>
<event>
 4    1  0.6365705E-002  0.1796599E+03  0.7818608E-02  0.1168133E+00
          2   -1    0    0  502    0  0.00000000000E+00  0.00000000000E+00  0.47671678757E+03  0.47671678757E+03  0.00000000000E+00 0. -1.
         -2   -1    0    0    0  501 -0.00000000000E+00 -0.00000000000E+00 -0.10501567827E+03  0.10501567827E+03  0.00000000000E+00 0.  1.
          6    1    1    2  502    0 -0.42663922837E+02 -0.29554580477E+02  0.35921642228E+03  0.40163929287E+03  0.17200000000E+03 0. -1.
         -6    1    1    2    0  501  0.42663922837E+02  0.29554580477E+02  0.12484687019E+02  0.18009317297E+03  0.17200000000E+03 0.  1.
</event>
<event>
 4    1  0.6365705E-002  0.2867854E+03  0.7818608E-02  0.1092040E+00
         -3   -1    0    0    0  501 -0.00000000000E+00  0.00000000000E+00  0.15726623347E+03  0.15726623347E+03  0.00000000000E+00 0.  1.
          3   -1    0    0  502    0  0.00000000000E+00 -0.00000000000E+00 -0.52813312696E+03  0.52813312696E+03  0.00000000000E+00 0. -1.
          6    1    1    2  502    0 -0.22568671436E+03 -0.41561587869E+02 -0.15155617823E+03  0.32436882370E+03  0.17200000000E+03 0. -1.
         -6    1    1    2    0  501  0.22568671436E+03  0.41561587869E+02 -0.21931071526E+03  0.36103053673E+03  0.17200000000E+03 0. -1.
</event>
<event>
 4    1  0.6365705E-002  0.2310776E+03  0.7818608E-02  0.1125884E+00
         -4   -1    0    0    0  501 -0.00000000000E+00  0.00000000000E+00  0.38805073383E+03  0.38805073383E+03  0.00000000000E+00 0.  1.
          4   -1    0    0  502    0  0.00000000000E+00 -0.00000000000E+00 -0.17155999162E+03  0.17155999162E+03  0.00000000000E+00 0. -1.
          6    1    1    2  502    0 -0.40267178635E+02  0.14896776456E+03 -0.16238863320E+02  0.23164745031E+03  0.17200000000E+03 0. -1.
         -6    1    1    2    0  501  0.40267178635E+02 -0.14896776456E+03  0.23272960554E+03  0.32796327515E+03  0.17200000000E+03 0.  1.
</event>
<event>
 4    1  0.6365705E-002  0.4102063E+03  0.7818608E-02  0.1040302E+00
          1   -1    0    0  502    0  0.00000000000E+00  0.00000000000E+00  0.10344100061E+04  0.10344100061E+04  0.00000000000E+00 0. -1.
         -1   -1    0    0    0  501 -0.00000000000E+00 -0.00000000000E+00 -0.17123686269E+03  0.17123686269E+03  0.00000000000E+00 0.  1.
          6    1    1    2  502    0 -0.31993890747E+03  0.19058929364E+03  0.56640850468E+03  0.69934810898E+03  0.17200000000E+03 0. -1.
         -6    1    1    2    0  501  0.31993890747E+03 -0.19058929364E+03  0.29676463870E+03  0.50629875977E+03  0.17200000000E+03 0.  1.
</event>
<event>
 4    1  0.6365705E-002  0.1944273E+03  0.7818608E-02  0.1154528E+00
         -2   -1    0    0    0  501 -0.00000000000E+00  0.00000000000E+00  0.13327739301E+03  0.13327739301E+03  0.00000000000E+00 0.  1.
          2   -1    0    0  502    0  0.00000000000E+00 -0.00000000000E+00 -0.33341038920E+04  0.33341038920E+04  0.00000000000E+00 0. -1.
          6    1    1    2  502    0 -0.77990450100E+02  0.46211097706E+02 -0.32587221254E+04  0.32645170954E+04  0.17200000000E+03 0. -1.
         -6    1    1    2    0  501  0.77990450100E+02 -0.46211097706E+02  0.57895626397E+02  0.20286418958E+03  0.17200000000E+03 0.  1.
</event>
<event>
 4    1  0.6365705E-002  0.1776428E+03  0.7818608E-02  0.1170104E+00
          2   -1    0    0  502    0  0.00000000000E+00  0.00000000000E+00  0.31397105385E+03  0.31397105385E+03  0.00000000000E+00 0. -1.
         -2   -1    0    0    0  501 -0.00000000000E+00 -0.00000000000E+00 -0.11682285740E+03  0.11682285740E+03  0.00000000000E+00 0.  1.
          6    1    1    2  502    0  0.43709483189E+02 -0.79012203808E+01  0.17906608400E+03  0.25223324651E+03  0.17200000000E+03 0. -1.
         -6    1    1    2    0  501 -0.43709483189E+02  0.79012203808E+01  0.18082112445E+02  0.17856066475E+03  0.17200000000E+03 0.  1.
</event>
<event>
 4    1  0.6365705E-002  0.1961834E+03  0.7818608E-02  0.1153000E+00
         -2   -1    0    0    0  501 -0.00000000000E+00  0.00000000000E+00  0.65382498204E+02  0.65382498204E+02  0.00000000000E+00 0.  1.
          2   -1    0    0  502    0  0.00000000000E+00 -0.00000000000E+00 -0.68100399946E+03  0.68100399946E+03  0.00000000000E+00 0. -1.
          6    1    1    2  502    0  0.38221535432E+02  0.86272983465E+02 -0.44523665648E+03  0.48654248912E+03  0.17200000000E+03 0. -1.
         -6    1    1    2    0  501 -0.38221535432E+02 -0.86272983465E+02 -0.17038484478E+03  0.25984400854E+03  0.17200000000E+03 0.  1.
</event>
<event>
 4    1  0.6365705E-002  0.2586379E+03  0.7818608E-02  0.1107964E+00
          4   -1    0    0  502    0  0.00000000000E+00  0.00000000000E+00  0.86561442132E+02  0.86561442132E+02  0.00000000000E+00 0. -1.
         -4   -1    0    0    0  501 -0.00000000000E+00 -0.00000000000E+00 -0.85847250532E+03  0.85847250532E+03  0.00000000000E+00 0.  1.
          6    1    1    2  502    0 -0.68094956857E+02  0.18075571645E+03 -0.23667332488E+03  0.35058210862E+03  0.17200000000E+03 0. -1.
         -6    1    1    2    0  501  0.68094956857E+02 -0.18075571645E+03 -0.53523773831E+03  0.59445183883E+03  0.17200000000E+03 0.  1.
</event>
<event>
 4    1  0.6365705E-002  0.1802555E+03  0.7818608E-02  0.1167556E+00
          1   -1    0    0  502    0  0.00000000000E+00  0.00000000000E+00  0.30267295826E+03  0.30267295826E+03  0.00000000000E+00 0. -1.
         -1   -1    0    0    0  501 -0.00000000000E+00 -0.00000000000E+00 -0.11462918421E+03  0.11462918421E+03  0.00000000000E+00 0.  1.
          6    1    1    2  502    0  0.70836031329E+01  0.53458947207E+02  0.41443765154E+02  0.18495843355E+03  0.17200000000E+03 0.  1.
         -6    1    1    2    0  501 -0.70836031329E+01 -0.53458947207E+02  0.14660000890E+03  0.23234370893E+03  0.17200000000E+03 0.  1.
</event>
<event>
 4    1  0.6365705E-002  0.1986187E+03  0.7818608E-02  0.1150910E+00
         -1   -1    0    0    0  501 -0.00000000000E+00  0.00000000000E+00  0.72177768488E+03  0.72177768488E+03  0.00000000000E+00 0.  1.
          1   -1    0    0  502    0  0.00000000000E+00 -0.00000000000E+00 -0.54662746070E+02  0.54662746070E+02  0.00000000000E+00 0. -1.
          6    1    1    2  502    0  0.55567493096E+01  0.99169062838E+02  0.32920033406E+03  0.38447657982E+03  0.17200000000E+03 0.  1.
         -6    1    1    2    0  501 -0.55567493096E+01 -0.99169062838E+02  0.33791460475E+03  0.39196385112E+03  0.17200000000E+03 0.  1.
</event>
<event>
 4    1  0.6365705E-002  0.4554409E+03  0.7818608E-02  0.1026112E+00
         -1   -1    0    0    0  501 -0.00000000000E+00  0.00000000000E+00  0.12372855109E+03  0.12372855109E+03  0.00000000000E+00 0.  1.
          1   -1    0    0  502    0  0.00000000000E+00 -0.00000000000E+00 -0.17896265621E+04  0.17896265621E+04  0.00000000000E+00 0. -1.
          6    1    1    2  502    0 -0.35419049630E+03  0.22889189902E+03 -0.10735162968E+04  0.11661319173E+04  0.17200000000E+03 0. -1.
         -6    1    1    2    0  501  0.35419049630E+03 -0.22889189902E+03 -0.59238171421E+03  0.74722319586E+03  0.17200000000E+03 0.  1.
</event>
<event>
 4    1  0.6365705E-002  0.2585946E+03  0.7818608E-02  0.1107991E+00
          2   -1    0    0  502    0  0.00000000000E+00  0.00000000000E+00  0.12011142440E+04  0.12011142440E+04  0.00000000000E+00 0. -1.
         -2   -1    0    0    0  501 -0.00000000000E+00 -0.00000000000E+00 -0.56840728525E+02  0.56840728525E+02  0.00000000000E+00 0.  1.
          6    1    1    2  502    0 -0.18128128625E+03  0.66515116633E+02  0.48203383364E+03  0.54701716816E+03  0.17200000000E+03 0.  1.
         -6    1    1    2    0  501  0.18128128625E+03 -0.66515116633E+02  0.66223968189E+03  0.71093780442E+03  0.17200000000E+03 0. -1.
</event>
<event>
 4    1  0.6365705E-002  0.5790078E+03  0.7818608E-02  0.9949941E-01
         -2   -1    0    0    0  501 -0.00000000000E+00  0.00000000000E+00  0.31759082836E+03  0.31759082836E+03  0.00000000000E+00 0.  1.
          2   -1    0    0  502    0  0.00000000000E+00 -0.00000000000E+00 -0.11490827866E+04  0.11490827866E+04  0.00000000000E+00 0. -1.
          6    1    1    2  502    0 -0.51239319143E+03 -0.20765166183E+03 -0.62490927674E+03  0.85191642750E+03  0.17200000000E+03 0. -1.
         -6    1    1    2    0  501  0.51239319143E+03  0.20765166183E+03 -0.20658268153E+03  0.61475718751E+03  0.17200000000E+03 0.  1.
</event>
<event>
 4    1  0.6365705E-002  0.1730866E+03  0.7818608E-02  0.1174667E+00
         -2   -1    0    0    0  501 -0.00000000000E+00  0.00000000000E+00  0.36103028702E+02  0.36103028702E+02  0.00000000000E+00 0.  1.
          2   -1    0    0  502    0  0.00000000000E+00 -0.00000000000E+00 -0.10804030449E+04  0.10804030449E+04  0.00000000000E+00 0. -1.
          6    1    1    2  502    0 -0.10040485913E+01 -0.19337675972E+02 -0.79100339421E+03  0.80971928683E+03  0.17200000000E+03 0. -1.
         -6    1    1    2    0  501  0.10040485913E+01  0.19337675972E+02 -0.25329662201E+03  0.30678678679E+03  0.17200000000E+03 0.  1.
</event>
<event>
 4    1  0.6365705E-002  0.4538616E+03  0.7818608E-02  0.1026577E+00
          1   -1    0    0  502    0  0.00000000000E+00  0.00000000000E+00  0.91166053477E+03  0.91166053477E+03  0.00000000000E+00 0. -1.
         -1   -1    0    0    0  501 -0.00000000000E+00 -0.00000000000E+00 -0.25776098475E+03  0.25776098475E+03  0.00000000000E+00 0.  1.
          6    1    1    2  502    0  0.13378986198E+03  0.39812884968E+03  0.53235736242E+03  0.69956748741E+03  0.17200000000E+03 0. -1.
         -6    1    1    2    0  501 -0.13378986198E+03 -0.39812884968E+03  0.12154218760E+03  0.46985403211E+03  0.17200000000E+03 0.  1.
</event>
<event>
 4    1  0.6365705E-002  0.1828995E+03  0.7818608E-02  0.1165026E+00
         -2   -1    0    0    0  501 -0.00000000000E+00  0.00000000000E+00  0.38958973880E+02  0.38958973880E+02  0.00000000000E+00 0.  1.
          2   -1    0    0  502    0  0.00000000000E+00 -0.00000000000E+00 -0.86037338527E+03  0.86037338527E+03  0.00000000000E+00 0. -1.
          6    1    1    2  502    0 -0.21299412691E+02  0.58434131054E+02 -0.43081884766E+03  0.46803535353E+03  0.17200000000E+03 0.  1.
         -6    1    1    2    0  501  0.21299412691E+02 -0.58434131054E+02 -0.39059556373E+03  0.43129700562E+03  0.17200000000E+03 0. -1.
</event>
<event>
 4    1  0.6365705E-002  0.2059706E+03  0.7818608E-02  0.1144797E+00
          1   -1    0    0  502    0  0.00000000000E+00  0.00000000000E+00  0.97706254850E+03  0.97706254850E+03  0.00000000000E+00 0. -1.
         -1   -1    0    0    0  501 -0.00000000000E+00 -0.00000000000E+00 -0.58819099441E+02  0.58819099441E+02  0.00000000000E+00 0.  1.
          6    1    1    2  502    0 -0.17772964445E+02 -0.11191081028E+03  0.72413690856E+03  0.75285999367E+03  0.17200000000E+03 0. -1.
         -6    1    1    2    0  501  0.17772964445E+02  0.11191081028E+03  0.19410654049E+03  0.28302165427E+03  0.17200000000E+03 0.  1.
</event>
<event>
 4    1  0.6365705E-002  0.1844158E+03  0.7818608E-02  0.1163597E+00
         -3   -1    0    0    0  501 -0.00000000000E+00  0.00000000000E+00  0.11295748479E+04  0.11295748479E+04  0.00000000000E+00 0.  1.
          3   -1    0    0  502    0  0.00000000000E+00 -0.00000000000E+00 -0.32551955735E+02  0.32551955735E+02  0.00000000000E+00 0. -1.
          6    1    1    2  502    0 -0.60906129399E+02  0.26751431278E+02  0.70772685472E+03  0.73135934845E+03  0.17200000000E+03 0.  1.
         -6    1    1    2    0  501  0.60906129399E+02 -0.26751431278E+02  0.38929603742E+03  0.43076745516E+03  0.17200000000E+03 0.  1.
</event>
<event>
 4    1  0.6365705E-002  0.4488271E+03  0.7818608E-02  0.1028072E+00
          2   -1    0    0  502    0  0.00000000000E+00  0.00000000000E+00  0.40436151484E+03  0.40436151484E+03  0.00000000000E+00 0. -1.
         -2   -1    0    0    0  501 -0.00000000000E+00 -0.00000000000E+00 -0.57745443099E+03  0.57745443099E+03  0.00000000000E+00 0.  1.
          6    1    1    2  502    0  0.87811705719E+02 -0.40515536575E+03  0.95340425074E+02  0.45884154423E+03  0.17200000000E+03 0. -1.
         -6    1    1    2    0  501 -0.87811705719E+02  0.40515536575E+03 -0.26843334122E+03  0.52297440161E+03  0.17200000000E+03 0.  1.
</event>
<event>
 4    1  0.6365705E-002  0.2496059E+03  0.7818608E-02  0.1113554E+00
         -4   -1    0    0    0  501 -0.00000000000E+00  0.00000000000E+00  0.85974702089E+02  0.85974702089E+02  0.00000000000E+00 0.  1.
          4   -1    0    0  502    0  0.00000000000E+00 -0.00000000000E+00 -0.72524982918E+03  0.72524982918E+03  0.00000000000E+00 0. -1.
          6    1    1    2  502    0 -0.76706136165E+02  0.16381482291E+03 -0.30815041058E+03  0.39655996151E+03  0.17200000000E+03 0.  1.
         -6    1    1    2    0  501  0.76706136165E+02 -0.16381482291E+03 -0.33112471651E+03  0.41466456976E+03  0.17200000000E+03 0. -1.
</event>
<event>
 4    1  0.6365705E-002  0.1807799E+03  0.7818608E-02  0.1167050E+00
         -2   -1    0    0    0  501 -0.00000000000E+00  0.00000000000E+00  0.58545289505E+02  0.58545289505E+02  0.00000000000E+00 0.  1.
          2   -1    0    0  502    0  0.00000000000E+00 -0.00000000000E+00 -0.94874579600E+03  0.94874579600E+03  0.00000000000E+00 0. -1.
          6    1    1    2  502    0  0.39217210288E+02 -0.39489038817E+02 -0.76822693051E+03  0.78921099240E+03  0.17200000000E+03 0. -1.
         -6    1    1    2    0  501 -0.39217210288E+02  0.39489038817E+02 -0.12197357599E+03  0.21808009311E+03  0.17200000000E+03 0.  1.
</event>
<event>
 4    1  0.6365705E-002  0.1928760E+03  0.7818608E-02  0.1155893E+00
         -2   -1    0    0    0  501 -0.00000000000E+00  0.00000000000E+00  0.38553132492E+02  0.38553132492E+02  0.00000000000E+00 0.  1.
          2   -1    0    0  502    0  0.00000000000E+00 -0.00000000000E+00 -0.12549038964E+04  0.12549038964E+04  0.00000000000E+00 0. -1.
          6    1    1    2  502    0 -0.85874628834E+02  0.15578504880E+02 -0.91905690831E+03  0.93907760190E+03  0.17200000000E+03 0. -1.
         -6    1    1    2    0  501  0.85874628834E+02 -0.15578504880E+02 -0.29729385558E+03  0.35437942697E+03  0.17200000000E+03 0.  1.
</event>
<event>
 4    1  0.6365705E-002  0.2024790E+03  0.7818608E-02  0.1147664E+00
          2   -1    0    0  502    0  0.00000000000E+00  0.00000000000E+00  0.11243269902E+04  0.11243269902E+04  0.00000000000E+00 0. -1.
         -2   -1    0    0    0  501 -0.00000000000E+00 -0.00000000000E+00 -0.36662273096E+02  0.36662273096E+02  0.00000000000E+00 0.  1.
          6    1    1    2  502    0  0.10617260620E+03  0.11880329224E+02  0.58649256499E+03  0.62046054937E+03  0.17200000000E+03 0.  1.
         -6    1    1    2    0  501 -0.10617260620E+03 -0.11880329224E+02  0.50117215209E+03  0.54052871391E+03  0.17200000000E+03 0.  1.
</event>
<event>
 4    1  0.6365705E-002  0.1874066E+03  0.7818608E-02  0.1160821E+00
          2   -1    0    0  502    0  0.00000000000E+00  0.00000000000E+00  0.64436206769E+03  0.64436206769E+03  0.00000000000E+00 0. -1.
         -2   -1    0    0    0  501 -0.00000000000E+00 -0.00000000000E+00 -0.87230756319E+02  0.87230756319E+02  0.00000000000E+00 0.  1.
          6    1    1    2  502    0  0.52395682942E+01  0.74227852526E+02  0.54514772293E+02  0.19517450542E+03  0.17200000000E+03 0.  1.
         -6    1    1    2    0  501 -0.52395682942E+01 -0.74227852526E+02  0.50261653908E+03  0.53641831859E+03  0.17200000000E+03 0.  1.
</event>
<event>
 4    1  0.6365705E-002  0.1739152E+03  0.7818608E-02  0.1173825E+00
          2   -1    0    0  502    0  0.00000000000E+00  0.00000000000E+00  0.26788846768E+04  0.26788846768E+04  0.00000000000E+00 0. -1.
         -2   -1    0    0    0  501 -0.00000000000E+00 -0.00000000000E+00 -0.13933500321E+02  0.13933500321E+02  0.00000000000E+00 0.  1.
          6    1    1    2  502    0 -0.11576446141E+02  0.22988860515E+02  0.74609643266E+03  0.76609815862E+03  0.17200000000E+03 0.  1.
         -6    1    1    2    0  501  0.11576446141E+02 -0.22988860515E+02  0.19188547438E+04  0.19267200185E+04  0.17200000000E+03 0. -1.
</event>
<event>
 4    1  0.6365705E-002  0.2515106E+03  0.7818608E-02  0.1112354E+00
          2   -1    0    0  502    0  0.00000000000E+00  0.00000000000E+00  0.25652746686E+03  0.25652746686E+03  0.00000000000E+00 0. -1.
         -2   -1    0    0    0  501 -0.00000000000E+00 -0.00000000000E+00 -0.29207510952E+03  0.29207510952E+03  0.00000000000E+00 0.  1.
          6    1    1    2  502    0  0.49973597374E+02  0.17656784393E+03  0.90470896091E+02  0.26728738651E+03  0.17200000000E+03 0. -1.
         -6    1    1    2    0  501 -0.49973597374E+02 -0.17656784393E+03 -0.12601853875E+03  0.28131518988E+03  0.17200000000E+03 0.  1.
</event>
<event>
 4    1  0.6365705E-002  0.2034952E+03  0.7818608E-02  0.1146823E+00
          1   -1    0    0  502    0  0.00000000000E+00  0.00000000000E+00  0.40495373989E+03  0.40495373989E+03  0.00000000000E+00 0. -1.
         -1   -1    0    0    0  501 -0.00000000000E+00 -0.00000000000E+00 -0.19991095530E+03  0.19991095530E+03  0.00000000000E+00 0.  1.
          6    1    1    2  502    0 -0.33343637487E+02 -0.10351091381E+03  0.31389445016E+03  0.37408559619E+03  0.17200000000E+03 0. -1.
         -6    1    1    2    0  501  0.33343637487E+02  0.10351091381E+03 -0.10885166556E+03  0.23077909900E+03  0.17200000000E+03 0.  1.
</event>
<event>
 4    1  0.6365705E-002  0.1725218E+03  0.7818608E-02  0.1175243E+00
         -2   -1    0    0    0  501 -0.00000000000E+00  0.00000000000E+00  0.26475126317E+02  0.26475126317E+02  0.00000000000E+00 0.  1.
          2   -1    0    0  502    0  0.00000000000E+00 -0.00000000000E+00 -0.11242549665E+04  0.11242549665E+04  0.00000000000E+00 0. -1.
          6    1    1    2  502    0  0.13407248939E+02 -0.14881593812E+00 -0.55225110405E+03  0.57857156722E+03  0.17200000000E+03 0. -1.
         -6    1    1    2    0  501 -0.13407248939E+02  0.14881593812E+00 -0.54552873617E+03  0.57215852563E+03  0.17200000000E+03 0. -1.
</event>
<event>
 4    1  0.6365705E-002  0.3226889E+03  0.7818608E-02  0.1074418E+00
         -2   -1    0    0    0  501 -0.00000000000E+00  0.00000000000E+00  0.11006936151E+03  0.11006936151E+03  0.00000000000E+00 0.  1.
          2   -1    0    0  502    0  0.00000000000E+00 -0.00000000000E+00 -0.11699867249E+04  0.11699867249E+04  0.00000000000E+00 0. -1.
          6    1    1    2  502    0  0.14657418939E+03  0.23034778398E+03 -0.80998435112E+03  0.87189606241E+03  0.17200000000E+03 0. -1.
         -6    1    1    2    0  501 -0.14657418939E+03 -0.23034778398E+03 -0.24993301228E+03  0.40816002402E+03  0.17200000000E+03 0.  1.
</event>
<event>
 4    1  0.6365705E-002  0.2463274E+03  0.7818608E-02  0.1115648E+00
          1   -1    0    0  502    0  0.00000000000E+00  0.00000000000E+00  0.59487591192E+03  0.59487591192E+03  0.00000000000E+00 0. -1.
         -1   -1    0    0    0  501 -0.00000000000E+00 -0.00000000000E+00 -0.12278551233E+03  0.12278551233E+03  0.00000000000E+00 0.  1.
          6    1    1    2  502    0  0.16047918812E+03 -0.73072700007E+02  0.88406874646E+02  0.26171160615E+03  0.17200000000E+03 0. -1.
         -6    1    1    2    0  501 -0.16047918812E+03  0.73072700007E+02  0.38368352495E+03  0.45594981810E+03  0.17200000000E+03 0. -1.
</event>
<event>
 4    1  0.6365705E-002  0.1866303E+03  0.7818608E-02  0.1161536E+00
         -1   -1    0    0    0  501 -0.00000000000E+00  0.00000000000E+00  0.10214137566E+03  0.10214137566E+03  0.00000000000E+00 0.  1.
          1   -1    0    0  502    0  0.00000000000E+00 -0.00000000000E+00 -0.40564460311E+03  0.40564460311E+03  0.00000000000E+00 0. -1.
          6    1    1    2  502    0 -0.53016246432E+02 -0.49357436916E+02 -0.25310119620E+03  0.31446954460E+03  0.17200000000E+03 0. -1.
         -6    1    1    2    0  501  0.53016246432E+02  0.49357436916E+02 -0.50402031258E+02  0.19331643417E+03  0.17200000000E+03 0.  1.
</event>
<event>
 4    1  0.6365705E-002  0.3758943E+03  0.7818608E-02  0.1052462E+00
          2   -1    0    0  502    0  0.00000000000E+00  0.00000000000E+00  0.16038891077E+04  0.16038891077E+04  0.00000000000E+00 0. -1.
         -2   -1    0    0    0  501 -0.00000000000E+00 -0.00000000000E+00 -0.95368147138E+02  0.95368147138E+02  0.00000000000E+00 0.  1.
          6    1    1    2  502    0  0.30393332682E+03  0.13905764257E+03  0.51964666866E+03  0.64134947989E+03  0.17200000000E+03 0. -1.
         -6    1    1    2    0  501 -0.30393332682E+03 -0.13905764257E+03  0.98887429193E+03  0.10579077750E+04  0.17200000000E+03 0. -1.
</event>
<event>
 4    1  0.6365705E-002  0.2999000E+03  0.7818608E-02  0.1085291E+00
         -2   -1    0    0    0  501 -0.00000000000E+00  0.00000000000E+00  0.11304093544E+03  0.11304093544E+03  0.00000000000E+00 0.  1.
          2   -1    0    0  502    0  0.00000000000E+00 -0.00000000000E+00 -0.16534161697E+04  0.16534161697E+04  0.00000000000E+00 0. -1.
          6    1    1    2  502    0 -0.61660975370E+02  0.23781067128E+03 -0.14063511516E+04  0.14379720278E+04  0.17200000000E+03 0. -1.
         -6    1    1    2    0  501  0.61660975370E+02 -0.23781067128E+03 -0.13402408264E+03  0.32848507726E+03  0.17200000000E+03 0.  1.
</event>
<event>
 4    1  0.6365705E-002  0.2388337E+03  0.7818608E-02  0.1120572E+00
         -2   -1    0    0    0  501 -0.00000000000E+00  0.00000000000E+00  0.26346255623E+03  0.26346255623E+03  0.00000000000E+00 0.  1.
          2   -1    0    0  502    0  0.00000000000E+00 -0.00000000000E+00 -0.23850143635E+03  0.23850143635E+03  0.00000000000E+00 0. -1.
          6    1    1    2  502    0  0.15269822326E+03 -0.64349065076E+02 -0.63736320408E+02  0.24719196610E+03  0.17200000000E+03 0. -1.
         -6    1    1    2    0  501 -0.15269822326E+03  0.64349065076E+02  0.88697440285E+02  0.25477202648E+03  0.17200000000E+03 0.  1.
</event>
<event>
 4    1  0.6365705E-002  0.3411912E+03  0.7818608E-02  0.1066290E+00
         -3   -1    0    0    0  501 -0.00000000000E+00  0.00000000000E+00  0.45809237336E+03  0.45809237336E+03  0.00000000000E+00 0.  1.
          3   -1    0    0  502    0  0.00000000000E+00 -0.00000000000E+00 -0.33981464056E+03  0.33981464056E+03  0.00000000000E+00 0. -1.
          6    1    1    2  502    0 -0.72423724981E+02  0.28562604835E+03  0.25948111077E+03  0.42865123618E+03  0.17200000000E+03 0. -1.
         -6    1    1    2    0  501  0.72423724981E+02 -0.28562604835E+03 -0.14120337797E+03  0.36925577773E+03  0.17200000000E+03 0.  1.
</event>
<event>
 4    1  0.6365705E-002  0.1988448E+03  0.7818608E-02  0.1150717E+00
         -1   -1    0    0    0  501 -0.00000000000E+00  0.00000000000E+00  0.75562778399E+02  0.75562778399E+02  0.00000000000E+00 0.  1.
          1   -1    0    0  502    0  0.00000000000E+00 -0.00000000000E+00 -0.53618603393E+03  0.53618603393E+03  0.00000000000E+00 0. -1.
          6    1    1    2  502    0 -0.65334565418E+02 -0.75409888905E+02 -0.27779661929E+03  0.34162877290E+03  0.17200000000E+03 0. -1.
         -6    1    1    2    0  501  0.65334565418E+02  0.75409888905E+02 -0.18282663624E+03  0.27012003943E+03  0.17200000000E+03 0.  1.
</event>
<event>
 4    1  0.6365705E-002  0.3498758E+03  0.7818608E-02  0.1062666E+00
         -2   -1    0    0    0  501 -0.00000000000E+00  0.00000000000E+00  0.95462683997E+02  0.95462683997E+02  0.00000000000E+00 0.  1.
          2   -1    0    0  502    0  0.00000000000E+00 -0.00000000000E+00 -0.15160857861E+04  0.15160857861E+04  0.00000000000E+00 0. -1.
          6    1    1    2  502    0  0.17357321141E+03  0.25040253928E+03 -0.10267199271E+04  0.10846966857E+04  0.17200000000E+03 0. -1.
         -6    1    1    2    0  501 -0.17357321141E+03 -0.25040253928E+03 -0.39390317509E+03  0.52685178442E+03  0.17200000000E+03 0.  1.
</event>
<event>
 4    1  0.6365705E-002  0.2884385E+03  0.7818608E-02  0.1091167E+00
         -1   -1    0    0    0  501 -0.00000000000E+00  0.00000000000E+00  0.58387851667E+02  0.58387851667E+02  0.00000000000E+00 0.  1.
          1   -1    0    0  502    0  0.00000000000E+00 -0.00000000000E+00 -0.17007112589E+04  0.17007112589E+04  0.00000000000E+00 0. -1.
          6    1    1    2  502    0 -0.20015285918E+03 -0.11641127230E+03 -0.11753647916E+04  0.12102392923E+04  0.17200000000E+03 0. -1.
         -6    1    1    2    0  501  0.20015285918E+03  0.11641127230E+03 -0.46695861558E+03  0.54885981819E+03  0.17200000000E+03 0.  1.
</event>
<event>
 4    1  0.6365705E-002  0.1873290E+03  0.7818608E-02  0.1160893E+00
         -1   -1    0    0    0  501 -0.00000000000E+00  0.00000000000E+00  0.83134114526E+02  0.83134114526E+02  0.00000000000E+00 0.  1.
          1   -1    0    0  502    0  0.00000000000E+00 -0.00000000000E+00 -0.64178227023E+03  0.64178227023E+03  0.00000000000E+00 0. -1.
          6    1    1    2  502    0  0.24307292579E+02 -0.70123629318E+02 -0.49137814529E+03  0.52587512732E+03  0.17200000000E+03 0. -1.
         -6    1    1    2    0  501 -0.24307292579E+02  0.70123629318E+02 -0.67270010412E+02  0.19904125744E+03  0.17200000000E+03 0.  1.
</event>
<event>
 4    1  0.6365705E-002  0.2114122E+03  0.7818608E-02  0.1140453E+00
         -2   -1    0    0    0  501 -0.00000000000E+00  0.00000000000E+00  0.81947244834E+02  0.81947244834E+02  0.00000000000E+00 0.  1.
          2   -1    0    0  502    0  0.00000000000E+00 -0.00000000000E+00 -0.83770296273E+03  0.83770296273E+03  0.00000000000E+00 0. -1.
          6    1    1    2  502    0 -0.11149329564E+03 -0.51772215966E+02 -0.64949325222E+03  0.68303484684E+03  0.17200000000E+03 0. -1.
         -6    1    1    2    0  501  0.11149329564E+03  0.51772215966E+02 -0.10626246568E+03  0.23661536072E+03  0.17200000000E+03 0.  1.
</event>
<event>
 4    1  0.6365705E-002  0.2548476E+03  0.7818608E-02  0.1110279E+00
          1   -1    0    0  502    0  0.00000000000E+00  0.00000000000E+00  0.13083661823E+04  0.13083661823E+04  0.00000000000E+00 0. -1.
         -1   -1    0    0    0  501 -0.00000000000E+00 -0.00000000000E+00 -0.17994726212E+03  0.17994726212E+03  0.00000000000E+00 0.  1.
          6    1    1    2  502    0  0.72313377232E+02  0.17359167544E+03  0.11974607766E+04  0.12242792189E+04  0.17200000000E+03 0. -1.
         -6    1    1    2    0  501 -0.72313377232E+02 -0.17359167544E+03 -0.69041856434E+02  0.26403422552E+03  0.17200000000E+03 0.  1.
</event>
<event>
 4    1  0.6365705E-002  0.1951573E+03  0.7818608E-02  0.1153890E+00
         -2   -1    0    0    0  501 -0.00000000000E+00  0.00000000000E+00  0.49014696223E+02  0.49014696223E+02  0.00000000000E+00 0.  1.
          2   -1    0    0  502    0  0.00000000000E+00 -0.00000000000E+00 -0.10222106471E+04  0.10222106471E+04  0.00000000000E+00 0. -1.
          6    1    1    2  502    0  0.37531424340E+02 -0.84224529601E+02 -0.74890799874E+03  0.77391832242E+03  0.17200000000E+03 0. -1.
         -6    1    1    2    0  501 -0.37531424340E+02  0.84224529601E+02 -0.22428795210E+03  0.29730702087E+03  0.17200000000E+03 0.  1.
</event>
<event>
 4    1  0.6365705E-002  0.2045796E+03  0.7818608E-02  0.1145932E+00
          1   -1    0    0  502    0  0.00000000000E+00  0.00000000000E+00  0.62074666978E+03  0.62074666978E+03  0.00000000000E+00 0. -1.
         -1   -1    0    0    0  501 -0.00000000000E+00 -0.00000000000E+00 -0.10015589527E+03  0.10015589527E+03  0.00000000000E+00 0.  1.
          6    1    1    2  502    0 -0.95921856820E+02 -0.55387837157E+02  0.54233222969E+02  0.21164606681E+03  0.17200000000E+03 0.  1.
         -6    1    1    2    0  501  0.95921856820E+02  0.55387837157E+02  0.46635755155E+03  0.50925649824E+03  0.17200000000E+03 0. -1.
</event>
<event>
 4    1  0.6365705E-002  0.3415042E+03  0.7818608E-02  0.1066157E+00
          1   -1    0    0  502    0  0.00000000000E+00  0.00000000000E+00  0.27121033439E+03  0.27121033439E+03  0.00000000000E+00 0. -1.
         -1   -1    0    0    0  501 -0.00000000000E+00 -0.00000000000E+00 -0.11074375625E+04  0.11074375625E+04  0.00000000000E+00 0.  1.
          6    1    1    2  502    0 -0.10753055445E+03 -0.27473312030E+03  0.12101560114E+03  0.36231185911E+03  0.17200000000E+03 0. -1.
         -6    1    1    2    0  501  0.10753055445E+03  0.27473312030E+03 -0.95724282929E+03  0.10163360378E+04  0.17200000000E+03 0.  1.
</event>
<event>
 4    1  0.6365705E-002  0.3072557E+03  0.7818608E-02  0.1081669E+00
          2   -1    0    0  502    0  0.00000000000E+00  0.00000000000E+00  0.67395934822E+03  0.67395934822E+03  0.00000000000E+00 0. -1.
         -2   -1    0    0    0  501 -0.00000000000E+00 -0.00000000000E+00 -0.14204494501E+03  0.14204494501E+03  0.00000000000E+00 0.  1.
          6    1    1    2  502    0  0.58033702938E+02  0.24789949353E+03  0.31398337474E+03  0.43930812556E+03  0.17200000000E+03 0. -1.
         -6    1    1    2    0  501 -0.58033702938E+02 -0.24789949353E+03  0.21793102847E+03  0.37669616767E+03  0.17200000000E+03 0.  1.
</event>
<event>
 4    1  0.6365705E-002  0.3345841E+03  0.7818608E-02  0.1069126E+00
         -2   -1    0    0    0  501 -0.00000000000E+00  0.00000000000E+00  0.33491365870E+03  0.33491365870E+03  0.00000000000E+00 0.  1.
          2   -1    0    0  502    0  0.00000000000E+00 -0.00000000000E+00 -0.37309926639E+03  0.37309926639E+03  0.00000000000E+00 0. -1.
          6    1    1    2  502    0  0.23309342919E+03 -0.16742156952E+03  0.95132694344E+02  0.34784588284E+03  0.17200000000E+03 0. -1.
         -6    1    1    2    0  501 -0.23309342919E+03  0.16742156952E+03 -0.13331830203E+03  0.36016704226E+03  0.17200000000E+03 0.  1.
</event>
<event>
 4    1  0.6365705E-002  0.1902046E+03  0.7818608E-02  0.1158277E+00
         -2   -1    0    0    0  501 -0.00000000000E+00  0.00000000000E+00  0.29577458021E+02  0.29577458021E+02  0.00000000000E+00 0.  1.
          2   -1    0    0  502    0  0.00000000000E+00 -0.00000000000E+00 -0.14967886615E+04  0.14967886615E+04  0.00000000000E+00 0. -1.
          6    1    1    2  502    0 -0.35103930628E+02 -0.73222290907E+02 -0.10599182693E+04  0.10768493522E+04  0.17200000000E+03 0. -1.
         -6    1    1    2    0  501  0.35103930628E+02  0.73222290907E+02 -0.40729293417E+03  0.44951676727E+03  0.17200000000E+03 0.  1.
</event>
<event>
 4    1  0.6365705E-002  0.7535980E+03  0.7818608E-02  0.9629723E-01
          2   -1    0    0  502    0  0.00000000000E+00  0.00000000000E+00  0.74999105911E+03  0.74999105911E+03  0.00000000000E+00 0. -1.
         -2   -1    0    0    0  501 -0.00000000000E+00 -0.00000000000E+00 -0.81978959437E+03  0.81978959437E+03  0.00000000000E+00 0.  1.
          6    1    1    2  502    0  0.36711484490E+03 -0.63525788368E+03 -0.25173545967E+03  0.79453170470E+03  0.17200000000E+03 0. -1.
         -6    1    1    2    0  501 -0.36711484490E+03  0.63525788368E+03  0.18193692441E+03  0.77524894878E+03  0.17200000000E+03 0.  1.
</event>
<event>
 4    1  0.6365705E-002  0.2696555E+03  0.7818608E-02  0.1101477E+00
         -2   -1    0    0    0  501 -0.00000000000E+00  0.00000000000E+00  0.30098960575E+03  0.30098960575E+03  0.00000000000E+00 0.  1.
          2   -1    0    0  502    0  0.00000000000E+00 -0.00000000000E+00 -0.45501806863E+03  0.45501806863E+03  0.00000000000E+00 0. -1.
          6    1    1    2  502    0  0.20071763774E+03  0.53315220377E+02 -0.33590371031E+03  0.43074979446E+03  0.17200000000E+03 0. -1.
         -6    1    1    2    0  501 -0.20071763774E+03 -0.53315220377E+02  0.18187524743E+03  0.32525787992E+03  0.17200000000E+03 0.  1.
</event>
<event>
 4    1  0.6365705E-002  0.1808578E+03  0.7818608E-02  0.1166975E+00
          2   -1    0    0  502    0  0.00000000000E+00  0.00000000000E+00  0.54164221084E+02  0.54164221084E+02  0.00000000000E+00 0. -1.
         -2   -1    0    0    0  501 -0.00000000000E+00 -0.00000000000E+00 -0.61010224472E+03  0.61010224472E+03  0.00000000000E+00 0.  1.
          6    1    1    2  502    0 -0.55799219659E+02 -0.34617395587E+01 -0.24446951188E+03  0.30409682470E+03  0.17200000000E+03 0. -1.
         -6    1    1    2    0  501  0.55799219659E+02  0.34617395587E+01 -0.31146851175E+03  0.36016964110E+03  0.17200000000E+03 0.  1.
</event>
<event>
 4    1  0.6365705E-002  0.2379937E+03  0.7818608E-02  0.1121137E+00
          2   -1    0    0  502    0  0.00000000000E+00  0.00000000000E+00  0.16511913380E+04  0.16511913380E+04  0.00000000000E+00 0. -1.
         -2   -1    0    0    0  501 -0.00000000000E+00 -0.00000000000E+00 -0.35036187976E+02  0.35036187976E+02  0.00000000000E+00 0.  1.
          6    1    1    2  502    0 -0.11501316645E+02 -0.16408751875E+03  0.93003368396E+03  0.96000189968E+03  0.17200000000E+03 0. -1.
         -6    1    1    2    0  501  0.11501316645E+02  0.16408751875E+03  0.68612146610E+03  0.72622562633E+03  0.17200000000E+03 0.  1.
</event>
<event>
 4    1  0.6365705E-002  0.2614816E+03  0.7818608E-02  0.1106256E+00
         -2   -1    0    0    0  501 -0.00000000000E+00  0.00000000000E+00  0.26296715556E+03  0.26296715556E+03  0.00000000000E+00 0.  1.
          2   -1    0    0  502    0  0.00000000000E+00 -0.00000000000E+00 -0.30427929170E+03  0.30427929170E+03  0.00000000000E+00 0. -1.
          6    1    1    2  502    0  0.19232875665E+03  0.42405818680E+02 -0.12884543871E+03  0.29150257489E+03  0.17200000000E+03 0. -1.
         -6    1    1    2    0  501 -0.19232875665E+03 -0.42405818680E+02  0.87533302571E+02  0.27574387237E+03  0.17200000000E+03 0.  1.
</event>
<event>
 4    1  0.6365705E-002  0.3801219E+03  0.7818608E-02  0.1050889E+00
         -2   -1    0    0    0  501 -0.00000000000E+00  0.00000000000E+00  0.27910913986E+03  0.27910913986E+03  0.00000000000E+00 0.  1.
          2   -1    0    0  502    0  0.00000000000E+00 -0.00000000000E+00 -0.57120634647E+03  0.57120634647E+03  0.00000000000E+00 0. -1.
          6    1    1    2  502    0 -0.70266251464E+02  0.33161918784E+03 -0.27618170405E+03  0.46986058091E+03  0.17200000000E+03 0. -1.
         -6    1    1    2    0  501  0.70266251464E+02 -0.33161918784E+03 -0.15915502566E+02  0.38045490542E+03  0.17200000000E+03 0.  1.
</event>
<event>
 4    1  0.6365705E-002  0.2193522E+03  0.7818608E-02  0.1134367E+00
          2   -1    0    0  502    0  0.00000000000E+00  0.00000000000E+00  0.10051149598E+04  0.10051149598E+04  0.00000000000E+00 0. -1.
         -2   -1    0    0    0  501 -0.00000000000E+00 -0.00000000000E+00 -0.67940487342E+02  0.67940487342E+02  0.00000000000E+00 0.  1.
          6    1    1    2  502    0 -0.93845826577E+02  0.98612173370E+02  0.76019622860E+03  0.79121027918E+03  0.17200000000E+03 0. -1.
         -6    1    1    2    0  501  0.93845826577E+02 -0.98612173370E+02  0.17697824385E+03  0.28184516796E+03  0.17200000000E+03 0. -1.
</event>
<event>
 4    1  0.6365705E-002  0.1761501E+03  0.7818608E-02  0.1171582E+00
          2   -1    0    0  502    0  0.00000000000E+00  0.00000000000E+00  0.36832969909E+02  0.36832969909E+02  0.00000000000E+00 0. -1.
         -2   -1    0    0    0  501 -0.00000000000E+00 -0.00000000000E+00 -0.11629530628E+04  0.11629530628E+04  0.00000000000E+00 0.  1.
          6    1    1    2  502    0  0.93445583736E+00 -0.37999968860E+02 -0.87800045575E+03  0.89549632670E+03  0.17200000000E+03 0.  1.
         -6    1    1    2    0  501 -0.93445583736E+00  0.37999968860E+02 -0.24811963710E+03  0.30428970596E+03  0.17200000000E+03 0. -1.
</event>
<event>
 4    1  0.6365705E-002  0.2073027E+03  0.7818608E-02  0.1143720E+00
         -3   -1    0    0    0  501 -0.00000000000E+00  0.00000000000E+00  0.83815916920E+03  0.83815916920E+03  0.00000000000E+00 0.  1.
          3   -1    0    0  502    0  0.00000000000E+00 -0.00000000000E+00 -0.52077661579E+02  0.52077661579E+02  0.00000000000E+00 0. -1.
          6    1    1    2  502    0 -0.38857902803E+02 -0.10899754069E+03  0.33768936621E+03  0.39624299179E+03  0.17200000000E+03 0. -1.
         -6    1    1    2    0  501  0.38857902803E+02  0.10899754069E+03  0.44839214140E+03  0.49399383899E+03  0.17200000000E+03 0.  1.
</event>
<event>
 4    1  0.6365705E-002  0.4489453E+03  0.7818608E-02  0.1028037E+00
          2   -1    0    0  502    0  0.00000000000E+00  0.00000000000E+00  0.10052519744E+04  0.10052519744E+04  0.00000000000E+00 0. -1.
         -2   -1    0    0    0  501 -0.00000000000E+00 -0.00000000000E+00 -0.53021096799E+03  0.53021096799E+03  0.00000000000E+00 0.  1.
          6    1    1    2  502    0  0.41215037292E+03 -0.45825600905E+02  0.84293443591E+03  0.95503422915E+03  0.17200000000E+03 0. -1.
         -6    1    1    2    0  501 -0.41215037292E+03  0.45825600905E+02 -0.36789342955E+03  0.58042871319E+03  0.17200000000E+03 0.  1.
</event>
<event>
 4    1  0.6365705E-002  0.3667299E+03  0.7818608E-02  0.1055950E+00
         -3   -1    0    0    0  501 -0.00000000000E+00  0.00000000000E+00  0.60135979000E+03  0.60135979000E+03  0.00000000000E+00 0.  1.
          3   -1    0    0  502    0  0.00000000000E+00 -0.00000000000E+00 -0.30832870671E+03  0.30832870671E+03  0.00000000000E+00 0. -1.
          6    1    1    2  502    0 -0.31898481040E+03 -0.56174210725E+02 -0.91857292888E+02  0.37805900793E+03  0.17200000000E+03 0. -1.
         -6    1    1    2    0  501  0.31898481040E+03  0.56174210725E+02  0.38488837618E+03  0.53162948877E+03  0.17200000000E+03 0.  1.
</event>
<event>
 4    1  0.6365705E-002  0.2265131E+03  0.7818608E-02  0.1129118E+00
         -1   -1    0    0    0  501 -0.00000000000E+00  0.00000000000E+00  0.86586498625E+03  0.86586498625E+03  0.00000000000E+00 0.  1.
          1   -1    0    0  502    0  0.00000000000E+00 -0.00000000000E+00 -0.71387257672E+02  0.71387257672E+02  0.00000000000E+00 0. -1.
          6    1    1    2  502    0  0.58584869182E+02 -0.13524783783E+03  0.20406010896E+03  0.30487488024E+03  0.17200000000E+03 0. -1.
         -6    1    1    2    0  501 -0.58584869182E+02  0.13524783783E+03  0.59041761962E+03  0.63237736367E+03  0.17200000000E+03 0.  1.
</event>
<event>
 4    1  0.6365705E-002  0.2219573E+03  0.7818608E-02  0.1132432E+00
          1   -1    0    0  502    0  0.00000000000E+00  0.00000000000E+00  0.33745389585E+03  0.33745389585E+03  0.00000000000E+00 0. -1.
         -1   -1    0    0    0  501 -0.00000000000E+00 -0.00000000000E+00 -0.14642865068E+03  0.14642865068E+03  0.00000000000E+00 0.  1.
          6    1    1    2  502    0 -0.93910230162E+02 -0.10422049155E+03  0.82277157313E+02  0.23671622843E+03  0.17200000000E+03 0. -1.
         -6    1    1    2    0  501  0.93910230162E+02  0.10422049155E+03  0.10874808785E+03  0.24716631809E+03  0.17200000000E+03 0.  1.
</event>
<event>
 4    1  0.6365705E-002  0.2007230E+03  0.7818608E-02  0.1149130E+00
          1   -1    0    0  502    0  0.00000000000E+00  0.00000000000E+00  0.70341650237E+03  0.70341650237E+03  0.00000000000E+00 0. -1.
         -1   -1    0    0    0  501 -0.00000000000E+00 -0.00000000000E+00 -0.62815830657E+02  0.62815830657E+02  0.00000000000E+00 0.  1.
          6    1    1    2  502    0 -0.53629213254E+02 -0.88485112381E+02  0.43406260490E+03  0.47822594305E+03  0.17200000000E+03 0.  1.
         -6    1    1    2    0  501  0.53629213254E+02  0.88485112381E+02  0.20653806681E+03  0.28800638998E+03  0.17200000000E+03 0.  1.
</event>
<event>
 4    1  0.6365705E-002  0.2404787E+03  0.7818608E-02  0.1119474E+00
         -2   -1    0    0    0  501 -0.00000000000E+00  0.00000000000E+00  0.18646197258E+03  0.18646197258E+03  0.00000000000E+00 0.  1.
          2   -1    0    0  502    0  0.00000000000E+00 -0.00000000000E+00 -0.32264752833E+03  0.32264752833E+03  0.00000000000E+00 0. -1.
          6    1    1    2  502    0 -0.15816458770E+03 -0.56832748540E+02 -0.17981061365E+02  0.24114998792E+03  0.17200000000E+03 0. -1.
         -6    1    1    2    0  501  0.15816458770E+03  0.56832748540E+02 -0.11820449439E+03  0.26795951299E+03  0.17200000000E+03 0. -1.
</event>
<event>
 4    1  0.6365705E-002  0.1743472E+03  0.7818608E-02  0.1173389E+00
         -1   -1    0    0    0  501 -0.00000000000E+00  0.00000000000E+00  0.62864305680E+02  0.62864305680E+02  0.00000000000E+00 0.  1.
          1   -1    0    0  502    0  0.00000000000E+00 -0.00000000000E+00 -0.51801756054E+03  0.51801756054E+03  0.00000000000E+00 0. -1.
          6    1    1    2  502    0  0.84511124272E+01  0.27230652014E+02 -0.30251454095E+03  0.34915895692E+03  0.17200000000E+03 0. -1.
         -6    1    1    2    0  501 -0.84511124272E+01 -0.27230652014E+02 -0.15263871391E+03  0.23172290930E+03  0.17200000000E+03 0.  1.
</event>
<event>
 4    1  0.6365705E-002  0.2407914E+03  0.7818608E-02  0.1119267E+00
          2   -1    0    0  502    0  0.00000000000E+00  0.00000000000E+00  0.55831775672E+03  0.55831775672E+03  0.00000000000E+00 0. -1.
         -2   -1    0    0    0  501 -0.00000000000E+00 -0.00000000000E+00 -0.12360914154E+03  0.12360914154E+03  0.00000000000E+00 0.  1.
          6    1    1    2  502    0 -0.12611456219E+03  0.11176599534E+03  0.35368131151E+03  0.42786795933E+03  0.17200000000E+03 0. -1.
         -6    1    1    2    0  501  0.12611456219E+03 -0.11176599534E+03  0.81027303668E+02  0.25405893893E+03  0.17200000000E+03 0.  1.
</event>
<event>
 4    1  0.6365705E-002  0.4274267E+03  0.7818608E-02  0.1034676E+00
         -2   -1    0    0    0  501 -0.00000000000E+00  0.00000000000E+00  0.86571464530E+02  0.86571464530E+02  0.00000000000E+00 0.  1.
          2   -1    0    0  502    0  0.00000000000E+00 -0.00000000000E+00 -0.21692256922E+04  0.21692256922E+04  0.00000000000E+00 0. -1.
          6    1    1    2  502    0 -0.37780573954E+03  0.10184522086E+03 -0.85546509248E+03  0.95630233205E+03  0.17200000000E+03 0. -1.
         -6    1    1    2    0  501  0.37780573954E+03 -0.10184522086E+03 -0.12271891352E+04  0.12994948247E+04  0.17200000000E+03 0.  1.
</event>
<event>
 4    1  0.6365705E-002  0.1782446E+03  0.7818608E-02  0.1169513E+00
          2   -1    0    0  502    0  0.00000000000E+00  0.00000000000E+00  0.21765050935E+03  0.21765050935E+03  0.00000000000E+00 0. -1.
         -2   -1    0    0    0  501 -0.00000000000E+00 -0.00000000000E+00 -0.28320717633E+03  0.28320717633E+03  0.00000000000E+00 0.  1.
          6    1    1    2  502    0  0.39294920581E+02  0.25358401102E+02  0.14154802497E+03  0.22761147305E+03  0.17200000000E+03 0. -1.
         -6    1    1    2    0  501 -0.39294920581E+02 -0.25358401102E+02 -0.20710469195E+03  0.27324621263E+03  0.17200000000E+03 0.  1.
</event>
<event>
 4    1  0.6365705E-002  0.3091367E+03  0.7818608E-02  0.1080760E+00
         -1   -1    0    0    0  501 -0.00000000000E+00  0.00000000000E+00  0.21879107021E+03  0.21879107021E+03  0.00000000000E+00 0.  1.
          1   -1    0    0  502    0  0.00000000000E+00 -0.00000000000E+00 -0.44243067214E+03  0.44243067214E+03  0.00000000000E+00 0. -1.
          6    1    1    2  502    0 -0.25669560413E+03 -0.94282765036E+01 -0.14915338659E+03  0.34323790337E+03  0.17200000000E+03 0. -1.
         -6    1    1    2    0  501  0.25669560413E+03  0.94282765036E+01 -0.74486215337E+02  0.31798383898E+03  0.17200000000E+03 0.  1.
</event>
<event>
 4    1  0.6365705E-002  0.2127854E+03  0.7818608E-02  0.1139379E+00
         -2   -1    0    0    0  501 -0.00000000000E+00  0.00000000000E+00  0.76355234147E+02  0.76355234147E+02  0.00000000000E+00 0.  1.
          2   -1    0    0  502    0  0.00000000000E+00 -0.00000000000E+00 -0.77702585982E+03  0.77702585982E+03  0.00000000000E+00 0. -1.
          6    1    1    2  502    0 -0.19569408106E+02  0.12373629160E+03 -0.14267643147E+03  0.25619171667E+03  0.17200000000E+03 0. -1.
         -6    1    1    2    0  501  0.19569408106E+02 -0.12373629160E+03 -0.55799419420E+03  0.59718937730E+03  0.17200000000E+03 0.  1.
</event>
<event>
 4    1  0.6365705E-002  0.2935288E+03  0.7818608E-02  0.1088521E+00
         -2   -1    0    0    0  501 -0.00000000000E+00  0.00000000000E+00  0.23950745577E+03  0.23950745577E+03  0.00000000000E+00 0.  1.
          2   -1    0    0  502    0  0.00000000000E+00 -0.00000000000E+00 -0.13484552209E+04  0.13484552209E+04  0.00000000000E+00 0. -1.
          6    1    1    2  502    0 -0.23119723671E+03  0.55883815612E+02 -0.12343484347E+04  0.12687691758E+04  0.17200000000E+03 0. -1.
         -6    1    1    2    0  501  0.23119723671E+03 -0.55883815612E+02  0.12540066955E+03  0.31919350093E+03  0.17200000000E+03 0.  1.
</event>
<event>
 4    1  0.6365705E-002  0.7586617E+03  0.7818608E-02  0.9621859E-01
         -2   -1    0    0    0  501 -0.00000000000E+00  0.00000000000E+00  0.66710590959E+03  0.66710590959E+03  0.00000000000E+00 0.  1.
          2   -1    0    0  502    0  0.00000000000E+00 -0.00000000000E+00 -0.15165427676E+04  0.15165427676E+04  0.00000000000E+00 0. -1.
          6    1    1    2  502    0  0.55952515565E+03 -0.48261282737E+03 -0.11415788182E+04  0.13706822167E+04  0.17200000000E+03 0. -1.
         -6    1    1    2    0  501 -0.55952515565E+03  0.48261282737E+03  0.29214196022E+03  0.81296646049E+03  0.17200000000E+03 0.  1.
</event>
<event>
 4    1  0.6365705E-002  0.1901609E+03  0.7818608E-02  0.1158316E+00
          2   -1    0    0  502    0  0.00000000000E+00  0.00000000000E+00  0.87649588033E+03  0.87649588033E+03  0.00000000000E+00 0. -1.
         -2   -1    0    0    0  501 -0.00000000000E+00 -0.00000000000E+00 -0.44638672394E+02  0.44638672394E+02  0.00000000000E+00 0.  1.
          6    1    1    2  502    0 -0.24580337852E+02  0.77285121581E+02  0.54270344114E+03  0.57505496090E+03  0.17200000000E+03 0.  1.
         -6    1    1    2    0  501  0.24580337852E+02 -0.77285121581E+02  0.28915376679E+03  0.34607959182E+03  0.17200000000E+03 0. -1.
</event>
<event>
 4    1  0.6365705E-002  0.3016577E+03  0.7818608E-02  0.1084415E+00
          2   -1    0    0  502    0  0.00000000000E+00  0.00000000000E+00  0.51190551854E+03  0.51190551854E+03  0.00000000000E+00 0. -1.
         -2   -1    0    0    0  501 -0.00000000000E+00 -0.00000000000E+00 -0.28827889733E+03  0.28827889733E+03  0.00000000000E+00 0.  1.
          6    1    1    2  502    0  0.16882898799E+03  0.18141158765E+03  0.35953717482E+03  0.46932331223E+03  0.17200000000E+03 0. -1.
         -6    1    1    2    0  501 -0.16882898799E+03 -0.18141158765E+03 -0.13591055361E+03  0.33086110364E+03  0.17200000000E+03 0.  1.
</event>
<event>
 4    1  0.6365705E-002  0.1764902E+03  0.7818608E-02  0.1171244E+00
         -2   -1    0    0    0  501 -0.00000000000E+00  0.00000000000E+00  0.52148321120E+02  0.52148321120E+02  0.00000000000E+00 0.  1.
          2   -1    0    0  502    0  0.00000000000E+00 -0.00000000000E+00 -0.82559386385E+03  0.82559386385E+03  0.00000000000E+00 0. -1.
          6    1    1    2  502    0  0.12646306174E+02  0.37481526156E+02 -0.15594716944E+03  0.23551711938E+03  0.17200000000E+03 0.  1.
         -6    1    1    2    0  501 -0.12646306174E+02 -0.37481526156E+02 -0.61749837329E+03  0.64222506559E+03  0.17200000000E+03 0. -1.
</event>
<event>
 4    1  0.6365705E-002  0.2291665E+03  0.7818608E-02  0.1127228E+00
          2   -1    0    0  502    0  0.00000000000E+00  0.00000000000E+00  0.11727017452E+04  0.11727017452E+04  0.00000000000E+00 0. -1.
         -2   -1    0    0    0  501 -0.00000000000E+00 -0.00000000000E+00 -0.50158119774E+02  0.50158119774E+02  0.00000000000E+00 0.  1.
          6    1    1    2  502    0  0.60030793210E+02  0.13903087332E+03  0.76142569858E+03  0.79516436938E+03  0.17200000000E+03 0. -1.
         -6    1    1    2    0  501 -0.60030793210E+02 -0.13903087332E+03  0.36111792688E+03  0.42769549563E+03  0.17200000000E+03 0.  1.
</event>
<event>
 4    1  0.6365705E-002  0.1720541E+03  0.7818608E-02  0.1175723E+00
          2   -1    0    0  502    0  0.00000000000E+00  0.00000000000E+00  0.29975927679E+03  0.29975927679E+03  0.00000000000E+00 0. -1.
         -2   -1    0    0    0  501 -0.00000000000E+00 -0.00000000000E+00 -0.24196791763E+03  0.24196791763E+03  0.00000000000E+00 0.  1.
          6    1    1    2  502    0  0.48497392756E+00 -0.42875714282E+01 -0.17948785275E+03  0.24863327966E+03  0.17200000000E+03 0.  1.
         -6    1    1    2    0  501 -0.48497392756E+00  0.42875714282E+01  0.23727921191E+03  0.29309391477E+03  0.17200000000E+03 0. -1.
</event>
<event>
 4    1  0.6365705E-002  0.2297004E+03  0.7818608E-02  0.1126851E+00
         -2   -1    0    0    0  501 -0.00000000000E+00  0.00000000000E+00  0.69100773736E+02  0.69100773736E+02  0.00000000000E+00 0.  1.
          2   -1    0    0  502    0  0.00000000000E+00 -0.00000000000E+00 -0.76394585794E+03  0.76394585794E+03  0.00000000000E+00 0. -1.
          6    1    1    2  502    0 -0.37146218074E+02  0.14764295277E+03 -0.33800837879E+03  0.40867095217E+03  0.17200000000E+03 0. -1.
         -6    1    1    2    0  501  0.37146218074E+02 -0.14764295277E+03 -0.35683670542E+03  0.42437567950E+03  0.17200000000E+03 0.  1.
</event>
<event>
 4    1  0.6365705E-002  0.2614431E+03  0.7818608E-02  0.1106279E+00
          2   -1    0    0  502    0  0.00000000000E+00  0.00000000000E+00  0.26492078700E+04  0.26492078700E+04  0.00000000000E+00 0. -1.
         -2   -1    0    0    0  501 -0.00000000000E+00 -0.00000000000E+00 -0.25884864599E+02  0.25884864599E+02  0.00000000000E+00 0.  1.
          6    1    1    2  502    0 -0.14415674939E+02 -0.19636873313E+03  0.12355758814E+04  0.12629331929E+04  0.17200000000E+03 0.  1.
         -6    1    1    2    0  501  0.14415674939E+02  0.19636873313E+03  0.13877471240E+04  0.14121595417E+04  0.17200000000E+03 0. -1.
</event>
<event>
 4    1  0.6365705E-002  0.3203837E+03  0.7818608E-02  0.1075473E+00
          1   -1    0    0  502    0  0.00000000000E+00  0.00000000000E+00  0.21445416312E+04  0.21445416312E+04  0.00000000000E+00 0. -1.
         -1   -1    0    0    0  501 -0.00000000000E+00 -0.00000000000E+00 -0.19103659881E+03  0.19103659881E+03  0.00000000000E+00 0.  1.
          6    1    1    2  502    0  0.22426761985E+03 -0.15088316333E+03  0.19877185054E+04  0.20133729290E+04  0.17200000000E+03 0. -1.
         -6    1    1    2    0  501 -0.22426761985E+03  0.15088316333E+03 -0.34213473024E+02  0.32220530105E+03  0.17200000000E+03 0.  1.
</event>
<event>
 4    1  0.6365705E-002  0.3758558E+03  0.7818608E-02  0.1052476E+00
         -2   -1    0    0    0  501 -0.00000000000E+00  0.00000000000E+00  0.18126187218E+03  0.18126187218E+03  0.00000000000E+00 0.  1.
          2   -1    0    0  502    0  0.00000000000E+00 -0.00000000000E+00 -0.93552571429E+03  0.93552571429E+03  0.00000000000E+00 0. -1.
          6    1    1    2  502    0 -0.10318384911E+02 -0.33403160700E+03 -0.60527678530E+03  0.71247987366E+03  0.17200000000E+03 0. -1.
         -6    1    1    2    0  501  0.10318384911E+02  0.33403160700E+03 -0.14898705681E+03  0.40430771281E+03  0.17200000000E+03 0.  1.
</event>
<event>
 4    1  0.6365705E-002  0.2231297E+03  0.7818608E-02  0.1131571E+00
         -2   -1    0    0    0  501 -0.00000000000E+00  0.00000000000E+00  0.73967976916E+03  0.73967976916E+03  0.00000000000E+00 0.  1.
          2   -1    0    0  502    0  0.00000000000E+00 -0.00000000000E+00 -0.83202633336E+02  0.83202633336E+02  0.00000000000E+00 0. -1.
          6    1    1    2  502    0 -0.14044023098E+03 -0.21895603852E+02  0.50806564271E+03  0.55490321070E+03  0.17200000000E+03 0.  1.
         -6    1    1    2    0  501  0.14044023098E+03  0.21895603852E+02  0.14841149312E+03  0.26797919180E+03  0.17200000000E+03 0. -1.
</event>
<event>
 4    1  0.6365705E-002  0.4668531E+03  0.7818608E-02  0.1022812E+00
         -1   -1    0    0    0  501 -0.00000000000E+00  0.00000000000E+00  0.24188024400E+03  0.24188024400E+03  0.00000000000E+00 0.  1.
          1   -1    0    0  502    0  0.00000000000E+00 -0.00000000000E+00 -0.99575815899E+03  0.99575815899E+03  0.00000000000E+00 0. -1.
          6    1    1    2  502    0  0.41121401628E+03  0.13881963940E+03 -0.56776024866E+03  0.73505343984E+03  0.17200000000E+03 0. -1.
         -6    1    1    2    0  501 -0.41121401628E+03 -0.13881963940E+03 -0.18611766633E+03  0.50258496315E+03  0.17200000000E+03 0.  1.
</event>
<event>
 4    1  0.6365705E-002  0.4993390E+03  0.7818608E-02  0.1013952E+00
         -2   -1    0    0    0  501 -0.00000000000E+00  0.00000000000E+00  0.23289885658E+03  0.23289885658E+03  0.00000000000E+00 0.  1.
          2   -1    0    0  502    0  0.00000000000E+00 -0.00000000000E+00 -0.10706028816E+04  0.10706028816E+04  0.00000000000E+00 0. -1.
          6    1    1    2  502    0  0.46478570176E+03 -0.61070803587E+02 -0.42103425670E+03  0.65315330277E+03  0.17200000000E+03 0.  1.
         -6    1    1    2    0  501 -0.46478570176E+03  0.61070803587E+02 -0.41666976835E+03  0.65034843543E+03  0.17200000000E+03 0.  1.
</event>
<event>
 4    1  0.6365705E-002  0.2588079E+03  0.7818608E-02  0.1107862E+00
         -2   -1    0    0    0  501 -0.00000000000E+00  0.00000000000E+00  0.18423335214E+03  0.18423335214E+03  0.00000000000E+00 0.  1.
          2   -1    0    0  502    0  0.00000000000E+00 -0.00000000000E+00 -0.36584398680E+03  0.36584398680E+03  0.00000000000E+00 0. -1.
          6    1    1    2  502    0  0.19243955881E+03  0.19092432216E+02 -0.69115733625E+02  0.26787775085E+03  0.17200000000E+03 0. -1.
         -6    1    1    2    0  501 -0.19243955881E+03 -0.19092432216E+02 -0.11249490103E+03  0.28219958809E+03  0.17200000000E+03 0.  1.
</event>
<event>
 4    1  0.6365705E-002  0.2684354E+03  0.7818608E-02  0.1102178E+00
          1   -1    0    0  502    0  0.00000000000E+00  0.00000000000E+00  0.18522766139E+03  0.18522766139E+03  0.00000000000E+00 0. -1.
         -1   -1    0    0    0  501 -0.00000000000E+00 -0.00000000000E+00 -0.40018040692E+03  0.40018040692E+03  0.00000000000E+00 0.  1.
          6    1    1    2  502    0  0.53078246470E+02  0.19913874921E+03 -0.58598563858E+02  0.27475686228E+03  0.17200000000E+03 0. -1.
         -6    1    1    2    0  501 -0.53078246470E+02 -0.19913874921E+03 -0.15635418167E+03  0.31065120603E+03  0.17200000000E+03 0. -1.
</event>
<event>
 4    1  0.6365705E-002  0.4883493E+03  0.7818608E-02  0.1016865E+00
         -2   -1    0    0    0  501 -0.00000000000E+00  0.00000000000E+00  0.30960925015E+03  0.30960925015E+03  0.00000000000E+00 0.  1.
          2   -1    0    0  502    0  0.00000000000E+00 -0.00000000000E+00 -0.13280581877E+04  0.13280581877E+04  0.00000000000E+00 0. -1.
          6    1    1    2  502    0 -0.15092199793E+03 -0.43142037681E+03 -0.10398876591E+04  0.11488478292E+04  0.17200000000E+03 0. -1.
         -6    1    1    2    0  501  0.15092199793E+03  0.43142037681E+03  0.21438721638E+02  0.48881960862E+03  0.17200000000E+03 0.  1.
</event>
<event>
 4    1  0.6365705E-002  0.3621335E+03  0.7818608E-02  0.1057742E+00
          2   -1    0    0  502    0  0.00000000000E+00  0.00000000000E+00  0.28044753149E+04  0.28044753149E+04  0.00000000000E+00 0. -1.
         -2   -1    0    0    0  501 -0.00000000000E+00 -0.00000000000E+00 -0.65171615661E+02  0.65171615661E+02  0.00000000000E+00 0.  1.
          6    1    1    2  502    0  0.25727459173E+03  0.18805969182E+03  0.21322590272E+04  0.21627919970E+04  0.17200000000E+03 0. -1.
         -6    1    1    2    0  501 -0.25727459173E+03 -0.18805969182E+03  0.60704467202E+03  0.70685493354E+03  0.17200000000E+03 0.  1.
</event>
<event>
 4    1  0.6365705E-002  0.2350133E+03  0.7818608E-02  0.1123160E+00
         -2   -1    0    0    0  501 -0.00000000000E+00  0.00000000000E+00  0.21141011274E+02  0.21141011274E+02  0.00000000000E+00 0.  1.
          2   -1    0    0  502    0  0.00000000000E+00 -0.00000000000E+00 -0.31254387731E+04  0.31254387731E+04  0.00000000000E+00 0. -1.
          6    1    1    2  502    0  0.81724710127E+02 -0.13772559609E+03 -0.21894996107E+04  0.22020762506E+04  0.17200000000E+03 0. -1.
         -6    1    1    2    0  501 -0.81724710127E+02  0.13772559609E+03 -0.91479815107E+03  0.94450353375E+03  0.17200000000E+03 0.  1.
</event>
<event>
 4    1  0.6365705E-002  0.2526345E+03  0.7818608E-02  0.1111651E+00
         -2   -1    0    0    0  501 -0.00000000000E+00  0.00000000000E+00  0.67741329170E+02  0.67741329170E+02  0.00000000000E+00 0.  1.
          2   -1    0    0  502    0  0.00000000000E+00 -0.00000000000E+00 -0.11966083071E+04  0.11966083071E+04  0.00000000000E+00 0. -1.
          6    1    1    2  502    0  0.99547206117E+02 -0.15598252259E+03 -0.85593988053E+03  0.89244454880E+03  0.17200000000E+03 0. -1.
         -6    1    1    2    0  501 -0.99547206117E+02  0.15598252259E+03 -0.27292709744E+03  0.37190508751E+03  0.17200000000E+03 0.  1.
</event>
<event>
 4    1  0.6365705E-002  0.1975444E+03  0.7818608E-02  0.1151827E+00
          2   -1    0    0  502    0  0.00000000000E+00  0.00000000000E+00  0.65847714901E+03  0.65847714901E+03  0.00000000000E+00 0. -1.
         -2   -1    0    0    0  501 -0.00000000000E+00 -0.00000000000E+00 -0.64813302324E+02  0.64813302324E+02  0.00000000000E+00 0.  1.
          6    1    1    2  502    0  0.64512405582E+02  0.72649446415E+02  0.19100855679E+03  0.27478730193E+03  0.17200000000E+03 0. -1.
         -6    1    1    2    0  501 -0.64512405582E+02 -0.72649446415E+02  0.40265528990E+03  0.44850314940E+03  0.17200000000E+03 0. -1.
</event>
<event>
 4    1  0.6365705E-002  0.1811176E+03  0.7818608E-02  0.1166726E+00
          2   -1    0    0  502    0  0.00000000000E+00  0.00000000000E+00  0.63676940866E+03  0.63676940866E+03  0.00000000000E+00 0. -1.
         -2   -1    0    0    0  501 -0.00000000000E+00 -0.00000000000E+00 -0.61401055432E+02  0.61401055432E+02  0.00000000000E+00 0.  1.
          6    1    1    2  502    0 -0.56697188116E+02  0.22391204730E+01  0.42775283863E+03  0.46451703495E+03  0.17200000000E+03 0. -1.
         -6    1    1    2    0  501  0.56697188116E+02 -0.22391204730E+01  0.14761551460E+03  0.23365342915E+03  0.17200000000E+03 0.  1.
</event>
<event>
 4    1  0.6365705E-002  0.5946904E+03  0.7818608E-02  0.9916483E-01
         -1   -1    0    0    0  501 -0.00000000000E+00  0.00000000000E+00  0.62121065598E+03  0.62121065598E+03  0.00000000000E+00 0.  1.
          1   -1    0    0  502    0  0.00000000000E+00 -0.00000000000E+00 -0.82275177048E+03  0.82275177048E+03  0.00000000000E+00 0. -1.
          6    1    1    2  502    0  0.24153932406E+03 -0.51549147375E+03 -0.50148695092E+03  0.77791122020E+03  0.17200000000E+03 0. -1.
         -6    1    1    2    0  501 -0.24153932406E+03  0.51549147375E+03  0.29994583642E+03  0.66605120626E+03  0.17200000000E+03 0.  1.
</event>
<event>
 4    1  0.6365705E-002  0.2078828E+03  0.7818608E-02  0.1143254E+00
         -1   -1    0    0    0  501 -0.00000000000E+00  0.00000000000E+00  0.11232879421E+04  0.11232879421E+04  0.00000000000E+00 0.  1.
          1   -1    0    0  502    0  0.00000000000E+00 -0.00000000000E+00 -0.39241829457E+02  0.39241829457E+02  0.00000000000E+00 0. -1.
          6    1    1    2  502    0  0.29058956890E+02 -0.11307883421E+03  0.46061477276E+03  0.50535256466E+03  0.17200000000E+03 0. -1.
         -6    1    1    2    0  501 -0.29058956890E+02  0.11307883421E+03  0.62343133990E+03  0.65717720692E+03  0.17200000000E+03 0.  1.
</event>
<event>
 4    1  0.6365705E-002  0.2108462E+03  0.7818608E-02  0.1140898E+00
          2   -1    0    0  502    0  0.00000000000E+00  0.00000000000E+00  0.30969820347E+04  0.30969820347E+04  0.00000000000E+00 0. -1.
         -2   -1    0    0    0  501 -0.00000000000E+00 -0.00000000000E+00 -0.16247283633E+02  0.16247283633E+02  0.00000000000E+00 0.  1.
          6    1    1    2  502    0 -0.51486178358E+01  0.12184253771E+03  0.20716471761E+04  0.20823491865E+04  0.17200000000E+03 0. -1.
         -6    1    1    2    0  501  0.51486178358E+01 -0.12184253771E+03  0.10090875749E+04  0.10308801318E+04  0.17200000000E+03 0.  1.
</event>
<event>
 4    1  0.6365705E-002  0.4091509E+03  0.7818608E-02  0.1040656E+00
          2   -1    0    0  502    0  0.00000000000E+00  0.00000000000E+00  0.12424912745E+04  0.12424912745E+04  0.00000000000E+00 0. -1.
         -2   -1    0    0    0  501 -0.00000000000E+00 -0.00000000000E+00 -0.16080290743E+03  0.16080290743E+03  0.00000000000E+00 0.  1.
          6    1    1    2  502    0  0.73673309392E+01 -0.37116866622E+03  0.82335971805E+03  0.91941594594E+03  0.17200000000E+03 0. -1.
         -6    1    1    2    0  501 -0.73673309392E+01  0.37116866622E+03  0.25832864903E+03  0.48387823599E+03  0.17200000000E+03 0.  1.
</event>
<event>
 4    1  0.6365705E-002  0.1853909E+03  0.7818608E-02  0.1162685E+00
          2   -1    0    0  502    0  0.00000000000E+00  0.00000000000E+00  0.66660450705E+03  0.66660450705E+03  0.00000000000E+00 0. -1.
         -2   -1    0    0    0  501 -0.00000000000E+00 -0.00000000000E+00 -0.59490313882E+02  0.59490313882E+02  0.00000000000E+00 0.  1.
          6    1    1    2  502    0  0.67426120455E+02 -0.15475585691E+02  0.17100094174E+03  0.25221240562E+03  0.17200000000E+03 0. -1.
         -6    1    1    2    0  501 -0.67426120455E+02  0.15475585691E+02  0.43611325143E+03  0.47388241531E+03  0.17200000000E+03 0. -1.
</event>
<event>
 4    1  0.6365705E-002  0.1905339E+03  0.7818608E-02  0.1157981E+00
          2   -1    0    0  502    0  0.00000000000E+00  0.00000000000E+00  0.21315050452E+04  0.21315050452E+04  0.00000000000E+00 0. -1.
         -2   -1    0    0    0  501 -0.00000000000E+00 -0.00000000000E+00 -0.17550166225E+02  0.17550166225E+02  0.00000000000E+00 0.  1.
          6    1    1    2  502    0  0.14132365607E+02  0.80743148451E+02  0.87229218439E+03  0.89285879887E+03  0.17200000000E+03 0. -1.
         -6    1    1    2    0  501 -0.14132365607E+02 -0.80743148451E+02  0.12416626946E+04  0.12561964125E+04  0.17200000000E+03 0. -1.
</event>
<event>
 4    1  0.6365705E-002  0.3348508E+03  0.7818608E-02  0.1069010E+00
         -2   -1    0    0    0  501 -0.00000000000E+00  0.00000000000E+00  0.13354347997E+03  0.13354347997E+03  0.00000000000E+00 0.  1.
          2   -1    0    0  502    0  0.00000000000E+00 -0.00000000000E+00 -0.96893891824E+03  0.96893891824E+03  0.00000000000E+00 0. -1.
          6    1    1    2  502    0 -0.27896022488E+03 -0.68718723270E+02 -0.61908562482E+03  0.70384094855E+03  0.17200000000E+03 0. -1.
         -6    1    1    2    0  501  0.27896022488E+03  0.68718723270E+02 -0.21630981344E+03  0.39864144966E+03  0.17200000000E+03 0.  1.
</event>
<event>
 4    1  0.6365705E-002  0.4859229E+03  0.7818608E-02  0.1017520E+00
         -1   -1    0    0    0  501 -0.00000000000E+00  0.00000000000E+00  0.22005256765E+03  0.22005256765E+03  0.00000000000E+00 0.  1.
          1   -1    0    0  502    0  0.00000000000E+00 -0.00000000000E+00 -0.19209965921E+04  0.19209965921E+04  0.00000000000E+00 0. -1.
          6    1    1    2  502    0 -0.34132157056E+02 -0.45317999196E+03 -0.15617263456E+04  0.16355764390E+04  0.17200000000E+03 0. -1.
         -6    1    1    2    0  501  0.34132157056E+02  0.45317999196E+03 -0.13921767876E+03  0.50547272067E+03  0.17200000000E+03 0.  1.
</event>
<event>
 4    1  0.6365705E-002  0.1722684E+03  0.7818608E-02  0.1175503E+00
         -2   -1    0    0    0  501 -0.00000000000E+00  0.00000000000E+00  0.12493444369E+02  0.12493444369E+02  0.00000000000E+00 0.  1.
          2   -1    0    0  502    0  0.00000000000E+00 -0.00000000000E+00 -0.34303999680E+04  0.34303999680E+04  0.00000000000E+00 0. -1.
          6    1    1    2  502    0 -0.90715223411E+01  0.31778851825E+01 -0.75427669993E+03  0.77369873434E+03  0.17200000000E+03 0.  1.
         -6    1    1    2    0  501  0.90715223411E+01 -0.31778851825E+01 -0.26636298237E+04  0.26691946780E+04  0.17200000000E+03 0. -1.
</event>
<event>
 4    1  0.6365705E-002  0.1822745E+03  0.7818608E-02  0.1165620E+00
          2   -1    0    0  502    0  0.00000000000E+00  0.00000000000E+00  0.54381550468E+03  0.54381550468E+03  0.00000000000E+00 0. -1.
         -2   -1    0    0    0  501 -0.00000000000E+00 -0.00000000000E+00 -0.73086929546E+02  0.73086929546E+02  0.00000000000E+00 0.  1.
          6    1    1    2  502    0 -0.89614001718E+01  0.59663157221E+02  0.11041758766E+03  0.21311040023E+03  0.17200000000E+03 0. -1.
         -6    1    1    2    0  501  0.89614001718E+01 -0.59663157221E+02  0.36031098747E+03  0.40379203399E+03  0.17200000000E+03 0. -1.
</event>
<event>
 4    1  0.6365705E-002  0.5965408E+03  0.7818608E-02  0.9912609E-01
         -2   -1    0    0    0  501 -0.00000000000E+00  0.00000000000E+00  0.23774220813E+03  0.23774220813E+03  0.00000000000E+00 0.  1.
          2   -1    0    0  502    0  0.00000000000E+00 -0.00000000000E+00 -0.20435110306E+04  0.20435110306E+04  0.00000000000E+00 0. -1.
          6    1    1    2  502    0  0.24078292713E+03  0.51797732068E+03 -0.14928408125E+04  0.16076176829E+04  0.17200000000E+03 0. -1.
         -6    1    1    2    0  501 -0.24078292713E+03 -0.51797732068E+03 -0.31292801000E+03  0.67363555590E+03  0.17200000000E+03 0. -1.
</event>
<event>
 4    1  0.6365705E-002  0.2018960E+03  0.7818608E-02  0.1148149E+00
         -2   -1    0    0    0  501 -0.00000000000E+00  0.00000000000E+00  0.74205331798E+02  0.74205331798E+02  0.00000000000E+00 0.  1.
          2   -1    0    0  502    0  0.00000000000E+00 -0.00000000000E+00 -0.84219728416E+03  0.84219728416E+03  0.00000000000E+00 0. -1.
          6    1    1    2  502    0 -0.36267043027E+02  0.99311162410E+02 -0.65420317882E+03  0.68464867236E+03  0.17200000000E+03 0. -1.
         -6    1    1    2    0  501  0.36267043027E+02 -0.99311162410E+02 -0.11378877355E+03  0.23175394360E+03  0.17200000000E+03 0.  1.
</event>
<event>
 4    1  0.6365705E-002  0.1945987E+03  0.7818608E-02  0.1154378E+00
          1   -1    0    0  502    0  0.00000000000E+00  0.00000000000E+00  0.15066908049E+04  0.15066908049E+04  0.00000000000E+00 0. -1.
         -1   -1    0    0    0  501 -0.00000000000E+00 -0.00000000000E+00 -0.29626996529E+02  0.29626996529E+02  0.00000000000E+00 0.  1.
          6    1    1    2  502    0 -0.90752815881E+02  0.69705040765E+01  0.10376836208E+04  0.10557726831E+04  0.17200000000E+03 0. -1.
         -6    1    1    2    0  501  0.90752815881E+02 -0.69705040765E+01  0.43938018763E+03  0.48054511838E+03  0.17200000000E+03 0.  1.
</event>
<event>
 4    1  0.6365705E-002  0.1847600E+03  0.7818608E-02  0.1163274E+00
          2   -1    0    0  502    0  0.00000000000E+00  0.00000000000E+00  0.11800671925E+03  0.11800671925E+03  0.00000000000E+00 0. -1.
         -2   -1    0    0    0  501 -0.00000000000E+00 -0.00000000000E+00 -0.33933160209E+03  0.33933160209E+03  0.00000000000E+00 0.  1.
          6    1    1    2  502    0  0.66971965544E+02  0.81868519529E+01 -0.22834900781E+02  0.18616579011E+03  0.17200000000E+03 0. -1.
         -6    1    1    2    0  501 -0.66971965544E+02 -0.81868519529E+01 -0.19848998206E+03  0.27117253122E+03  0.17200000000E+03 0.  1.
</event>
<event>
 4    1  0.6365705E-002  0.1893625E+03  0.7818608E-02  0.1159038E+00
          2   -1    0    0  502    0  0.00000000000E+00  0.00000000000E+00  0.20357186411E+03  0.20357186411E+03  0.00000000000E+00 0. -1.
         -2   -1    0    0    0  501 -0.00000000000E+00 -0.00000000000E+00 -0.18583149901E+03  0.18583149901E+03  0.00000000000E+00 0.  1.
          6    1    1    2  502    0  0.16317470123E+02 -0.77510696188E+02  0.53322381832E+02  0.19672682649E+03  0.17200000000E+03 0.  1.
         -6    1    1    2    0  501 -0.16317470123E+02  0.77510696188E+02 -0.35582016739E+02  0.19267653664E+03  0.17200000000E+03 0.  1.
</event>
<event>
 4    1  0.6365705E-002  0.3797945E+03  0.7818608E-02  0.1051010E+00
          2   -1    0    0  502    0  0.00000000000E+00  0.00000000000E+00  0.35246545119E+03  0.35246545119E+03  0.00000000000E+00 0. -1.
         -2   -1    0    0    0  501 -0.00000000000E+00 -0.00000000000E+00 -0.51159037011E+03  0.51159037011E+03  0.00000000000E+00 0.  1.
          6    1    1    2  502    0 -0.12504355641E+03 -0.31468074624E+03  0.11367437068E+03  0.39644132681E+03  0.17200000000E+03 0. -1.
         -6    1    1    2    0  501  0.12504355641E+03  0.31468074624E+03 -0.27279928961E+03  0.46761449449E+03  0.17200000000E+03 0.  1.
</event>
<event>
 4    1  0.6365705E-002  0.2302870E+03  0.7818608E-02  0.1126438E+00
          2   -1    0    0  502    0  0.00000000000E+00  0.00000000000E+00  0.38722315456E+03  0.38722315456E+03  0.00000000000E+00 0. -1.
         -2   -1    0    0    0  501 -0.00000000000E+00 -0.00000000000E+00 -0.49249421140E+03  0.49249421140E+03  0.00000000000E+00 0.  1.
          6    1    1    2  502    0  0.15178816225E+03 -0.20210470653E+02 -0.42636419934E+03  0.48458078769E+03  0.17200000000E+03 0.  1.
         -6    1    1    2    0  501 -0.15178816225E+03  0.20210470653E+02  0.32109314250E+03  0.39513657826E+03  0.17200000000E+03 0. -1.
</event>
<event>
 4    1  0.6365705E-002  0.2647684E+03  0.7818608E-02  0.1104312E+00
          1   -1    0    0  502    0  0.00000000000E+00  0.00000000000E+00  0.24454062678E+03  0.24454062678E+03  0.00000000000E+00 0. -1.
         -1   -1    0    0    0  501 -0.00000000000E+00 -0.00000000000E+00 -0.32860264488E+03  0.32860264488E+03  0.00000000000E+00 0.  1.
          6    1    1    2  502    0  0.18478031221E+03 -0.79840818047E+02  0.60339956465E+02  0.27155704806E+03  0.17200000000E+03 0. -1.
         -6    1    1    2    0  501 -0.18478031221E+03  0.79840818047E+02 -0.14440197457E+03  0.30158622360E+03  0.17200000000E+03 0.  1.
</event>
<event>
 4    1  0.6365705E-002  0.4869690E+03  0.7818608E-02  0.1017237E+00
         -2   -1    0    0    0  501 -0.00000000000E+00  0.00000000000E+00  0.48079496161E+03  0.48079496161E+03  0.00000000000E+00 0.  1.
          2   -1    0    0  502    0  0.00000000000E+00 -0.00000000000E+00 -0.72478433018E+03  0.72478433018E+03  0.00000000000E+00 0. -1.
          6    1    1    2  502    0  0.17316165362E+03  0.42139034212E+03 -0.46271269834E+03  0.67174535347E+03  0.17200000000E+03 0. -1.
         -6    1    1    2    0  501 -0.17316165362E+03 -0.42139034212E+03  0.21872332976E+03  0.53383393831E+03  0.17200000000E+03 0.  1.
</event>
<event>
 4    1  0.6365705E-002  0.4938368E+03  0.7818608E-02  0.1015400E+00
         -1   -1    0    0    0  501 -0.00000000000E+00  0.00000000000E+00  0.20360908080E+03  0.20360908080E+03  0.00000000000E+00 0.  1.
          1   -1    0    0  502    0  0.00000000000E+00 -0.00000000000E+00 -0.12442447908E+04  0.12442447908E+04  0.00000000000E+00 0. -1.
          6    1    1    2  502    0  0.34119449484E+03 -0.31285323510E+03 -0.66024335312E+03  0.82449749263E+03  0.17200000000E+03 0. -1.
         -6    1    1    2    0  501 -0.34119449484E+03  0.31285323510E+03 -0.38039235689E+03  0.62335637896E+03  0.17200000000E+03 0.  1.
</event>
<event>
 4    1  0.6365705E-002  0.4337905E+03  0.7818608E-02  0.1032669E+00
         -2   -1    0    0    0  501 -0.00000000000E+00  0.00000000000E+00  0.80803565423E+03  0.80803565423E+03  0.00000000000E+00 0.  1.
          2   -1    0    0  502    0  0.00000000000E+00 -0.00000000000E+00 -0.43811205774E+03  0.43811205774E+03  0.00000000000E+00 0. -1.
          6    1    1    2  502    0 -0.35569713168E+03  0.17908026079E+03 -0.24149106674E+03  0.49647973233E+03  0.17200000000E+03 0. -1.
         -6    1    1    2    0  501  0.35569713168E+03 -0.17908026079E+03  0.61141466323E+03  0.74966797965E+03  0.17200000000E+03 0.  1.
</event>
<event>
 4    1  0.6365705E-002  0.2104083E+03  0.7818608E-02  0.1141243E+00
          2   -1    0    0  502    0  0.00000000000E+00  0.00000000000E+00  0.75521723554E+03  0.75521723554E+03  0.00000000000E+00 0. -1.
         -2   -1    0    0    0  501 -0.00000000000E+00 -0.00000000000E+00 -0.58649926304E+02  0.58649926304E+02  0.00000000000E+00 0.  1.
          6    1    1    2  502    0  0.57462437826E+02 -0.10670392971E+03  0.33926106382E+03  0.39921138486E+03  0.17200000000E+03 0. -1.
         -6    1    1    2    0  501 -0.57462437826E+02  0.10670392971E+03  0.35730624541E+03  0.41465577698E+03  0.17200000000E+03 0.  1.
</event>
<event>
 4    1  0.6365705E-002  0.1746265E+03  0.7818608E-02  0.1173107E+00
          1   -1    0    0  502    0  0.00000000000E+00  0.00000000000E+00  0.28279186003E+03  0.28279186003E+03  0.00000000000E+00 0. -1.
         -1   -1    0    0    0  501 -0.00000000000E+00 -0.00000000000E+00 -0.19499883006E+03  0.19499883006E+03  0.00000000000E+00 0.  1.
          6    1    1    2  502    0 -0.42095522798E+01  0.29878132332E+02  0.20361812816E+03  0.26824385405E+03  0.17200000000E+03 0. -1.
         -6    1    1    2    0  501  0.42095522798E+01 -0.29878132332E+02 -0.11582509819E+03  0.20954683604E+03  0.17200000000E+03 0.  1.
</event>
<event>
 4    1  0.6365705E-002  0.1843496E+03  0.7818608E-02  0.1163659E+00
          1   -1    0    0  502    0  0.00000000000E+00  0.00000000000E+00  0.84050579704E+03  0.84050579704E+03  0.00000000000E+00 0. -1.
         -1   -1    0    0    0  501 -0.00000000000E+00 -0.00000000000E+00 -0.44167968843E+02  0.44167968843E+02  0.00000000000E+00 0.  1.
          6    1    1    2  502    0  0.29294733384E+02 -0.59519669876E+02  0.26955104427E+03  0.32656169092E+03  0.17200000000E+03 0.  1.
         -6    1    1    2    0  501 -0.29294733384E+02  0.59519669876E+02  0.52678678393E+03  0.55811207497E+03  0.17200000000E+03 0. -1.
</event>
<event>
 4    1  0.6365705E-002  0.2530393E+03  0.7818608E-02  0.1111399E+00
         -2   -1    0    0    0  501 -0.00000000000E+00  0.00000000000E+00  0.81744898091E+02  0.81744898091E+02  0.00000000000E+00 0.  1.
          2   -1    0    0  502    0  0.00000000000E+00 -0.00000000000E+00 -0.80187724271E+03  0.80187724271E+03  0.00000000000E+00 0. -1.
          6    1    1    2  502    0  0.12454420883E+03 -0.13759951548E+03 -0.42735510794E+03  0.49665005275E+03  0.17200000000E+03 0.  1.
         -6    1    1    2    0  501 -0.12454420883E+03  0.13759951548E+03 -0.29277723667E+03  0.38697208805E+03  0.17200000000E+03 0.  1.
</event>
<event>
 4    1  0.6365705E-002  0.2152259E+03  0.7818608E-02  0.1137493E+00
          1   -1    0    0  502    0  0.00000000000E+00  0.00000000000E+00  0.29250670708E+03  0.29250670708E+03  0.00000000000E+00 0. -1.
         -1   -1    0    0    0  501 -0.00000000000E+00 -0.00000000000E+00 -0.30373144675E+03  0.30373144675E+03  0.00000000000E+00 0.  1.
          6    1    1    2  502    0  0.24487069321E+02  0.12703762446E+03  0.20063114230E+03  0.29423635033E+03  0.17200000000E+03 0. -1.
         -6    1    1    2    0  501 -0.24487069321E+02 -0.12703762446E+03 -0.21185588197E+03  0.30200180350E+03  0.17200000000E+03 0.  1.
</event>
<event>
 4    1  0.6365705E-002  0.4767431E+03  0.7818608E-02  0.1020034E+00
         -2   -1    0    0    0  501 -0.00000000000E+00  0.00000000000E+00  0.62134613812E+03  0.62134613812E+03  0.00000000000E+00 0.  1.
          2   -1    0    0  502    0  0.00000000000E+00 -0.00000000000E+00 -0.67608019148E+03  0.67608019148E+03  0.00000000000E+00 0. -1.
          6    1    1    2  502    0  0.36383192749E+03  0.25559007648E+03 -0.46684352240E+03  0.66725320011E+03  0.17200000000E+03 0. -1.
         -6    1    1    2    0  501 -0.36383192749E+03 -0.25559007648E+03  0.41210946904E+03  0.63017312949E+03  0.17200000000E+03 0.  1.
</event>
<event>
 4    1  0.6365705E-002  0.2073565E+03  0.7818608E-02  0.1143677E+00
         -1   -1    0    0    0  501 -0.00000000000E+00  0.00000000000E+00  0.10086580431E+04  0.10086580431E+04  0.00000000000E+00 0.  1.
          1   -1    0    0  502    0  0.00000000000E+00 -0.00000000000E+00 -0.61274371198E+02  0.61274371198E+02  0.00000000000E+00 0. -1.
          6    1    1    2  502    0 -0.41341063526E+02  0.10818341602E+03  0.17857906342E+03  0.27365528850E+03  0.17200000000E+03 0. -1.
         -6    1    1    2    0  501  0.41341063526E+02 -0.10818341602E+03  0.76880460845E+03  0.79627712576E+03  0.17200000000E+03 0.  1.
</event>
<event>
 4    1  0.6365705E-002  0.2326873E+03  0.7818608E-02  0.1124762E+00
          2   -1    0    0  502    0  0.00000000000E+00  0.00000000000E+00  0.49857821277E+02  0.49857821277E+02  0.00000000000E+00 0. -1.
         -2   -1    0    0    0  501 -0.00000000000E+00 -0.00000000000E+00 -0.12570180883E+04  0.12570180883E+04  0.00000000000E+00 0.  1.
          6    1    1    2  502    0  0.11560259251E+03 -0.10580846762E+03 -0.36252815206E+03  0.43077842593E+03  0.17200000000E+03 0. -1.
         -6    1    1    2    0  501 -0.11560259251E+03  0.10580846762E+03 -0.84463211495E+03  0.87609748362E+03  0.17200000000E+03 0.  1.
</event>
<event>
 4    1  0.6365705E-002  0.4949876E+03  0.7818608E-02  0.1015096E+00
          1   -1    0    0  502    0  0.00000000000E+00  0.00000000000E+00  0.61136054452E+03  0.61136054452E+03  0.00000000000E+00 0. -1.
         -1   -1    0    0    0  501 -0.00000000000E+00 -0.00000000000E+00 -0.51221696219E+03  0.51221696219E+03  0.00000000000E+00 0.  1.
          6    1    1    2  502    0 -0.29777346439E+03 -0.35603325683E+03  0.31162371284E+03  0.58491200575E+03  0.17200000000E+03 0. -1.
         -6    1    1    2    0  501  0.29777346439E+03  0.35603325683E+03 -0.21248013052E+03  0.53866550096E+03  0.17200000000E+03 0.  1.
</event>
<event>
 4    1  0.6365705E-002  0.2160995E+03  0.7818608E-02  0.1136825E+00
          2   -1    0    0  502    0  0.00000000000E+00  0.00000000000E+00  0.87579742709E+03  0.87579742709E+03  0.00000000000E+00 0. -1.
         -2   -1    0    0    0  501 -0.00000000000E+00 -0.00000000000E+00 -0.54100142477E+02  0.54100142477E+02  0.00000000000E+00 0.  1.
          6    1    1    2  502    0 -0.60014859014E+01  0.13068653186E+03  0.46662184934E+03  0.51423237716E+03  0.17200000000E+03 0. -1.
         -6    1    1    2    0  501  0.60014859014E+01 -0.13068653186E+03  0.35507543528E+03  0.41566519241E+03  0.17200000000E+03 0.  1.
</event>
<event>
 4    1  0.6365705E-002  0.6404170E+03  0.7818608E-02  0.9824929E-01
         -2   -1    0    0    0  501 -0.00000000000E+00  0.00000000000E+00  0.38259075593E+03  0.38259075593E+03  0.00000000000E+00 0.  1.
          2   -1    0    0  502    0  0.00000000000E+00 -0.00000000000E+00 -0.24006210452E+04  0.24006210452E+04  0.00000000000E+00 0. -1.
          6    1    1    2  502    0 -0.60467147796E+03 -0.12215704870E+03 -0.20442918725E+04  0.21422565675E+04  0.17200000000E+03 0. -1.
         -6    1    1    2    0  501  0.60467147796E+03  0.12215704870E+03  0.26261583243E+02  0.64095523367E+03  0.17200000000E+03 0.  1.
</event>
<event>
 4    1  0.6365705E-002  0.3777630E+03  0.7818608E-02  0.1051764E+00
          2   -1    0    0  502    0  0.00000000000E+00  0.00000000000E+00  0.24860558416E+03  0.24860558416E+03  0.00000000000E+00 0. -1.
         -2   -1    0    0    0  501 -0.00000000000E+00 -0.00000000000E+00 -0.23922738915E+04  0.23922738915E+04  0.00000000000E+00 0.  1.
          6    1    1    2  502    0  0.20264256879E+03  0.26843411950E+03  0.79337930539E+02  0.38600439689E+03  0.17200000000E+03 0. -1.
         -6    1    1    2    0  501 -0.20264256879E+03 -0.26843411950E+03 -0.22230062379E+04  0.22548750788E+04  0.17200000000E+03 0.  1.
</event>
<event>
 4    1  0.6365705E-002  0.2353722E+03  0.7818608E-02  0.1122915E+00
          2   -1    0    0  502    0  0.00000000000E+00  0.00000000000E+00  0.48623808890E+03  0.48623808890E+03  0.00000000000E+00 0. -1.
         -2   -1    0    0    0  501 -0.00000000000E+00 -0.00000000000E+00 -0.12619327408E+03  0.12619327408E+03  0.00000000000E+00 0.  1.
          6    1    1    2  502    0 -0.15965448966E+03 -0.18070172034E+02  0.84588231053E+02  0.25011048762E+03  0.17200000000E+03 0.  1.
         -6    1    1    2    0  501  0.15965448966E+03  0.18070172034E+02  0.27545658376E+03  0.36232087536E+03  0.17200000000E+03 0.  1.
</event>
<event>
 4    1  0.6365705E-002  0.1990303E+03  0.7818608E-02  0.1150560E+00
         -2   -1    0    0    0  501 -0.00000000000E+00  0.00000000000E+00  0.51118921024E+02  0.51118921024E+02  0.00000000000E+00 0.  1.
          2   -1    0    0  502    0  0.00000000000E+00 -0.00000000000E+00 -0.89911109895E+03  0.89911109895E+03  0.00000000000E+00 0. -1.
          6    1    1    2  502    0  0.14335127747E+02 -0.99113940342E+02 -0.60057445155E+03  0.63269482447E+03  0.17200000000E+03 0. -1.
         -6    1    1    2    0  501 -0.14335127747E+02  0.99113940342E+02 -0.24741772638E+03  0.31753519550E+03  0.17200000000E+03 0.  1.
</event>
<event>
 4    1  0.6365705E-002  0.2378591E+03  0.7818608E-02  0.1121227E+00
          1   -1    0    0  502    0  0.00000000000E+00  0.00000000000E+00  0.36628573362E+03  0.36628573362E+03  0.00000000000E+00 0. -1.
         -1   -1    0    0    0  501 -0.00000000000E+00 -0.00000000000E+00 -0.15448724912E+03  0.15448724912E+03  0.00000000000E+00 0.  1.
          6    1    1    2  502    0  0.59656100198E+02 -0.15308207596E+03  0.10252485509E+03  0.25901412738E+03  0.17200000000E+03 0. -1.
         -6    1    1    2    0  501 -0.59656100198E+02  0.15308207596E+03  0.10927362942E+03  0.26175885536E+03  0.17200000000E+03 0.  1.
</event>
<event>
 4    1  0.6365705E-002  0.1753296E+03  0.7818608E-02  0.1172401E+00
         -2   -1    0    0    0  501 -0.00000000000E+00  0.00000000000E+00  0.28364322266E+03  0.28364322266E+03  0.00000000000E+00 0.  1.
          2   -1    0    0  502    0  0.00000000000E+00 -0.00000000000E+00 -0.11131491007E+03  0.11131491007E+03  0.00000000000E+00 0. -1.
          6    1    1    2  502    0 -0.25665581877E+02  0.22310296254E+02  0.54083338075E+02  0.18348154913E+03  0.17200000000E+03 0. -1.
         -6    1    1    2    0  501  0.25665581877E+02 -0.22310296254E+02  0.11824497452E+03  0.21147658360E+03  0.17200000000E+03 0.  1.
</event>
<event>
 4    1  0.6365705E-002  0.1952960E+03  0.7818608E-02  0.1153770E+00
         -1   -1    0    0    0  501 -0.00000000000E+00  0.00000000000E+00  0.48255120993E+03  0.48255120993E+03  0.00000000000E+00 0.  1.
          1   -1    0    0  502    0  0.00000000000E+00 -0.00000000000E+00 -0.84801965456E+02  0.84801965456E+02  0.00000000000E+00 0. -1.
          6    1    1    2  502    0 -0.16038960496E+02 -0.91100462949E+02  0.12492606907E+03  0.23183413325E+03  0.17200000000E+03 0. -1.
         -6    1    1    2    0  501  0.16038960496E+02  0.91100462949E+02  0.27282317540E+03  0.33551904214E+03  0.17200000000E+03 0.  1.
</event>
<event>
 4    1  0.6365705E-002  0.1917162E+03  0.7818608E-02  0.1156923E+00
         -2   -1    0    0    0  501 -0.00000000000E+00  0.00000000000E+00  0.68060803583E+02  0.68060803583E+02  0.00000000000E+00 0.  1.
          2   -1    0    0  502    0  0.00000000000E+00 -0.00000000000E+00 -0.54394743683E+03  0.54394743683E+03  0.00000000000E+00 0. -1.
          6    1    1    2  502    0  0.55821813871E+02 -0.63679013589E+02 -0.21198515769E+03  0.28581952130E+03  0.17200000000E+03 0.  1.
         -6    1    1    2    0  501 -0.55821813871E+02  0.63679013589E+02 -0.26390147556E+03  0.32618871912E+03  0.17200000000E+03 0.  1.
</event>
<event>
 4    1  0.6365705E-002  0.2219699E+03  0.7818608E-02  0.1132423E+00
          1   -1    0    0  502    0  0.00000000000E+00  0.00000000000E+00  0.16296920216E+03  0.16296920216E+03  0.00000000000E+00 0. -1.
         -1   -1    0    0    0  501 -0.00000000000E+00 -0.00000000000E+00 -0.46469198957E+03  0.46469198957E+03  0.00000000000E+00 0.  1.
          6    1    1    2  502    0 -0.46371376228E+02  0.13242482145E+03  0.34642728980E+02  0.22465697528E+03  0.17200000000E+03 0. -1.
         -6    1    1    2    0  501  0.46371376228E+02 -0.13242482145E+03 -0.33636551639E+03  0.40300421646E+03  0.17200000000E+03 0.  1.
</event>
<event>
 4    1  0.6365705E-002  0.2601299E+03  0.7818608E-02  0.1107065E+00
          3   -1    0    0  502    0  0.00000000000E+00  0.00000000000E+00  0.22996056003E+03  0.22996056003E+03  0.00000000000E+00 0. -1.
         -3   -1    0    0    0  501 -0.00000000000E+00 -0.00000000000E+00 -0.29977839546E+03  0.29977839546E+03  0.00000000000E+00 0.  1.
          6    1    1    2  502    0  0.16520516397E+03  0.10387893825E+03 -0.70854313030E+02  0.26960696150E+03  0.17200000000E+03 0. -1.
         -6    1    1    2    0  501 -0.16520516397E+03 -0.10387893825E+03  0.10364775937E+01  0.26013199399E+03  0.17200000000E+03 0. -1.
</event>
<event>
 4    1  0.6365705E-002  0.2489304E+03  0.7818608E-02  0.1113983E+00
          1   -1    0    0  502    0  0.00000000000E+00  0.00000000000E+00  0.23937745761E+03  0.23937745761E+03  0.00000000000E+00 0. -1.
         -1   -1    0    0    0  501 -0.00000000000E+00 -0.00000000000E+00 -0.28819628774E+03  0.28819628774E+03  0.00000000000E+00 0.  1.
          6    1    1    2  502    0 -0.14686339745E+03 -0.10398800312E+03 -0.10856387323E+03  0.27157407253E+03  0.17200000000E+03 0.  1.
         -6    1    1    2    0  501  0.14686339745E+03  0.10398800312E+03  0.59745043098E+02  0.25599967281E+03  0.17200000000E+03 0. -1.
</event>
<event>
 4    1  0.6365705E-002  0.2459925E+03  0.7818608E-02  0.1115864E+00
         -2   -1    0    0    0  501 -0.00000000000E+00  0.00000000000E+00  0.19154135137E+02  0.19154135137E+02  0.00000000000E+00 0.  1.
          2   -1    0    0  502    0  0.00000000000E+00 -0.00000000000E+00 -0.33796761058E+04  0.33796761058E+04  0.00000000000E+00 0. -1.
          6    1    1    2  502    0 -0.16019084837E+03  0.72575366009E+02 -0.12462362049E+04  0.12702822403E+04  0.17200000000E+03 0. -1.
         -6    1    1    2    0  501  0.16019084837E+03 -0.72575366009E+02 -0.21142857658E+04  0.21285480006E+04  0.17200000000E+03 0.  1.
</event>
<event>
 4    1  0.6365705E-002  0.2175043E+03  0.7818608E-02  0.1135757E+00
         -1   -1    0    0    0  501 -0.00000000000E+00  0.00000000000E+00  0.43344884713E+02  0.43344884713E+02  0.00000000000E+00 0.  1.
          1   -1    0    0  502    0  0.00000000000E+00 -0.00000000000E+00 -0.11168019024E+04  0.11168019024E+04  0.00000000000E+00 0. -1.
          6    1    1    2  502    0 -0.30837171902E+02  0.12951136507E+03 -0.62415206577E+03  0.66096439092E+03  0.17200000000E+03 0. -1.
         -6    1    1    2    0  501  0.30837171902E+02 -0.12951136507E+03 -0.44930495187E+03  0.49918239615E+03  0.17200000000E+03 0.  1.
</event>
<event>
 4    1  0.6365705E-002  0.2604514E+03  0.7818608E-02  0.1106872E+00
         -2   -1    0    0    0  501 -0.00000000000E+00  0.00000000000E+00  0.42199884204E+02  0.42199884204E+02  0.00000000000E+00 0.  1.
          2   -1    0    0  502    0  0.00000000000E+00 -0.00000000000E+00 -0.16259874243E+04  0.16259874243E+04  0.00000000000E+00 0. -1.
          6    1    1    2  502    0  0.19408779822E+03  0.24100503557E+02 -0.70287420595E+03  0.74957791928E+03  0.17200000000E+03 0.  1.
         -6    1    1    2    0  501 -0.19408779822E+03 -0.24100503557E+02 -0.88091333415E+03  0.91860938922E+03  0.17200000000E+03 0.  1.
</event>
<event>
 4    1  0.6365705E-002  0.3595607E+03  0.7818608E-02  0.1058758E+00
         -4   -1    0    0    0  501 -0.00000000000E+00  0.00000000000E+00  0.95700963366E+03  0.95700963366E+03  0.00000000000E+00 0.  1.
          4   -1    0    0  502    0  0.00000000000E+00 -0.00000000000E+00 -0.31833861271E+03  0.31833861271E+03  0.00000000000E+00 0. -1.
          6    1    1    2  502    0  0.91550458605E+02 -0.30218939483E+03 -0.16447204072E+03  0.39539217114E+03  0.17200000000E+03 0. -1.
         -6    1    1    2    0  501 -0.91550458605E+02  0.30218939483E+03  0.80314306167E+03  0.87995607523E+03  0.17200000000E+03 0.  1.
</event>
<event>
 4    1  0.6365705E-002  0.2238338E+03  0.7818608E-02  0.1131057E+00
          2   -1    0    0  502    0  0.00000000000E+00  0.00000000000E+00  0.20823361644E+03  0.20823361644E+03  0.00000000000E+00 0. -1.
         -2   -1    0    0    0  501 -0.00000000000E+00 -0.00000000000E+00 -0.26321406119E+03  0.26321406119E+03  0.00000000000E+00 0.  1.
          6    1    1    2  502    0  0.12999246137E+03 -0.60162665074E+02 -0.96579647783E+02  0.24378107935E+03  0.17200000000E+03 0.  1.
         -6    1    1    2    0  501 -0.12999246137E+03  0.60162665074E+02  0.41599203026E+02  0.22766659828E+03  0.17200000000E+03 0. -1.
</event>
<event>
 4    1  0.6365705E-002  0.1938535E+03  0.7818608E-02  0.1155031E+00
          1   -1    0    0  502    0  0.00000000000E+00  0.00000000000E+00  0.12156524328E+04  0.12156524328E+04  0.00000000000E+00 0. -1.
         -1   -1    0    0    0  501 -0.00000000000E+00 -0.00000000000E+00 -0.52004467022E+02  0.52004467022E+02  0.00000000000E+00 0.  1.
          6    1    1    2  502    0  0.34199859176E+02 -0.82616849109E+02  0.17817185129E+03  0.26329523869E+03  0.17200000000E+03 0.  1.
         -6    1    1    2    0  501 -0.34199859176E+02  0.82616849109E+02  0.98547611447E+03  0.10043616611E+04  0.17200000000E+03 0. -1.
</event>
<event>
 4    1  0.6365705E-002  0.2713619E+03  0.7818608E-02  0.1100503E+00
          2   -1    0    0  502    0  0.00000000000E+00  0.00000000000E+00  0.19403629281E+04  0.19403629281E+04  0.00000000000E+00 0. -1.
         -2   -1    0    0    0  501 -0.00000000000E+00 -0.00000000000E+00 -0.52340839778E+02  0.52340839778E+02  0.00000000000E+00 0.  1.
          6    1    1    2  502    0 -0.18173627009E+03 -0.10500097931E+03  0.14664451843E+04  0.14913412608E+04  0.17200000000E+03 0. -1.
         -6    1    1    2    0  501  0.18173627009E+03  0.10500097931E+03  0.42157690400E+03  0.50136250709E+03  0.17200000000E+03 0.  1.
</event>
<event>
 4    1  0.6365705E-002  0.2437031E+03  0.7818608E-02  0.1117350E+00
          2   -1    0    0  502    0  0.00000000000E+00  0.00000000000E+00  0.12949614883E+03  0.12949614883E+03  0.00000000000E+00 0. -1.
         -2   -1    0    0    0  501 -0.00000000000E+00 -0.00000000000E+00 -0.74104178501E+03  0.74104178501E+03  0.00000000000E+00 0.  1.
          6    1    1    2  502    0  0.10498925784E+03  0.13705631551E+03 -0.37067890015E+02  0.24650599659E+03  0.17200000000E+03 0. -1.
         -6    1    1    2    0  501 -0.10498925784E+03 -0.13705631551E+03 -0.57447774616E+03  0.62403193725E+03  0.17200000000E+03 0.  1.
</event>
<event>
 4    1  0.6365705E-002  0.1828019E+03  0.7818608E-02  0.1165119E+00
         -1   -1    0    0    0  501 -0.00000000000E+00  0.00000000000E+00  0.49215574065E+02  0.49215574065E+02  0.00000000000E+00 0.  1.
          1   -1    0    0  502    0  0.00000000000E+00 -0.00000000000E+00 -0.71483667977E+03  0.71483667977E+03  0.00000000000E+00 0. -1.
          6    1    1    2  502    0 -0.41159703637E+02  0.46243158434E+02 -0.24725367145E+03  0.30749134776E+03  0.17200000000E+03 0. -1.
         -6    1    1    2    0  501  0.41159703637E+02 -0.46243158434E+02 -0.41836743425E+03  0.45656090607E+03  0.17200000000E+03 0.  1.
</event>
<event>
 4    1  0.6365705E-002  0.1969235E+03  0.7818608E-02  0.1152361E+00
          1   -1    0    0  502    0  0.00000000000E+00  0.00000000000E+00  0.10619444945E+04  0.10619444945E+04  0.00000000000E+00 0. -1.
         -1   -1    0    0    0  501 -0.00000000000E+00 -0.00000000000E+00 -0.78868056161E+02  0.78868056161E+02  0.00000000000E+00 0.  1.
          6    1    1    2  502    0  0.46639204471E+02 -0.83783327145E+02  0.90952894835E+03  0.93060290629E+03  0.17200000000E+03 0. -1.
         -6    1    1    2    0  501 -0.46639204471E+02  0.83783327145E+02  0.73547489976E+02  0.21020964436E+03  0.17200000000E+03 0.  1.
</event>
<event>
 4    1  0.6365705E-002  0.3207560E+03  0.7818608E-02  0.1075302E+00
          2   -1    0    0  502    0  0.00000000000E+00  0.00000000000E+00  0.11741169847E+04  0.11741169847E+04  0.00000000000E+00 0. -1.
         -2   -1    0    0    0  501 -0.00000000000E+00 -0.00000000000E+00 -0.20622726950E+03  0.20622726950E+03  0.00000000000E+00 0.  1.
          6    1    1    2  502    0  0.22134793925E+02 -0.26983408189E+03  0.10073369521E+04  0.10571717533E+04  0.17200000000E+03 0. -1.
         -6    1    1    2    0  501 -0.22134793925E+02  0.26983408189E+03 -0.39447236909E+02  0.32317250092E+03  0.17200000000E+03 0.  1.
</event>
<event>
 4    1  0.6365705E-002  0.1808701E+03  0.7818608E-02  0.1166964E+00
          2   -1    0    0  502    0  0.00000000000E+00  0.00000000000E+00  0.59670512611E+03  0.59670512611E+03  0.00000000000E+00 0. -1.
         -2   -1    0    0    0  501 -0.00000000000E+00 -0.00000000000E+00 -0.55491878548E+02  0.55491878548E+02  0.00000000000E+00 0.  1.
          6    1    1    2  502    0  0.97783205859E+01 -0.55085023156E+02  0.30637230309E+03  0.35577796929E+03  0.17200000000E+03 0. -1.
         -6    1    1    2    0  501 -0.97783205859E+01  0.55085023156E+02  0.23484094447E+03  0.29641903537E+03  0.17200000000E+03 0. -1.
</event>
<event>
 4    1  0.6365705E-002  0.2002357E+03  0.7818608E-02  0.1149540E+00
         -4   -1    0    0    0  501 -0.00000000000E+00  0.00000000000E+00  0.14704917603E+03  0.14704917603E+03  0.00000000000E+00 0.  1.
          4   -1    0    0  502    0  0.00000000000E+00 -0.00000000000E+00 -0.41090742419E+03  0.41090742419E+03  0.00000000000E+00 0. -1.
          6    1    1    2  502    0  0.10154074576E+03  0.14134854267E+02 -0.29374761301E+03  0.35550242939E+03  0.17200000000E+03 0. -1.
         -6    1    1    2    0  501 -0.10154074576E+03 -0.14134854267E+02  0.29889364857E+02  0.20245417083E+03  0.17200000000E+03 0.  1.
</event>
<event>
 4    1  0.6365705E-002  0.1816886E+03  0.7818608E-02  0.1166179E+00
          1   -1    0    0  502    0  0.00000000000E+00  0.00000000000E+00  0.75516993456E+03  0.75516993456E+03  0.00000000000E+00 0. -1.
         -1   -1    0    0    0  501 -0.00000000000E+00 -0.00000000000E+00 -0.55613229969E+02  0.55613229969E+02  0.00000000000E+00 0.  1.
          6    1    1    2  502    0  0.31170467955E+02  0.49549309792E+02  0.53730526942E+03  0.56719281088E+03  0.17200000000E+03 0. -1.
         -6    1    1    2    0  501 -0.31170467955E+02 -0.49549309792E+02  0.16225143517E+03  0.24359035364E+03  0.17200000000E+03 0.  1.
</event>
<event>
 4    1  0.6365705E-002  0.1760525E+03  0.7818608E-02  0.1171679E+00
          1   -1    0    0  502    0  0.00000000000E+00  0.00000000000E+00  0.89626180615E+02  0.89626180615E+02  0.00000000000E+00 0. -1.
         -1   -1    0    0    0  501 -0.00000000000E+00 -0.00000000000E+00 -0.36257738996E+03  0.36257738996E+03  0.00000000000E+00 0.  1.
          6    1    1    2  502    0  0.28511147802E+02  0.24445934963E+02 -0.87867118396E+02  0.19676158106E+03  0.17200000000E+03 0. -1.
         -6    1    1    2    0  501 -0.28511147802E+02 -0.24445934963E+02 -0.18508409095E+03  0.25544198951E+03  0.17200000000E+03 0.  1.
</event>
<event>
 4    1  0.6365705E-002  0.2167755E+03  0.7818608E-02  0.1136310E+00
         -2   -1    0    0    0  501 -0.00000000000E+00  0.00000000000E+00  0.58162687418E+02  0.58162687418E+02  0.00000000000E+00 0.  1.
          2   -1    0    0  502    0  0.00000000000E+00 -0.00000000000E+00 -0.80814119083E+03  0.80814119083E+03  0.00000000000E+00 0. -1.
          6    1    1    2  502    0 -0.83259454971E+02 -0.10234974106E+03 -0.36805185597E+03  0.42714608159E+03  0.17200000000E+03 0. -1.
         -6    1    1    2    0  501  0.83259454971E+02  0.10234974106E+03 -0.38192664744E+03  0.43915779665E+03  0.17200000000E+03 0.  1.
</event>
<event>
 4    1  0.6365705E-002  0.4695358E+03  0.7818608E-02  0.1022051E+00
          4   -1    0    0  502    0  0.00000000000E+00  0.00000000000E+00  0.59690197640E+03  0.59690197640E+03  0.00000000000E+00 0. -1.
         -4   -1    0    0    0  501 -0.00000000000E+00 -0.00000000000E+00 -0.61912841745E+03  0.61912841745E+03  0.00000000000E+00 0.  1.
          6    1    1    2  502    0  0.35813067351E+03  0.25024452245E+03  0.37507960965E+03  0.60095641598E+03  0.17200000000E+03 0. -1.
         -6    1    1    2    0  501 -0.35813067351E+03 -0.25024452245E+03 -0.39730605071E+03  0.61507397787E+03  0.17200000000E+03 0.  1.
</event>
<event>
 4    1  0.6365705E-002  0.2311382E+03  0.7818608E-02  0.1125841E+00
          3   -1    0    0  502    0  0.00000000000E+00  0.00000000000E+00  0.23479735433E+03  0.23479735433E+03  0.00000000000E+00 0. -1.
         -3   -1    0    0    0  501 -0.00000000000E+00 -0.00000000000E+00 -0.25279455528E+03  0.25279455528E+03  0.00000000000E+00 0.  1.
          6    1    1    2  502    0 -0.15436409092E+03 -0.35515753215E+01  0.68064342980E+02  0.24095153255E+03  0.17200000000E+03 0. -1.
         -6    1    1    2    0  501  0.15436409092E+03  0.35515753215E+01 -0.86061543927E+02  0.24664037706E+03  0.17200000000E+03 0.  1.
</event>
<event>
 4    1  0.6365705E-002  0.3214906E+03  0.7818608E-02  0.1074965E+00
          2   -1    0    0  502    0  0.00000000000E+00  0.00000000000E+00  0.13203832710E+04  0.13203832710E+04  0.00000000000E+00 0. -1.
         -2   -1    0    0    0  501 -0.00000000000E+00 -0.00000000000E+00 -0.21692387363E+03  0.21692387363E+03  0.00000000000E+00 0.  1.
          6    1    1    2  502    0  0.16991118208E+03  0.21190181825E+03  0.11662431073E+04  0.12097434338E+04  0.17200000000E+03 0. -1.
         -6    1    1    2    0  501 -0.16991118208E+03 -0.21190181825E+03 -0.62783709974E+02  0.32756371076E+03  0.17200000000E+03 0.  1.
</event>
<event>
 4    1  0.6365705E-002  0.1749886E+03  0.7818608E-02  0.1172743E+00
          1   -1    0    0  502    0  0.00000000000E+00  0.00000000000E+00  0.17050649046E+04  0.17050649046E+04  0.00000000000E+00 0. -1.
         -1   -1    0    0    0  501 -0.00000000000E+00 -0.00000000000E+00 -0.18025626476E+02  0.18025626476E+02  0.00000000000E+00 0.  1.
          6    1    1    2  502    0 -0.55101798159E+01  0.31727897769E+02  0.79108566433E+03  0.81020833733E+03  0.17200000000E+03 0.  1.
         -6    1    1    2    0  501  0.55101798159E+01 -0.31727897769E+02  0.89595361382E+03  0.91288219376E+03  0.17200000000E+03 0.  1.
</event>
<event>
 4    1  0.6365705E-002  0.4758329E+03  0.7818608E-02  0.1020287E+00
          1   -1    0    0  502    0  0.00000000000E+00  0.00000000000E+00  0.67605568044E+03  0.67605568044E+03  0.00000000000E+00 0. -1.
         -1   -1    0    0    0  501 -0.00000000000E+00 -0.00000000000E+00 -0.33532876020E+03  0.33532876020E+03  0.00000000000E+00 0.  1.
          6    1    1    2  502    0  0.31496274692E+03  0.31246029407E+03  0.15246657774E+03  0.49966291102E+03  0.17200000000E+03 0. -1.
         -6    1    1    2    0  501 -0.31496274692E+03 -0.31246029407E+03  0.18826034250E+03  0.51172152962E+03  0.17200000000E+03 0. -1.
</event>
<event>
 4    1  0.6365705E-002  0.2189477E+03  0.7818608E-02  0.1134670E+00
          4   -1    0    0  502    0  0.00000000000E+00  0.00000000000E+00  0.37537068319E+02  0.37537068319E+02  0.00000000000E+00 0. -1.
         -4   -1    0    0    0  501 -0.00000000000E+00 -0.00000000000E+00 -0.14473554037E+04  0.14473554037E+04  0.00000000000E+00 0.  1.
          6    1    1    2  502    0 -0.12286592963E+03  0.57079329933E+02 -0.45025841055E+03  0.50067027358E+03  0.17200000000E+03 0. -1.
         -6    1    1    2    0  501  0.12286592963E+03 -0.57079329933E+02 -0.95955992481E+03  0.98422219843E+03  0.17200000000E+03 0. -1.
</event>
<event>
 4    1  0.6365705E-002  0.2980294E+03  0.7818608E-02  0.1086230E+00
         -2   -1    0    0    0  501 -0.00000000000E+00  0.00000000000E+00  0.48378858738E+02  0.48378858738E+02  0.00000000000E+00 0.  1.
          2   -1    0    0  502    0  0.00000000000E+00 -0.00000000000E+00 -0.19130309205E+04  0.19130309205E+04  0.00000000000E+00 0. -1.
          6    1    1    2  502    0  0.76389167689E+02 -0.23108922255E+03 -0.11291732849E+04  0.11678415308E+04  0.17200000000E+03 0. -1.
         -6    1    1    2    0  501 -0.76389167689E+02  0.23108922255E+03 -0.73547877684E+03  0.79356824843E+03  0.17200000000E+03 0.  1.
</event>
<event>
 4    1  0.6365705E-002  0.2179428E+03  0.7818608E-02  0.1135426E+00
         -2   -1    0    0    0  501 -0.00000000000E+00  0.00000000000E+00  0.54803076341E+03  0.54803076341E+03  0.00000000000E+00 0.  1.
          2   -1    0    0  502    0  0.00000000000E+00 -0.00000000000E+00 -0.16337632488E+03  0.16337632488E+03  0.00000000000E+00 0. -1.
          6    1    1    2  502    0  0.24565349095E+02 -0.13157362958E+03 -0.51399286013E+02  0.22392177871E+03  0.17200000000E+03 0. -1.
         -6    1    1    2    0  501 -0.24565349095E+02  0.13157362958E+03  0.43605372454E+03  0.48748530959E+03  0.17200000000E+03 0.  1.
</event>
<event>
 4    1  0.6365705E-002  0.2051349E+03  0.7818608E-02  0.1145478E+00
          1   -1    0    0  502    0  0.00000000000E+00  0.00000000000E+00  0.37255003660E+03  0.37255003660E+03  0.00000000000E+00 0. -1.
         -1   -1    0    0    0  501 -0.00000000000E+00 -0.00000000000E+00 -0.13393291559E+03  0.13393291559E+03  0.00000000000E+00 0.  1.
          6    1    1    2  502    0  0.11081696162E+03 -0.14694469202E+02  0.19077604183E+02  0.20602009948E+03  0.17200000000E+03 0.  1.
         -6    1    1    2    0  501 -0.11081696162E+03  0.14694469202E+02  0.21953951683E+03  0.30046285271E+03  0.17200000000E+03 0. -1.
</event>
<event>
 4    1  0.6365705E-002  0.1745449E+03  0.7818608E-02  0.1173189E+00
         -2   -1    0    0    0  501 -0.00000000000E+00  0.00000000000E+00  0.66582968891E+02  0.66582968891E+02  0.00000000000E+00 0.  1.
          2   -1    0    0  502    0  0.00000000000E+00 -0.00000000000E+00 -0.45756587643E+03  0.45756587643E+03  0.00000000000E+00 0. -1.
          6    1    1    2  502    0  0.25020579803E+02 -0.15996184621E+02 -0.19484185367E+03  0.26158986081E+03  0.17200000000E+03 0. -1.
         -6    1    1    2    0  501 -0.25020579803E+02  0.15996184621E+02 -0.19614105387E+03  0.26255898451E+03  0.17200000000E+03 0.  1.
</event>
<event>
 4    1  0.6365705E-002  0.3366543E+03  0.7818608E-02  0.1068230E+00
          2   -1    0    0  502    0  0.00000000000E+00  0.00000000000E+00  0.17651496837E+04  0.17651496837E+04  0.00000000000E+00 0. -1.
         -2   -1    0    0    0  501 -0.00000000000E+00 -0.00000000000E+00 -0.90279915447E+02  0.90279915447E+02  0.00000000000E+00 0.  1.
          6    1    1    2  502    0  0.22892244319E+03  0.17704979802E+03  0.13359843829E+04  0.13777483034E+04  0.17200000000E+03 0. -1.
         -6    1    1    2    0  501 -0.22892244319E+03 -0.17704979802E+03  0.33888538537E+03  0.47768129584E+03  0.17200000000E+03 0.  1.
</event>
<event>
 4    1  0.6365705E-002  0.7102597E+03  0.7818608E-02  0.9699846E-01
          2   -1    0    0  502    0  0.00000000000E+00  0.00000000000E+00  0.14757834575E+04  0.14757834575E+04  0.00000000000E+00 0. -1.
         -2   -1    0    0    0  501 -0.00000000000E+00 -0.00000000000E+00 -0.40202429377E+03  0.40202429377E+03  0.00000000000E+00 0.  1.
          6    1    1    2  502    0 -0.62715977624E+03  0.28557923087E+03  0.90018191672E+03  0.11466457017E+04  0.17200000000E+03 0. -1.
         -6    1    1    2    0  501  0.62715977624E+03 -0.28557923087E+03  0.17357724699E+03  0.73116204955E+03  0.17200000000E+03 0.  1.
</event>
<event>
 4    1  0.6365705E-002  0.3743440E+03  0.7818608E-02  0.1053044E+00
          2   -1    0    0  502    0  0.00000000000E+00  0.00000000000E+00  0.49082040116E+03  0.49082040116E+03  0.00000000000E+00 0. -1.
         -2   -1    0    0    0  501 -0.00000000000E+00 -0.00000000000E+00 -0.29156665379E+03  0.29156665379E+03  0.00000000000E+00 0.  1.
          6    1    1    2  502    0  0.30171009057E+03 -0.13971571360E+03  0.43238666163E+02  0.37683290943E+03  0.17200000000E+03 0. -1.
         -6    1    1    2    0  501 -0.30171009057E+03  0.13971571360E+03  0.15601508121E+03  0.40555414552E+03  0.17200000000E+03 0. -1.
</event>
<event>
 4    1  0.6365705E-002  0.3193042E+03  0.7818608E-02  0.1075970E+00
          2   -1    0    0  502    0  0.00000000000E+00  0.00000000000E+00  0.21943892640E+03  0.21943892640E+03  0.00000000000E+00 0. -1.
         -2   -1    0    0    0  501 -0.00000000000E+00 -0.00000000000E+00 -0.47425669084E+03  0.47425669084E+03  0.00000000000E+00 0.  1.
          6    1    1    2  502    0  0.26629152018E+03  0.38209864592E+02 -0.77960476121E+02  0.32868374360E+03  0.17200000000E+03 0. -1.
         -6    1    1    2    0  501 -0.26629152018E+03 -0.38209864592E+02 -0.17685728831E+03  0.36501187364E+03  0.17200000000E+03 0. -1.
</event>
<event>
 4    1  0.6365705E-002  0.1823084E+03  0.7818608E-02  0.1165587E+00
          2   -1    0    0  502    0  0.00000000000E+00  0.00000000000E+00  0.70821713310E+03  0.70821713310E+03  0.00000000000E+00 0. -1.
         -2   -1    0    0    0  501 -0.00000000000E+00 -0.00000000000E+00 -0.19047635605E+03  0.19047635605E+03  0.00000000000E+00 0.  1.
          6    1    1    2  502    0  0.32871796965E+02  0.50713027040E+02  0.64895400694E+03  0.67407541809E+03  0.17200000000E+03 0. -1.
         -6    1    1    2    0  501 -0.32871796965E+02 -0.50713027040E+02 -0.13121322989E+03  0.22461807106E+03  0.17200000000E+03 0.  1.
</event>
<event>
 4    1  0.6365705E-002  0.5239994E+03  0.7818608E-02  0.1007698E+00
         -2   -1    0    0    0  501 -0.00000000000E+00  0.00000000000E+00  0.31664002624E+03  0.31664002624E+03  0.00000000000E+00 0.  1.
          2   -1    0    0  502    0  0.00000000000E+00 -0.00000000000E+00 -0.27796694528E+04  0.27796694528E+04  0.00000000000E+00 0. -1.
          6    1    1    2  502    0 -0.49113096500E+03  0.61495783876E+02 -0.25156783759E+04  0.25696717781E+04  0.17200000000E+03 0. -1.
         -6    1    1    2    0  501  0.49113096500E+03 -0.61495783876E+02  0.52648949303E+02  0.52663770097E+03  0.17200000000E+03 0.  1.
</event>
<event>
 4    1  0.6365705E-002  0.1726402E+03  0.7818608E-02  0.1175122E+00
         -2   -1    0    0    0  501 -0.00000000000E+00  0.00000000000E+00  0.16779809436E+02  0.16779809436E+02  0.00000000000E+00 0.  1.
          2   -1    0    0  502    0  0.00000000000E+00 -0.00000000000E+00 -0.19261926246E+04  0.19261926246E+04  0.00000000000E+00 0. -1.
          6    1    1    2  502    0  0.12542681950E+02 -0.79564684243E+01 -0.12257839537E+04  0.12378816282E+04  0.17200000000E+03 0. -1.
         -6    1    1    2    0  501 -0.12542681950E+02  0.79564684243E+01 -0.68362886137E+03  0.70509080576E+03  0.17200000000E+03 0.  1.
</event>
<event>
 4    1  0.6365705E-002  0.3257942E+03  0.7818608E-02  0.1073013E+00
         -1   -1    0    0    0  501 -0.00000000000E+00  0.00000000000E+00  0.84649258353E+03  0.84649258353E+03  0.00000000000E+00 0.  1.
          1   -1    0    0  502    0  0.00000000000E+00 -0.00000000000E+00 -0.73384660765E+03  0.73384660765E+03  0.00000000000E+00 0. -1.
          6    1    1    2  502    0  0.11863497375E+03 -0.24996720687E+03 -0.66317968087E+03  0.73888371928E+03  0.17200000000E+03 0. -1.
         -6    1    1    2    0  501 -0.11863497375E+03  0.24996720687E+03  0.77582565674E+03  0.84145547189E+03  0.17200000000E+03 0.  1.
</event>
<event>
 4    1  0.6365705E-002  0.2674556E+03  0.7818608E-02  0.1102745E+00
          3   -1    0    0  502    0  0.00000000000E+00  0.00000000000E+00  0.12901044115E+03  0.12901044115E+03  0.00000000000E+00 0. -1.
         -3   -1    0    0    0  501 -0.00000000000E+00 -0.00000000000E+00 -0.55654930874E+03  0.55654930874E+03  0.00000000000E+00 0.  1.
          6    1    1    2  502    0 -0.15072022800E+03  0.13867925328E+03 -0.19282158197E+03  0.32971606708E+03  0.17200000000E+03 0. -1.
         -6    1    1    2    0  501  0.15072022800E+03 -0.13867925328E+03 -0.23471728562E+03  0.35584368280E+03  0.17200000000E+03 0. -1.
</event>
<event>
 4    1  0.6365705E-002  0.3057582E+03  0.7818608E-02  0.1082397E+00
          2   -1    0    0  502    0  0.00000000000E+00  0.00000000000E+00  0.61698874876E+03  0.61698874876E+03  0.00000000000E+00 0. -1.
         -2   -1    0    0    0  501 -0.00000000000E+00 -0.00000000000E+00 -0.15370392591E+03  0.15370392591E+03  0.00000000000E+00 0.  1.
          6    1    1    2  502    0 -0.24706512891E+03 -0.53506058902E+02  0.27754262147E+03  0.41293823145E+03  0.17200000000E+03 0. -1.
         -6    1    1    2    0  501  0.24706512891E+03  0.53506058902E+02  0.18574220138E+03  0.35775444321E+03  0.17200000000E+03 0. -1.
</event>
<event>
 4    1  0.6365705E-002  0.2029103E+03  0.7818608E-02  0.1147307E+00
         -1   -1    0    0    0  501 -0.00000000000E+00  0.00000000000E+00  0.12729707363E+03  0.12729707363E+03  0.00000000000E+00 0.  1.
          1   -1    0    0  502    0  0.00000000000E+00 -0.00000000000E+00 -0.33789586590E+03  0.33789586590E+03  0.00000000000E+00 0. -1.
          6    1    1    2  502    0 -0.21984282785E+02  0.10538163476E+03 -0.15341402495E+03  0.25437857749E+03  0.17200000000E+03 0. -1.
         -6    1    1    2    0  501  0.21984282785E+02 -0.10538163476E+03 -0.57184767318E+02  0.21081436205E+03  0.17200000000E+03 0.  1.
</event>
<event>
 4    1  0.6365705E-002  0.2171286E+03  0.7818608E-02  0.1136042E+00
         -2   -1    0    0    0  501 -0.00000000000E+00  0.00000000000E+00  0.26672111225E+02  0.26672111225E+02  0.00000000000E+00 0.  1.
          2   -1    0    0  502    0  0.00000000000E+00 -0.00000000000E+00 -0.22431863056E+04  0.22431863056E+04  0.00000000000E+00 0. -1.
          6    1    1    2  502    0 -0.74524745271E+02 -0.10957589073E+03 -0.16308513653E+04  0.16452419242E+04  0.17200000000E+03 0. -1.
         -6    1    1    2    0  501  0.74524745271E+02  0.10957589073E+03 -0.58566282913E+03  0.62461649267E+03  0.17200000000E+03 0.  1.
</event>
<event>
 4    1  0.6365705E-002  0.2981824E+03  0.7818608E-02  0.1086153E+00
         -1   -1    0    0    0  501 -0.00000000000E+00  0.00000000000E+00  0.44639392810E+02  0.44639392810E+02  0.00000000000E+00 0.  1.
          1   -1    0    0  502    0  0.00000000000E+00 -0.00000000000E+00 -0.19933183739E+04  0.19933183739E+04  0.00000000000E+00 0. -1.
          6    1    1    2  502    0 -0.55053526033E+02 -0.23727166730E+03 -0.10024643979E+04  0.10458716957E+04  0.17200000000E+03 0. -1.
         -6    1    1    2    0  501  0.55053526033E+02  0.23727166730E+03 -0.94621458324E+03  0.99208607105E+03  0.17200000000E+03 0.  1.
</event>
<event>
 4    1  0.6365705E-002  0.2257196E+03  0.7818608E-02  0.1129689E+00
          2   -1    0    0  502    0  0.00000000000E+00  0.00000000000E+00  0.47458307391E+03  0.47458307391E+03  0.00000000000E+00 0. -1.
         -2   -1    0    0    0  501 -0.00000000000E+00 -0.00000000000E+00 -0.11313560578E+03  0.11313560578E+03  0.00000000000E+00 0.  1.
          6    1    1    2  502    0  0.12939278597E+03  0.67991577341E+02  0.11430533759E+03  0.25301197176E+03  0.17200000000E+03 0. -1.
         -6    1    1    2    0  501 -0.12939278597E+03 -0.67991577341E+02  0.24714213054E+03  0.33470670794E+03  0.17200000000E+03 0.  1.
</event>
<event>
 4    1  0.6365705E-002  0.3296979E+03  0.7818608E-02  0.1071271E+00
          2   -1    0    0  502    0  0.00000000000E+00  0.00000000000E+00  0.13872893210E+04  0.13872893210E+04  0.00000000000E+00 0. -1.
         -2   -1    0    0    0  501 -0.00000000000E+00 -0.00000000000E+00 -0.78911846721E+02  0.78911846721E+02  0.00000000000E+00 0.  1.
          6    1    1    2  502    0  0.13948976930E+03 -0.24425248811E+03  0.71578684629E+03  0.78806819693E+03  0.17200000000E+03 0. -1.
         -6    1    1    2    0  501 -0.13948976930E+03  0.24425248811E+03  0.59259062796E+03  0.67813297076E+03  0.17200000000E+03 0.  1.
</event>
<event>
 4    1  0.6365705E-002  0.2503358E+03  0.7818608E-02  0.1113093E+00
          2   -1    0    0  502    0  0.00000000000E+00  0.00000000000E+00  0.67204646488E+03  0.67204646488E+03  0.00000000000E+00 0. -1.
         -2   -1    0    0    0  501 -0.00000000000E+00 -0.00000000000E+00 -0.10435202343E+03  0.10435202343E+03  0.00000000000E+00 0.  1.
          6    1    1    2  502    0 -0.10826439169E+03 -0.14616023646E+03  0.41047097975E+03  0.48078521030E+03  0.17200000000E+03 0. -1.
         -6    1    1    2    0  501  0.10826439169E+03  0.14616023646E+03  0.15722346169E+03  0.29561327801E+03  0.17200000000E+03 0.  1.
</event>
<event>
 4    1  0.6365705E-002  0.3999914E+03  0.7818608E-02  0.1043783E+00
          1   -1    0    0  502    0  0.00000000000E+00  0.00000000000E+00  0.69431828491E+03  0.69431828491E+03  0.00000000000E+00 0. -1.
         -1   -1    0    0    0  501 -0.00000000000E+00 -0.00000000000E+00 -0.23105248476E+03  0.23105248476E+03  0.00000000000E+00 0.  1.
          6    1    1    2  502    0 -0.16720688247E+03 -0.32007967752E+03  0.20765557032E+03  0.45068168078E+03  0.17200000000E+03 0. -1.
         -6    1    1    2    0  501  0.16720688247E+03  0.32007967752E+03  0.25561022983E+03  0.47468908888E+03  0.17200000000E+03 0.  1.
</event>
<event>
 4    1  0.6365705E-002  0.3399181E+03  0.7818608E-02  0.1066831E+00
         -2   -1    0    0    0  501 -0.00000000000E+00  0.00000000000E+00  0.16407432000E+04  0.16407432000E+04  0.00000000000E+00 0.  1.
          2   -1    0    0  502    0  0.00000000000E+00 -0.00000000000E+00 -0.13219848417E+03  0.13219848417E+03  0.00000000000E+00 0. -1.
          6    1    1    2  502    0 -0.14386235931E+03  0.25546803113E+03  0.14828567838E+03  0.37085433228E+03  0.17200000000E+03 0. -1.
         -6    1    1    2    0  501  0.14386235931E+03 -0.25546803113E+03  0.13602590375E+04  0.14020873519E+04  0.17200000000E+03 0.  1.
</event>
<event>
 4    1  0.6365705E-002  0.1790424E+03  0.7818608E-02  0.1168733E+00
         -2   -1    0    0    0  501 -0.00000000000E+00  0.00000000000E+00  0.46160342263E+02  0.46160342263E+02  0.00000000000E+00 0.  1.
          2   -1    0    0  502    0  0.00000000000E+00 -0.00000000000E+00 -0.69534620755E+03  0.69534620755E+03  0.00000000000E+00 0. -1.
          6    1    1    2  502    0  0.44561177954E+02  0.22056316882E+02 -0.31130353650E+03  0.35911846448E+03  0.17200000000E+03 0. -1.
         -6    1    1    2    0  501 -0.44561177954E+02 -0.22056316882E+02 -0.33788232878E+03  0.38238808533E+03  0.17200000000E+03 0. -1.
</event>
<event>
 4    1  0.6365705E-002  0.6799284E+03  0.7818608E-02  0.9752187E-01
          1   -1    0    0  502    0  0.00000000000E+00  0.00000000000E+00  0.89922551111E+03  0.89922551111E+03  0.00000000000E+00 0. -1.
         -1   -1    0    0    0  501 -0.00000000000E+00 -0.00000000000E+00 -0.79192616580E+03  0.79192616580E+03  0.00000000000E+00 0.  1.
          6    1    1    2  502    0 -0.21714049055E+03 -0.62094173623E+03  0.55447629482E+03  0.87735203536E+03  0.17200000000E+03 0. -1.
         -6    1    1    2    0  501  0.21714049055E+03  0.62094173623E+03 -0.44717694951E+03  0.81379964156E+03  0.17200000000E+03 0.  1.
</event>
<event>
 4    1  0.6365705E-002  0.2440800E+03  0.7818608E-02  0.1117104E+00
         -2   -1    0    0    0  501 -0.00000000000E+00  0.00000000000E+00  0.67351842173E+02  0.67351842173E+02  0.00000000000E+00 0.  1.
          2   -1    0    0  502    0  0.00000000000E+00 -0.00000000000E+00 -0.14190636820E+04  0.14190636820E+04  0.00000000000E+00 0. -1.
          6    1    1    2  502    0  0.57772869730E+02 -0.16325857802E+03 -0.11319923554E+04  0.11580076686E+04  0.17200000000E+03 0. -1.
         -6    1    1    2    0  501 -0.57772869730E+02  0.16325857802E+03 -0.21971948436E+03  0.32840785554E+03  0.17200000000E+03 0.  1.
</event>
<event>
 4    1  0.6365705E-002  0.1933448E+03  0.7818608E-02  0.1155479E+00
         -2   -1    0    0    0  501 -0.00000000000E+00  0.00000000000E+00  0.33087231299E+03  0.33087231299E+03  0.00000000000E+00 0.  1.
          2   -1    0    0  502    0  0.00000000000E+00 -0.00000000000E+00 -0.12162925627E+03  0.12162925627E+03  0.00000000000E+00 0. -1.
          6    1    1    2  502    0 -0.88011452726E+02 -0.72253173283E+01  0.44290575713E+02  0.19835290802E+03  0.17200000000E+03 0. -1.
         -6    1    1    2    0  501  0.88011452726E+02  0.72253173283E+01  0.16495248101E+03  0.25414866125E+03  0.17200000000E+03 0.  1.
</event>
<event>
 4    1  0.6365705E-002  0.3406641E+03  0.7818608E-02  0.1066513E+00
          1   -1    0    0  502    0  0.00000000000E+00  0.00000000000E+00  0.10019061697E+04  0.10019061697E+04  0.00000000000E+00 0. -1.
         -1   -1    0    0    0  501 -0.00000000000E+00 -0.00000000000E+00 -0.20202367278E+03  0.20202367278E+03  0.00000000000E+00 0.  1.
          6    1    1    2  502    0 -0.18862941501E+03  0.22558143183E+03  0.79313319215E+03  0.86319887574E+03  0.17200000000E+03 0. -1.
         -6    1    1    2    0  501  0.18862941501E+03 -0.22558143183E+03  0.67493047840E+01  0.34073096676E+03  0.17200000000E+03 0.  1.
</event>
<event>
 4    1  0.6365705E-002  0.2969083E+03  0.7818608E-02  0.1086796E+00
         -1   -1    0    0    0  501 -0.00000000000E+00  0.00000000000E+00  0.69614924831E+02  0.69614924831E+02  0.00000000000E+00 0.  1.
          1   -1    0    0  502    0  0.00000000000E+00 -0.00000000000E+00 -0.13641556254E+04  0.13641556254E+04  0.00000000000E+00 0. -1.
          6    1    1    2  502    0  0.16178227859E+03 -0.17999180809E+03 -0.83925790055E+03  0.89022939756E+03  0.17200000000E+03 0. -1.
         -6    1    1    2    0  501 -0.16178227859E+03  0.17999180809E+03 -0.45528279997E+03  0.54354115262E+03  0.17200000000E+03 0.  1.
</event>
<event>
 4    1  0.6365705E-002  0.7794573E+03  0.7818608E-02  0.9590237E-01
         -1   -1    0    0    0  501 -0.00000000000E+00  0.00000000000E+00  0.68203672643E+03  0.68203672643E+03  0.00000000000E+00 0.  1.
          1   -1    0    0  502    0  0.00000000000E+00 -0.00000000000E+00 -0.28329291769E+04  0.28329291769E+04  0.00000000000E+00 0. -1.
          6    1    1    2  502    0 -0.69314659525E+03 -0.31227782750E+03 -0.25306140534E+04  0.26479352581E+04  0.17200000000E+03 0. -1.
         -6    1    1    2    0  501  0.69314659525E+03  0.31227782750E+03  0.37972160289E+03  0.86703064522E+03  0.17200000000E+03 0.  1.
</event>
<event>
 4    1  0.6365705E-002  0.1792691E+03  0.7818608E-02  0.1168512E+00
          2   -1    0    0  502    0  0.00000000000E+00  0.00000000000E+00  0.11406947632E+04  0.11406947632E+04  0.00000000000E+00 0. -1.
         -2   -1    0    0    0  501 -0.00000000000E+00 -0.00000000000E+00 -0.28383685758E+02  0.28383685758E+02  0.00000000000E+00 0.  1.
          6    1    1    2  502    0 -0.15207824473E+02 -0.48188399884E+02  0.50585780797E+03  0.53668381911E+03  0.17200000000E+03 0.  1.
         -6    1    1    2    0  501  0.15207824473E+02  0.48188399884E+02  0.60645326947E+03  0.63239462985E+03  0.17200000000E+03 0.  1.
</event>
<event>
 4    1  0.6365705E-002  0.2797297E+03  0.7818608E-02  0.1095837E+00
          2   -1    0    0  502    0  0.00000000000E+00  0.00000000000E+00  0.21673702961E+03  0.21673702961E+03  0.00000000000E+00 0. -1.
         -2   -1    0    0    0  501 -0.00000000000E+00 -0.00000000000E+00 -0.44021048859E+03  0.44021048859E+03  0.00000000000E+00 0.  1.
          6    1    1    2  502    0 -0.17376355825E+03  0.13590783000E+03  0.27571820414E+02  0.28108524990E+03  0.17200000000E+03 0. -1.
         -6    1    1    2    0  501  0.17376355825E+03 -0.13590783000E+03 -0.25104527940E+03  0.37586226831E+03  0.17200000000E+03 0.  1.
</event>
<event>
 4    1  0.6365705E-002  0.1742077E+03  0.7818608E-02  0.1173530E+00
         -1   -1    0    0    0  501 -0.00000000000E+00  0.00000000000E+00  0.80970584833E+02  0.80970584833E+02  0.00000000000E+00 0.  1.
          1   -1    0    0  502    0  0.00000000000E+00 -0.00000000000E+00 -0.38632625194E+03  0.38632625194E+03  0.00000000000E+00 0. -1.
          6    1    1    2  502    0 -0.20650782243E+01 -0.27569084460E+02 -0.19302408898E+03  0.26001272640E+03  0.17200000000E+03 0. -1.
         -6    1    1    2    0  501  0.20650782243E+01  0.27569084460E+02 -0.11233157813E+03  0.20728411037E+03  0.17200000000E+03 0.  1.
</event>
<event>
 4    1  0.6365705E-002  0.1827539E+03  0.7818608E-02  0.1165164E+00
         -2   -1    0    0    0  501 -0.00000000000E+00  0.00000000000E+00  0.44166467976E+02  0.44166467976E+02  0.00000000000E+00 0.  1.
          2   -1    0    0  502    0  0.00000000000E+00 -0.00000000000E+00 -0.31249727472E+04  0.31249727472E+04  0.00000000000E+00 0. -1.
          6    1    1    2  502    0  0.54946055284E+02 -0.28212036628E+02 -0.29199907032E+04  0.29257041365E+04  0.17200000000E+03 0. -1.
         -6    1    1    2    0  501 -0.54946055284E+02  0.28212036628E+02 -0.16081557603E+03  0.24343507861E+03  0.17200000000E+03 0.  1.
</event>
<event>
 4    1  0.6365705E-002  0.2134410E+03  0.7818608E-02  0.1138870E+00
          1   -1    0    0  502    0  0.00000000000E+00  0.00000000000E+00  0.26891702026E+04  0.26891702026E+04  0.00000000000E+00 0. -1.
         -1   -1    0    0    0  501 -0.00000000000E+00 -0.00000000000E+00 -0.34243294789E+02  0.34243294789E+02  0.00000000000E+00 0.  1.
          6    1    1    2  502    0  0.25083470650E+01  0.12635962517E+03  0.22954036778E+04  0.23053058563E+04  0.17200000000E+03 0. -1.
         -6    1    1    2    0  501 -0.25083470650E+01 -0.12635962517E+03  0.35952322997E+03  0.41810764112E+03  0.17200000000E+03 0.  1.
</event>
<event>
 4    1  0.6365705E-002  0.1899391E+03  0.7818608E-02  0.1158516E+00
          1   -1    0    0  502    0  0.00000000000E+00  0.00000000000E+00  0.10100647754E+03  0.10100647754E+03  0.00000000000E+00 0. -1.
         -1   -1    0    0    0  501 -0.00000000000E+00 -0.00000000000E+00 -0.36344043281E+03  0.36344043281E+03  0.00000000000E+00 0.  1.
          6    1    1    2  502    0 -0.66066920933E+02 -0.46130359909E+02 -0.10072306203E+03  0.21499298447E+03  0.17200000000E+03 0. -1.
         -6    1    1    2    0  501  0.66066920933E+02  0.46130359909E+02 -0.16171089323E+03  0.24945392588E+03  0.17200000000E+03 0.  1.
</event>
<event>
 4    1  0.6365705E-002  0.2926314E+03  0.7818608E-02  0.1088983E+00
         -3   -1    0    0    0  501 -0.00000000000E+00  0.00000000000E+00  0.13949253040E+03  0.13949253040E+03  0.00000000000E+00 0.  1.
          3   -1    0    0  502    0  0.00000000000E+00 -0.00000000000E+00 -0.86273240280E+03  0.86273240280E+03  0.00000000000E+00 0. -1.
          6    1    1    2  502    0  0.10143297396E+03  0.21391703229E+03 -0.63074792976E+03  0.69532445363E+03  0.17200000000E+03 0. -1.
         -6    1    1    2    0  501 -0.10143297396E+03 -0.21391703229E+03 -0.92491942633E+02  0.30690047957E+03  0.17200000000E+03 0.  1.
</event>
<event>
 4    1  0.6365705E-002  0.1752810E+03  0.7818608E-02  0.1172450E+00
         -2   -1    0    0    0  501 -0.00000000000E+00  0.00000000000E+00  0.27900155030E+02  0.27900155030E+02  0.00000000000E+00 0.  1.
          2   -1    0    0  502    0  0.00000000000E+00 -0.00000000000E+00 -0.12049168499E+04  0.12049168499E+04  0.00000000000E+00 0. -1.
          6    1    1    2  502    0  0.10180101615E+02  0.32183500757E+02 -0.40765246487E+03  0.44373859907E+03  0.17200000000E+03 0.  1.
         -6    1    1    2    0  501 -0.10180101615E+02 -0.32183500757E+02 -0.76936422995E+03  0.78907840581E+03  0.17200000000E+03 0. -1.
</event>
<event>
 4    1  0.6365705E-002  0.2541014E+03  0.7818608E-02  0.1110740E+00
          1   -1    0    0  502    0  0.00000000000E+00  0.00000000000E+00  0.13749451362E+04  0.13749451362E+04  0.00000000000E+00 0. -1.
         -1   -1    0    0    0  501 -0.00000000000E+00 -0.00000000000E+00 -0.49992872874E+02  0.49992872874E+02  0.00000000000E+00 0.  1.
          6    1    1    2  502    0  0.18669830435E+03  0.11281398078E+02  0.48699369428E+03  0.54929990448E+03  0.17200000000E+03 0.  1.
         -6    1    1    2    0  501 -0.18669830435E+03 -0.11281398078E+02  0.83795856907E+03  0.87563810462E+03  0.17200000000E+03 0. -1.
</event>
<event>
 4    1  0.6365705E-002  0.2702584E+03  0.7818608E-02  0.1101132E+00
          1   -1    0    0  502    0  0.00000000000E+00  0.00000000000E+00  0.89322738329E+03  0.89322738329E+03  0.00000000000E+00 0. -1.
         -1   -1    0    0    0  501 -0.00000000000E+00 -0.00000000000E+00 -0.18984683628E+03  0.18984683628E+03  0.00000000000E+00 0.  1.
          6    1    1    2  502    0 -0.11096043644E+02  0.20816452852E+03  0.76028426417E+03  0.80689017559E+03  0.17200000000E+03 0. -1.
         -6    1    1    2    0  501  0.11096043644E+02 -0.20816452852E+03 -0.56903717161E+02  0.27618404397E+03  0.17200000000E+03 0.  1.
</event>
<event>
 4    1  0.6365705E-002  0.1724268E+03  0.7818608E-02  0.1175341E+00
          1   -1    0    0  502    0  0.00000000000E+00  0.00000000000E+00  0.34276365697E+02  0.34276365697E+02  0.00000000000E+00 0. -1.
         -1   -1    0    0    0  501 -0.00000000000E+00 -0.00000000000E+00 -0.10029541638E+04  0.10029541638E+04  0.00000000000E+00 0.  1.
          6    1    1    2  502    0  0.62415042694E+01 -0.10393801343E+02 -0.29367138457E+03  0.34054936440E+03  0.17200000000E+03 0. -1.
         -6    1    1    2    0  501 -0.62415042694E+01  0.10393801343E+02 -0.67500641356E+03  0.69668116511E+03  0.17200000000E+03 0.  1.
</event>
<event>
 4    1  0.6365705E-002  0.2899397E+03  0.7818608E-02  0.1090381E+00
         -1   -1    0    0    0  501 -0.00000000000E+00  0.00000000000E+00  0.63161140818E+02  0.63161140818E+02  0.00000000000E+00 0.  1.
          1   -1    0    0  502    0  0.00000000000E+00 -0.00000000000E+00 -0.16380939801E+04  0.16380939801E+04  0.00000000000E+00 0. -1.
          6    1    1    2  502    0 -0.88819826599E+02 -0.21585193923E+03 -0.11557931187E+04  0.11916051169E+04  0.17200000000E+03 0. -1.
         -6    1    1    2    0  501  0.88819826599E+02  0.21585193923E+03 -0.41913972051E+03  0.50965000400E+03  0.17200000000E+03 0.  1.
</event>
<event>
 4    1  0.6365705E-002  0.2996874E+03  0.7818608E-02  0.1085397E+00
          1   -1    0    0  502    0  0.00000000000E+00  0.00000000000E+00  0.38173238710E+03  0.38173238710E+03  0.00000000000E+00 0. -1.
         -1   -1    0    0    0  501 -0.00000000000E+00 -0.00000000000E+00 -0.23614864307E+03  0.23614864307E+03  0.00000000000E+00 0.  1.
          6    1    1    2  502    0  0.22435065747E+03  0.99475197736E+02  0.91570296510E+02  0.31336504539E+03  0.17200000000E+03 0. -1.
         -6    1    1    2    0  501 -0.22435065747E+03 -0.99475197736E+02  0.54013447524E+02  0.30451598478E+03  0.17200000000E+03 0.  1.
</event>
<event>
 4    1  0.6365705E-002  0.1957952E+03  0.7818608E-02  0.1153336E+00
          2   -1    0    0  502    0  0.00000000000E+00  0.00000000000E+00  0.44758903539E+03  0.44758903539E+03  0.00000000000E+00 0. -1.
         -2   -1    0    0    0  501 -0.00000000000E+00 -0.00000000000E+00 -0.85649673252E+02  0.85649673252E+02  0.00000000000E+00 0.  1.
          6    1    1    2  502    0  0.27166819222E+02  0.89519407556E+02  0.18055165928E+03  0.26633561922E+03  0.17200000000E+03 0. -1.
         -6    1    1    2    0  501 -0.27166819222E+02 -0.89519407556E+02  0.18138770285E+03  0.26690308942E+03  0.17200000000E+03 0.  1.
</event>
<event>
 4    1  0.6365705E-002  0.7047332E+03  0.7818608E-02  0.9709172E-01
          2   -1    0    0  502    0  0.00000000000E+00  0.00000000000E+00  0.37509103373E+04  0.37509103373E+04  0.00000000000E+00 0. -1.
         -2   -1    0    0    0  501 -0.00000000000E+00 -0.00000000000E+00 -0.17614187964E+03  0.17614187964E+03  0.00000000000E+00 0.  1.
          6    1    1    2  502    0 -0.21512055262E+03 -0.64868177214E+03  0.27657844534E+04  0.28541570623E+04  0.17200000000E+03 0. -1.
         -6    1    1    2    0  501  0.21512055262E+03  0.64868177214E+03  0.80898400420E+03  0.10728951546E+04  0.17200000000E+03 0.  1.
</event>
<event>
 4    1  0.6365705E-002  0.3416712E+03  0.7818608E-02  0.1066086E+00
          2   -1    0    0  502    0  0.00000000000E+00  0.00000000000E+00  0.14685246230E+04  0.14685246230E+04  0.00000000000E+00 0. -1.
         -2   -1    0    0    0  501 -0.00000000000E+00 -0.00000000000E+00 -0.94331654204E+02  0.94331654204E+02  0.00000000000E+00 0.  1.
          6    1    1    2  502    0 -0.14374027219E+03  0.25786424832E+03  0.99700931354E+03  0.10539292233E+04  0.17200000000E+03 0. -1.
         -6    1    1    2    0  501  0.14374027219E+03 -0.25786424832E+03  0.37718365524E+03  0.50892705390E+03  0.17200000000E+03 0.  1.
</event>
<event>
 4    1  0.6365705E-002  0.4375549E+03  0.7818608E-02  0.1031500E+00
          4   -1    0    0  502    0  0.00000000000E+00  0.00000000000E+00  0.59156692012E+03  0.59156692012E+03  0.00000000000E+00 0. -1.
         -4   -1    0    0    0  501 -0.00000000000E+00 -0.00000000000E+00 -0.34677801693E+03  0.34677801693E+03  0.00000000000E+00 0.  1.
          6    1    1    2  502    0  0.39372730143E+03  0.82759136544E+02  0.24358731111E+03  0.50078841911E+03  0.17200000000E+03 0. -1.
         -6    1    1    2    0  501 -0.39372730143E+03 -0.82759136544E+02  0.12015920771E+01  0.43755651795E+03  0.17200000000E+03 0.  1.
</event>
<event>
 4    1  0.6365705E-002  0.2301905E+03  0.7818608E-02  0.1126506E+00
         -1   -1    0    0    0  501 -0.00000000000E+00  0.00000000000E+00  0.16639929742E+02  0.16639929742E+02  0.00000000000E+00 0.  1.
          1   -1    0    0  502    0  0.00000000000E+00 -0.00000000000E+00 -0.38800898373E+04  0.38800898373E+04  0.00000000000E+00 0. -1.
          6    1    1    2  502    0  0.43329692524E+02  0.14671811347E+03 -0.27567499066E+04  0.27663437448E+04  0.17200000000E+03 0. -1.
         -6    1    1    2    0  501 -0.43329692524E+02 -0.14671811347E+03 -0.11067000010E+04  0.11303860223E+04  0.17200000000E+03 0.  1.
</event>
<event>
 4    1  0.6365705E-002  0.5610382E+03  0.7818608E-02  0.9989708E-01
          1   -1    0    0  502    0  0.00000000000E+00  0.00000000000E+00  0.26099842540E+03  0.26099842540E+03  0.00000000000E+00 0. -1.
         -1   -1    0    0    0  501 -0.00000000000E+00 -0.00000000000E+00 -0.18934491614E+04  0.18934491614E+04  0.00000000000E+00 0.  1.
          6    1    1    2  502    0 -0.46654360519E+03 -0.25984016279E+03 -0.16714314458E+03  0.58540641996E+03  0.17200000000E+03 0. -1.
         -6    1    1    2    0  501  0.46654360519E+03  0.25984016279E+03 -0.14653075914E+04  0.15690411669E+04  0.17200000000E+03 0.  1.
</event>
<event>
 4    1  0.6365705E-002  0.3938055E+03  0.7818608E-02  0.1045946E+00
         -4   -1    0    0    0  501 -0.00000000000E+00  0.00000000000E+00  0.42744698372E+03  0.42744698372E+03  0.00000000000E+00 0.  1.
          4   -1    0    0  502    0  0.00000000000E+00 -0.00000000000E+00 -0.36293389944E+03  0.36293389944E+03  0.00000000000E+00 0. -1.
          6    1    1    2  502    0 -0.22567858294E+03  0.27307132488E+03  0.39507723699E+02  0.39578230317E+03  0.17200000000E+03 0. -1.
         -6    1    1    2    0  501  0.22567858294E+03 -0.27307132488E+03  0.25005360585E+02  0.39459857999E+03  0.17200000000E+03 0.  1.
</event>
<event>
 4    1  0.6365705E-002  0.2582401E+03  0.7818608E-02  0.1108205E+00
         -2   -1    0    0    0  501 -0.00000000000E+00  0.00000000000E+00  0.23376722237E+03  0.23376722237E+03  0.00000000000E+00 0.  1.
          2   -1    0    0  502    0  0.00000000000E+00 -0.00000000000E+00 -0.50035832429E+03  0.50035832429E+03  0.00000000000E+00 0. -1.
          6    1    1    2  502    0  0.18815271020E+03 -0.41261681580E+02 -0.37395506854E+03  0.45445611670E+03  0.17200000000E+03 0. -1.
         -6    1    1    2    0  501 -0.18815271020E+03  0.41261681580E+02  0.10736396662E+03  0.27966942995E+03  0.17200000000E+03 0.  1.
</event>
<event>
 4    1  0.6365705E-002  0.1955986E+03  0.7818608E-02  0.1153507E+00
         -1   -1    0    0    0  501 -0.00000000000E+00  0.00000000000E+00  0.30721109801E+02  0.30721109801E+02  0.00000000000E+00 0.  1.
          1   -1    0    0  502    0  0.00000000000E+00 -0.00000000000E+00 -0.21353752739E+04  0.21353752739E+04  0.00000000000E+00 0. -1.
          6    1    1    2  502    0 -0.29695670574E+02 -0.88277755735E+02 -0.17515405331E+04  0.17624281642E+04  0.17200000000E+03 0. -1.
         -6    1    1    2    0  501  0.29695670574E+02  0.88277755735E+02 -0.35311363101E+03  0.40366821947E+03  0.17200000000E+03 0.  1.
</event>
<event>
 4    1  0.6365705E-002  0.1770693E+03  0.7818608E-02  0.1170670E+00
          1   -1    0    0  502    0  0.00000000000E+00  0.00000000000E+00  0.15113044907E+03  0.15113044907E+03  0.00000000000E+00 0. -1.
         -1   -1    0    0    0  501 -0.00000000000E+00 -0.00000000000E+00 -0.21578384235E+03  0.21578384235E+03  0.00000000000E+00 0.  1.
          6    1    1    2  502    0 -0.41178735478E+02  0.85927604707E+01 -0.68358579101E+02  0.18980626735E+03  0.17200000000E+03 0.  1.
         -6    1    1    2    0  501  0.41178735478E+02 -0.85927604707E+01  0.37051858215E+01  0.17710802407E+03  0.17200000000E+03 0.  1.
</event>
<event>
 4    1  0.6365705E-002  0.1934713E+03  0.7818608E-02  0.1155367E+00
         -2   -1    0    0    0  501 -0.00000000000E+00  0.00000000000E+00  0.47770166072E+02  0.47770166072E+02  0.00000000000E+00 0.  1.
          2   -1    0    0  502    0  0.00000000000E+00 -0.00000000000E+00 -0.10358208252E+04  0.10358208252E+04  0.00000000000E+00 0. -1.
          6    1    1    2  502    0  0.54681628445E+02 -0.69692633681E+02 -0.22665597502E+03  0.29800012532E+03  0.17200000000E+03 0.  1.
         -6    1    1    2    0  501 -0.54681628445E+02  0.69692633681E+02 -0.76139468408E+03  0.78559086592E+03  0.17200000000E+03 0. -1.
</event>
<event>
 4    1  0.6365705E-002  0.2942486E+03  0.7818608E-02  0.1088152E+00
          2   -1    0    0  502    0  0.00000000000E+00  0.00000000000E+00  0.73451547314E+03  0.73451547314E+03  0.00000000000E+00 0. -1.
         -2   -1    0    0    0  501 -0.00000000000E+00 -0.00000000000E+00 -0.12318265500E+03  0.12318265500E+03  0.00000000000E+00 0.  1.
          6    1    1    2  502    0  0.11450919512E+03 -0.20948963699E+03  0.39467076491E+03  0.49228779839E+03  0.17200000000E+03 0. -1.
         -6    1    1    2    0  501 -0.11450919512E+03  0.20948963699E+03  0.21666205323E+03  0.36541032974E+03  0.17200000000E+03 0.  1.
</event>
<event>
 4    1  0.6365705E-002  0.2372697E+03  0.7818608E-02  0.1121625E+00
         -2   -1    0    0    0  501 -0.00000000000E+00  0.00000000000E+00  0.23254865646E+03  0.23254865646E+03  0.00000000000E+00 0.  1.
          2   -1    0    0  502    0  0.00000000000E+00 -0.00000000000E+00 -0.42838799050E+03  0.42838799050E+03  0.00000000000E+00 0. -1.
          6    1    1    2  502    0  0.15729254001E+03 -0.44407033491E+02 -0.31585074680E+03  0.39504255723E+03  0.17200000000E+03 0. -1.
         -6    1    1    2    0  501 -0.15729254001E+03  0.44407033491E+02  0.12001141275E+03  0.26589408974E+03  0.17200000000E+03 0.  1.
</event>
<event>
 4    1  0.6365705E-002  0.2831270E+03  0.7818608E-02  0.1093993E+00
          1   -1    0    0  502    0  0.00000000000E+00  0.00000000000E+00  0.89652719846E+03  0.89652719846E+03  0.00000000000E+00 0. -1.
         -1   -1    0    0    0  501 -0.00000000000E+00 -0.00000000000E+00 -0.90733523769E+02  0.90733523769E+02  0.00000000000E+00 0.  1.
          6    1    1    2  502    0  0.14467589461E+03 -0.17217951136E+03  0.46245535284E+03  0.54224150707E+03  0.17200000000E+03 0. -1.
         -6    1    1    2    0  501 -0.14467589461E+03  0.17217951136E+03  0.34333832185E+03  0.44501921516E+03  0.17200000000E+03 0.  1.
</event>
<event>
 4    1  0.6365705E-002  0.2486451E+03  0.7818608E-02  0.1114164E+00
         -4   -1    0    0    0  501 -0.00000000000E+00  0.00000000000E+00  0.13183345847E+03  0.13183345847E+03  0.00000000000E+00 0.  1.
          4   -1    0    0  502    0  0.00000000000E+00 -0.00000000000E+00 -0.79984224236E+03  0.79984224236E+03  0.00000000000E+00 0. -1.
          6    1    1    2  502    0  0.14943337728E+03  0.99549171099E+02 -0.63362422945E+03  0.68066440766E+03  0.17200000000E+03 0. -1.
         -6    1    1    2    0  501 -0.14943337728E+03 -0.99549171099E+02 -0.34384554439E+02  0.25101129317E+03  0.17200000000E+03 0.  1.
</event>
<event>
 4    1  0.6365705E-002  0.2512656E+03  0.7818608E-02  0.1112508E+00
          2   -1    0    0  502    0  0.00000000000E+00  0.00000000000E+00  0.11870662444E+03  0.11870662444E+03  0.00000000000E+00 0. -1.
         -2   -1    0    0    0  501 -0.00000000000E+00 -0.00000000000E+00 -0.12724402979E+04  0.12724402979E+04  0.00000000000E+00 0.  1.
          6    1    1    2  502    0 -0.16959442682E+03 -0.69196389029E+02 -0.46211440352E+02  0.25547975865E+03  0.17200000000E+03 0. -1.
         -6    1    1    2    0  501  0.16959442682E+03  0.69196389029E+02 -0.11075222331E+04  0.11356671636E+04  0.17200000000E+03 0.  1.
</event>
<event>
 4    1  0.6365705E-002  0.1962971E+03  0.7818608E-02  0.1152901E+00
          2   -1    0    0  502    0  0.00000000000E+00  0.00000000000E+00  0.13860625992E+04  0.13860625992E+04  0.00000000000E+00 0. -1.
         -2   -1    0    0    0  501 -0.00000000000E+00 -0.00000000000E+00 -0.78601167359E+02  0.78601167359E+02  0.00000000000E+00 0.  1.
          6    1    1    2  502    0 -0.85761728400E+02 -0.39918380100E+02  0.12424798166E+04  0.12578905540E+04  0.17200000000E+03 0. -1.
         -6    1    1    2    0  501  0.85761728400E+02  0.39918380100E+02  0.64981615263E+02  0.20677321260E+03  0.17200000000E+03 0.  1.
</event>
<event>
 4    1  0.6365705E-002  0.2235303E+03  0.7818608E-02  0.1131278E+00
          2   -1    0    0  502    0  0.00000000000E+00  0.00000000000E+00  0.18004822057E+04  0.18004822057E+04  0.00000000000E+00 0. -1.
         -2   -1    0    0    0  501 -0.00000000000E+00 -0.00000000000E+00 -0.30598036745E+02  0.30598036745E+02  0.00000000000E+00 0.  1.
          6    1    1    2  502    0 -0.11152886832E+03 -0.89124095038E+02  0.11641972708E+04  0.11854623900E+04  0.17200000000E+03 0. -1.
         -6    1    1    2    0  501  0.11152886832E+03  0.89124095038E+02  0.60568689812E+03  0.64561785240E+03  0.17200000000E+03 0.  1.
</event>
<event>
 4    1  0.6365705E-002  0.1837981E+03  0.7818608E-02  0.1164177E+00
         -2   -1    0    0    0  501 -0.00000000000E+00  0.00000000000E+00  0.79307446641E+02  0.79307446641E+02  0.00000000000E+00 0.  1.
          2   -1    0    0  502    0  0.00000000000E+00 -0.00000000000E+00 -0.59721445459E+03  0.59721445459E+03  0.00000000000E+00 0. -1.
          6    1    1    2  502    0 -0.22165310419E+01 -0.64751966909E+02 -0.44009116823E+03  0.47692972919E+03  0.17200000000E+03 0. -1.
         -6    1    1    2    0  501  0.22165310419E+01  0.64751966909E+02 -0.77815839714E+02  0.19959217204E+03  0.17200000000E+03 0.  1.
</event>
<event>
 4    1  0.6365705E-002  0.1734203E+03  0.7818608E-02  0.1174327E+00
          2   -1    0    0  502    0  0.00000000000E+00  0.00000000000E+00  0.44396264159E+03  0.44396264159E+03  0.00000000000E+00 0. -1.
         -2   -1    0    0    0  501 -0.00000000000E+00 -0.00000000000E+00 -0.19081599884E+03  0.19081599884E+03  0.00000000000E+00 0.  1.
          6    1    1    2  502    0  0.16405305401E+02 -0.14882258723E+02  0.38147299009E+03  0.41904207168E+03  0.17200000000E+03 0. -1.
         -6    1    1    2    0  501 -0.16405305401E+02  0.14882258723E+02 -0.12832634734E+03  0.21573656874E+03  0.17200000000E+03 0.  1.
</event>
<event>
 4    1  0.6365705E-002  0.3047248E+03  0.7818608E-02  0.1082902E+00
          2   -1    0    0  502    0  0.00000000000E+00  0.00000000000E+00  0.23076361594E+04  0.23076361594E+04  0.00000000000E+00 0. -1.
         -2   -1    0    0    0  501 -0.00000000000E+00 -0.00000000000E+00 -0.40374738170E+02  0.40374738170E+02  0.00000000000E+00 0.  1.
          6    1    1    2  502    0 -0.10926897431E+03 -0.22656898577E+03  0.12016759862E+04  0.12397106073E+04  0.17200000000E+03 0. -1.
         -6    1    1    2    0  501  0.10926897431E+03  0.22656898577E+03  0.10655854351E+04  0.11083002903E+04  0.17200000000E+03 0.  1.
</event>
<event>
 4    1  0.6365705E-002  0.2660799E+03  0.7818608E-02  0.1103544E+00
          2   -1    0    0  502    0  0.00000000000E+00  0.00000000000E+00  0.45326151979E+03  0.45326151979E+03  0.00000000000E+00 0. -1.
         -2   -1    0    0    0  501 -0.00000000000E+00 -0.00000000000E+00 -0.15736871411E+03  0.15736871411E+03  0.00000000000E+00 0.  1.
          6    1    1    2  502    0 -0.14658699579E+03  0.14045204839E+03  0.17428070131E+03  0.31807591559E+03  0.17200000000E+03 0. -1.
         -6    1    1    2    0  501  0.14658699579E+03 -0.14045204839E+03  0.12161210438E+03  0.29255431831E+03  0.17200000000E+03 0.  1.
</event>
<event>
 4    1  0.6365705E-002  0.3015444E+03  0.7818608E-02  0.1084471E+00
         -2   -1    0    0    0  501 -0.00000000000E+00  0.00000000000E+00  0.22630000499E+03  0.22630000499E+03  0.00000000000E+00 0.  1.
          2   -1    0    0  502    0  0.00000000000E+00 -0.00000000000E+00 -0.43779056681E+03  0.43779056681E+03  0.00000000000E+00 0. -1.
          6    1    1    2  502    0  0.22389042167E+03  0.10591548581E+03 -0.10550320233E+02  0.30172888544E+03  0.17200000000E+03 0. -1.
         -6    1    1    2    0  501 -0.22389042167E+03 -0.10591548581E+03 -0.20094024159E+03  0.36236168636E+03  0.17200000000E+03 0.  1.
</event>
<event>
 4    1  0.6365705E-002  0.2039155E+03  0.7818608E-02  0.1146477E+00
          2   -1    0    0  502    0  0.00000000000E+00  0.00000000000E+00  0.10400136721E+04  0.10400136721E+04  0.00000000000E+00 0. -1.
         -2   -1    0    0    0  501 -0.00000000000E+00 -0.00000000000E+00 -0.53267862159E+02  0.53267862159E+02  0.00000000000E+00 0.  1.
          6    1    1    2  502    0  0.43377665043E+02 -0.10057788047E+03  0.22036898239E+03  0.30023993782E+03  0.17200000000E+03 0.  1.
         -6    1    1    2    0  501 -0.43377665043E+02  0.10057788047E+03  0.76637682753E+03  0.79304159641E+03  0.17200000000E+03 0. -1.
</event>
<event>
 4    1  0.6365705E-002  0.1905062E+03  0.7818608E-02  0.1158006E+00
         -2   -1    0    0    0  501 -0.00000000000E+00  0.00000000000E+00  0.20697238458E+02  0.20697238458E+02  0.00000000000E+00 0.  1.
          2   -1    0    0  502    0  0.00000000000E+00 -0.00000000000E+00 -0.20221687185E+04  0.20221687185E+04  0.00000000000E+00 0. -1.
          6    1    1    2  502    0  0.81085924559E+02  0.11562716680E+02 -0.13730495205E+04  0.13862025859E+04  0.17200000000E+03 0. -1.
         -6    1    1    2    0  501 -0.81085924559E+02 -0.11562716680E+02 -0.62842195960E+03  0.65666337106E+03  0.17200000000E+03 0.  1.
</event>
<event>
 4    1  0.6365705E-002  0.2519249E+03  0.7818608E-02  0.1112094E+00
          2   -1    0    0  502    0  0.00000000000E+00  0.00000000000E+00  0.30864314622E+04  0.30864314622E+04  0.00000000000E+00 0. -1.
         -2   -1    0    0    0  501 -0.00000000000E+00 -0.00000000000E+00 -0.28269092722E+02  0.28269092722E+02  0.00000000000E+00 0.  1.
          6    1    1    2  502    0  0.17369749143E+03  0.60920713467E+02  0.23421901456E+04  0.23556996476E+04  0.17200000000E+03 0. -1.
         -6    1    1    2    0  501 -0.17369749143E+03 -0.60920713467E+02  0.71597222396E+03  0.75900090734E+03  0.17200000000E+03 0.  1.
</event>
<event>
 4    1  0.6365705E-002  0.2349776E+03  0.7818608E-02  0.1123185E+00
         -1   -1    0    0    0  501 -0.00000000000E+00  0.00000000000E+00  0.28705434916E+03  0.28705434916E+03  0.00000000000E+00 0.  1.
          1   -1    0    0  502    0  0.00000000000E+00 -0.00000000000E+00 -0.19903107397E+03  0.19903107397E+03  0.00000000000E+00 0. -1.
          6    1    1    2  502    0 -0.96119484232E+02 -0.12802941222E+03 -0.52246130137E+00  0.23497820879E+03  0.17200000000E+03 0.  1.
         -6    1    1    2    0  501  0.96119484232E+02  0.12802941222E+03  0.88545736486E+02  0.25110721434E+03  0.17200000000E+03 0.  1.
</event>
<event>
 4    1  0.6365705E-002  0.3196130E+03  0.7818608E-02  0.1075828E+00
          1   -1    0    0  502    0  0.00000000000E+00  0.00000000000E+00  0.21321447660E+04  0.21321447660E+04  0.00000000000E+00 0. -1.
         -1   -1    0    0    0  501 -0.00000000000E+00 -0.00000000000E+00 -0.48352709994E+02  0.48352709994E+02  0.00000000000E+00 0.  1.
          6    1    1    2  502    0  0.83797022257E+02  0.25602051380E+03  0.11461410070E+04  0.11898704351E+04  0.17200000000E+03 0. -1.
         -6    1    1    2    0  501 -0.83797022257E+02 -0.25602051380E+03  0.93765104900E+03  0.99062704087E+03  0.17200000000E+03 0.  1.
</event>
<event>
 4    1  0.6365705E-002  0.1896833E+03  0.7818608E-02  0.1158747E+00
          2   -1    0    0  502    0  0.00000000000E+00  0.00000000000E+00  0.25671289585E+04  0.25671289585E+04  0.00000000000E+00 0. -1.
         -2   -1    0    0    0  501 -0.00000000000E+00 -0.00000000000E+00 -0.18248477960E+02  0.18248477960E+02  0.00000000000E+00 0.  1.
          6    1    1    2  502    0 -0.73740778923E+02  0.30952183118E+02  0.65185222405E+03  0.67888958021E+03  0.17200000000E+03 0.  1.
         -6    1    1    2    0  501  0.73740778923E+02 -0.30952183118E+02  0.18970282565E+04  0.19064878562E+04  0.17200000000E+03 0. -1.
</event>
<event>
 4    1  0.6365705E-002  0.2077924E+03  0.7818608E-02  0.1143326E+00
         -1   -1    0    0    0  501 -0.00000000000E+00  0.00000000000E+00  0.25992074372E+03  0.25992074372E+03  0.00000000000E+00 0.  1.
          1   -1    0    0  502    0  0.00000000000E+00 -0.00000000000E+00 -0.27656083233E+03  0.27656083233E+03  0.00000000000E+00 0. -1.
          6    1    1    2  502    0  0.11521505974E+03 -0.17864880657E+02 -0.17783074294E+03  0.27349851387E+03  0.17200000000E+03 0. -1.
         -6    1    1    2    0  501 -0.11521505974E+03  0.17864880657E+02  0.16119065433E+03  0.26298306219E+03  0.17200000000E+03 0.  1.
</event>
<event>
 4    1  0.6365705E-002  0.4304178E+03  0.7818608E-02  0.1033728E+00
          1   -1    0    0  502    0  0.00000000000E+00  0.00000000000E+00  0.89944519391E+03  0.89944519391E+03  0.00000000000E+00 0. -1.
         -1   -1    0    0    0  501 -0.00000000000E+00 -0.00000000000E+00 -0.31579748558E+03  0.31579748558E+03  0.00000000000E+00 0.  1.
          6    1    1    2  502    0  0.38996735168E+03 -0.60008051249E+02  0.65015330243E+03  0.77971713990E+03  0.17200000000E+03 0. -1.
         -6    1    1    2    0  501 -0.38996735168E+03  0.60008051249E+02 -0.66505594096E+02  0.43552553959E+03  0.17200000000E+03 0.  1.
</event>
<event>
 4    1  0.6365705E-002  0.2358171E+03  0.7818608E-02  0.1122611E+00
         -2   -1    0    0    0  501 -0.00000000000E+00  0.00000000000E+00  0.45996288789E+02  0.45996288789E+02  0.00000000000E+00 0.  1.
          2   -1    0    0  502    0  0.00000000000E+00 -0.00000000000E+00 -0.13096231647E+04  0.13096231647E+04  0.00000000000E+00 0. -1.
          6    1    1    2  502    0  0.83051906396E+02  0.13830437043E+03 -0.44393627405E+03  0.50268194065E+03  0.17200000000E+03 0.  1.
         -6    1    1    2    0  501 -0.83051906396E+02 -0.13830437043E+03 -0.81969060190E+03  0.85293751288E+03  0.17200000000E+03 0. -1.
</event>
<event>
 4    1  0.6365705E-002  0.2928189E+03  0.7818608E-02  0.1088887E+00
          2   -1    0    0  502    0  0.00000000000E+00  0.00000000000E+00  0.62029603262E+03  0.62029603262E+03  0.00000000000E+00 0. -1.
         -2   -1    0    0    0  501 -0.00000000000E+00 -0.00000000000E+00 -0.32548822257E+03  0.32548822257E+03  0.00000000000E+00 0.  1.
          6    1    1    2  502    0  0.17917757621E+03  0.15509444171E+03  0.50609126515E+03  0.58469757853E+03  0.17200000000E+03 0. -1.
         -6    1    1    2    0  501 -0.17917757621E+03 -0.15509444171E+03 -0.21128345510E+03  0.36108667667E+03  0.17200000000E+03 0.  1.
</event>
<event>
 4    1  0.6365705E-002  0.3770836E+03  0.7818608E-02  0.1052017E+00
          1   -1    0    0  502    0  0.00000000000E+00  0.00000000000E+00  0.39040136642E+03  0.39040136642E+03  0.00000000000E+00 0. -1.
         -1   -1    0    0    0  501 -0.00000000000E+00 -0.00000000000E+00 -0.43009734066E+03  0.43009734066E+03  0.00000000000E+00 0.  1.
          6    1    1    2  502    0 -0.32729814947E+03 -0.74053675801E+02  0.14071011272E+03  0.40248150438E+03  0.17200000000E+03 0. -1.
         -6    1    1    2    0  501  0.32729814947E+03  0.74053675801E+02 -0.18040608696E+03  0.41801720271E+03  0.17200000000E+03 0.  1.
</event>
<event>
 4    1  0.6365705E-002  0.1769177E+03  0.7818608E-02  0.1170820E+00
          2   -1    0    0  502    0  0.00000000000E+00  0.00000000000E+00  0.88423709971E+02  0.88423709971E+02  0.00000000000E+00 0. -1.
         -2   -1    0    0    0  501 -0.00000000000E+00 -0.00000000000E+00 -0.41596672641E+03  0.41596672641E+03  0.00000000000E+00 0.  1.
          6    1    1    2  502    0  0.40790798637E+02  0.72098917836E+01 -0.66413677347E+02  0.18897261265E+03  0.17200000000E+03 0. -1.
         -6    1    1    2    0  501 -0.40790798637E+02 -0.72098917836E+01 -0.26112933909E+03  0.31541782373E+03  0.17200000000E+03 0.  1.
</event>
<event>
 4    1  0.6365705E-002  0.2225853E+03  0.7818608E-02  0.1131970E+00
         -2   -1    0    0    0  501 -0.00000000000E+00  0.00000000000E+00  0.21502743677E+03  0.21502743677E+03  0.00000000000E+00 0.  1.
          2   -1    0    0  502    0  0.00000000000E+00 -0.00000000000E+00 -0.32767470799E+03  0.32767470799E+03  0.00000000000E+00 0. -1.
          6    1    1    2  502    0 -0.12629086162E+03  0.63331005896E+02 -0.20416316340E+03  0.30203773825E+03  0.17200000000E+03 0. -1.
         -6    1    1    2    0  501  0.12629086162E+03 -0.63331005896E+02  0.91515892176E+02  0.24066440651E+03  0.17200000000E+03 0.  1.
</event>
<event>
 4    1  0.6365705E-002  0.2599192E+03  0.7818608E-02  0.1107192E+00
         -3   -1    0    0    0  501 -0.00000000000E+00  0.00000000000E+00  0.12777624472E+03  0.12777624472E+03  0.00000000000E+00 0.  1.
          3   -1    0    0  502    0  0.00000000000E+00 -0.00000000000E+00 -0.61770878416E+03  0.61770878416E+03  0.00000000000E+00 0. -1.
          6    1    1    2  502    0 -0.14103461516E+03 -0.13447384694E+03 -0.10349040823E+03  0.27976462031E+03  0.17200000000E+03 0. -1.
         -6    1    1    2    0  501  0.14103461516E+03  0.13447384694E+03 -0.38644213121E+03  0.46572040857E+03  0.17200000000E+03 0. -1.
</event>
<event>
 4    1  0.6365705E-002  0.5392481E+03  0.7818608E-02  0.1004014E+00
          2   -1    0    0  502    0  0.00000000000E+00  0.00000000000E+00  0.39661615650E+03  0.39661615650E+03  0.00000000000E+00 0. -1.
         -2   -1    0    0    0  501 -0.00000000000E+00 -0.00000000000E+00 -0.76533495232E+03  0.76533495232E+03  0.00000000000E+00 0.  1.
          6    1    1    2  502    0  0.34206730953E+03  0.37972944861E+03 -0.30345594847E+03  0.61876813998E+03  0.17200000000E+03 0. -1.
         -6    1    1    2    0  501 -0.34206730953E+03 -0.37972944861E+03 -0.65262847344E+02  0.54318296884E+03  0.17200000000E+03 0.  1.
</event>
<event>
 4    1  0.6365705E-002  0.2173070E+03  0.7818608E-02  0.1135907E+00
         -2   -1    0    0    0  501 -0.00000000000E+00  0.00000000000E+00  0.24736474659E+02  0.24736474659E+02  0.00000000000E+00 0.  1.
          2   -1    0    0  502    0  0.00000000000E+00 -0.00000000000E+00 -0.22011021169E+04  0.22011021169E+04  0.00000000000E+00 0. -1.
          6    1    1    2  502    0  0.12486939263E+02 -0.13222112981E+03 -0.14935963949E+04  0.15093218814E+04  0.17200000000E+03 0. -1.
         -6    1    1    2    0  501 -0.12486939263E+02  0.13222112981E+03 -0.68276924736E+03  0.71651671018E+03  0.17200000000E+03 0.  1.
</event>
<event>
 4    1  0.6365705E-002  0.3941328E+03  0.7818608E-02  0.1045830E+00
         -1   -1    0    0    0  501 -0.00000000000E+00  0.00000000000E+00  0.45308622599E+03  0.45308622599E+03  0.00000000000E+00 0.  1.
          1   -1    0    0  502    0  0.00000000000E+00 -0.00000000000E+00 -0.69793602199E+03  0.69793602199E+03  0.00000000000E+00 0. -1.
          6    1    1    2  502    0  0.28148380273E+03  0.21569320002E+03 -0.53292436961E+03  0.66283412062E+03  0.17200000000E+03 0. -1.
         -6    1    1    2    0  501 -0.28148380273E+03 -0.21569320002E+03  0.28807457361E+03  0.48818812736E+03  0.17200000000E+03 0.  1.
</event>
<event>
 4    1  0.6365705E-002  0.3799061E+03  0.7818608E-02  0.1050968E+00
          1   -1    0    0  502    0  0.00000000000E+00  0.00000000000E+00  0.10237818569E+04  0.10237818569E+04  0.00000000000E+00 0. -1.
         -1   -1    0    0    0  501 -0.00000000000E+00 -0.00000000000E+00 -0.23588896826E+03  0.23588896826E+03  0.00000000000E+00 0.  1.
          6    1    1    2  502    0  0.23530239841E+03 -0.24367478939E+03  0.79346425762E+03  0.87972390544E+03  0.17200000000E+03 0. -1.
         -6    1    1    2    0  501 -0.23530239841E+03  0.24367478939E+03 -0.55713689477E+01  0.37994691976E+03  0.17200000000E+03 0.  1.
</event>
<event>
 4    1  0.6365705E-002  0.2784993E+03  0.7818608E-02  0.1096511E+00
         -2   -1    0    0    0  501 -0.00000000000E+00  0.00000000000E+00  0.24496745008E+03  0.24496745008E+03  0.00000000000E+00 0.  1.
          2   -1    0    0  502    0  0.00000000000E+00 -0.00000000000E+00 -0.32722116269E+03  0.32722116269E+03  0.00000000000E+00 0. -1.
          6    1    1    2  502    0  0.18663707676E+03 -0.11464927091E+03 -0.92619306410E+02  0.29349649003E+03  0.17200000000E+03 0. -1.
         -6    1    1    2    0  501 -0.18663707676E+03  0.11464927091E+03  0.10365593800E+02  0.27869212274E+03  0.17200000000E+03 0.  1.
</event>
<event>
 4    1  0.6365705E-002  0.4213786E+03  0.7818608E-02  0.1036619E+00
         -2   -1    0    0    0  501 -0.00000000000E+00  0.00000000000E+00  0.96383713072E+02  0.96383713072E+02  0.00000000000E+00 0.  1.
          2   -1    0    0  502    0  0.00000000000E+00 -0.00000000000E+00 -0.21102397661E+04  0.21102397661E+04  0.00000000000E+00 0. -1.
          6    1    1    2  502    0 -0.18117205869E+03 -0.33934143342E+03 -0.14001306686E+04  0.14621647693E+04  0.17200000000E+03 0. -1.
         -6    1    1    2    0  501  0.18117205869E+03  0.33934143342E+03 -0.61372538443E+03  0.74445870993E+03  0.17200000000E+03 0.  1.
</event>
<event>
 4    1  0.6365705E-002  0.2405998E+03  0.7818608E-02  0.1119394E+00
         -3   -1    0    0    0  501 -0.00000000000E+00  0.00000000000E+00  0.33268184691E+03  0.33268184691E+03  0.00000000000E+00 0.  1.
          3   -1    0    0  502    0  0.00000000000E+00 -0.00000000000E+00 -0.18021102888E+03  0.18021102888E+03  0.00000000000E+00 0. -1.
          6    1    1    2  502    0  0.15499124951E+03  0.65436864247E+02  0.12382549345E+03  0.27059383484E+03  0.17200000000E+03 0. -1.
         -6    1    1    2    0  501 -0.15499124951E+03 -0.65436864247E+02  0.28645324585E+02  0.24229904095E+03  0.17200000000E+03 0.  1.
</event>
<event>
 4    1  0.6365705E-002  0.2246427E+03  0.7818608E-02  0.1130468E+00
         -1   -1    0    0    0  501 -0.00000000000E+00  0.00000000000E+00  0.64775723552E+02  0.64775723552E+02  0.00000000000E+00 0.  1.
          1   -1    0    0  502    0  0.00000000000E+00 -0.00000000000E+00 -0.79696950246E+03  0.79696950246E+03  0.00000000000E+00 0. -1.
          6    1    1    2  502    0 -0.30038135341E+02  0.14134368915E+03 -0.30151047306E+03  0.37599586886E+03  0.17200000000E+03 0. -1.
         -6    1    1    2    0  501  0.30038135341E+02 -0.14134368915E+03 -0.43068330584E+03  0.48574935714E+03  0.17200000000E+03 0.  1.
</event>
<event>
 4    1  0.6365705E-002  0.1803061E+03  0.7818608E-02  0.1167507E+00
         -1   -1    0    0    0  501 -0.00000000000E+00  0.00000000000E+00  0.16066052237E+02  0.16066052237E+02  0.00000000000E+00 0.  1.
          1   -1    0    0  502    0  0.00000000000E+00 -0.00000000000E+00 -0.20481285551E+04  0.20481285551E+04  0.00000000000E+00 0. -1.
          6    1    1    2  502    0 -0.17880690252E+02 -0.51054547615E+02 -0.11291190947E+04  0.11434247749E+04  0.17200000000E+03 0. -1.
         -6    1    1    2    0  501  0.17880690252E+02  0.51054547615E+02 -0.90294340814E+03  0.92076983238E+03  0.17200000000E+03 0.  1.
</event>
<event>
 4    1  0.6365705E-002  0.3378224E+03  0.7818608E-02  0.1067727E+00
          1   -1    0    0  502    0  0.00000000000E+00  0.00000000000E+00  0.39624924433E+03  0.39624924433E+03  0.00000000000E+00 0. -1.
         -1   -1    0    0    0  501 -0.00000000000E+00 -0.00000000000E+00 -0.29437371193E+03  0.29437371193E+03  0.00000000000E+00 0.  1.
          6    1    1    2  502    0 -0.22524340122E+03 -0.18386242283E+03  0.16901502723E+00  0.33782245172E+03  0.17200000000E+03 0.  1.
         -6    1    1    2    0  501  0.22524340122E+03  0.18386242283E+03  0.10170651737E+03  0.35280050453E+03  0.17200000000E+03 0.  1.
</event>
<event>
 4    1  0.6365705E-002  0.1870599E+03  0.7818608E-02  0.1161140E+00
         -2   -1    0    0    0  501 -0.00000000000E+00  0.00000000000E+00  0.30370395145E+02  0.30370395145E+02  0.00000000000E+00 0.  1.
          2   -1    0    0  502    0  0.00000000000E+00 -0.00000000000E+00 -0.12294475522E+04  0.12294475522E+04  0.00000000000E+00 0. -1.
          6    1    1    2  502    0  0.69101719389E+02 -0.25146696420E+02 -0.75747834507E+03  0.78023384137E+03  0.17200000000E+03 0. -1.
         -6    1    1    2    0  501 -0.69101719389E+02  0.25146696420E+02 -0.44159881201E+03  0.47958410600E+03  0.17200000000E+03 0.  1.
</event>
<event>
 4    1  0.6365705E-002  0.1812915E+03  0.7818608E-02  0.1166559E+00
          3   -1    0    0  502    0  0.00000000000E+00  0.00000000000E+00  0.48814047532E+03  0.48814047532E+03  0.00000000000E+00 0. -1.
         -3   -1    0    0    0  501 -0.00000000000E+00 -0.00000000000E+00 -0.94912699135E+02  0.94912699135E+02  0.00000000000E+00 0.  1.
          6    1    1    2  502    0 -0.27897935413E+01 -0.57226059587E+02  0.35377050375E+03  0.39751751429E+03  0.17200000000E+03 0. -1.
         -6    1    1    2    0  501  0.27897935413E+01  0.57226059587E+02  0.39457272431E+02  0.18553566016E+03  0.17200000000E+03 0.  1.
</event>
<event>
 4    1  0.6365705E-002  0.1826397E+03  0.7818608E-02  0.1165273E+00
         -2   -1    0    0    0  501 -0.00000000000E+00  0.00000000000E+00  0.63136022904E+02  0.63136022904E+02  0.00000000000E+00 0.  1.
          2   -1    0    0  502    0  0.00000000000E+00 -0.00000000000E+00 -0.55110289225E+03  0.55110289225E+03  0.00000000000E+00 0. -1.
          6    1    1    2  502    0 -0.38130829676E+01  0.61308322997E+02 -0.18156538586E+03  0.25753298704E+03  0.17200000000E+03 0.  1.
         -6    1    1    2    0  501  0.38130829676E+01 -0.61308322997E+02 -0.30640148349E+03  0.35670592812E+03  0.17200000000E+03 0. -1.
</event>
<event>
 4    1  0.6365705E-002  0.4147135E+03  0.7818608E-02  0.1038801E+00
         -2   -1    0    0    0  501 -0.00000000000E+00  0.00000000000E+00  0.99539234625E+02  0.99539234625E+02  0.00000000000E+00 0.  1.
          2   -1    0    0  502    0  0.00000000000E+00 -0.00000000000E+00 -0.19252166402E+04  0.19252166402E+04  0.00000000000E+00 0. -1.
          6    1    1    2  502    0 -0.35681551991E+03  0.12282503528E+03 -0.58868050648E+03  0.72009169086E+03  0.17200000000E+03 0. -1.
         -6    1    1    2    0  501  0.35681551991E+03 -0.12282503528E+03 -0.12369968991E+04  0.13046641839E+04  0.17200000000E+03 0.  1.
</event>
<event>
 4    1  0.6365705E-002  0.2368597E+03  0.7818608E-02  0.1121903E+00
         -2   -1    0    0    0  501 -0.00000000000E+00  0.00000000000E+00  0.39478864400E+02  0.39478864400E+02  0.00000000000E+00 0.  1.
          2   -1    0    0  502    0  0.00000000000E+00 -0.00000000000E+00 -0.16491748952E+04  0.16491748952E+04  0.00000000000E+00 0. -1.
          6    1    1    2  502    0  0.13671674360E+03  0.88470694639E+02 -0.11188535331E+04  0.11436501914E+04  0.17200000000E+03 0. -1.
         -6    1    1    2    0  501 -0.13671674360E+03 -0.88470694639E+02 -0.49084249773E+03  0.54500356822E+03  0.17200000000E+03 0.  1.
</event>
<event>
 4    1  0.6365705E-002  0.1831880E+03  0.7818608E-02  0.1164753E+00
         -1   -1    0    0    0  501 -0.00000000000E+00  0.00000000000E+00  0.26287888460E+03  0.26287888460E+03  0.00000000000E+00 0.  1.
          1   -1    0    0  502    0  0.00000000000E+00 -0.00000000000E+00 -0.26244758475E+03  0.26244758475E+03  0.00000000000E+00 0. -1.
          6    1    1    2  502    0  0.29753238443E+02  0.55575081173E+02 -0.18802384483E+03  0.26250868761E+03  0.17200000000E+03 0. -1.
         -6    1    1    2    0  501 -0.29753238443E+02 -0.55575081173E+02  0.18845514468E+03  0.26281778174E+03  0.17200000000E+03 0.  1.
</event>
<event>
 4    1  0.6365705E-002  0.1792468E+03  0.7818608E-02  0.1168534E+00
          2   -1    0    0  502    0  0.00000000000E+00  0.00000000000E+00  0.16352394742E+03  0.16352394742E+03  0.00000000000E+00 0. -1.
         -2   -1    0    0    0  501 -0.00000000000E+00 -0.00000000000E+00 -0.26436079769E+03  0.26436079769E+03  0.00000000000E+00 0.  1.
          6    1    1    2  502    0  0.48836877873E+02  0.12663779490E+02 -0.15882791814E+03  0.23949054163E+03  0.17200000000E+03 0.  1.
         -6    1    1    2    0  501 -0.48836877873E+02 -0.12663779490E+02  0.57991067873E+02  0.18839420348E+03  0.17200000000E+03 0. -1.
</event>
<event>
 4    1  0.6365705E-002  0.2180589E+03  0.7818608E-02  0.1135339E+00
          2   -1    0    0  502    0  0.00000000000E+00  0.00000000000E+00  0.14427736934E+04  0.14427736934E+04  0.00000000000E+00 0. -1.
         -2   -1    0    0    0  501 -0.00000000000E+00 -0.00000000000E+00 -0.69034545922E+02  0.69034545922E+02  0.00000000000E+00 0.  1.
          6    1    1    2  502    0 -0.13237229694E+03  0.21053601407E+02  0.12333205321E+04  0.12524492860E+04  0.17200000000E+03 0. -1.
         -6    1    1    2    0  501  0.13237229694E+03 -0.21053601407E+02  0.14041861542E+03  0.25935895336E+03  0.17200000000E+03 0.  1.
</event>
<event>
 4    1  0.6365705E-002  0.2256326E+03  0.7818608E-02  0.1129752E+00
          2   -1    0    0  502    0  0.00000000000E+00  0.00000000000E+00  0.15880427345E+03  0.15880427345E+03  0.00000000000E+00 0. -1.
         -2   -1    0    0    0  501 -0.00000000000E+00 -0.00000000000E+00 -0.34582833939E+03  0.34582833939E+03  0.00000000000E+00 0.  1.
          6    1    1    2  502    0  0.13303405943E+03 -0.60232993364E+02 -0.25341150506E+02  0.22705120208E+03  0.17200000000E+03 0. -1.
         -6    1    1    2    0  501 -0.13303405943E+03  0.60232993364E+02 -0.16168291543E+03  0.27758141076E+03  0.17200000000E+03 0.  1.
</event>
<event>
 4    1  0.6365705E-002  0.1790946E+03  0.7818608E-02  0.1168682E+00
          2   -1    0    0  502    0  0.00000000000E+00  0.00000000000E+00  0.36343814442E+03  0.36343814442E+03  0.00000000000E+00 0. -1.
         -2   -1    0    0    0  501 -0.00000000000E+00 -0.00000000000E+00 -0.88617677388E+02  0.88617677388E+02  0.00000000000E+00 0.  1.
          6    1    1    2  502    0 -0.28259250569E+02  0.41137509681E+02  0.15188940446E+03  0.23483030284E+03  0.17200000000E+03 0. -1.
         -6    1    1    2    0  501  0.28259250569E+02 -0.41137509681E+02  0.12293106257E+03  0.21722551897E+03  0.17200000000E+03 0. -1.
</event>
<event>
 4    1  0.6365705E-002  0.1583089E+04  0.7818608E-02  0.8831005E-01
         -2   -1    0    0    0  501 -0.00000000000E+00  0.00000000000E+00  0.21470428010E+04  0.21470428010E+04  0.00000000000E+00 0.  1.
          2   -1    0    0  502    0  0.00000000000E+00 -0.00000000000E+00 -0.14207325794E+04  0.14207325794E+04  0.00000000000E+00 0. -1.
          6    1    1    2  502    0  0.14734275140E+04  0.55280798934E+03  0.11166355636E+04  0.19372775470E+04  0.17200000000E+03 0. -1.
         -6    1    1    2    0  501 -0.14734275140E+04 -0.55280798934E+03 -0.39032534195E+03  0.16304978334E+04  0.17200000000E+03 0.  1.
</event>
<event>
 4    1  0.6365705E-002  0.3145569E+03  0.7818608E-02  0.1078182E+00
         -2   -1    0    0    0  501 -0.00000000000E+00  0.00000000000E+00  0.86646039251E+02  0.86646039251E+02  0.00000000000E+00 0.  1.
          2   -1    0    0  502    0  0.00000000000E+00 -0.00000000000E+00 -0.17893078315E+04  0.17893078315E+04  0.00000000000E+00 0. -1.
          6    1    1    2  502    0 -0.25629456387E+03 -0.60623161118E+02 -0.14155131289E+04  0.14500425819E+04  0.17200000000E+03 0. -1.
         -6    1    1    2    0  501  0.25629456387E+03  0.60623161118E+02 -0.28714866334E+03  0.42591128887E+03  0.17200000000E+03 0.  1.
</event>
<event>
 4    1  0.6365705E-002  0.2029397E+03  0.7818608E-02  0.1147282E+00
          2   -1    0    0  502    0  0.00000000000E+00  0.00000000000E+00  0.98429373635E+02  0.98429373635E+02  0.00000000000E+00 0. -1.
         -2   -1    0    0    0  501 -0.00000000000E+00 -0.00000000000E+00 -0.47213373577E+03  0.47213373577E+03  0.00000000000E+00 0.  1.
          6    1    1    2  502    0  0.73441101725E+02 -0.78783970656E+02 -0.90625269227E+02  0.22225536861E+03  0.17200000000E+03 0. -1.
         -6    1    1    2    0  501 -0.73441101725E+02  0.78783970656E+02 -0.28307909291E+03  0.34830774080E+03  0.17200000000E+03 0.  1.
</event>
<event>
 4    1  0.6365705E-002  0.1726278E+03  0.7818608E-02  0.1175135E+00
          2   -1    0    0  502    0  0.00000000000E+00  0.00000000000E+00  0.20725751478E+03  0.20725751478E+03  0.00000000000E+00 0. -1.
         -2   -1    0    0    0  501 -0.00000000000E+00 -0.00000000000E+00 -0.15611053911E+03  0.15611053911E+03  0.00000000000E+00 0.  1.
          6    1    1    2  502    0  0.80174194397E+01 -0.12331837121E+02  0.76626094777E+02  0.18887009192E+03  0.17200000000E+03 0. -1.
         -6    1    1    2    0  501 -0.80174194397E+01  0.12331837121E+02 -0.25479119110E+02  0.17449796197E+03  0.17200000000E+03 0.  1.
</event>
<event>
 4    1  0.6365705E-002  0.2114841E+03  0.7818608E-02  0.1140396E+00
          2   -1    0    0  502    0  0.00000000000E+00  0.00000000000E+00  0.99806790174E+03  0.99806790174E+03  0.00000000000E+00 0. -1.
         -2   -1    0    0    0  501 -0.00000000000E+00 -0.00000000000E+00 -0.74704139705E+02  0.74704139705E+02  0.00000000000E+00 0.  1.
          6    1    1    2  502    0 -0.86070947412E+02 -0.87939265306E+02  0.12238265865E+03  0.24434205023E+03  0.17200000000E+03 0.  1.
         -6    1    1    2    0  501  0.86070947412E+02  0.87939265306E+02  0.80098110338E+03  0.82842999122E+03  0.17200000000E+03 0. -1.
</event>
<event>
 4    1  0.6365705E-002  0.2261398E+03  0.7818608E-02  0.1129387E+00
          1   -1    0    0  502    0  0.00000000000E+00  0.00000000000E+00  0.67537048293E+02  0.67537048293E+02  0.00000000000E+00 0. -1.
         -1   -1    0    0    0  501 -0.00000000000E+00 -0.00000000000E+00 -0.10457803935E+04  0.10457803935E+04  0.00000000000E+00 0.  1.
          6    1    1    2  502    0  0.14673804259E+03 -0.48108334859E+01 -0.78153729596E+03  0.81359679340E+03  0.17200000000E+03 0.  1.
         -6    1    1    2    0  501 -0.14673804259E+03  0.48108334859E+01 -0.19670604926E+03  0.29972064840E+03  0.17200000000E+03 0. -1.
</event>
<event>
 4    1  0.6365705E-002  0.2290068E+03  0.7818608E-02  0.1127341E+00
         -2   -1    0    0    0  501 -0.00000000000E+00  0.00000000000E+00  0.10359577734E+03  0.10359577734E+03  0.00000000000E+00 0.  1.
          2   -1    0    0  502    0  0.00000000000E+00 -0.00000000000E+00 -0.10381362972E+04  0.10381362972E+04  0.00000000000E+00 0. -1.
          6    1    1    2  502    0 -0.15069760906E+03  0.12262063037E+02 -0.87589182693E+03  0.90533453488E+03  0.17200000000E+03 0. -1.
         -6    1    1    2    0  501  0.15069760906E+03 -0.12262063037E+02 -0.58648692912E+02  0.23639753964E+03  0.17200000000E+03 0.  1.
</event>
<event>
 4    1  0.6365705E-002  0.1920082E+03  0.7818608E-02  0.1156662E+00
         -2   -1    0    0    0  501 -0.00000000000E+00  0.00000000000E+00  0.28955816317E+02  0.28955816317E+02  0.00000000000E+00 0.  1.
          2   -1    0    0  502    0  0.00000000000E+00 -0.00000000000E+00 -0.13975029018E+04  0.13975029018E+04  0.00000000000E+00 0. -1.
          6    1    1    2  502    0 -0.14682526023E+02  0.84068824120E+02 -0.47157849407E+03  0.50916934297E+03  0.17200000000E+03 0.  1.
         -6    1    1    2    0  501  0.14682526023E+02 -0.84068824120E+02 -0.89696859142E+03  0.91728937515E+03  0.17200000000E+03 0. -1.
</event>
<event>
 4    1  0.6365705E-002  0.2116463E+03  0.7818608E-02  0.1140269E+00
         -1   -1    0    0    0  501 -0.00000000000E+00  0.00000000000E+00  0.30260431879E+03  0.30260431879E+03  0.00000000000E+00 0.  1.
          1   -1    0    0  502    0  0.00000000000E+00 -0.00000000000E+00 -0.25881971396E+03  0.25881971396E+03  0.00000000000E+00 0. -1.
          6    1    1    2  502    0 -0.14680509507E+02 -0.12245268472E+03 -0.16176755795E+03  0.26638866373E+03  0.17200000000E+03 0. -1.
         -6    1    1    2    0  501  0.14680509507E+02  0.12245268472E+03  0.20555216278E+03  0.29503536903E+03  0.17200000000E+03 0.  1.
</event>
<event>
 4    1  0.6365705E-002  0.4682931E+03  0.7818608E-02  0.1022403E+00
         -2   -1    0    0    0  501 -0.00000000000E+00  0.00000000000E+00  0.11096821812E+03  0.11096821812E+03  0.00000000000E+00 0.  1.
          2   -1    0    0  502    0  0.00000000000E+00 -0.00000000000E+00 -0.27584270563E+04  0.27584270563E+04  0.00000000000E+00 0. -1.
          6    1    1    2  502    0 -0.42847718320E+03  0.78241649752E+02 -0.20877206850E+04  0.21395971843E+04  0.17200000000E+03 0. -1.
         -6    1    1    2    0  501  0.42847718320E+03 -0.78241649752E+02 -0.55973815316E+03  0.72979809015E+03  0.17200000000E+03 0.  1.
</event>
<event>
 4    1  0.6365705E-002  0.1904212E+03  0.7818608E-02  0.1158082E+00
          1   -1    0    0  502    0  0.00000000000E+00  0.00000000000E+00  0.94107083234E+03  0.94107083234E+03  0.00000000000E+00 0. -1.
         -1   -1    0    0    0  501 -0.00000000000E+00 -0.00000000000E+00 -0.99667487645E+02  0.99667487645E+02  0.00000000000E+00 0.  1.
          6    1    1    2  502    0 -0.42024864734E+02  0.70072529147E+02  0.82825609375E+03  0.84986375698E+03  0.17200000000E+03 0. -1.
         -6    1    1    2    0  501  0.42024864734E+02 -0.70072529147E+02  0.13147250953E+02  0.19087456301E+03  0.17200000000E+03 0.  1.
</event>
<event>
 4    1  0.6365705E-002  0.5831876E+03  0.7818608E-02  0.9940914E-01
          3   -1    0    0  502    0  0.00000000000E+00  0.00000000000E+00  0.55634002533E+03  0.55634002533E+03  0.00000000000E+00 0. -1.
         -3   -1    0    0    0  501 -0.00000000000E+00 -0.00000000000E+00 -0.61134628955E+03  0.61134628955E+03  0.00000000000E+00 0.  1.
          6    1    1    2  502    0 -0.55567994938E+03  0.41756425538E+02 -0.30439820318E+02  0.58398149618E+03  0.17200000000E+03 0. -1.
         -6    1    1    2    0  501  0.55567994938E+03 -0.41756425538E+02 -0.24566443907E+02  0.58370481871E+03  0.17200000000E+03 0.  1.
</event>
<event>
 4    1  0.6365705E-002  0.1785662E+03  0.7818608E-02  0.1169198E+00
         -2   -1    0    0    0  501 -0.00000000000E+00  0.00000000000E+00  0.15952869615E+03  0.15952869615E+03  0.00000000000E+00 0.  1.
          2   -1    0    0  502    0  0.00000000000E+00 -0.00000000000E+00 -0.22900089907E+03  0.22900089907E+03  0.00000000000E+00 0. -1.
          6    1    1    2  502    0  0.43012606463E+02 -0.21255473925E+02  0.34544457800E+02  0.18187687883E+03  0.17200000000E+03 0.  1.
         -6    1    1    2    0  501 -0.43012606463E+02  0.21255473925E+02 -0.10401666072E+03  0.20665271640E+03  0.17200000000E+03 0. -1.
</event>
<event>
 4    1  0.6365705E-002  0.1765613E+03  0.7818608E-02  0.1171173E+00
          2   -1    0    0  502    0  0.00000000000E+00  0.00000000000E+00  0.91237908119E+02  0.91237908119E+02  0.00000000000E+00 0. -1.
         -2   -1    0    0    0  501 -0.00000000000E+00 -0.00000000000E+00 -0.37211947404E+03  0.37211947404E+03  0.00000000000E+00 0.  1.
          6    1    1    2  502    0  0.39274391714E+02 -0.68864866133E+01 -0.74175763260E+02  0.19150964831E+03  0.17200000000E+03 0. -1.
         -6    1    1    2    0  501 -0.39274391714E+02  0.68864866133E+01 -0.20670580266E+03  0.27184773384E+03  0.17200000000E+03 0. -1.
</event>
<event>
 4    1  0.6365705E-002  0.2468066E+03  0.7818608E-02  0.1115340E+00
          2   -1    0    0  502    0  0.00000000000E+00  0.00000000000E+00  0.40173279733E+03  0.40173279733E+03  0.00000000000E+00 0. -1.
         -2   -1    0    0    0  501 -0.00000000000E+00 -0.00000000000E+00 -0.16492796544E+03  0.16492796544E+03  0.00000000000E+00 0.  1.
          6    1    1    2  502    0  0.12435372993E+03 -0.12595899030E+03  0.19886397635E+03  0.31695488397E+03  0.17200000000E+03 0. -1.
         -6    1    1    2    0  501 -0.12435372993E+03  0.12595899030E+03  0.37940855543E+02  0.24970587879E+03  0.17200000000E+03 0.  1.
</event>
<event>
 4    1  0.6365705E-002  0.2958318E+03  0.7818608E-02  0.1087343E+00
         -1   -1    0    0    0  501 -0.00000000000E+00  0.00000000000E+00  0.11105859293E+04  0.11105859293E+04  0.00000000000E+00 0.  1.
          1   -1    0    0  502    0  0.00000000000E+00 -0.00000000000E+00 -0.84867528000E+02  0.84867528000E+02  0.00000000000E+00 0. -1.
          6    1    1    2  502    0  0.13661871972E+03 -0.19816096550E+03  0.35306368745E+03  0.46061959383E+03  0.17200000000E+03 0. -1.
         -6    1    1    2    0  501 -0.13661871972E+03  0.19816096550E+03  0.67265471382E+03  0.73483386344E+03  0.17200000000E+03 0. -1.
</event>
<event>
 4    1  0.6365705E-002  0.1768242E+03  0.7818608E-02  0.1170912E+00
          4   -1    0    0  502    0  0.00000000000E+00  0.00000000000E+00  0.11521928939E+04  0.11521928939E+04  0.00000000000E+00 0. -1.
         -4   -1    0    0    0  501 -0.00000000000E+00 -0.00000000000E+00 -0.32212650969E+02  0.32212650969E+02  0.00000000000E+00 0.  1.
          6    1    1    2  502    0  0.30003278600E+02 -0.27974846651E+02  0.79506872115E+03  0.81449435855E+03  0.17200000000E+03 0. -1.
         -6    1    1    2    0  501 -0.30003278600E+02  0.27974846651E+02  0.32491152178E+03  0.36991118631E+03  0.17200000000E+03 0.  1.
</event>
<event>
 4    1  0.6365705E-002  0.3908402E+03  0.7818608E-02  0.1046998E+00
         -2   -1    0    0    0  501 -0.00000000000E+00  0.00000000000E+00  0.67121974022E+02  0.67121974022E+02  0.00000000000E+00 0.  1.
          2   -1    0    0  502    0  0.00000000000E+00 -0.00000000000E+00 -0.23248764879E+04  0.23248764879E+04  0.00000000000E+00 0. -1.
          6    1    1    2  502    0 -0.20899329669E+03  0.28194653855E+03 -0.13026481015E+04  0.13600176929E+04  0.17200000000E+03 0. -1.
         -6    1    1    2    0  501  0.20899329669E+03 -0.28194653855E+03 -0.95510641241E+03  0.10319807691E+04  0.17200000000E+03 0.  1.
</event>
<event>
 4    1  0.6365705E-002  0.6446419E+03  0.7818608E-02  0.9816886E-01
          2   -1    0    0  502    0  0.00000000000E+00  0.00000000000E+00  0.13714571168E+04  0.13714571168E+04  0.00000000000E+00 0. -1.
         -2   -1    0    0    0  501 -0.00000000000E+00 -0.00000000000E+00 -0.33377579523E+03  0.33377579523E+03  0.00000000000E+00 0.  1.
          6    1    1    2  502    0  0.55477572012E+03 -0.27964808847E+03  0.77770427222E+03  0.10101421128E+04  0.17200000000E+03 0. -1.
         -6    1    1    2    0  501 -0.55477572012E+03  0.27964808847E+03  0.25997704938E+03  0.69509079927E+03  0.17200000000E+03 0.  1.
</event>
<event>
 4    1  0.6365705E-002  0.1752206E+03  0.7818608E-02  0.1172510E+00
         -1   -1    0    0    0  501 -0.00000000000E+00  0.00000000000E+00  0.14875147135E+03  0.14875147135E+03  0.00000000000E+00 0.  1.
          1   -1    0    0  502    0  0.00000000000E+00 -0.00000000000E+00 -0.21589721025E+03  0.21589721025E+03  0.00000000000E+00 0. -1.
          6    1    1    2  502    0 -0.33259917372E+02 -0.34703557035E+01  0.46677604004E+01  0.17528278141E+03  0.17200000000E+03 0.  1.
         -6    1    1    2    0  501  0.33259917372E+02  0.34703557035E+01 -0.71813499307E+02  0.18936590019E+03  0.17200000000E+03 0.  1.
</event>
<event>
 4    1  0.6365705E-002  0.2475341E+03  0.7818608E-02  0.1114873E+00
          1   -1    0    0  502    0  0.00000000000E+00  0.00000000000E+00  0.26556254969E+04  0.26556254969E+04  0.00000000000E+00 0. -1.
         -1   -1    0    0    0  501 -0.00000000000E+00 -0.00000000000E+00 -0.83223974181E+02  0.83223974181E+02  0.00000000000E+00 0.  1.
          6    1    1    2  502    0 -0.16746703016E+03 -0.60364837176E+02  0.24504218145E+04  0.24628926466E+04  0.17200000000E+03 0. -1.
         -6    1    1    2    0  501  0.16746703016E+03  0.60364837176E+02  0.12197970823E+03  0.27595682448E+03  0.17200000000E+03 0.  1.
</event>
<event>
 4    1  0.6365705E-002  0.2682376E+03  0.7818608E-02  0.1102293E+00
         -2   -1    0    0    0  501 -0.00000000000E+00  0.00000000000E+00  0.17389581336E+02  0.17389581336E+02  0.00000000000E+00 0.  1.
          2   -1    0    0  502    0  0.00000000000E+00 -0.00000000000E+00 -0.44577590072E+04  0.44577590072E+04  0.00000000000E+00 0. -1.
          6    1    1    2  502    0 -0.19731432483E+03 -0.58604158867E+02 -0.28198265852E+04  0.28325559766E+04  0.17200000000E+03 0. -1.
         -6    1    1    2    0  501  0.19731432483E+03  0.58604158867E+02 -0.16205428407E+04  0.16425926119E+04  0.17200000000E+03 0.  1.
</event>
<event>
 4    1  0.6365705E-002  0.2286553E+03  0.7818608E-02  0.1127590E+00
          1   -1    0    0  502    0  0.00000000000E+00  0.00000000000E+00  0.31357718228E+03  0.31357718228E+03  0.00000000000E+00 0. -1.
         -1   -1    0    0    0  501 -0.00000000000E+00 -0.00000000000E+00 -0.42770815105E+03  0.42770815105E+03  0.00000000000E+00 0.  1.
          6    1    1    2  502    0 -0.14841230951E+03  0.25943191422E+02  0.23245699724E+03  0.32606673912E+03  0.17200000000E+03 0. -1.
         -6    1    1    2    0  501  0.14841230951E+03 -0.25943191422E+02 -0.34658796601E+03  0.41521859421E+03  0.17200000000E+03 0.  1.
</event>
<event>
 4    1  0.6365705E-002  0.3975341E+03  0.7818608E-02  0.1044637E+00
          1   -1    0    0  502    0  0.00000000000E+00  0.00000000000E+00  0.11754695639E+04  0.11754695639E+04  0.00000000000E+00 0. -1.
         -1   -1    0    0    0  501 -0.00000000000E+00 -0.00000000000E+00 -0.14706355486E+03  0.14706355486E+03  0.00000000000E+00 0.  1.
          6    1    1    2  502    0  0.15771100408E+03  0.32183320602E+03  0.70791984293E+03  0.81190139630E+03  0.17200000000E+03 0. -1.
         -6    1    1    2    0  501 -0.15771100408E+03 -0.32183320602E+03  0.32048616608E+03  0.51063172243E+03  0.17200000000E+03 0.  1.
</event>
<event>
 4    1  0.6365705E-002  0.3620248E+03  0.7818608E-02  0.1057785E+00
         -1   -1    0    0    0  501 -0.00000000000E+00  0.00000000000E+00  0.14137205743E+03  0.14137205743E+03  0.00000000000E+00 0.  1.
          1   -1    0    0  502    0  0.00000000000E+00 -0.00000000000E+00 -0.17553615575E+04  0.17553615575E+04  0.00000000000E+00 0. -1.
          6    1    1    2  502    0 -0.20439584391E+03 -0.24433650495E+03 -0.14584495809E+04  0.15027099417E+04  0.17200000000E+03 0. -1.
         -6    1    1    2    0  501  0.20439584391E+03  0.24433650495E+03 -0.15553991915E+03  0.39402367328E+03  0.17200000000E+03 0.  1.
</event>
<event>
 4    1  0.6365705E-002  0.6349899E+03  0.7818608E-02  0.9835360E-01
         -2   -1    0    0    0  501 -0.00000000000E+00  0.00000000000E+00  0.21529189568E+03  0.21529189568E+03  0.00000000000E+00 0.  1.
          2   -1    0    0  502    0  0.00000000000E+00 -0.00000000000E+00 -0.18840376325E+04  0.18840376325E+04  0.00000000000E+00 0. -1.
          6    1    1    2  502    0 -0.56635080162E+03  0.22994547596E+03 -0.75353235467E+03  0.98540507506E+03  0.17200000000E+03 0. -1.
         -6    1    1    2    0  501  0.56635080162E+03 -0.22994547596E+03 -0.91521338214E+03  0.11139244531E+04  0.17200000000E+03 0.  1.
</event>
<event>
 4    1  0.6365705E-002  0.2418640E+03  0.7818608E-02  0.1118557E+00
         -2   -1    0    0    0  501 -0.00000000000E+00  0.00000000000E+00  0.25990282949E+03  0.25990282949E+03  0.00000000000E+00 0.  1.
          2   -1    0    0  502    0  0.00000000000E+00 -0.00000000000E+00 -0.26328522212E+03  0.26328522212E+03  0.00000000000E+00 0. -1.
          6    1    1    2  502    0  0.13624030517E+03  0.10174850842E+03 -0.10134464352E+03  0.26223828189E+03  0.17200000000E+03 0. -1.
         -6    1    1    2    0  501 -0.13624030517E+03 -0.10174850842E+03  0.97962250892E+02  0.26094976972E+03  0.17200000000E+03 0.  1.
</event>
<event>
 4    1  0.6365705E-002  0.2070584E+03  0.7818608E-02  0.1143917E+00
         -1   -1    0    0    0  501 -0.00000000000E+00  0.00000000000E+00  0.10080800641E+03  0.10080800641E+03  0.00000000000E+00 0.  1.
          1   -1    0    0  502    0  0.00000000000E+00 -0.00000000000E+00 -0.47652382699E+03  0.47652382699E+03  0.00000000000E+00 0. -1.
          6    1    1    2  502    0  0.61533328252E+02 -0.97482363283E+02 -0.93210324600E+02  0.22707119203E+03  0.17200000000E+03 0. -1.
         -6    1    1    2    0  501 -0.61533328252E+02  0.97482363283E+02 -0.28250549598E+03  0.35026064138E+03  0.17200000000E+03 0. -1.
</event>
<event>
 4    1  0.6365705E-002  0.2223214E+03  0.7818608E-02  0.1132164E+00
          2   -1    0    0  502    0  0.00000000000E+00  0.00000000000E+00  0.56365074689E+03  0.56365074689E+03  0.00000000000E+00 0. -1.
         -2   -1    0    0    0  501 -0.00000000000E+00 -0.00000000000E+00 -0.64689694751E+03  0.64689694751E+03  0.00000000000E+00 0.  1.
          6    1    1    2  502    0 -0.13957068916E+03 -0.19048507083E+02  0.52113329413E+03  0.56657456098E+03  0.17200000000E+03 0. -1.
         -6    1    1    2    0  501  0.13957068916E+03  0.19048507083E+02 -0.60437949475E+03  0.64397313342E+03  0.17200000000E+03 0.  1.
</event>
<event>
 4    1  0.6365705E-002  0.3795594E+03  0.7818608E-02  0.1051097E+00
          1   -1    0    0  502    0  0.00000000000E+00  0.00000000000E+00  0.38416743121E+03  0.38416743121E+03  0.00000000000E+00 0. -1.
         -1   -1    0    0    0  501 -0.00000000000E+00 -0.00000000000E+00 -0.41136512456E+03  0.41136512456E+03  0.00000000000E+00 0.  1.
          6    1    1    2  502    0  0.67186678798E+02 -0.33161314617E+03  0.10465553840E+03  0.39372339305E+03  0.17200000000E+03 0. -1.
         -6    1    1    2    0  501 -0.67186678798E+02  0.33161314617E+03 -0.13185323175E+03  0.40180916272E+03  0.17200000000E+03 0.  1.
</event>
<event>
 4    1  0.6365705E-002  0.2075521E+03  0.7818608E-02  0.1143519E+00
          2   -1    0    0  502    0  0.00000000000E+00  0.00000000000E+00  0.43388087314E+03  0.43388087314E+03  0.00000000000E+00 0. -1.
         -2   -1    0    0    0  501 -0.00000000000E+00 -0.00000000000E+00 -0.10391936632E+03  0.10391936632E+03  0.00000000000E+00 0.  1.
          6    1    1    2  502    0  0.11602583949E+03 -0.56478613674E+01  0.10819563278E+03  0.23406022456E+03  0.17200000000E+03 0. -1.
         -6    1    1    2    0  501 -0.11602583949E+03  0.56478613674E+01  0.22176587403E+03  0.30374001490E+03  0.17200000000E+03 0. -1.
</event>
<event>
 4    1  0.6365705E-002  0.3281799E+03  0.7818608E-02  0.1071945E+00
          3   -1    0    0  502    0  0.00000000000E+00  0.00000000000E+00  0.23010286649E+04  0.23010286649E+04  0.00000000000E+00 0. -1.
         -3   -1    0    0    0  501 -0.00000000000E+00 -0.00000000000E+00 -0.62716729996E+02  0.62716729996E+02  0.00000000000E+00 0.  1.
          6    1    1    2  502    0 -0.11627192129E+03  0.25416310070E+03  0.17144389860E+04  0.17455666926E+04  0.17200000000E+03 0. -1.
         -6    1    1    2    0  501  0.11627192129E+03 -0.25416310070E+03  0.52387294891E+03  0.61817870235E+03  0.17200000000E+03 0.  1.
</event>
<event>
 4    1  0.6365705E-002  0.2234609E+03  0.7818608E-02  0.1131329E+00
         -2   -1    0    0    0  501 -0.00000000000E+00  0.00000000000E+00  0.40562563633E+03  0.40562563633E+03  0.00000000000E+00 0.  1.
          2   -1    0    0  502    0  0.00000000000E+00 -0.00000000000E+00 -0.93572455979E+03  0.93572455979E+03  0.00000000000E+00 0. -1.
          6    1    1    2  502    0 -0.67363530021E+02 -0.12574952480E+03 -0.89005179998E+03  0.91767477616E+03  0.17200000000E+03 0. -1.
         -6    1    1    2    0  501  0.67363530021E+02  0.12574952480E+03  0.35995287651E+03  0.42367541996E+03  0.17200000000E+03 0.  1.
</event>
<event>
 4    1  0.6365705E-002  0.2334014E+03  0.7818608E-02  0.1124268E+00
         -2   -1    0    0    0  501 -0.00000000000E+00  0.00000000000E+00  0.12457686221E+04  0.12457686221E+04  0.00000000000E+00 0.  1.
          2   -1    0    0  502    0  0.00000000000E+00 -0.00000000000E+00 -0.69651170464E+02  0.69651170464E+02  0.00000000000E+00 0. -1.
          6    1    1    2  502    0 -0.42871614313E+02  0.15183615919E+03  0.18681708946E+03  0.29895956159E+03  0.17200000000E+03 0. -1.
         -6    1    1    2    0  501  0.42871614313E+02 -0.15183615919E+03  0.98930036218E+03  0.10164602310E+04  0.17200000000E+03 0.  1.
</event>
<event>
 4    1  0.6365705E-002  0.5230433E+03  0.7818608E-02  0.1007933E+00
          2   -1    0    0  502    0  0.00000000000E+00  0.00000000000E+00  0.10727324397E+04  0.10727324397E+04  0.00000000000E+00 0. -1.
         -2   -1    0    0    0  501 -0.00000000000E+00 -0.00000000000E+00 -0.31143624201E+03  0.31143624201E+03  0.00000000000E+00 0.  1.
          6    1    1    2  502    0 -0.40421231027E+03 -0.28390607383E+03  0.67519530662E+03  0.85408603350E+03  0.17200000000E+03 0. -1.
         -6    1    1    2    0  501  0.40421231027E+03  0.28390607383E+03  0.86100891116E+02  0.53008264826E+03  0.17200000000E+03 0.  1.
</event>
<event>
 4    1  0.6365705E-002  0.2321841E+03  0.7818608E-02  0.1125112E+00
          1   -1    0    0  502    0  0.00000000000E+00  0.00000000000E+00  0.11990946081E+04  0.11990946081E+04  0.00000000000E+00 0. -1.
         -1   -1    0    0    0  501 -0.00000000000E+00 -0.00000000000E+00 -0.52614901601E+02  0.52614901601E+02  0.00000000000E+00 0.  1.
          6    1    1    2  502    0 -0.11007575763E+03 -0.11049330080E+03  0.81198402650E+03  0.84452797540E+03  0.17200000000E+03 0. -1.
         -6    1    1    2    0  501  0.11007575763E+03  0.11049330080E+03  0.33449567999E+03  0.40718153429E+03  0.17200000000E+03 0. -1.
</event>
<event>
 4    1  0.6365705E-002  0.2028160E+03  0.7818608E-02  0.1147385E+00
         -1   -1    0    0    0  501 -0.00000000000E+00  0.00000000000E+00  0.45196936725E+02  0.45196936725E+02  0.00000000000E+00 0.  1.
          1   -1    0    0  502    0  0.00000000000E+00 -0.00000000000E+00 -0.10384412006E+04  0.10384412006E+04  0.00000000000E+00 0. -1.
          6    1    1    2  502    0 -0.61747306443E+02 -0.87963581045E+02 -0.30615312555E+03  0.36723842082E+03  0.17200000000E+03 0.  1.
         -6    1    1    2    0  501  0.61747306443E+02  0.87963581045E+02 -0.68709113836E+03  0.71639971654E+03  0.17200000000E+03 0.  1.
</event>
<event>
 4    1  0.6365705E-002  0.3622171E+03  0.7818608E-02  0.1057709E+00
         -2   -1    0    0    0  501 -0.00000000000E+00  0.00000000000E+00  0.62192912161E+02  0.62192912161E+02  0.00000000000E+00 0.  1.
          2   -1    0    0  502    0  0.00000000000E+00 -0.00000000000E+00 -0.25643997322E+04  0.25643997322E+04  0.00000000000E+00 0. -1.
          6    1    1    2  502    0 -0.28519401584E+03  0.14241349551E+03 -0.69802442020E+03  0.78640913116E+03  0.17200000000E+03 0. -1.
         -6    1    1    2    0  501  0.28519401584E+03 -0.14241349551E+03 -0.18041823998E+04  0.18401835132E+04  0.17200000000E+03 0.  1.
</event>
<event>
 4    1  0.6365705E-002  0.2077420E+03  0.7818608E-02  0.1143367E+00
          1   -1    0    0  502    0  0.00000000000E+00  0.00000000000E+00  0.62613648296E+02  0.62613648296E+02  0.00000000000E+00 0. -1.
         -1   -1    0    0    0  501 -0.00000000000E+00 -0.00000000000E+00 -0.70333445887E+03  0.70333445887E+03  0.00000000000E+00 0.  1.
          6    1    1    2  502    0  0.77977556505E+02 -0.86557804186E+02 -0.26617458346E+03  0.33764724442E+03  0.17200000000E+03 0. -1.
         -6    1    1    2    0  501 -0.77977556505E+02  0.86557804186E+02 -0.37454622711E+03  0.42830086274E+03  0.17200000000E+03 0.  1.
</event>
<event>
 4    1  0.6365705E-002  0.4103618E+03  0.7818608E-02  0.1040250E+00
         -2   -1    0    0    0  501 -0.00000000000E+00  0.00000000000E+00  0.24328030252E+03  0.24328030252E+03  0.00000000000E+00 0.  1.
          2   -1    0    0  502    0  0.00000000000E+00 -0.00000000000E+00 -0.16350057366E+04  0.16350057366E+04  0.00000000000E+00 0. -1.
          6    1    1    2  502    0 -0.55987968214E+02 -0.36834511822E+03 -0.14090193912E+04  0.14675600238E+04  0.17200000000E+03 0. -1.
         -6    1    1    2    0  501  0.55987968214E+02  0.36834511822E+03  0.17293957125E+02  0.41072601531E+03  0.17200000000E+03 0.  1.
</event>
<event>
 4    1  0.6365705E-002  0.2091167E+03  0.7818608E-02  0.1142267E+00
         -2   -1    0    0    0  501 -0.00000000000E+00  0.00000000000E+00  0.44455664118E+02  0.44455664118E+02  0.00000000000E+00 0.  1.
          2   -1    0    0  502    0  0.00000000000E+00 -0.00000000000E+00 -0.98485133760E+03  0.98485133760E+03  0.00000000000E+00 0. -1.
          6    1    1    2  502    0 -0.11724148597E+03  0.20005562552E+02 -0.48800780028E+03  0.53092504339E+03  0.17200000000E+03 0.  1.
         -6    1    1    2    0  501  0.11724148597E+03 -0.20005562552E+02 -0.45238787320E+03  0.49838195833E+03  0.17200000000E+03 0. -1.
</event>
<event>
 4    1  0.6365705E-002  0.2741501E+03  0.7818608E-02  0.1098928E+00
         -2   -1    0    0    0  501 -0.00000000000E+00  0.00000000000E+00  0.14355943444E+03  0.14355943444E+03  0.00000000000E+00 0.  1.
          2   -1    0    0  502    0  0.00000000000E+00 -0.00000000000E+00 -0.52412467970E+03  0.52412467970E+03  0.00000000000E+00 0. -1.
          6    1    1    2  502    0 -0.18699108190E+02 -0.21266078441E+03 -0.17907673716E+03  0.32745494906E+03  0.17200000000E+03 0. -1.
         -6    1    1    2    0  501  0.18699108190E+02  0.21266078441E+03 -0.20148850810E+03  0.34022916508E+03  0.17200000000E+03 0. -1.
</event>
<event>
 4    1  0.6365705E-002  0.2440140E+03  0.7818608E-02  0.1117147E+00
         -1   -1    0    0    0  501 -0.00000000000E+00  0.00000000000E+00  0.92025927062E+02  0.92025927062E+02  0.00000000000E+00 0.  1.
          1   -1    0    0  502    0  0.00000000000E+00 -0.00000000000E+00 -0.94663191537E+03  0.94663191537E+03  0.00000000000E+00 0. -1.
          6    1    1    2  502    0  0.29356417487E+02 -0.17057859216E+03 -0.13513705259E+03  0.27893525832E+03  0.17200000000E+03 0.  1.
         -6    1    1    2    0  501 -0.29356417487E+02  0.17057859216E+03 -0.71946893572E+03  0.75972258411E+03  0.17200000000E+03 0.  1.
</event>
<event>
 4    1  0.6365705E-002  0.2995396E+03  0.7818608E-02  0.1085471E+00
          2   -1    0    0  502    0  0.00000000000E+00  0.00000000000E+00  0.42209437713E+03  0.42209437713E+03  0.00000000000E+00 0. -1.
         -2   -1    0    0    0  501 -0.00000000000E+00 -0.00000000000E+00 -0.21693560641E+03  0.21693560641E+03  0.00000000000E+00 0.  1.
          6    1    1    2  502    0 -0.10844728678E+03  0.21995264726E+03  0.14791309322E+03  0.33406925059E+03  0.17200000000E+03 0.  1.
         -6    1    1    2    0  501  0.10844728678E+03 -0.21995264726E+03  0.57245677506E+02  0.30496073295E+03  0.17200000000E+03 0.  1.
</event>
<event>
 4    1  0.6365705E-002  0.3055942E+03  0.7818608E-02  0.1082477E+00
         -2   -1    0    0    0  501 -0.00000000000E+00  0.00000000000E+00  0.37359470496E+03  0.37359470496E+03  0.00000000000E+00 0.  1.
          2   -1    0    0  502    0  0.00000000000E+00 -0.00000000000E+00 -0.25523708643E+03  0.25523708643E+03  0.00000000000E+00 0. -1.
          6    1    1    2  502    0 -0.25259402610E+03 -0.27386712754E+00  0.14016166018E+02  0.30591546207E+03  0.17200000000E+03 0. -1.
         -6    1    1    2    0  501  0.25259402610E+03  0.27386712754E+00  0.10434145252E+03  0.32291632932E+03  0.17200000000E+03 0.  1.
</event>
<event>
 4    1  0.6365705E-002  0.3809769E+03  0.7818608E-02  0.1050573E+00
         -2   -1    0    0    0  501 -0.00000000000E+00  0.00000000000E+00  0.26875406831E+03  0.26875406831E+03  0.00000000000E+00 0.  1.
          2   -1    0    0  502    0  0.00000000000E+00 -0.00000000000E+00 -0.11207222646E+04  0.11207222646E+04  0.00000000000E+00 0. -1.
          6    1    1    2  502    0 -0.33719409317E+03  0.43122676158E+02 -0.92605757573E+03  0.10013621000E+04  0.17200000000E+03 0. -1.
         -6    1    1    2    0  501  0.33719409317E+03 -0.43122676158E+02  0.74089379434E+02  0.38811423295E+03  0.17200000000E+03 0.  1.
</event>
<event>
 4    1  0.6365705E-002  0.2824419E+03  0.7818608E-02  0.1094363E+00
         -2   -1    0    0    0  501 -0.00000000000E+00  0.00000000000E+00  0.77638830862E+02  0.77638830862E+02  0.00000000000E+00 0.  1.
          2   -1    0    0  502    0  0.00000000000E+00 -0.00000000000E+00 -0.10588809257E+04  0.10588809257E+04  0.00000000000E+00 0. -1.
          6    1    1    2  502    0  0.20181453249E+03  0.97264155985E+02 -0.58845707917E+03  0.65272900624E+03  0.17200000000E+03 0. -1.
         -6    1    1    2    0  501 -0.20181453249E+03 -0.97264155985E+02 -0.39278501567E+03  0.48379075032E+03  0.17200000000E+03 0.  1.
</event>
<event>
 4    1  0.6365705E-002  0.1962872E+03  0.7818608E-02  0.1152910E+00
         -3   -1    0    0    0  501 -0.00000000000E+00  0.00000000000E+00  0.82071901715E+02  0.82071901715E+02  0.00000000000E+00 0.  1.
          3   -1    0    0  502    0  0.00000000000E+00 -0.00000000000E+00 -0.48115123263E+03  0.48115123263E+03  0.00000000000E+00 0. -1.
          6    1    1    2  502    0  0.49443557423E+02 -0.80622578585E+02 -0.15562364867E+03  0.25049428251E+03  0.17200000000E+03 0. -1.
         -6    1    1    2    0  501 -0.49443557423E+02  0.80622578585E+02 -0.24345568225E+03  0.31272885183E+03  0.17200000000E+03 0.  1.
</event>
<event>
 4    1  0.6365705E-002  0.4198047E+03  0.7818608E-02  0.1037130E+00
         -2   -1    0    0    0  501 -0.00000000000E+00  0.00000000000E+00  0.18670830339E+03  0.18670830339E+03  0.00000000000E+00 0.  1.
          2   -1    0    0  502    0  0.00000000000E+00 -0.00000000000E+00 -0.10149489615E+04  0.10149489615E+04  0.00000000000E+00 0. -1.
          6    1    1    2  502    0 -0.19998745781E+03 -0.32658383199E+03 -0.57307540420E+03  0.71038820479E+03  0.17200000000E+03 0. -1.
         -6    1    1    2    0  501  0.19998745781E+03  0.32658383199E+03 -0.25516525389E+03  0.49126906008E+03  0.17200000000E+03 0.  1.
</event>
<event>
 4    1  0.6365705E-002  0.3030912E+03  0.7818608E-02  0.1083705E+00
          1   -1    0    0  502    0  0.00000000000E+00  0.00000000000E+00  0.65909876149E+03  0.65909876149E+03  0.00000000000E+00 0. -1.
         -1   -1    0    0    0  501 -0.00000000000E+00 -0.00000000000E+00 -0.23973413156E+03  0.23973413156E+03  0.00000000000E+00 0.  1.
          6    1    1    2  502    0  0.92007240422E+02 -0.23198044590E+03  0.50045572815E+03  0.58508135794E+03  0.17200000000E+03 0. -1.
         -6    1    1    2    0  501 -0.92007240422E+02  0.23198044590E+03 -0.81091098221E+02  0.31375153511E+03  0.17200000000E+03 0.  1.
</event>
<event>
 4    1  0.6365705E-002  0.4339310E+03  0.7818608E-02  0.1032625E+00
          2   -1    0    0  502    0  0.00000000000E+00  0.00000000000E+00  0.14510760188E+04  0.14510760188E+04  0.00000000000E+00 0. -1.
         -2   -1    0    0    0  501 -0.00000000000E+00 -0.00000000000E+00 -0.17847600480E+03  0.17847600480E+03  0.00000000000E+00 0.  1.
          6    1    1    2  502    0  0.24832475905E+03  0.31152349957E+03  0.10619674856E+04  0.11472013848E+04  0.17200000000E+03 0. -1.
         -6    1    1    2    0  501 -0.24832475905E+03 -0.31152349957E+03  0.21063252836E+03  0.48235063879E+03  0.17200000000E+03 0.  1.
</event>
<event>
 4    1  0.6365705E-002  0.2162570E+03  0.7818608E-02  0.1136705E+00
         -2   -1    0    0    0  501 -0.00000000000E+00  0.00000000000E+00  0.57853932619E+02  0.57853932619E+02  0.00000000000E+00 0.  1.
          2   -1    0    0  502    0  0.00000000000E+00 -0.00000000000E+00 -0.12486508953E+04  0.12486508953E+04  0.00000000000E+00 0. -1.
          6    1    1    2  502    0 -0.12291196208E+03 -0.45560436874E+02 -0.98330565528E+03  0.10068054010E+04  0.17200000000E+03 0. -1.
         -6    1    1    2    0  501  0.12291196208E+03  0.45560436874E+02 -0.20749130740E+03  0.29969942689E+03  0.17200000000E+03 0.  1.
</event>
<event>
 4    1  0.6365705E-002  0.2366112E+03  0.7818608E-02  0.1122071E+00
         -1   -1    0    0    0  501 -0.00000000000E+00  0.00000000000E+00  0.29629707215E+03  0.29629707215E+03  0.00000000000E+00 0.  1.
          1   -1    0    0  502    0  0.00000000000E+00 -0.00000000000E+00 -0.20698832253E+03  0.20698832253E+03  0.00000000000E+00 0. -1.
          6    1    1    2  502    0  0.85652237454E+02  0.13807449074E+03  0.11894400774E+03  0.26482550434E+03  0.17200000000E+03 0.  1.
         -6    1    1    2    0  501 -0.85652237454E+02 -0.13807449074E+03 -0.29635258114E+02  0.23845989033E+03  0.17200000000E+03 0.  1.
</event>
<event>
 4    1  0.6365705E-002  0.1901131E+03  0.7818608E-02  0.1158359E+00
          2   -1    0    0  502    0  0.00000000000E+00  0.00000000000E+00  0.61570906911E+03  0.61570906911E+03  0.00000000000E+00 0. -1.
         -2   -1    0    0    0  501 -0.00000000000E+00 -0.00000000000E+00 -0.49748230823E+03  0.49748230823E+03  0.00000000000E+00 0.  1.
          6    1    1    2  502    0 -0.80760140883E+02 -0.60645961025E+01  0.58184032007E+03  0.61211203038E+03  0.17200000000E+03 0. -1.
         -6    1    1    2    0  501  0.80760140883E+02  0.60645961025E+01 -0.46361355919E+03  0.50107934695E+03  0.17200000000E+03 0.  1.
</event>
<event>
 4    1  0.6365705E-002  0.2199881E+03  0.7818608E-02  0.1133892E+00
          2   -1    0    0  502    0  0.00000000000E+00  0.00000000000E+00  0.19456844484E+02  0.19456844484E+02  0.00000000000E+00 0. -1.
         -2   -1    0    0    0  501 -0.00000000000E+00 -0.00000000000E+00 -0.24999934595E+04  0.24999934595E+04  0.00000000000E+00 0.  1.
          6    1    1    2  502    0 -0.21856836191E+02 -0.13539952452E+03 -0.13300777489E+04  0.13481474588E+04  0.17200000000E+03 0. -1.
         -6    1    1    2    0  501  0.21856836191E+02  0.13539952452E+03 -0.11504588661E+04  0.11713028452E+04  0.17200000000E+03 0.  1.
</event>
<event>
 4    1  0.6365705E-002  0.2072312E+03  0.7818608E-02  0.1143778E+00
         -2   -1    0    0    0  501 -0.00000000000E+00  0.00000000000E+00  0.72284818568E+02  0.72284818568E+02  0.00000000000E+00 0.  1.
          2   -1    0    0  502    0  0.00000000000E+00 -0.00000000000E+00 -0.85831233851E+03  0.85831233851E+03  0.00000000000E+00 0. -1.
          6    1    1    2  502    0 -0.18952287207E+02  0.11402448748E+03 -0.65116931634E+03  0.68334928951E+03  0.17200000000E+03 0. -1.
         -6    1    1    2    0  501  0.18952287207E+02 -0.11402448748E+03 -0.13485820360E+03  0.24724786756E+03  0.17200000000E+03 0.  1.
</event>
<event>
 4    1  0.6365705E-002  0.1871848E+03  0.7818608E-02  0.1161025E+00
         -1   -1    0    0    0  501 -0.00000000000E+00  0.00000000000E+00  0.43243712234E+02  0.43243712234E+02  0.00000000000E+00 0.  1.
          1   -1    0    0  502    0  0.00000000000E+00 -0.00000000000E+00 -0.81045379759E+03  0.81045379759E+03  0.00000000000E+00 0. -1.
          6    1    1    2  502    0 -0.60118428151E+02  0.42894321449E+02 -0.39040049112E+03  0.43295576181E+03  0.17200000000E+03 0. -1.
         -6    1    1    2    0  501  0.60118428151E+02 -0.42894321449E+02 -0.37680959424E+03  0.42074174802E+03  0.17200000000E+03 0.  1.
</event>
<event>
 4    1  0.6365705E-002  0.1832560E+03  0.7818608E-02  0.1164689E+00
          1   -1    0    0  502    0  0.00000000000E+00  0.00000000000E+00  0.80295505515E+03  0.80295505515E+03  0.00000000000E+00 0. -1.
         -1   -1    0    0    0  501 -0.00000000000E+00 -0.00000000000E+00 -0.42818720928E+02  0.42818720928E+02  0.00000000000E+00 0.  1.
          6    1    1    2  502    0 -0.46467767940E+02 -0.42889484965E+02  0.44452461806E+03  0.48081690636E+03  0.17200000000E+03 0. -1.
         -6    1    1    2    0  501  0.46467767940E+02  0.42889484965E+02  0.31561171617E+03  0.36495686972E+03  0.17200000000E+03 0.  1.
</event>
<event>
 4    1  0.6365705E-002  0.4869733E+03  0.7818608E-02  0.1017236E+00
         -2   -1    0    0    0  501 -0.00000000000E+00  0.00000000000E+00  0.19233213773E+04  0.19233213773E+04  0.00000000000E+00 0.  1.
          2   -1    0    0  502    0  0.00000000000E+00 -0.00000000000E+00 -0.19476370459E+03  0.19476370459E+03  0.00000000000E+00 0. -1.
          6    1    1    2  502    0  0.13163368250E+03  0.43615539987E+03  0.22276473068E+03  0.53550638132E+03  0.17200000000E+03 0. -1.
         -6    1    1    2    0  501 -0.13163368250E+03 -0.43615539987E+03  0.15057929420E+04  0.15825787005E+04  0.17200000000E+03 0.  1.
</event>
<event>
 4    1  0.6365705E-002  0.1971437E+03  0.7818608E-02  0.1152172E+00
          1   -1    0    0  502    0  0.00000000000E+00  0.00000000000E+00  0.21254621318E+04  0.21254621318E+04  0.00000000000E+00 0. -1.
         -1   -1    0    0    0  501 -0.00000000000E+00 -0.00000000000E+00 -0.21014648509E+02  0.21014648509E+02  0.00000000000E+00 0.  1.
          6    1    1    2  502    0 -0.17951801396E+02  0.94653907281E+02  0.14389737373E+04  0.14524155900E+04  0.17200000000E+03 0. -1.
         -6    1    1    2    0  501  0.17951801396E+02 -0.94653907281E+02  0.66547374597E+03  0.69406119032E+03  0.17200000000E+03 0.  1.
</event>
<event>
 4    1  0.6365705E-002  0.3666320E+03  0.7818608E-02  0.1055988E+00
         -2   -1    0    0    0  501 -0.00000000000E+00  0.00000000000E+00  0.19999328353E+03  0.19999328353E+03  0.00000000000E+00 0.  1.
          2   -1    0    0  502    0  0.00000000000E+00 -0.00000000000E+00 -0.69019813791E+03  0.69019813791E+03  0.00000000000E+00 0. -1.
          6    1    1    2  502    0 -0.13565341751E+03 -0.29399520975E+03 -0.31714190425E+03  0.48476594401E+03  0.17200000000E+03 0. -1.
         -6    1    1    2    0  501  0.13565341751E+03  0.29399520975E+03 -0.17306295013E+03  0.40542547743E+03  0.17200000000E+03 0.  1.
</event>
<event>
 4    1  0.6365705E-002  0.2770698E+03  0.7818608E-02  0.1097300E+00
         -2   -1    0    0    0  501 -0.00000000000E+00  0.00000000000E+00  0.47546669468E+03  0.47546669468E+03  0.00000000000E+00 0.  1.
          2   -1    0    0  502    0  0.00000000000E+00 -0.00000000000E+00 -0.22377399649E+03  0.22377399649E+03  0.00000000000E+00 0. -1.
          6    1    1    2  502    0  0.21543070049E+03 -0.27808033432E+02 -0.58652360427E+02  0.28320976823E+03  0.17200000000E+03 0. -1.
         -6    1    1    2    0  501 -0.21543070049E+03  0.27808033432E+02  0.31034505862E+03  0.41603092295E+03  0.17200000000E+03 0.  1.
</event>
<event>
 4    1  0.6365705E-002  0.2137735E+03  0.7818608E-02  0.1138612E+00
         -4   -1    0    0    0  501 -0.00000000000E+00  0.00000000000E+00  0.65994771821E+03  0.65994771821E+03  0.00000000000E+00 0.  1.
          4   -1    0    0  502    0  0.00000000000E+00 -0.00000000000E+00 -0.95999300643E+02  0.95999300643E+02  0.00000000000E+00 0. -1.
          6    1    1    2  502    0  0.91056075748E+02 -0.88452887884E+02  0.82442782177E+02  0.22911991323E+03  0.17200000000E+03 0. -1.
         -6    1    1    2    0  501 -0.91056075748E+02  0.88452887884E+02  0.48150563539E+03  0.52682710562E+03  0.17200000000E+03 0.  1.
</event>
<event>
 4    1  0.6365705E-002  0.3860449E+03  0.7818608E-02  0.1048722E+00
          2   -1    0    0  502    0  0.00000000000E+00  0.00000000000E+00  0.87732523465E+03  0.87732523465E+03  0.00000000000E+00 0. -1.
         -2   -1    0    0    0  501 -0.00000000000E+00 -0.00000000000E+00 -0.17762861179E+03  0.17762861179E+03  0.00000000000E+00 0.  1.
          6    1    1    2  502    0  0.31050854327E+03 -0.15175992127E+03  0.46009319024E+03  0.60059668068E+03  0.17200000000E+03 0. -1.
         -6    1    1    2    0  501 -0.31050854327E+03  0.15175992127E+03  0.23960343262E+03  0.45435716575E+03  0.17200000000E+03 0.  1.
</event>
<event>
 4    1  0.6365705E-002  0.3244862E+03  0.7818608E-02  0.1073603E+00
         -2   -1    0    0    0  501 -0.00000000000E+00  0.00000000000E+00  0.51430707577E+02  0.51430707577E+02  0.00000000000E+00 0.  1.
          2   -1    0    0  502    0  0.00000000000E+00 -0.00000000000E+00 -0.21160617110E+04  0.21160617110E+04  0.00000000000E+00 0. -1.
          6    1    1    2  502    0  0.32654246111E+02  0.27320501644E+03 -0.12277535162E+04  0.12699094366E+04  0.17200000000E+03 0.  1.
         -6    1    1    2    0  501 -0.32654246111E+02 -0.27320501644E+03 -0.83687748729E+03  0.89758298198E+03  0.17200000000E+03 0.  1.
</event>
<event>
 4    1  0.6365705E-002  0.3403622E+03  0.7818608E-02  0.1066642E+00
          1   -1    0    0  502    0  0.00000000000E+00  0.00000000000E+00  0.13671219538E+04  0.13671219538E+04  0.00000000000E+00 0. -1.
         -1   -1    0    0    0  501 -0.00000000000E+00 -0.00000000000E+00 -0.85045243152E+02  0.85045243152E+02  0.00000000000E+00 0.  1.
          6    1    1    2  502    0 -0.28928715363E+03 -0.50748307697E+02  0.59735853147E+03  0.68751993652E+03  0.17200000000E+03 0. -1.
         -6    1    1    2    0  501  0.28928715363E+03  0.50748307697E+02  0.68471817918E+03  0.76464726044E+03  0.17200000000E+03 0. -1.
</event>
<event>
 4    1  0.6365705E-002  0.1798889E+03  0.7818608E-02  0.1167911E+00
         -2   -1    0    0    0  501 -0.00000000000E+00  0.00000000000E+00  0.33765362595E+02  0.33765362595E+02  0.00000000000E+00 0.  1.
          2   -1    0    0  502    0  0.00000000000E+00 -0.00000000000E+00 -0.17396733639E+04  0.17396733639E+04  0.00000000000E+00 0. -1.
          6    1    1    2  502    0  0.18361296529E+02 -0.49385162954E+02 -0.25871720495E+03  0.31511049438E+03  0.17200000000E+03 0.  1.
         -6    1    1    2    0  501 -0.18361296529E+02  0.49385162954E+02 -0.14471907963E+04  0.14583282321E+04  0.17200000000E+03 0. -1.
</event>
<event>
 4    1  0.6365705E-002  0.1916846E+03  0.7818608E-02  0.1156951E+00
          2   -1    0    0  502    0  0.00000000000E+00  0.00000000000E+00  0.37253841506E+03  0.37253841506E+03  0.00000000000E+00 0. -1.
         -2   -1    0    0    0  501 -0.00000000000E+00 -0.00000000000E+00 -0.10010280707E+03  0.10010280707E+03  0.00000000000E+00 0.  1.
          6    1    1    2  502    0 -0.72741331296E+02 -0.43216665913E+02  0.10754024179E+03  0.21979054824E+03  0.17200000000E+03 0. -1.
         -6    1    1    2    0  501  0.72741331296E+02  0.43216665913E+02  0.16489536620E+03  0.25285067389E+03  0.17200000000E+03 0. -1.
</event>
<event>
 4    1  0.6365705E-002  0.2640938E+03  0.7818608E-02  0.1104708E+00
         -1   -1    0    0    0  501 -0.00000000000E+00  0.00000000000E+00  0.44923231636E+02  0.44923231636E+02  0.00000000000E+00 0.  1.
          1   -1    0    0  502    0  0.00000000000E+00 -0.00000000000E+00 -0.19616019169E+04  0.19616019169E+04  0.00000000000E+00 0. -1.
          6    1    1    2  502    0 -0.17374311831E+03 -0.99874157258E+02 -0.14164800888E+04  0.14408890868E+04  0.17200000000E+03 0. -1.
         -6    1    1    2    0  501  0.17374311831E+03  0.99874157258E+02 -0.50019859647E+03  0.56563606176E+03  0.17200000000E+03 0.  1.
</event>
<event>
 4    1  0.6365705E-002  0.1744139E+03  0.7818608E-02  0.1173321E+00
         -1   -1    0    0    0  501 -0.00000000000E+00  0.00000000000E+00  0.93235990612E+02  0.93235990612E+02  0.00000000000E+00 0.  1.
          1   -1    0    0  502    0  0.00000000000E+00 -0.00000000000E+00 -0.32673880823E+04  0.32673880823E+04  0.00000000000E+00 0. -1.
          6    1    1    2  502    0  0.23600705598E+02 -0.16710166916E+02 -0.31812867343E+04  0.31860642663E+04  0.17200000000E+03 0. -1.
         -6    1    1    2    0  501 -0.23600705598E+02  0.16710166916E+02  0.71346425737E+01  0.17455980668E+03  0.17200000000E+03 0.  1.
</event>
<event>
 4    1  0.6365705E-002  0.2096815E+03  0.7818608E-02  0.1141818E+00
         -1   -1    0    0    0  501 -0.00000000000E+00  0.00000000000E+00  0.38283580028E+03  0.38283580028E+03  0.00000000000E+00 0.  1.
          1   -1    0    0  502    0  0.00000000000E+00 -0.00000000000E+00 -0.11855021491E+03  0.11855021491E+03  0.00000000000E+00 0. -1.
          6    1    1    2  502    0 -0.54752790549E+02 -0.10669800019E+03  0.87816027460E+02  0.22732792613E+03  0.17200000000E+03 0. -1.
         -6    1    1    2    0  501  0.54752790549E+02  0.10669800019E+03  0.17646955791E+03  0.27405808907E+03  0.17200000000E+03 0.  1.
</event>
<event>
 4    1  0.6365705E-002  0.3508158E+03  0.7818608E-02  0.1062281E+00
         -2   -1    0    0    0  501 -0.00000000000E+00  0.00000000000E+00  0.69480238763E+02  0.69480238763E+02  0.00000000000E+00 0.  1.
          2   -1    0    0  502    0  0.00000000000E+00 -0.00000000000E+00 -0.22020787183E+04  0.22020787183E+04  0.00000000000E+00 0. -1.
          6    1    1    2  502    0 -0.15405357436E+03 -0.26411214320E+03 -0.15686356964E+04  0.16073859760E+04  0.17200000000E+03 0. -1.
         -6    1    1    2    0  501  0.15405357436E+03  0.26411214320E+03 -0.56396278316E+03  0.66417298104E+03  0.17200000000E+03 0.  1.
</event>
<event>
 4    1  0.6365705E-002  0.1949163E+03  0.7818608E-02  0.1154100E+00
         -1   -1    0    0    0  501 -0.00000000000E+00  0.00000000000E+00  0.31477965279E+02  0.31477965279E+02  0.00000000000E+00 0.  1.
          1   -1    0    0  502    0  0.00000000000E+00 -0.00000000000E+00 -0.13355529304E+04  0.13355529304E+04  0.00000000000E+00 0. -1.
          6    1    1    2  502    0 -0.33531637121E+01 -0.91635900463E+02 -0.86413736979E+03  0.88584749016E+03  0.17200000000E+03 0. -1.
         -6    1    1    2    0  501  0.33531637121E+01  0.91635900463E+02 -0.43993759537E+03  0.48118340555E+03  0.17200000000E+03 0.  1.
</event>
<event>
 4    1  0.6365705E-002  0.2264887E+03  0.7818608E-02  0.1129136E+00
         -1   -1    0    0    0  501 -0.00000000000E+00  0.00000000000E+00  0.33203975991E+02  0.33203975991E+02  0.00000000000E+00 0.  1.
          1   -1    0    0  502    0  0.00000000000E+00 -0.00000000000E+00 -0.21828008749E+04  0.21828008749E+04  0.00000000000E+00 0. -1.
          6    1    1    2  502    0  0.57265431440E+02  0.13577109905E+03 -0.16737713728E+04  0.16890256746E+04  0.17200000000E+03 0. -1.
         -6    1    1    2    0  501 -0.57265431440E+02 -0.13577109905E+03 -0.47582552615E+03  0.52697917635E+03  0.17200000000E+03 0.  1.
</event>
<event>
 4    1  0.6365705E-002  0.1744110E+03  0.7818608E-02  0.1173324E+00
         -2   -1    0    0    0  501 -0.00000000000E+00  0.00000000000E+00  0.35026402710E+02  0.35026402710E+02  0.00000000000E+00 0.  1.
          2   -1    0    0  502    0  0.00000000000E+00 -0.00000000000E+00 -0.16730134625E+04  0.16730134625E+04  0.00000000000E+00 0. -1.
          6    1    1    2  502    0  0.28708969390E+02 -0.33175629106E+01 -0.14112289054E+04  0.14219656236E+04  0.17200000000E+03 0. -1.
         -6    1    1    2    0  501 -0.28708969390E+02  0.33175629106E+01 -0.22675815433E+03  0.28607424159E+03  0.17200000000E+03 0.  1.
</event>
<event>
 4    1  0.6365705E-002  0.1814790E+03  0.7818608E-02  0.1166379E+00
          2   -1    0    0  502    0  0.00000000000E+00  0.00000000000E+00  0.13988211447E+04  0.13988211447E+04  0.00000000000E+00 0. -1.
         -2   -1    0    0    0  501 -0.00000000000E+00 -0.00000000000E+00 -0.24542073882E+02  0.24542073882E+02  0.00000000000E+00 0.  1.
          6    1    1    2  502    0  0.88741347954E+01  0.57200263463E+02  0.83061935655E+03  0.85021358251E+03  0.17200000000E+03 0. -1.
         -6    1    1    2    0  501 -0.88741347954E+01 -0.57200263463E+02  0.54365971422E+03  0.57314963603E+03  0.17200000000E+03 0.  1.
</event>
<event>
 4    1  0.6365705E-002  0.4538939E+03  0.7818608E-02  0.1026567E+00
         -1   -1    0    0    0  501 -0.00000000000E+00  0.00000000000E+00  0.12724212456E+03  0.12724212456E+03  0.00000000000E+00 0.  1.
          1   -1    0    0  502    0  0.00000000000E+00 -0.00000000000E+00 -0.20460831175E+04  0.20460831175E+04  0.00000000000E+00 0. -1.
          6    1    1    2  502    0  0.41657585989E+03 -0.53853757908E+02 -0.14558192117E+04  0.15249358188E+04  0.17200000000E+03 0. -1.
         -6    1    1    2    0  501 -0.41657585989E+03  0.53853757908E+02 -0.46302178119E+03  0.64838942322E+03  0.17200000000E+03 0.  1.
</event>
<event>
 4    1  0.6365705E-002  0.2532878E+03  0.7818608E-02  0.1111244E+00
         -2   -1    0    0    0  501 -0.00000000000E+00  0.00000000000E+00  0.99580180439E+02  0.99580180439E+02  0.00000000000E+00 0.  1.
          2   -1    0    0  502    0  0.00000000000E+00 -0.00000000000E+00 -0.10414490344E+04  0.10414490344E+04  0.00000000000E+00 0. -1.
          6    1    1    2  502    0  0.13500210344E+03 -0.12784815170E+03 -0.82326540180E+03  0.86134815239E+03  0.17200000000E+03 0. -1.
         -6    1    1    2    0  501 -0.13500210344E+03  0.12784815170E+03 -0.11860345217E+03  0.27968106245E+03  0.17200000000E+03 0.  1.
</event>
<event>
 4    1  0.6365705E-002  0.2218525E+03  0.7818608E-02  0.1132509E+00
          2   -1    0    0  502    0  0.00000000000E+00  0.00000000000E+00  0.32109466046E+03  0.32109466046E+03  0.00000000000E+00 0. -1.
         -2   -1    0    0    0  501 -0.00000000000E+00 -0.00000000000E+00 -0.15745510823E+03  0.15745510823E+03  0.00000000000E+00 0.  1.
          6    1    1    2  502    0  0.75509662590E+02 -0.11803731609E+03  0.12076640641E+03  0.25259264053E+03  0.17200000000E+03 0. -1.
         -6    1    1    2    0  501 -0.75509662590E+02  0.11803731609E+03  0.42873145828E+02  0.22595712816E+03  0.17200000000E+03 0.  1.
</event>
<event>
 4    1  0.6365705E-002  0.1932841E+03  0.7818608E-02  0.1155532E+00
          2   -1    0    0  502    0  0.00000000000E+00  0.00000000000E+00  0.18984471315E+04  0.18984471315E+04  0.00000000000E+00 0. -1.
         -2   -1    0    0    0  501 -0.00000000000E+00 -0.00000000000E+00 -0.32035667347E+02  0.32035667347E+02  0.00000000000E+00 0.  1.
          6    1    1    2  502    0 -0.13283383710E+02  0.87168104380E+02  0.15326892801E+04  0.15448285200E+04  0.17200000000E+03 0. -1.
         -6    1    1    2    0  501  0.13283383710E+02 -0.87168104380E+02  0.33372218403E+03  0.38565427888E+03  0.17200000000E+03 0.  1.
</event>
<event>
 4    1  0.6365705E-002  0.1950310E+03  0.7818608E-02  0.1154000E+00
         -1   -1    0    0    0  501 -0.00000000000E+00  0.00000000000E+00  0.94275786248E+03  0.94275786248E+03  0.00000000000E+00 0.  1.
          1   -1    0    0  502    0  0.00000000000E+00 -0.00000000000E+00 -0.51509616210E+02  0.51509616210E+02  0.00000000000E+00 0. -1.
          6    1    1    2  502    0 -0.71836413508E+02  0.57381402619E+02  0.67705399769E+03  0.70458442465E+03  0.17200000000E+03 0.  1.
         -6    1    1    2    0  501  0.71836413508E+02 -0.57381402619E+02  0.21419424858E+03  0.28968305404E+03  0.17200000000E+03 0. -1.
</event>
<event>
 4    1  0.6365705E-002  0.1739596E+03  0.7818608E-02  0.1173780E+00
          1   -1    0    0  502    0  0.00000000000E+00  0.00000000000E+00  0.70670273202E+03  0.70670273202E+03  0.00000000000E+00 0. -1.
         -1   -1    0    0    0  501 -0.00000000000E+00 -0.00000000000E+00 -0.77612344229E+02  0.77612344229E+02  0.00000000000E+00 0.  1.
          6    1    1    2  502    0 -0.18706614012E+02 -0.18111345218E+02  0.51985143605E+02  0.18156104590E+03  0.17200000000E+03 0.  1.
         -6    1    1    2    0  501  0.18706614012E+02  0.18111345218E+02  0.57710524418E+03  0.60275403034E+03  0.17200000000E+03 0. -1.
</event>
<event>
 4    1  0.6365705E-002  0.1885973E+03  0.7818608E-02  0.1159733E+00
         -2   -1    0    0    0  501 -0.00000000000E+00  0.00000000000E+00  0.23798737632E+03  0.23798737632E+03  0.00000000000E+00 0.  1.
          2   -1    0    0  502    0  0.00000000000E+00 -0.00000000000E+00 -0.21036945906E+03  0.21036945906E+03  0.00000000000E+00 0. -1.
          6    1    1    2  502    0  0.11258749591E+02 -0.76538693293E+02 -0.10682087977E+03  0.21674785205E+03  0.17200000000E+03 0. -1.
         -6    1    1    2    0  501 -0.11258749591E+02  0.76538693293E+02  0.13443879703E+03  0.23160898333E+03  0.17200000000E+03 0.  1.
</event>
<event>
 4    1  0.6365705E-002  0.1764258E+03  0.7818608E-02  0.1171308E+00
         -2   -1    0    0    0  501 -0.00000000000E+00  0.00000000000E+00  0.16546448239E+02  0.16546448239E+02  0.00000000000E+00 0.  1.
          2   -1    0    0  502    0  0.00000000000E+00 -0.00000000000E+00 -0.26109521555E+04  0.26109521555E+04  0.00000000000E+00 0. -1.
          6    1    1    2  502    0  0.38861188083E+02  0.56440009523E+01 -0.60262475290E+03  0.62791929378E+03  0.17200000000E+03 0. -1.
         -6    1    1    2    0  501 -0.38861188083E+02 -0.56440009523E+01 -0.19917809543E+04  0.19995793099E+04  0.17200000000E+03 0. -1.
</event>
<event>
 4    1  0.6365705E-002  0.2173420E+03  0.7818608E-02  0.1135880E+00
          3   -1    0    0  502    0  0.00000000000E+00  0.00000000000E+00  0.50924807641E+02  0.50924807641E+02  0.00000000000E+00 0. -1.
         -3   -1    0    0    0  501 -0.00000000000E+00 -0.00000000000E+00 -0.10017302413E+04  0.10017302413E+04  0.00000000000E+00 0.  1.
          6    1    1    2  502    0 -0.13184127378E+03  0.16475277535E+02 -0.33221842248E+03  0.39699702327E+03  0.17200000000E+03 0. -1.
         -6    1    1    2    0  501  0.13184127378E+03 -0.16475277535E+02 -0.61858701122E+03  0.65565802572E+03  0.17200000000E+03 0.  1.
</event>
<event>
 4    1  0.6365705E-002  0.1830148E+03  0.7818608E-02  0.1164917E+00
         -1   -1    0    0    0  501 -0.00000000000E+00  0.00000000000E+00  0.21768453878E+03  0.21768453878E+03  0.00000000000E+00 0.  1.
          1   -1    0    0  502    0  0.00000000000E+00 -0.00000000000E+00 -0.43613321648E+03  0.43613321648E+03  0.00000000000E+00 0. -1.
          6    1    1    2  502    0 -0.49250871884E+02  0.38532569178E+02 -0.37221891636E+03  0.41477865057E+03  0.17200000000E+03 0. -1.
         -6    1    1    2    0  501  0.49250871884E+02 -0.38532569178E+02  0.15377023867E+03  0.23903910468E+03  0.17200000000E+03 0.  1.
</event>
<event>
 4    1  0.6365705E-002  0.3356741E+03  0.7818608E-02  0.1068653E+00
          1   -1    0    0  502    0  0.00000000000E+00  0.00000000000E+00  0.62104426010E+03  0.62104426010E+03  0.00000000000E+00 0. -1.
         -1   -1    0    0    0  501 -0.00000000000E+00 -0.00000000000E+00 -0.20447058774E+03  0.20447058774E+03  0.00000000000E+00 0.  1.
          6    1    1    2  502    0  0.24686765680E+03 -0.14882698459E+03  0.34683803705E+03  0.48267352865E+03  0.17200000000E+03 0. -1.
         -6    1    1    2    0  501 -0.24686765680E+03  0.14882698459E+03  0.69735635308E+02  0.34284131919E+03  0.17200000000E+03 0.  1.
</event>
<event>
 4    1  0.6365705E-002  0.2785786E+03  0.7818608E-02  0.1096468E+00
          1   -1    0    0  502    0  0.00000000000E+00  0.00000000000E+00  0.70073091822E+03  0.70073091822E+03  0.00000000000E+00 0. -1.
         -1   -1    0    0    0  501 -0.00000000000E+00 -0.00000000000E+00 -0.21683517646E+03  0.21683517646E+03  0.00000000000E+00 0.  1.
          6    1    1    2  502    0  0.18723329426E+03 -0.11386711419E+03  0.56284779882E+03  0.62801566127E+03  0.17200000000E+03 0. -1.
         -6    1    1    2    0  501 -0.18723329426E+03  0.11386711419E+03 -0.78952057047E+02  0.28955043341E+03  0.17200000000E+03 0.  1.
</event>
<event>
 4    1  0.6365705E-002  0.2032243E+03  0.7818608E-02  0.1147047E+00
          1   -1    0    0  502    0  0.00000000000E+00  0.00000000000E+00  0.43339928482E+03  0.43339928482E+03  0.00000000000E+00 0. -1.
         -1   -1    0    0    0  501 -0.00000000000E+00 -0.00000000000E+00 -0.10315589973E+03  0.10315589973E+03  0.00000000000E+00 0.  1.
          6    1    1    2  502    0  0.87746589419E+02 -0.63377128662E+02  0.91056256454E+02  0.22269119029E+03  0.17200000000E+03 0. -1.
         -6    1    1    2    0  501 -0.87746589419E+02  0.63377128662E+02  0.23918712863E+03  0.31386399426E+03  0.17200000000E+03 0. -1.
</event>
<event>
 4    1  0.6365705E-002  0.3356023E+03  0.7818608E-02  0.1068685E+00
         -2   -1    0    0    0  501 -0.00000000000E+00  0.00000000000E+00  0.68047244190E+03  0.68047244190E+03  0.00000000000E+00 0.  1.
          2   -1    0    0  502    0  0.00000000000E+00 -0.00000000000E+00 -0.22162666069E+03  0.22162666069E+03  0.00000000000E+00 0. -1.
          6    1    1    2  502    0 -0.27279573858E+03  0.92883899229E+02  0.45637632441E+03  0.56648767259E+03  0.17200000000E+03 0.  1.
         -6    1    1    2    0  501  0.27279573858E+03 -0.92883899229E+02  0.24694568094E+01  0.33561142999E+03  0.17200000000E+03 0.  1.
</event>
<event>
 4    1  0.6365705E-002  0.1733319E+03  0.7818608E-02  0.1174417E+00
         -4   -1    0    0    0  501 -0.00000000000E+00  0.00000000000E+00  0.12718108692E+03  0.12718108692E+03  0.00000000000E+00 0.  1.
          4   -1    0    0  502    0  0.00000000000E+00 -0.00000000000E+00 -0.25293937081E+03  0.25293937081E+03  0.00000000000E+00 0. -1.
          6    1    1    2  502    0 -0.26678797074E+01  0.21279985881E+02 -0.11172935127E+03  0.20622173337E+03  0.17200000000E+03 0. -1.
         -6    1    1    2    0  501  0.26678797074E+01 -0.21279985881E+02 -0.14028932621E+02  0.17389872435E+03  0.17200000000E+03 0.  1.
</event>
<event>
 4    1  0.6365705E-002  0.3214688E+03  0.7818608E-02  0.1074975E+00
          1   -1    0    0  502    0  0.00000000000E+00  0.00000000000E+00  0.12122558059E+03  0.12122558059E+03  0.00000000000E+00 0. -1.
         -1   -1    0    0    0  501 -0.00000000000E+00 -0.00000000000E+00 -0.87359877457E+03  0.87359877457E+03  0.00000000000E+00 0.  1.
          6    1    1    2  502    0  0.15776718644E+03  0.22106046638E+03 -0.29884573396E+03  0.43892025200E+03  0.17200000000E+03 0.  1.
         -6    1    1    2    0  501 -0.15776718644E+03 -0.22106046638E+03 -0.45352746002E+03  0.55590410316E+03  0.17200000000E+03 0.  1.
</event>
<event>
 4    1  0.6365705E-002  0.3814374E+03  0.7818608E-02  0.1050404E+00
          1   -1    0    0  502    0  0.00000000000E+00  0.00000000000E+00  0.42334087996E+03  0.42334087996E+03  0.00000000000E+00 0. -1.
         -1   -1    0    0    0  501 -0.00000000000E+00 -0.00000000000E+00 -0.51031774574E+03  0.51031774574E+03  0.00000000000E+00 0.  1.
          6    1    1    2  502    0 -0.31859107068E+03  0.12004247444E+03  0.22327260847E+03  0.44197864618E+03  0.17200000000E+03 0. -1.
         -6    1    1    2    0  501  0.31859107068E+03 -0.12004247444E+03 -0.31024947425E+03  0.49167997951E+03  0.17200000000E+03 0.  1.
</event>
<event>
 4    1  0.6365705E-002  0.3646845E+03  0.7818608E-02  0.1056744E+00
          2   -1    0    0  502    0  0.00000000000E+00  0.00000000000E+00  0.36404647659E+03  0.36404647659E+03  0.00000000000E+00 0. -1.
         -2   -1    0    0    0  501 -0.00000000000E+00 -0.00000000000E+00 -0.46601369336E+03  0.46601369336E+03  0.00000000000E+00 0.  1.
          6    1    1    2  502    0 -0.98246191310E+02 -0.30620008233E+03  0.14193468165E+03  0.39133139202E+03  0.17200000000E+03 0. -1.
         -6    1    1    2    0  501  0.98246191310E+02  0.30620008233E+03 -0.24390189841E+03  0.43872877792E+03  0.17200000000E+03 0.  1.
</event>
<event>
 4    1  0.6365705E-002  0.3360603E+03  0.7818608E-02  0.1068486E+00
         -2   -1    0    0    0  501 -0.00000000000E+00  0.00000000000E+00  0.92045354268E+02  0.92045354268E+02  0.00000000000E+00 0.  1.
          2   -1    0    0  502    0  0.00000000000E+00 -0.00000000000E+00 -0.14016388035E+04  0.14016388035E+04  0.00000000000E+00 0. -1.
          6    1    1    2  502    0 -0.28860688146E+03  0.76556080382E+01 -0.91844388333E+03  0.97799576031E+03  0.17200000000E+03 0.  1.
         -6    1    1    2    0  501  0.28860688146E+03 -0.76556080382E+01 -0.39114956589E+03  0.51568839744E+03  0.17200000000E+03 0. -1.
</event>
<event>
 4    1  0.6365705E-002  0.3265386E+03  0.7818608E-02  0.1072679E+00
         -1   -1    0    0    0  501 -0.00000000000E+00  0.00000000000E+00  0.65360691293E+03  0.65360691293E+03  0.00000000000E+00 0.  1.
          1   -1    0    0  502    0  0.00000000000E+00 -0.00000000000E+00 -0.55620185094E+03  0.55620185094E+03  0.00000000000E+00 0. -1.
          6    1    1    2  502    0 -0.17219404866E+03  0.21769857617E+03 -0.45981113562E+03  0.56396253501E+03  0.17200000000E+03 0. -1.
         -6    1    1    2    0  501  0.17219404866E+03 -0.21769857617E+03  0.55721619760E+03  0.64584622886E+03  0.17200000000E+03 0.  1.
</event>
<event>
 4    1  0.6365705E-002  0.1967520E+03  0.7818608E-02  0.1152509E+00
          2   -1    0    0  502    0  0.00000000000E+00  0.00000000000E+00  0.19198593826E+02  0.19198593826E+02  0.00000000000E+00 0. -1.
         -2   -1    0    0    0  501 -0.00000000000E+00 -0.00000000000E+00 -0.23655282401E+04  0.23655282401E+04  0.00000000000E+00 0.  1.
          6    1    1    2  502    0  0.18126594310E+02  0.93801846561E+02 -0.71506592574E+03  0.74164050455E+03  0.17200000000E+03 0. -1.
         -6    1    1    2    0  501 -0.18126594310E+02 -0.93801846561E+02 -0.16312637205E+04  0.16430863294E+04  0.17200000000E+03 0.  1.
</event>
<event>
 4    1  0.6365705E-002  0.2706711E+03  0.7818608E-02  0.1100896E+00
          2   -1    0    0  502    0  0.00000000000E+00  0.00000000000E+00  0.25109422652E+03  0.25109422652E+03  0.00000000000E+00 0. -1.
         -2   -1    0    0    0  501 -0.00000000000E+00 -0.00000000000E+00 -0.29797193821E+03  0.29797193821E+03  0.00000000000E+00 0.  1.
          6    1    1    2  502    0 -0.16075065822E+03  0.13355920335E+03 -0.63032103477E+02  0.27791344154E+03  0.17200000000E+03 0.  1.
         -6    1    1    2    0  501  0.16075065822E+03 -0.13355920335E+03  0.16154391784E+02  0.27115272319E+03  0.17200000000E+03 0. -1.
</event>
<event>
 4    1  0.6365705E-002  0.1263768E+04  0.7818608E-02  0.9058802E-01
          2   -1    0    0  502    0  0.00000000000E+00  0.00000000000E+00  0.17486159280E+04  0.17486159280E+04  0.00000000000E+00 0. -1.
         -2   -1    0    0    0  501 -0.00000000000E+00 -0.00000000000E+00 -0.91338177566E+03  0.91338177566E+03  0.00000000000E+00 0.  1.
          6    1    1    2  502    0 -0.11656666448E+04  0.45688712695E+03  0.42470928869E+03  0.13332241197E+04  0.17200000000E+03 0. -1.
         -6    1    1    2    0  501  0.11656666448E+04 -0.45688712695E+03  0.41052486363E+03  0.13287735839E+04  0.17200000000E+03 0.  1.
</event>
<event>
 4    1  0.6365705E-002  0.3223180E+03  0.7818608E-02  0.1074587E+00
          1   -1    0    0  502    0  0.00000000000E+00  0.00000000000E+00  0.12293468933E+04  0.12293468933E+04  0.00000000000E+00 0. -1.
         -1   -1    0    0    0  501 -0.00000000000E+00 -0.00000000000E+00 -0.25963014078E+03  0.25963014078E+03  0.00000000000E+00 0.  1.
          6    1    1    2  502    0  0.22652485218E+03  0.15162912531E+03  0.10962953984E+04  0.11426952790E+04  0.17200000000E+03 0. -1.
         -6    1    1    2    0  501 -0.22652485218E+03 -0.15162912531E+03 -0.12657864583E+03  0.34628175505E+03  0.17200000000E+03 0.  1.
</event>
<event>
 4    1  0.6365705E-002  0.2792078E+03  0.7818608E-02  0.1096122E+00
         -1   -1    0    0    0  501 -0.00000000000E+00  0.00000000000E+00  0.41909861659E+03  0.41909861659E+03  0.00000000000E+00 0.  1.
          1   -1    0    0  502    0  0.00000000000E+00 -0.00000000000E+00 -0.59762195271E+03  0.59762195271E+03  0.00000000000E+00 0. -1.
          6    1    1    2  502    0  0.21132418134E+03 -0.60951489111E+02 -0.51115411748E+03  0.58243928907E+03  0.17200000000E+03 0. -1.
         -6    1    1    2    0  501 -0.21132418134E+03  0.60951489111E+02  0.33263078136E+03  0.43428128023E+03  0.17200000000E+03 0.  1.
</event>
<event>
 4    1  0.6365705E-002  0.2457967E+03  0.7818608E-02  0.1115990E+00
          2   -1    0    0  502    0  0.00000000000E+00  0.00000000000E+00  0.38824991470E+03  0.38824991470E+03  0.00000000000E+00 0. -1.
         -2   -1    0    0    0  501 -0.00000000000E+00 -0.00000000000E+00 -0.17915365027E+03  0.17915365027E+03  0.00000000000E+00 0.  1.
          6    1    1    2  502    0  0.98616395069E+02 -0.14528180010E+03  0.20739143661E+03  0.32160099937E+03  0.17200000000E+03 0. -1.
         -6    1    1    2    0  501 -0.98616395069E+02  0.14528180010E+03  0.17048278297E+01  0.24580256560E+03  0.17200000000E+03 0.  1.
</event>
<event>
 4    1  0.6365705E-002  0.3921443E+03  0.7818608E-02  0.1046534E+00
         -2   -1    0    0    0  501 -0.00000000000E+00  0.00000000000E+00  0.17796616268E+03  0.17796616268E+03  0.00000000000E+00 0.  1.
          2   -1    0    0  502    0  0.00000000000E+00 -0.00000000000E+00 -0.17375670351E+04  0.17375670351E+04  0.00000000000E+00 0. -1.
          6    1    1    2  502    0  0.30851065777E+02 -0.35105753356E+03 -0.14588740968E+04  0.15106590650E+04  0.17200000000E+03 0. -1.
         -6    1    1    2    0  501 -0.30851065777E+02  0.35105753356E+03 -0.10072677563E+03  0.40487413286E+03  0.17200000000E+03 0.  1.
</event>
<event>
 4    1  0.6365705E-002  0.2430394E+03  0.7818608E-02  0.1117785E+00
          1   -1    0    0  502    0  0.00000000000E+00  0.00000000000E+00  0.89967254189E+03  0.89967254189E+03  0.00000000000E+00 0. -1.
         -1   -1    0    0    0  501 -0.00000000000E+00 -0.00000000000E+00 -0.77729918178E+02  0.77729918178E+02  0.00000000000E+00 0.  1.
          6    1    1    2  502    0  0.11280165980E+03  0.12946008245E+03  0.60358577443E+03  0.65067957897E+03  0.17200000000E+03 0. -1.
         -6    1    1    2    0  501 -0.11280165980E+03 -0.12946008245E+03  0.21835684928E+03  0.32672288109E+03  0.17200000000E+03 0.  1.
</event>
<event>
 4    1  0.6365705E-002  0.2125642E+03  0.7818608E-02  0.1139551E+00
          2   -1    0    0  502    0  0.00000000000E+00  0.00000000000E+00  0.10963639440E+04  0.10963639440E+04  0.00000000000E+00 0. -1.
         -2   -1    0    0    0  501 -0.00000000000E+00 -0.00000000000E+00 -0.74682410664E+02  0.74682410664E+02  0.00000000000E+00 0.  1.
          6    1    1    2  502    0  0.50075373246E+02  0.11442029917E+03  0.90282110331E+03  0.92750713876E+03  0.17200000000E+03 0. -1.
         -6    1    1    2    0  501 -0.50075373246E+02 -0.11442029917E+03  0.11886043007E+03  0.24353921595E+03  0.17200000000E+03 0.  1.
</event>
<event>
 4    1  0.6365705E-002  0.1924559E+03  0.7818608E-02  0.1156265E+00
          1   -1    0    0  502    0  0.00000000000E+00  0.00000000000E+00  0.10009235516E+03  0.10009235516E+03  0.00000000000E+00 0. -1.
         -1   -1    0    0    0  501 -0.00000000000E+00 -0.00000000000E+00 -0.40318297770E+03  0.40318297770E+03  0.00000000000E+00 0.  1.
          6    1    1    2  502    0  0.68857178917E+02  0.52095821065E+02 -0.79410049792E+02  0.20819520088E+03  0.17200000000E+03 0. -1.
         -6    1    1    2    0  501 -0.68857178917E+02 -0.52095821065E+02 -0.22368057275E+03  0.29508013198E+03  0.17200000000E+03 0.  1.
</event>
<event>
 4    1  0.6365705E-002  0.2235202E+03  0.7818608E-02  0.1131285E+00
         -2   -1    0    0    0  501 -0.00000000000E+00  0.00000000000E+00  0.14333234238E+02  0.14333234238E+02  0.00000000000E+00 0.  1.
          2   -1    0    0  502    0  0.00000000000E+00 -0.00000000000E+00 -0.35608302247E+04  0.35608302247E+04  0.00000000000E+00 0. -1.
          6    1    1    2  502    0  0.23298754201E+02  0.14083488334E+03 -0.20329110749E+04  0.20451622759E+04  0.17200000000E+03 0. -1.
         -6    1    1    2    0  501 -0.23298754201E+02 -0.14083488334E+03 -0.15135859156E+04  0.15300011831E+04  0.17200000000E+03 0.  1.
</event>
<event>
 4    1  0.6365705E-002  0.2743645E+03  0.7818608E-02  0.1098807E+00
          2   -1    0    0  502    0  0.00000000000E+00  0.00000000000E+00  0.11900569241E+04  0.11900569241E+04  0.00000000000E+00 0. -1.
         -2   -1    0    0    0  501 -0.00000000000E+00 -0.00000000000E+00 -0.77721580065E+02  0.77721580065E+02  0.00000000000E+00 0.  1.
          6    1    1    2  502    0 -0.17385830186E+03  0.12435901922E+03  0.28267836751E+03  0.39393265192E+03  0.17200000000E+03 0.  1.
         -6    1    1    2    0  501  0.17385830186E+03 -0.12435901922E+03  0.82965697649E+03  0.87384585221E+03  0.17200000000E+03 0. -1.
</event>
<event>
 4    1  0.6365705E-002  0.4377304E+03  0.7818608E-02  0.1031445E+00
         -2   -1    0    0    0  501 -0.00000000000E+00  0.00000000000E+00  0.39689425862E+03  0.39689425862E+03  0.00000000000E+00 0.  1.
          2   -1    0    0  502    0  0.00000000000E+00 -0.00000000000E+00 -0.93558995051E+03  0.93558995051E+03  0.00000000000E+00 0. -1.
          6    1    1    2  502    0 -0.19341200499E+03  0.35300947733E+03 -0.73285130506E+03  0.85362692676E+03  0.17200000000E+03 0. -1.
         -6    1    1    2    0  501  0.19341200499E+03 -0.35300947733E+03  0.19415561317E+03  0.47885728238E+03  0.17200000000E+03 0.  1.
</event>
<event>
 4    1  0.6365705E-002  0.2497720E+03  0.7818608E-02  0.1113449E+00
         -1   -1    0    0    0  501 -0.00000000000E+00  0.00000000000E+00  0.18732925298E+03  0.18732925298E+03  0.00000000000E+00 0.  1.
          1   -1    0    0  502    0  0.00000000000E+00 -0.00000000000E+00 -0.45808968092E+03  0.45808968092E+03  0.00000000000E+00 0. -1.
          6    1    1    2  502    0  0.72114719984E+02 -0.16613709842E+03 -0.30399548185E+03  0.39344544894E+03  0.17200000000E+03 0. -1.
         -6    1    1    2    0  501 -0.72114719984E+02  0.16613709842E+03  0.33235053913E+02  0.25197348495E+03  0.17200000000E+03 0.  1.
</event>
<event>
 4    1  0.6365705E-002  0.1922223E+03  0.7818608E-02  0.1156472E+00
         -2   -1    0    0    0  501 -0.00000000000E+00  0.00000000000E+00  0.22346412336E+02  0.22346412336E+02  0.00000000000E+00 0.  1.
          2   -1    0    0  502    0  0.00000000000E+00 -0.00000000000E+00 -0.17992107427E+04  0.17992107427E+04  0.00000000000E+00 0. -1.
          6    1    1    2  502    0  0.15213199414E+02  0.84462745739E+02 -0.11476375256E+04  0.11636242035E+04  0.17200000000E+03 0. -1.
         -6    1    1    2    0  501 -0.15213199414E+02 -0.84462745739E+02 -0.62922680472E+03  0.65793295147E+03  0.17200000000E+03 0.  1.
</event>
<event>
 4    1  0.6365705E-002  0.1746279E+03  0.7818608E-02  0.1173106E+00
         -1   -1    0    0    0  501 -0.00000000000E+00  0.00000000000E+00  0.29894588089E+03  0.29894588089E+03  0.00000000000E+00 0.  1.
          1   -1    0    0  502    0  0.00000000000E+00 -0.00000000000E+00 -0.10207801931E+03  0.10207801931E+03  0.00000000000E+00 0. -1.
          6    1    1    2  502    0  0.21106967281E+02  0.21573232288E+02  0.10368078344E+03  0.20308769848E+03  0.17200000000E+03 0. -1.
         -6    1    1    2    0  501 -0.21106967281E+02 -0.21573232288E+02  0.93187078137E+02  0.19793620172E+03  0.17200000000E+03 0. -1.
</event>
<event>
 4    1  0.6365705E-002  0.1745164E+03  0.7818608E-02  0.1173218E+00
          1   -1    0    0  502    0  0.00000000000E+00  0.00000000000E+00  0.11625803723E+03  0.11625803723E+03  0.00000000000E+00 0. -1.
         -1   -1    0    0    0  501 -0.00000000000E+00 -0.00000000000E+00 -0.30070474944E+03  0.30070474944E+03  0.00000000000E+00 0.  1.
          6    1    1    2  502    0 -0.27037113278E+02 -0.11873508325E+02 -0.17397117757E+02  0.17538142832E+03  0.17200000000E+03 0. -1.
         -6    1    1    2    0  501  0.27037113278E+02  0.11873508325E+02 -0.16704959445E+03  0.24158135834E+03  0.17200000000E+03 0.  1.
</event>
<event>
 4    1  0.6365705E-002  0.2387292E+03  0.7818608E-02  0.1120642E+00
         -1   -1    0    0    0  501 -0.00000000000E+00  0.00000000000E+00  0.10030645479E+03  0.10030645479E+03  0.00000000000E+00 0.  1.
          1   -1    0    0  502    0  0.00000000000E+00 -0.00000000000E+00 -0.12658321309E+04  0.12658321309E+04  0.00000000000E+00 0. -1.
          6    1    1    2  502    0  0.70996796473E+01  0.16540013968E+03 -0.10898676704E+04  0.11157074665E+04  0.17200000000E+03 0. -1.
         -6    1    1    2    0  501 -0.70996796473E+01 -0.16540013968E+03 -0.75658005686E+02  0.25043111924E+03  0.17200000000E+03 0. -1.
</event>
<event>
 4    1  0.6365705E-002  0.2345860E+03  0.7818608E-02  0.1123453E+00
         -2   -1    0    0    0  501 -0.00000000000E+00  0.00000000000E+00  0.11274184206E+03  0.11274184206E+03  0.00000000000E+00 0.  1.
          2   -1    0    0  502    0  0.00000000000E+00 -0.00000000000E+00 -0.50000063389E+03  0.50000063389E+03  0.00000000000E+00 0. -1.
          6    1    1    2  502    0 -0.82249905415E+02  0.13668045120E+03 -0.24087238092E+03  0.33622923218E+03  0.17200000000E+03 0. -1.
         -6    1    1    2    0  501  0.82249905415E+02 -0.13668045120E+03 -0.14638641090E+03  0.27651324377E+03  0.17200000000E+03 0.  1.
</event>
<event>
 4    1  0.6365705E-002  0.2580322E+03  0.7818608E-02  0.1108331E+00
         -2   -1    0    0    0  501 -0.00000000000E+00  0.00000000000E+00  0.63322674414E+02  0.63322674414E+02  0.00000000000E+00 0.  1.
          2   -1    0    0  502    0  0.00000000000E+00 -0.00000000000E+00 -0.11077754400E+04  0.11077754400E+04  0.00000000000E+00 0. -1.
          6    1    1    2  502    0  0.56854132003E+02  0.18375045824E+03 -0.39019113474E+03  0.46779241642E+03  0.17200000000E+03 0. -1.
         -6    1    1    2    0  501 -0.56854132003E+02 -0.18375045824E+03 -0.65426163081E+03  0.70330569796E+03  0.17200000000E+03 0.  1.
</event>
<event>
 4    1  0.6365705E-002  0.2580394E+03  0.7818608E-02  0.1108327E+00
          3   -1    0    0  502    0  0.00000000000E+00  0.00000000000E+00  0.18884319023E+03  0.18884319023E+03  0.00000000000E+00 0. -1.
         -3   -1    0    0    0  501 -0.00000000000E+00 -0.00000000000E+00 -0.37942672068E+03  0.37942672068E+03  0.00000000000E+00 0.  1.
          6    1    1    2  502    0  0.18954432407E+03  0.32761169653E+02 -0.17085666218E+03  0.30947753398E+03  0.17200000000E+03 0.  1.
         -6    1    1    2    0  501 -0.18954432407E+03 -0.32761169653E+02 -0.19726868271E+02  0.25879237693E+03  0.17200000000E+03 0. -1.
</event>
<event>
 4    1  0.6365705E-002  0.2516004E+03  0.7818608E-02  0.1112298E+00
          1   -1    0    0  502    0  0.00000000000E+00  0.00000000000E+00  0.15587275071E+03  0.15587275071E+03  0.00000000000E+00 0. -1.
         -1   -1    0    0    0  501 -0.00000000000E+00 -0.00000000000E+00 -0.50212911592E+03  0.50212911592E+03  0.00000000000E+00 0.  1.
          6    1    1    2  502    0 -0.21088301038E+02  0.18241177349E+03 -0.29265027649E+02  0.25329669045E+03  0.17200000000E+03 0. -1.
         -6    1    1    2    0  501  0.21088301038E+02 -0.18241177349E+03 -0.31699133756E+03  0.40470517619E+03  0.17200000000E+03 0.  1.
</event>
<event>
 4    1  0.6365705E-002  0.5494946E+03  0.7818608E-02  0.1001611E+00
         -2   -1    0    0    0  501 -0.00000000000E+00  0.00000000000E+00  0.84744697821E+03  0.84744697821E+03  0.00000000000E+00 0.  1.
          2   -1    0    0  502    0  0.00000000000E+00 -0.00000000000E+00 -0.35630583590E+03  0.35630583590E+03  0.00000000000E+00 0. -1.
          6    1    1    2  502    0 -0.19148841894E+03  0.48548169886E+03  0.24825564626E+03  0.60297193999E+03  0.17200000000E+03 0. -1.
         -6    1    1    2    0  501  0.19148841894E+03 -0.48548169886E+03  0.24288549605E+03  0.60078087412E+03  0.17200000000E+03 0.  1.
</event>
<event>
 4    1  0.6365705E-002  0.2250040E+03  0.7818608E-02  0.1130206E+00
         -2   -1    0    0    0  501 -0.00000000000E+00  0.00000000000E+00  0.68749700382E+02  0.68749700382E+02  0.00000000000E+00 0.  1.
          2   -1    0    0  502    0  0.00000000000E+00 -0.00000000000E+00 -0.73728697598E+03  0.73728697598E+03  0.00000000000E+00 0. -1.
          6    1    1    2  502    0 -0.16427942844E+02  0.14412816299E+03 -0.34830150055E+03  0.41465737659E+03  0.17200000000E+03 0. -1.
         -6    1    1    2    0  501  0.16427942844E+02 -0.14412816299E+03 -0.32023577505E+03  0.39137929977E+03  0.17200000000E+03 0.  1.
</event>
<event>
 4    1  0.6365705E-002  0.2910169E+03  0.7818608E-02  0.1089819E+00
          4   -1    0    0  502    0  0.00000000000E+00  0.00000000000E+00  0.66261526251E+02  0.66261526251E+02  0.00000000000E+00 0. -1.
         -4   -1    0    0    0  501 -0.00000000000E+00 -0.00000000000E+00 -0.13777274308E+04  0.13777274308E+04  0.00000000000E+00 0.  1.
          6    1    1    2  502    0 -0.19780236262E+03  0.12641612680E+03 -0.46160978441E+03  0.54568709425E+03  0.17200000000E+03 0. -1.
         -6    1    1    2    0  501  0.19780236262E+03 -0.12641612680E+03 -0.84985612016E+03  0.89830186282E+03  0.17200000000E+03 0.  1.
</event>
<event>
 4    1  0.6365705E-002  0.5146779E+03  0.7818608E-02  0.1010017E+00
         -2   -1    0    0    0  501 -0.00000000000E+00  0.00000000000E+00  0.55625777401E+03  0.55625777401E+03  0.00000000000E+00 0.  1.
          2   -1    0    0  502    0  0.00000000000E+00 -0.00000000000E+00 -0.52383795123E+03  0.52383795123E+03  0.00000000000E+00 0. -1.
          6    1    1    2  502    0  0.47540336885E+03 -0.96441468237E+02 -0.14663819365E+03  0.53515986373E+03  0.17200000000E+03 0. -1.
         -6    1    1    2    0  501 -0.47540336885E+03  0.96441468237E+02  0.17905801643E+03  0.54493586151E+03  0.17200000000E+03 0.  1.
</event>
<event>
 4    1  0.6365705E-002  0.1850725E+03  0.7818608E-02  0.1162982E+00
         -2   -1    0    0    0  501 -0.00000000000E+00  0.00000000000E+00  0.10022008531E+03  0.10022008531E+03  0.00000000000E+00 0.  1.
          2   -1    0    0  502    0  0.00000000000E+00 -0.00000000000E+00 -0.43018142567E+03  0.43018142567E+03  0.00000000000E+00 0. -1.
          6    1    1    2  502    0  0.38053780716E+02 -0.56742897943E+02 -0.44750838367E+02  0.19040610344E+03  0.17200000000E+03 0.  1.
         -6    1    1    2    0  501 -0.38053780716E+02  0.56742897943E+02 -0.28521050199E+03  0.33999540753E+03  0.17200000000E+03 0. -1.
</event>
<event>
 4    1  0.6365705E-002  0.1853897E+03  0.7818608E-02  0.1162686E+00
         -1   -1    0    0    0  501 -0.00000000000E+00  0.00000000000E+00  0.14391824539E+03  0.14391824539E+03  0.00000000000E+00 0.  1.
          1   -1    0    0  502    0  0.00000000000E+00 -0.00000000000E+00 -0.23893230713E+03  0.23893230713E+03  0.00000000000E+00 0. -1.
          6    1    1    2  502    0 -0.63482244118E+02  0.27483864714E+02 -0.51808156916E+02  0.19249270963E+03  0.17200000000E+03 0.  1.
         -6    1    1    2    0  501  0.63482244118E+02 -0.27483864714E+02 -0.43205904822E+02  0.19035784289E+03  0.17200000000E+03 0. -1.
</event>
<event>
 4    1  0.6365705E-002  0.2244539E+03  0.7818608E-02  0.1130605E+00
          1   -1    0    0  502    0  0.00000000000E+00  0.00000000000E+00  0.81920909617E+03  0.81920909617E+03  0.00000000000E+00 0. -1.
         -1   -1    0    0    0  501 -0.00000000000E+00 -0.00000000000E+00 -0.61915906270E+02  0.61915906270E+02  0.00000000000E+00 0.  1.
          6    1    1    2  502    0  0.11987441803E+03 -0.80160405943E+02  0.41484951908E+03  0.47167752783E+03  0.17200000000E+03 0. -1.
         -6    1    1    2    0  501 -0.11987441803E+03  0.80160405943E+02  0.34244367082E+03  0.40944747461E+03  0.17200000000E+03 0.  1.
</event>
<event>
 4    1  0.6365705E-002  0.2203696E+03  0.7818608E-02  0.1133608E+00
         -1   -1    0    0    0  501 -0.00000000000E+00  0.00000000000E+00  0.26706760677E+02  0.26706760677E+02  0.00000000000E+00 0.  1.
          1   -1    0    0  502    0  0.00000000000E+00 -0.00000000000E+00 -0.18303191443E+04  0.18303191443E+04  0.00000000000E+00 0. -1.
          6    1    1    2  502    0 -0.61652702380E+02 -0.12319783563E+03 -0.97683011356E+03  0.10013789658E+04  0.17200000000E+03 0. -1.
         -6    1    1    2    0  501  0.61652702380E+02  0.12319783563E+03 -0.82678227009E+03  0.85564693920E+03  0.17200000000E+03 0.  1.
</event>
<event>
 4    1  0.6365705E-002  0.2041477E+03  0.7818608E-02  0.1146286E+00
         -2   -1    0    0    0  501 -0.00000000000E+00  0.00000000000E+00  0.41889542786E+02  0.41889542786E+02  0.00000000000E+00 0.  1.
          2   -1    0    0  502    0  0.00000000000E+00 -0.00000000000E+00 -0.11202144255E+04  0.11202144255E+04  0.00000000000E+00 0. -1.
          6    1    1    2  502    0 -0.92184936027E+02 -0.59951676831E+02 -0.73349700741E+03  0.76137646790E+03  0.17200000000E+03 0.  1.
         -6    1    1    2    0  501  0.92184936027E+02  0.59951676831E+02 -0.34482787532E+03  0.40072750041E+03  0.17200000000E+03 0.  1.
</event>
<event>
 4    1  0.6365705E-002  0.2200718E+03  0.7818608E-02  0.1133830E+00
          1   -1    0    0  502    0  0.00000000000E+00  0.00000000000E+00  0.13973695681E+04  0.13973695681E+04  0.00000000000E+00 0. -1.
         -1   -1    0    0    0  501 -0.00000000000E+00 -0.00000000000E+00 -0.34671422215E+02  0.34671422215E+02  0.00000000000E+00 0.  1.
          6    1    1    2  502    0 -0.11794035450E+03 -0.70268601957E+02  0.69483496177E+03  0.72885336504E+03  0.17200000000E+03 0. -1.
         -6    1    1    2    0  501  0.11794035450E+03  0.70268601957E+02  0.66786318414E+03  0.70318762529E+03  0.17200000000E+03 0.  1.
</event>
<event>
 4    1  0.6365705E-002  0.1785458E+03  0.7818608E-02  0.1169218E+00
         -1   -1    0    0    0  501 -0.00000000000E+00  0.00000000000E+00  0.22641515342E+02  0.22641515342E+02  0.00000000000E+00 0.  1.
          1   -1    0    0  502    0  0.00000000000E+00 -0.00000000000E+00 -0.14106293739E+04  0.14106293739E+04  0.00000000000E+00 0. -1.
          6    1    1    2  502    0  0.19361990749E+02  0.43814502056E+02 -0.72510384617E+03  0.74676246894E+03  0.17200000000E+03 0.  1.
         -6    1    1    2    0  501 -0.19361990749E+02 -0.43814502056E+02 -0.66288401239E+03  0.68650842031E+03  0.17200000000E+03 0.  1.
</event>
<event>
 4    1  0.6365705E-002  0.1977668E+03  0.7818608E-02  0.1151637E+00
          1   -1    0    0  502    0  0.00000000000E+00  0.00000000000E+00  0.15608995630E+04  0.15608995630E+04  0.00000000000E+00 0. -1.
         -1   -1    0    0    0  501 -0.00000000000E+00 -0.00000000000E+00 -0.58298884303E+02  0.58298884303E+02  0.00000000000E+00 0.  1.
          6    1    1    2  502    0  0.66476711342E+02  0.71474096178E+02  0.13626388814E+04  0.13769155460E+04  0.17200000000E+03 0. -1.
         -6    1    1    2    0  501 -0.66476711342E+02 -0.71474096178E+02  0.13996179725E+03  0.24228290130E+03  0.17200000000E+03 0.  1.
</event>
<event>
 4    1  0.6365705E-002  0.2213824E+03  0.7818608E-02  0.1132857E+00
          2   -1    0    0  502    0  0.00000000000E+00  0.00000000000E+00  0.94456605912E+03  0.94456605912E+03  0.00000000000E+00 0. -1.
         -2   -1    0    0    0  501 -0.00000000000E+00 -0.00000000000E+00 -0.63806615456E+02  0.63806615456E+02  0.00000000000E+00 0.  1.
          6    1    1    2  502    0  0.12845857528E+03 -0.54079062623E+02  0.65830114173E+03  0.69452900859E+03  0.17200000000E+03 0. -1.
         -6    1    1    2    0  501 -0.12845857528E+03  0.54079062623E+02  0.22245830193E+03  0.31384366598E+03  0.17200000000E+03 0. -1.
</event>
<event>
 4    1  0.6365705E-002  0.2366875E+03  0.7818608E-02  0.1122019E+00
          2   -1    0    0  502    0  0.00000000000E+00  0.00000000000E+00  0.61371841882E+02  0.61371841882E+02  0.00000000000E+00 0. -1.
         -2   -1    0    0    0  501 -0.00000000000E+00 -0.00000000000E+00 -0.99657612040E+03  0.99657612040E+03  0.00000000000E+00 0.  1.
          6    1    1    2  502    0 -0.13255598586E+02 -0.16205328904E+03 -0.31424393833E+03  0.39340848003E+03  0.17200000000E+03 0. -1.
         -6    1    1    2    0  501  0.13255598586E+02  0.16205328904E+03 -0.62096034019E+03  0.66453948225E+03  0.17200000000E+03 0. -1.
</event>
<event>
 4    1  0.6365705E-002  0.1928639E+03  0.7818608E-02  0.1155903E+00
          1   -1    0    0  502    0  0.00000000000E+00  0.00000000000E+00  0.14953103611E+03  0.14953103611E+03  0.00000000000E+00 0. -1.
         -1   -1    0    0    0  501 -0.00000000000E+00 -0.00000000000E+00 -0.38098108023E+03  0.38098108023E+03  0.00000000000E+00 0.  1.
          6    1    1    2  502    0 -0.55372945746E+02  0.67426454639E+02  0.40544145943E+02  0.19707947046E+03  0.17200000000E+03 0. -1.
         -6    1    1    2    0  501  0.55372945746E+02 -0.67426454639E+02 -0.27199419007E+03  0.33343264587E+03  0.17200000000E+03 0.  1.
</event>
<event>
 4    1  0.6365705E-002  0.1963748E+03  0.7818608E-02  0.1152834E+00
         -2   -1    0    0    0  501 -0.00000000000E+00  0.00000000000E+00  0.19429558370E+03  0.19429558370E+03  0.00000000000E+00 0.  1.
          2   -1    0    0  502    0  0.00000000000E+00 -0.00000000000E+00 -0.40755000569E+03  0.40755000569E+03  0.00000000000E+00 0. -1.
          6    1    1    2  502    0 -0.90254454287E+01  0.94327068726E+02 -0.32216053066E+03  0.37729360195E+03  0.17200000000E+03 0. -1.
         -6    1    1    2    0  501  0.90254454287E+01 -0.94327068726E+02  0.10890610867E+03  0.22455198744E+03  0.17200000000E+03 0.  1.
</event>
<event>
 4    1  0.6365705E-002  0.2279557E+03  0.7818608E-02  0.1128087E+00
          2   -1    0    0  502    0  0.00000000000E+00  0.00000000000E+00  0.34768537021E+03  0.34768537021E+03  0.00000000000E+00 0. -1.
         -2   -1    0    0    0  501 -0.00000000000E+00 -0.00000000000E+00 -0.16961883936E+03  0.16961883936E+03  0.00000000000E+00 0.  1.
          6    1    1    2  502    0 -0.14909087238E+03  0.12316735693E+02  0.17820986957E+03  0.28934848853E+03  0.17200000000E+03 0. -1.
         -6    1    1    2    0  501  0.14909087238E+03 -0.12316735693E+02 -0.14333871659E+00  0.22795572103E+03  0.17200000000E+03 0.  1.
</event>
<event>
 4    1  0.6365705E-002  0.3124042E+03  0.7818608E-02  0.1079199E+00
         -1   -1    0    0    0  501 -0.00000000000E+00  0.00000000000E+00  0.13690721603E+03  0.13690721603E+03  0.00000000000E+00 0.  1.
          1   -1    0    0  502    0  0.00000000000E+00 -0.00000000000E+00 -0.91577637929E+03  0.91577637929E+03  0.00000000000E+00 0. -1.
          6    1    1    2  502    0  0.24570039384E+03  0.87428338549E+02 -0.14167750628E+03  0.34302902749E+03  0.17200000000E+03 0.  1.
         -6    1    1    2    0  501 -0.24570039384E+03 -0.87428338549E+02 -0.63719165699E+03  0.70965456783E+03  0.17200000000E+03 0. -1.
</event>
<event>
 4    1  0.6365705E-002  0.2157952E+03  0.7818608E-02  0.1137057E+00
         -1   -1    0    0    0  501 -0.00000000000E+00  0.00000000000E+00  0.85064203820E+02  0.85064203820E+02  0.00000000000E+00 0.  1.
          1   -1    0    0  502    0  0.00000000000E+00 -0.00000000000E+00 -0.56603601207E+03  0.56603601207E+03  0.00000000000E+00 0. -1.
          6    1    1    2  502    0 -0.11275758839E+03 -0.65339848695E+02 -0.29949279416E+03  0.36913886726E+03  0.17200000000E+03 0. -1.
         -6    1    1    2    0  501  0.11275758839E+03  0.65339848695E+02 -0.18147901408E+03  0.28196134863E+03  0.17200000000E+03 0.  1.
</event>
<event>
 4    1  0.6365705E-002  0.2749812E+03  0.7818608E-02  0.1098462E+00
         -1   -1    0    0    0  501 -0.00000000000E+00  0.00000000000E+00  0.12540650860E+03  0.12540650860E+03  0.00000000000E+00 0.  1.
          1   -1    0    0  502    0  0.00000000000E+00 -0.00000000000E+00 -0.70606871018E+03  0.70606871018E+03  0.00000000000E+00 0. -1.
          6    1    1    2  502    0 -0.20225019737E+03  0.71592687898E+02 -0.44920447451E+03  0.52668711321E+03  0.17200000000E+03 0. -1.
         -6    1    1    2    0  501  0.20225019737E+03 -0.71592687898E+02 -0.13145772706E+03  0.30478810558E+03  0.17200000000E+03 0.  1.
</event>
<event>
 4    1  0.6365705E-002  0.3312595E+03  0.7818608E-02  0.1070581E+00
          1   -1    0    0  502    0  0.00000000000E+00  0.00000000000E+00  0.34863698538E+04  0.34863698538E+04  0.00000000000E+00 0. -1.
         -1   -1    0    0    0  501 -0.00000000000E+00 -0.00000000000E+00 -0.45023171193E+02  0.45023171193E+02  0.00000000000E+00 0.  1.
          6    1    1    2  502    0  0.28007755621E+03 -0.41296522097E+02  0.26892663923E+04  0.27095915871E+04  0.17200000000E+03 0. -1.
         -6    1    1    2    0  501 -0.28007755621E+03  0.41296522097E+02  0.75208029034E+03  0.82180143791E+03  0.17200000000E+03 0.  1.
</event>
<event>
 4    1  0.6365705E-002  0.3062964E+03  0.7818608E-02  0.1082135E+00
         -2   -1    0    0    0  501 -0.00000000000E+00  0.00000000000E+00  0.14094910277E+03  0.14094910277E+03  0.00000000000E+00 0.  1.
          2   -1    0    0  502    0  0.00000000000E+00 -0.00000000000E+00 -0.15521619742E+04  0.15521619742E+04  0.00000000000E+00 0. -1.
          6    1    1    2  502    0  0.22040651345E+03  0.12511787263E+03 -0.13453978006E+04  0.13798234507E+04  0.17200000000E+03 0. -1.
         -6    1    1    2    0  501 -0.22040651345E+03 -0.12511787263E+03 -0.65815070817E+02  0.31328762626E+03  0.17200000000E+03 0.  1.
</event>
<event>
 4    1  0.6365705E-002  0.2186467E+03  0.7818608E-02  0.1134896E+00
          2   -1    0    0  502    0  0.00000000000E+00  0.00000000000E+00  0.22521733353E+04  0.22521733353E+04  0.00000000000E+00 0. -1.
         -2   -1    0    0    0  501 -0.00000000000E+00 -0.00000000000E+00 -0.50738141953E+02  0.50738141953E+02  0.00000000000E+00 0.  1.
          6    1    1    2  502    0 -0.13412883805E+03 -0.15226366008E+02  0.19788795090E+04  0.19909220222E+04  0.17200000000E+03 0. -1.
         -6    1    1    2    0  501  0.13412883805E+03  0.15226366008E+02  0.22255568436E+03  0.31198945505E+03  0.17200000000E+03 0.  1.
</event>
<event>
 4    1  0.6365705E-002  0.2955016E+03  0.7818608E-02  0.1087511E+00
         -3   -1    0    0    0  501 -0.00000000000E+00  0.00000000000E+00  0.21358156722E+03  0.21358156722E+03  0.00000000000E+00 0.  1.
          3   -1    0    0  502    0  0.00000000000E+00 -0.00000000000E+00 -0.44229019275E+03  0.44229019275E+03  0.00000000000E+00 0. -1.
          6    1    1    2  502    0 -0.20813301583E+03  0.12007427484E+03 -0.20453624230E+03  0.35938316345E+03  0.17200000000E+03 0.  1.
         -6    1    1    2    0  501  0.20813301583E+03 -0.12007427484E+03 -0.24172383235E+02  0.29648859652E+03  0.17200000000E+03 0.  1.
</event>
<event>
 4    1  0.6365705E-002  0.2665065E+03  0.7818608E-02  0.1103296E+00
          3   -1    0    0  502    0  0.00000000000E+00  0.00000000000E+00  0.18786990250E+04  0.18786990250E+04  0.00000000000E+00 0. -1.
         -3   -1    0    0    0  501 -0.00000000000E+00 -0.00000000000E+00 -0.52187787703E+02  0.52187787703E+02  0.00000000000E+00 0.  1.
          6    1    1    2  502    0 -0.12356619685E+03 -0.16178102743E+03  0.40643771942E+03  0.48602193943E+03  0.17200000000E+03 0.  1.
         -6    1    1    2    0  501  0.12356619685E+03  0.16178102743E+03  0.14200735179E+04  0.14448648732E+04  0.17200000000E+03 0.  1.
</event>
<event>
 4    1  0.6365705E-002  0.1846598E+03  0.7818608E-02  0.1163368E+00
         -1   -1    0    0    0  501 -0.00000000000E+00  0.00000000000E+00  0.22089524579E+03  0.22089524579E+03  0.00000000000E+00 0.  1.
          1   -1    0    0  502    0  0.00000000000E+00 -0.00000000000E+00 -0.11266256584E+04  0.11266256584E+04  0.00000000000E+00 0. -1.
          6    1    1    2  502    0  0.66527888227E+02 -0.94492628316E+01 -0.10787671363E+04  0.10944577574E+04  0.17200000000E+03 0. -1.
         -6    1    1    2    0  501 -0.66527888227E+02  0.94492628316E+01  0.17303672370E+03  0.25306314672E+03  0.17200000000E+03 0.  1.
</event>
<event>
 4    1  0.6365705E-002  0.1804392E+03  0.7818608E-02  0.1167379E+00
          4   -1    0    0  502    0  0.00000000000E+00  0.00000000000E+00  0.46408030105E+03  0.46408030105E+03  0.00000000000E+00 0. -1.
         -4   -1    0    0    0  501 -0.00000000000E+00 -0.00000000000E+00 -0.12555863959E+03  0.12555863959E+03  0.00000000000E+00 0.  1.
          6    1    1    2  502    0 -0.27326412417E+02  0.47197330624E+02  0.36509818270E+03  0.40725299734E+03  0.17200000000E+03 0. -1.
         -6    1    1    2    0  501  0.27326412417E+02 -0.47197330624E+02 -0.26576521237E+02  0.18238594330E+03  0.17200000000E+03 0.  1.
</event>
<event>
 4    1  0.6365705E-002  0.2153334E+03  0.7818608E-02  0.1137411E+00
         -1   -1    0    0    0  501 -0.00000000000E+00  0.00000000000E+00  0.75898638484E+03  0.75898638484E+03  0.00000000000E+00 0.  1.
          1   -1    0    0  502    0  0.00000000000E+00 -0.00000000000E+00 -0.10296091246E+03  0.10296091246E+03  0.00000000000E+00 0. -1.
          6    1    1    2  502    0  0.93143357851E+02  0.90048820228E+02  0.53187194406E+02  0.22180476276E+03  0.17200000000E+03 0. -1.
         -6    1    1    2    0  501 -0.93143357851E+02 -0.90048820228E+02  0.60283827797E+03  0.64014253453E+03  0.17200000000E+03 0.  1.
</event>
<event>
 4    1  0.6365705E-002  0.2364986E+03  0.7818608E-02  0.1122148E+00
          1   -1    0    0  502    0  0.00000000000E+00  0.00000000000E+00  0.84666365396E+02  0.84666365396E+02  0.00000000000E+00 0. -1.
         -1   -1    0    0    0  501 -0.00000000000E+00 -0.00000000000E+00 -0.69601537384E+03  0.69601537384E+03  0.00000000000E+00 0.  1.
          6    1    1    2  502    0 -0.10456607012E+03  0.12415116884E+03 -0.21763858127E+03  0.32140026105E+03  0.17200000000E+03 0. -1.
         -6    1    1    2    0  501  0.10456607012E+03 -0.12415116884E+03 -0.39371042718E+03  0.45928147819E+03  0.17200000000E+03 0.  1.
</event>
<event>
 4    1  0.6365705E-002  0.2077122E+03  0.7818608E-02  0.1143391E+00
         -2   -1    0    0    0  501 -0.00000000000E+00  0.00000000000E+00  0.75806163999E+02  0.75806163999E+02  0.00000000000E+00 0.  1.
          2   -1    0    0  502    0  0.00000000000E+00 -0.00000000000E+00 -0.81767339145E+03  0.81767339145E+03  0.00000000000E+00 0. -1.
          6    1    1    2  502    0 -0.96588443217E+02  0.65046400570E+02 -0.12463805139E+03  0.24223749801E+03  0.17200000000E+03 0.  1.
         -6    1    1    2    0  501  0.96588443217E+02 -0.65046400570E+02 -0.61722917606E+03  0.65124205743E+03  0.17200000000E+03 0. -1.
</event>
<event>
 4    1  0.6365705E-002  0.1788702E+03  0.7818608E-02  0.1168901E+00
          4   -1    0    0  502    0  0.00000000000E+00  0.00000000000E+00  0.35966649108E+03  0.35966649108E+03  0.00000000000E+00 0. -1.
         -4   -1    0    0    0  501 -0.00000000000E+00 -0.00000000000E+00 -0.88984577557E+02  0.88984577557E+02  0.00000000000E+00 0.  1.
          6    1    1    2  502    0  0.23958813066E+01 -0.49038923684E+02  0.13133340062E+03  0.22190767991E+03  0.17200000000E+03 0. -1.
         -6    1    1    2    0  501 -0.23958813066E+01  0.49038923684E+02  0.13934851290E+03  0.22674338873E+03  0.17200000000E+03 0. -1.
</event>
<event>
 4    1  0.6365705E-002  0.2183306E+03  0.7818608E-02  0.1135134E+00
          2   -1    0    0  502    0  0.00000000000E+00  0.00000000000E+00  0.13880001813E+04  0.13880001813E+04  0.00000000000E+00 0. -1.
         -2   -1    0    0    0  501 -0.00000000000E+00 -0.00000000000E+00 -0.69373528890E+02  0.69373528890E+02  0.00000000000E+00 0.  1.
          6    1    1    2  502    0 -0.10899840948E+03 -0.78762883936E+02  0.11771188716E+04  0.11971955074E+04  0.17200000000E+03 0. -1.
         -6    1    1    2    0  501  0.10899840948E+03  0.78762883936E+02  0.14150778081E+03  0.26017820275E+03  0.17200000000E+03 0.  1.
</event>
<event>
 4    1  0.6365705E-002  0.2931965E+03  0.7818608E-02  0.1088692E+00
         -2   -1    0    0    0  501 -0.00000000000E+00  0.00000000000E+00  0.16044555320E+04  0.16044555320E+04  0.00000000000E+00 0.  1.
          2   -1    0    0  502    0  0.00000000000E+00 -0.00000000000E+00 -0.10580853815E+03  0.10580853815E+03  0.00000000000E+00 0. -1.
          6    1    1    2  502    0 -0.21393779606E+03 -0.10300872204E+03  0.14851874060E+03  0.32866699516E+03  0.17200000000E+03 0. -1.
         -6    1    1    2    0  501  0.21393779606E+03  0.10300872204E+03  0.13501282533E+04  0.13815970750E+04  0.17200000000E+03 0.  1.
</event>
<event>
 4    1  0.6365705E-002  0.2544307E+03  0.7818608E-02  0.1110536E+00
          2   -1    0    0  502    0  0.00000000000E+00  0.00000000000E+00  0.30782670152E+03  0.30782670152E+03  0.00000000000E+00 0. -1.
         -2   -1    0    0    0  501 -0.00000000000E+00 -0.00000000000E+00 -0.22167476185E+03  0.22167476185E+03  0.00000000000E+00 0.  1.
          6    1    1    2  502    0  0.13257367177E+03 -0.13257145740E+03 -0.16904700157E+02  0.25499164428E+03  0.17200000000E+03 0.  1.
         -6    1    1    2    0  501 -0.13257367177E+03  0.13257145740E+03  0.10305663984E+03  0.27450981909E+03  0.17200000000E+03 0. -1.
</event>
<event>
 4    1  0.6365705E-002  0.1991241E+03  0.7818608E-02  0.1150480E+00
         -2   -1    0    0    0  501 -0.00000000000E+00  0.00000000000E+00  0.29945337866E+03  0.29945337866E+03  0.00000000000E+00 0.  1.
          2   -1    0    0  502    0  0.00000000000E+00 -0.00000000000E+00 -0.30749218228E+03  0.30749218228E+03  0.00000000000E+00 0. -1.
          6    1    1    2  502    0  0.72987632220E+02 -0.68842006961E+02 -0.23301362737E+03  0.30650573717E+03  0.17200000000E+03 0. -1.
         -6    1    1    2    0  501 -0.72987632220E+02  0.68842006961E+02  0.22497482376E+03  0.30043982376E+03  0.17200000000E+03 0.  1.
</event>
<event>
 4    1  0.6365705E-002  0.3179195E+03  0.7818608E-02  0.1076611E+00
          1   -1    0    0  502    0  0.00000000000E+00  0.00000000000E+00  0.23523717364E+04  0.23523717364E+04  0.00000000000E+00 0. -1.
         -1   -1    0    0    0  501 -0.00000000000E+00 -0.00000000000E+00 -0.55273995552E+02  0.55273995552E+02  0.00000000000E+00 0.  1.
          6    1    1    2  502    0 -0.21291189909E+03  0.16173232515E+03  0.58049478085E+03  0.66185120107E+03  0.17200000000E+03 0. -1.
         -6    1    1    2    0  501  0.21291189909E+03 -0.16173232515E+03  0.17166029600E+04  0.17457945309E+04  0.17200000000E+03 0. -1.
</event>
<event>
 4    1  0.6365705E-002  0.2630946E+03  0.7818608E-02  0.1105298E+00
          2   -1    0    0  502    0  0.00000000000E+00  0.00000000000E+00  0.18073717067E+04  0.18073717067E+04  0.00000000000E+00 0. -1.
         -2   -1    0    0    0  501 -0.00000000000E+00 -0.00000000000E+00 -0.42712263759E+02  0.42712263759E+02  0.00000000000E+00 0.  1.
          6    1    1    2  502    0  0.14282186425E+03  0.13869637011E+03  0.58494885156E+03  0.64139217872E+03  0.17200000000E+03 0. -1.
         -6    1    1    2    0  501 -0.14282186425E+03 -0.13869637011E+03  0.11797105914E+04  0.12086917918E+04  0.17200000000E+03 0. -1.
</event>
<event>
 4    1  0.6365705E-002  0.2499165E+03  0.7818608E-02  0.1113358E+00
          2   -1    0    0  502    0  0.00000000000E+00  0.00000000000E+00  0.27610627949E+03  0.27610627949E+03  0.00000000000E+00 0. -1.
         -2   -1    0    0    0  501 -0.00000000000E+00 -0.00000000000E+00 -0.26069274151E+03  0.26069274151E+03  0.00000000000E+00 0.  1.
          6    1    1    2  502    0 -0.17747211268E+03  0.37120100434E+02  0.10532083762E+03  0.27120238102E+03  0.17200000000E+03 0. -1.
         -6    1    1    2    0  501  0.17747211268E+03 -0.37120100434E+02 -0.89907299648E+02  0.26559663997E+03  0.17200000000E+03 0.  1.
</event>
<event>
 4    1  0.6365705E-002  0.2068959E+03  0.7818608E-02  0.1144048E+00
         -4   -1    0    0    0  501 -0.00000000000E+00  0.00000000000E+00  0.42970352496E+03  0.42970352496E+03  0.00000000000E+00 0.  1.
          4   -1    0    0  502    0  0.00000000000E+00 -0.00000000000E+00 -0.19729604541E+03  0.19729604541E+03  0.00000000000E+00 0. -1.
          6    1    1    2  502    0  0.69094416209E+02 -0.91912310727E+02 -0.10438231913E+03  0.23173601309E+03  0.17200000000E+03 0. -1.
         -6    1    1    2    0  501 -0.69094416209E+02  0.91912310727E+02  0.33678979869E+03  0.39526355728E+03  0.17200000000E+03 0.  1.
</event>
<event>
 4    1  0.6365705E-002  0.1958865E+03  0.7818608E-02  0.1153257E+00
          1   -1    0    0  502    0  0.00000000000E+00  0.00000000000E+00  0.77468204391E+03  0.77468204391E+03  0.00000000000E+00 0. -1.
         -1   -1    0    0    0  501 -0.00000000000E+00 -0.00000000000E+00 -0.50155595689E+02  0.50155595689E+02  0.00000000000E+00 0.  1.
          6    1    1    2  502    0 -0.85343741944E+02  0.38781078160E+02  0.40825089632E+03  0.45281378143E+03  0.17200000000E+03 0. -1.
         -6    1    1    2    0  501  0.85343741944E+02 -0.38781078160E+02  0.31627555191E+03  0.37202385817E+03  0.17200000000E+03 0.  1.
</event>
<event>
 4    1  0.6365705E-002  0.2057113E+03  0.7818608E-02  0.1145008E+00
          1   -1    0    0  502    0  0.00000000000E+00  0.00000000000E+00  0.30120049755E+03  0.30120049755E+03  0.00000000000E+00 0. -1.
         -1   -1    0    0    0  501 -0.00000000000E+00 -0.00000000000E+00 -0.35109234975E+03  0.35109234975E+03  0.00000000000E+00 0.  1.
          6    1    1    2  502    0 -0.10419792733E+03 -0.43311917524E+02  0.22765125718E+03  0.30682605032E+03  0.17200000000E+03 0. -1.
         -6    1    1    2    0  501  0.10419792733E+03  0.43311917524E+02 -0.27754310937E+03  0.34546679698E+03  0.17200000000E+03 0.  1.
</event>
<event>
 4    1  0.6365705E-002  0.2322000E+03  0.7818608E-02  0.1125101E+00
          1   -1    0    0  502    0  0.00000000000E+00  0.00000000000E+00  0.71034174538E+03  0.71034174538E+03  0.00000000000E+00 0. -1.
         -1   -1    0    0    0  501 -0.00000000000E+00 -0.00000000000E+00 -0.81252182951E+02  0.81252182951E+02  0.00000000000E+00 0.  1.
          6    1    1    2  502    0 -0.85256780156E+02  0.13062970591E+03  0.41610224792E+03  0.47650594892E+03  0.17200000000E+03 0.  1.
         -6    1    1    2    0  501  0.85256780156E+02 -0.13062970591E+03  0.21298731451E+03  0.31508797942E+03  0.17200000000E+03 0.  1.
</event>
<event>
 4    1  0.6365705E-002  0.1721207E+03  0.7818608E-02  0.1175654E+00
         -1   -1    0    0    0  501 -0.00000000000E+00  0.00000000000E+00  0.79404726678E+02  0.79404726678E+02  0.00000000000E+00 0.  1.
          1   -1    0    0  502    0  0.00000000000E+00 -0.00000000000E+00 -0.18164861057E+04  0.18164861057E+04  0.00000000000E+00 0. -1.
          6    1    1    2  502    0 -0.50044888314E+01 -0.40619659923E+01 -0.17135455970E+04  0.17221684173E+04  0.17200000000E+03 0. -1.
         -6    1    1    2    0  501  0.50044888314E+01  0.40619659923E+01 -0.23535782036E+02  0.17372241511E+03  0.17200000000E+03 0.  1.
</event>
<event>
 4    1  0.6365705E-002  0.1805109E+03  0.7818608E-02  0.1167310E+00
          2   -1    0    0  502    0  0.00000000000E+00  0.00000000000E+00  0.57747746330E+03  0.57747746330E+03  0.00000000000E+00 0. -1.
         -2   -1    0    0    0  501 -0.00000000000E+00 -0.00000000000E+00 -0.56738889774E+02  0.56738889774E+02  0.00000000000E+00 0.  1.
          6    1    1    2  502    0 -0.46707318095E+02  0.28611173534E+02  0.23678366749E+03  0.29774263720E+03  0.17200000000E+03 0. -1.
         -6    1    1    2    0  501  0.46707318095E+02 -0.28611173534E+02  0.28395490603E+03  0.33647371587E+03  0.17200000000E+03 0. -1.
</event>
<event>
 4    1  0.6365705E-002  0.1788774E+03  0.7818608E-02  0.1168894E+00
          4   -1    0    0  502    0  0.00000000000E+00  0.00000000000E+00  0.19450153807E+02  0.19450153807E+02  0.00000000000E+00 0. -1.
         -4   -1    0    0    0  501 -0.00000000000E+00 -0.00000000000E+00 -0.16773761975E+04  0.16773761975E+04  0.00000000000E+00 0.  1.
          6    1    1    2  502    0  0.49085976804E+02  0.19188686544E+01 -0.71124351037E+03  0.73339242307E+03  0.17200000000E+03 0. -1.
         -6    1    1    2    0  501 -0.49085976804E+02 -0.19188686544E+01 -0.94668253332E+03  0.96343392824E+03  0.17200000000E+03 0.  1.
</event>
<event>
 4    1  0.6365705E-002  0.1838816E+03  0.7818608E-02  0.1164098E+00
          1   -1    0    0  502    0  0.00000000000E+00  0.00000000000E+00  0.79961119514E+03  0.79961119514E+03  0.00000000000E+00 0. -1.
         -1   -1    0    0    0  501 -0.00000000000E+00 -0.00000000000E+00 -0.55158178148E+02  0.55158178148E+02  0.00000000000E+00 0.  1.
          6    1    1    2  502    0  0.24971972299E+02  0.60040307650E+02  0.16576535192E+03  0.24756936370E+03  0.17200000000E+03 0.  1.
         -6    1    1    2    0  501 -0.24971972299E+02 -0.60040307650E+02  0.57868766507E+03  0.60720000959E+03  0.17200000000E+03 0. -1.
</event>
<event>
 4    1  0.6365705E-002  0.2041400E+03  0.7818608E-02  0.1146292E+00
          2   -1    0    0  502    0  0.00000000000E+00  0.00000000000E+00  0.37706059098E+03  0.37706059098E+03  0.00000000000E+00 0. -1.
         -2   -1    0    0    0  501 -0.00000000000E+00 -0.00000000000E+00 -0.31023271251E+03  0.31023271251E+03  0.00000000000E+00 0.  1.
          6    1    1    2  502    0 -0.14711547103E+02  0.10896187252E+03  0.30913508412E+03  0.37045596164E+03  0.17200000000E+03 0. -1.
         -6    1    1    2    0  501  0.14711547103E+02 -0.10896187252E+03 -0.24230720565E+03  0.31683734185E+03  0.17200000000E+03 0.  1.
</event>
<event>
 4    1  0.6365705E-002  0.1968122E+03  0.7818608E-02  0.1152457E+00
          1   -1    0    0  502    0  0.00000000000E+00  0.00000000000E+00  0.82773982132E+03  0.82773982132E+03  0.00000000000E+00 0. -1.
         -1   -1    0    0    0  501 -0.00000000000E+00 -0.00000000000E+00 -0.14072775115E+03  0.14072775115E+03  0.00000000000E+00 0.  1.
          6    1    1    2  502    0 -0.85020416056E+02  0.43847217395E+02  0.73911947863E+03  0.76487427288E+03  0.17200000000E+03 0. -1.
         -6    1    1    2    0  501  0.85020416056E+02 -0.43847217395E+02 -0.52107408472E+02  0.20359329959E+03  0.17200000000E+03 0.  1.
</event>
<event>
 4    1  0.6365705E-002  0.4909342E+03  0.7818608E-02  0.1016173E+00
         -2   -1    0    0    0  501 -0.00000000000E+00  0.00000000000E+00  0.56783496535E+03  0.56783496535E+03  0.00000000000E+00 0.  1.
          2   -1    0    0  502    0  0.00000000000E+00 -0.00000000000E+00 -0.10398944627E+04  0.10398944627E+04  0.00000000000E+00 0. -1.
          6    1    1    2  502    0 -0.44267491257E+03  0.12438367105E+03  0.38239020974E+03  0.62228502180E+03  0.17200000000E+03 0.  1.
         -6    1    1    2    0  501  0.44267491257E+03 -0.12438367105E+03 -0.85444970707E+03  0.98544440622E+03  0.17200000000E+03 0. -1.
</event>
<event>
 4    1  0.6365705E-002  0.2259177E+03  0.7818608E-02  0.1129547E+00
         -2   -1    0    0    0  501 -0.00000000000E+00  0.00000000000E+00  0.17726494872E+02  0.17726494872E+02  0.00000000000E+00 0.  1.
          2   -1    0    0  502    0  0.00000000000E+00 -0.00000000000E+00 -0.28793372960E+04  0.28793372960E+04  0.00000000000E+00 0. -1.
          6    1    1    2  502    0 -0.54856164698E+02 -0.13581460803E+03 -0.14223205354E+04  0.14401508643E+04  0.17200000000E+03 0.  1.
         -6    1    1    2    0  501  0.54856164698E+02  0.13581460803E+03 -0.14392902658E+04  0.14569129266E+04  0.17200000000E+03 0.  1.
</event>
<event>
 4    1  0.6365705E-002  0.2175766E+03  0.7818608E-02  0.1135703E+00
         -2   -1    0    0    0  501 -0.00000000000E+00  0.00000000000E+00  0.20577703051E+02  0.20577703051E+02  0.00000000000E+00 0.  1.
          2   -1    0    0  502    0  0.00000000000E+00 -0.00000000000E+00 -0.26957435921E+04  0.26957435921E+04  0.00000000000E+00 0. -1.
          6    1    1    2  502    0 -0.59486067164E+02  0.11923504847E+03 -0.18576133082E+04  0.18703119504E+04  0.17200000000E+03 0. -1.
         -6    1    1    2    0  501  0.59486067164E+02 -0.11923504847E+03 -0.81755258085E+03  0.84600934477E+03  0.17200000000E+03 0.  1.
</event>
<event>
 4    1  0.6365705E-002  0.2327507E+03  0.7818608E-02  0.1124719E+00
         -2   -1    0    0    0  501 -0.00000000000E+00  0.00000000000E+00  0.89349495475E+02  0.89349495475E+02  0.00000000000E+00 0.  1.
          2   -1    0    0  502    0  0.00000000000E+00 -0.00000000000E+00 -0.67005732643E+03  0.67005732643E+03  0.00000000000E+00 0. -1.
          6    1    1    2  502    0 -0.72972633392E+02  0.13879433439E+03 -0.40747717393E+03  0.46926593713E+03  0.17200000000E+03 0. -1.
         -6    1    1    2    0  501  0.72972633392E+02 -0.13879433439E+03 -0.17323065703E+03  0.29014088477E+03  0.17200000000E+03 0.  1.
</event>
<event>
 4    1  0.6365705E-002  0.2956432E+03  0.7818608E-02  0.1087439E+00
          1   -1    0    0  502    0  0.00000000000E+00  0.00000000000E+00  0.95840714714E+03  0.95840714714E+03  0.00000000000E+00 0. -1.
         -1   -1    0    0    0  501 -0.00000000000E+00 -0.00000000000E+00 -0.20325831035E+03  0.20325831035E+03  0.00000000000E+00 0.  1.
          6    1    1    2  502    0  0.22371901010E+03 -0.88151445845E+02  0.80884786335E+03  0.86118507821E+03  0.17200000000E+03 0. -1.
         -6    1    1    2    0  501 -0.22371901010E+03  0.88151445845E+02 -0.53699026562E+02  0.30048037929E+03  0.17200000000E+03 0.  1.
</event>
<event>
 4    1  0.6365705E-002  0.6791647E+03  0.7818608E-02  0.9753542E-01
         -2   -1    0    0    0  501 -0.00000000000E+00  0.00000000000E+00  0.50056584153E+03  0.50056584153E+03  0.00000000000E+00 0.  1.
          2   -1    0    0  502    0  0.00000000000E+00 -0.00000000000E+00 -0.12095327285E+04  0.12095327285E+04  0.00000000000E+00 0. -1.
          6    1    1    2  502    0 -0.45273405315E+03  0.47614341762E+03 -0.77174984350E+03  0.10280381792E+04  0.17200000000E+03 0. -1.
         -6    1    1    2    0  501  0.45273405315E+03 -0.47614341762E+03  0.62782956558E+02  0.68206039077E+03  0.17200000000E+03 0.  1.
</event>
<event>
 4    1  0.6365705E-002  0.2154450E+03  0.7818608E-02  0.1137325E+00
          2   -1    0    0  502    0  0.00000000000E+00  0.00000000000E+00  0.14290405991E+04  0.14290405991E+04  0.00000000000E+00 0. -1.
         -2   -1    0    0    0  501 -0.00000000000E+00 -0.00000000000E+00 -0.32591929074E+02  0.32591929074E+02  0.00000000000E+00 0.  1.
          6    1    1    2  502    0  0.46058822596E+02 -0.12128943509E+03  0.74087715053E+03  0.77156690856E+03  0.17200000000E+03 0.  1.
         -6    1    1    2    0  501 -0.46058822596E+02  0.12128943509E+03  0.65557151950E+03  0.69006561962E+03  0.17200000000E+03 0.  1.
</event>
<event>
 4    1  0.6365705E-002  0.1745278E+03  0.7818608E-02  0.1173207E+00
          1   -1    0    0  502    0  0.00000000000E+00  0.00000000000E+00  0.88360470281E+03  0.88360470281E+03  0.00000000000E+00 0. -1.
         -1   -1    0    0    0  501 -0.00000000000E+00 -0.00000000000E+00 -0.62052381251E+02  0.62052381251E+02  0.00000000000E+00 0.  1.
          6    1    1    2  502    0  0.27373245525E+02 -0.11254500837E+02  0.72600183910E+03  0.74668509342E+03  0.17200000000E+03 0. -1.
         -6    1    1    2    0  501 -0.27373245525E+02  0.11254500837E+02  0.95550482452E+02  0.19897199063E+03  0.17200000000E+03 0.  1.
</event>
<event>
 4    1  0.6365705E-002  0.2073399E+03  0.7818608E-02  0.1143690E+00
         -3   -1    0    0    0  501 -0.00000000000E+00  0.00000000000E+00  0.11936769846E+04  0.11936769846E+04  0.00000000000E+00 0.  1.
          3   -1    0    0  502    0  0.00000000000E+00 -0.00000000000E+00 -0.36040003143E+02  0.36040003143E+02  0.00000000000E+00 0. -1.
          6    1    1    2  502    0 -0.34685994986E+00 -0.11578311318E+03  0.59512889353E+03  0.63021286048E+03  0.17200000000E+03 0. -1.
         -6    1    1    2    0  501  0.34685994986E+00  0.11578311318E+03  0.56250808790E+03  0.59950412723E+03  0.17200000000E+03 0.  1.
</event>
<event>
 4    1  0.6365705E-002  0.1908408E+03  0.7818608E-02  0.1157705E+00
         -1   -1    0    0    0  501 -0.00000000000E+00  0.00000000000E+00  0.46165374134E+02  0.46165374134E+02  0.00000000000E+00 0.  1.
          1   -1    0    0  502    0  0.00000000000E+00 -0.00000000000E+00 -0.97856824395E+03  0.97856824395E+03  0.00000000000E+00 0. -1.
          6    1    1    2  502    0  0.27363936543E-01 -0.82681476277E+02 -0.69176747919E+03  0.71760885762E+03  0.17200000000E+03 0. -1.
         -6    1    1    2    0  501 -0.27363936543E-01  0.82681476277E+02 -0.24063539062E+03  0.30712476046E+03  0.17200000000E+03 0.  1.
</event>
<event>
 4    1  0.6365705E-002  0.2325922E+03  0.7818608E-02  0.1124828E+00
          2   -1    0    0  502    0  0.00000000000E+00  0.00000000000E+00  0.73105734187E+03  0.73105734187E+03  0.00000000000E+00 0. -1.
         -2   -1    0    0    0  501 -0.00000000000E+00 -0.00000000000E+00 -0.87288076944E+02  0.87288076944E+02  0.00000000000E+00 0.  1.
          6    1    1    2  502    0  0.10776689730E+03 -0.11358451646E+03  0.48152402739E+03  0.53475651982E+03  0.17200000000E+03 0. -1.
         -6    1    1    2    0  501 -0.10776689730E+03  0.11358451646E+03  0.16224523754E+03  0.28358889900E+03  0.17200000000E+03 0. -1.
</event>
<event>
 4    1  0.6365705E-002  0.1735129E+03  0.7818608E-02  0.1174233E+00
         -2   -1    0    0    0  501 -0.00000000000E+00  0.00000000000E+00  0.20751712424E+02  0.20751712424E+02  0.00000000000E+00 0.  1.
          2   -1    0    0  502    0  0.00000000000E+00 -0.00000000000E+00 -0.14508663013E+04  0.14508663013E+04  0.00000000000E+00 0. -1.
          6    1    1    2  502    0  0.18480214923E+02 -0.13461144005E+02 -0.71977845969E+03  0.74039702308E+03  0.17200000000E+03 0.  1.
         -6    1    1    2    0  501 -0.18480214923E+02  0.13461144005E+02 -0.71033612921E+03  0.73122099067E+03  0.17200000000E+03 0.  1.
</event>
<event>
 4    1  0.6365705E-002  0.5044233E+03  0.7818608E-02  0.1012631E+00
          2   -1    0    0  502    0  0.00000000000E+00  0.00000000000E+00  0.13972933365E+04  0.13972933365E+04  0.00000000000E+00 0. -1.
         -2   -1    0    0    0  501 -0.00000000000E+00 -0.00000000000E+00 -0.18220008741E+03  0.18220008741E+03  0.00000000000E+00 0.  1.
          6    1    1    2  502    0  0.41486343591E+03  0.22966764428E+03  0.62633363531E+03  0.80419942801E+03  0.17200000000E+03 0. -1.
         -6    1    1    2    0  501 -0.41486343591E+03 -0.22966764428E+03  0.58875961382E+03  0.77529399595E+03  0.17200000000E+03 0.  1.
</event>
<event>
 4    1  0.6365705E-002  0.2558202E+03  0.7818608E-02  0.1109681E+00
          2   -1    0    0  502    0  0.00000000000E+00  0.00000000000E+00  0.17570773718E+03  0.17570773718E+03  0.00000000000E+00 0. -1.
         -2   -1    0    0    0  501 -0.00000000000E+00 -0.00000000000E+00 -0.62993419728E+03  0.62993419728E+03  0.00000000000E+00 0.  1.
          6    1    1    2  502    0  0.14157604810E+03 -0.12576240942E+03  0.30419253970E+02  0.25762238263E+03  0.17200000000E+03 0. -1.
         -6    1    1    2    0  501 -0.14157604810E+03  0.12576240942E+03 -0.48464571407E+03  0.54801955183E+03  0.17200000000E+03 0.  1.
</event>
<event>
 4    1  0.6365705E-002  0.2245834E+03  0.7818608E-02  0.1130511E+00
          2   -1    0    0  502    0  0.00000000000E+00  0.00000000000E+00  0.55344583322E+03  0.55344583322E+03  0.00000000000E+00 0. -1.
         -2   -1    0    0    0  501 -0.00000000000E+00 -0.00000000000E+00 -0.27354154927E+03  0.27354154927E+03  0.00000000000E+00 0.  1.
          6    1    1    2  502    0 -0.13610116278E+03  0.48272024457E+02  0.47761141333E+03  0.52777871973E+03  0.17200000000E+03 0. -1.
         -6    1    1    2    0  501  0.13610116278E+03 -0.48272024457E+02 -0.19770712939E+03  0.29920866275E+03  0.17200000000E+03 0.  1.
</event>
<event>
 4    1  0.6365705E-002  0.1934022E+03  0.7818608E-02  0.1155428E+00
          2   -1    0    0  502    0  0.00000000000E+00  0.00000000000E+00  0.61566562388E+03  0.61566562388E+03  0.00000000000E+00 0. -1.
         -2   -1    0    0    0  501 -0.00000000000E+00 -0.00000000000E+00 -0.74685629549E+02  0.74685629549E+02  0.00000000000E+00 0.  1.
          6    1    1    2  502    0 -0.87701866481E+02 -0.11349160564E+02  0.41956872699E+03  0.46199820075E+03  0.17200000000E+03 0. -1.
         -6    1    1    2    0  501  0.87701866481E+02  0.11349160564E+02  0.12141126734E+03  0.22835305268E+03  0.17200000000E+03 0.  1.
</event>
<event>
 4    1  0.6365705E-002  0.1851667E+03  0.7818608E-02  0.1162894E+00
         -2   -1    0    0    0  501 -0.00000000000E+00  0.00000000000E+00  0.10783336288E+04  0.10783336288E+04  0.00000000000E+00 0.  1.
          2   -1    0    0  502    0  0.00000000000E+00 -0.00000000000E+00 -0.35113094875E+02  0.35113094875E+02  0.00000000000E+00 0. -1.
          6    1    1    2  502    0  0.68427027896E+02  0.45225926487E+01  0.35049732011E+03  0.39640267834E+03  0.17200000000E+03 0. -1.
         -6    1    1    2    0  501 -0.68427027896E+02 -0.45225926487E+01  0.69272321380E+03  0.71704404532E+03  0.17200000000E+03 0.  1.
</event>
<event>
 4    1  0.6365705E-002  0.3895654E+03  0.7818608E-02  0.1047454E+00
         -1   -1    0    0    0  501 -0.00000000000E+00  0.00000000000E+00  0.38973276977E+03  0.38973276977E+03  0.00000000000E+00 0.  1.
          1   -1    0    0  502    0  0.00000000000E+00 -0.00000000000E+00 -0.44724481485E+03  0.44724481485E+03  0.00000000000E+00 0. -1.
          6    1    1    2  502    0  0.29533490052E+03 -0.18696111988E+03 -0.17926100365E+03  0.42883058571E+03  0.17200000000E+03 0. -1.
         -6    1    1    2    0  501 -0.29533490052E+03  0.18696111988E+03  0.12174895857E+03  0.40814699891E+03  0.17200000000E+03 0.  1.
</event>
<event>
 4    1  0.6365705E-002  0.3214342E+03  0.7818608E-02  0.1074991E+00
         -1   -1    0    0    0  501 -0.00000000000E+00  0.00000000000E+00  0.56441401924E+03  0.56441401924E+03  0.00000000000E+00 0.  1.
          1   -1    0    0  502    0  0.00000000000E+00 -0.00000000000E+00 -0.82290995694E+03  0.82290995694E+03  0.00000000000E+00 0. -1.
          6    1    1    2  502    0  0.72358028279E+02  0.26172560524E+03 -0.74091039717E+03  0.80763122360E+03  0.17200000000E+03 0. -1.
         -6    1    1    2    0  501 -0.72358028279E+02 -0.26172560524E+03  0.48241445946E+03  0.57969275258E+03  0.17200000000E+03 0.  1.
</event>
<event>
 4    1  0.6365705E-002  0.3803312E+03  0.7818608E-02  0.1050811E+00
          1   -1    0    0  502    0  0.00000000000E+00  0.00000000000E+00  0.51340448122E+03  0.51340448122E+03  0.00000000000E+00 0. -1.
         -1   -1    0    0    0  501 -0.00000000000E+00 -0.00000000000E+00 -0.41939884966E+03  0.41939884966E+03  0.00000000000E+00 0.  1.
          6    1    1    2  502    0  0.32194278085E+03  0.10686736168E+03  0.31420040731E+03  0.49332918329E+03  0.17200000000E+03 0. -1.
         -6    1    1    2    0  501 -0.32194278085E+03 -0.10686736168E+03 -0.22019477576E+03  0.43947414759E+03  0.17200000000E+03 0.  1.
</event>
<event>
 4    1  0.6365705E-002  0.1992044E+03  0.7818608E-02  0.1150412E+00
          1   -1    0    0  502    0  0.00000000000E+00  0.00000000000E+00  0.28604500330E+03  0.28604500330E+03  0.00000000000E+00 0. -1.
         -1   -1    0    0    0  501 -0.00000000000E+00 -0.00000000000E+00 -0.13919215852E+03  0.13919215852E+03  0.00000000000E+00 0.  1.
          6    1    1    2  502    0 -0.69128478835E+02 -0.72935880967E+02  0.61145578660E+02  0.20837747265E+03  0.17200000000E+03 0.  1.
         -6    1    1    2    0  501  0.69128478835E+02  0.72935880967E+02  0.85707266117E+02  0.21685968916E+03  0.17200000000E+03 0.  1.
</event>
<event>
 4    1  0.6365705E-002  0.1929374E+03  0.7818608E-02  0.1155838E+00
         -3   -1    0    0    0  501 -0.00000000000E+00  0.00000000000E+00  0.14588771597E+03  0.14588771597E+03  0.00000000000E+00 0.  1.
          3   -1    0    0  502    0  0.00000000000E+00 -0.00000000000E+00 -0.26103409349E+03  0.26103409349E+03  0.00000000000E+00 0. -1.
          6    1    1    2  502    0  0.21637986764E+02 -0.84691393429E+02 -0.88092245661E+02  0.21209686074E+03  0.17200000000E+03 0. -1.
         -6    1    1    2    0  501 -0.21637986764E+02  0.84691393429E+02 -0.27054131856E+02  0.19482494872E+03  0.17200000000E+03 0.  1.
</event>
<event>
 4    1  0.6365705E-002  0.3013387E+03  0.7818608E-02  0.1084573E+00
          2   -1    0    0  502    0  0.00000000000E+00  0.00000000000E+00  0.94400168945E+03  0.94400168945E+03  0.00000000000E+00 0. -1.
         -2   -1    0    0    0  501 -0.00000000000E+00 -0.00000000000E+00 -0.15018313520E+03  0.15018313520E+03  0.00000000000E+00 0.  1.
          6    1    1    2  502    0  0.13255071164E+03 -0.20892902089E+03  0.72493883008E+03  0.78507409477E+03  0.17200000000E+03 0. -1.
         -6    1    1    2    0  501 -0.13255071164E+03  0.20892902089E+03  0.68879724171E+02  0.30911072988E+03  0.17200000000E+03 0.  1.
</event>
<event>
 4    1  0.6365705E-002  0.2085592E+03  0.7818608E-02  0.1142712E+00
         -1   -1    0    0    0  501 -0.00000000000E+00  0.00000000000E+00  0.16229859112E+02  0.16229859112E+02  0.00000000000E+00 0.  1.
          1   -1    0    0  502    0  0.00000000000E+00 -0.00000000000E+00 -0.27733704901E+04  0.27733704901E+04  0.00000000000E+00 0. -1.
          6    1    1    2  502    0  0.74173118832E+02 -0.91713060713E+02 -0.11227224698E+04  0.11419293679E+04  0.17200000000E+03 0. -1.
         -6    1    1    2    0  501 -0.74173118832E+02  0.91713060713E+02 -0.16344181611E+04  0.16476709813E+04  0.17200000000E+03 0.  1.
</event>
<event>
 4    1  0.6365705E-002  0.1730052E+03  0.7818608E-02  0.1174750E+00
         -2   -1    0    0    0  501 -0.00000000000E+00  0.00000000000E+00  0.23639095694E+02  0.23639095694E+02  0.00000000000E+00 0.  1.
          2   -1    0    0  502    0  0.00000000000E+00 -0.00000000000E+00 -0.13564965535E+04  0.13564965535E+04  0.00000000000E+00 0. -1.
          6    1    1    2  502    0  0.15719740228E+02 -0.99841242962E+01 -0.84451185686E+03  0.86205050278E+03  0.17200000000E+03 0. -1.
         -6    1    1    2    0  501 -0.15719740228E+02  0.99841242962E+01 -0.48834560099E+03  0.51808514645E+03  0.17200000000E+03 0.  1.
</event>
<event>
 4    1  0.6365705E-002  0.1733164E+03  0.7818608E-02  0.1174433E+00
          1   -1    0    0  502    0  0.00000000000E+00  0.00000000000E+00  0.24283834762E+04  0.24283834762E+04  0.00000000000E+00 0. -1.
         -1   -1    0    0    0  501 -0.00000000000E+00 -0.00000000000E+00 -0.13254349095E+03  0.13254349095E+03  0.00000000000E+00 0.  1.
          6    1    1    2  502    0 -0.12678316472E+02  0.17141913223E+02  0.23671698679E+04  0.23735062183E+04  0.17200000000E+03 0. -1.
         -6    1    1    2    0  501  0.12678316472E+02 -0.17141913223E+02 -0.71329882714E+02  0.18742074876E+03  0.17200000000E+03 0.  1.
</event>
<event>
 4    1  0.6365705E-002  0.2872582E+03  0.7818608E-02  0.1091789E+00
         -2   -1    0    0    0  501 -0.00000000000E+00  0.00000000000E+00  0.54731461281E+02  0.54731461281E+02  0.00000000000E+00 0.  1.
          2   -1    0    0  502    0  0.00000000000E+00 -0.00000000000E+00 -0.34107428492E+04  0.34107428492E+04  0.00000000000E+00 0. -1.
          6    1    1    2  502    0  0.48798933088E+02 -0.22483758784E+03 -0.29723067098E+04  0.29861554638E+04  0.17200000000E+03 0. -1.
         -6    1    1    2    0  501 -0.48798933088E+02  0.22483758784E+03 -0.38370467807E+03  0.47931884664E+03  0.17200000000E+03 0.  1.
</event>
<event>
 4    1  0.6365705E-002  0.5105722E+03  0.7818608E-02  0.1011056E+00
         -2   -1    0    0    0  501 -0.00000000000E+00  0.00000000000E+00  0.12025256490E+03  0.12025256490E+03  0.00000000000E+00 0.  1.
          2   -1    0    0  502    0  0.00000000000E+00 -0.00000000000E+00 -0.24702547539E+04  0.24702547539E+04  0.00000000000E+00 0. -1.
          6    1    1    2  502    0 -0.27139415733E+03 -0.39679362303E+03 -0.16282235618E+04  0.17063985277E+04  0.17200000000E+03 0. -1.
         -6    1    1    2    0  501  0.27139415733E+03  0.39679362303E+03 -0.72177862715E+03  0.88410879111E+03  0.17200000000E+03 0.  1.
</event>
<event>
 4    1  0.6365705E-002  0.2060856E+03  0.7818608E-02  0.1144704E+00
          1   -1    0    0  502    0  0.00000000000E+00  0.00000000000E+00  0.14999937213E+04  0.14999937213E+04  0.00000000000E+00 0. -1.
         -1   -1    0    0    0  501 -0.00000000000E+00 -0.00000000000E+00 -0.64434388600E+02  0.64434388600E+02  0.00000000000E+00 0.  1.
          6    1    1    2  502    0  0.11120163279E+03  0.22835678268E+02  0.13034337369E+04  0.13196252415E+04  0.17200000000E+03 0. -1.
         -6    1    1    2    0  501 -0.11120163279E+03 -0.22835678268E+02  0.13212559576E+03  0.24480286843E+03  0.17200000000E+03 0.  1.
</event>
<event>
 4    1  0.6365705E-002  0.2652021E+03  0.7818608E-02  0.1104057E+00
         -2   -1    0    0    0  501 -0.00000000000E+00  0.00000000000E+00  0.32842342793E+02  0.32842342793E+02  0.00000000000E+00 0.  1.
          2   -1    0    0  502    0  0.00000000000E+00 -0.00000000000E+00 -0.22429134752E+04  0.22429134752E+04  0.00000000000E+00 0. -1.
          6    1    1    2  502    0  0.17886492012E+02 -0.20106777972E+03 -0.13469810822E+04  0.13728401999E+04  0.17200000000E+03 0. -1.
         -6    1    1    2    0  501 -0.17886492012E+02  0.20106777972E+03 -0.86309005020E+03  0.90291561810E+03  0.17200000000E+03 0.  1.
</event>
<event>
 4    1  0.6365705E-002  0.1933215E+03  0.7818608E-02  0.1155499E+00
          1   -1    0    0  502    0  0.00000000000E+00  0.00000000000E+00  0.30485784553E+03  0.30485784553E+03  0.00000000000E+00 0. -1.
         -1   -1    0    0    0  501 -0.00000000000E+00 -0.00000000000E+00 -0.12327152161E+03  0.12327152161E+03  0.00000000000E+00 0.  1.
          6    1    1    2  502    0  0.72081154778E+02  0.50926493420E+02  0.74902411643E+02  0.20732479803E+03  0.17200000000E+03 0.  1.
         -6    1    1    2    0  501 -0.72081154778E+02 -0.50926493420E+02  0.10668391227E+03  0.22080456912E+03  0.17200000000E+03 0.  1.
</event>
<event>
 4    1  0.6365705E-002  0.2727810E+03  0.7818608E-02  0.1099698E+00
          4   -1    0    0  502    0  0.00000000000E+00  0.00000000000E+00  0.63432713118E+03  0.63432713118E+03  0.00000000000E+00 0. -1.
         -4   -1    0    0    0  501 -0.00000000000E+00 -0.00000000000E+00 -0.18295128132E+03  0.18295128132E+03  0.00000000000E+00 0.  1.
          6    1    1    2  502    0 -0.16546707542E+02  0.21107266633E+03  0.47046955908E+03  0.54383000104E+03  0.17200000000E+03 0. -1.
         -6    1    1    2    0  501  0.16546707542E+02 -0.21107266633E+03 -0.19093709225E+02  0.27344841147E+03  0.17200000000E+03 0. -1.
</event>
<event>
 4    1  0.6365705E-002  0.3193662E+03  0.7818608E-02  0.1075941E+00
         -2   -1    0    0    0  501 -0.00000000000E+00  0.00000000000E+00  0.12238662955E+03  0.12238662955E+03  0.00000000000E+00 0.  1.
          2   -1    0    0  502    0  0.00000000000E+00 -0.00000000000E+00 -0.13230838589E+04  0.13230838589E+04  0.00000000000E+00 0. -1.
          6    1    1    2  502    0  0.21400987167E+03 -0.16312737750E+03 -0.10400436854E+04  0.10879731770E+04  0.17200000000E+03 0. -1.
         -6    1    1    2    0  501 -0.21400987167E+03  0.16312737750E+03 -0.16065354395E+03  0.35749731139E+03  0.17200000000E+03 0.  1.
</event>
<event>
 4    1  0.6365705E-002  0.2009604E+03  0.7818608E-02  0.1148931E+00
         -1   -1    0    0    0  501 -0.00000000000E+00  0.00000000000E+00  0.37684275274E+02  0.37684275274E+02  0.00000000000E+00 0.  1.
          1   -1    0    0  502    0  0.00000000000E+00 -0.00000000000E+00 -0.13769265645E+04  0.13769265645E+04  0.00000000000E+00 0. -1.
          6    1    1    2  502    0  0.24269957375E+02 -0.10105477238E+03 -0.10026518526E+04  0.10225927026E+04  0.17200000000E+03 0. -1.
         -6    1    1    2    0  501 -0.24269957375E+02  0.10105477238E+03 -0.33659043655E+03  0.39201813712E+03  0.17200000000E+03 0.  1.
</event>
<event>
 4    1  0.6365705E-002  0.4687197E+03  0.7818608E-02  0.1022282E+00
          2   -1    0    0  502    0  0.00000000000E+00  0.00000000000E+00  0.24934180148E+04  0.24934180148E+04  0.00000000000E+00 0. -1.
         -2   -1    0    0    0  501 -0.00000000000E+00 -0.00000000000E+00 -0.88112440328E+02  0.88112440328E+02  0.00000000000E+00 0.  1.
          6    1    1    2  502    0 -0.59137507961E+02 -0.43199185037E+03  0.12073764882E+04  0.12951664711E+04  0.17200000000E+03 0. -1.
         -6    1    1    2    0  501  0.59137507961E+02  0.43199185037E+03  0.11979290862E+04  0.12863639840E+04  0.17200000000E+03 0.  1.
</event>
<event>
 4    1  0.6365705E-002  0.1900896E+03  0.7818608E-02  0.1158381E+00
         -2   -1    0    0    0  501 -0.00000000000E+00  0.00000000000E+00  0.10025187754E+03  0.10025187754E+03  0.00000000000E+00 0.  1.
          2   -1    0    0  502    0  0.00000000000E+00 -0.00000000000E+00 -0.36622071207E+03  0.36622071207E+03  0.00000000000E+00 0. -1.
          6    1    1    2  502    0 -0.77445089937E+01  0.80561072811E+02 -0.16230590756E+03  0.24995453887E+03  0.17200000000E+03 0. -1.
         -6    1    1    2    0  501  0.77445089937E+01 -0.80561072811E+02 -0.10366292697E+03  0.21651805075E+03  0.17200000000E+03 0.  1.
</event>
<event>
 4    1  0.6365705E-002  0.1944968E+03  0.7818608E-02  0.1154467E+00
          2   -1    0    0  502    0  0.00000000000E+00  0.00000000000E+00  0.10928710871E+04  0.10928710871E+04  0.00000000000E+00 0. -1.
         -2   -1    0    0    0  501 -0.00000000000E+00 -0.00000000000E+00 -0.40559384230E+02  0.40559384230E+02  0.00000000000E+00 0.  1.
          6    1    1    2  502    0 -0.20648102126E+02  0.88423137309E+02  0.74312465472E+03  0.76815574448E+03  0.17200000000E+03 0. -1.
         -6    1    1    2    0  501  0.20648102126E+02 -0.88423137309E+02  0.30918704819E+03  0.36527472689E+03  0.17200000000E+03 0.  1.
</event>
<event>
 4    1  0.6365705E-002  0.2826113E+03  0.7818608E-02  0.1094271E+00
          2   -1    0    0  502    0  0.00000000000E+00  0.00000000000E+00  0.46540191433E+03  0.46540191433E+03  0.00000000000E+00 0. -1.
         -2   -1    0    0    0  501 -0.00000000000E+00 -0.00000000000E+00 -0.17902854034E+03  0.17902854034E+03  0.00000000000E+00 0.  1.
          6    1    1    2  502    0 -0.48466736010E+02 -0.21894318650E+03  0.77610149700E+02  0.29307418643E+03  0.17200000000E+03 0. -1.
         -6    1    1    2    0  501  0.48466736010E+02  0.21894318650E+03  0.20876322430E+03  0.35135626824E+03  0.17200000000E+03 0. -1.
</event>
<event>
 4    1  0.6365705E-002  0.2107126E+03  0.7818608E-02  0.1141003E+00
         -2   -1    0    0    0  501 -0.00000000000E+00  0.00000000000E+00  0.15235220811E+03  0.15235220811E+03  0.00000000000E+00 0.  1.
          2   -1    0    0  502    0  0.00000000000E+00 -0.00000000000E+00 -0.14430737053E+04  0.14430737053E+04  0.00000000000E+00 0. -1.
          6    1    1    2  502    0  0.40488611191E+02  0.11478886148E+03 -0.13579868055E+04  0.13742372336E+04  0.17200000000E+03 0. -1.
         -6    1    1    2    0  501 -0.40488611191E+02 -0.11478886148E+03  0.67265308326E+02  0.22118867977E+03  0.17200000000E+03 0.  1.
</event>
<event>
 4    1  0.6365705E-002  0.1818266E+03  0.7818608E-02  0.1166047E+00
          1   -1    0    0  502    0  0.00000000000E+00  0.00000000000E+00  0.13189390798E+04  0.13189390798E+04  0.00000000000E+00 0. -1.
         -1   -1    0    0    0  501 -0.00000000000E+00 -0.00000000000E+00 -0.38073370936E+02  0.38073370936E+02  0.00000000000E+00 0.  1.
          6    1    1    2  502    0 -0.11081419013E+02 -0.57914705652E+02  0.10370149231E+04  0.10528346792E+04  0.17200000000E+03 0. -1.
         -6    1    1    2    0  501  0.11081419013E+02  0.57914705652E+02  0.24385078572E+03  0.30417777150E+03  0.17200000000E+03 0.  1.
</event>
<event>
 4    1  0.6365705E-002  0.3781534E+03  0.7818608E-02  0.1051618E+00
         -2   -1    0    0    0  501 -0.00000000000E+00  0.00000000000E+00  0.31026671785E+03  0.31026671785E+03  0.00000000000E+00 0.  1.
          2   -1    0    0  502    0  0.00000000000E+00 -0.00000000000E+00 -0.46229808534E+03  0.46229808534E+03  0.00000000000E+00 0. -1.
          6    1    1    2  502    0  0.33408439478E+03 -0.42469071013E+02 -0.97305525934E+02  0.39047198389E+03  0.17200000000E+03 0. -1.
         -6    1    1    2    0  501 -0.33408439478E+03  0.42469071013E+02 -0.54725841551E+02  0.38209281930E+03  0.17200000000E+03 0.  1.
</event>
<event>
 4    1  0.6365705E-002  0.2175577E+03  0.7818608E-02  0.1135717E+00
         -1   -1    0    0    0  501 -0.00000000000E+00  0.00000000000E+00  0.75658139148E+02  0.75658139148E+02  0.00000000000E+00 0.  1.
          1   -1    0    0  502    0  0.00000000000E+00 -0.00000000000E+00 -0.14485891707E+04  0.14485891707E+04  0.00000000000E+00 0. -1.
          6    1    1    2  502    0 -0.11416665201E+03 -0.68653794085E+02 -0.12609140876E+04  0.12795451162E+04  0.17200000000E+03 0. -1.
         -6    1    1    2    0  501  0.11416665201E+03  0.68653794085E+02 -0.11201694391E+03  0.24470219369E+03  0.17200000000E+03 0.  1.
</event>
<event>
 4    1  0.6365705E-002  0.2095418E+03  0.7818608E-02  0.1141929E+00
          1   -1    0    0  502    0  0.00000000000E+00  0.00000000000E+00  0.41849233936E+03  0.41849233936E+03  0.00000000000E+00 0. -1.
         -1   -1    0    0    0  501 -0.00000000000E+00 -0.00000000000E+00 -0.11666704613E+03  0.11666704613E+03  0.00000000000E+00 0.  1.
          6    1    1    2  502    0  0.81660179051E+02 -0.87495012980E+02  0.66001746621E+02  0.21969067503E+03  0.17200000000E+03 0. -1.
         -6    1    1    2    0  501 -0.81660179051E+02  0.87495012980E+02  0.23582354662E+03  0.31546871046E+03  0.17200000000E+03 0. -1.
</event>
<event>
 4    1  0.6365705E-002  0.1890296E+03  0.7818608E-02  0.1159339E+00
         -4   -1    0    0    0  501 -0.00000000000E+00  0.00000000000E+00  0.41314580732E+02  0.41314580732E+02  0.00000000000E+00 0.  1.
          4   -1    0    0  502    0  0.00000000000E+00 -0.00000000000E+00 -0.86490096680E+03  0.86490096680E+03  0.00000000000E+00 0. -1.
          6    1    1    2  502    0 -0.59863614105E+02 -0.50641384752E+02 -0.41396200674E+03  0.45507883401E+03  0.17200000000E+03 0. -1.
         -6    1    1    2    0  501  0.59863614105E+02  0.50641384752E+02 -0.40962437932E+03  0.45113671351E+03  0.17200000000E+03 0. -1.
</event>
<event>
 4    1  0.6365705E-002  0.1919101E+03  0.7818608E-02  0.1156750E+00
          2   -1    0    0  502    0  0.00000000000E+00  0.00000000000E+00  0.25375448100E+04  0.25375448100E+04  0.00000000000E+00 0. -1.
         -2   -1    0    0    0  501 -0.00000000000E+00 -0.00000000000E+00 -0.14969066214E+02  0.14969066214E+02  0.00000000000E+00 0.  1.
          6    1    1    2  502    0 -0.17555979458E+02  0.83290291976E+02  0.10387208452E+04  0.10563003736E+04  0.17200000000E+03 0. -1.
         -6    1    1    2    0  501  0.17555979458E+02 -0.83290291976E+02  0.14838548986E+04  0.14962135026E+04  0.17200000000E+03 0. -1.
</event>
<event>
 4    1  0.6365705E-002  0.4612867E+03  0.7818608E-02  0.1024409E+00
          2   -1    0    0  502    0  0.00000000000E+00  0.00000000000E+00  0.34112377768E+04  0.34112377768E+04  0.00000000000E+00 0. -1.
         -2   -1    0    0    0  501 -0.00000000000E+00 -0.00000000000E+00 -0.64431253357E+02  0.64431253357E+02  0.00000000000E+00 0.  1.
          6    1    1    2  502    0  0.42800474160E+03  0.36605593437E+01  0.19836477519E+04  0.20365765053E+04  0.17200000000E+03 0. -1.
         -6    1    1    2    0  501 -0.42800474160E+03 -0.36605593437E+01  0.13631587716E+04  0.14390925249E+04  0.17200000000E+03 0.  1.
</event>
<event>
 4    1  0.6365705E-002  0.2158852E+03  0.7818608E-02  0.1136988E+00
          2   -1    0    0  502    0  0.00000000000E+00  0.00000000000E+00  0.24303032368E+03  0.24303032368E+03  0.00000000000E+00 0. -1.
         -2   -1    0    0    0  501 -0.00000000000E+00 -0.00000000000E+00 -0.20818141093E+03  0.20818141093E+03  0.00000000000E+00 0.  1.
          6    1    1    2  502    0 -0.12917408170E+03  0.18343773803E+02 -0.45915022482E+02  0.22071390239E+03  0.17200000000E+03 0. -1.
         -6    1    1    2    0  501  0.12917408170E+03 -0.18343773803E+02  0.80763935234E+02  0.23049783221E+03  0.17200000000E+03 0.  1.
</event>
<event>
 4    1  0.6365705E-002  0.2948046E+03  0.7818608E-02  0.1087867E+00
          3   -1    0    0  502    0  0.00000000000E+00  0.00000000000E+00  0.19915045255E+03  0.19915045255E+03  0.00000000000E+00 0. -1.
         -3   -1    0    0    0  501 -0.00000000000E+00 -0.00000000000E+00 -0.46358398187E+03  0.46358398187E+03  0.00000000000E+00 0.  1.
          6    1    1    2  502    0 -0.23708744148E+03 -0.33396332972E+02 -0.51978540304E+02  0.29935186422E+03  0.17200000000E+03 0. -1.
         -6    1    1    2    0  501  0.23708744148E+03  0.33396332972E+02 -0.21245498902E+03  0.36338257019E+03  0.17200000000E+03 0.  1.
</event>
<event>
 4    1  0.6365705E-002  0.2697513E+03  0.7818608E-02  0.1101422E+00
          1   -1    0    0  502    0  0.00000000000E+00  0.00000000000E+00  0.42813496659E+03  0.42813496659E+03  0.00000000000E+00 0. -1.
         -1   -1    0    0    0  501 -0.00000000000E+00 -0.00000000000E+00 -0.17864852653E+03  0.17864852653E+03  0.00000000000E+00 0.  1.
          6    1    1    2  502    0 -0.13037189033E+03  0.16181760688E+03  0.19165153606E+03  0.33090191743E+03  0.17200000000E+03 0. -1.
         -6    1    1    2    0  501  0.13037189033E+03 -0.16181760688E+03  0.57834903995E+02  0.27588157569E+03  0.17200000000E+03 0.  1.
</event>
<event>
 4    1  0.6365705E-002  0.2426615E+03  0.7818608E-02  0.1118032E+00
         -2   -1    0    0    0  501 -0.00000000000E+00  0.00000000000E+00  0.56667110734E+02  0.56667110734E+02  0.00000000000E+00 0.  1.
          2   -1    0    0  502    0  0.00000000000E+00 -0.00000000000E+00 -0.11960204008E+04  0.11960204008E+04  0.00000000000E+00 0. -1.
          6    1    1    2  502    0 -0.13905442960E+03 -0.99822183049E+02 -0.79652676354E+03  0.83267009533E+03  0.17200000000E+03 0. -1.
         -6    1    1    2    0  501  0.13905442960E+03  0.99822183049E+02 -0.34282652650E+03  0.42001741617E+03  0.17200000000E+03 0.  1.
</event>
<event>
 4    1  0.6365705E-002  0.2264913E+03  0.7818608E-02  0.1129134E+00
          1   -1    0    0  502    0  0.00000000000E+00  0.00000000000E+00  0.29210716691E+03  0.29210716691E+03  0.00000000000E+00 0. -1.
         -1   -1    0    0    0  501 -0.00000000000E+00 -0.00000000000E+00 -0.19403917195E+03  0.19403917195E+03  0.00000000000E+00 0.  1.
          6    1    1    2  502    0  0.14144130629E+03  0.41335907565E+02  0.12393546568E+03  0.25818268732E+03  0.17200000000E+03 0.  1.
         -6    1    1    2    0  501 -0.14144130629E+03 -0.41335907565E+02 -0.25867470718E+02  0.22796365153E+03  0.17200000000E+03 0.  1.
</event>
<event>
 4    1  0.6365705E-002  0.1846466E+03  0.7818608E-02  0.1163380E+00
          2   -1    0    0  502    0  0.00000000000E+00  0.00000000000E+00  0.74224479712E+03  0.74224479712E+03  0.00000000000E+00 0. -1.
         -2   -1    0    0    0  501 -0.00000000000E+00 -0.00000000000E+00 -0.12404511845E+03  0.12404511845E+03  0.00000000000E+00 0.  1.
          6    1    1    2  502    0 -0.59432563868E+02 -0.31275315028E+02  0.65281561731E+03  0.67842656580E+03  0.17200000000E+03 0. -1.
         -6    1    1    2    0  501  0.59432563868E+02  0.31275315028E+02 -0.34615938643E+02  0.18786334977E+03  0.17200000000E+03 0.  1.
</event>
<event>
 4    1  0.6365705E-002  0.2214068E+03  0.7818608E-02  0.1132839E+00
          2   -1    0    0  502    0  0.00000000000E+00  0.00000000000E+00  0.69007272037E+03  0.69007272037E+03  0.00000000000E+00 0. -1.
         -2   -1    0    0    0  501 -0.00000000000E+00 -0.00000000000E+00 -0.75565628705E+02  0.75565628705E+02  0.00000000000E+00 0.  1.
          6    1    1    2  502    0  0.13391743102E+03  0.38769706866E+02  0.40096570472E+03  0.45803325738E+03  0.17200000000E+03 0. -1.
         -6    1    1    2    0  501 -0.13391743102E+03 -0.38769706866E+02  0.21354138694E+03  0.30760509170E+03  0.17200000000E+03 0.  1.
</event>
<event>
 4    1  0.6365705E-002  0.2868953E+03  0.7818608E-02  0.1091981E+00
          1   -1    0    0  502    0  0.00000000000E+00  0.00000000000E+00  0.17428912335E+03  0.17428912335E+03  0.00000000000E+00 0. -1.
         -1   -1    0    0    0  501 -0.00000000000E+00 -0.00000000000E+00 -0.47688605821E+03  0.47688605821E+03  0.00000000000E+00 0.  1.
          6    1    1    2  502    0  0.18617707483E+03 -0.13439879368E+03 -0.18338278839E+03  0.34049696917E+03  0.17200000000E+03 0. -1.
         -6    1    1    2    0  501 -0.18617707483E+03  0.13439879368E+03 -0.11921414646E+03  0.31067821239E+03  0.17200000000E+03 0.  1.
</event>
<event>
 4    1  0.6365705E-002  0.2560486E+03  0.7818608E-02  0.1109541E+00
          1   -1    0    0  502    0  0.00000000000E+00  0.00000000000E+00  0.33057905150E+04  0.33057905150E+04  0.00000000000E+00 0. -1.
         -1   -1    0    0    0  501 -0.00000000000E+00 -0.00000000000E+00 -0.19967982461E+02  0.19967982461E+02  0.00000000000E+00 0.  1.
          6    1    1    2  502    0 -0.73761888987E+02 -0.17474576449E+03  0.17800664651E+04  0.17983874773E+04  0.17200000000E+03 0. -1.
         -6    1    1    2    0  501  0.73761888987E+02  0.17474576449E+03  0.15057560674E+04  0.15273710201E+04  0.17200000000E+03 0.  1.
</event>
<event>
 4    1  0.6365705E-002  0.2542303E+03  0.7818608E-02  0.1110660E+00
         -1   -1    0    0    0  501 -0.00000000000E+00  0.00000000000E+00  0.22731685970E+03  0.22731685970E+03  0.00000000000E+00 0.  1.
          1   -1    0    0  502    0  0.00000000000E+00 -0.00000000000E+00 -0.44908881091E+03  0.44908881091E+03  0.00000000000E+00 0. -1.
          6    1    1    2  502    0  0.55546574576E+02  0.17878378670E+03 -0.31573556323E+03  0.40536651345E+03  0.17200000000E+03 0. -1.
         -6    1    1    2    0  501 -0.55546574576E+02 -0.17878378670E+03  0.93963612020E+02  0.27103915717E+03  0.17200000000E+03 0.  1.
</event>
<event>
 4    1  0.6365705E-002  0.2478686E+03  0.7818608E-02  0.1114659E+00
          1   -1    0    0  502    0  0.00000000000E+00  0.00000000000E+00  0.14302590227E+04  0.14302590227E+04  0.00000000000E+00 0. -1.
         -1   -1    0    0    0  501 -0.00000000000E+00 -0.00000000000E+00 -0.45801223898E+02  0.45801223898E+02  0.00000000000E+00 0.  1.
          6    1    1    2  502    0  0.13260537107E+03  0.11945979792E+03  0.50829548980E+03  0.56551139043E+03  0.17200000000E+03 0. -1.
         -6    1    1    2    0  501 -0.13260537107E+03 -0.11945979792E+03  0.87616230900E+03  0.91054885617E+03  0.17200000000E+03 0.  1.
</event>
<event>
 4    1  0.6365705E-002  0.2371798E+03  0.7818608E-02  0.1121686E+00
         -1   -1    0    0    0  501 -0.00000000000E+00  0.00000000000E+00  0.16067067037E+02  0.16067067037E+02  0.00000000000E+00 0.  1.
          1   -1    0    0  502    0  0.00000000000E+00 -0.00000000000E+00 -0.37050131107E+04  0.37050131107E+04  0.00000000000E+00 0. -1.
          6    1    1    2  502    0 -0.13209012059E+03 -0.96033583867E+02 -0.22808327814E+04  0.22931315762E+04  0.17200000000E+03 0. -1.
         -6    1    1    2    0  501  0.13209012059E+03  0.96033583867E+02 -0.14081132623E+04  0.14279486015E+04  0.17200000000E+03 0.  1.
</event>
<event>
 4    1  0.6365705E-002  0.1844479E+03  0.7818608E-02  0.1163566E+00
         -2   -1    0    0    0  501 -0.00000000000E+00  0.00000000000E+00  0.37720324016E+02  0.37720324016E+02  0.00000000000E+00 0.  1.
          2   -1    0    0  502    0  0.00000000000E+00 -0.00000000000E+00 -0.12269211454E+04  0.12269211454E+04  0.00000000000E+00 0. -1.
          6    1    1    2  502    0  0.66126582777E+02 -0.80197770854E+01 -0.92003652707E+03  0.93834335555E+03  0.17200000000E+03 0. -1.
         -6    1    1    2    0  501 -0.66126582777E+02  0.80197770854E+01 -0.26916429431E+03  0.32629811386E+03  0.17200000000E+03 0.  1.
</event>
<event>
 4    1  0.6365705E-002  0.1871846E+03  0.7818608E-02  0.1161025E+00
          2   -1    0    0  502    0  0.00000000000E+00  0.00000000000E+00  0.16768469122E+03  0.16768469122E+03  0.00000000000E+00 0. -1.
         -2   -1    0    0    0  501 -0.00000000000E+00 -0.00000000000E+00 -0.21714973011E+03  0.21714973011E+03  0.00000000000E+00 0.  1.
          6    1    1    2  502    0  0.28446944595E+02  0.68152985150E+02 -0.62118610389E+02  0.19722266553E+03  0.17200000000E+03 0.  1.
         -6    1    1    2    0  501 -0.28446944595E+02 -0.68152985150E+02  0.12653571504E+02  0.18761175580E+03  0.17200000000E+03 0. -1.
</event>
<event>
 4    1  0.6365705E-002  0.2346006E+03  0.7818608E-02  0.1123443E+00
         -1   -1    0    0    0  501 -0.00000000000E+00  0.00000000000E+00  0.28738477503E+02  0.28738477503E+02  0.00000000000E+00 0.  1.
          1   -1    0    0  502    0  0.00000000000E+00 -0.00000000000E+00 -0.19298954336E+04  0.19298954336E+04  0.00000000000E+00 0. -1.
          6    1    1    2  502    0  0.13229066769E+03  0.89177433954E+02 -0.86486926603E+03  0.89612291725E+03  0.17200000000E+03 0. -1.
         -6    1    1    2    0  501 -0.13229066769E+03 -0.89177433954E+02 -0.10362876900E+04  0.10625109938E+04  0.17200000000E+03 0.  1.
</event>
<event>
 4    1  0.6365705E-002  0.1965661E+03  0.7818608E-02  0.1152669E+00
          2   -1    0    0  502    0  0.00000000000E+00  0.00000000000E+00  0.96010409933E+03  0.96010409933E+03  0.00000000000E+00 0. -1.
         -2   -1    0    0    0  501 -0.00000000000E+00 -0.00000000000E+00 -0.93789148315E+02  0.93789148315E+02  0.00000000000E+00 0.  1.
          6    1    1    2  502    0 -0.92629467523E+02  0.21771689171E+02  0.83131163551E+03  0.85423489746E+03  0.17200000000E+03 0. -1.
         -6    1    1    2    0  501  0.92629467523E+02 -0.21771689171E+02  0.35003315506E+02  0.19965835019E+03  0.17200000000E+03 0.  1.
</event>
<event>
 4    1  0.6365705E-002  0.1935953E+03  0.7818608E-02  0.1155258E+00
          1   -1    0    0  502    0  0.00000000000E+00  0.00000000000E+00  0.88079388844E+03  0.88079388844E+03  0.00000000000E+00 0. -1.
         -1   -1    0    0    0  501 -0.00000000000E+00 -0.00000000000E+00 -0.65889361501E+02  0.65889361501E+02  0.00000000000E+00 0.  1.
          6    1    1    2  502    0 -0.56085855658E+02 -0.68916675727E+02  0.68915901611E+03  0.71583467426E+03  0.17200000000E+03 0. -1.
         -6    1    1    2    0  501  0.56085855658E+02  0.68916675727E+02  0.12574551084E+03  0.23084857568E+03  0.17200000000E+03 0.  1.
</event>
<event>
 4    1  0.6365705E-002  0.2232889E+03  0.7818608E-02  0.1131455E+00
         -1   -1    0    0    0  501 -0.00000000000E+00  0.00000000000E+00  0.97445542171E+02  0.97445542171E+02  0.00000000000E+00 0.  1.
          1   -1    0    0  502    0  0.00000000000E+00 -0.00000000000E+00 -0.51225012565E+03  0.51225012565E+03  0.00000000000E+00 0. -1.
          6    1    1    2  502    0 -0.16842523833E+02  0.14138695006E+03 -0.19696162778E+03  0.29774456011E+03  0.17200000000E+03 0. -1.
         -6    1    1    2    0  501  0.16842523833E+02 -0.14138695006E+03 -0.21784295570E+03  0.31195110771E+03  0.17200000000E+03 0.  1.
</event>
<event>
 4    1  0.6365705E-002  0.2212299E+03  0.7818608E-02  0.1132969E+00
          1   -1    0    0  502    0  0.00000000000E+00  0.00000000000E+00  0.10852410449E+04  0.10852410449E+04  0.00000000000E+00 0. -1.
         -1   -1    0    0    0  501 -0.00000000000E+00 -0.00000000000E+00 -0.46043351899E+02  0.46043351899E+02  0.00000000000E+00 0.  1.
          6    1    1    2  502    0 -0.77824716296E+02  0.11533429167E+03  0.43856760736E+03  0.49120691315E+03  0.17200000000E+03 0.  1.
         -6    1    1    2    0  501  0.77824716296E+02 -0.11533429167E+03  0.60063008568E+03  0.64007748368E+03  0.17200000000E+03 0.  1.
</event>
<event>
 4    1  0.6365705E-002  0.1812728E+03  0.7818608E-02  0.1166577E+00
         -1   -1    0    0    0  501 -0.00000000000E+00  0.00000000000E+00  0.46315486949E+03  0.46315486949E+03  0.00000000000E+00 0.  1.
          1   -1    0    0  502    0  0.00000000000E+00 -0.00000000000E+00 -0.71219987943E+02  0.71219987943E+02  0.00000000000E+00 0. -1.
          6    1    1    2  502    0  0.46573768034E+02 -0.33267469539E+02  0.21248373986E+03  0.27930123542E+03  0.17200000000E+03 0.  1.
         -6    1    1    2    0  501 -0.46573768034E+02  0.33267469539E+02  0.17945114168E+03  0.25507362202E+03  0.17200000000E+03 0. -1.
</event>
<event>
 4    1  0.6365705E-002  0.3353016E+03  0.7818608E-02  0.1068815E+00
          2   -1    0    0  502    0  0.00000000000E+00  0.00000000000E+00  0.58894050127E+03  0.58894050127E+03  0.00000000000E+00 0. -1.
         -2   -1    0    0    0  501 -0.00000000000E+00 -0.00000000000E+00 -0.24223929186E+03  0.24223929186E+03  0.00000000000E+00 0.  1.
          6    1    1    2  502    0 -0.28781094142E+03 -0.28377171768E+01  0.36467870649E+03  0.49539655793E+03  0.17200000000E+03 0. -1.
         -6    1    1    2    0  501  0.28781094142E+03  0.28377171768E+01 -0.17977497086E+02  0.33578323520E+03  0.17200000000E+03 0.  1.
</event>
<event>
 4    1  0.6365705E-002  0.1875360E+03  0.7818608E-02  0.1160703E+00
         -1   -1    0    0    0  501 -0.00000000000E+00  0.00000000000E+00  0.28435037496E+02  0.28435037496E+02  0.00000000000E+00 0.  1.
          1   -1    0    0  502    0  0.00000000000E+00 -0.00000000000E+00 -0.13587626779E+04  0.13587626779E+04  0.00000000000E+00 0. -1.
          6    1    1    2  502    0  0.61293083021E+02  0.42765901157E+02 -0.87292672229E+03  0.89284423436E+03  0.17200000000E+03 0. -1.
         -6    1    1    2    0  501 -0.61293083021E+02 -0.42765901157E+02 -0.45740091810E+03  0.49435348103E+03  0.17200000000E+03 0.  1.
</event>
<event>
 4    1  0.6365705E-002  0.2485324E+03  0.7818608E-02  0.1114236E+00
          1   -1    0    0  502    0  0.00000000000E+00  0.00000000000E+00  0.13449904247E+03  0.13449904247E+03  0.00000000000E+00 0. -1.
         -1   -1    0    0    0  501 -0.00000000000E+00 -0.00000000000E+00 -0.57220612602E+03  0.57220612602E+03  0.00000000000E+00 0.  1.
          6    1    1    2  502    0 -0.26883363418E+02 -0.17737423943E+03 -0.61856342028E+02  0.25611431645E+03  0.17200000000E+03 0. -1.
         -6    1    1    2    0  501  0.26883363418E+02  0.17737423943E+03 -0.37585074152E+03  0.45059085204E+03  0.17200000000E+03 0.  1.
</event>
<event>
 4    1  0.6365705E-002  0.2555495E+03  0.7818608E-02  0.1109847E+00
         -1   -1    0    0    0  501 -0.00000000000E+00  0.00000000000E+00  0.64811381312E+03  0.64811381312E+03  0.00000000000E+00 0.  1.
          1   -1    0    0  502    0  0.00000000000E+00 -0.00000000000E+00 -0.53388054157E+03  0.53388054157E+03  0.00000000000E+00 0. -1.
          6    1    1    2  502    0  0.18859750321E+03  0.12349761377E+02 -0.47519569137E+03  0.53955211048E+03  0.17200000000E+03 0. -1.
         -6    1    1    2    0  501 -0.18859750321E+03 -0.12349761377E+02  0.58942896292E+03  0.64244224422E+03  0.17200000000E+03 0.  1.
</event>
<event>
 4    1  0.6365705E-002  0.2857458E+03  0.7818608E-02  0.1092591E+00
          2   -1    0    0  502    0  0.00000000000E+00  0.00000000000E+00  0.35950425861E+03  0.35950425861E+03  0.00000000000E+00 0. -1.
         -2   -1    0    0    0  501 -0.00000000000E+00 -0.00000000000E+00 -0.34293683599E+03  0.34293683599E+03  0.00000000000E+00 0.  1.
          6    1    1    2  502    0  0.22510641949E+03  0.37333271181E+02  0.21239092345E+03  0.35603451742E+03  0.17200000000E+03 0. -1.
         -6    1    1    2    0  501 -0.22510641949E+03 -0.37333271181E+02 -0.19582350082E+03  0.34640657717E+03  0.17200000000E+03 0.  1.
</event>
<event>
 4    1  0.6365705E-002  0.2129295E+03  0.7818608E-02  0.1139267E+00
          2   -1    0    0  502    0  0.00000000000E+00  0.00000000000E+00  0.71902669829E+03  0.71902669829E+03  0.00000000000E+00 0. -1.
         -2   -1    0    0    0  501 -0.00000000000E+00 -0.00000000000E+00 -0.63688159291E+02  0.63688159291E+02  0.00000000000E+00 0.  1.
          6    1    1    2  502    0 -0.28247928999E+01  0.12548693720E+03  0.28867903178E+03  0.35871232799E+03  0.17200000000E+03 0. -1.
         -6    1    1    2    0  501  0.28247928999E+01 -0.12548693720E+03  0.36665950723E+03  0.42400252959E+03  0.17200000000E+03 0.  1.
</event>
<event>
 4    1  0.6365705E-002  0.2520695E+03  0.7818608E-02  0.1112004E+00
         -1   -1    0    0    0  501 -0.00000000000E+00  0.00000000000E+00  0.21892723556E+03  0.21892723556E+03  0.00000000000E+00 0.  1.
          1   -1    0    0  502    0  0.00000000000E+00 -0.00000000000E+00 -0.29696419513E+03  0.29696419513E+03  0.00000000000E+00 0. -1.
          6    1    1    2  502    0 -0.16739448439E+03  0.77033264333E+02 -0.77864872073E+02  0.26382186324E+03  0.17200000000E+03 0. -1.
         -6    1    1    2    0  501  0.16739448439E+03 -0.77033264333E+02 -0.17208749825E+00  0.25206956745E+03  0.17200000000E+03 0.  1.
</event>
<event>
 4    1  0.6365705E-002  0.3812657E+03  0.7818608E-02  0.1050467E+00
         -1   -1    0    0    0  501 -0.00000000000E+00  0.00000000000E+00  0.17990573439E+03  0.17990573439E+03  0.00000000000E+00 0.  1.
          1   -1    0    0  502    0  0.00000000000E+00 -0.00000000000E+00 -0.12593780942E+04  0.12593780942E+04  0.00000000000E+00 0. -1.
          6    1    1    2  502    0 -0.80252007559E+02 -0.33066466024E+03 -0.97056972199E+03  0.10427699111E+04  0.17200000000E+03 0. -1.
         -6    1    1    2    0  501  0.80252007559E+02  0.33066466024E+03 -0.10890263783E+03  0.39651391751E+03  0.17200000000E+03 0. -1.
</event>
<event>
 4    1  0.6365705E-002  0.2357183E+03  0.7818608E-02  0.1122679E+00
         -1   -1    0    0    0  501 -0.00000000000E+00  0.00000000000E+00  0.52318938821E+02  0.52318938821E+02  0.00000000000E+00 0.  1.
          1   -1    0    0  502    0  0.00000000000E+00 -0.00000000000E+00 -0.12700738276E+04  0.12700738276E+04  0.00000000000E+00 0. -1.
          6    1    1    2  502    0 -0.14923675536E+03  0.60889136907E+02 -0.87649652349E+03  0.90763938424E+03  0.17200000000E+03 0. -1.
         -6    1    1    2    0  501  0.14923675536E+03 -0.60889136907E+02 -0.34125836527E+03  0.41475338215E+03  0.17200000000E+03 0.  1.
</event>
<event>
 4    1  0.6365705E-002  0.1967956E+03  0.7818608E-02  0.1152471E+00
          2   -1    0    0  502    0  0.00000000000E+00  0.00000000000E+00  0.39226943808E+03  0.39226943808E+03  0.00000000000E+00 0. -1.
         -2   -1    0    0    0  501 -0.00000000000E+00 -0.00000000000E+00 -0.11212687125E+03  0.11212687125E+03  0.00000000000E+00 0.  1.
          6    1    1    2  502    0  0.40195375036E+02  0.86768862800E+02  0.22724777772E+03  0.30061612765E+03  0.17200000000E+03 0. -1.
         -6    1    1    2    0  501 -0.40195375036E+02 -0.86768862800E+02  0.52894789110E+02  0.20378018167E+03  0.17200000000E+03 0.  1.
</event>
<event>
 4    1  0.6365705E-002  0.4129341E+03  0.7818608E-02  0.1039391E+00
          2   -1    0    0  502    0  0.00000000000E+00  0.00000000000E+00  0.17103828023E+03  0.17103828023E+03  0.00000000000E+00 0. -1.
         -2   -1    0    0    0  501 -0.00000000000E+00 -0.00000000000E+00 -0.11506765598E+04  0.11506765598E+04  0.00000000000E+00 0.  1.
          6    1    1    2  502    0 -0.72436902489E+02 -0.36835233444E+03 -0.24826045501E+03  0.48181718592E+03  0.17200000000E+03 0. -1.
         -6    1    1    2    0  501  0.72436902489E+02  0.36835233444E+03 -0.73137782458E+03  0.83989765413E+03  0.17200000000E+03 0.  1.
</event>
<event>
 4    1  0.6365705E-002  0.1826018E+03  0.7818608E-02  0.1165308E+00
         -1   -1    0    0    0  501 -0.00000000000E+00  0.00000000000E+00  0.92805567836E+02  0.92805567836E+02  0.00000000000E+00 0.  1.
          1   -1    0    0  502    0  0.00000000000E+00 -0.00000000000E+00 -0.46978313902E+03  0.46978313902E+03  0.00000000000E+00 0. -1.
          6    1    1    2  502    0  0.57043403975E+02 -0.22482713148E+02 -0.52063594272E+02  0.18987901458E+03  0.17200000000E+03 0.  1.
         -6    1    1    2    0  501 -0.57043403975E+02  0.22482713148E+02 -0.32491397691E+03  0.37270969228E+03  0.17200000000E+03 0. -1.
</event>
<event>
 4    1  0.6365705E-002  0.1877915E+03  0.7818608E-02  0.1160468E+00
         -2   -1    0    0    0  501 -0.00000000000E+00  0.00000000000E+00  0.16414849670E+02  0.16414849670E+02  0.00000000000E+00 0.  1.
          2   -1    0    0  502    0  0.00000000000E+00 -0.00000000000E+00 -0.28160168465E+04  0.28160168465E+04  0.00000000000E+00 0. -1.
          6    1    1    2  502    0  0.57287644238E+02  0.48987551918E+02 -0.20893666808E+04  0.20977890221E+04  0.17200000000E+03 0. -1.
         -6    1    1    2    0  501 -0.57287644238E+02 -0.48987551918E+02 -0.71023531608E+03  0.73464267412E+03  0.17200000000E+03 0.  1.
</event>
<event>
 4    1  0.6365705E-002  0.1804634E+03  0.7818608E-02  0.1167355E+00
          2   -1    0    0  502    0  0.00000000000E+00  0.00000000000E+00  0.52863016626E+03  0.52863016626E+03  0.00000000000E+00 0. -1.
         -2   -1    0    0    0  501 -0.00000000000E+00 -0.00000000000E+00 -0.14358013687E+03  0.14358013687E+03  0.00000000000E+00 0.  1.
          6    1    1    2  502    0 -0.31617167879E+02 -0.44535235735E+02  0.44648494466E+03  0.48157640965E+03  0.17200000000E+03 0. -1.
         -6    1    1    2    0  501  0.31617167879E+02  0.44535235735E+02 -0.61434915271E+02  0.19063389347E+03  0.17200000000E+03 0.  1.
</event>
<event>
 4    1  0.6365705E-002  0.4745374E+03  0.7818608E-02  0.1020647E+00
          1   -1    0    0  502    0  0.00000000000E+00  0.00000000000E+00  0.12295442433E+04  0.12295442433E+04  0.00000000000E+00 0. -1.
         -1   -1    0    0    0  501 -0.00000000000E+00 -0.00000000000E+00 -0.25401661406E+03  0.25401661406E+03  0.00000000000E+00 0.  1.
          6    1    1    2  502    0  0.30191301095E+03 -0.32318766625E+03  0.95951262869E+02  0.48414086653E+03  0.17200000000E+03 0. -1.
         -6    1    1    2    0  501 -0.30191301095E+03  0.32318766625E+03  0.87957636639E+03  0.99941999085E+03  0.17200000000E+03 0.  1.
</event>
<event>
 4    1  0.6365705E-002  0.1954844E+03  0.7818608E-02  0.1153606E+00
          1   -1    0    0  502    0  0.00000000000E+00  0.00000000000E+00  0.15108351537E+03  0.15108351537E+03  0.00000000000E+00 0. -1.
         -1   -1    0    0    0  501 -0.00000000000E+00 -0.00000000000E+00 -0.26170135270E+03  0.26170135270E+03  0.00000000000E+00 0.  1.
          6    1    1    2  502    0 -0.88683616158E+02 -0.27665476161E+02 -0.93085642850E+02  0.21651581755E+03  0.17200000000E+03 0.  1.
         -6    1    1    2    0  501  0.88683616158E+02  0.27665476161E+02 -0.17532194481E+02  0.19626905051E+03  0.17200000000E+03 0. -1.
</event>
<event>
 4    1  0.6365705E-002  0.5100587E+03  0.7818608E-02  0.1011186E+00
          2   -1    0    0  502    0  0.00000000000E+00  0.00000000000E+00  0.40037658035E+04  0.40037658035E+04  0.00000000000E+00 0. -1.
         -2   -1    0    0    0  501 -0.00000000000E+00 -0.00000000000E+00 -0.17204498919E+03  0.17204498919E+03  0.00000000000E+00 0.  1.
          6    1    1    2  502    0  0.25365902359E+03  0.40771681920E+03  0.35629452526E+04  0.35992692005E+04  0.17200000000E+03 0. -1.
         -6    1    1    2    0  501 -0.25365902359E+03 -0.40771681920E+03  0.26877556169E+03  0.57654159214E+03  0.17200000000E+03 0.  1.
</event>
<event>
 4    1  0.6365705E-002  0.2651194E+03  0.7818608E-02  0.1104106E+00
          2   -1    0    0  502    0  0.00000000000E+00  0.00000000000E+00  0.16351208156E+04  0.16351208156E+04  0.00000000000E+00 0. -1.
         -2   -1    0    0    0  501 -0.00000000000E+00 -0.00000000000E+00 -0.44528037346E+02  0.44528037346E+02  0.00000000000E+00 0.  1.
          6    1    1    2  502    0  0.14558005134E+03 -0.13968081179E+03  0.95155177718E+03  0.98779505222E+03  0.17200000000E+03 0. -1.
         -6    1    1    2    0  501 -0.14558005134E+03  0.13968081179E+03  0.63904100106E+03  0.69185380071E+03  0.17200000000E+03 0.  1.
</event>
<event>
 4    1  0.6365705E-002  0.4253811E+03  0.7818608E-02  0.1035329E+00
         -1   -1    0    0    0  501 -0.00000000000E+00  0.00000000000E+00  0.41914605452E+03  0.41914605452E+03  0.00000000000E+00 0.  1.
          1   -1    0    0  502    0  0.00000000000E+00 -0.00000000000E+00 -0.59521284767E+03  0.59521284767E+03  0.00000000000E+00 0. -1.
          6    1    1    2  502    0  0.38867475415E+03 -0.17233183417E+02 -0.35385466942E+03  0.55331923353E+03  0.17200000000E+03 0. -1.
         -6    1    1    2    0  501 -0.38867475415E+03  0.17233183417E+02  0.17778787627E+03  0.46103966866E+03  0.17200000000E+03 0.  1.
</event>
<event>
 4    1  0.6365705E-002  0.2061582E+03  0.7818608E-02  0.1144645E+00
          1   -1    0    0  502    0  0.00000000000E+00  0.00000000000E+00  0.10403846866E+04  0.10403846866E+04  0.00000000000E+00 0. -1.
         -1   -1    0    0    0  501 -0.00000000000E+00 -0.00000000000E+00 -0.40854139008E+02  0.40854139008E+02  0.00000000000E+00 0.  1.
          6    1    1    2  502    0  0.97926996335E+02 -0.57684564262E+02  0.49536561289E+03  0.53655223045E+03  0.17200000000E+03 0. -1.
         -6    1    1    2    0  501 -0.97926996335E+02  0.57684564262E+02  0.50416493471E+03  0.54468659517E+03  0.17200000000E+03 0.  1.
</event>
<event>
 4    1  0.6365705E-002  0.2579739E+03  0.7818608E-02  0.1108367E+00
          1   -1    0    0  502    0  0.00000000000E+00  0.00000000000E+00  0.68517037684E+03  0.68517037684E+03  0.00000000000E+00 0. -1.
         -1   -1    0    0    0  501 -0.00000000000E+00 -0.00000000000E+00 -0.10981899318E+03  0.10981899318E+03  0.00000000000E+00 0.  1.
          6    1    1    2  502    0  0.17115829144E+03 -0.87586387348E+02  0.42279199232E+03  0.49528133898E+03  0.17200000000E+03 0. -1.
         -6    1    1    2    0  501 -0.17115829144E+03  0.87586387348E+02  0.15255939134E+03  0.29970803103E+03  0.17200000000E+03 0. -1.
</event>
<event>
 4    1  0.6365705E-002  0.4901394E+03  0.7818608E-02  0.1016385E+00
          2   -1    0    0  502    0  0.00000000000E+00  0.00000000000E+00  0.27104644718E+04  0.27104644718E+04  0.00000000000E+00 0. -1.
         -2   -1    0    0    0  501 -0.00000000000E+00 -0.00000000000E+00 -0.88791933833E+02  0.88791933833E+02  0.00000000000E+00 0.  1.
          6    1    1    2  502    0  0.37702330616E+03  0.26173656111E+03  0.13700513674E+04  0.14550867156E+04  0.17200000000E+03 0. -1.
         -6    1    1    2    0  501 -0.37702330616E+03 -0.26173656111E+03  0.12516211706E+04  0.13441696900E+04  0.17200000000E+03 0.  1.
</event>
<event>
 4    1  0.6365705E-002  0.1776390E+03  0.7818608E-02  0.1170108E+00
          3   -1    0    0  502    0  0.00000000000E+00  0.00000000000E+00  0.11201936947E+04  0.11201936947E+04  0.00000000000E+00 0. -1.
         -3   -1    0    0    0  501 -0.00000000000E+00 -0.00000000000E+00 -0.28323021221E+02  0.28323021221E+02  0.00000000000E+00 0.  1.
          6    1    1    2  502    0 -0.31258076947E+02  0.31536541883E+02  0.58817413311E+03  0.61441389284E+03  0.17200000000E+03 0. -1.
         -6    1    1    2    0  501  0.31258076947E+02 -0.31536541883E+02  0.50369654037E+03  0.53410282308E+03  0.17200000000E+03 0. -1.
</event>
<event>
 4    1  0.6365705E-002  0.2229873E+03  0.7818608E-02  0.1131675E+00
         -2   -1    0    0    0  501 -0.00000000000E+00  0.00000000000E+00  0.11138000244E+03  0.11138000244E+03  0.00000000000E+00 0.  1.
          2   -1    0    0  502    0  0.00000000000E+00 -0.00000000000E+00 -0.45068513761E+03  0.45068513761E+03  0.00000000000E+00 0. -1.
          6    1    1    2  502    0 -0.13089665798E+03 -0.54821399740E+02 -0.19696128952E+03  0.29751818517E+03  0.17200000000E+03 0. -1.
         -6    1    1    2    0  501  0.13089665798E+03  0.54821399740E+02 -0.14234384566E+03  0.26454695488E+03  0.17200000000E+03 0.  1.
</event>
<event>
 4    1  0.6365705E-002  0.2550362E+03  0.7818608E-02  0.1110163E+00
          2   -1    0    0  502    0  0.00000000000E+00  0.00000000000E+00  0.76137304566E+03  0.76137304566E+03  0.00000000000E+00 0. -1.
         -2   -1    0    0    0  501 -0.00000000000E+00 -0.00000000000E+00 -0.86649452577E+02  0.86649452577E+02  0.00000000000E+00 0.  1.
          6    1    1    2  502    0  0.74069004377E+02  0.17312787475E+03  0.28704394558E+03  0.38397617780E+03  0.17200000000E+03 0. -1.
         -6    1    1    2    0  501 -0.74069004377E+02 -0.17312787475E+03  0.38767964751E+03  0.46404632044E+03  0.17200000000E+03 0.  1.
</event>
<event>
 4    1  0.6365705E-002  0.1907508E+03  0.7818608E-02  0.1157786E+00
         -1   -1    0    0    0  501 -0.00000000000E+00  0.00000000000E+00  0.25629265570E+03  0.25629265570E+03  0.00000000000E+00 0.  1.
          1   -1    0    0  502    0  0.00000000000E+00 -0.00000000000E+00 -0.24163459430E+03  0.24163459430E+03  0.00000000000E+00 0. -1.
          6    1    1    2  502    0 -0.28337133222E+02  0.77452440938E+02 -0.15256297444E+03  0.24425669878E+03  0.17200000000E+03 0. -1.
         -6    1    1    2    0  501  0.28337133222E+02 -0.77452440938E+02  0.16722103585E+03  0.25367055122E+03  0.17200000000E+03 0.  1.
</event>
<event>
 4    1  0.6365705E-002  0.1781308E+03  0.7818608E-02  0.1169624E+00
         -2   -1    0    0    0  501 -0.00000000000E+00  0.00000000000E+00  0.62219974422E+03  0.62219974422E+03  0.00000000000E+00 0.  1.
          2   -1    0    0  502    0  0.00000000000E+00 -0.00000000000E+00 -0.51192065908E+02  0.51192065908E+02  0.00000000000E+00 0. -1.
          6    1    1    2  502    0 -0.34608566911E+02  0.30802787368E+02  0.30626682190E+03  0.35430203331E+03  0.17200000000E+03 0.  1.
         -6    1    1    2    0  501  0.34608566911E+02 -0.30802787368E+02  0.26474085641E+03  0.31908977682E+03  0.17200000000E+03 0. -1.
</event>
<event>
 4    1  0.6365705E-002  0.3355688E+03  0.7818608E-02  0.1068699E+00
         -2   -1    0    0    0  501 -0.00000000000E+00  0.00000000000E+00  0.60664974855E+02  0.60664974855E+02  0.00000000000E+00 0.  1.
          2   -1    0    0  502    0  0.00000000000E+00 -0.00000000000E+00 -0.22809526796E+04  0.22809526796E+04  0.00000000000E+00 0. -1.
          6    1    1    2  502    0 -0.22892143559E+03  0.17497824720E+03 -0.60490678774E+03  0.69175041201E+03  0.17200000000E+03 0.  1.
         -6    1    1    2    0  501  0.22892143559E+03 -0.17497824720E+03 -0.16153809171E+04  0.16498672425E+04  0.17200000000E+03 0.  1.
</event>
<event>
 4    1  0.6365705E-002  0.1904757E+03  0.7818608E-02  0.1158033E+00
          2   -1    0    0  502    0  0.00000000000E+00  0.00000000000E+00  0.88184372148E+03  0.88184372148E+03  0.00000000000E+00 0. -1.
         -2   -1    0    0    0  501 -0.00000000000E+00 -0.00000000000E+00 -0.72409341098E+02  0.72409341098E+02  0.00000000000E+00 0.  1.
          6    1    1    2  502    0  0.77073563689E+02  0.27507339797E+02  0.71824811087E+03  0.74307559288E+03  0.17200000000E+03 0. -1.
         -6    1    1    2    0  501 -0.77073563689E+02 -0.27507339797E+02  0.91186269515E+02  0.21117746970E+03  0.17200000000E+03 0.  1.
</event>
<event>
 4    1  0.6365705E-002  0.1814849E+03  0.7818608E-02  0.1166374E+00
         -2   -1    0    0    0  501 -0.00000000000E+00  0.00000000000E+00  0.53096110583E+02  0.53096110583E+02  0.00000000000E+00 0.  1.
          2   -1    0    0  502    0  0.00000000000E+00 -0.00000000000E+00 -0.74167758246E+03  0.74167758246E+03  0.00000000000E+00 0. -1.
          6    1    1    2  502    0 -0.56469055721E+02 -0.12806681320E+02 -0.50503411768E+03  0.53665279778E+03  0.17200000000E+03 0. -1.
         -6    1    1    2    0  501  0.56469055721E+02  0.12806681320E+02 -0.18354735420E+03  0.25812089527E+03  0.17200000000E+03 0.  1.
</event>
<event>
 4    1  0.6365705E-002  0.1881906E+03  0.7818608E-02  0.1160103E+00
          2   -1    0    0  502    0  0.00000000000E+00  0.00000000000E+00  0.12807697337E+04  0.12807697337E+04  0.00000000000E+00 0. -1.
         -2   -1    0    0    0  501 -0.00000000000E+00 -0.00000000000E+00 -0.36162252242E+02  0.36162252242E+02  0.00000000000E+00 0.  1.
          6    1    1    2  502    0 -0.37952151455E+02  0.66267219598E+02  0.94173654221E+03  0.96035588462E+03  0.17200000000E+03 0. -1.
         -6    1    1    2    0  501  0.37952151455E+02 -0.66267219598E+02  0.30287093926E+03  0.35657610133E+03  0.17200000000E+03 0.  1.
</event>
<event>
 4    1  0.6365705E-002  0.2095194E+03  0.7818608E-02  0.1141947E+00
          2   -1    0    0  502    0  0.00000000000E+00  0.00000000000E+00  0.25791616467E+04  0.25791616467E+04  0.00000000000E+00 0. -1.
         -2   -1    0    0    0  501 -0.00000000000E+00 -0.00000000000E+00 -0.17095269526E+02  0.17095269526E+02  0.00000000000E+00 0.  1.
          6    1    1    2  502    0 -0.11087228883E+03 -0.44963428416E+02  0.13669383738E+04  0.13829023437E+04  0.17200000000E+03 0. -1.
         -6    1    1    2    0  501  0.11087228883E+03  0.44963428416E+02  0.11951280034E+04  0.12133545726E+04  0.17200000000E+03 0.  1.
</event>
<event>
 4    1  0.6365705E-002  0.3720697E+03  0.7818608E-02  0.1053904E+00
         -1   -1    0    0    0  501 -0.00000000000E+00  0.00000000000E+00  0.19297786530E+03  0.19297786530E+03  0.00000000000E+00 0.  1.
          1   -1    0    0  502    0  0.00000000000E+00 -0.00000000000E+00 -0.72253513555E+03  0.72253513555E+03  0.00000000000E+00 0. -1.
          6    1    1    2  502    0  0.12596437161E+03  0.30493417491E+03 -0.22606276351E+03  0.43536220207E+03  0.17200000000E+03 0.  1.
         -6    1    1    2    0  501 -0.12596437161E+03 -0.30493417491E+03 -0.30349450674E+03  0.48015079878E+03  0.17200000000E+03 0. -1.
</event>
<event>
 4    1  0.6365705E-002  0.2650927E+03  0.7818608E-02  0.1104121E+00
          2   -1    0    0  502    0  0.00000000000E+00  0.00000000000E+00  0.11949704676E+04  0.11949704676E+04  0.00000000000E+00 0. -1.
         -2   -1    0    0    0  501 -0.00000000000E+00 -0.00000000000E+00 -0.68178407685E+02  0.68178407685E+02  0.00000000000E+00 0.  1.
          6    1    1    2  502    0 -0.14430279457E+03  0.14094983073E+03  0.32925690090E+03  0.42271060797E+03  0.17200000000E+03 0.  1.
         -6    1    1    2    0  501  0.14430279457E+03 -0.14094983073E+03  0.79753515901E+03  0.84043826731E+03  0.17200000000E+03 0. -1.
</event>
<event>
 4    1  0.6365705E-002  0.3824690E+03  0.7818608E-02  0.1050025E+00
         -2   -1    0    0    0  501 -0.00000000000E+00  0.00000000000E+00  0.17063459947E+03  0.17063459947E+03  0.00000000000E+00 0.  1.
          2   -1    0    0  502    0  0.00000000000E+00 -0.00000000000E+00 -0.87824847945E+03  0.87824847945E+03  0.00000000000E+00 0. -1.
          6    1    1    2  502    0 -0.32950698774E+03  0.90131469167E+02 -0.43483151833E+03  0.57910360562E+03  0.17200000000E+03 0. -1.
         -6    1    1    2    0  501  0.32950698774E+03 -0.90131469167E+02 -0.27278236165E+03  0.46977947329E+03  0.17200000000E+03 0.  1.
</event>
<event>
 4    1  0.6365705E-002  0.1793218E+03  0.7818608E-02  0.1168461E+00
         -2   -1    0    0    0  501 -0.00000000000E+00  0.00000000000E+00  0.60723570248E+02  0.60723570248E+02  0.00000000000E+00 0.  1.
          2   -1    0    0  502    0  0.00000000000E+00 -0.00000000000E+00 -0.54487937201E+03  0.54487937201E+03  0.00000000000E+00 0. -1.
          6    1    1    2  502    0 -0.49596559815E+02  0.10605592590E+02 -0.29286337186E+03  0.34340246347E+03  0.17200000000E+03 0. -1.
         -6    1    1    2    0  501  0.49596559815E+02 -0.10605592590E+02 -0.19129242991E+03  0.26220047879E+03  0.17200000000E+03 0.  1.
</event>
<event>
 4    1  0.6365705E-002  0.2045123E+03  0.7818608E-02  0.1145987E+00
         -3   -1    0    0    0  501 -0.00000000000E+00  0.00000000000E+00  0.46719119192E+02  0.46719119192E+02  0.00000000000E+00 0.  1.
          3   -1    0    0  502    0  0.00000000000E+00 -0.00000000000E+00 -0.10757106675E+04  0.10757106675E+04  0.00000000000E+00 0. -1.
          6    1    1    2  502    0  0.76054399218E+01 -0.11037857253E+03 -0.74436097631E+03  0.77194464507E+03  0.17200000000E+03 0. -1.
         -6    1    1    2    0  501 -0.76054399218E+01  0.11037857253E+03 -0.28463057204E+03  0.35048514167E+03  0.17200000000E+03 0.  1.
</event>
<event>
 4    1  0.6365705E-002  0.3140243E+03  0.7818608E-02  0.1078433E+00
         -1   -1    0    0    0  501 -0.00000000000E+00  0.00000000000E+00  0.62397354996E+03  0.62397354996E+03  0.00000000000E+00 0.  1.
          1   -1    0    0  502    0  0.00000000000E+00 -0.00000000000E+00 -0.33430528434E+03  0.33430528434E+03  0.00000000000E+00 0. -1.
          6    1    1    2  502    0 -0.92893245758E+01  0.26256608947E+03 -0.20308371396E+03  0.37397090497E+03  0.17200000000E+03 0. -1.
         -6    1    1    2    0  501  0.92893245758E+01 -0.26256608947E+03  0.49275197957E+03  0.58430792932E+03  0.17200000000E+03 0.  1.
</event>
<event>
 4    1  0.6365705E-002  0.1940949E+03  0.7818608E-02  0.1154819E+00
         -1   -1    0    0    0  501 -0.00000000000E+00  0.00000000000E+00  0.17588249362E+02  0.17588249362E+02  0.00000000000E+00 0.  1.
          1   -1    0    0  502    0  0.00000000000E+00 -0.00000000000E+00 -0.21423936359E+04  0.21423936359E+04  0.00000000000E+00 0. -1.
          6    1    1    2  502    0  0.89867424203E+02  0.35579733191E+01 -0.10782765285E+04  0.10956062637E+04  0.17200000000E+03 0.  1.
         -6    1    1    2    0  501 -0.89867424203E+02 -0.35579733191E+01 -0.10465288580E+04  0.10643756216E+04  0.17200000000E+03 0. -1.
</event>
<event>
 4    1  0.6365705E-002  0.2233472E+03  0.7818608E-02  0.1131412E+00
          2   -1    0    0  502    0  0.00000000000E+00  0.00000000000E+00  0.66860518742E+03  0.66860518742E+03  0.00000000000E+00 0. -1.
         -2   -1    0    0    0  501 -0.00000000000E+00 -0.00000000000E+00 -0.23059969899E+03  0.23059969899E+03  0.00000000000E+00 0.  1.
          6    1    1    2  502    0 -0.81239230390E+02 -0.11704768528E+03  0.58878718053E+03  0.62972558876E+03  0.17200000000E+03 0. -1.
         -6    1    1    2    0  501  0.81239230390E+02  0.11704768528E+03 -0.15078169211E+03  0.26947929764E+03  0.17200000000E+03 0.  1.
</event>
<event>
 4    1  0.6365705E-002  0.2044999E+03  0.7818608E-02  0.1145997E+00
         -2   -1    0    0    0  501 -0.00000000000E+00  0.00000000000E+00  0.13231080587E+02  0.13231080587E+02  0.00000000000E+00 0.  1.
          2   -1    0    0  502    0  0.00000000000E+00 -0.00000000000E+00 -0.36247037222E+04  0.36247037222E+04  0.00000000000E+00 0. -1.
          6    1    1    2  502    0 -0.30736600977E+02 -0.10626125409E+03 -0.24565011187E+04  0.24649985677E+04  0.17200000000E+03 0. -1.
         -6    1    1    2    0  501  0.30736600977E+02  0.10626125409E+03 -0.11549715229E+04  0.11729362351E+04  0.17200000000E+03 0.  1.
</event>
<event>
 4    1  0.6365705E-002  0.3053509E+03  0.7818608E-02  0.1082596E+00
          2   -1    0    0  502    0  0.00000000000E+00  0.00000000000E+00  0.15458960374E+04  0.15458960374E+04  0.00000000000E+00 0. -1.
         -2   -1    0    0    0  501 -0.00000000000E+00 -0.00000000000E+00 -0.69202763645E+02  0.69202763645E+02  0.00000000000E+00 0.  1.
          6    1    1    2  502    0 -0.24716125818E+03 -0.50660487280E+02  0.10277663282E+04  0.10721673367E+04  0.17200000000E+03 0. -1.
         -6    1    1    2    0  501  0.24716125818E+03  0.50660487280E+02  0.44892694550E+03  0.54293146429E+03  0.17200000000E+03 0.  1.
</event>
<event>
 4    1  0.6365705E-002  0.1794103E+03  0.7818608E-02  0.1168375E+00
          2   -1    0    0  502    0  0.00000000000E+00  0.00000000000E+00  0.51397626027E+03  0.51397626027E+03  0.00000000000E+00 0. -1.
         -2   -1    0    0    0  501 -0.00000000000E+00 -0.00000000000E+00 -0.81448788285E+02  0.81448788285E+02  0.00000000000E+00 0.  1.
          6    1    1    2  502    0  0.46844702837E+02 -0.20239344754E+02  0.35938419099E+03  0.40167779873E+03  0.17200000000E+03 0. -1.
         -6    1    1    2    0  501 -0.46844702837E+02  0.20239344754E+02  0.73143280997E+02  0.19374724983E+03  0.17200000000E+03 0.  1.
</event>
<event>
 4    1  0.6365705E-002  0.3298434E+03  0.7818608E-02  0.1071206E+00
          1   -1    0    0  502    0  0.00000000000E+00  0.00000000000E+00  0.19780555121E+03  0.19780555121E+03  0.00000000000E+00 0. -1.
         -1   -1    0    0    0  501 -0.00000000000E+00 -0.00000000000E+00 -0.56307206606E+03  0.56307206606E+03  0.00000000000E+00 0.  1.
          6    1    1    2  502    0  0.27499046274E+02 -0.28010083166E+03 -0.12470763646E+03  0.35263106504E+03  0.17200000000E+03 0. -1.
         -6    1    1    2    0  501 -0.27499046274E+02  0.28010083166E+03 -0.24055887839E+03  0.40824655223E+03  0.17200000000E+03 0.  1.
</event>
<event>
 4    1  0.6365705E-002  0.1899693E+03  0.7818608E-02  0.1158489E+00
          2   -1    0    0  502    0  0.00000000000E+00  0.00000000000E+00  0.69264304928E+02  0.69264304928E+02  0.00000000000E+00 0. -1.
         -2   -1    0    0    0  501 -0.00000000000E+00 -0.00000000000E+00 -0.59170202350E+03  0.59170202350E+03  0.00000000000E+00 0.  1.
          6    1    1    2  502    0  0.46794654541E+02 -0.65685587109E+02 -0.14699908318E+03  0.24020213676E+03  0.17200000000E+03 0. -1.
         -6    1    1    2    0  501 -0.46794654541E+02  0.65685587109E+02 -0.37543863539E+03  0.42076419167E+03  0.17200000000E+03 0.  1.
</event>
<event>
 4    1  0.6365705E-002  0.2082992E+03  0.7818608E-02  0.1142920E+00
          1   -1    0    0  502    0  0.00000000000E+00  0.00000000000E+00  0.28385086610E+04  0.28385086610E+04  0.00000000000E+00 0. -1.
         -1   -1    0    0    0  501 -0.00000000000E+00 -0.00000000000E+00 -0.18991359413E+02  0.18991359413E+02  0.00000000000E+00 0.  1.
          6    1    1    2  502    0  0.14397331557E+02 -0.11660727340E+03  0.20408788117E+04  0.20514811389E+04  0.17200000000E+03 0. -1.
         -6    1    1    2    0  501 -0.14397331557E+02  0.11660727340E+03  0.77863848990E+03  0.80601888149E+03  0.17200000000E+03 0.  1.
</event>
<event>
 4    1  0.6365705E-002  0.3959229E+03  0.7818608E-02  0.1045201E+00
          2   -1    0    0  502    0  0.00000000000E+00  0.00000000000E+00  0.27420882215E+04  0.27420882215E+04  0.00000000000E+00 0. -1.
         -2   -1    0    0    0  501 -0.00000000000E+00 -0.00000000000E+00 -0.58769220063E+02  0.58769220063E+02  0.00000000000E+00 0.  1.
          6    1    1    2  502    0 -0.35510006096E+03  0.32785064613E+02  0.15729448431E+04  0.16220081360E+04  0.17200000000E+03 0. -1.
         -6    1    1    2    0  501  0.35510006096E+03 -0.32785064613E+02  0.11103741583E+04  0.11788493055E+04  0.17200000000E+03 0.  1.
</event>
<event>
 4    1  0.6365705E-002  0.1823549E+03  0.7818608E-02  0.1165543E+00
          2   -1    0    0  502    0  0.00000000000E+00  0.00000000000E+00  0.59646220759E+02  0.59646220759E+02  0.00000000000E+00 0. -1.
         -2   -1    0    0    0  501 -0.00000000000E+00 -0.00000000000E+00 -0.55752005333E+03  0.55752005333E+03  0.00000000000E+00 0.  1.
          6    1    1    2  502    0 -0.60248076790E+02 -0.62824446501E+01 -0.24755768811E+03  0.30747050072E+03  0.17200000000E+03 0.  1.
         -6    1    1    2    0  501  0.60248076790E+02  0.62824446501E+01 -0.25031614445E+03  0.30969577337E+03  0.17200000000E+03 0. -1.
</event>
<event>
 4    1  0.6365705E-002  0.2091194E+03  0.7818608E-02  0.1142265E+00
          2   -1    0    0  502    0  0.00000000000E+00  0.00000000000E+00  0.90739611172E+03  0.90739611172E+03  0.00000000000E+00 0. -1.
         -2   -1    0    0    0  501 -0.00000000000E+00 -0.00000000000E+00 -0.78706544452E+02  0.78706544452E+02  0.00000000000E+00 0.  1.
          6    1    1    2  502    0  0.11155666178E+02 -0.11841647420E+03  0.72133674586E+03  0.75103768958E+03  0.17200000000E+03 0. -1.
         -6    1    1    2    0  501 -0.11155666178E+02  0.11841647420E+03  0.10735282141E+03  0.23506496658E+03  0.17200000000E+03 0.  1.
</event>
<event>
 4    1  0.6365705E-002  0.1992926E+03  0.7818608E-02  0.1150337E+00
          2   -1    0    0  502    0  0.00000000000E+00  0.00000000000E+00  0.10994633842E+04  0.10994633842E+04  0.00000000000E+00 0. -1.
         -2   -1    0    0    0  501 -0.00000000000E+00 -0.00000000000E+00 -0.39250635668E+02  0.39250635668E+02  0.00000000000E+00 0.  1.
          6    1    1    2  502    0  0.47791170914E+02 -0.88597699696E+02  0.69078802510E+03  0.71896150386E+03  0.17200000000E+03 0. -1.
         -6    1    1    2    0  501 -0.47791170914E+02  0.88597699696E+02  0.36942472338E+03  0.41975251596E+03  0.17200000000E+03 0.  1.
</event>
<event>
 4    1  0.6365705E-002  0.2026933E+03  0.7818608E-02  0.1147486E+00
         -1   -1    0    0    0  501 -0.00000000000E+00  0.00000000000E+00  0.68892202585E+02  0.68892202585E+02  0.00000000000E+00 0.  1.
          1   -1    0    0  502    0  0.00000000000E+00 -0.00000000000E+00 -0.61994174087E+03  0.61994174087E+03  0.00000000000E+00 0. -1.
          6    1    1    2  502    0  0.57999608695E+02 -0.90203147738E+02 -0.34269794707E+03  0.39815379616E+03  0.17200000000E+03 0. -1.
         -6    1    1    2    0  501 -0.57999608695E+02  0.90203147738E+02 -0.20835159122E+03  0.29068014730E+03  0.17200000000E+03 0.  1.
</event>
<event>
 4    1  0.6365705E-002  0.2543734E+03  0.7818608E-02  0.1110572E+00
         -1   -1    0    0    0  501 -0.00000000000E+00  0.00000000000E+00  0.51292236215E+03  0.51292236215E+03  0.00000000000E+00 0.  1.
          1   -1    0    0  502    0  0.00000000000E+00 -0.00000000000E+00 -0.17226993443E+03  0.17226993443E+03  0.00000000000E+00 0. -1.
          6    1    1    2  502    0 -0.88649620884E+02 -0.16511527366E+03 -0.69359633134E+01  0.25446790852E+03  0.17200000000E+03 0. -1.
         -6    1    1    2    0  501  0.88649620884E+02  0.16511527366E+03  0.34758839103E+03  0.43072438805E+03  0.17200000000E+03 0.  1.
</event>
<event>
 4    1  0.6365705E-002  0.3315884E+03  0.7818608E-02  0.1070436E+00
          2   -1    0    0  502    0  0.00000000000E+00  0.00000000000E+00  0.18112612286E+03  0.18112612286E+03  0.00000000000E+00 0. -1.
         -2   -1    0    0    0  501 -0.00000000000E+00 -0.00000000000E+00 -0.65804267438E+03  0.65804267438E+03  0.00000000000E+00 0.  1.
          6    1    1    2  502    0  0.97300520428E+02 -0.26626952182E+03 -0.35527032715E+03  0.48597104325E+03  0.17200000000E+03 0. -1.
         -6    1    1    2    0  501 -0.97300520428E+02  0.26626952182E+03 -0.12164622437E+03  0.35319775400E+03  0.17200000000E+03 0.  1.
</event>
<event>
 4    1  0.6365705E-002  0.6403857E+03  0.7818608E-02  0.9824989E-01
          2   -1    0    0  502    0  0.00000000000E+00  0.00000000000E+00  0.34560939156E+04  0.34560939156E+04  0.00000000000E+00 0. -1.
         -2   -1    0    0    0  501 -0.00000000000E+00 -0.00000000000E+00 -0.17675307952E+03  0.17675307952E+03  0.00000000000E+00 0.  1.
          6    1    1    2  502    0  0.83078778310E+01 -0.61679888138E+03  0.59830644970E+03  0.87639288488E+03  0.17200000000E+03 0. -1.
         -6    1    1    2    0  501 -0.83078778310E+01  0.61679888138E+03  0.26810343864E+04  0.27564541102E+04  0.17200000000E+03 0.  1.
</event>
<event>
 4    1  0.6365705E-002  0.2218073E+03  0.7818608E-02  0.1132543E+00
         -2   -1    0    0    0  501 -0.00000000000E+00  0.00000000000E+00  0.82103807735E+02  0.82103807735E+02  0.00000000000E+00 0.  1.
          2   -1    0    0  502    0  0.00000000000E+00 -0.00000000000E+00 -0.60297025464E+03  0.60297025464E+03  0.00000000000E+00 0. -1.
          6    1    1    2  502    0  0.14004654075E+03 -0.11963985130E+01 -0.28743758152E+03  0.36306862742E+03  0.17200000000E+03 0. -1.
         -6    1    1    2    0  501 -0.14004654075E+03  0.11963985130E+01 -0.23342886538E+03  0.32200543496E+03  0.17200000000E+03 0. -1.
</event>
<event>
 4    1  0.6365705E-002  0.3311129E+03  0.7818608E-02  0.1070645E+00
         -1   -1    0    0    0  501 -0.00000000000E+00  0.00000000000E+00  0.13300110300E+03  0.13300110300E+03  0.00000000000E+00 0.  1.
          1   -1    0    0  502    0  0.00000000000E+00 -0.00000000000E+00 -0.83328093438E+03  0.83328093438E+03  0.00000000000E+00 0. -1.
          6    1    1    2  502    0  0.38972557234E+02 -0.28023726534E+03 -0.30004458167E+03  0.44683614009E+03  0.17200000000E+03 0. -1.
         -6    1    1    2    0  501 -0.38972557234E+02  0.28023726534E+03 -0.40023524971E+03  0.51944589729E+03  0.17200000000E+03 0.  1.
</event>
<event>
 4    1  0.6365705E-002  0.4497456E+03  0.7818608E-02  0.1027798E+00
         -1   -1    0    0    0  501 -0.00000000000E+00  0.00000000000E+00  0.15449322354E+04  0.15449322354E+04  0.00000000000E+00 0.  1.
          1   -1    0    0  502    0  0.00000000000E+00 -0.00000000000E+00 -0.13917875269E+03  0.13917875269E+03  0.00000000000E+00 0. -1.
          6    1    1    2  502    0 -0.34850553732E+03 -0.22634266354E+03  0.90792937853E+03  0.10132161010E+04  0.17200000000E+03 0. -1.
         -6    1    1    2    0  501  0.34850553732E+03  0.22634266354E+03  0.49782410422E+03  0.67089488716E+03  0.17200000000E+03 0.  1.
</event>
<event>
 4    1  0.6365705E-002  0.1797079E+03  0.7818608E-02  0.1168086E+00
         -1   -1    0    0    0  501 -0.00000000000E+00  0.00000000000E+00  0.33815346367E+02  0.33815346367E+02  0.00000000000E+00 0.  1.
          1   -1    0    0  502    0  0.00000000000E+00 -0.00000000000E+00 -0.11704047069E+04  0.11704047069E+04  0.00000000000E+00 0. -1.
          6    1    1    2  502    0  0.26892624417E+02  0.44583762788E+02 -0.82657872493E+03  0.84588847590E+03  0.17200000000E+03 0. -1.
         -6    1    1    2    0  501 -0.26892624417E+02 -0.44583762788E+02 -0.31001063561E+03  0.35833157737E+03  0.17200000000E+03 0.  1.
</event>
<event>
 4    1  0.6365705E-002  0.1815155E+03  0.7818608E-02  0.1166344E+00
          2   -1    0    0  502    0  0.00000000000E+00  0.00000000000E+00  0.15625920997E+04  0.15625920997E+04  0.00000000000E+00 0. -1.
         -2   -1    0    0    0  501 -0.00000000000E+00 -0.00000000000E+00 -0.21610684715E+02  0.21610684715E+02  0.00000000000E+00 0.  1.
          6    1    1    2  502    0  0.79411882015E+01 -0.57452684695E+02  0.89398460157E+03  0.91222603629E+03  0.17200000000E+03 0. -1.
         -6    1    1    2    0  501 -0.79411882015E+01  0.57452684695E+02  0.64699681346E+03  0.67197674816E+03  0.17200000000E+03 0.  1.
</event>
<event>
 4    1  0.6365705E-002  0.5729691E+03  0.7818608E-02  0.9963130E-01
         -2   -1    0    0    0  501 -0.00000000000E+00  0.00000000000E+00  0.23599675941E+03  0.23599675941E+03  0.00000000000E+00 0.  1.
          2   -1    0    0  502    0  0.00000000000E+00 -0.00000000000E+00 -0.14037407852E+04  0.14037407852E+04  0.00000000000E+00 0. -1.
          6    1    1    2  502    0 -0.49808714380E+03 -0.22498621472E+03 -0.50605106529E+03  0.76444835033E+03  0.17200000000E+03 0. -1.
         -6    1    1    2    0  501  0.49808714380E+03  0.22498621472E+03 -0.66169296046E+03  0.87528919424E+03  0.17200000000E+03 0.  1.
</event>
<event>
 4    1  0.6365705E-002  0.4870334E+03  0.7818608E-02  0.1017220E+00
         -2   -1    0    0    0  501 -0.00000000000E+00  0.00000000000E+00  0.12558080812E+03  0.12558080812E+03  0.00000000000E+00 0.  1.
          2   -1    0    0  502    0  0.00000000000E+00 -0.00000000000E+00 -0.20262081308E+04  0.20262081308E+04  0.00000000000E+00 0. -1.
          6    1    1    2  502    0 -0.43131511083E+03 -0.14691783624E+03 -0.12304546530E+04  0.13233367782E+04  0.17200000000E+03 0. -1.
         -6    1    1    2    0  501  0.43131511083E+03  0.14691783624E+03 -0.67017266969E+03  0.82845216074E+03  0.17200000000E+03 0. -1.
</event>
<event>
 4    1  0.6365705E-002  0.1914468E+03  0.7818608E-02  0.1157163E+00
          2   -1    0    0  502    0  0.00000000000E+00  0.00000000000E+00  0.13608135204E+04  0.13608135204E+04  0.00000000000E+00 0. -1.
         -2   -1    0    0    0  501 -0.00000000000E+00 -0.00000000000E+00 -0.32466333053E+02  0.32466333053E+02  0.00000000000E+00 0.  1.
          6    1    1    2  502    0  0.51537433028E+02 -0.66421245563E+02  0.37659704211E+03  0.42246564474E+03  0.17200000000E+03 0.  1.
         -6    1    1    2    0  501 -0.51537433028E+02  0.66421245563E+02  0.95175014522E+03  0.97081420869E+03  0.17200000000E+03 0. -1.
</event>
<event>
 4    1  0.6365705E-002  0.2278273E+03  0.7818608E-02  0.1128178E+00
          2   -1    0    0  502    0  0.00000000000E+00  0.00000000000E+00  0.30859560547E+04  0.30859560547E+04  0.00000000000E+00 0. -1.
         -2   -1    0    0    0  501 -0.00000000000E+00 -0.00000000000E+00 -0.20302032304E+02  0.20302032304E+02  0.00000000000E+00 0.  1.
          6    1    1    2  502    0  0.12721729448E+03  0.78339390540E+02  0.21760534632E+04  0.21879474342E+04  0.17200000000E+03 0. -1.
         -6    1    1    2    0  501 -0.12721729448E+03 -0.78339390540E+02  0.88960055917E+03  0.91831065277E+03  0.17200000000E+03 0.  1.
</event>
<event>
 4    1  0.6365705E-002  0.1984597E+03  0.7818608E-02  0.1151045E+00
          1   -1    0    0  502    0  0.00000000000E+00  0.00000000000E+00  0.40399182246E+03  0.40399182246E+03  0.00000000000E+00 0. -1.
         -1   -1    0    0    0  501 -0.00000000000E+00 -0.00000000000E+00 -0.10197168402E+03  0.10197168402E+03  0.00000000000E+00 0.  1.
          6    1    1    2  502    0 -0.72563746974E+02 -0.67355501919E+02  0.97990247475E+02  0.22133311911E+03  0.17200000000E+03 0.  1.
         -6    1    1    2    0  501  0.72563746974E+02  0.67355501919E+02  0.20402989096E+03  0.28463038738E+03  0.17200000000E+03 0. -1.
</event>
<event>
 4    1  0.6365705E-002  0.2266401E+03  0.7818608E-02  0.1129027E+00
         -2   -1    0    0    0  501 -0.00000000000E+00  0.00000000000E+00  0.50044864369E+03  0.50044864369E+03  0.00000000000E+00 0.  1.
          2   -1    0    0  502    0  0.00000000000E+00 -0.00000000000E+00 -0.10275280679E+03  0.10275280679E+03  0.00000000000E+00 0. -1.
          6    1    1    2  502    0 -0.10604346062E+03  0.10264749206E+03  0.18882597281E+03  0.29499317141E+03  0.17200000000E+03 0. -1.
         -6    1    1    2    0  501  0.10604346062E+03 -0.10264749206E+03  0.20886986408E+03  0.30820827907E+03  0.17200000000E+03 0.  1.
</event>
<event>
 4    1  0.6365705E-002  0.3007792E+03  0.7818608E-02  0.1084852E+00
          1   -1    0    0  502    0  0.00000000000E+00  0.00000000000E+00  0.79992923146E+03  0.79992923146E+03  0.00000000000E+00 0. -1.
         -1   -1    0    0    0  501 -0.00000000000E+00 -0.00000000000E+00 -0.27141752495E+03  0.27141752495E+03  0.00000000000E+00 0.  1.
          6    1    1    2  502    0 -0.23909425643E+03 -0.60975917493E+02  0.67337730534E+03  0.73749923479E+03  0.17200000000E+03 0. -1.
         -6    1    1    2    0  501  0.23909425643E+03  0.60975917493E+02 -0.14486559883E+03  0.33384752163E+03  0.17200000000E+03 0.  1.
</event>
<event>
 4    1  0.6365705E-002  0.1772525E+03  0.7818608E-02  0.1170489E+00
         -2   -1    0    0    0  501 -0.00000000000E+00  0.00000000000E+00  0.31691054399E+02  0.31691054399E+02  0.00000000000E+00 0.  1.
          2   -1    0    0  502    0  0.00000000000E+00 -0.00000000000E+00 -0.12029044941E+04  0.12029044941E+04  0.00000000000E+00 0. -1.
          6    1    1    2  502    0 -0.26748859248E+02  0.33450636242E+02 -0.84445246844E+03  0.86285480702E+03  0.17200000000E+03 0. -1.
         -6    1    1    2    0  501  0.26748859248E+02 -0.33450636242E+02 -0.32676097123E+03  0.37174074145E+03  0.17200000000E+03 0.  1.
</event>
<event>
 4    1  0.6365705E-002  0.1912534E+03  0.7818608E-02  0.1157336E+00
         -2   -1    0    0    0  501 -0.00000000000E+00  0.00000000000E+00  0.25078133779E+03  0.25078133779E+03  0.00000000000E+00 0.  1.
          2   -1    0    0  502    0  0.00000000000E+00 -0.00000000000E+00 -0.17077348028E+03  0.17077348028E+03  0.00000000000E+00 0. -1.
          6    1    1    2  502    0  0.49859691322E+01 -0.83480526917E+02  0.12051758359E+03  0.22605828058E+03  0.17200000000E+03 0.  1.
         -6    1    1    2    0  501 -0.49859691322E+01  0.83480526917E+02 -0.40509726086E+02  0.19549653749E+03  0.17200000000E+03 0. -1.
</event>
<event>
 4    1  0.6365705E-002  0.2428757E+03  0.7818608E-02  0.1117892E+00
          2   -1    0    0  502    0  0.00000000000E+00  0.00000000000E+00  0.13275558640E+03  0.13275558640E+03  0.00000000000E+00 0. -1.
         -2   -1    0    0    0  501 -0.00000000000E+00 -0.00000000000E+00 -0.56806946938E+03  0.56806946938E+03  0.00000000000E+00 0.  1.
          6    1    1    2  502    0  0.58045405250E+02  0.16135473401E+03 -0.38119372398E+03  0.45199256018E+03  0.17200000000E+03 0.  1.
         -6    1    1    2    0  501 -0.58045405250E+02 -0.16135473401E+03 -0.54120158999E+02  0.24883249560E+03  0.17200000000E+03 0. -1.
</event>
<event>
 4    1  0.6365705E-002  0.2228925E+03  0.7818608E-02  0.1131745E+00
          1   -1    0    0  502    0  0.00000000000E+00  0.00000000000E+00  0.58020777833E+03  0.58020777833E+03  0.00000000000E+00 0. -1.
         -1   -1    0    0    0  501 -0.00000000000E+00 -0.00000000000E+00 -0.14198199809E+03  0.14198199809E+03  0.00000000000E+00 0.  1.
          6    1    1    2  502    0  0.13848663709E+03 -0.30307202419E+02  0.44660870789E+03  0.49913967297E+03  0.17200000000E+03 0. -1.
         -6    1    1    2    0  501 -0.13848663709E+03  0.30307202419E+02 -0.83829276618E+01  0.22305010345E+03  0.17200000000E+03 0.  1.
</event>
<event>
 4    1  0.6365705E-002  0.7005860E+03  0.7818608E-02  0.9716231E-01
          2   -1    0    0  502    0  0.00000000000E+00  0.00000000000E+00  0.29680792253E+04  0.29680792253E+04  0.00000000000E+00 0. -1.
         -2   -1    0    0    0  501 -0.00000000000E+00 -0.00000000000E+00 -0.17470902030E+03  0.17470902030E+03  0.00000000000E+00 0.  1.
          6    1    1    2  502    0 -0.46088201645E+03 -0.49882317384E+03  0.10333058538E+04  0.12484157078E+04  0.17200000000E+03 0. -1.
         -6    1    1    2    0  501  0.46088201645E+03  0.49882317384E+03  0.17600643511E+04  0.18943725378E+04  0.17200000000E+03 0.  1.
</event>
<event>
 4    1  0.6365705E-002  0.2200958E+03  0.7818608E-02  0.1133812E+00
          1   -1    0    0  502    0  0.00000000000E+00  0.00000000000E+00  0.11309940757E+04  0.11309940757E+04  0.00000000000E+00 0. -1.
         -1   -1    0    0    0  501 -0.00000000000E+00 -0.00000000000E+00 -0.12633968781E+03  0.12633968781E+03  0.00000000000E+00 0.  1.
          6    1    1    2  502    0 -0.98536253775E+02  0.95649232929E+02  0.10134381855E+04  0.10370627391E+04  0.17200000000E+03 0. -1.
         -6    1    1    2    0  501  0.98536253775E+02 -0.95649232929E+02 -0.87837976309E+01  0.22027102435E+03  0.17200000000E+03 0.  1.
</event>
<event>
 4    1  0.6365705E-002  0.2969586E+03  0.7818608E-02  0.1086771E+00
          1   -1    0    0  502    0  0.00000000000E+00  0.00000000000E+00  0.13482338419E+04  0.13482338419E+04  0.00000000000E+00 0. -1.
         -1   -1    0    0    0  501 -0.00000000000E+00 -0.00000000000E+00 -0.18995434283E+03  0.18995434283E+03  0.00000000000E+00 0.  1.
          6    1    1    2  502    0 -0.23254188121E+03  0.67265909406E+02  0.12019008120E+04  0.12380428066E+04  0.17200000000E+03 0. -1.
         -6    1    1    2    0  501  0.23254188121E+03 -0.67265909406E+02 -0.43621312904E+02  0.30014537815E+03  0.17200000000E+03 0.  1.
</event>
<event>
 4    1  0.6365705E-002  0.2681982E+03  0.7818608E-02  0.1102315E+00
          2   -1    0    0  502    0  0.00000000000E+00  0.00000000000E+00  0.45136877868E+03  0.45136877868E+03  0.00000000000E+00 0. -1.
         -2   -1    0    0    0  501 -0.00000000000E+00 -0.00000000000E+00 -0.27355120512E+03  0.27355120512E+03  0.00000000000E+00 0.  1.
          6    1    1    2  502    0  0.20973290310E+01  0.20577147769E+03  0.32309232690E+03  0.41990350263E+03  0.17200000000E+03 0. -1.
         -6    1    1    2    0  501 -0.20973290310E+01 -0.20577147769E+03 -0.14527475334E+03  0.30501648116E+03  0.17200000000E+03 0.  1.
</event>
<event>
 4    1  0.6365705E-002  0.1960458E+03  0.7818608E-02  0.1153119E+00
         -1   -1    0    0    0  501 -0.00000000000E+00  0.00000000000E+00  0.50024286920E+02  0.50024286920E+02  0.00000000000E+00 0.  1.
          1   -1    0    0  502    0  0.00000000000E+00 -0.00000000000E+00 -0.26608951197E+04  0.26608951197E+04  0.00000000000E+00 0. -1.
          6    1    1    2  502    0  0.75423866911E+02  0.56224612425E+02 -0.24485792710E+04  0.24564149513E+04  0.17200000000E+03 0. -1.
         -6    1    1    2    0  501 -0.75423866911E+02 -0.56224612425E+02 -0.16229156180E+03  0.25450445532E+03  0.17200000000E+03 0.  1.
</event>
<event>
 4    1  0.6365705E-002  0.1767191E+03  0.7818608E-02  0.1171017E+00
          2   -1    0    0  502    0  0.00000000000E+00  0.00000000000E+00  0.57621537904E+03  0.57621537904E+03  0.00000000000E+00 0. -1.
         -2   -1    0    0    0  501 -0.00000000000E+00 -0.00000000000E+00 -0.54629188680E+02  0.54629188680E+02  0.00000000000E+00 0.  1.
          6    1    1    2  502    0 -0.18455705178E+01  0.40524565057E+02  0.28882024079E+03  0.33859530120E+03  0.17200000000E+03 0. -1.
         -6    1    1    2    0  501  0.18455705178E+01 -0.40524565057E+02  0.23276594957E+03  0.29224926652E+03  0.17200000000E+03 0.  1.
</event>
<event>
 4    1  0.6365705E-002  0.3208579E+03  0.7818608E-02  0.1075255E+00
          1   -1    0    0  502    0  0.00000000000E+00  0.00000000000E+00  0.42257438752E+03  0.42257438752E+03  0.00000000000E+00 0. -1.
         -1   -1    0    0    0  501 -0.00000000000E+00 -0.00000000000E+00 -0.27673413384E+03  0.27673413384E+03  0.00000000000E+00 0.  1.
          6    1    1    2  502    0  0.21253202652E+03 -0.16791650181E+03  0.19386274650E+03  0.37487675088E+03  0.17200000000E+03 0. -1.
         -6    1    1    2    0  501 -0.21253202652E+03  0.16791650181E+03 -0.48022492819E+02  0.32443177047E+03  0.17200000000E+03 0.  1.
</event>
<event>
 4    1  0.6365705E-002  0.1862892E+03  0.7818608E-02  0.1161851E+00
         -2   -1    0    0    0  501 -0.00000000000E+00  0.00000000000E+00  0.50882801958E+03  0.50882801958E+03  0.00000000000E+00 0.  1.
          2   -1    0    0  502    0  0.00000000000E+00 -0.00000000000E+00 -0.68473330986E+02  0.68473330986E+02  0.00000000000E+00 0. -1.
          6    1    1    2  502    0 -0.31951968098E+02  0.64021261087E+02  0.20204405766E+03  0.27481894289E+03  0.17200000000E+03 0. -1.
         -6    1    1    2    0  501  0.31951968098E+02 -0.64021261087E+02  0.23831063094E+03  0.30248240768E+03  0.17200000000E+03 0.  1.
</event>
<event>
 4    1  0.6365705E-002  0.1993961E+03  0.7818608E-02  0.1150250E+00
          2   -1    0    0  502    0  0.00000000000E+00  0.00000000000E+00  0.65307770398E+03  0.65307770398E+03  0.00000000000E+00 0. -1.
         -2   -1    0    0    0  501 -0.00000000000E+00 -0.00000000000E+00 -0.60880923451E+02  0.60880923451E+02  0.00000000000E+00 0.  1.
          6    1    1    2  502    0  0.95750864569E+01  0.10041467842E+03  0.29415053935E+03  0.35536365841E+03  0.17200000000E+03 0. -1.
         -6    1    1    2    0  501 -0.95750864569E+01 -0.10041467842E+03  0.29804624118E+03  0.35859496902E+03  0.17200000000E+03 0. -1.
</event>
<event>
 4    1  0.6365705E-002  0.2392352E+03  0.7818608E-02  0.1120303E+00
         -4   -1    0    0    0  501 -0.00000000000E+00  0.00000000000E+00  0.31831493090E+03  0.31831493090E+03  0.00000000000E+00 0.  1.
          4   -1    0    0  502    0  0.00000000000E+00 -0.00000000000E+00 -0.25034862130E+03  0.25034862130E+03  0.00000000000E+00 0. -1.
          6    1    1    2  502    0 -0.78964015181E+02 -0.14633574747E+03 -0.11695282779E+03  0.26629200252E+03  0.17200000000E+03 0. -1.
         -6    1    1    2    0  501  0.78964015181E+02  0.14633574747E+03  0.18491913739E+03  0.30237154968E+03  0.17200000000E+03 0.  1.
</event>
<event>
 4    1  0.6365705E-002  0.2003513E+03  0.7818608E-02  0.1149443E+00
          2   -1    0    0  502    0  0.00000000000E+00  0.00000000000E+00  0.47896363489E+02  0.47896363489E+02  0.00000000000E+00 0. -1.
         -2   -1    0    0    0  501 -0.00000000000E+00 -0.00000000000E+00 -0.93862837897E+03  0.93862837897E+03  0.00000000000E+00 0.  1.
          6    1    1    2  502    0  0.61387937453E+02  0.82390282063E+02 -0.60681462220E+03  0.63903413301E+03  0.17200000000E+03 0. -1.
         -6    1    1    2    0  501 -0.61387937453E+02 -0.82390282063E+02 -0.28391739328E+03  0.34749060944E+03  0.17200000000E+03 0. -1.
</event>
<event>
 4    1  0.6365705E-002  0.1764329E+03  0.7818608E-02  0.1171301E+00
          1   -1    0    0  502    0  0.00000000000E+00  0.00000000000E+00  0.48003624126E+02  0.48003624126E+02  0.00000000000E+00 0. -1.
         -1   -1    0    0    0  501 -0.00000000000E+00 -0.00000000000E+00 -0.64916155214E+03  0.64916155214E+03  0.00000000000E+00 0.  1.
          6    1    1    2  502    0  0.38744709533E+01 -0.39109396738E+02 -0.28914114754E+03  0.33871988374E+03  0.17200000000E+03 0. -1.
         -6    1    1    2    0  501 -0.38744709533E+01  0.39109396738E+02 -0.31201678047E+03  0.35844529252E+03  0.17200000000E+03 0. -1.
</event>
<event>
 4    1  0.6365705E-002  0.5024897E+03  0.7818608E-02  0.1013131E+00
         -1   -1    0    0    0  501 -0.00000000000E+00  0.00000000000E+00  0.10036055066E+03  0.10036055066E+03  0.00000000000E+00 0.  1.
          1   -1    0    0  502    0  0.00000000000E+00 -0.00000000000E+00 -0.26048653246E+04  0.26048653246E+04  0.00000000000E+00 0. -1.
          6    1    1    2  502    0 -0.46876817391E+03 -0.56287552720E+02 -0.15022414168E+04  0.15840533967E+04  0.17200000000E+03 0. -1.
         -6    1    1    2    0  501  0.46876817391E+03  0.56287552720E+02 -0.10022633572E+04  0.11211724785E+04  0.17200000000E+03 0.  1.
</event>
<event>
 4    1  0.6365705E-002  0.3278493E+03  0.7818608E-02  0.1072092E+00
          1   -1    0    0  502    0  0.00000000000E+00  0.00000000000E+00  0.12436520764E+04  0.12436520764E+04  0.00000000000E+00 0. -1.
         -1   -1    0    0    0  501 -0.00000000000E+00 -0.00000000000E+00 -0.52886762024E+03  0.52886762024E+03  0.00000000000E+00 0.  1.
          6    1    1    2  502    0  0.26338132085E+03  0.92365698877E+02  0.11680080414E+04  0.12131479412E+04  0.17200000000E+03 0. -1.
         -6    1    1    2    0  501 -0.26338132085E+03 -0.92365698877E+02 -0.45322358526E+03  0.55937175540E+03  0.17200000000E+03 0.  1.
</event>
<event>
 4    1  0.6365705E-002  0.3932433E+03  0.7818608E-02  0.1046145E+00
          3   -1    0    0  502    0  0.00000000000E+00  0.00000000000E+00  0.18674092087E+04  0.18674092087E+04  0.00000000000E+00 0. -1.
         -3   -1    0    0    0  501 -0.00000000000E+00 -0.00000000000E+00 -0.84662581895E+02  0.84662581895E+02  0.00000000000E+00 0.  1.
          6    1    1    2  502    0 -0.35022940849E+03 -0.48945389170E+02  0.10357511026E+04  0.11078901734E+04  0.17200000000E+03 0. -1.
         -6    1    1    2    0  501  0.35022940849E+03  0.48945389170E+02  0.74699552415E+03  0.84418161718E+03  0.17200000000E+03 0.  1.
</event>
<event>
 4    1  0.6365705E-002  0.4738299E+03  0.7818608E-02  0.1020845E+00
         -2   -1    0    0    0  501 -0.00000000000E+00  0.00000000000E+00  0.31522908888E+03  0.31522908888E+03  0.00000000000E+00 0.  1.
          2   -1    0    0  502    0  0.00000000000E+00 -0.00000000000E+00 -0.10071883356E+04  0.10071883356E+04  0.00000000000E+00 0. -1.
          6    1    1    2  502    0 -0.41402060714E+03  0.15335483569E+03 -0.70380038385E+03  0.84843959660E+03  0.17200000000E+03 0. -1.
         -6    1    1    2    0  501  0.41402060714E+03 -0.15335483569E+03  0.11841137154E+02  0.47397782785E+03  0.17200000000E+03 0.  1.
</event>
<event>
 4    1  0.6365705E-002  0.1928457E+03  0.7818608E-02  0.1155919E+00
         -1   -1    0    0    0  501 -0.00000000000E+00  0.00000000000E+00  0.11346145887E+03  0.11346145887E+03  0.00000000000E+00 0.  1.
          1   -1    0    0  502    0  0.00000000000E+00 -0.00000000000E+00 -0.12884227455E+04  0.12884227455E+04  0.00000000000E+00 0. -1.
          6    1    1    2  502    0 -0.82575058501E+02 -0.28050154705E+02 -0.11927320292E+04  0.12082214801E+04  0.17200000000E+03 0. -1.
         -6    1    1    2    0  501  0.82575058501E+02  0.28050154705E+02  0.17770742612E+02  0.19366272424E+03  0.17200000000E+03 0.  1.
</event>
<event>
 4    1  0.6365705E-002  0.1837325E+03  0.7818608E-02  0.1164239E+00
          2   -1    0    0  502    0  0.00000000000E+00  0.00000000000E+00  0.83628773696E+03  0.83628773696E+03  0.00000000000E+00 0. -1.
         -2   -1    0    0    0  501 -0.00000000000E+00 -0.00000000000E+00 -0.45713498586E+02  0.45713498586E+02  0.00000000000E+00 0.  1.
          6    1    1    2  502    0 -0.88789353383E+01 -0.63990633669E+02  0.54611793432E+03  0.57619652452E+03  0.17200000000E+03 0. -1.
         -6    1    1    2    0  501  0.88789353383E+01  0.63990633669E+02  0.24445630406E+03  0.30580471102E+03  0.17200000000E+03 0.  1.
</event>
<event>
 4    1  0.6365705E-002  0.1854530E+03  0.7818608E-02  0.1162628E+00
         -2   -1    0    0    0  501 -0.00000000000E+00  0.00000000000E+00  0.82289056280E+02  0.82289056280E+02  0.00000000000E+00 0.  1.
          2   -1    0    0  502    0  0.00000000000E+00 -0.00000000000E+00 -0.53176583373E+03  0.53176583373E+03  0.00000000000E+00 0. -1.
          6    1    1    2  502    0  0.66216482698E-01  0.69345486960E+02 -0.36678021310E+03  0.41099942295E+03  0.17200000000E+03 0. -1.
         -6    1    1    2    0  501 -0.66216482698E-01 -0.69345486960E+02 -0.82696564351E+02  0.20305546706E+03  0.17200000000E+03 0. -1.
</event>
<event>
 4    1  0.6365705E-002  0.1897943E+03  0.7818608E-02  0.1158647E+00
          2   -1    0    0  502    0  0.00000000000E+00  0.00000000000E+00  0.11423658792E+04  0.11423658792E+04  0.00000000000E+00 0. -1.
         -2   -1    0    0    0  501 -0.00000000000E+00 -0.00000000000E+00 -0.49316125351E+02  0.49316125351E+02  0.00000000000E+00 0.  1.
          6    1    1    2  502    0 -0.26089244160E+02  0.75876515462E+02  0.90432746139E+03  0.92402924828E+03  0.17200000000E+03 0. -1.
         -6    1    1    2    0  501  0.26089244160E+02 -0.75876515462E+02  0.18872229242E+03  0.26765275622E+03  0.17200000000E+03 0.  1.
</event>
<event>
 4    1  0.6365705E-002  0.3111563E+03  0.7818608E-02  0.1079793E+00
          2   -1    0    0  502    0  0.00000000000E+00  0.00000000000E+00  0.38353690391E+03  0.38353690391E+03  0.00000000000E+00 0. -1.
         -2   -1    0    0    0  501 -0.00000000000E+00 -0.00000000000E+00 -0.25245519135E+03  0.25245519135E+03  0.00000000000E+00 0.  1.
          6    1    1    2  502    0  0.23368252352E+03 -0.11236862426E+03  0.68367951504E+02  0.31857872859E+03  0.17200000000E+03 0. -1.
         -6    1    1    2    0  501 -0.23368252352E+03  0.11236862426E+03  0.62713761048E+02  0.31741336667E+03  0.17200000000E+03 0.  1.
</event>
<event>
 4    1  0.6365705E-002  0.1748006E+03  0.7818608E-02  0.1172932E+00
          2   -1    0    0  502    0  0.00000000000E+00  0.00000000000E+00  0.40176609845E+03  0.40176609845E+03  0.00000000000E+00 0. -1.
         -2   -1    0    0    0  501 -0.00000000000E+00 -0.00000000000E+00 -0.90427674842E+02  0.90427674842E+02  0.00000000000E+00 0.  1.
          6    1    1    2  502    0 -0.20550896437E+02 -0.23429207594E+02  0.57547785850E+02  0.18402992900E+03  0.17200000000E+03 0.  1.
         -6    1    1    2    0  501  0.20550896437E+02  0.23429207594E+02  0.25379063776E+03  0.30816384429E+03  0.17200000000E+03 0. -1.
</event>
<event>
 4    1  0.6365705E-002  0.2016805E+03  0.7818608E-02  0.1148329E+00
          1   -1    0    0  502    0  0.00000000000E+00  0.00000000000E+00  0.54817907976E+03  0.54817907976E+03  0.00000000000E+00 0. -1.
         -1   -1    0    0    0  501 -0.00000000000E+00 -0.00000000000E+00 -0.10813902567E+03  0.10813902567E+03  0.00000000000E+00 0.  1.
          6    1    1    2  502    0 -0.55668980050E+02 -0.89397924171E+02  0.40386055374E+03  0.45141817758E+03  0.17200000000E+03 0. -1.
         -6    1    1    2    0  501  0.55668980050E+02  0.89397924171E+02  0.36179500357E+02  0.20489992785E+03  0.17200000000E+03 0.  1.
</event>
<event>
 4    1  0.6365705E-002  0.1986315E+03  0.7818608E-02  0.1150899E+00
          2   -1    0    0  502    0  0.00000000000E+00  0.00000000000E+00  0.51231806256E+03  0.51231806256E+03  0.00000000000E+00 0. -1.
         -2   -1    0    0    0  501 -0.00000000000E+00 -0.00000000000E+00 -0.93447752022E+02  0.93447752022E+02  0.00000000000E+00 0.  1.
          6    1    1    2  502    0  0.44392180371E-01  0.99350166194E+02  0.33646032896E+03  0.39071730248E+03  0.17200000000E+03 0. -1.
         -6    1    1    2    0  501 -0.44392180371E-01 -0.99350166194E+02  0.82409981577E+02  0.21504851210E+03  0.17200000000E+03 0.  1.
</event>
<event>
 4    1  0.6365705E-002  0.2044370E+03  0.7818608E-02  0.1146049E+00
         -2   -1    0    0    0  501 -0.00000000000E+00  0.00000000000E+00  0.17470576260E+03  0.17470576260E+03  0.00000000000E+00 0.  1.
          2   -1    0    0  502    0  0.00000000000E+00 -0.00000000000E+00 -0.26830988043E+03  0.26830988043E+03  0.00000000000E+00 0. -1.
          6    1    1    2  502    0 -0.68393658466E+02  0.86791688375E+02 -0.11972813578E+03  0.23691626408E+03  0.17200000000E+03 0. -1.
         -6    1    1    2    0  501  0.68393658466E+02 -0.86791688375E+02  0.26124017954E+02  0.20609937895E+03  0.17200000000E+03 0.  1.
</event>
<event>
 4    1  0.6365705E-002  0.3213681E+03  0.7818608E-02  0.1075021E+00
         -1   -1    0    0    0  501 -0.00000000000E+00  0.00000000000E+00  0.12528348318E+03  0.12528348318E+03  0.00000000000E+00 0.  1.
          1   -1    0    0  502    0  0.00000000000E+00 -0.00000000000E+00 -0.14241582715E+04  0.14241582715E+04  0.00000000000E+00 0. -1.
          6    1    1    2  502    0 -0.22131775914E+03  0.15720018535E+03 -0.11522108366E+04  0.11961886393E+04  0.17200000000E+03 0. -1.
         -6    1    1    2    0  501  0.22131775914E+03 -0.15720018535E+03 -0.14666395169E+03  0.35325311536E+03  0.17200000000E+03 0.  1.
</event>
<event>
 4    1  0.6365705E-002  0.2042977E+03  0.7818608E-02  0.1146163E+00
         -1   -1    0    0    0  501 -0.00000000000E+00  0.00000000000E+00  0.33392031617E+02  0.33392031617E+02  0.00000000000E+00 0.  1.
          1   -1    0    0  502    0  0.00000000000E+00 -0.00000000000E+00 -0.14206160301E+04  0.14206160301E+04  0.00000000000E+00 0. -1.
          6    1    1    2  502    0 -0.77561700850E+02 -0.78343750425E+02 -0.94561333311E+03  0.96743068818E+03  0.17200000000E+03 0. -1.
         -6    1    1    2    0  501  0.77561700850E+02  0.78343750425E+02 -0.44161066536E+03  0.48657737352E+03  0.17200000000E+03 0. -1.
</event>
<event>
 4    1  0.6365705E-002  0.1784994E+03  0.7818608E-02  0.1169263E+00
          2   -1    0    0  502    0  0.00000000000E+00  0.00000000000E+00  0.92957882591E+03  0.92957882591E+03  0.00000000000E+00 0. -1.
         -2   -1    0    0    0  501 -0.00000000000E+00 -0.00000000000E+00 -0.43268800504E+02  0.43268800504E+02  0.00000000000E+00 0.  1.
          6    1    1    2  502    0  0.90451917005E+01  0.46863878799E+02  0.66491347937E+03  0.68845622495E+03  0.17200000000E+03 0. -1.
         -6    1    1    2    0  501 -0.90451917005E+01 -0.46863878799E+02  0.22139654604E+03  0.28439140147E+03  0.17200000000E+03 0. -1.
</event>
<event>
 4    1  0.6365705E-002  0.1925119E+03  0.7818608E-02  0.1156215E+00
         -2   -1    0    0    0  501 -0.00000000000E+00  0.00000000000E+00  0.28185271006E+02  0.28185271006E+02  0.00000000000E+00 0.  1.
          2   -1    0    0  502    0  0.00000000000E+00 -0.00000000000E+00 -0.21072591384E+04  0.21072591384E+04  0.00000000000E+00 0. -1.
          6    1    1    2  502    0  0.58604367107E+02 -0.63579428379E+02 -0.16942640239E+04  0.17051660911E+04  0.17200000000E+03 0. -1.
         -6    1    1    2    0  501 -0.58604367107E+02  0.63579428379E+02 -0.38480984352E+03  0.43027831833E+03  0.17200000000E+03 0.  1.
</event>
<event>
 4    1  0.6365705E-002  0.2605541E+03  0.7818608E-02  0.1106811E+00
         -2   -1    0    0    0  501 -0.00000000000E+00  0.00000000000E+00  0.47631884326E+02  0.47631884326E+02  0.00000000000E+00 0.  1.
          2   -1    0    0  502    0  0.00000000000E+00 -0.00000000000E+00 -0.23622934770E+04  0.23622934770E+04  0.00000000000E+00 0. -1.
          6    1    1    2  502    0 -0.31679707710E+02  0.19313420616E+03 -0.39843652207E+03  0.47606731414E+03  0.17200000000E+03 0.  1.
         -6    1    1    2    0  501  0.31679707710E+02 -0.19313420616E+03 -0.19162250706E+04  0.19338580471E+04  0.17200000000E+03 0. -1.
</event>
<event>
 4    1  0.6365705E-002  0.3294922E+03  0.7818608E-02  0.1071362E+00
          2   -1    0    0  502    0  0.00000000000E+00  0.00000000000E+00  0.26869043747E+03  0.26869043747E+03  0.00000000000E+00 0. -1.
         -2   -1    0    0    0  501 -0.00000000000E+00 -0.00000000000E+00 -0.51378949508E+03  0.51378949508E+03  0.00000000000E+00 0.  1.
          6    1    1    2  502    0 -0.15076853063E+03  0.23717070101E+03  0.58262275102E+02  0.33460362214E+03  0.17200000000E+03 0. -1.
         -6    1    1    2    0  501  0.15076853063E+03 -0.23717070101E+03 -0.30336133271E+03  0.44787631041E+03  0.17200000000E+03 0.  1.
</event>
<event>
 4    1  0.6365705E-002  0.2322560E+03  0.7818608E-02  0.1125062E+00
         -2   -1    0    0    0  501 -0.00000000000E+00  0.00000000000E+00  0.47787752248E+03  0.47787752248E+03  0.00000000000E+00 0.  1.
          2   -1    0    0  502    0  0.00000000000E+00 -0.00000000000E+00 -0.35743275417E+03  0.35743275417E+03  0.00000000000E+00 0. -1.
          6    1    1    2  502    0  0.12480272641E+03 -0.93718310589E+02 -0.28524486592E+03  0.36784164499E+03  0.17200000000E+03 0. -1.
         -6    1    1    2    0  501 -0.12480272641E+03  0.93718310589E+02  0.40568963423E+03  0.46746863166E+03  0.17200000000E+03 0.  1.
</event>
<event>
 4    1  0.6365705E-002  0.1748514E+03  0.7818608E-02  0.1172881E+00
          2   -1    0    0  502    0  0.00000000000E+00  0.00000000000E+00  0.30218338259E+04  0.30218338259E+04  0.00000000000E+00 0. -1.
         -2   -1    0    0    0  501 -0.00000000000E+00 -0.00000000000E+00 -0.12281078855E+02  0.12281078855E+02  0.00000000000E+00 0.  1.
          6    1    1    2  502    0 -0.15387697117E+02 -0.27426534357E+02  0.21415479563E+04  0.21486741598E+04  0.17200000000E+03 0. -1.
         -6    1    1    2    0  501  0.15387697117E+02  0.27426534357E+02  0.86800479078E+03  0.88544074495E+03  0.17200000000E+03 0.  1.
</event>
<event>
 4    1  0.6365705E-002  0.2027966E+03  0.7818608E-02  0.1147401E+00
          1   -1    0    0  502    0  0.00000000000E+00  0.00000000000E+00  0.24234996067E+03  0.24234996067E+03  0.00000000000E+00 0. -1.
         -1   -1    0    0    0  501 -0.00000000000E+00 -0.00000000000E+00 -0.32777253425E+03  0.32777253425E+03  0.00000000000E+00 0.  1.
          6    1    1    2  502    0  0.58934597889E+02  0.89828504403E+02  0.15525080966E+03  0.25540019760E+03  0.17200000000E+03 0. -1.
         -6    1    1    2    0  501 -0.58934597889E+02 -0.89828504403E+02 -0.24067338325E+03  0.31472229733E+03  0.17200000000E+03 0.  1.
</event>
<event>
 4    1  0.6365705E-002  0.2395507E+03  0.7818608E-02  0.1120092E+00
         -2   -1    0    0    0  501 -0.00000000000E+00  0.00000000000E+00  0.86808908136E+03  0.86808908136E+03  0.00000000000E+00 0.  1.
          2   -1    0    0  502    0  0.00000000000E+00 -0.00000000000E+00 -0.10002054043E+03  0.10002054043E+03  0.00000000000E+00 0. -1.
          6    1    1    2  502    0  0.11672467303E+03 -0.11906256425E+03  0.10216165062E+03  0.26042570218E+03  0.17200000000E+03 0.  1.
         -6    1    1    2    0  501 -0.11672467303E+03  0.11906256425E+03  0.66590689032E+03  0.70768391961E+03  0.17200000000E+03 0.  1.
</event>
<event>
 4    1  0.6365705E-002  0.4583486E+03  0.7818608E-02  0.1025261E+00
         -1   -1    0    0    0  501 -0.00000000000E+00  0.00000000000E+00  0.32786891273E+03  0.32786891273E+03  0.00000000000E+00 0.  1.
          1   -1    0    0  502    0  0.00000000000E+00 -0.00000000000E+00 -0.71310203401E+03  0.71310203401E+03  0.00000000000E+00 0. -1.
          6    1    1    2  502    0 -0.25052766033E+03 -0.34312583143E+03 -0.35840146206E+03  0.58183765158E+03  0.17200000000E+03 0.  1.
         -6    1    1    2    0  501  0.25052766033E+03  0.34312583143E+03 -0.26831659220E+02  0.45913329516E+03  0.17200000000E+03 0. -1.
</event>
<event>
 4    1  0.6365705E-002  0.3347036E+03  0.7818608E-02  0.1069074E+00
          2   -1    0    0  502    0  0.00000000000E+00  0.00000000000E+00  0.10513420932E+04  0.10513420932E+04  0.00000000000E+00 0. -1.
         -2   -1    0    0    0  501 -0.00000000000E+00 -0.00000000000E+00 -0.55728404184E+03  0.55728404184E+03  0.00000000000E+00 0.  1.
          6    1    1    2  502    0 -0.28709945409E+03  0.40469590554E+01  0.97037199272E+03  0.10264737107E+04  0.17200000000E+03 0. -1.
         -6    1    1    2    0  501  0.28709945409E+03 -0.40469590554E+01 -0.47631394139E+03  0.58215242435E+03  0.17200000000E+03 0.  1.
</event>
<event>
 4    1  0.6365705E-002  0.2669136E+03  0.7818608E-02  0.1103059E+00
          2   -1    0    0  502    0  0.00000000000E+00  0.00000000000E+00  0.29214438552E+03  0.29214438552E+03  0.00000000000E+00 0. -1.
         -2   -1    0    0    0  501 -0.00000000000E+00 -0.00000000000E+00 -0.61607739145E+03  0.61607739145E+03  0.00000000000E+00 0.  1.
          6    1    1    2  502    0 -0.16016874034E+03 -0.12651019796E+03  0.19100655738E+03  0.32821694126E+03  0.17200000000E+03 0. -1.
         -6    1    1    2    0  501  0.16016874034E+03  0.12651019796E+03 -0.51493956331E+03  0.58000483570E+03  0.17200000000E+03 0.  1.
</event>
<event>
 4    1  0.6365705E-002  0.7102967E+03  0.7818608E-02  0.9699784E-01
         -2   -1    0    0    0  501 -0.00000000000E+00  0.00000000000E+00  0.42203448441E+03  0.42203448441E+03  0.00000000000E+00 0.  1.
          2   -1    0    0  502    0  0.00000000000E+00 -0.00000000000E+00 -0.12434397596E+04  0.12434397596E+04  0.00000000000E+00 0. -1.
          6    1    1    2  502    0 -0.66090747828E+03  0.19529118225E+03 -0.24710858232E+03  0.75205318440E+03  0.17200000000E+03 0.  1.
         -6    1    1    2    0  501  0.66090747828E+03 -0.19529118225E+03 -0.57429669291E+03  0.91342105965E+03  0.17200000000E+03 0.  1.
</event>
<event>
 4    1  0.6365705E-002  0.4790842E+03  0.7818608E-02  0.1019387E+00
          1   -1    0    0  502    0  0.00000000000E+00  0.00000000000E+00  0.12356851263E+04  0.12356851263E+04  0.00000000000E+00 0. -1.
         -1   -1    0    0    0  501 -0.00000000000E+00 -0.00000000000E+00 -0.18580031651E+03  0.18580031651E+03  0.00000000000E+00 0.  1.
          6    1    1    2  502    0  0.35584070530E+03 -0.27076746335E+03  0.51261558306E+03  0.70163834186E+03  0.17200000000E+03 0. -1.
         -6    1    1    2    0  501 -0.35584070530E+03  0.27076746335E+03  0.53726922671E+03  0.71984710094E+03  0.17200000000E+03 0.  1.
</event>
<event>
 4    1  0.6365705E-002  0.1861133E+03  0.7818608E-02  0.1162014E+00
          2   -1    0    0  502    0  0.00000000000E+00  0.00000000000E+00  0.90181339875E+03  0.90181339875E+03  0.00000000000E+00 0. -1.
         -2   -1    0    0    0  501 -0.00000000000E+00 -0.00000000000E+00 -0.38579803466E+02  0.38579803466E+02  0.00000000000E+00 0.  1.
          6    1    1    2  502    0 -0.70998204799E+02 -0.36633524656E+01  0.40037307106E+03  0.44151643374E+03  0.17200000000E+03 0.  1.
         -6    1    1    2    0  501  0.70998204799E+02  0.36633524656E+01  0.46286052423E+03  0.49887676848E+03  0.17200000000E+03 0.  1.
</event>
<event>
 4    1  0.6365705E-002  0.2714676E+03  0.7818608E-02  0.1100443E+00
         -2   -1    0    0    0  501 -0.00000000000E+00  0.00000000000E+00  0.30388982895E+03  0.30388982895E+03  0.00000000000E+00 0.  1.
          2   -1    0    0  502    0  0.00000000000E+00 -0.00000000000E+00 -0.48766963516E+03  0.48766963516E+03  0.00000000000E+00 0. -1.
          6    1    1    2  502    0 -0.99005327444E+02  0.18522586357E+03 -0.37251077929E+03  0.46093270234E+03  0.17200000000E+03 0. -1.
         -6    1    1    2    0  501  0.99005327444E+02 -0.18522586357E+03  0.18873097308E+03  0.33062676177E+03  0.17200000000E+03 0.  1.
</event>
<event>
 4    1  0.6365705E-002  0.4666597E+03  0.7818608E-02  0.1022867E+00
         -2   -1    0    0    0  501 -0.00000000000E+00  0.00000000000E+00  0.92871099411E+02  0.92871099411E+02  0.00000000000E+00 0.  1.
          2   -1    0    0  502    0  0.00000000000E+00 -0.00000000000E+00 -0.23555649740E+04  0.23555649740E+04  0.00000000000E+00 0. -1.
          6    1    1    2  502    0 -0.42634596814E+03 -0.80102286022E+02 -0.12138117338E+04  0.13004269245E+04  0.17200000000E+03 0. -1.
         -6    1    1    2    0  501  0.42634596814E+03  0.80102286022E+02 -0.10488821408E+04  0.11480091489E+04  0.17200000000E+03 0.  1.
</event>
<event>
 4    1  0.6365705E-002  0.3189634E+03  0.7818608E-02  0.1076127E+00
          2   -1    0    0  502    0  0.00000000000E+00  0.00000000000E+00  0.83873175658E+03  0.83873175658E+03  0.00000000000E+00 0. -1.
         -2   -1    0    0    0  501 -0.00000000000E+00 -0.00000000000E+00 -0.25090947956E+03  0.25090947956E+03  0.00000000000E+00 0.  1.
          6    1    1    2  502    0 -0.25405765017E+03 -0.87226019218E+02  0.68548560958E+03  0.75606096909E+03  0.17200000000E+03 0. -1.
         -6    1    1    2    0  501  0.25405765017E+03  0.87226019218E+02 -0.97663332561E+02  0.33358026705E+03  0.17200000000E+03 0.  1.
</event>
<event>
 4    1  0.6365705E-002  0.2433367E+03  0.7818608E-02  0.1117590E+00
         -2   -1    0    0    0  501 -0.00000000000E+00  0.00000000000E+00  0.15950039821E+03  0.15950039821E+03  0.00000000000E+00 0.  1.
          2   -1    0    0  502    0  0.00000000000E+00 -0.00000000000E+00 -0.38372936897E+03  0.38372936897E+03  0.00000000000E+00 0. -1.
          6    1    1    2  502    0  0.26682725016E+02 -0.17004928217E+03 -0.16111868186E+03  0.29184234755E+03  0.17200000000E+03 0. -1.
         -6    1    1    2    0  501 -0.26682725016E+02  0.17004928217E+03 -0.63110288899E+02  0.25138741962E+03  0.17200000000E+03 0.  1.
</event>
<event>
 4    1  0.6365705E-002  0.2323276E+03  0.7818608E-02  0.1125012E+00
          1   -1    0    0  502    0  0.00000000000E+00  0.00000000000E+00  0.14294362083E+04  0.14294362083E+04  0.00000000000E+00 0. -1.
         -1   -1    0    0    0  501 -0.00000000000E+00 -0.00000000000E+00 -0.45989125590E+02  0.45989125590E+02  0.00000000000E+00 0.  1.
          6    1    1    2  502    0 -0.14616371633E+03  0.55029688545E+02  0.10037746045E+04  0.10303104169E+04  0.17200000000E+03 0. -1.
         -6    1    1    2    0  501  0.14616371633E+03 -0.55029688545E+02  0.37967247823E+03  0.44511491698E+03  0.17200000000E+03 0.  1.
</event>
<event>
 4    1  0.6365705E-002  0.2643131E+03  0.7818608E-02  0.1104579E+00
         -2   -1    0    0    0  501 -0.00000000000E+00  0.00000000000E+00  0.61162532984E+02  0.61162532984E+02  0.00000000000E+00 0.  1.
          2   -1    0    0  502    0  0.00000000000E+00 -0.00000000000E+00 -0.15669973629E+04  0.15669973629E+04  0.00000000000E+00 0. -1.
          6    1    1    2  502    0 -0.13496683028E+03  0.14853071682E+03 -0.11767659397E+04  0.12060843651E+04  0.17200000000E+03 0. -1.
         -6    1    1    2    0  501  0.13496683028E+03 -0.14853071682E+03 -0.32906889028E+03  0.42207553076E+03  0.17200000000E+03 0.  1.
</event>
<event>
 4    1  0.6365705E-002  0.2056082E+03  0.7818608E-02  0.1145092E+00
         -1   -1    0    0    0  501 -0.00000000000E+00  0.00000000000E+00  0.97812740703E+02  0.97812740703E+02  0.00000000000E+00 0.  1.
          1   -1    0    0  502    0  0.00000000000E+00 -0.00000000000E+00 -0.43497324196E+03  0.43497324196E+03  0.00000000000E+00 0. -1.
          6    1    1    2  502    0 -0.63769144312E+02  0.92866823855E+02 -0.18984782622E+03  0.27985165331E+03  0.17200000000E+03 0. -1.
         -6    1    1    2    0  501  0.63769144312E+02 -0.92866823855E+02 -0.14731267504E+03  0.25293432935E+03  0.17200000000E+03 0.  1.
</event>
<event>
 4    1  0.6365705E-002  0.3975128E+03  0.7818608E-02  0.1044644E+00
         -1   -1    0    0    0  501 -0.00000000000E+00  0.00000000000E+00  0.12591689772E+03  0.12591689772E+03  0.00000000000E+00 0.  1.
          1   -1    0    0  502    0  0.00000000000E+00 -0.00000000000E+00 -0.12564725600E+04  0.12564725600E+04  0.00000000000E+00 0. -1.
          6    1    1    2  502    0  0.30316097875E+03 -0.19111736645E+03 -0.54103044557E+03  0.67136455807E+03  0.17200000000E+03 0.  1.
         -6    1    1    2    0  501 -0.30316097875E+03  0.19111736645E+03 -0.58952521672E+03  0.71102489966E+03  0.17200000000E+03 0.  1.
</event>
<event>
 4    1  0.6365705E-002  0.2013871E+03  0.7818608E-02  0.1148574E+00
          1   -1    0    0  502    0  0.00000000000E+00  0.00000000000E+00  0.19401909266E+03  0.19401909266E+03  0.00000000000E+00 0. -1.
         -1   -1    0    0    0  501 -0.00000000000E+00 -0.00000000000E+00 -0.21040126685E+03  0.21040126685E+03  0.00000000000E+00 0.  1.
          6    1    1    2  502    0 -0.10258268117E+03 -0.21202457207E+02 -0.24486729237E+02  0.20287028017E+03  0.17200000000E+03 0. -1.
         -6    1    1    2    0  501  0.10258268117E+03  0.21202457207E+02  0.81045550495E+01  0.20155007934E+03  0.17200000000E+03 0.  1.
</event>
<event>
 4    1  0.6365705E-002  0.3358042E+03  0.7818608E-02  0.1068597E+00
          2   -1    0    0  502    0  0.00000000000E+00  0.00000000000E+00  0.86843714626E+03  0.86843714626E+03  0.00000000000E+00 0. -1.
         -2   -1    0    0    0  501 -0.00000000000E+00 -0.00000000000E+00 -0.16582543163E+03  0.16582543163E+03  0.00000000000E+00 0.  1.
          6    1    1    2  502    0  0.27691106077E+03  0.80626990071E+02  0.59218154236E+03  0.68076679283E+03  0.17200000000E+03 0. -1.
         -6    1    1    2    0  501 -0.27691106077E+03 -0.80626990071E+02  0.11043017227E+03  0.35349578505E+03  0.17200000000E+03 0.  1.
</event>
<event>
 4    1  0.6365705E-002  0.3915077E+03  0.7818608E-02  0.1046761E+00
          1   -1    0    0  502    0  0.00000000000E+00  0.00000000000E+00  0.37011893391E+03  0.37011893391E+03  0.00000000000E+00 0. -1.
         -1   -1    0    0    0  501 -0.00000000000E+00 -0.00000000000E+00 -0.42615270925E+03  0.42615270925E+03  0.00000000000E+00 0.  1.
          6    1    1    2  502    0 -0.66538188480E+02 -0.34535047939E+03  0.38848968512E+02  0.39343045954E+03  0.17200000000E+03 0. -1.
         -6    1    1    2    0  501  0.66538188480E+02  0.34535047939E+03 -0.94882743856E+02  0.40284118362E+03  0.17200000000E+03 0.  1.
</event>
<event>
 4    1  0.6365705E-002  0.4733434E+03  0.7818608E-02  0.1020981E+00
          1   -1    0    0  502    0  0.00000000000E+00  0.00000000000E+00  0.13889557837E+04  0.13889557837E+04  0.00000000000E+00 0. -1.
         -1   -1    0    0    0  501 -0.00000000000E+00 -0.00000000000E+00 -0.59408087757E+03  0.59408087757E+03  0.00000000000E+00 0.  1.
          6    1    1    2  502    0 -0.11687366281E+03  0.42521817472E+03  0.12437025631E+04  0.13307328863E+04  0.17200000000E+03 0. -1.
         -6    1    1    2    0  501  0.11687366281E+03 -0.42521817472E+03 -0.44882765698E+03  0.65230377497E+03  0.17200000000E+03 0.  1.
</event>
<event>
 4    1  0.6365705E-002  0.3465730E+03  0.7818608E-02  0.1064030E+00
          2   -1    0    0  502    0  0.00000000000E+00  0.00000000000E+00  0.23345310354E+04  0.23345310354E+04  0.00000000000E+00 0. -1.
         -2   -1    0    0    0  501 -0.00000000000E+00 -0.00000000000E+00 -0.68929096094E+02  0.68929096094E+02  0.00000000000E+00 0.  1.
          6    1    1    2  502    0 -0.27910444138E+03 -0.11238118685E+03  0.17379449837E+04  0.17721640970E+04  0.17200000000E+03 0. -1.
         -6    1    1    2    0  501  0.27910444138E+03  0.11238118685E+03  0.52765695560E+03  0.63129603448E+03  0.17200000000E+03 0.  1.
</event>
<event>
 4    1  0.6365705E-002  0.1863340E+03  0.7818608E-02  0.1161810E+00
         -2   -1    0    0    0  501 -0.00000000000E+00  0.00000000000E+00  0.40011546325E+02  0.40011546325E+02  0.00000000000E+00 0.  1.
          2   -1    0    0  502    0  0.00000000000E+00 -0.00000000000E+00 -0.87518062051E+03  0.87518062051E+03  0.00000000000E+00 0. -1.
          6    1    1    2  502    0  0.70130764434E+02  0.14765618223E+02 -0.37544341493E+03  0.41913972064E+03  0.17200000000E+03 0.  1.
         -6    1    1    2    0  501 -0.70130764434E+02 -0.14765618223E+02 -0.45972565925E+03  0.49605244619E+03  0.17200000000E+03 0.  1.
</event>
<event>
 4    1  0.6365705E-002  0.3584255E+03  0.7818608E-02  0.1059209E+00
          2   -1    0    0  502    0  0.00000000000E+00  0.00000000000E+00  0.37412021346E+04  0.37412021346E+04  0.00000000000E+00 0. -1.
         -2   -1    0    0    0  501 -0.00000000000E+00 -0.00000000000E+00 -0.88991292303E+02  0.88991292303E+02  0.00000000000E+00 0.  1.
          6    1    1    2  502    0  0.22376091071E+03 -0.22094315315E+03  0.33269007980E+04  0.33461526776E+04  0.17200000000E+03 0. -1.
         -6    1    1    2    0  501 -0.22376091071E+03  0.22094315315E+03  0.32531004435E+03  0.48404074936E+03  0.17200000000E+03 0.  1.
</event>
<event>
 4    1  0.6365705E-002  0.2275563E+03  0.7818608E-02  0.1128372E+00
          2   -1    0    0  502    0  0.00000000000E+00  0.00000000000E+00  0.13128091027E+04  0.13128091027E+04  0.00000000000E+00 0. -1.
         -2   -1    0    0    0  501 -0.00000000000E+00 -0.00000000000E+00 -0.39944216285E+02  0.39944216285E+02  0.00000000000E+00 0.  1.
          6    1    1    2  502    0  0.12651621282E+03 -0.78686130238E+02  0.71215639732E+03  0.74762864675E+03  0.17200000000E+03 0.  1.
         -6    1    1    2    0  501 -0.12651621282E+03  0.78686130238E+02  0.56070848905E+03  0.60512467219E+03  0.17200000000E+03 0. -1.
</event>
<event>
 4    1  0.6365705E-002  0.3216323E+03  0.7818608E-02  0.1074901E+00
          2   -1    0    0  502    0  0.00000000000E+00  0.00000000000E+00  0.94042697958E+03  0.94042697958E+03  0.00000000000E+00 0. -1.
         -2   -1    0    0    0  501 -0.00000000000E+00 -0.00000000000E+00 -0.13570771900E+03  0.13570771900E+03  0.00000000000E+00 0.  1.
          6    1    1    2  502    0  0.15453923068E+03  0.22356416811E+03  0.63654677530E+03  0.71318939156E+03  0.17200000000E+03 0. -1.
         -6    1    1    2    0  501 -0.15453923068E+03 -0.22356416811E+03  0.16817248527E+03  0.36294530702E+03  0.17200000000E+03 0.  1.
</event>
<event>
 4    1  0.6365705E-002  0.2119743E+03  0.7818608E-02  0.1140012E+00
          2   -1    0    0  502    0  0.00000000000E+00  0.00000000000E+00  0.28799750544E+04  0.28799750544E+04  0.00000000000E+00 0. -1.
         -2   -1    0    0    0  501 -0.00000000000E+00 -0.00000000000E+00 -0.10033512149E+03  0.10033512149E+03  0.00000000000E+00 0.  1.
          6    1    1    2  502    0 -0.58736226302E+02  0.10908319130E+03  0.27592247325E+04  0.27673550931E+04  0.17200000000E+03 0. -1.
         -6    1    1    2    0  501  0.58736226302E+02 -0.10908319130E+03  0.20415200473E+02  0.21295508286E+03  0.17200000000E+03 0.  1.
</event>
<event>
 4    1  0.6365705E-002  0.2950673E+03  0.7818608E-02  0.1087733E+00
         -2   -1    0    0    0  501 -0.00000000000E+00  0.00000000000E+00  0.29274093391E+03  0.29274093391E+03  0.00000000000E+00 0.  1.
          2   -1    0    0  502    0  0.00000000000E+00 -0.00000000000E+00 -0.29842419469E+03  0.29842419469E+03  0.00000000000E+00 0. -1.
          6    1    1    2  502    0  0.20017757754E+03  0.13194557253E+03 -0.20055234969E+02  0.29574805005E+03  0.17200000000E+03 0. -1.
         -6    1    1    2    0  501 -0.20017757754E+03 -0.13194557253E+03  0.14371974192E+02  0.29541707855E+03  0.17200000000E+03 0.  1.
</event>
<event>
 4    1  0.6365705E-002  0.4419343E+03  0.7818608E-02  0.1030155E+00
          3   -1    0    0  502    0  0.00000000000E+00  0.00000000000E+00  0.25154904954E+03  0.25154904954E+03  0.00000000000E+00 0. -1.
         -3   -1    0    0    0  501 -0.00000000000E+00 -0.00000000000E+00 -0.81909658278E+03  0.81909658278E+03  0.00000000000E+00 0.  1.
          6    1    1    2  502    0  0.89221397698E+02  0.39719201409E+03 -0.40597584615E+03  0.60010194261E+03  0.17200000000E+03 0. -1.
         -6    1    1    2    0  501 -0.89221397698E+02 -0.39719201409E+03 -0.16157168708E+03  0.47054368971E+03  0.17200000000E+03 0.  1.
</event>
<event>
 4    1  0.6365705E-002  0.1986348E+03  0.7818608E-02  0.1150896E+00
         -2   -1    0    0    0  501 -0.00000000000E+00  0.00000000000E+00  0.58775407245E+03  0.58775407245E+03  0.00000000000E+00 0.  1.
          2   -1    0    0  502    0  0.00000000000E+00 -0.00000000000E+00 -0.52082534419E+03  0.52082534419E+03  0.00000000000E+00 0. -1.
          6    1    1    2  502    0  0.94616574508E+02 -0.30322885865E+02 -0.48387205132E+03  0.52305634078E+03  0.17200000000E+03 0. -1.
         -6    1    1    2    0  501 -0.94616574508E+02  0.30322885865E+02  0.55080077958E+03  0.58552307586E+03  0.17200000000E+03 0.  1.
</event>
<event>
 4    1  0.6365705E-002  0.1768402E+03  0.7818608E-02  0.1170897E+00
         -2   -1    0    0    0  501 -0.00000000000E+00  0.00000000000E+00  0.21608938994E+02  0.21608938994E+02  0.00000000000E+00 0.  1.
          2   -1    0    0  502    0  0.00000000000E+00 -0.00000000000E+00 -0.14606193797E+04  0.14606193797E+04  0.00000000000E+00 0. -1.
          6    1    1    2  502    0  0.36279030665E+02 -0.19295180137E+02 -0.64847041887E+03  0.67215054578E+03  0.17200000000E+03 0. -1.
         -6    1    1    2    0  501 -0.36279030665E+02  0.19295180137E+02 -0.79054002181E+03  0.81007777289E+03  0.17200000000E+03 0. -1.
</event>
<event>
 4    1  0.6365705E-002  0.2055489E+03  0.7818608E-02  0.1145140E+00
          2   -1    0    0  502    0  0.00000000000E+00  0.00000000000E+00  0.14671196043E+04  0.14671196043E+04  0.00000000000E+00 0. -1.
         -2   -1    0    0    0  501 -0.00000000000E+00 -0.00000000000E+00 -0.32606034995E+02  0.32606034995E+02  0.00000000000E+00 0.  1.
          6    1    1    2  502    0 -0.69590370805E+02 -0.88450833284E+02  0.97351229559E+03  0.99497565763E+03  0.17200000000E+03 0.  1.
         -6    1    1    2    0  501  0.69590370805E+02  0.88450833284E+02  0.46100127368E+03  0.50474998162E+03  0.17200000000E+03 0.  1.
</event>
<event>
 4    1  0.6365705E-002  0.2284728E+03  0.7818608E-02  0.1127719E+00
          1   -1    0    0  502    0  0.00000000000E+00  0.00000000000E+00  0.59288946776E+02  0.59288946776E+02  0.00000000000E+00 0. -1.
         -1   -1    0    0    0  501 -0.00000000000E+00 -0.00000000000E+00 -0.90062795978E+03  0.90062795978E+03  0.00000000000E+00 0.  1.
          6    1    1    2  502    0 -0.14922019313E+03 -0.18685677152E+02 -0.34879497210E+03  0.41696253205E+03  0.17200000000E+03 0. -1.
         -6    1    1    2    0  501  0.14922019313E+03  0.18685677152E+02 -0.49254404091E+03  0.54295437451E+03  0.17200000000E+03 0.  1.
</event>
<event>
 4    1  0.6365705E-002  0.2518913E+03  0.7818608E-02  0.1112115E+00
          1   -1    0    0  502    0  0.00000000000E+00  0.00000000000E+00  0.15352055892E+04  0.15352055892E+04  0.00000000000E+00 0. -1.
         -1   -1    0    0    0  501 -0.00000000000E+00 -0.00000000000E+00 -0.42919792399E+02  0.42919792399E+02  0.00000000000E+00 0.  1.
          6    1    1    2  502    0 -0.14526492452E+01  0.18401926979E+03  0.89803251725E+03  0.93269051881E+03  0.17200000000E+03 0. -1.
         -6    1    1    2    0  501  0.14526492452E+01 -0.18401926979E+03  0.59425327958E+03  0.64543486282E+03  0.17200000000E+03 0.  1.
</event>
<event>
 4    1  0.6365705E-002  0.1914694E+03  0.7818608E-02  0.1157143E+00
          3   -1    0    0  502    0  0.00000000000E+00  0.00000000000E+00  0.10762336427E+03  0.10762336427E+03  0.00000000000E+00 0. -1.
         -3   -1    0    0    0  501 -0.00000000000E+00 -0.00000000000E+00 -0.39627655856E+03  0.39627655856E+03  0.00000000000E+00 0.  1.
          6    1    1    2  502    0 -0.53306483522E+02  0.65076417543E+02 -0.49919168788E+02  0.19786976706E+03  0.17200000000E+03 0. -1.
         -6    1    1    2    0  501  0.53306483522E+02 -0.65076417543E+02 -0.23873402551E+03  0.30603015577E+03  0.17200000000E+03 0.  1.
</event>
<event>
 4    1  0.6365705E-002  0.2249141E+03  0.7818608E-02  0.1130272E+00
          2   -1    0    0  502    0  0.00000000000E+00  0.00000000000E+00  0.70072204321E+03  0.70072204321E+03  0.00000000000E+00 0. -1.
         -2   -1    0    0    0  501 -0.00000000000E+00 -0.00000000000E+00 -0.86342879372E+02  0.86342879372E+02  0.00000000000E+00 0.  1.
          6    1    1    2  502    0  0.27974357868E+02 -0.14219630926E+03  0.14787235072E+03  0.26917018255E+03  0.17200000000E+03 0. -1.
         -6    1    1    2    0  501 -0.27974357868E+02  0.14219630926E+03  0.46650681312E+03  0.51789474003E+03  0.17200000000E+03 0. -1.
</event>
<event>
 4    1  0.6365705E-002  0.3518226E+03  0.7818608E-02  0.1061869E+00
          1   -1    0    0  502    0  0.00000000000E+00  0.00000000000E+00  0.19120761102E+04  0.19120761102E+04  0.00000000000E+00 0. -1.
         -1   -1    0    0    0  501 -0.00000000000E+00 -0.00000000000E+00 -0.65587343897E+02  0.65587343897E+02  0.00000000000E+00 0.  1.
          6    1    1    2  502    0  0.28471770073E+03 -0.11459054094E+03  0.10359376472E+04  0.10940502594E+04  0.17200000000E+03 0. -1.
         -6    1    1    2    0  501 -0.28471770073E+03  0.11459054094E+03  0.81055111905E+03  0.88361319466E+03  0.17200000000E+03 0.  1.
</event>
<event>
 4    1  0.6365705E-002  0.3540201E+03  0.7818608E-02  0.1060977E+00
          2   -1    0    0  502    0  0.00000000000E+00  0.00000000000E+00  0.45227156690E+03  0.45227156690E+03  0.00000000000E+00 0. -1.
         -2   -1    0    0    0  501 -0.00000000000E+00 -0.00000000000E+00 -0.27724561419E+03  0.27724561419E+03  0.00000000000E+00 0.  1.
          6    1    1    2  502    0 -0.14207993052E+03 -0.27488094419E+03  0.95496523355E+02  0.36667400523E+03  0.17200000000E+03 0. -1.
         -6    1    1    2    0  501  0.14207993052E+03  0.27488094419E+03  0.79529429349E+02  0.36284317586E+03  0.17200000000E+03 0.  1.
</event>
<event>
 4    1  0.6365705E-002  0.2152018E+03  0.7818608E-02  0.1137512E+00
          1   -1    0    0  502    0  0.00000000000E+00  0.00000000000E+00  0.54303156248E+03  0.54303156248E+03  0.00000000000E+00 0. -1.
         -1   -1    0    0    0  501 -0.00000000000E+00 -0.00000000000E+00 -0.11078931172E+03  0.11078931172E+03  0.00000000000E+00 0.  1.
          6    1    1    2  502    0 -0.28790931184E+01  0.12930394648E+03  0.37297556045E+03  0.43060720900E+03  0.17200000000E+03 0. -1.
         -6    1    1    2    0  501  0.28790931184E+01 -0.12930394648E+03  0.59266690310E+02  0.22321366520E+03  0.17200000000E+03 0.  1.
</event>
<event>
 4    1  0.6365705E-002  0.2204859E+03  0.7818608E-02  0.1133521E+00
         -1   -1    0    0    0  501 -0.00000000000E+00  0.00000000000E+00  0.89392726694E+02  0.89392726694E+02  0.00000000000E+00 0.  1.
          1   -1    0    0  502    0  0.00000000000E+00 -0.00000000000E+00 -0.72415014882E+03  0.72415014882E+03  0.00000000000E+00 0. -1.
          6    1    1    2  502    0  0.10493435238E+03  0.89547918548E+02 -0.52036356598E+03  0.56514802381E+03  0.17200000000E+03 0. -1.
         -6    1    1    2    0  501 -0.10493435238E+03 -0.89547918548E+02 -0.11439385615E+03  0.24839485170E+03  0.17200000000E+03 0.  1.
</event>
<event>
 4    1  0.6365705E-002  0.2033195E+03  0.7818608E-02  0.1146968E+00
          1   -1    0    0  502    0  0.00000000000E+00  0.00000000000E+00  0.16615715735E+03  0.16615715735E+03  0.00000000000E+00 0. -1.
         -1   -1    0    0    0  501 -0.00000000000E+00 -0.00000000000E+00 -0.33824735690E+03  0.33824735690E+03  0.00000000000E+00 0.  1.
          6    1    1    2  502    0  0.86612746933E+02  0.65215353902E+02  0.43652354133E+02  0.20795273102E+03  0.17200000000E+03 0. -1.
         -6    1    1    2    0  501 -0.86612746933E+02 -0.65215353902E+02 -0.21574255368E+03  0.29645178324E+03  0.17200000000E+03 0.  1.
</event>
<event>
 4    1  0.6365705E-002  0.2091085E+03  0.7818608E-02  0.1142274E+00
         -2   -1    0    0    0  501 -0.00000000000E+00  0.00000000000E+00  0.32278786552E+02  0.32278786552E+02  0.00000000000E+00 0.  1.
          2   -1    0    0  502    0  0.00000000000E+00 -0.00000000000E+00 -0.16085145662E+04  0.16085145662E+04  0.00000000000E+00 0. -1.
          6    1    1    2  502    0  0.72661316525E+02 -0.94141867947E+02 -0.11140409478E+04  0.11334961806E+04  0.17200000000E+03 0. -1.
         -6    1    1    2    0  501 -0.72661316525E+02  0.94141867947E+02 -0.46219483191E+03  0.50729717214E+03  0.17200000000E+03 0.  1.
</event>
<event>
 4    1  0.6365705E-002  0.4553860E+03  0.7818608E-02  0.1026128E+00
         -1   -1    0    0    0  501 -0.00000000000E+00  0.00000000000E+00  0.10545017805E+03  0.10545017805E+03  0.00000000000E+00 0.  1.
          1   -1    0    0  502    0  0.00000000000E+00 -0.00000000000E+00 -0.20091856857E+04  0.20091856857E+04  0.00000000000E+00 0. -1.
          6    1    1    2  502    0 -0.12809939322E+03 -0.40172496503E+03 -0.11058320823E+04  0.11959268357E+04  0.17200000000E+03 0. -1.
         -6    1    1    2    0  501  0.12809939322E+03  0.40172496503E+03 -0.79790342538E+03  0.91870902810E+03  0.17200000000E+03 0.  1.
</event>
<event>
 4    1  0.6365705E-002  0.5043094E+03  0.7818608E-02  0.1012660E+00
          1   -1    0    0  502    0  0.00000000000E+00  0.00000000000E+00  0.14278653512E+03  0.14278653512E+03  0.00000000000E+00 0. -1.
         -1   -1    0    0    0  501 -0.00000000000E+00 -0.00000000000E+00 -0.22099439698E+04  0.22099439698E+04  0.00000000000E+00 0.  1.
          6    1    1    2  502    0  0.17876846655E+03 -0.43907379483E+03 -0.15517372803E+04  0.16316300282E+04  0.17200000000E+03 0. -1.
         -6    1    1    2    0  501 -0.17876846655E+03  0.43907379483E+03 -0.51542015437E+03  0.72110047669E+03  0.17200000000E+03 0.  1.
</event>
<event>
 4    1  0.6365705E-002  0.3534441E+03  0.7818608E-02  0.1061210E+00
          2   -1    0    0  502    0  0.00000000000E+00  0.00000000000E+00  0.13344585253E+04  0.13344585253E+04  0.00000000000E+00 0. -1.
         -2   -1    0    0    0  501 -0.00000000000E+00 -0.00000000000E+00 -0.10204534805E+03  0.10204534805E+03  0.00000000000E+00 0.  1.
          6    1    1    2  502    0 -0.11840188079E+03 -0.28516616482E+03  0.82267465899E+03  0.89538614099E+03  0.17200000000E+03 0. -1.
         -6    1    1    2    0  501  0.11840188079E+03  0.28516616482E+03  0.40973851826E+03  0.54111773237E+03  0.17200000000E+03 0. -1.
</event>
<event>
 4    1  0.6365705E-002  0.5074511E+03  0.7818608E-02  0.1011852E+00
         -2   -1    0    0    0  501 -0.00000000000E+00  0.00000000000E+00  0.15010931452E+03  0.15010931452E+03  0.00000000000E+00 0.  1.
          2   -1    0    0  502    0  0.00000000000E+00 -0.00000000000E+00 -0.17602374286E+04  0.17602374286E+04  0.00000000000E+00 0. -1.
          6    1    1    2  502    0 -0.19368974313E+03  0.43635642975E+03 -0.65272120023E+03  0.82677180383E+03  0.17200000000E+03 0. -1.
         -6    1    1    2    0  501  0.19368974313E+03 -0.43635642975E+03 -0.95740691381E+03  0.10835749393E+04  0.17200000000E+03 0.  1.
</event>
<event>
 4    1  0.6365705E-002  0.1859934E+03  0.7818608E-02  0.1162125E+00
          2   -1    0    0  502    0  0.00000000000E+00  0.00000000000E+00  0.19393496119E+03  0.19393496119E+03  0.00000000000E+00 0. -1.
         -2   -1    0    0    0  501 -0.00000000000E+00 -0.00000000000E+00 -0.18863893469E+03  0.18863893469E+03  0.00000000000E+00 0.  1.
          6    1    1    2  502    0 -0.69780155388E+02  0.11844321348E+02 -0.41967095059E+02  0.19066933446E+03  0.17200000000E+03 0.  1.
         -6    1    1    2    0  501  0.69780155388E+02 -0.11844321348E+02  0.47263121556E+02  0.19190456142E+03  0.17200000000E+03 0.  1.
</event>
<event>
 4    1  0.6365705E-002  0.2271999E+03  0.7818608E-02  0.1128626E+00
         -1   -1    0    0    0  501 -0.00000000000E+00  0.00000000000E+00  0.15784158134E+03  0.15784158134E+03  0.00000000000E+00 0.  1.
          1   -1    0    0  502    0  0.00000000000E+00 -0.00000000000E+00 -0.34441369145E+03  0.34441369145E+03  0.00000000000E+00 0. -1.
          6    1    1    2  502    0  0.14842185498E+03  0.25948387968E+01 -0.36875782629E+02  0.23017298619E+03  0.17200000000E+03 0. -1.
         -6    1    1    2    0  501 -0.14842185498E+03 -0.25948387968E+01 -0.14969632747E+03  0.27208228661E+03  0.17200000000E+03 0.  1.
</event>
<event>
 4    1  0.6365705E-002  0.5453883E+03  0.7818608E-02  0.1002567E+00
         -3   -1    0    0    0  501 -0.00000000000E+00  0.00000000000E+00  0.54641026119E+03  0.54641026119E+03  0.00000000000E+00 0.  1.
          3   -1    0    0  502    0  0.00000000000E+00 -0.00000000000E+00 -0.97869336338E+03  0.97869336338E+03  0.00000000000E+00 0. -1.
          6    1    1    2  502    0 -0.23059318187E+02 -0.51704218613E+03 -0.72412965998E+03  0.90653853689E+03  0.17200000000E+03 0. -1.
         -6    1    1    2    0  501  0.23059318187E+02  0.51704218613E+03  0.29184655779E+03  0.61856508767E+03  0.17200000000E+03 0.  1.
</event>
<event>
 4    1  0.6365705E-002  0.2927616E+03  0.7818608E-02  0.1088916E+00
         -2   -1    0    0    0  501 -0.00000000000E+00  0.00000000000E+00  0.52937802014E+02  0.52937802014E+02  0.00000000000E+00 0.  1.
          2   -1    0    0  502    0  0.00000000000E+00 -0.00000000000E+00 -0.16955022797E+04  0.16955022797E+04  0.00000000000E+00 0. -1.
          6    1    1    2  502    0 -0.33810347246E+02 -0.23448283817E+03 -0.10069111949E+04  0.10486083613E+04  0.17200000000E+03 0. -1.
         -6    1    1    2    0  501  0.33810347246E+02  0.23448283817E+03 -0.63565328276E+03  0.69983172039E+03  0.17200000000E+03 0.  1.
</event>
<event>
 4    1  0.6365705E-002  0.1889302E+03  0.7818608E-02  0.1159430E+00
          1   -1    0    0  502    0  0.00000000000E+00  0.00000000000E+00  0.11582958310E+04  0.11582958310E+04  0.00000000000E+00 0. -1.
         -1   -1    0    0    0  501 -0.00000000000E+00 -0.00000000000E+00 -0.30837828731E+02  0.30837828731E+02  0.00000000000E+00 0.  1.
          6    1    1    2  502    0  0.49415371893E+02  0.60569985158E+02  0.57937233263E+03  0.60939880366E+03  0.17200000000E+03 0.  1.
         -6    1    1    2    0  501 -0.49415371893E+02 -0.60569985158E+02  0.54808566961E+03  0.57973485605E+03  0.17200000000E+03 0.  1.
</event>
<event>
 4    1  0.6365705E-002  0.1844580E+03  0.7818608E-02  0.1163557E+00
         -2   -1    0    0    0  501 -0.00000000000E+00  0.00000000000E+00  0.16024701181E+02  0.16024701181E+02  0.00000000000E+00 0.  1.
          2   -1    0    0  502    0  0.00000000000E+00 -0.00000000000E+00 -0.24032489931E+04  0.24032489931E+04  0.00000000000E+00 0. -1.
          6    1    1    2  502    0 -0.60344657913E+02  0.28271254515E+02 -0.16064881006E+04  0.16170432149E+04  0.17200000000E+03 0. -1.
         -6    1    1    2    0  501  0.60344657913E+02 -0.28271254515E+02 -0.78073619131E+03  0.80223047934E+03  0.17200000000E+03 0. -1.
</event>
<event>
 4    1  0.6365705E-002  0.2181501E+03  0.7818608E-02  0.1135270E+00
         -1   -1    0    0    0  501 -0.00000000000E+00  0.00000000000E+00  0.19139629429E+03  0.19139629429E+03  0.00000000000E+00 0.  1.
          1   -1    0    0  502    0  0.00000000000E+00 -0.00000000000E+00 -0.66471181138E+03  0.66471181138E+03  0.00000000000E+00 0. -1.
          6    1    1    2  502    0  0.10699227862E+03 -0.80982131216E+02 -0.57531799840E+03  0.61528875542E+03  0.17200000000E+03 0. -1.
         -6    1    1    2    0  501 -0.10699227862E+03  0.80982131216E+02  0.10200248131E+03  0.24081935025E+03  0.17200000000E+03 0.  1.
</event>
<event>
 4    1  0.6365705E-002  0.2011250E+03  0.7818608E-02  0.1148793E+00
          1   -1    0    0  502    0  0.00000000000E+00  0.00000000000E+00  0.59294710067E+03  0.59294710067E+03  0.00000000000E+00 0. -1.
         -1   -1    0    0    0  501 -0.00000000000E+00 -0.00000000000E+00 -0.11748409543E+03  0.11748409543E+03  0.00000000000E+00 0.  1.
          6    1    1    2  502    0  0.50644926229E+02  0.91117235725E+02  0.46775103322E+03  0.50915841177E+03  0.17200000000E+03 0. -1.
         -6    1    1    2    0  501 -0.50644926229E+02 -0.91117235725E+02  0.77119720237E+01  0.20127278433E+03  0.17200000000E+03 0.  1.
</event>
<event>
 4    1  0.6365705E-002  0.2138764E+03  0.7818608E-02  0.1138533E+00
         -2   -1    0    0    0  501 -0.00000000000E+00  0.00000000000E+00  0.68536157644E+02  0.68536157644E+02  0.00000000000E+00 0.  1.
          2   -1    0    0  502    0  0.00000000000E+00 -0.00000000000E+00 -0.10570704544E+04  0.10570704544E+04  0.00000000000E+00 0. -1.
          6    1    1    2  502    0 -0.10984044319E+03 -0.63985934033E+02 -0.83596040550E+03  0.86288639013E+03  0.17200000000E+03 0. -1.
         -6    1    1    2    0  501  0.10984044319E+03  0.63985934033E+02 -0.15257389129E+03  0.26272022194E+03  0.17200000000E+03 0.  1.
</event>
<event>
 4    1  0.6365705E-002  0.3214550E+03  0.7818608E-02  0.1074982E+00
          2   -1    0    0  502    0  0.00000000000E+00  0.00000000000E+00  0.48672263876E+03  0.48672263876E+03  0.00000000000E+00 0. -1.
         -2   -1    0    0    0  501 -0.00000000000E+00 -0.00000000000E+00 -0.24767167083E+03  0.24767167083E+03  0.00000000000E+00 0.  1.
          6    1    1    2  502    0  0.26935979687E+03 -0.34562899293E+02 -0.19234013039E+02  0.32202987662E+03  0.17200000000E+03 0. -1.
         -6    1    1    2    0  501 -0.26935979687E+03  0.34562899293E+02  0.25828498097E+03  0.41236443297E+03  0.17200000000E+03 0.  1.
</event>
<event>
 4    1  0.6365705E-002  0.1763289E+03  0.7818608E-02  0.1171404E+00
          2   -1    0    0  502    0  0.00000000000E+00  0.00000000000E+00  0.10361334276E+04  0.10361334276E+04  0.00000000000E+00 0. -1.
         -2   -1    0    0    0  501 -0.00000000000E+00 -0.00000000000E+00 -0.36327412717E+02  0.36327412717E+02  0.00000000000E+00 0.  1.
          6    1    1    2  502    0  0.26948047042E+02 -0.27958862974E+02  0.72356167182E+03  0.74473712690E+03  0.17200000000E+03 0. -1.
         -6    1    1    2    0  501 -0.26948047042E+02  0.27958862974E+02  0.27624434303E+03  0.32772371339E+03  0.17200000000E+03 0.  1.
</event>
<event>
 4    1  0.6365705E-002  0.1997859E+03  0.7818608E-02  0.1149920E+00
         -2   -1    0    0    0  501 -0.00000000000E+00  0.00000000000E+00  0.48624293663E+02  0.48624293663E+02  0.00000000000E+00 0.  1.
          2   -1    0    0  502    0  0.00000000000E+00 -0.00000000000E+00 -0.15948178526E+04  0.15948178526E+04  0.00000000000E+00 0. -1.
          6    1    1    2  502    0 -0.23550598068E+02 -0.98872613333E+02 -0.13455283448E+04  0.13602797326E+04  0.17200000000E+03 0. -1.
         -6    1    1    2    0  501  0.23550598068E+02  0.98872613333E+02 -0.20066521417E+03  0.28316241367E+03  0.17200000000E+03 0.  1.
</event>
<event>
 4    1  0.6365705E-002  0.2913254E+03  0.7818608E-02  0.1089659E+00
          2   -1    0    0  502    0  0.00000000000E+00  0.00000000000E+00  0.58003977020E+02  0.58003977020E+02  0.00000000000E+00 0. -1.
         -2   -1    0    0    0  501 -0.00000000000E+00 -0.00000000000E+00 -0.16568244342E+04  0.16568244342E+04  0.00000000000E+00 0.  1.
          6    1    1    2  502    0  0.22759152753E+03 -0.59064049641E+02 -0.50628651713E+03  0.58412028110E+03  0.17200000000E+03 0. -1.
         -6    1    1    2    0  501 -0.22759152753E+03  0.59064049641E+02 -0.10925339401E+04  0.11307081301E+04  0.17200000000E+03 0.  1.
</event>
<event>
 4    1  0.6365705E-002  0.4429508E+03  0.7818608E-02  0.1029845E+00
          2   -1    0    0  502    0  0.00000000000E+00  0.00000000000E+00  0.16797905282E+04  0.16797905282E+04  0.00000000000E+00 0. -1.
         -2   -1    0    0    0  501 -0.00000000000E+00 -0.00000000000E+00 -0.18446277547E+03  0.18446277547E+03  0.00000000000E+00 0.  1.
          6    1    1    2  502    0 -0.32727597580E+03 -0.24395044285E+03  0.18313743907E+03  0.47931691446E+03  0.17200000000E+03 0. -1.
         -6    1    1    2    0  501  0.32727597580E+03  0.24395044285E+03  0.13121903136E+04  0.13849363892E+04  0.17200000000E+03 0.  1.
</event>
<event>
 4    1  0.6365705E-002  0.3467207E+03  0.7818608E-02  0.1063969E+00
         -1   -1    0    0    0  501 -0.00000000000E+00  0.00000000000E+00  0.29818205499E+03  0.29818205499E+03  0.00000000000E+00 0.  1.
          1   -1    0    0  502    0  0.00000000000E+00 -0.00000000000E+00 -0.72910888443E+03  0.72910888443E+03  0.00000000000E+00 0. -1.
          6    1    1    2  502    0 -0.19456096951E+03  0.22973304057E+03 -0.55889612017E+03  0.65770822857E+03  0.17200000000E+03 0. -1.
         -6    1    1    2    0  501  0.19456096951E+03 -0.22973304057E+03  0.12796929074E+03  0.36958271085E+03  0.17200000000E+03 0.  1.
</event>
<event>
 4    1  0.6365705E-002  0.1912575E+03  0.7818608E-02  0.1157332E+00
          1   -1    0    0  502    0  0.00000000000E+00  0.00000000000E+00  0.51726706591E+02  0.51726706591E+02  0.00000000000E+00 0. -1.
         -1   -1    0    0    0  501 -0.00000000000E+00 -0.00000000000E+00 -0.71397432839E+03  0.71397432839E+03  0.00000000000E+00 0.  1.
          6    1    1    2  502    0  0.57750688021E+02 -0.60500429614E+02 -0.29374190230E+03  0.35051925641E+03  0.17200000000E+03 0. -1.
         -6    1    1    2    0  501 -0.57750688021E+02  0.60500429614E+02 -0.36850571949E+03  0.41518177856E+03  0.17200000000E+03 0. -1.
</event>
<event>
 4    1  0.6365705E-002  0.2679128E+03  0.7818608E-02  0.1102480E+00
          2   -1    0    0  502    0  0.00000000000E+00  0.00000000000E+00  0.72402443588E+03  0.72402443588E+03  0.00000000000E+00 0. -1.
         -2   -1    0    0    0  501 -0.00000000000E+00 -0.00000000000E+00 -0.11077237894E+03  0.11077237894E+03  0.00000000000E+00 0.  1.
          6    1    1    2  502    0 -0.20090804190E+03 -0.42769284065E+02  0.44190631927E+03  0.51677698089E+03  0.17200000000E+03 0.  1.
         -6    1    1    2    0  501  0.20090804190E+03  0.42769284065E+02  0.17134573767E+03  0.31801983394E+03  0.17200000000E+03 0.  1.
</event>
<event>
 4    1  0.6365705E-002  0.3158830E+03  0.7818608E-02  0.1077560E+00
          1   -1    0    0  502    0  0.00000000000E+00  0.00000000000E+00  0.22261921708E+04  0.22261921708E+04  0.00000000000E+00 0. -1.
         -1   -1    0    0    0  501 -0.00000000000E+00 -0.00000000000E+00 -0.48071728787E+02  0.48071728787E+02  0.00000000000E+00 0.  1.
          6    1    1    2  502    0  0.18713409881E+03 -0.18756040424E+03  0.79339595825E+03  0.85396675740E+03  0.17200000000E+03 0. -1.
         -6    1    1    2    0  501 -0.18713409881E+03  0.18756040424E+03  0.13847244838E+04  0.14202971422E+04  0.17200000000E+03 0.  1.
</event>
<event>
 4    1  0.6365705E-002  0.2821751E+03  0.7818608E-02  0.1094507E+00
         -1   -1    0    0    0  501 -0.00000000000E+00  0.00000000000E+00  0.64653869308E+02  0.64653869308E+02  0.00000000000E+00 0.  1.
          1   -1    0    0  502    0  0.00000000000E+00 -0.00000000000E+00 -0.27187194330E+04  0.27187194330E+04  0.00000000000E+00 0. -1.
          6    1    1    2  502    0  0.22357446323E+03  0.72954202920E+01 -0.23563360473E+04  0.23731713658E+04  0.17200000000E+03 0. -1.
         -6    1    1    2    0  501 -0.22357446323E+03 -0.72954202920E+01 -0.29772951640E+03  0.41020193649E+03  0.17200000000E+03 0.  1.
</event>
<event>
 4    1  0.6365705E-002  0.2168896E+03  0.7818608E-02  0.1136223E+00
          2   -1    0    0  502    0  0.00000000000E+00  0.00000000000E+00  0.66262533345E+02  0.66262533345E+02  0.00000000000E+00 0. -1.
         -2   -1    0    0    0  501 -0.00000000000E+00 -0.00000000000E+00 -0.71571901837E+03  0.71571901837E+03  0.00000000000E+00 0.  1.
          6    1    1    2  502    0  0.78419076338E+02  0.10633702525E+03 -0.35992178481E+03  0.42021994913E+03  0.17200000000E+03 0. -1.
         -6    1    1    2    0  501 -0.78419076338E+02 -0.10633702525E+03 -0.28953470022E+03  0.36176160259E+03  0.17200000000E+03 0.  1.
</event>
<event>
 4    1  0.6365705E-002  0.2637396E+03  0.7818608E-02  0.1104917E+00
         -2   -1    0    0    0  501 -0.00000000000E+00  0.00000000000E+00  0.15769729524E+03  0.15769729524E+03  0.00000000000E+00 0.  1.
          2   -1    0    0  502    0  0.00000000000E+00 -0.00000000000E+00 -0.95162880762E+03  0.95162880762E+03  0.00000000000E+00 0. -1.
          6    1    1    2  502    0 -0.98576553821E+02  0.17394610041E+03  0.92999294740E+01  0.26390352688E+03  0.17200000000E+03 0.  1.
         -6    1    1    2    0  501  0.98576553821E+02 -0.17394610041E+03 -0.80323144185E+03  0.84542257599E+03  0.17200000000E+03 0. -1.
</event>
<event>
 4    1  0.6365705E-002  0.2934259E+03  0.7818608E-02  0.1088574E+00
          1   -1    0    0  502    0  0.00000000000E+00  0.00000000000E+00  0.38060269313E+03  0.38060269313E+03  0.00000000000E+00 0. -1.
         -1   -1    0    0    0  501 -0.00000000000E+00 -0.00000000000E+00 -0.30919885795E+03  0.30919885795E+03  0.00000000000E+00 0.  1.
          6    1    1    2  502    0 -0.19995768071E+03  0.12857564593E+03  0.21437823972E+03  0.36339620316E+03  0.17200000000E+03 0. -1.
         -6    1    1    2    0  501  0.19995768071E+03 -0.12857564593E+03 -0.14297440454E+03  0.32640534792E+03  0.17200000000E+03 0.  1.
</event>
<event>
 4    1  0.6365705E-002  0.1006847E+04  0.7818608E-02  0.9301067E-01
          2   -1    0    0  502    0  0.00000000000E+00  0.00000000000E+00  0.10029638394E+04  0.10029638394E+04  0.00000000000E+00 0. -1.
         -2   -1    0    0    0  501 -0.00000000000E+00 -0.00000000000E+00 -0.10107597926E+04  0.10107597926E+04  0.00000000000E+00 0.  1.
          6    1    1    2  502    0  0.46432267004E+03  0.87667604761E+03 -0.77823145213E+01  0.10068768538E+04  0.17200000000E+03 0. -1.
         -6    1    1    2    0  501 -0.46432267004E+03 -0.87667604761E+03 -0.13638697681E-01  0.10068467781E+04  0.17200000000E+03 0.  1.
</event>
<event>
 4    1  0.6365705E-002  0.2653524E+03  0.7818608E-02  0.1103969E+00
         -1   -1    0    0    0  501 -0.00000000000E+00  0.00000000000E+00  0.37717474310E+03  0.37717474310E+03  0.00000000000E+00 0.  1.
          1   -1    0    0  502    0  0.00000000000E+00 -0.00000000000E+00 -0.21847190504E+03  0.21847190504E+03  0.00000000000E+00 0. -1.
          6    1    1    2  502    0  0.18375576742E+03 -0.84033964922E+02 -0.34254964841E+02  0.26755427849E+03  0.17200000000E+03 0.  1.
         -6    1    1    2    0  501 -0.18375576742E+03  0.84033964922E+02  0.19295780290E+03  0.32809236965E+03  0.17200000000E+03 0. -1.
</event>
<event>
 4    1  0.6365705E-002  0.1771049E+03  0.7818608E-02  0.1170635E+00
          2   -1    0    0  502    0  0.00000000000E+00  0.00000000000E+00  0.37719558398E+03  0.37719558398E+03  0.00000000000E+00 0. -1.
         -2   -1    0    0    0  501 -0.00000000000E+00 -0.00000000000E+00 -0.83163256842E+02  0.83163256842E+02  0.00000000000E+00 0.  1.
          6    1    1    2  502    0 -0.27053810761E+02  0.32407590206E+02  0.14913285464E+03  0.23153135622E+03  0.17200000000E+03 0. -1.
         -6    1    1    2    0  501  0.27053810761E+02 -0.32407590206E+02  0.14489947249E+03  0.22882748460E+03  0.17200000000E+03 0.  1.
</event>
<event>
 4    1  0.6365705E-002  0.1806767E+03  0.7818608E-02  0.1167150E+00
         -1   -1    0    0    0  501 -0.00000000000E+00  0.00000000000E+00  0.18731128243E+02  0.18731128243E+02  0.00000000000E+00 0.  1.
          1   -1    0    0  502    0  0.00000000000E+00 -0.00000000000E+00 -0.29610051182E+04  0.29610051182E+04  0.00000000000E+00 0. -1.
          6    1    1    2  502    0 -0.46035997635E+02  0.30671815480E+02 -0.24267753430E+04  0.24334918613E+04  0.17200000000E+03 0. -1.
         -6    1    1    2    0  501  0.46035997635E+02 -0.30671815480E+02 -0.51549864688E+03  0.54624438512E+03  0.17200000000E+03 0.  1.
</event>
<event>
 4    1  0.6365705E-002  0.2124855E+03  0.7818608E-02  0.1139613E+00
         -2   -1    0    0    0  501 -0.00000000000E+00  0.00000000000E+00  0.29034944663E+02  0.29034944663E+02  0.00000000000E+00 0.  1.
          2   -1    0    0  502    0  0.00000000000E+00 -0.00000000000E+00 -0.17127916768E+04  0.17127916768E+04  0.00000000000E+00 0. -1.
          6    1    1    2  502    0  0.12398602564E+03  0.13912672326E+02 -0.11061976016E+04  0.11264205390E+04  0.17200000000E+03 0. -1.
         -6    1    1    2    0  501 -0.12398602564E+03 -0.13912672326E+02 -0.57755913053E+03  0.61540608241E+03  0.17200000000E+03 0.  1.
</event>
<event>
 4    1  0.6365705E-002  0.2252329E+03  0.7818608E-02  0.1130041E+00
         -2   -1    0    0    0  501 -0.00000000000E+00  0.00000000000E+00  0.18894955358E+02  0.18894955358E+02  0.00000000000E+00 0.  1.
          2   -1    0    0  502    0  0.00000000000E+00 -0.00000000000E+00 -0.36639766848E+04  0.36639766848E+04  0.00000000000E+00 0. -1.
          6    1    1    2  502    0 -0.52840024958E+02 -0.13547617418E+03 -0.27744658331E+04  0.27835930955E+04  0.17200000000E+03 0. -1.
         -6    1    1    2    0  501  0.52840024958E+02  0.13547617418E+03 -0.87061589635E+03  0.89927854472E+03  0.17200000000E+03 0.  1.
</event>
<event>
 4    1  0.6365705E-002  0.3066164E+03  0.7818608E-02  0.1081979E+00
          1   -1    0    0  502    0  0.00000000000E+00  0.00000000000E+00  0.61882348932E+03  0.61882348932E+03  0.00000000000E+00 0. -1.
         -1   -1    0    0    0  501 -0.00000000000E+00 -0.00000000000E+00 -0.22771499452E+03  0.22771499452E+03  0.00000000000E+00 0.  1.
          6    1    1    2  502    0  0.23223543295E+03  0.10245146916E+03  0.43974667857E+03  0.53608837066E+03  0.17200000000E+03 0. -1.
         -6    1    1    2    0  501 -0.23223543295E+03 -0.10245146916E+03 -0.48638183769E+02  0.31045011318E+03  0.17200000000E+03 0.  1.
</event>
<event>
 4    1  0.6365705E-002  0.1836282E+03  0.7818608E-02  0.1164337E+00
          4   -1    0    0  502    0  0.00000000000E+00  0.00000000000E+00  0.10439262860E+04  0.10439262860E+04  0.00000000000E+00 0. -1.
         -4   -1    0    0    0  501 -0.00000000000E+00 -0.00000000000E+00 -0.33031010709E+02  0.33031010709E+02  0.00000000000E+00 0.  1.
          6    1    1    2  502    0 -0.37023569073E+02  0.52579351001E+02  0.42536780080E+03  0.46331101733E+03  0.17200000000E+03 0.  1.
         -6    1    1    2    0  501  0.37023569073E+02 -0.52579351001E+02  0.58552747452E+03  0.61364627942E+03  0.17200000000E+03 0.  1.
</event>
<event>
 4    1  0.6365705E-002  0.1834005E+03  0.7818608E-02  0.1164552E+00
         -1   -1    0    0    0  501 -0.00000000000E+00  0.00000000000E+00  0.51249832548E+02  0.51249832548E+02  0.00000000000E+00 0.  1.
          1   -1    0    0  502    0  0.00000000000E+00 -0.00000000000E+00 -0.10516458499E+04  0.10516458499E+04  0.00000000000E+00 0. -1.
          6    1    1    2  502    0 -0.61295308632E+02  0.17165267209E+02 -0.16209194520E+03  0.24476429469E+03  0.17200000000E+03 0.  1.
         -6    1    1    2    0  501  0.61295308632E+02 -0.17165267209E+02 -0.83830407212E+03  0.85813138772E+03  0.17200000000E+03 0. -1.
</event>
<event>
 4    1  0.6365705E-002  0.2918519E+03  0.7818608E-02  0.1089386E+00
         -2   -1    0    0    0  501 -0.00000000000E+00  0.00000000000E+00  0.41744179192E+02  0.41744179192E+02  0.00000000000E+00 0.  1.
          2   -1    0    0  502    0  0.00000000000E+00 -0.00000000000E+00 -0.20598836071E+04  0.20598836071E+04  0.00000000000E+00 0. -1.
          6    1    1    2  502    0  0.22214518929E+03  0.79025602752E+02 -0.11110966859E+04  0.11487877856E+04  0.17200000000E+03 0. -1.
         -6    1    1    2    0  501 -0.22214518929E+03 -0.79025602752E+02 -0.90704274205E+03  0.95284000070E+03  0.17200000000E+03 0.  1.
</event>
<event>
 4    1  0.6365705E-002  0.1847643E+03  0.7818608E-02  0.1163270E+00
         -2   -1    0    0    0  501 -0.00000000000E+00  0.00000000000E+00  0.11053739101E+02  0.11053739101E+02  0.00000000000E+00 0.  1.
          2   -1    0    0  502    0  0.00000000000E+00 -0.00000000000E+00 -0.34666899010E+04  0.34666899010E+04  0.00000000000E+00 0. -1.
          6    1    1    2  502    0  0.72276271385E+01 -0.67094091761E+02 -0.23022638527E+04  0.23096659289E+04  0.17200000000E+03 0. -1.
         -6    1    1    2    0  501 -0.72276271385E+01  0.67094091761E+02 -0.11533723092E+04  0.11680777112E+04  0.17200000000E+03 0.  1.
</event>
<event>
 4    1  0.6365705E-002  0.2105290E+03  0.7818608E-02  0.1141148E+00
          2   -1    0    0  502    0  0.00000000000E+00  0.00000000000E+00  0.29977748681E+03  0.29977748681E+03  0.00000000000E+00 0. -1.
         -2   -1    0    0    0  501 -0.00000000000E+00 -0.00000000000E+00 -0.15349679887E+03  0.15349679887E+03  0.00000000000E+00 0.  1.
          6    1    1    2  502    0 -0.97129384416E+02  0.72830896166E+02  0.29675612705E+02  0.21261020376E+03  0.17200000000E+03 0. -1.
         -6    1    1    2    0  501  0.97129384416E+02 -0.72830896166E+02  0.11660507524E+03  0.24066408192E+03  0.17200000000E+03 0.  1.
</event>
<event>
 4    1  0.6365705E-002  0.2426502E+03  0.7818608E-02  0.1118040E+00
          2   -1    0    0  502    0  0.00000000000E+00  0.00000000000E+00  0.67111145789E+03  0.67111145789E+03  0.00000000000E+00 0. -1.
         -2   -1    0    0    0  501 -0.00000000000E+00 -0.00000000000E+00 -0.88826098192E+02  0.88826098192E+02  0.00000000000E+00 0.  1.
          6    1    1    2  502    0 -0.40512105226E+02  0.16629459063E+03  0.33327924708E+03  0.41225499157E+03  0.17200000000E+03 0. -1.
         -6    1    1    2    0  501  0.40512105226E+02 -0.16629459063E+03  0.24900611263E+03  0.34768256452E+03  0.17200000000E+03 0.  1.
</event>
<event>
 4    1  0.6365705E-002  0.2870269E+03  0.7818608E-02  0.1091912E+00
          2   -1    0    0  502    0  0.00000000000E+00  0.00000000000E+00  0.13303214159E+04  0.13303214159E+04  0.00000000000E+00 0. -1.
         -2   -1    0    0    0  501 -0.00000000000E+00 -0.00000000000E+00 -0.61943499878E+02  0.61943499878E+02  0.00000000000E+00 0.  1.
          6    1    1    2  502    0 -0.22839475006E+03  0.25224111533E+02  0.64512761073E+03  0.70609776362E+03  0.17200000000E+03 0. -1.
         -6    1    1    2    0  501  0.22839475006E+03 -0.25224111533E+02  0.62325030531E+03  0.68616715217E+03  0.17200000000E+03 0.  1.
</event>
<event>
 4    1  0.6365705E-002  0.2738715E+03  0.7818608E-02  0.1099084E+00
          2   -1    0    0  502    0  0.00000000000E+00  0.00000000000E+00  0.84337955939E+03  0.84337955939E+03  0.00000000000E+00 0. -1.
         -2   -1    0    0    0  501 -0.00000000000E+00 -0.00000000000E+00 -0.92844882482E+02  0.92844882482E+02  0.00000000000E+00 0.  1.
          6    1    1    2  502    0 -0.15461864729E+03 -0.14667871684E+03  0.27919940154E+03  0.39109829696E+03  0.17200000000E+03 0.  1.
         -6    1    1    2    0  501  0.15461864729E+03  0.14667871684E+03  0.47133527537E+03  0.54512614492E+03  0.17200000000E+03 0.  1.
</event>
<event>
 4    1  0.6365705E-002  0.2056775E+03  0.7818608E-02  0.1145035E+00
         -1   -1    0    0    0  501 -0.00000000000E+00  0.00000000000E+00  0.14497902708E+03  0.14497902708E+03  0.00000000000E+00 0.  1.
          1   -1    0    0  502    0  0.00000000000E+00 -0.00000000000E+00 -0.29848608364E+03  0.29848608364E+03  0.00000000000E+00 0. -1.
          6    1    1    2  502    0 -0.13211165451E+02  0.11200317126E+03 -0.10996737985E+03  0.23322965055E+03  0.17200000000E+03 0. -1.
         -6    1    1    2    0  501  0.13211165451E+02 -0.11200317126E+03 -0.43539676702E+02  0.21023546017E+03  0.17200000000E+03 0.  1.
</event>
<event>
 4    1  0.6365705E-002  0.1785868E+03  0.7818608E-02  0.1169178E+00
         -2   -1    0    0    0  501 -0.00000000000E+00  0.00000000000E+00  0.37212110326E+03  0.37212110326E+03  0.00000000000E+00 0.  1.
          2   -1    0    0  502    0  0.00000000000E+00 -0.00000000000E+00 -0.94524963065E+02  0.94524963065E+02  0.00000000000E+00 0. -1.
          6    1    1    2  502    0  0.83398377953E+00 -0.48047390056E+02  0.21006326949E+03  0.27571692804E+03  0.17200000000E+03 0. -1.
         -6    1    1    2    0  501 -0.83398377953E+00  0.48047390056E+02  0.67532870707E+02  0.19092913828E+03  0.17200000000E+03 0. -1.
</event>
<event>
 4    1  0.6365705E-002  0.2463511E+03  0.7818608E-02  0.1115633E+00
          2   -1    0    0  502    0  0.00000000000E+00  0.00000000000E+00  0.10922642910E+03  0.10922642910E+03  0.00000000000E+00 0. -1.
         -2   -1    0    0    0  501 -0.00000000000E+00 -0.00000000000E+00 -0.60145847666E+03  0.60145847666E+03  0.00000000000E+00 0.  1.
          6    1    1    2  502    0  0.28005681865E+02  0.17412791612E+03 -0.14802271797E+03  0.28740141688E+03  0.17200000000E+03 0. -1.
         -6    1    1    2    0  501 -0.28005681865E+02 -0.17412791612E+03 -0.34420932958E+03  0.42328348888E+03  0.17200000000E+03 0.  1.
</event>
<event>
 4    1  0.6365705E-002  0.1785044E+03  0.7818608E-02  0.1169258E+00
          2   -1    0    0  502    0  0.00000000000E+00  0.00000000000E+00  0.36489478881E+03  0.36489478881E+03  0.00000000000E+00 0. -1.
         -2   -1    0    0    0  501 -0.00000000000E+00 -0.00000000000E+00 -0.26246252937E+03  0.26246252937E+03  0.00000000000E+00 0.  1.
          6    1    1    2  502    0 -0.21284209251E+02  0.42741217736E+02  0.30745380989E+03  0.35551606781E+03  0.17200000000E+03 0. -1.
         -6    1    1    2    0  501  0.21284209251E+02 -0.42741217736E+02 -0.20502155045E+03  0.27184125038E+03  0.17200000000E+03 0.  1.
</event>
<event>
 4    1  0.6365705E-002  0.3244828E+03  0.7818608E-02  0.1073604E+00
         -1   -1    0    0    0  501 -0.00000000000E+00  0.00000000000E+00  0.41470360456E+03  0.41470360456E+03  0.00000000000E+00 0.  1.
          1   -1    0    0  502    0  0.00000000000E+00 -0.00000000000E+00 -0.25704501856E+03  0.25704501856E+03  0.00000000000E+00 0. -1.
          6    1    1    2  502    0  0.24374912221E+03  0.12763795880E+03  0.41617923674E+02  0.32714084837E+03  0.17200000000E+03 0. -1.
         -6    1    1    2    0  501 -0.24374912221E+03 -0.12763795880E+03  0.11604066232E+03  0.34460777475E+03  0.17200000000E+03 0.  1.
</event>
<event>
 4    1  0.6365705E-002  0.3182278E+03  0.7818608E-02  0.1076468E+00
         -1   -1    0    0    0  501 -0.00000000000E+00  0.00000000000E+00  0.44978503262E+03  0.44978503262E+03  0.00000000000E+00 0.  1.
          1   -1    0    0  502    0  0.00000000000E+00 -0.00000000000E+00 -0.24788205971E+03  0.24788205971E+03  0.00000000000E+00 0. -1.
          6    1    1    2  502    0 -0.67085115789E+01  0.26765640533E+03 -0.46860248038E+01  0.31826233561E+03  0.17200000000E+03 0.  1.
         -6    1    1    2    0  501  0.67085115789E+01 -0.26765640533E+03  0.20658899771E+03  0.37940475671E+03  0.17200000000E+03 0.  1.
</event>
<event>
 4    1  0.6365705E-002  0.1998864E+03  0.7818608E-02  0.1149835E+00
         -2   -1    0    0    0  501 -0.00000000000E+00  0.00000000000E+00  0.23004916223E+03  0.23004916223E+03  0.00000000000E+00 0.  1.
          2   -1    0    0  502    0  0.00000000000E+00 -0.00000000000E+00 -0.19289887769E+03  0.19289887769E+03  0.00000000000E+00 0. -1.
          6    1    1    2  502    0 -0.76073375056E+02 -0.67700939049E+02 -0.48178352522E+02  0.20561062519E+03  0.17200000000E+03 0. -1.
         -6    1    1    2    0  501  0.76073375056E+02  0.67700939049E+02  0.85328637063E+02  0.21733741473E+03  0.17200000000E+03 0.  1.
</event>
<event>
 4    1  0.6365705E-002  0.1961745E+03  0.7818608E-02  0.1153007E+00
         -2   -1    0    0    0  501 -0.00000000000E+00  0.00000000000E+00  0.98207008166E+02  0.98207008166E+02  0.00000000000E+00 0.  1.
          2   -1    0    0  502    0  0.00000000000E+00 -0.00000000000E+00 -0.41705833857E+03  0.41705833857E+03  0.00000000000E+00 0. -1.
          6    1    1    2  502    0 -0.87624839427E+02 -0.34961445089E+02 -0.96111740024E+02  0.21845338564E+03  0.17200000000E+03 0. -1.
         -6    1    1    2    0  501  0.87624839427E+02  0.34961445089E+02 -0.22273959038E+03  0.29681196110E+03  0.17200000000E+03 0. -1.
</event>
<event>
 4    1  0.6365705E-002  0.1804949E+03  0.7818608E-02  0.1167325E+00
         -2   -1    0    0    0  501 -0.00000000000E+00  0.00000000000E+00  0.78217125256E+02  0.78217125256E+02  0.00000000000E+00 0.  1.
          2   -1    0    0  502    0  0.00000000000E+00 -0.00000000000E+00 -0.60195730836E+03  0.60195730836E+03  0.00000000000E+00 0. -1.
          6    1    1    2  502    0 -0.48675290859E+02  0.25002718981E+02 -0.45063213037E+03  0.48543561552E+03  0.17200000000E+03 0. -1.
         -6    1    1    2    0  501  0.48675290859E+02 -0.25002718981E+02 -0.73108052731E+02  0.19473881809E+03  0.17200000000E+03 0.  1.
</event>
<event>
 4    1  0.6365705E-002  0.3386276E+03  0.7818608E-02  0.1067382E+00
         -1   -1    0    0    0  501 -0.00000000000E+00  0.00000000000E+00  0.21758969647E+04  0.21758969647E+04  0.00000000000E+00 0.  1.
          1   -1    0    0  502    0  0.00000000000E+00 -0.00000000000E+00 -0.83362042290E+02  0.83362042290E+02  0.00000000000E+00 0. -1.
          6    1    1    2  502    0 -0.18620395392E+03 -0.22452775917E+03  0.36116407693E+03  0.49508395001E+03  0.17200000000E+03 0. -1.
         -6    1    1    2    0  501  0.18620395392E+03  0.22452775917E+03  0.17313708454E+04  0.17641750569E+04  0.17200000000E+03 0.  1.
</event>
<event>
 4    1  0.6365705E-002  0.2168134E+03  0.7818608E-02  0.1136281E+00
          1   -1    0    0  502    0  0.00000000000E+00  0.00000000000E+00  0.27471749619E+03  0.27471749619E+03  0.00000000000E+00 0. -1.
         -1   -1    0    0    0  501 -0.00000000000E+00 -0.00000000000E+00 -0.20705354903E+03  0.20705354903E+03  0.00000000000E+00 0.  1.
          6    1    1    2  502    0 -0.10736486946E+03  0.76790904285E+02  0.13419057586E+03  0.25498072246E+03  0.17200000000E+03 0. -1.
         -6    1    1    2    0  501  0.10736486946E+03 -0.76790904285E+02 -0.66526628701E+02  0.22679032277E+03  0.17200000000E+03 0. -1.
</event>
<event>
 4    1  0.6365705E-002  0.2526236E+03  0.7818608E-02  0.1111658E+00
         -1   -1    0    0    0  501 -0.00000000000E+00  0.00000000000E+00  0.20845830312E+02  0.20845830312E+02  0.00000000000E+00 0.  1.
          1   -1    0    0  502    0  0.00000000000E+00 -0.00000000000E+00 -0.35293291309E+04  0.35293291309E+04  0.00000000000E+00 0. -1.
          6    1    1    2  502    0 -0.18479635825E+03  0.92181293111E+01 -0.24005444674E+04  0.24138004076E+04  0.17200000000E+03 0. -1.
         -6    1    1    2    0  501  0.18479635825E+03 -0.92181293111E+01 -0.11079388332E+04  0.11363745535E+04  0.17200000000E+03 0.  1.
</event>
<event>
 4    1  0.6365705E-002  0.4021531E+03  0.7818608E-02  0.1043037E+00
          1   -1    0    0  502    0  0.00000000000E+00  0.00000000000E+00  0.81490455783E+03  0.81490455783E+03  0.00000000000E+00 0. -1.
         -1   -1    0    0    0  501 -0.00000000000E+00 -0.00000000000E+00 -0.27065478313E+03  0.27065478313E+03  0.00000000000E+00 0.  1.
          6    1    1    2  502    0 -0.28063960977E+03  0.23105096850E+03  0.55245145840E+03  0.68332258452E+03  0.17200000000E+03 0. -1.
         -6    1    1    2    0  501  0.28063960977E+03 -0.23105096850E+03 -0.82016837011E+01  0.40223675644E+03  0.17200000000E+03 0.  1.
</event>
<event>
 4    1  0.6365705E-002  0.1902730E+03  0.7818608E-02  0.1158215E+00
          1   -1    0    0  502    0  0.00000000000E+00  0.00000000000E+00  0.22039959882E+04  0.22039959882E+04  0.00000000000E+00 0. -1.
         -1   -1    0    0    0  501 -0.00000000000E+00 -0.00000000000E+00 -0.16763871868E+02  0.16763871868E+02  0.00000000000E+00 0.  1.
          6    1    1    2  502    0  0.80609312405E+02 -0.11042448353E+02  0.93607974352E+03  0.95522200725E+03  0.17200000000E+03 0. -1.
         -6    1    1    2    0  501 -0.80609312405E+02  0.11042448353E+02  0.12511523728E+04  0.12655378528E+04  0.17200000000E+03 0.  1.
</event>
<event>
 4    1  0.6365705E-002  0.1744614E+03  0.7818608E-02  0.1173274E+00
          1   -1    0    0  502    0  0.00000000000E+00  0.00000000000E+00  0.15204640967E+04  0.15204640967E+04  0.00000000000E+00 0. -1.
         -1   -1    0    0    0  501 -0.00000000000E+00 -0.00000000000E+00 -0.20054886297E+02  0.20054886297E+02  0.00000000000E+00 0.  1.
          6    1    1    2  502    0  0.22303062314E+02 -0.18850879357E+02  0.78319959377E+03  0.80239540498E+03  0.17200000000E+03 0.  1.
         -6    1    1    2    0  501 -0.22303062314E+02  0.18850879357E+02  0.71720961660E+03  0.73812357799E+03  0.17200000000E+03 0. -1.
</event>
<event>
 4    1  0.6365705E-002  0.4008208E+03  0.7818608E-02  0.1043496E+00
          1   -1    0    0  502    0  0.00000000000E+00  0.00000000000E+00  0.71195739464E+03  0.71195739464E+03  0.00000000000E+00 0. -1.
         -1   -1    0    0    0  501 -0.00000000000E+00 -0.00000000000E+00 -0.22618834656E+03  0.22618834656E+03  0.00000000000E+00 0.  1.
          6    1    1    2  502    0  0.34165020555E+03 -0.11978496270E+03  0.26564559591E+03  0.48085848528E+03  0.17200000000E+03 0. -1.
         -6    1    1    2    0  501 -0.34165020555E+03  0.11978496270E+03  0.22012345217E+03  0.45728725593E+03  0.17200000000E+03 0.  1.
</event>
<event>
 4    1  0.6365705E-002  0.2699787E+03  0.7818608E-02  0.1101292E+00
         -1   -1    0    0    0  501 -0.00000000000E+00  0.00000000000E+00  0.21973503744E+03  0.21973503744E+03  0.00000000000E+00 0.  1.
          1   -1    0    0  502    0  0.00000000000E+00 -0.00000000000E+00 -0.33172015664E+03  0.33172015664E+03  0.00000000000E+00 0. -1.
          6    1    1    2  502    0  0.17511812191E+03  0.11241938446E+03 -0.57460651936E+02  0.27602572551E+03  0.17200000000E+03 0. -1.
         -6    1    1    2    0  501 -0.17511812191E+03 -0.11241938446E+03 -0.54524467263E+02  0.27542946856E+03  0.17200000000E+03 0.  1.
</event>
<event>
 4    1  0.6365705E-002  0.2917696E+03  0.7818608E-02  0.1089429E+00
         -2   -1    0    0    0  501 -0.00000000000E+00  0.00000000000E+00  0.18247029666E+03  0.18247029666E+03  0.00000000000E+00 0.  1.
          2   -1    0    0  502    0  0.00000000000E+00 -0.00000000000E+00 -0.99480754974E+03  0.99480754974E+03  0.00000000000E+00 0. -1.
          6    1    1    2  502    0  0.17190586200E+03  0.16122609815E+03 -0.83511883620E+03  0.88462022964E+03  0.17200000000E+03 0.  1.
         -6    1    1    2    0  501 -0.17190586200E+03 -0.16122609815E+03  0.22781583120E+02  0.29265761676E+03  0.17200000000E+03 0.  1.
</event>
<event>
 4    1  0.6365705E-002  0.1949249E+03  0.7818608E-02  0.1154093E+00
         -1   -1    0    0    0  501 -0.00000000000E+00  0.00000000000E+00  0.17008376239E+02  0.17008376239E+02  0.00000000000E+00 0.  1.
          1   -1    0    0  502    0  0.00000000000E+00 -0.00000000000E+00 -0.22636462260E+04  0.22636462260E+04  0.00000000000E+00 0. -1.
          6    1    1    2  502    0  0.83273684201E+02 -0.38434301914E+02 -0.99268839907E+03  0.10116451748E+04  0.17200000000E+03 0. -1.
         -6    1    1    2    0  501 -0.83273684201E+02  0.38434301914E+02 -0.12539494507E+04  0.12690094274E+04  0.17200000000E+03 0. -1.
</event>
<event>
 4    1  0.6365705E-002  0.4209195E+03  0.7818608E-02  0.1036767E+00
          1   -1    0    0  502    0  0.00000000000E+00  0.00000000000E+00  0.56618289145E+03  0.56618289145E+03  0.00000000000E+00 0. -1.
         -1   -1    0    0    0  501 -0.00000000000E+00 -0.00000000000E+00 -0.34563805779E+03  0.34563805779E+03  0.00000000000E+00 0.  1.
          6    1    1    2  502    0 -0.19221515561E+03 -0.33262982038E+03 -0.29984313358E+02  0.42198616388E+03  0.17200000000E+03 0. -1.
         -6    1    1    2    0  501  0.19221515561E+03  0.33262982038E+03  0.25052914702E+03  0.48983478537E+03  0.17200000000E+03 0.  1.
</event>
<event>
 4    1  0.6365705E-002  0.2968275E+03  0.7818608E-02  0.1086837E+00
         -2   -1    0    0    0  501 -0.00000000000E+00  0.00000000000E+00  0.11778344380E+03  0.11778344380E+03  0.00000000000E+00 0.  1.
          2   -1    0    0  502    0  0.00000000000E+00 -0.00000000000E+00 -0.75287026957E+03  0.75287026957E+03  0.00000000000E+00 0. -1.
          6    1    1    2  502    0  0.22558464490E+03  0.87373384183E+02 -0.35241827058E+03  0.46076585997E+03  0.17200000000E+03 0. -1.
         -6    1    1    2    0  501 -0.22558464490E+03 -0.87373384183E+02 -0.28266855518E+03  0.40988785340E+03  0.17200000000E+03 0.  1.
</event>
<event>
 4    1  0.6365705E-002  0.5792068E+03  0.7818608E-02  0.9949510E-01
         -2   -1    0    0    0  501 -0.00000000000E+00  0.00000000000E+00  0.17706949348E+03  0.17706949348E+03  0.00000000000E+00 0.  1.
          2   -1    0    0  502    0  0.00000000000E+00 -0.00000000000E+00 -0.21494379230E+04  0.21494379230E+04  0.00000000000E+00 0. -1.
          6    1    1    2  502    0  0.37087680340E+03  0.41030105851E+03 -0.13867016293E+04  0.15028047014E+04  0.17200000000E+03 0. -1.
         -6    1    1    2    0  501 -0.37087680340E+03 -0.41030105851E+03 -0.58566680022E+03  0.82370271505E+03  0.17200000000E+03 0.  1.
</event>
<event>
 4    1  0.6365705E-002  0.1803379E+03  0.7818608E-02  0.1167476E+00
         -1   -1    0    0    0  501 -0.00000000000E+00  0.00000000000E+00  0.28965405177E+03  0.28965405177E+03  0.00000000000E+00 0.  1.
          1   -1    0    0  502    0  0.00000000000E+00 -0.00000000000E+00 -0.12690776082E+03  0.12690776082E+03  0.00000000000E+00 0. -1.
          6    1    1    2  502    0 -0.43978030970E+02 -0.31680877870E+02  0.10655850344E+02  0.18065240762E+03  0.17200000000E+03 0. -1.
         -6    1    1    2    0  501  0.43978030970E+02  0.31680877870E+02  0.15209044060E+03  0.23590940497E+03  0.17200000000E+03 0.  1.
</event>
<event>
 4    1  0.6365705E-002  0.2140375E+03  0.7818608E-02  0.1138408E+00
          2   -1    0    0  502    0  0.00000000000E+00  0.00000000000E+00  0.18699534849E+03  0.18699534849E+03  0.00000000000E+00 0. -1.
         -2   -1    0    0    0  501 -0.00000000000E+00 -0.00000000000E+00 -0.50576663777E+03  0.50576663777E+03  0.00000000000E+00 0.  1.
          6    1    1    2  502    0 -0.10898726755E+03  0.65953088307E+02  0.89335729922E+02  0.23193297951E+03  0.17200000000E+03 0. -1.
         -6    1    1    2    0  501  0.10898726755E+03 -0.65953088307E+02 -0.40810701920E+03  0.46082900675E+03  0.17200000000E+03 0. -1.
</event>
<event>
 4    1  0.6365705E-002  0.2018255E+03  0.7818608E-02  0.1148208E+00
         -2   -1    0    0    0  501 -0.00000000000E+00  0.00000000000E+00  0.83493314868E+02  0.83493314868E+02  0.00000000000E+00 0.  1.
          2   -1    0    0  502    0  0.00000000000E+00 -0.00000000000E+00 -0.16232556219E+04  0.16232556219E+04  0.00000000000E+00 0. -1.
          6    1    1    2  502    0 -0.66603241738E+02 -0.81936178235E+02 -0.56176227302E+02  0.20949772702E+03  0.17200000000E+03 0.  1.
         -6    1    1    2    0  501  0.66603241738E+02  0.81936178235E+02 -0.14835860797E+04  0.14972512097E+04  0.17200000000E+03 0. -1.
</event>
<event>
 4    1  0.6365705E-002  0.3133558E+03  0.7818608E-02  0.1078748E+00
          2   -1    0    0  502    0  0.00000000000E+00  0.00000000000E+00  0.33958388060E+04  0.33958388060E+04  0.00000000000E+00 0. -1.
         -2   -1    0    0    0  501 -0.00000000000E+00 -0.00000000000E+00 -0.38457551464E+02  0.38457551464E+02  0.00000000000E+00 0.  1.
          6    1    1    2  502    0 -0.14887076404E+03 -0.21551185247E+03  0.25340355480E+04  0.25533366448E+04  0.17200000000E+03 0. -1.
         -6    1    1    2    0  501  0.14887076404E+03  0.21551185247E+03  0.82334570657E+03  0.88095971274E+03  0.17200000000E+03 0.  1.
</event>
<event>
 4    1  0.6365705E-002  0.2081577E+03  0.7818608E-02  0.1143033E+00
         -2   -1    0    0    0  501 -0.00000000000E+00  0.00000000000E+00  0.17770763180E+03  0.17770763180E+03  0.00000000000E+00 0.  1.
          2   -1    0    0  502    0  0.00000000000E+00 -0.00000000000E+00 -0.27043222208E+03  0.27043222208E+03  0.00000000000E+00 0. -1.
          6    1    1    2  502    0  0.64620691274E+02  0.97825260328E+02 -0.11664552877E+03  0.23861222660E+03  0.17200000000E+03 0. -1.
         -6    1    1    2    0  501 -0.64620691274E+02 -0.97825260328E+02  0.23920938495E+02  0.20952762729E+03  0.17200000000E+03 0.  1.
</event>
<event>
 4    1  0.6365705E-002  0.3082678E+03  0.7818608E-02  0.1081179E+00
         -2   -1    0    0    0  501 -0.00000000000E+00  0.00000000000E+00  0.27375494374E+03  0.27375494374E+03  0.00000000000E+00 0.  1.
          2   -1    0    0  502    0  0.00000000000E+00 -0.00000000000E+00 -0.97585828295E+03  0.97585828295E+03  0.00000000000E+00 0. -1.
          6    1    1    2  502    0  0.13014848031E+03 -0.22024172746E+03 -0.85256573711E+03  0.90658556217E+03  0.17200000000E+03 0. -1.
         -6    1    1    2    0  501 -0.13014848031E+03  0.22024172746E+03  0.15046239791E+03  0.34302766452E+03  0.17200000000E+03 0.  1.
</event>
<event>
 4    1  0.6365705E-002  0.2167722E+03  0.7818608E-02  0.1136313E+00
          2   -1    0    0  502    0  0.00000000000E+00  0.00000000000E+00  0.45005174896E+03  0.45005174896E+03  0.00000000000E+00 0. -1.
         -2   -1    0    0    0  501 -0.00000000000E+00 -0.00000000000E+00 -0.12287893838E+03  0.12287893838E+03  0.00000000000E+00 0.  1.
          6    1    1    2  502    0  0.12299199596E+03  0.47740597962E+02  0.27464359618E+03  0.34988469627E+03  0.17200000000E+03 0. -1.
         -6    1    1    2    0  501 -0.12299199596E+03 -0.47740597962E+02  0.52529214398E+02  0.22304599106E+03  0.17200000000E+03 0.  1.
</event>
<event>
 4    1  0.6365705E-002  0.1859725E+03  0.7818608E-02  0.1162145E+00
          1   -1    0    0  502    0  0.00000000000E+00  0.00000000000E+00  0.62070716707E+03  0.62070716707E+03  0.00000000000E+00 0. -1.
         -1   -1    0    0    0  501 -0.00000000000E+00 -0.00000000000E+00 -0.72374912558E+02  0.72374912558E+02  0.00000000000E+00 0.  1.
          6    1    1    2  502    0  0.70522510419E+02 -0.53230229161E+01  0.10792718873E+03  0.21502101552E+03  0.17200000000E+03 0.  1.
         -6    1    1    2    0  501 -0.70522510419E+02  0.53230229161E+01  0.44040506578E+03  0.47806106411E+03  0.17200000000E+03 0. -1.
</event>
<event>
 4    1  0.6365705E-002  0.1956704E+03  0.7818608E-02  0.1153444E+00
         -1   -1    0    0    0  501 -0.00000000000E+00  0.00000000000E+00  0.35583143298E+02  0.35583143298E+02  0.00000000000E+00 0.  1.
          1   -1    0    0  502    0  0.00000000000E+00 -0.00000000000E+00 -0.10765750728E+04  0.10765750728E+04  0.00000000000E+00 0. -1.
          6    1    1    2  502    0 -0.56871032493E+02 -0.73949801598E+02 -0.53352734128E+03  0.56827661521E+03  0.17200000000E+03 0. -1.
         -6    1    1    2    0  501  0.56871032493E+02  0.73949801598E+02 -0.50746458822E+03  0.54388160089E+03  0.17200000000E+03 0. -1.
</event>
<event>
 4    1  0.6365705E-002  0.3331129E+03  0.7818608E-02  0.1069768E+00
          1   -1    0    0  502    0  0.00000000000E+00  0.00000000000E+00  0.12131145370E+04  0.12131145370E+04  0.00000000000E+00 0. -1.
         -1   -1    0    0    0  501 -0.00000000000E+00 -0.00000000000E+00 -0.38915531200E+03  0.38915531200E+03  0.00000000000E+00 0.  1.
          6    1    1    2  502    0 -0.27429906172E+03  0.78359761852E+02  0.11126640976E+04  0.11614584029E+04  0.17200000000E+03 0. -1.
         -6    1    1    2    0  501  0.27429906172E+03 -0.78359761852E+02 -0.28870487262E+03  0.44081144610E+03  0.17200000000E+03 0.  1.
</event>
<event>
 4    1  0.6365705E-002  0.3262326E+03  0.7818608E-02  0.1072816E+00
         -1   -1    0    0    0  501 -0.00000000000E+00  0.00000000000E+00  0.46320004782E+03  0.46320004782E+03  0.00000000000E+00 0.  1.
          1   -1    0    0  502    0  0.00000000000E+00 -0.00000000000E+00 -0.31113493538E+03  0.31113493538E+03  0.00000000000E+00 0. -1.
          6    1    1    2  502    0 -0.26829923101E+03 -0.69708215837E+02 -0.12196201887E+03  0.34828500795E+03  0.17200000000E+03 0. -1.
         -6    1    1    2    0  501  0.26829923101E+03  0.69708215837E+02  0.27402713132E+03  0.42604997525E+03  0.17200000000E+03 0.  1.
</event>
<event>
 4    1  0.6365705E-002  0.2170356E+03  0.7818608E-02  0.1136113E+00
         -2   -1    0    0    0  501 -0.00000000000E+00  0.00000000000E+00  0.42485901139E+02  0.42485901139E+02  0.00000000000E+00 0.  1.
          2   -1    0    0  502    0  0.00000000000E+00 -0.00000000000E+00 -0.11100740874E+04  0.11100740874E+04  0.00000000000E+00 0. -1.
          6    1    1    2  502    0  0.12500933903E+03  0.43509785374E+02 -0.55401403472E+03  0.59500923264E+03  0.17200000000E+03 0. -1.
         -6    1    1    2    0  501 -0.12500933903E+03 -0.43509785374E+02 -0.51357415156E+03  0.55755075591E+03  0.17200000000E+03 0.  1.
</event>
<event>
 4    1  0.6365705E-002  0.4052696E+03  0.7818608E-02  0.1041970E+00
          2   -1    0    0  502    0  0.00000000000E+00  0.00000000000E+00  0.24323237305E+03  0.24323237305E+03  0.00000000000E+00 0. -1.
         -2   -1    0    0    0  501 -0.00000000000E+00 -0.00000000000E+00 -0.68241010622E+03  0.68241010622E+03  0.00000000000E+00 0.  1.
          6    1    1    2  502    0  0.35880865820E+03 -0.76913985644E+02 -0.26698644952E+03  0.48530936382E+03  0.17200000000E+03 0. -1.
         -6    1    1    2    0  501 -0.35880865820E+03  0.76913985644E+02 -0.17219128365E+03  0.44033311544E+03  0.17200000000E+03 0.  1.
</event>
<event>
 4    1  0.6365705E-002  0.3282966E+03  0.7818608E-02  0.1071893E+00
         -1   -1    0    0    0  501 -0.00000000000E+00  0.00000000000E+00  0.14231639823E+03  0.14231639823E+03  0.00000000000E+00 0.  1.
          1   -1    0    0  502    0  0.00000000000E+00 -0.00000000000E+00 -0.82549590164E+03  0.82549590164E+03  0.00000000000E+00 0. -1.
          6    1    1    2  502    0  0.83459335709E+02 -0.26688803688E+03 -0.48065781331E+03  0.58207440971E+03  0.17200000000E+03 0. -1.
         -6    1    1    2    0  501 -0.83459335709E+02  0.26688803688E+03 -0.20252169010E+03  0.38573789016E+03  0.17200000000E+03 0.  1.
</event>
<event>
 4    1  0.6365705E-002  0.2307577E+03  0.7818608E-02  0.1126108E+00
          4   -1    0    0  502    0  0.00000000000E+00  0.00000000000E+00  0.14950326307E+03  0.14950326307E+03  0.00000000000E+00 0. -1.
         -4   -1    0    0    0  501 -0.00000000000E+00 -0.00000000000E+00 -0.53144463512E+03  0.53144463512E+03  0.00000000000E+00 0.  1.
          6    1    1    2  502    0  0.11132478211E+03  0.10616933751E+03  0.45576863534E+01  0.23080274661E+03  0.17200000000E+03 0. -1.
         -6    1    1    2    0  501 -0.11132478211E+03 -0.10616933751E+03 -0.38649905841E+03  0.45014515158E+03  0.17200000000E+03 0. -1.
</event>
<event>
 4    1  0.6365705E-002  0.1900587E+03  0.7818608E-02  0.1158408E+00
          2   -1    0    0  502    0  0.00000000000E+00  0.00000000000E+00  0.37250861754E+04  0.37250861754E+04  0.00000000000E+00 0. -1.
         -2   -1    0    0    0  501 -0.00000000000E+00 -0.00000000000E+00 -0.71135102118E+02  0.71135102118E+02  0.00000000000E+00 0.  1.
          6    1    1    2  502    0 -0.28048263564E+02  0.75839265716E+02  0.35909744281E+04  0.35960005065E+04  0.17200000000E+03 0. -1.
         -6    1    1    2    0  501  0.28048263564E+02 -0.75839265716E+02  0.62976645165E+02  0.20022077102E+03  0.17200000000E+03 0.  1.
</event>
<event>
 4    1  0.6365705E-002  0.6245588E+03  0.7818608E-02  0.9855725E-01
          1   -1    0    0  502    0  0.00000000000E+00  0.00000000000E+00  0.13947126571E+04  0.13947126571E+04  0.00000000000E+00 0. -1.
         -1   -1    0    0    0  501 -0.00000000000E+00 -0.00000000000E+00 -0.35727159865E+03  0.35727159865E+03  0.00000000000E+00 0.  1.
          6    1    1    2  502    0  0.35278876213E+03 -0.48582898512E+03  0.92695281489E+03  0.11177277104E+04  0.17200000000E+03 0. -1.
         -6    1    1    2    0  501 -0.35278876213E+03  0.48582898512E+03  0.11048824361E+03  0.63425654545E+03  0.17200000000E+03 0.  1.
</event>
<event>
 4    1  0.6365705E-002  0.2367665E+03  0.7818608E-02  0.1121966E+00
         -2   -1    0    0    0  501 -0.00000000000E+00  0.00000000000E+00  0.31747925559E+02  0.31747925559E+02  0.00000000000E+00 0.  1.
          2   -1    0    0  502    0  0.00000000000E+00 -0.00000000000E+00 -0.20776231624E+04  0.20776231624E+04  0.00000000000E+00 0. -1.
          6    1    1    2  502    0  0.10070993935E+03  0.12779631078E+03 -0.14315766106E+04  0.14510237700E+04  0.17200000000E+03 0.  1.
         -6    1    1    2    0  501 -0.10070993935E+03 -0.12779631078E+03 -0.61429862623E+03  0.65834731800E+03  0.17200000000E+03 0. -1.
</event>
<event>
 4    1  0.6365705E-002  0.2132493E+03  0.7818608E-02  0.1139018E+00
          1   -1    0    0  502    0  0.00000000000E+00  0.00000000000E+00  0.19237474990E+04  0.19237474990E+04  0.00000000000E+00 0. -1.
         -1   -1    0    0    0  501 -0.00000000000E+00 -0.00000000000E+00 -0.35207802463E+02  0.35207802463E+02  0.00000000000E+00 0.  1.
          6    1    1    2  502    0  0.81198612439E+02 -0.96426286947E+02  0.15057332549E+04  0.15207589811E+04  0.17200000000E+03 0. -1.
         -6    1    1    2    0  501 -0.81198612439E+02  0.96426286947E+02  0.38280644160E+03  0.43819632039E+03  0.17200000000E+03 0.  1.
</event>
<event>
 4    1  0.6365705E-002  0.2572818E+03  0.7818608E-02  0.1108787E+00
         -2   -1    0    0    0  501 -0.00000000000E+00  0.00000000000E+00  0.39290672942E+02  0.39290672942E+02  0.00000000000E+00 0.  1.
          2   -1    0    0  502    0  0.00000000000E+00 -0.00000000000E+00 -0.17109401670E+04  0.17109401670E+04  0.00000000000E+00 0. -1.
          6    1    1    2  502    0 -0.36201448970E+02 -0.18788123673E+03 -0.72749691800E+03  0.77165126172E+03  0.17200000000E+03 0.  1.
         -6    1    1    2    0  501  0.36201448970E+02  0.18788123673E+03 -0.94415257602E+03  0.97857957818E+03  0.17200000000E+03 0.  1.
</event>
<event>
 4    1  0.6365705E-002  0.2423429E+03  0.7818608E-02  0.1118242E+00
         -2   -1    0    0    0  501 -0.00000000000E+00  0.00000000000E+00  0.41616965924E+02  0.41616965924E+02  0.00000000000E+00 0.  1.
          2   -1    0    0  502    0  0.00000000000E+00 -0.00000000000E+00 -0.18384647700E+04  0.18384647700E+04  0.00000000000E+00 0. -1.
          6    1    1    2  502    0 -0.12975149558E+03 -0.11095331481E+03 -0.44525003590E+03  0.50692966292E+03  0.17200000000E+03 0.  1.
         -6    1    1    2    0  501  0.12975149558E+03  0.11095331481E+03 -0.13515977681E+04  0.13731520730E+04  0.17200000000E+03 0. -1.
</event>
<event>
 4    1  0.6365705E-002  0.4252214E+03  0.7818608E-02  0.1035380E+00
         -2   -1    0    0    0  501 -0.00000000000E+00  0.00000000000E+00  0.85232468591E+02  0.85232468591E+02  0.00000000000E+00 0.  1.
          2   -1    0    0  502    0  0.00000000000E+00 -0.00000000000E+00 -0.37819755149E+04  0.37819755149E+04  0.00000000000E+00 0. -1.
          6    1    1    2  502    0  0.21344608359E+03 -0.32506923525E+03 -0.31296272997E+04  0.31583825407E+04  0.17200000000E+03 0. -1.
         -6    1    1    2    0  501 -0.21344608359E+03  0.32506923525E+03 -0.56711574660E+03  0.70882544279E+03  0.17200000000E+03 0.  1.
</event>
<event>
 4    1  0.6365705E-002  0.3809726E+03  0.7818608E-02  0.1050575E+00
          2   -1    0    0  502    0  0.00000000000E+00  0.00000000000E+00  0.16567564407E+04  0.16567564407E+04  0.00000000000E+00 0. -1.
         -2   -1    0    0    0  501 -0.00000000000E+00 -0.00000000000E+00 -0.87905280601E+02  0.87905280601E+02  0.00000000000E+00 0.  1.
          6    1    1    2  502    0  0.25506163745E+03  0.22472135843E+03  0.73344013793E+03  0.82648325075E+03  0.17200000000E+03 0. -1.
         -6    1    1    2    0  501 -0.25506163745E+03 -0.22472135843E+03  0.83541102213E+03  0.91817847052E+03  0.17200000000E+03 0.  1.
</event>
<event>
 4    1  0.6365705E-002  0.2246832E+03  0.7818608E-02  0.1130439E+00
         -1   -1    0    0    0  501 -0.00000000000E+00  0.00000000000E+00  0.33007912724E+02  0.33007912724E+02  0.00000000000E+00 0.  1.
          1   -1    0    0  502    0  0.00000000000E+00 -0.00000000000E+00 -0.15505010320E+04  0.15505010320E+04  0.00000000000E+00 0. -1.
          6    1    1    2  502    0 -0.88119240549E+02 -0.11460170999E+03 -0.85109469869E+03  0.88025265613E+03  0.17200000000E+03 0. -1.
         -6    1    1    2    0  501  0.88119240549E+02  0.11460170999E+03 -0.66639842058E+03  0.70325628859E+03  0.17200000000E+03 0.  1.
</event>
<event>
 4    1  0.6365705E-002  0.2746360E+03  0.7818608E-02  0.1098655E+00
          2   -1    0    0  502    0  0.00000000000E+00  0.00000000000E+00  0.81760286433E+03  0.81760286433E+03  0.00000000000E+00 0. -1.
         -2   -1    0    0    0  501 -0.00000000000E+00 -0.00000000000E+00 -0.11367440156E+03  0.11367440156E+03  0.00000000000E+00 0.  1.
          6    1    1    2  502    0 -0.21381170447E+03 -0.11200921150E+02  0.55410741781E+03  0.61843345324E+03  0.17200000000E+03 0. -1.
         -6    1    1    2    0  501  0.21381170447E+03  0.11200921150E+02  0.14982104495E+03  0.31284381265E+03  0.17200000000E+03 0.  1.
</event>
<event>
 4    1  0.6365705E-002  0.3929023E+03  0.7818608E-02  0.1046265E+00
          2   -1    0    0  502    0  0.00000000000E+00  0.00000000000E+00  0.88166763730E+03  0.88166763730E+03  0.00000000000E+00 0. -1.
         -2   -1    0    0    0  501 -0.00000000000E+00 -0.00000000000E+00 -0.26298661605E+03  0.26298661605E+03  0.00000000000E+00 0.  1.
          6    1    1    2  502    0  0.84357146120E+02 -0.34303368730E+03  0.64021298319E+03  0.75116236765E+03  0.17200000000E+03 0. -1.
         -6    1    1    2    0  501 -0.84357146120E+02  0.34303368730E+03 -0.21531961938E+02  0.39349188570E+03  0.17200000000E+03 0.  1.
</event>
<event>
 4    1  0.6365705E-002  0.3164899E+03  0.7818608E-02  0.1077276E+00
          2   -1    0    0  502    0  0.00000000000E+00  0.00000000000E+00  0.38927157395E+03  0.38927157395E+03  0.00000000000E+00 0. -1.
         -2   -1    0    0    0  501 -0.00000000000E+00 -0.00000000000E+00 -0.42914226907E+03  0.42914226907E+03  0.00000000000E+00 0.  1.
          6    1    1    2  502    0  0.21594228341E+03  0.15476045725E+03  0.23899734940E+03  0.39659248847E+03  0.17200000000E+03 0. -1.
         -6    1    1    2    0  501 -0.21594228341E+03 -0.15476045725E+03 -0.27886804452E+03  0.42182135454E+03  0.17200000000E+03 0.  1.
</event>
<event>
 4    1  0.6365705E-002  0.2340760E+03  0.7818608E-02  0.1123803E+00
         -2   -1    0    0    0  501 -0.00000000000E+00  0.00000000000E+00  0.17425332679E+02  0.17425332679E+02  0.00000000000E+00 0.  1.
          2   -1    0    0  502    0  0.00000000000E+00 -0.00000000000E+00 -0.31443646023E+04  0.31443646023E+04  0.00000000000E+00 0. -1.
          6    1    1    2  502    0 -0.15176677929E+03 -0.46630648676E+02 -0.15645704782E+04  0.15819836769E+04  0.17200000000E+03 0.  1.
         -6    1    1    2    0  501  0.15176677929E+03  0.46630648676E+02 -0.15623687914E+04  0.15798062581E+04  0.17200000000E+03 0.  1.
</event>
<event>
 4    1  0.6365705E-002  0.6478026E+03  0.7818608E-02  0.9810911E-01
         -1   -1    0    0    0  501 -0.00000000000E+00  0.00000000000E+00  0.36039607300E+03  0.36039607300E+03  0.00000000000E+00 0.  1.
          1   -1    0    0  502    0  0.00000000000E+00 -0.00000000000E+00 -0.25432101886E+04  0.25432101886E+04  0.00000000000E+00 0. -1.
          6    1    1    2  502    0  0.36806645561E+03 -0.50457043669E+03 -0.21603819597E+04  0.22554153616E+04  0.17200000000E+03 0. -1.
         -6    1    1    2    0  501 -0.36806645561E+03  0.50457043669E+03 -0.22432155930E+02  0.64819090008E+03  0.17200000000E+03 0.  1.
</event>
<event>
 4    1  0.6365705E-002  0.1878993E+03  0.7818608E-02  0.1160370E+00
         -1   -1    0    0    0  501 -0.00000000000E+00  0.00000000000E+00  0.45873228988E+02  0.45873228988E+02  0.00000000000E+00 0.  1.
          1   -1    0    0  502    0  0.00000000000E+00 -0.00000000000E+00 -0.79968752414E+03  0.79968752414E+03  0.00000000000E+00 0. -1.
          6    1    1    2  502    0 -0.28825703753E+02 -0.69937256197E+02 -0.45885104546E+03  0.49583305953E+03  0.17200000000E+03 0. -1.
         -6    1    1    2    0  501  0.28825703753E+02  0.69937256197E+02 -0.29496324969E+03  0.34972769360E+03  0.17200000000E+03 0.  1.
</event>
<event>
 4    1  0.6365705E-002  0.2512942E+03  0.7818608E-02  0.1112490E+00
         -2   -1    0    0    0  501 -0.00000000000E+00  0.00000000000E+00  0.76765259627E+03  0.76765259627E+03  0.00000000000E+00 0.  1.
          2   -1    0    0  502    0  0.00000000000E+00 -0.00000000000E+00 -0.85410272288E+02  0.85410272288E+02  0.00000000000E+00 0. -1.
          6    1    1    2  502    0 -0.45413968305E+02 -0.17748893376E+03  0.42300949818E+03  0.49202213942E+03  0.17200000000E+03 0. -1.
         -6    1    1    2    0  501  0.45413968305E+02  0.17748893376E+03  0.25923282580E+03  0.36104072914E+03  0.17200000000E+03 0.  1.
</event>
<event>
 4    1  0.6365705E-002  0.1887161E+03  0.7818608E-02  0.1159624E+00
          2   -1    0    0  502    0  0.00000000000E+00  0.00000000000E+00  0.69707884577E+03  0.69707884577E+03  0.00000000000E+00 0. -1.
         -2   -1    0    0    0  501 -0.00000000000E+00 -0.00000000000E+00 -0.71371727196E+02  0.71371727196E+02  0.00000000000E+00 0.  1.
          6    1    1    2  502    0 -0.31564299605E+02 -0.70946897093E+02  0.51767488371E+03  0.55100004759E+03  0.17200000000E+03 0. -1.
         -6    1    1    2    0  501  0.31564299605E+02  0.70946897093E+02  0.10803223486E+03  0.21745052537E+03  0.17200000000E+03 0.  1.
</event>
<event>
 4    1  0.6365705E-002  0.2497177E+03  0.7818608E-02  0.1113483E+00
         -2   -1    0    0    0  501 -0.00000000000E+00  0.00000000000E+00  0.18978894298E+03  0.18978894298E+03  0.00000000000E+00 0.  1.
          2   -1    0    0  502    0  0.00000000000E+00 -0.00000000000E+00 -0.33834969398E+03  0.33834969398E+03  0.00000000000E+00 0. -1.
          6    1    1    2  502    0  0.18000445357E+03  0.19322161086E+02 -0.29385360023E+02  0.25144074570E+03  0.17200000000E+03 0.  1.
         -6    1    1    2    0  501 -0.18000445357E+03 -0.19322161086E+02 -0.11917539098E+03  0.27669789126E+03  0.17200000000E+03 0.  1.
</event>
<event>
 4    1  0.6365705E-002  0.2025323E+03  0.7818608E-02  0.1147620E+00
          1   -1    0    0  502    0  0.00000000000E+00  0.00000000000E+00  0.42234429477E+03  0.42234429477E+03  0.00000000000E+00 0. -1.
         -1   -1    0    0    0  501 -0.00000000000E+00 -0.00000000000E+00 -0.33408734704E+03  0.33408734704E+03  0.00000000000E+00 0.  1.
          6    1    1    2  502    0 -0.11156222278E+01 -0.10693023481E+03  0.36265913023E+03  0.41538050564E+03  0.17200000000E+03 0. -1.
         -6    1    1    2    0  501  0.11156222278E+01  0.10693023481E+03 -0.27440218250E+03  0.34105113618E+03  0.17200000000E+03 0.  1.
</event>
<event>
 4    1  0.6365705E-002  0.1979475E+03  0.7818608E-02  0.1151482E+00
          2   -1    0    0  502    0  0.00000000000E+00  0.00000000000E+00  0.36444696326E+04  0.36444696326E+04  0.00000000000E+00 0. -1.
         -2   -1    0    0    0  501 -0.00000000000E+00 -0.00000000000E+00 -0.11427579182E+02  0.11427579182E+02  0.00000000000E+00 0.  1.
          6    1    1    2  502    0  0.62855992576E+02  0.75155452034E+02  0.22611644353E+04  0.22698122876E+04  0.17200000000E+03 0.  1.
         -6    1    1    2    0  501 -0.62855992576E+02 -0.75155452034E+02  0.13718776182E+04  0.13860849242E+04  0.17200000000E+03 0. -1.
</event>
<event>
 4    1  0.6365705E-002  0.2488167E+03  0.7818608E-02  0.1114055E+00
         -2   -1    0    0    0  501 -0.00000000000E+00  0.00000000000E+00  0.98544030232E+02  0.98544030232E+02  0.00000000000E+00 0.  1.
          2   -1    0    0  502    0  0.00000000000E+00 -0.00000000000E+00 -0.73141624780E+03  0.73141624780E+03  0.00000000000E+00 0. -1.
          6    1    1    2  502    0 -0.17951213121E+03 -0.10056031595E+02 -0.47229290519E+03  0.53382611150E+03  0.17200000000E+03 0. -1.
         -6    1    1    2    0  501  0.17951213121E+03  0.10056031595E+02 -0.16057931237E+03  0.29613416653E+03  0.17200000000E+03 0. -1.
</event>
<event>
 4    1  0.6365705E-002  0.2062367E+03  0.7818608E-02  0.1144581E+00
         -1   -1    0    0    0  501 -0.00000000000E+00  0.00000000000E+00  0.22720316849E+02  0.22720316849E+02  0.00000000000E+00 0.  1.
          1   -1    0    0  502    0  0.00000000000E+00 -0.00000000000E+00 -0.21523725720E+04  0.21523725720E+04  0.00000000000E+00 0. -1.
          6    1    1    2  502    0 -0.29906987974E+02 -0.10979601404E+03 -0.14573059394E+04  0.14718268219E+04  0.17200000000E+03 0. -1.
         -6    1    1    2    0  501  0.29906987974E+02  0.10979601404E+03 -0.67234631572E+03  0.70326606693E+03  0.17200000000E+03 0. -1.
</event>
<event>
 4    1  0.6365705E-002  0.3769599E+03  0.7818608E-02  0.1052063E+00
         -2   -1    0    0    0  501 -0.00000000000E+00  0.00000000000E+00  0.75348325800E+02  0.75348325800E+02  0.00000000000E+00 0.  1.
          2   -1    0    0  502    0  0.00000000000E+00 -0.00000000000E+00 -0.20167322810E+04  0.20167322810E+04  0.00000000000E+00 0. -1.
          6    1    1    2  502    0  0.40947193259E+02  0.33292350690E+03 -0.70425371954E+03  0.79879411337E+03  0.17200000000E+03 0. -1.
         -6    1    1    2    0  501 -0.40947193259E+02 -0.33292350690E+03 -0.12371302356E+04  0.12932864934E+04  0.17200000000E+03 0.  1.
</event>
<event>
 4    1  0.6365705E-002  0.2021095E+03  0.7818608E-02  0.1147971E+00
          1   -1    0    0  502    0  0.00000000000E+00  0.00000000000E+00  0.57395441377E+03  0.57395441377E+03  0.00000000000E+00 0. -1.
         -1   -1    0    0    0  501 -0.00000000000E+00 -0.00000000000E+00 -0.14946307872E+03  0.14946307872E+03  0.00000000000E+00 0.  1.
          6    1    1    2  502    0  0.76077404829E+02 -0.74003121843E+02  0.47403637522E+03  0.51532389679E+03  0.17200000000E+03 0. -1.
         -6    1    1    2    0  501 -0.76077404829E+02  0.74003121843E+02 -0.49545040176E+02  0.20809359571E+03  0.17200000000E+03 0.  1.
</event>
<event>
 4    1  0.6365705E-002  0.4019237E+03  0.7818608E-02  0.1043116E+00
         -2   -1    0    0    0  501 -0.00000000000E+00  0.00000000000E+00  0.17724198635E+03  0.17724198635E+03  0.00000000000E+00 0.  1.
          2   -1    0    0  502    0  0.00000000000E+00 -0.00000000000E+00 -0.91409015454E+03  0.91409015454E+03  0.00000000000E+00 0. -1.
          6    1    1    2  502    0  0.36516633282E+01  0.36324279811E+03 -0.39789171954E+03  0.56556209694E+03  0.17200000000E+03 0. -1.
         -6    1    1    2    0  501 -0.36516633282E+01 -0.36324279811E+03 -0.33895644866E+03  0.52577004395E+03  0.17200000000E+03 0.  1.
</event>
<event>
 4    1  0.6365705E-002  0.1729026E+03  0.7818608E-02  0.1174854E+00
          3   -1    0    0  502    0  0.00000000000E+00  0.00000000000E+00  0.65032241499E+02  0.65032241499E+02  0.00000000000E+00 0. -1.
         -3   -1    0    0    0  501 -0.00000000000E+00 -0.00000000000E+00 -0.56606498394E+03  0.56606498394E+03  0.00000000000E+00 0.  1.
          6    1    1    2  502    0 -0.93205455911E+01 -0.14981041644E+02 -0.11373309228E+03  0.20695535861E+03  0.17200000000E+03 0. -1.
         -6    1    1    2    0  501  0.93205455911E+01  0.14981041644E+02 -0.38729965017E+03  0.42414186683E+03  0.17200000000E+03 0.  1.
</event>
<event>
 4    1  0.6365705E-002  0.1797516E+03  0.7818608E-02  0.1168044E+00
          2   -1    0    0  502    0  0.00000000000E+00  0.00000000000E+00  0.11260586608E+04  0.11260586608E+04  0.00000000000E+00 0. -1.
         -2   -1    0    0    0  501 -0.00000000000E+00 -0.00000000000E+00 -0.35574926083E+02  0.35574926083E+02  0.00000000000E+00 0.  1.
          6    1    1    2  502    0 -0.63847984248E+01  0.51825292341E+02  0.28979261391E+03  0.34101376168E+03  0.17200000000E+03 0.  1.
         -6    1    1    2    0  501  0.63847984248E+01 -0.51825292341E+02  0.80069112078E+03  0.82061982518E+03  0.17200000000E+03 0. -1.
</event>
<event>
 4    1  0.6365705E-002  0.1820520E+03  0.7818608E-02  0.1165832E+00
          2   -1    0    0  502    0  0.00000000000E+00  0.00000000000E+00  0.16689863117E+04  0.16689863117E+04  0.00000000000E+00 0. -1.
         -2   -1    0    0    0  501 -0.00000000000E+00 -0.00000000000E+00 -0.24179437892E+02  0.24179437892E+02  0.00000000000E+00 0.  1.
          6    1    1    2  502    0  0.59052468833E+02 -0.84693397165E+01  0.11802976593E+04  0.11942552023E+04  0.17200000000E+03 0. -1.
         -6    1    1    2    0  501 -0.59052468833E+02  0.84693397165E+01  0.46450921456E+03  0.49891054729E+03  0.17200000000E+03 0.  1.
</event>
<event>
 4    1  0.6365705E-002  0.2519595E+03  0.7818608E-02  0.1112073E+00
          2   -1    0    0  502    0  0.00000000000E+00  0.00000000000E+00  0.26290342703E+04  0.26290342703E+04  0.00000000000E+00 0. -1.
         -2   -1    0    0    0  501 -0.00000000000E+00 -0.00000000000E+00 -0.39133011464E+02  0.39133011464E+02  0.00000000000E+00 0.  1.
          6    1    1    2  502    0 -0.59082286158E+02  0.17438144313E+03  0.21205183898E+04  0.21354348142E+04  0.17200000000E+03 0. -1.
         -6    1    1    2    0  501  0.59082286158E+02 -0.17438144313E+03  0.46938286904E+03  0.53273246756E+03  0.17200000000E+03 0.  1.
</event>
<event>
 4    1  0.6365705E-002  0.1778211E+03  0.7818608E-02  0.1169929E+00
          1   -1    0    0  502    0  0.00000000000E+00  0.00000000000E+00  0.38836930978E+04  0.38836930978E+04  0.00000000000E+00 0. -1.
         -1   -1    0    0    0  501 -0.00000000000E+00 -0.00000000000E+00 -0.10695123374E+02  0.10695123374E+02  0.00000000000E+00 0.  1.
          6    1    1    2  502    0 -0.33161955487E+02  0.30604469095E+02  0.28879077529E+04  0.28933771856E+04  0.17200000000E+03 0. -1.
         -6    1    1    2    0  501  0.33161955487E+02 -0.30604469095E+02  0.98509022151E+03  0.10010110356E+04  0.17200000000E+03 0.  1.
</event>
<event>
 4    1  0.6365705E-002  0.4567331E+03  0.7818608E-02  0.1025733E+00
         -2   -1    0    0    0  501 -0.00000000000E+00  0.00000000000E+00  0.41907776755E+03  0.41907776755E+03  0.00000000000E+00 0.  1.
          2   -1    0    0  502    0  0.00000000000E+00 -0.00000000000E+00 -0.55187206660E+03  0.55187206660E+03  0.00000000000E+00 0. -1.
          6    1    1    2  502    0 -0.39983645031E+03  0.13839062023E+03 -0.21839825819E+03  0.50626371581E+03  0.17200000000E+03 0. -1.
         -6    1    1    2    0  501  0.39983645031E+03 -0.13839062023E+03  0.85603959139E+02  0.46468611835E+03  0.17200000000E+03 0.  1.
</event>
<event>
 4    1  0.6365705E-002  0.2482727E+03  0.7818608E-02  0.1114401E+00
          1   -1    0    0  502    0  0.00000000000E+00  0.00000000000E+00  0.23029601869E+03  0.23029601869E+03  0.00000000000E+00 0. -1.
         -1   -1    0    0    0  501 -0.00000000000E+00 -0.00000000000E+00 -0.26984174647E+03  0.26984174647E+03  0.00000000000E+00 0.  1.
          6    1    1    2  502    0 -0.10261520198E+03 -0.14671562828E+03 -0.42296101933E+02  0.25184978757E+03  0.17200000000E+03 0. -1.
         -6    1    1    2    0  501  0.10261520198E+03  0.14671562828E+03  0.27503741466E+01  0.24828797759E+03  0.17200000000E+03 0.  1.
</event>
<event>
 4    1  0.6365705E-002  0.2104097E+03  0.7818608E-02  0.1141242E+00
         -2   -1    0    0    0  501 -0.00000000000E+00  0.00000000000E+00  0.23259905010E+04  0.23259905010E+04  0.00000000000E+00 0.  1.
          2   -1    0    0  502    0  0.00000000000E+00 -0.00000000000E+00 -0.20881065045E+02  0.20881065045E+02  0.00000000000E+00 0. -1.
          6    1    1    2  502    0 -0.12029023878E+03 -0.14781183327E+02  0.80352823698E+03  0.83062016142E+03  0.17200000000E+03 0. -1.
         -6    1    1    2    0  501  0.12029023878E+03  0.14781183327E+02  0.15015811990E+04  0.15162514046E+04  0.17200000000E+03 0.  1.
</event>
<event>
 4    1  0.6365705E-002  0.3157827E+03  0.7818608E-02  0.1077607E+00
         -2   -1    0    0    0  501 -0.00000000000E+00  0.00000000000E+00  0.24427699232E+03  0.24427699232E+03  0.00000000000E+00 0.  1.
          2   -1    0    0  502    0  0.00000000000E+00 -0.00000000000E+00 -0.79841774437E+03  0.79841774437E+03  0.00000000000E+00 0. -1.
          6    1    1    2  502    0  0.21696712738E+03  0.15185507005E+03 -0.64153434721E+03  0.71504196752E+03  0.17200000000E+03 0. -1.
         -6    1    1    2    0  501 -0.21696712738E+03 -0.15185507005E+03  0.87393595160E+02  0.32765276916E+03  0.17200000000E+03 0.  1.
</event>
<event>
 4    1  0.6365705E-002  0.3261599E+03  0.7818608E-02  0.1072849E+00
          1   -1    0    0  502    0  0.00000000000E+00  0.00000000000E+00  0.49399141917E+03  0.49399141917E+03  0.00000000000E+00 0. -1.
         -1   -1    0    0    0  501 -0.00000000000E+00 -0.00000000000E+00 -0.25734007327E+03  0.25734007327E+03  0.00000000000E+00 0.  1.
          6    1    1    2  502    0 -0.20928131563E+03 -0.18165244807E+03  0.27007587432E+03  0.42346340911E+03  0.17200000000E+03 0.  1.
         -6    1    1    2    0  501  0.20928131563E+03  0.18165244807E+03 -0.33424528429E+02  0.32786808333E+03  0.17200000000E+03 0.  1.
</event>
<event>
 4    1  0.6365705E-002  0.1735564E+03  0.7818608E-02  0.1174189E+00
          1   -1    0    0  502    0  0.00000000000E+00  0.00000000000E+00  0.18231094911E+04  0.18231094911E+04  0.00000000000E+00 0. -1.
         -1   -1    0    0    0  501 -0.00000000000E+00 -0.00000000000E+00 -0.17953906700E+02  0.17953906700E+02  0.00000000000E+00 0.  1.
          6    1    1    2  502    0 -0.12018738082E+02 -0.19833285937E+02  0.11625242042E+04  0.11754081566E+04  0.17200000000E+03 0. -1.
         -6    1    1    2    0  501  0.12018738082E+02  0.19833285937E+02  0.64263138025E+03  0.66565524123E+03  0.17200000000E+03 0.  1.
</event>
<event>
 4    1  0.6365705E-002  0.2322972E+03  0.7818608E-02  0.1125033E+00
         -2   -1    0    0    0  501 -0.00000000000E+00  0.00000000000E+00  0.29500309188E+02  0.29500309188E+02  0.00000000000E+00 0.  1.
          2   -1    0    0  502    0  0.00000000000E+00 -0.00000000000E+00 -0.19927863753E+04  0.19927863753E+04  0.00000000000E+00 0. -1.
          6    1    1    2  502    0  0.15423590203E+03 -0.24275367128E+02 -0.12713467437E+04  0.12923948892E+04  0.17200000000E+03 0. -1.
         -6    1    1    2    0  501 -0.15423590203E+03  0.24275367128E+02 -0.69193932245E+03  0.72989179532E+03  0.17200000000E+03 0.  1.
</event>
<event>
 4    1  0.6365705E-002  0.1737920E+03  0.7818608E-02  0.1173950E+00
         -1   -1    0    0    0  501 -0.00000000000E+00  0.00000000000E+00  0.15917129231E+03  0.15917129231E+03  0.00000000000E+00 0.  1.
          1   -1    0    0  502    0  0.00000000000E+00 -0.00000000000E+00 -0.19996173262E+03  0.19996173262E+03  0.00000000000E+00 0. -1.
          6    1    1    2  502    0  0.12003363427E+02 -0.21807480854E+02  0.20172641932E+02  0.17495880211E+03  0.17200000000E+03 0.  1.
         -6    1    1    2    0  501 -0.12003363427E+02  0.21807480854E+02 -0.60963082244E+02  0.18417422282E+03  0.17200000000E+03 0. -1.
</event>
<event>
 4    1  0.6365705E-002  0.4501136E+03  0.7818608E-02  0.1027688E+00
          2   -1    0    0  502    0  0.00000000000E+00  0.00000000000E+00  0.58272788498E+03  0.58272788498E+03  0.00000000000E+00 0. -1.
         -2   -1    0    0    0  501 -0.00000000000E+00 -0.00000000000E+00 -0.35594261954E+03  0.35594261954E+03  0.00000000000E+00 0.  1.
          6    1    1    2  502    0 -0.10200517705E+03 -0.40325330368E+03  0.18490427788E+03  0.48661265402E+03  0.17200000000E+03 0. -1.
         -6    1    1    2    0  501  0.10200517705E+03  0.40325330368E+03  0.41880987562E+02  0.45205785049E+03  0.17200000000E+03 0.  1.
</event>
