<event>
 4    1  0.4405880E+000  0.2451709E+03  0.7818608E-02  0.1116395E+00
         21   -1    0    0  503  502  0.00000000000E+00  0.00000000000E+00  0.65411026114E+03  0.65411026114E+03  0.00000000000E+00 0. -1.
         21   -1    0    0  501  503 -0.00000000000E+00 -0.00000000000E+00 -0.11797204936E+03  0.11797204936E+03  0.00000000000E+00 0.  1.
          6    1    1    2  501    0 -0.13742262064E+03  0.10788777287E+03  0.86566710207E+02  0.26000489133E+03  0.17200000000E+03 0.  1.
         -6    1    1    2    0  502  0.13742262064E+03 -0.10788777287E+03  0.44957150158E+03  0.51207741917E+03  0.17200000000E+03 0. -1.
</event>
<event>
 4    1  0.4405880E+000  0.1947855E+03  0.7818608E-02  0.1154215E+00
         21   -1    0    0  503  502  0.00000000000E+00  0.00000000000E+00  0.30934783490E+03  0.30934783490E+03  0.00000000000E+00 0. -1.
         21   -1    0    0  501  503 -0.00000000000E+00 -0.00000000000E+00 -0.12561387931E+03  0.12561387931E+03  0.00000000000E+00 0. -1.
          6    1    1    2  501    0  0.84936971101E+02 -0.33810002850E+02  0.58458420324E+02  0.20336861178E+03  0.17200000000E+03 0. -1.
         -6    1    1    2    0  502 -0.84936971101E+02  0.33810002850E+02  0.12527553527E+03  0.23159310242E+03  0.17200000000E+03 0. -1.
</event>
<event>
 4    1  0.4405880E+000  0.2670952E+03  0.7818608E-02  0.1102954E+00
         21   -1    0    0  503  502  0.00000000000E+00  0.00000000000E+00  0.97130646514E+03  0.97130646514E+03  0.00000000000E+00 0.  1.
         21   -1    0    0  501  503 -0.00000000000E+00 -0.00000000000E+00 -0.10131253518E+03  0.10131253518E+03  0.00000000000E+00 0. -1.
          6    1    1    2  501    0  0.15378848708E+02  0.20376296330E+03  0.15373233615E+03  0.30817768475E+03  0.17200000000E+03 0. -1.
         -6    1    1    2    0  502 -0.15378848708E+02 -0.20376296330E+03  0.71626159380E+03  0.76444131558E+03  0.17200000000E+03 0.  1.
</event>
<event>
 4    1  0.4405880E+000  0.2540974E+03  0.7818608E-02  0.1110742E+00
         21   -1    0    0  501  502  0.00000000000E+00  0.00000000000E+00  0.24779546825E+03  0.24779546825E+03  0.00000000000E+00 0.  1.
         21   -1    0    0  502  503 -0.00000000000E+00 -0.00000000000E+00 -0.26061889516E+03  0.26061889516E+03  0.00000000000E+00 0.  1.
          6    1    1    2  501    0  0.15643644402E+03 -0.10251400983E+03 -0.10246721562E+02  0.25430390979E+03  0.17200000000E+03 0.  1.
         -6    1    1    2    0  503 -0.15643644402E+03  0.10251400983E+03 -0.25767053421E+01  0.25411045362E+03  0.17200000000E+03 0.  1.
</event>
<event>
 4    1  0.4405880E+000  0.2144679E+03  0.7818608E-02  0.1138076E+00
         21   -1    0    0  501  502  0.00000000000E+00  0.00000000000E+00  0.92899782006E+02  0.92899782006E+02  0.00000000000E+00 0.  1.
         21   -1    0    0  502  503 -0.00000000000E+00 -0.00000000000E+00 -0.49521447150E+03  0.49521447150E+03  0.00000000000E+00 0.  1.
          6    1    1    2  501    0  0.91222886610E+02 -0.89949308549E+02 -0.19708501270E+03  0.29127134322E+03  0.17200000000E+03 0.  1.
         -6    1    1    2    0  503 -0.91222886610E+02  0.89949308549E+02 -0.20522967679E+03  0.29684291028E+03  0.17200000000E+03 0.  1.
</event>
<event>
 4    1  0.4405880E+000  0.2448677E+03  0.7818608E-02  0.1116592E+00
         21   -1    0    0  501  502  0.00000000000E+00  0.00000000000E+00  0.70546959684E+03  0.70546959684E+03  0.00000000000E+00 0. -1.
         21   -1    0    0  502  503 -0.00000000000E+00 -0.00000000000E+00 -0.19508012238E+03  0.19508012238E+03  0.00000000000E+00 0. -1.
          6    1    1    2  501    0 -0.12729504357E+01 -0.17428308612E+03  0.59344550168E+03  0.64197957753E+03  0.17200000000E+03 0. -1.
         -6    1    1    2    0  503  0.12729504357E+01  0.17428308612E+03 -0.83056027215E+02  0.25857014168E+03  0.17200000000E+03 0. -1.
</event>
<event>
 4    1  0.4405880E+000  0.2363868E+03  0.7818608E-02  0.1122223E+00
         21   -1    0    0  501  502  0.00000000000E+00  0.00000000000E+00  0.39279989051E+03  0.39279989051E+03  0.00000000000E+00 0.  1.
         21   -1    0    0  502  503 -0.00000000000E+00 -0.00000000000E+00 -0.14979235369E+03  0.14979235369E+03  0.00000000000E+00 0.  1.
          6    1    1    2  501    0  0.47780292762E+02  0.15495731168E+03  0.60657130440E+02  0.24404510299E+03  0.17200000000E+03 0.  1.
         -6    1    1    2    0  503 -0.47780292762E+02 -0.15495731168E+03  0.18235040637E+03  0.29854714121E+03  0.17200000000E+03 0.  1.
</event>
<event>
 4    1  0.4405880E+000  0.2286295E+03  0.7818608E-02  0.1127608E+00
         21   -1    0    0  501  502  0.00000000000E+00  0.00000000000E+00  0.63025781362E+03  0.63025781362E+03  0.00000000000E+00 0.  1.
         21   -1    0    0  502  503 -0.00000000000E+00 -0.00000000000E+00 -0.84206113272E+02  0.84206113272E+02  0.00000000000E+00 0. -1.
          6    1    1    2  501    0 -0.14847406964E+03  0.25355680176E+02  0.22916351199E+03  0.32370878132E+03  0.17200000000E+03 0. -1.
         -6    1    1    2    0  503  0.14847406964E+03 -0.25355680176E+02  0.31688818836E+03  0.39075514558E+03  0.17200000000E+03 0.  1.
</event>
<event>
 4    1  0.4405880E+000  0.2254720E+03  0.7818608E-02  0.1129868E+00
         21   -1    0    0  501  502  0.00000000000E+00  0.00000000000E+00  0.11445000514E+03  0.11445000514E+03  0.00000000000E+00 0. -1.
         21   -1    0    0  502  503 -0.00000000000E+00 -0.00000000000E+00 -0.44445428923E+03  0.44445428923E+03  0.00000000000E+00 0.  1.
          6    1    1    2  501    0 -0.14489834790E+03  0.16065474341E+02 -0.15819699290E+03  0.27543405609E+03  0.17200000000E+03 0. -1.
         -6    1    1    2    0  503  0.14489834790E+03 -0.16065474341E+02 -0.17180729118E+03  0.28347023829E+03  0.17200000000E+03 0. -1.
</event>
<event>
 4    1  0.4405880E+000  0.1740520E+03  0.7818608E-02  0.1173687E+00
         21   -1    0    0  501  502  0.00000000000E+00  0.00000000000E+00  0.74619210873E+03  0.74619210873E+03  0.00000000000E+00 0. -1.
         21   -1    0    0  502  503 -0.00000000000E+00 -0.00000000000E+00 -0.96107276325E+02  0.96107276325E+02  0.00000000000E+00 0. -1.
          6    1    1    2  501    0  0.23707589888E+02  0.12167236353E+02  0.64510887886E+03  0.66817629189E+03  0.17200000000E+03 0. -1.
         -6    1    1    2    0  503 -0.23707589888E+02 -0.12167236353E+02  0.49759535417E+01  0.17412309316E+03  0.17200000000E+03 0. -1.
</event>
<event>
 4    1  0.4405880E+000  0.1755089E+03  0.7818608E-02  0.1172222E+00
         21   -1    0    0  501  502  0.00000000000E+00  0.00000000000E+00  0.23813049958E+03  0.23813049958E+03  0.00000000000E+00 0. -1.
         21   -1    0    0  502  503 -0.00000000000E+00 -0.00000000000E+00 -0.13062900352E+03  0.13062900352E+03  0.00000000000E+00 0. -1.
          6    1    1    2  501    0 -0.26232052763E+02 -0.23049147688E+02  0.71959048324E+02  0.18968787109E+03  0.17200000000E+03 0. -1.
         -6    1    1    2    0  503  0.26232052763E+02  0.23049147688E+02  0.35542447732E+02  0.17907163201E+03  0.17200000000E+03 0. -1.
</event>
<event>
 4    1  0.4405880E+000  0.2427438E+03  0.7818608E-02  0.1117978E+00
         21   -1    0    0  503  502  0.00000000000E+00  0.00000000000E+00  0.16309939502E+03  0.16309939502E+03  0.00000000000E+00 0. -1.
         21   -1    0    0  501  503 -0.00000000000E+00 -0.00000000000E+00 -0.36244454584E+03  0.36244454584E+03  0.00000000000E+00 0.  1.
          6    1    1    2  501    0 -0.60234723557E+02  0.16035065586E+03 -0.11456723084E+03  0.26842169275E+03  0.17200000000E+03 0. -1.
         -6    1    1    2    0  502  0.60234723557E+02 -0.16035065586E+03 -0.84777919977E+02  0.25712224811E+03  0.17200000000E+03 0.  1.
</event>
<event>
 4    1  0.4405880E+000  0.2581081E+03  0.7818608E-02  0.1108285E+00
         21   -1    0    0  501  502  0.00000000000E+00  0.00000000000E+00  0.79553214196E+03  0.79553214196E+03  0.00000000000E+00 0. -1.
         21   -1    0    0  502  503 -0.00000000000E+00 -0.00000000000E+00 -0.98845193615E+02  0.98845193615E+02  0.00000000000E+00 0. -1.
          6    1    1    2  501    0 -0.11311603479E+03 -0.15569383879E+03  0.17354365871E+03  0.31102606039E+03  0.17200000000E+03 0. -1.
         -6    1    1    2    0  503  0.11311603479E+03  0.15569383879E+03  0.52314328963E+03  0.58335127518E+03  0.17200000000E+03 0. -1.
</event>
<event>
 4    1  0.4405880E+000  0.2197459E+03  0.7818608E-02  0.1134073E+00
         21   -1    0    0  501  502  0.00000000000E+00  0.00000000000E+00  0.10096231478E+04  0.10096231478E+04  0.00000000000E+00 0.  1.
         21   -1    0    0  502  503 -0.00000000000E+00 -0.00000000000E+00 -0.53122525994E+02  0.53122525994E+02  0.00000000000E+00 0.  1.
          6    1    1    2  501    0  0.45473309290E+02 -0.12898238359E+03  0.31049639313E+03  0.38038965191E+03  0.17200000000E+03 0.  1.
         -6    1    1    2    0  503 -0.45473309290E+02  0.12898238359E+03  0.64600422872E+03  0.68235602193E+03  0.17200000000E+03 0.  1.
</event>
<event>
 4    1  0.4405880E+000  0.1940307E+03  0.7818608E-02  0.1154875E+00
         21   -1    0    0  501  502  0.00000000000E+00  0.00000000000E+00  0.18576840310E+03  0.18576840310E+03  0.00000000000E+00 0.  1.
         21   -1    0    0  502  503 -0.00000000000E+00 -0.00000000000E+00 -0.23312855453E+03  0.23312855453E+03  0.00000000000E+00 0.  1.
          6    1    1    2  501    0 -0.25781866955E+02 -0.86018599164E+02 -0.99398636564E+02  0.21800915810E+03  0.17200000000E+03 0.  1.
         -6    1    1    2    0  503  0.25781866955E+02  0.86018599164E+02  0.52038485137E+02  0.20088779953E+03  0.17200000000E+03 0.  1.
</event>
<event>
 4    1  0.4405880E+000  0.2470951E+03  0.7818608E-02  0.1115155E+00
         21   -1    0    0  503  502  0.00000000000E+00  0.00000000000E+00  0.23221661445E+03  0.23221661445E+03  0.00000000000E+00 0.  1.
         21   -1    0    0  501  503 -0.00000000000E+00 -0.00000000000E+00 -0.36952774877E+03  0.36952774877E+03  0.00000000000E+00 0. -1.
          6    1    1    2  501    0 -0.17695708852E+03 -0.12576402204E+02 -0.23025468727E+03  0.33774723993E+03  0.17200000000E+03 0. -1.
         -6    1    1    2    0  502  0.17695708852E+03  0.12576402204E+02  0.92943552958E+02  0.26399712329E+03  0.17200000000E+03 0.  1.
</event>
<event>
 4    1  0.4405880E+000  0.1845801E+03  0.7818608E-02  0.1163443E+00
         21   -1    0    0  503  502  0.00000000000E+00  0.00000000000E+00  0.13055631542E+02  0.13055631542E+02  0.00000000000E+00 0.  1.
         21   -1    0    0  501  503 -0.00000000000E+00 -0.00000000000E+00 -0.29782693947E+04  0.29782693947E+04  0.00000000000E+00 0.  1.
          6    1    1    2  501    0 -0.39105824814E+02  0.54374193549E+02 -0.20088389048E+04  0.20173010593E+04  0.17200000000E+03 0.  1.
         -6    1    1    2    0  502  0.39105824814E+02 -0.54374193549E+02 -0.95637485843E+03  0.97402396700E+03  0.17200000000E+03 0.  1.
</event>
<event>
 4    1  0.4405880E+000  0.1989615E+03  0.7818608E-02  0.1150618E+00
         21   -1    0    0  503  502  0.00000000000E+00  0.00000000000E+00  0.12422827562E+04  0.12422827562E+04  0.00000000000E+00 0. -1.
         21   -1    0    0  501  503 -0.00000000000E+00 -0.00000000000E+00 -0.32959589962E+02  0.32959589962E+02  0.00000000000E+00 0. -1.
          6    1    1    2  501    0  0.98373764594E+02 -0.18007567458E+02  0.48847797685E+03  0.52744327080E+03  0.17200000000E+03 0. -1.
         -6    1    1    2    0  502 -0.98373764594E+02  0.18007567458E+02  0.72084518939E+03  0.74779907536E+03  0.17200000000E+03 0. -1.
</event>
<event>
 4    1  0.4405880E+000  0.1776264E+03  0.7818608E-02  0.1170120E+00
         21   -1    0    0  501  502  0.00000000000E+00  0.00000000000E+00  0.77323358043E+02  0.77323358043E+02  0.00000000000E+00 0.  1.
         21   -1    0    0  502  503 -0.00000000000E+00 -0.00000000000E+00 -0.47962864742E+03  0.47962864742E+03  0.00000000000E+00 0.  1.
          6    1    1    2  501    0  0.10471357878E+02  0.43098447491E+02 -0.93567260095E+02  0.20076343709E+03  0.17200000000E+03 0.  1.
         -6    1    1    2    0  503 -0.10471357878E+02 -0.43098447491E+02 -0.30873802928E+03  0.35618856837E+03  0.17200000000E+03 0.  1.
</event>
<event>
 4    1  0.4405880E+000  0.1823365E+03  0.7818608E-02  0.1165561E+00
         21   -1    0    0  501  502  0.00000000000E+00  0.00000000000E+00  0.18297233919E+04  0.18297233919E+04  0.00000000000E+00 0.  1.
         21   -1    0    0  502  503 -0.00000000000E+00 -0.00000000000E+00 -0.24995898828E+02  0.24995898828E+02  0.00000000000E+00 0.  1.
          6    1    1    2  501    0  0.18466366737E+02 -0.57633321478E+02  0.41776255146E+03  0.45582031092E+03  0.17200000000E+03 0.  1.
         -6    1    1    2    0  503 -0.18466366737E+02  0.57633321478E+02  0.13869649416E+04  0.13988989798E+04  0.17200000000E+03 0.  1.
</event>
<event>
 4    1  0.4405880E+000  0.2093802E+03  0.7818608E-02  0.1142058E+00
         21   -1    0    0  503  502  0.00000000000E+00  0.00000000000E+00  0.34015406551E+03  0.34015406551E+03  0.00000000000E+00 0.  1.
         21   -1    0    0  501  503 -0.00000000000E+00 -0.00000000000E+00 -0.13496212992E+03  0.13496212992E+03  0.00000000000E+00 0. -1.
          6    1    1    2  501    0  0.65060109202E+02 -0.10011621616E+03  0.52178063788E+02  0.21578374565E+03  0.17200000000E+03 0. -1.
         -6    1    1    2    0  502 -0.65060109202E+02  0.10011621616E+03  0.15301387180E+03  0.25933244978E+03  0.17200000000E+03 0.  1.
</event>
<event>
 4    1  0.4405880E+000  0.1999600E+03  0.7818608E-02  0.1149773E+00
         21   -1    0    0  503  502  0.00000000000E+00  0.00000000000E+00  0.66959395159E+02  0.66959395159E+02  0.00000000000E+00 0. -1.
         21   -1    0    0  501  503 -0.00000000000E+00 -0.00000000000E+00 -0.80438261622E+03  0.80438261622E+03  0.00000000000E+00 0.  1.
          6    1    1    2  501    0  0.58978385609E+02 -0.83195973000E+02 -0.58985228332E+03  0.62282400085E+03  0.17200000000E+03 0.  1.
         -6    1    1    2    0  502 -0.58978385609E+02  0.83195973000E+02 -0.14757093773E+03  0.24851801053E+03  0.17200000000E+03 0. -1.
</event>
<event>
 4    1  0.4405880E+000  0.1841611E+03  0.7818608E-02  0.1163836E+00
         21   -1    0    0  501  502  0.00000000000E+00  0.00000000000E+00  0.60838718391E+02  0.60838718391E+02  0.00000000000E+00 0.  1.
         21   -1    0    0  502  503 -0.00000000000E+00 -0.00000000000E+00 -0.57286739769E+03  0.57286739769E+03  0.00000000000E+00 0.  1.
          6    1    1    2  501    0  0.63239884009E+02 -0.18221959631E+02 -0.30797275868E+03  0.35883497994E+03  0.17200000000E+03 0.  1.
         -6    1    1    2    0  503 -0.63239884009E+02  0.18221959631E+02 -0.20405592062E+03  0.27487113614E+03  0.17200000000E+03 0.  1.
</event>
<event>
 4    1  0.4405880E+000  0.1922395E+03  0.7818608E-02  0.1156457E+00
         21   -1    0    0  503  502  0.00000000000E+00  0.00000000000E+00  0.13326215134E+03  0.13326215134E+03  0.00000000000E+00 0.  1.
         21   -1    0    0  501  503 -0.00000000000E+00 -0.00000000000E+00 -0.27737752594E+03  0.27737752594E+03  0.00000000000E+00 0.  1.
          6    1    1    2  501    0 -0.79629987141E+02 -0.32110786525E+02 -0.69058278138E+02  0.20426718592E+03  0.17200000000E+03 0. -1.
         -6    1    1    2    0  502  0.79629987141E+02  0.32110786525E+02 -0.75057096467E+02  0.20637249137E+03  0.17200000000E+03 0. -1.
</event>
<event>
 4    1  0.4405880E+000  0.2733305E+03  0.7818608E-02  0.1099388E+00
         21   -1    0    0  503  502  0.00000000000E+00  0.00000000000E+00  0.37385904377E+03  0.37385904377E+03  0.00000000000E+00 0.  1.
         21   -1    0    0  501  503 -0.00000000000E+00 -0.00000000000E+00 -0.27127839940E+03  0.27127839940E+03  0.00000000000E+00 0.  1.
          6    1    1    2  501    0  0.13397219055E+03  0.16485447207E+03 -0.11424870316E+03  0.29624704383E+03  0.17200000000E+03 0.  1.
         -6    1    1    2    0  502 -0.13397219055E+03 -0.16485447207E+03  0.21682934752E+03  0.34889039934E+03  0.17200000000E+03 0.  1.
</event>
<event>
 4    1  0.4405880E+000  0.2601822E+03  0.7818608E-02  0.1107034E+00
         21   -1    0    0  501  502  0.00000000000E+00  0.00000000000E+00  0.39433418972E+03  0.39433418972E+03  0.00000000000E+00 0.  1.
         21   -1    0    0  502  503 -0.00000000000E+00 -0.00000000000E+00 -0.19303301802E+03  0.19303301802E+03  0.00000000000E+00 0.  1.
          6    1    1    2  501    0 -0.19368829141E+03 -0.24405103172E+02  0.19835413405E+03  0.32716834471E+03  0.17200000000E+03 0. -1.
         -6    1    1    2    0  503  0.19368829141E+03  0.24405103172E+02  0.29470376544E+01  0.26019886303E+03  0.17200000000E+03 0. -1.
</event>
<event>
 4    1  0.4405880E+000  0.1962771E+03  0.7818608E-02  0.1152919E+00
         21   -1    0    0  501  502  0.00000000000E+00  0.00000000000E+00  0.12002729012E+03  0.12002729012E+03  0.00000000000E+00 0. -1.
         21   -1    0    0  502  503 -0.00000000000E+00 -0.00000000000E+00 -0.54476715626E+03  0.54476715626E+03  0.00000000000E+00 0. -1.
          6    1    1    2  501    0  0.41936792806E+02  0.84746759834E+02  0.68071518392E+00  0.19627830055E+03  0.17200000000E+03 0. -1.
         -6    1    1    2    0  503 -0.41936792806E+02 -0.84746759834E+02 -0.42542058132E+03  0.46851614583E+03  0.17200000000E+03 0. -1.
</event>
<event>
 4    1  0.4405880E+000  0.1860199E+03  0.7818608E-02  0.1162101E+00
         21   -1    0    0  503  502  0.00000000000E+00  0.00000000000E+00  0.76571792551E+02  0.76571792551E+02  0.00000000000E+00 0.  1.
         21   -1    0    0  501  503 -0.00000000000E+00 -0.00000000000E+00 -0.53537506694E+03  0.53537506694E+03  0.00000000000E+00 0.  1.
          6    1    1    2  501    0  0.57896431500E+02 -0.40833720742E+02 -0.35021438635E+03  0.39655202173E+03  0.17200000000E+03 0.  1.
         -6    1    1    2    0  502 -0.57896431500E+02  0.40833720742E+02 -0.10858888804E+03  0.21539483777E+03  0.17200000000E+03 0.  1.
</event>
<event>
 4    1  0.4405880E+000  0.1725546E+03  0.7818608E-02  0.1175210E+00
         21   -1    0    0  503  502  0.00000000000E+00  0.00000000000E+00  0.59396557722E+02  0.59396557722E+02  0.00000000000E+00 0.  1.
         21   -1    0    0  501  503 -0.00000000000E+00 -0.00000000000E+00 -0.79153662354E+03  0.79153662354E+03  0.00000000000E+00 0.  1.
          6    1    1    2  501    0 -0.84148028409E+01 -0.10967956001E+02 -0.62370865506E+03  0.64713800025E+03  0.17200000000E+03 0.  1.
         -6    1    1    2    0  502  0.84148028409E+01  0.10967956001E+02 -0.10843141076E+03  0.20379518101E+03  0.17200000000E+03 0.  1.
</event>
<event>
 4    1  0.4405880E+000  0.2186545E+03  0.7818608E-02  0.1134890E+00
         21   -1    0    0  501  502  0.00000000000E+00  0.00000000000E+00  0.13626227911E+03  0.13626227911E+03  0.00000000000E+00 0.  1.
         21   -1    0    0  502  503 -0.00000000000E+00 -0.00000000000E+00 -0.70055335629E+03  0.70055335629E+03  0.00000000000E+00 0.  1.
          6    1    1    2  501    0 -0.54082787417E+02 -0.12369649294E+03  0.13464573125E+02  0.21906863077E+03  0.17200000000E+03 0.  1.
         -6    1    1    2    0  503  0.54082787417E+02  0.12369649294E+03 -0.57775565030E+03  0.61774700462E+03  0.17200000000E+03 0.  1.
</event>
<event>
 4    1  0.4405880E+000  0.2021317E+03  0.7818608E-02  0.1147953E+00
         21   -1    0    0  501  502  0.00000000000E+00  0.00000000000E+00  0.92251213958E+03  0.92251213958E+03  0.00000000000E+00 0.  1.
         21   -1    0    0  502  503 -0.00000000000E+00 -0.00000000000E+00 -0.10895819517E+03  0.10895819517E+03  0.00000000000E+00 0.  1.
          6    1    1    2  501    0  0.97154400174E+02  0.42828111792E+02  0.80410135422E+03  0.82911773138E+03  0.17200000000E+03 0.  1.
         -6    1    1    2    0  503 -0.97154400174E+02 -0.42828111792E+02  0.94525901951E+01  0.20235260338E+03  0.17200000000E+03 0.  1.
</event>
<event>
 4    1  0.4405880E+000  0.2185906E+03  0.7818608E-02  0.1134938E+00
         21   -1    0    0  501  502  0.00000000000E+00  0.00000000000E+00  0.62322638969E+02  0.62322638969E+02  0.00000000000E+00 0. -1.
         21   -1    0    0  502  503 -0.00000000000E+00 -0.00000000000E+00 -0.14137811486E+04  0.14137811486E+04  0.00000000000E+00 0. -1.
          6    1    1    2  501    0  0.12917055124E+03  0.38895250867E+02 -0.17640805994E+03  0.28089442048E+03  0.17200000000E+03 0. -1.
         -6    1    1    2    0  503 -0.12917055124E+03 -0.38895250867E+02 -0.11750504497E+04  0.11952093671E+04  0.17200000000E+03 0. -1.
</event>
<event>
 4    1  0.4405880E+000  0.2615911E+03  0.7818608E-02  0.1106191E+00
         21   -1    0    0  501  502  0.00000000000E+00  0.00000000000E+00  0.28006751797E+03  0.28006751797E+03  0.00000000000E+00 0. -1.
         21   -1    0    0  502  503 -0.00000000000E+00 -0.00000000000E+00 -0.56482865610E+03  0.56482865610E+03  0.00000000000E+00 0.  1.
          6    1    1    2  501    0 -0.47150974691E+02  0.19137056863E+03  0.17583809214E+03  0.31519667447E+03  0.17200000000E+03 0. -1.
         -6    1    1    2    0  503  0.47150974691E+02 -0.19137056863E+03 -0.46059923027E+03  0.52969949960E+03  0.17200000000E+03 0.  1.
</event>
<event>
 4    1  0.4405880E+000  0.1886389E+03  0.7818608E-02  0.1159695E+00
         21   -1    0    0  503  502  0.00000000000E+00  0.00000000000E+00  0.26809907442E+03  0.26809907442E+03  0.00000000000E+00 0.  1.
         21   -1    0    0  501  503 -0.00000000000E+00 -0.00000000000E+00 -0.17663016425E+03  0.17663016425E+03  0.00000000000E+00 0. -1.
          6    1    1    2  501    0 -0.11125128808E+02 -0.76660814052E+02 -0.65124027439E+02  0.19956399438E+03  0.17200000000E+03 0. -1.
         -6    1    1    2    0  502  0.11125128808E+02  0.76660814052E+02  0.15659293760E+03  0.24516524429E+03  0.17200000000E+03 0.  1.
</event>
<event>
 4    1  0.4405880E+000  0.2307505E+03  0.7818608E-02  0.1126113E+00
         21   -1    0    0  503  502  0.00000000000E+00  0.00000000000E+00  0.29653207524E+03  0.29653207524E+03  0.00000000000E+00 0.  1.
         21   -1    0    0  501  503 -0.00000000000E+00 -0.00000000000E+00 -0.20031928007E+03  0.20031928007E+03  0.00000000000E+00 0.  1.
          6    1    1    2  501    0  0.12485596487E+03 -0.89848726331E+02 -0.31862921166E+02  0.23294001660E+03  0.17200000000E+03 0.  1.
         -6    1    1    2    0  502 -0.12485596487E+03  0.89848726331E+02  0.12807571634E+03  0.26391133872E+03  0.17200000000E+03 0.  1.
</event>
<event>
 4    1  0.4405880E+000  0.1795272E+03  0.7818608E-02  0.1168261E+00
         21   -1    0    0  501  502  0.00000000000E+00  0.00000000000E+00  0.18065519244E+02  0.18065519244E+02  0.00000000000E+00 0. -1.
         21   -1    0    0  502  503 -0.00000000000E+00 -0.00000000000E+00 -0.18987917029E+04  0.18987917029E+04  0.00000000000E+00 0. -1.
          6    1    1    2  501    0  0.51258246513E+02  0.43117769282E+01 -0.70477149844E+03  0.72727770780E+03  0.17200000000E+03 0. -1.
         -6    1    1    2    0  503 -0.51258246513E+02 -0.43117769282E+01 -0.11759546852E+04  0.11895795144E+04  0.17200000000E+03 0. -1.
</event>
<event>
 4    1  0.4405880E+000  0.2234983E+03  0.7818608E-02  0.1131301E+00
         21   -1    0    0  503  502  0.00000000000E+00  0.00000000000E+00  0.43877066857E+03  0.43877066857E+03  0.00000000000E+00 0.  1.
         21   -1    0    0  501  503 -0.00000000000E+00 -0.00000000000E+00 -0.57864740759E+03  0.57864740759E+03  0.00000000000E+00 0. -1.
          6    1    1    2  501    0  0.93606806758E+02  0.10772776282E+03 -0.52586713751E+03  0.57139106702E+03  0.17200000000E+03 0. -1.
         -6    1    1    2    0  502 -0.93606806758E+02 -0.10772776282E+03  0.38599039849E+03  0.44602700914E+03  0.17200000000E+03 0.  1.
</event>
<event>
 4    1  0.4405880E+000  0.2112615E+03  0.7818608E-02  0.1140571E+00
         21   -1    0    0  503  502  0.00000000000E+00  0.00000000000E+00  0.17013977981E+03  0.17013977981E+03  0.00000000000E+00 0.  1.
         21   -1    0    0  501  503 -0.00000000000E+00 -0.00000000000E+00 -0.27297236552E+03  0.27297236552E+03  0.00000000000E+00 0.  1.
          6    1    1    2  501    0  0.27014548660E+02  0.11965628775E+03 -0.95179172170E+02  0.23171207964E+03  0.17200000000E+03 0.  1.
         -6    1    1    2    0  502 -0.27014548660E+02 -0.11965628775E+03 -0.76534135400E+01  0.21140006569E+03  0.17200000000E+03 0.  1.
</event>
<event>
 4    1  0.4405880E+000  0.2228423E+03  0.7818608E-02  0.1131782E+00
         21   -1    0    0  503  502  0.00000000000E+00  0.00000000000E+00  0.23566079389E+03  0.23566079389E+03  0.00000000000E+00 0.  1.
         21   -1    0    0  501  503 -0.00000000000E+00 -0.00000000000E+00 -0.41456732681E+03  0.41456732681E+03  0.00000000000E+00 0.  1.
          6    1    1    2  501    0  0.13235125516E+03  0.50575127633E+02 -0.31742949803E+03  0.38784041112E+03  0.17200000000E+03 0.  1.
         -6    1    1    2    0  502 -0.13235125516E+03 -0.50575127633E+02  0.13852296510E+03  0.26238770958E+03  0.17200000000E+03 0.  1.
</event>
<event>
 4    1  0.4405880E+000  0.2388399E+03  0.7818608E-02  0.1120568E+00
         21   -1    0    0  503  502  0.00000000000E+00  0.00000000000E+00  0.15987496664E+03  0.15987496664E+03  0.00000000000E+00 0.  1.
         21   -1    0    0  501  503 -0.00000000000E+00 -0.00000000000E+00 -0.44601045854E+03  0.44601045854E+03  0.00000000000E+00 0.  1.
          6    1    1    2  501    0  0.64238508279E+02  0.15275449020E+03 -0.27854882191E+03  0.36692501469E+03  0.17200000000E+03 0.  1.
         -6    1    1    2    0  502 -0.64238508279E+02 -0.15275449020E+03 -0.75866699962E+01  0.23896041050E+03  0.17200000000E+03 0.  1.
</event>
<event>
 4    1  0.4405880E+000  0.2174724E+03  0.7818608E-02  0.1135782E+00
         21   -1    0    0  503  502  0.00000000000E+00  0.00000000000E+00  0.20740531445E+02  0.20740531445E+02  0.00000000000E+00 0. -1.
         21   -1    0    0  501  503 -0.00000000000E+00 -0.00000000000E+00 -0.25824514163E+04  0.25824514163E+04  0.00000000000E+00 0.  1.
          6    1    1    2  501    0  0.85392520963E+02  0.10207041916E+03 -0.83562420527E+03  0.86345935952E+03  0.17200000000E+03 0. -1.
         -6    1    1    2    0  502 -0.85392520963E+02 -0.10207041916E+03 -0.17260866796E+04  0.17397325882E+04  0.17200000000E+03 0.  1.
</event>
<event>
 4    1  0.4405880E+000  0.2177419E+03  0.7818608E-02  0.1135578E+00
         21   -1    0    0  501  502  0.00000000000E+00  0.00000000000E+00  0.28958391582E+03  0.28958391582E+03  0.00000000000E+00 0.  1.
         21   -1    0    0  502  503 -0.00000000000E+00 -0.00000000000E+00 -0.16562780205E+03  0.16562780205E+03  0.00000000000E+00 0. -1.
          6    1    1    2  501    0 -0.17345511406E+02 -0.13238831600E+03  0.86386913676E+02  0.23425249590E+03  0.17200000000E+03 0.  1.
         -6    1    1    2    0  503  0.17345511406E+02  0.13238831600E+03  0.37569200089E+02  0.22095922197E+03  0.17200000000E+03 0. -1.
</event>
<event>
 4    1  0.4405880E+000  0.2931545E+03  0.7818608E-02  0.1088714E+00
         21   -1    0    0  501  502  0.00000000000E+00  0.00000000000E+00  0.23381277376E+03  0.23381277376E+03  0.00000000000E+00 0.  1.
         21   -1    0    0  502  503 -0.00000000000E+00 -0.00000000000E+00 -0.68806999128E+03  0.68806999128E+03  0.00000000000E+00 0. -1.
          6    1    1    2  501    0  0.18717065101E+03 -0.14602300613E+03  0.87466573409E+02  0.30592478223E+03  0.17200000000E+03 0.  1.
         -6    1    1    2    0  503 -0.18717065101E+03  0.14602300613E+03 -0.54172379093E+03  0.61595798281E+03  0.17200000000E+03 0. -1.
</event>
<event>
 4    1  0.4405880E+000  0.1893930E+03  0.7818608E-02  0.1159010E+00
         21   -1    0    0  501  502  0.00000000000E+00  0.00000000000E+00  0.65647546554E+03  0.65647546554E+03  0.00000000000E+00 0.  1.
         21   -1    0    0  502  503 -0.00000000000E+00 -0.00000000000E+00 -0.34184248969E+03  0.34184248969E+03  0.00000000000E+00 0.  1.
          6    1    1    2  501    0 -0.36938054811E+02  0.70151988826E+02  0.61484701717E+03  0.64335571494E+03  0.17200000000E+03 0.  1.
         -6    1    1    2    0  503  0.36938054811E+02 -0.70151988826E+02 -0.30021404131E+03  0.35496224029E+03  0.17200000000E+03 0.  1.
</event>
<event>
 4    1  0.4405880E+000  0.2017488E+03  0.7818608E-02  0.1148272E+00
         21   -1    0    0  503  502  0.00000000000E+00  0.00000000000E+00  0.43491170756E+02  0.43491170756E+02  0.00000000000E+00 0. -1.
         21   -1    0    0  501  503 -0.00000000000E+00 -0.00000000000E+00 -0.13740362824E+04  0.13740362824E+04  0.00000000000E+00 0. -1.
          6    1    1    2  501    0 -0.35251410865E+01  0.10538566352E+03 -0.26503636245E+03  0.33308683270E+03  0.17200000000E+03 0. -1.
         -6    1    1    2    0  502  0.35251410865E+01 -0.10538566352E+03 -0.10655087492E+04  0.10844406205E+04  0.17200000000E+03 0. -1.
</event>
<event>
 4    1  0.4405880E+000  0.2494753E+03  0.7818608E-02  0.1113637E+00
         21   -1    0    0  503  502  0.00000000000E+00  0.00000000000E+00  0.21278371477E+04  0.21278371477E+04  0.00000000000E+00 0.  1.
         21   -1    0    0  501  503 -0.00000000000E+00 -0.00000000000E+00 -0.43566648001E+02  0.43566648001E+02  0.00000000000E+00 0. -1.
          6    1    1    2  501    0  0.12907741463E+02 -0.18024236284E+03  0.41974384322E+03  0.48828558557E+03  0.17200000000E+03 0.  1.
         -6    1    1    2    0  502 -0.12907741463E+02  0.18024236284E+03  0.16645266564E+04  0.16831182101E+04  0.17200000000E+03 0.  1.
</event>
<event>
 4    1  0.4405880E+000  0.2000038E+03  0.7818608E-02  0.1149736E+00
         21   -1    0    0  503  502  0.00000000000E+00  0.00000000000E+00  0.33653069793E+03  0.33653069793E+03  0.00000000000E+00 0. -1.
         21   -1    0    0  501  503 -0.00000000000E+00 -0.00000000000E+00 -0.23643913413E+03  0.23643913413E+03  0.00000000000E+00 0.  1.
          6    1    1    2  501    0 -0.96507879563E+02  0.33222827073E+02 -0.15197639265E+03  0.25119385140E+03  0.17200000000E+03 0.  1.
         -6    1    1    2    0  502  0.96507879563E+02 -0.33222827073E+02  0.25206795646E+03  0.32177598066E+03  0.17200000000E+03 0. -1.
</event>
<event>
 4    1  0.4405880E+000  0.2579703E+03  0.7818608E-02  0.1108369E+00
         21   -1    0    0  503  502  0.00000000000E+00  0.00000000000E+00  0.16234281455E+04  0.16234281455E+04  0.00000000000E+00 0.  1.
         21   -1    0    0  501  503 -0.00000000000E+00 -0.00000000000E+00 -0.10572299871E+03  0.10572299871E+03  0.00000000000E+00 0. -1.
          6    1    1    2  501    0  0.18778568215E+03 -0.41245845105E+02  0.82345919083E+02  0.27079426240E+03  0.17200000000E+03 0. -1.
         -6    1    1    2    0  502 -0.18778568215E+03  0.41245845105E+02  0.14353592277E+04  0.14583568818E+04  0.17200000000E+03 0.  1.
</event>
<event>
 4    1  0.4405880E+000  0.1862309E+03  0.7818608E-02  0.1161905E+00
         21   -1    0    0  501  502  0.00000000000E+00  0.00000000000E+00  0.11200465656E+03  0.11200465656E+03  0.00000000000E+00 0.  1.
         21   -1    0    0  502  503 -0.00000000000E+00 -0.00000000000E+00 -0.33206800509E+03  0.33206800509E+03  0.00000000000E+00 0.  1.
          6    1    1    2  501    0 -0.46190433356E+02  0.54446320299E+02 -0.16772606139E+03  0.25062719246E+03  0.17200000000E+03 0.  1.
         -6    1    1    2    0  503  0.46190433356E+02 -0.54446320299E+02 -0.52337287132E+02  0.19344546919E+03  0.17200000000E+03 0.  1.
</event>
<event>
 4    1  0.4405880E+000  0.2252949E+03  0.7818608E-02  0.1129996E+00
         21   -1    0    0  503  502  0.00000000000E+00  0.00000000000E+00  0.40235277180E+02  0.40235277180E+02  0.00000000000E+00 0. -1.
         21   -1    0    0  501  503 -0.00000000000E+00 -0.00000000000E+00 -0.13763341956E+04  0.13763341956E+04  0.00000000000E+00 0. -1.
          6    1    1    2  501    0  0.12387607782E+03  0.76344740375E+02 -0.87261597684E+03  0.90123051717E+03  0.17200000000E+03 0. -1.
         -6    1    1    2    0  502 -0.12387607782E+03 -0.76344740375E+02 -0.46348294160E+03  0.51533895563E+03  0.17200000000E+03 0. -1.
</event>
<event>
 4    1  0.4405880E+000  0.1722633E+03  0.7818608E-02  0.1175508E+00
         21   -1    0    0  503  502  0.00000000000E+00  0.00000000000E+00  0.17288370788E+03  0.17288370788E+03  0.00000000000E+00 0. -1.
         21   -1    0    0  501  503 -0.00000000000E+00 -0.00000000000E+00 -0.37675020318E+03  0.37675020318E+03  0.00000000000E+00 0. -1.
          6    1    1    2  501    0  0.40246432698E+00  0.95120082278E+01 -0.30470386154E+03  0.35002726110E+03  0.17200000000E+03 0. -1.
         -6    1    1    2    0  502 -0.40246432698E+00 -0.95120082278E+01  0.10083736624E+03  0.19960664996E+03  0.17200000000E+03 0. -1.
</event>
<event>
 4    1  0.4405880E+000  0.2273106E+03  0.7818608E-02  0.1128547E+00
         21   -1    0    0  503  502  0.00000000000E+00  0.00000000000E+00  0.27925006907E+03  0.27925006907E+03  0.00000000000E+00 0. -1.
         21   -1    0    0  501  503 -0.00000000000E+00 -0.00000000000E+00 -0.19388166431E+03  0.19388166431E+03  0.00000000000E+00 0. -1.
          6    1    1    2  501    0  0.13498785306E+03  0.62164122461E+02  0.93226608589E+02  0.24568536616E+03  0.17200000000E+03 0. -1.
         -6    1    1    2    0  502 -0.13498785306E+03 -0.62164122461E+02 -0.78582038300E+01  0.22744636722E+03  0.17200000000E+03 0. -1.
</event>
<event>
 4    1  0.4405880E+000  0.2298783E+03  0.7818608E-02  0.1126725E+00
         21   -1    0    0  503  502  0.00000000000E+00  0.00000000000E+00  0.21127178359E+03  0.21127178359E+03  0.00000000000E+00 0.  1.
         21   -1    0    0  501  503 -0.00000000000E+00 -0.00000000000E+00 -0.25091844742E+03  0.25091844742E+03  0.00000000000E+00 0.  1.
          6    1    1    2  501    0 -0.13197260539E+03  0.76441209174E+02 -0.32831250303E+02  0.23221093434E+03  0.17200000000E+03 0.  1.
         -6    1    1    2    0  502  0.13197260539E+03 -0.76441209174E+02 -0.68154135244E+01  0.22997929666E+03  0.17200000000E+03 0.  1.
</event>
<event>
 4    1  0.4405880E+000  0.1742567E+03  0.7818608E-02  0.1173480E+00
         21   -1    0    0  503  502  0.00000000000E+00  0.00000000000E+00  0.26932582400E+03  0.26932582400E+03  0.00000000000E+00 0. -1.
         21   -1    0    0  501  503 -0.00000000000E+00 -0.00000000000E+00 -0.11521807140E+03  0.11521807140E+03  0.00000000000E+00 0. -1.
          6    1    1    2  501    0  0.25100315817E+02 -0.12303801455E+02  0.48890409068E+02  0.18098530737E+03  0.17200000000E+03 0.  1.
         -6    1    1    2    0  502 -0.25100315817E+02  0.12303801455E+02  0.10521734353E+03  0.20355858804E+03  0.17200000000E+03 0.  1.
</event>
<event>
 4    1  0.4405880E+000  0.1961624E+03  0.7818608E-02  0.1153018E+00
         21   -1    0    0  501  502  0.00000000000E+00  0.00000000000E+00  0.48461117708E+02  0.48461117708E+02  0.00000000000E+00 0. -1.
         21   -1    0    0  502  503 -0.00000000000E+00 -0.00000000000E+00 -0.10296483609E+04  0.10296483609E+04  0.00000000000E+00 0. -1.
          6    1    1    2  501    0  0.38226380710E+02 -0.86223164550E+02 -0.23272951490E+03  0.30437266203E+03  0.17200000000E+03 0. -1.
         -6    1    1    2    0  503 -0.38226380710E+02  0.86223164550E+02 -0.74845772831E+03  0.77373681660E+03  0.17200000000E+03 0. -1.
</event>
<event>
 4    1  0.4405880E+000  0.1788124E+03  0.7818608E-02  0.1168957E+00
         21   -1    0    0  501  502  0.00000000000E+00  0.00000000000E+00  0.14654964234E+04  0.14654964234E+04  0.00000000000E+00 0.  1.
         21   -1    0    0  502  503 -0.00000000000E+00 -0.00000000000E+00 -0.73287062676E+02  0.73287062676E+02  0.00000000000E+00 0.  1.
          6    1    1    2  501    0  0.35032476957E+02 -0.34096940893E+02  0.13408792927E+04  0.13527494792E+04  0.17200000000E+03 0.  1.
         -6    1    1    2    0  503 -0.35032476957E+02  0.34096940893E+02  0.51330067951E+02  0.18603400683E+03  0.17200000000E+03 0.  1.
</event>
<event>
 4    1  0.4405880E+000  0.1996140E+03  0.7818608E-02  0.1150065E+00
         21   -1    0    0  503  502  0.00000000000E+00  0.00000000000E+00  0.70961798485E+02  0.70961798485E+02  0.00000000000E+00 0. -1.
         21   -1    0    0  501  503 -0.00000000000E+00 -0.00000000000E+00 -0.80055934297E+03  0.80055934297E+03  0.00000000000E+00 0.  1.
          6    1    1    2  501    0  0.98551064836E+02  0.23440284435E+02 -0.60291826297E+03  0.63510329171E+03  0.17200000000E+03 0.  1.
         -6    1    1    2    0  502 -0.98551064836E+02 -0.23440284435E+02 -0.12667928152E+03  0.23641784975E+03  0.17200000000E+03 0. -1.
</event>
<event>
 4    1  0.4405880E+000  0.1781598E+03  0.7818608E-02  0.1169596E+00
         21   -1    0    0  501  502  0.00000000000E+00  0.00000000000E+00  0.22200039076E+02  0.22200039076E+02  0.00000000000E+00 0. -1.
         21   -1    0    0  502  503 -0.00000000000E+00 -0.00000000000E+00 -0.17866389201E+04  0.17866389201E+04  0.00000000000E+00 0. -1.
          6    1    1    2  501    0 -0.36493458810E+02  0.28725479122E+02 -0.12864289613E+04  0.12987072026E+04  0.17200000000E+03 0. -1.
         -6    1    1    2    0  503  0.36493458810E+02 -0.28725479122E+02 -0.47800991975E+03  0.51013175657E+03  0.17200000000E+03 0. -1.
</event>
<event>
 4    1  0.4405880E+000  0.2130687E+03  0.7818608E-02  0.1139159E+00
         21   -1    0    0  501  502  0.00000000000E+00  0.00000000000E+00  0.58496652100E+02  0.58496652100E+02  0.00000000000E+00 0.  1.
         21   -1    0    0  502  503 -0.00000000000E+00 -0.00000000000E+00 -0.77615134937E+03  0.77615134937E+03  0.00000000000E+00 0.  1.
          6    1    1    2  501    0  0.90482588935E+02 -0.87333744112E+02 -0.36273154959E+03  0.42068094660E+03  0.17200000000E+03 0.  1.
         -6    1    1    2    0  503 -0.90482588935E+02  0.87333744112E+02 -0.35492314767E+03  0.41396705487E+03  0.17200000000E+03 0.  1.
</event>
<event>
 4    1  0.4405880E+000  0.2228619E+03  0.7818608E-02  0.1131767E+00
         21   -1    0    0  503  502  0.00000000000E+00  0.00000000000E+00  0.27826996446E+03  0.27826996446E+03  0.00000000000E+00 0. -1.
         21   -1    0    0  501  503 -0.00000000000E+00 -0.00000000000E+00 -0.21158646241E+03  0.21158646241E+03  0.00000000000E+00 0. -1.
          6    1    1    2  501    0  0.13478849083E+03  0.43766536493E+02  0.13021598322E+03  0.25811557346E+03  0.17200000000E+03 0. -1.
         -6    1    1    2    0  502 -0.13478849083E+03 -0.43766536493E+02 -0.63532481164E+02  0.23174085341E+03  0.17200000000E+03 0. -1.
</event>
<event>
 4    1  0.4405880E+000  0.1898382E+03  0.7818608E-02  0.1158607E+00
         21   -1    0    0  501  502  0.00000000000E+00  0.00000000000E+00  0.18767747968E+03  0.18767747968E+03  0.00000000000E+00 0. -1.
         21   -1    0    0  502  503 -0.00000000000E+00 -0.00000000000E+00 -0.88609532148E+03  0.88609532148E+03  0.00000000000E+00 0. -1.
          6    1    1    2  501    0  0.28702568389E+02  0.75038099618E+02  0.12595589554E+03  0.22782326801E+03  0.17200000000E+03 0. -1.
         -6    1    1    2    0  503 -0.28702568389E+02 -0.75038099618E+02 -0.82437373734E+03  0.84594953315E+03  0.17200000000E+03 0. -1.
</event>
<event>
 4    1  0.4405880E+000  0.2354629E+03  0.7818608E-02  0.1122853E+00
         21   -1    0    0  501  502  0.00000000000E+00  0.00000000000E+00  0.90777872007E+03  0.90777872007E+03  0.00000000000E+00 0. -1.
         21   -1    0    0  502  503 -0.00000000000E+00 -0.00000000000E+00 -0.89265255840E+02  0.89265255840E+02  0.00000000000E+00 0. -1.
          6    1    1    2  501    0 -0.10497993054E+03 -0.12181127173E+03  0.68940698451E+03  0.72850858747E+03  0.17200000000E+03 0. -1.
         -6    1    1    2    0  503  0.10497993054E+03  0.12181127173E+03  0.12910647973E+03  0.26853538844E+03  0.17200000000E+03 0. -1.
</event>
<event>
 4    1  0.4405880E+000  0.3375070E+03  0.7818608E-02  0.1067863E+00
         21   -1    0    0  503  502  0.00000000000E+00  0.00000000000E+00  0.53244538431E+03  0.53244538431E+03  0.00000000000E+00 0. -1.
         21   -1    0    0  501  503 -0.00000000000E+00 -0.00000000000E+00 -0.26994011309E+03  0.26994011309E+03  0.00000000000E+00 0. -1.
          6    1    1    2  501    0 -0.28871408977E+03  0.31163117724E+02 -0.51480256153E+02  0.34141057733E+03  0.17200000000E+03 0. -1.
         -6    1    1    2    0  502  0.28871408977E+03 -0.31163117724E+02  0.31398552738E+03  0.46097492008E+03  0.17200000000E+03 0. -1.
</event>
<event>
 4    1  0.4405880E+000  0.1957573E+03  0.7818608E-02  0.1153369E+00
         21   -1    0    0  501  502  0.00000000000E+00  0.00000000000E+00  0.73267147749E+03  0.73267147749E+03  0.00000000000E+00 0.  1.
         21   -1    0    0  502  503 -0.00000000000E+00 -0.00000000000E+00 -0.94182153725E+02  0.94182153725E+02  0.00000000000E+00 0.  1.
          6    1    1    2  501    0  0.90520147995E+02  0.23302869660E+02  0.59492973327E+03  0.62630847707E+03  0.17200000000E+03 0.  1.
         -6    1    1    2    0  503 -0.90520147995E+02 -0.23302869660E+02  0.43559590502E+02  0.20054515415E+03  0.17200000000E+03 0.  1.
</event>
<event>
 4    1  0.4405880E+000  0.2009279E+03  0.7818608E-02  0.1148959E+00
         21   -1    0    0  503  502  0.00000000000E+00  0.00000000000E+00  0.94025818799E+03  0.94025818799E+03  0.00000000000E+00 0.  1.
         21   -1    0    0  501  503 -0.00000000000E+00 -0.00000000000E+00 -0.66705766929E+02  0.66705766929E+02  0.00000000000E+00 0. -1.
          6    1    1    2  501    0 -0.97054289680E+02  0.36992967729E+02  0.73731748021E+03  0.76420486876E+03  0.17200000000E+03 0.  1.
         -6    1    1    2    0  502  0.97054289680E+02 -0.36992967729E+02  0.13623494085E+03  0.24275908617E+03  0.17200000000E+03 0. -1.
</event>
<event>
 4    1  0.4405880E+000  0.2022982E+03  0.7818608E-02  0.1147814E+00
         21   -1    0    0  503  502  0.00000000000E+00  0.00000000000E+00  0.19868763895E+03  0.19868763895E+03  0.00000000000E+00 0.  1.
         21   -1    0    0  501  503 -0.00000000000E+00 -0.00000000000E+00 -0.57079011720E+03  0.57079011720E+03  0.00000000000E+00 0. -1.
          6    1    1    2  501    0  0.80524113441E+02  0.69688029143E+02 -0.49363589098E+03  0.53348003441E+03  0.17200000000E+03 0. -1.
         -6    1    1    2    0  502 -0.80524113441E+02 -0.69688029143E+02  0.12153341274E+03  0.23599772173E+03  0.17200000000E+03 0.  1.
</event>
<event>
 4    1  0.4405880E+000  0.1858627E+03  0.7818608E-02  0.1162247E+00
         21   -1    0    0  503  502  0.00000000000E+00  0.00000000000E+00  0.47953514200E+03  0.47953514200E+03  0.00000000000E+00 0. -1.
         21   -1    0    0  501  503 -0.00000000000E+00 -0.00000000000E+00 -0.73932409868E+02  0.73932409868E+02  0.00000000000E+00 0. -1.
          6    1    1    2  501    0  0.64668188886E+02 -0.27910315265E+02  0.15850867819E+03  0.24427435685E+03  0.17200000000E+03 0.  1.
         -6    1    1    2    0  502 -0.64668188886E+02  0.27910315265E+02  0.24709405394E+03  0.30919319502E+03  0.17200000000E+03 0.  1.
</event>
<event>
 4    1  0.4405880E+000  0.2026920E+03  0.7818608E-02  0.1147487E+00
         21   -1    0    0  501  502  0.00000000000E+00  0.00000000000E+00  0.20440021315E+04  0.20440021315E+04  0.00000000000E+00 0. -1.
         21   -1    0    0  502  503 -0.00000000000E+00 -0.00000000000E+00 -0.73790505653E+02  0.73790505653E+02  0.00000000000E+00 0. -1.
          6    1    1    2  501    0 -0.67526219596E+02 -0.83308282409E+02  0.18883448505E+04  0.18991920215E+04  0.17200000000E+03 0. -1.
         -6    1    1    2    0  503  0.67526219596E+02  0.83308282409E+02  0.81866775377E+02  0.21860061565E+03  0.17200000000E+03 0. -1.
</event>
<event>
 4    1  0.4405880E+000  0.2514351E+03  0.7818608E-02  0.1112401E+00
         21   -1    0    0  501  502  0.00000000000E+00  0.00000000000E+00  0.33175813876E+03  0.33175813876E+03  0.00000000000E+00 0. -1.
         21   -1    0    0  502  503 -0.00000000000E+00 -0.00000000000E+00 -0.27589869275E+03  0.27589869275E+03  0.00000000000E+00 0.  1.
          6    1    1    2  501    0  0.61040612920E+02 -0.17294413825E+03  0.19690691587E+03  0.31936180877E+03  0.17200000000E+03 0. -1.
         -6    1    1    2    0  503 -0.61040612920E+02  0.17294413825E+03 -0.14104746986E+03  0.28829502274E+03  0.17200000000E+03 0.  1.
</event>
<event>
 4    1  0.4405880E+000  0.2021203E+03  0.7818608E-02  0.1147962E+00
         21   -1    0    0  503  502  0.00000000000E+00  0.00000000000E+00  0.23284815331E+03  0.23284815331E+03  0.00000000000E+00 0.  1.
         21   -1    0    0  501  503 -0.00000000000E+00 -0.00000000000E+00 -0.20862325829E+03  0.20862325829E+03  0.00000000000E+00 0. -1.
          6    1    1    2  501    0 -0.10413734173E+03 -0.20591976963E+02 -0.75911727539E+02  0.21590554841E+03  0.17200000000E+03 0. -1.
         -6    1    1    2    0  502  0.10413734173E+03  0.20591976963E+02  0.10013662255E+03  0.22556586319E+03  0.17200000000E+03 0.  1.
</event>
<event>
 4    1  0.4405880E+000  0.1893424E+03  0.7818608E-02  0.1159056E+00
         21   -1    0    0  503  502  0.00000000000E+00  0.00000000000E+00  0.39277690600E+02  0.39277690600E+02  0.00000000000E+00 0. -1.
         21   -1    0    0  501  503 -0.00000000000E+00 -0.00000000000E+00 -0.11510260966E+04  0.11510260966E+04  0.00000000000E+00 0.  1.
          6    1    1    2  501    0 -0.28777650368E+02 -0.73745325750E+02 -0.82666243424E+03  0.84806916370E+03  0.17200000000E+03 0.  1.
         -6    1    1    2    0  502  0.28777650368E+02  0.73745325750E+02 -0.28508597177E+03  0.34223462351E+03  0.17200000000E+03 0. -1.
</event>
<event>
 4    1  0.4405880E+000  0.2199383E+03  0.7818608E-02  0.1133929E+00
         21   -1    0    0  501  502  0.00000000000E+00  0.00000000000E+00  0.53899788116E+03  0.53899788116E+03  0.00000000000E+00 0. -1.
         21   -1    0    0  502  503 -0.00000000000E+00 -0.00000000000E+00 -0.40012748284E+03  0.40012748284E+03  0.00000000000E+00 0. -1.
          6    1    1    2  501    0 -0.22234297532E+00  0.13707220706E+03  0.48299885807E+03  0.53071719048E+03  0.17200000000E+03 0. -1.
         -6    1    1    2    0  503  0.22234297532E+00 -0.13707220706E+03 -0.34412845975E+03  0.40840817352E+03  0.17200000000E+03 0. -1.
</event>
<event>
 4    1  0.4405880E+000  0.2217012E+03  0.7818608E-02  0.1132621E+00
         21   -1    0    0  501  502  0.00000000000E+00  0.00000000000E+00  0.11061763271E+03  0.11061763271E+03  0.00000000000E+00 0. -1.
         21   -1    0    0  502  503 -0.00000000000E+00 -0.00000000000E+00 -0.56094922094E+03  0.56094922094E+03  0.00000000000E+00 0. -1.
          6    1    1    2  501    0  0.44466470362E+02 -0.13262785836E+03 -0.72067253053E+02  0.23312036540E+03  0.17200000000E+03 0. -1.
         -6    1    1    2    0  503 -0.44466470362E+02  0.13262785836E+03 -0.37826433518E+03  0.43844648826E+03  0.17200000000E+03 0. -1.
</event>
<event>
 4    1  0.4405880E+000  0.2622113E+03  0.7818608E-02  0.1105822E+00
         21   -1    0    0  501  502  0.00000000000E+00  0.00000000000E+00  0.86505905325E+03  0.86505905325E+03  0.00000000000E+00 0.  1.
         21   -1    0    0  502  503 -0.00000000000E+00 -0.00000000000E+00 -0.79677076487E+02  0.79677076487E+02  0.00000000000E+00 0. -1.
          6    1    1    2  501    0  0.11027724552E+03  0.16434624631E+03  0.41619282734E+03  0.49190571158E+03  0.17200000000E+03 0.  1.
         -6    1    1    2    0  503 -0.11027724552E+03 -0.16434624631E+03  0.36918914943E+03  0.45283041816E+03  0.17200000000E+03 0.  1.
</event>
<event>
 4    1  0.4405880E+000  0.1813451E+03  0.7818608E-02  0.1166508E+00
         21   -1    0    0  503  502  0.00000000000E+00  0.00000000000E+00  0.17748682728E+03  0.17748682728E+03  0.00000000000E+00 0. -1.
         21   -1    0    0  501  503 -0.00000000000E+00 -0.00000000000E+00 -0.18910379375E+03  0.18910379375E+03  0.00000000000E+00 0. -1.
          6    1    1    2  501    0 -0.12931419622E+02  0.55989641662E+02  0.20230942567E+02  0.18247014173E+03  0.17200000000E+03 0. -1.
         -6    1    1    2    0  502  0.12931419622E+02 -0.55989641662E+02 -0.31847909043E+02  0.18412047930E+03  0.17200000000E+03 0. -1.
</event>
<event>
 4    1  0.4405880E+000  0.2029586E+03  0.7818608E-02  0.1147267E+00
         21   -1    0    0  503  502  0.00000000000E+00  0.00000000000E+00  0.39550472435E+03  0.39550472435E+03  0.00000000000E+00 0.  1.
         21   -1    0    0  501  503 -0.00000000000E+00 -0.00000000000E+00 -0.16981749063E+03  0.16981749063E+03  0.00000000000E+00 0. -1.
          6    1    1    2  501    0 -0.10566613940E+03 -0.21043901692E+02 -0.62927305752E+02  0.21249005771E+03  0.17200000000E+03 0. -1.
         -6    1    1    2    0  502  0.10566613940E+03  0.21043901692E+02  0.28861453947E+03  0.35283215728E+03  0.17200000000E+03 0.  1.
</event>
<event>
 4    1  0.4405880E+000  0.1876057E+03  0.7818608E-02  0.1160639E+00
         21   -1    0    0  501  502  0.00000000000E+00  0.00000000000E+00  0.78432202880E+03  0.78432202880E+03  0.00000000000E+00 0.  1.
         21   -1    0    0  502  503 -0.00000000000E+00 -0.00000000000E+00 -0.10402797110E+03  0.10402797110E+03  0.00000000000E+00 0.  1.
          6    1    1    2  501    0 -0.68918186412E+02  0.29363016522E+02  0.67508924739E+03  0.70067210241E+03  0.17200000000E+03 0.  1.
         -6    1    1    2    0  503  0.68918186412E+02 -0.29363016522E+02  0.52048103140E+01  0.18767789749E+03  0.17200000000E+03 0.  1.
</event>
<event>
 4    1  0.4405880E+000  0.3401419E+03  0.7818608E-02  0.1066735E+00
         21   -1    0    0  501  502  0.00000000000E+00  0.00000000000E+00  0.94492878904E+03  0.94492878904E+03  0.00000000000E+00 0. -1.
         21   -1    0    0  502  503 -0.00000000000E+00 -0.00000000000E+00 -0.53006091470E+03  0.53006091470E+03  0.00000000000E+00 0.  1.
          6    1    1    2  501    0 -0.16708530935E+03 -0.24123649262E+03  0.85416635894E+03  0.91940019291E+03  0.17200000000E+03 0. -1.
         -6    1    1    2    0  503  0.16708530935E+03  0.24123649262E+03 -0.43929848460E+03  0.55558951083E+03  0.17200000000E+03 0.  1.
</event>
<event>
 4    1  0.4405880E+000  0.1838705E+03  0.7818608E-02  0.1164109E+00
         21   -1    0    0  501  502  0.00000000000E+00  0.00000000000E+00  0.87504731432E+03  0.87504731432E+03  0.00000000000E+00 0.  1.
         21   -1    0    0  502  503 -0.00000000000E+00 -0.00000000000E+00 -0.52629943555E+02  0.52629943555E+02  0.00000000000E+00 0.  1.
          6    1    1    2  501    0  0.54205929769E+02  0.35861832044E+02  0.65038604315E+03  0.67587747332E+03  0.17200000000E+03 0.  1.
         -6    1    1    2    0  503 -0.54205929769E+02 -0.35861832044E+02  0.17203132761E+03  0.25179978455E+03  0.17200000000E+03 0.  1.
</event>
<event>
 4    1  0.4405880E+000  0.2881921E+03  0.7818608E-02  0.1091297E+00
         21   -1    0    0  501  502  0.00000000000E+00  0.00000000000E+00  0.10066974348E+03  0.10066974348E+03  0.00000000000E+00 0. -1.
         21   -1    0    0  502  503 -0.00000000000E+00 -0.00000000000E+00 -0.10406636853E+04  0.10406636853E+04  0.00000000000E+00 0.  1.
          6    1    1    2  501    0  0.10641030503E+03 -0.20529868729E+03 -0.21022386213E+03  0.35671946433E+03  0.17200000000E+03 0. -1.
         -6    1    1    2    0  503 -0.10641030503E+03  0.20529868729E+03 -0.72977007972E+03  0.78461396449E+03  0.17200000000E+03 0.  1.
</event>
<event>
 4    1  0.4405880E+000  0.2262430E+03  0.7818608E-02  0.1129312E+00
         21   -1    0    0  501  502  0.00000000000E+00  0.00000000000E+00  0.28341677752E+03  0.28341677752E+03  0.00000000000E+00 0. -1.
         21   -1    0    0  502  503 -0.00000000000E+00 -0.00000000000E+00 -0.47716063019E+03  0.47716063019E+03  0.00000000000E+00 0.  1.
          6    1    1    2  501    0  0.93303658467E+02  0.11356195668E+03  0.20293091966E+03  0.30391914853E+03  0.17200000000E+03 0. -1.
         -6    1    1    2    0  503 -0.93303658467E+02 -0.11356195668E+03 -0.39667477232E+03  0.45665825919E+03  0.17200000000E+03 0.  1.
</event>
<event>
 4    1  0.4405880E+000  0.1904920E+03  0.7818608E-02  0.1158018E+00
         21   -1    0    0  503  502  0.00000000000E+00  0.00000000000E+00  0.18591939915E+03  0.18591939915E+03  0.00000000000E+00 0.  1.
         21   -1    0    0  501  503 -0.00000000000E+00 -0.00000000000E+00 -0.30171883559E+03  0.30171883559E+03  0.00000000000E+00 0.  1.
          6    1    1    2  501    0  0.19711674361E+02 -0.79464798711E+02 -0.20278573728E+03  0.27822519581E+03  0.17200000000E+03 0.  1.
         -6    1    1    2    0  502 -0.19711674361E+02  0.79464798711E+02  0.86986300842E+02  0.20941303893E+03  0.17200000000E+03 0.  1.
</event>
<event>
 4    1  0.4405880E+000  0.2607771E+03  0.7818608E-02  0.1106677E+00
         21   -1    0    0  501  502  0.00000000000E+00  0.00000000000E+00  0.13399093050E+04  0.13399093050E+04  0.00000000000E+00 0.  1.
         21   -1    0    0  502  503 -0.00000000000E+00 -0.00000000000E+00 -0.71670836013E+02  0.71670836013E+02  0.00000000000E+00 0. -1.
          6    1    1    2  501    0  0.43146264107E+02 -0.19120437372E+03  0.10154136066E+04  0.10483651582E+04  0.17200000000E+03 0.  1.
         -6    1    1    2    0  503 -0.43146264107E+02  0.19120437372E+03  0.25282486238E+03  0.36321498272E+03  0.17200000000E+03 0. -1.
</event>
<event>
 4    1  0.4405880E+000  0.1775980E+03  0.7818608E-02  0.1170148E+00
         21   -1    0    0  503  502  0.00000000000E+00  0.00000000000E+00  0.70116603035E+02  0.70116603035E+02  0.00000000000E+00 0. -1.
         21   -1    0    0  501  503 -0.00000000000E+00 -0.00000000000E+00 -0.50585493570E+03  0.50585493570E+03  0.00000000000E+00 0.  1.
          6    1    1    2  501    0  0.31938017154E+02  0.30610820151E+02 -0.12203493836E+03  0.21548453641E+03  0.17200000000E+03 0. -1.
         -6    1    1    2    0  502 -0.31938017154E+02 -0.30610820151E+02 -0.31370339430E+03  0.36048700233E+03  0.17200000000E+03 0.  1.
</event>
<event>
 4    1  0.4405880E+000  0.2158852E+03  0.7818608E-02  0.1136989E+00
         21   -1    0    0  503  502  0.00000000000E+00  0.00000000000E+00  0.21772327475E+03  0.21772327475E+03  0.00000000000E+00 0.  1.
         21   -1    0    0  501  503 -0.00000000000E+00 -0.00000000000E+00 -0.21436005727E+03  0.21436005727E+03  0.00000000000E+00 0. -1.
          6    1    1    2  501    0  0.83355233636E+02 -0.10037090224E+03 -0.63660354172E+01  0.21597902536E+03  0.17200000000E+03 0. -1.
         -6    1    1    2    0  502 -0.83355233636E+02  0.10037090224E+03  0.97292528994E+01  0.21610430665E+03  0.17200000000E+03 0.  1.
</event>
<event>
 4    1  0.4405880E+000  0.1780370E+03  0.7818608E-02  0.1169716E+00
         21   -1    0    0  503  502  0.00000000000E+00  0.00000000000E+00  0.18764532200E+03  0.18764532200E+03  0.00000000000E+00 0. -1.
         21   -1    0    0  501  503 -0.00000000000E+00 -0.00000000000E+00 -0.33124014403E+03  0.33124014403E+03  0.00000000000E+00 0. -1.
          6    1    1    2  501    0 -0.45221003372E+02 -0.82609488296E+01 -0.25341390104E+03  0.30970274080E+03  0.17200000000E+03 0. -1.
         -6    1    1    2    0  502  0.45221003372E+02  0.82609488296E+01  0.10981907900E+03  0.20918272523E+03  0.17200000000E+03 0. -1.
</event>
<event>
 4    1  0.4405880E+000  0.2172175E+03  0.7818608E-02  0.1135975E+00
         21   -1    0    0  501  502  0.00000000000E+00  0.00000000000E+00  0.21546260606E+04  0.21546260606E+04  0.00000000000E+00 0.  1.
         21   -1    0    0  502  503 -0.00000000000E+00 -0.00000000000E+00 -0.21932625220E+02  0.21932625220E+02  0.00000000000E+00 0.  1.
          6    1    1    2  501    0 -0.27081634751E+01 -0.13263520091E+03  0.11091710993E+04  0.11302406639E+04  0.17200000000E+03 0.  1.
         -6    1    1    2    0  503  0.27081634751E+01  0.13263520091E+03  0.10235223360E+04  0.10463180219E+04  0.17200000000E+03 0.  1.
</event>
<event>
 4    1  0.4405880E+000  0.2227300E+03  0.7818608E-02  0.1131864E+00
         21   -1    0    0  503  502  0.00000000000E+00  0.00000000000E+00  0.39460907673E+03  0.39460907673E+03  0.00000000000E+00 0. -1.
         21   -1    0    0  501  503 -0.00000000000E+00 -0.00000000000E+00 -0.18118040254E+03  0.18118040254E+03  0.00000000000E+00 0.  1.
          6    1    1    2  501    0 -0.80195905363E+02  0.11659020679E+03 -0.52574535773E+02  0.22885091516E+03  0.17200000000E+03 0.  1.
         -6    1    1    2    0  502  0.80195905363E+02 -0.11659020679E+03  0.26600320997E+03  0.34693856411E+03  0.17200000000E+03 0. -1.
</event>
<event>
 4    1  0.4405880E+000  0.1798430E+03  0.7818608E-02  0.1167955E+00
         21   -1    0    0  503  502  0.00000000000E+00  0.00000000000E+00  0.10860833590E+03  0.10860833590E+03  0.00000000000E+00 0. -1.
         21   -1    0    0  501  503 -0.00000000000E+00 -0.00000000000E+00 -0.30540804094E+03  0.30540804094E+03  0.00000000000E+00 0. -1.
          6    1    1    2  501    0 -0.51230831271E+02 -0.11614496597E+02 -0.13107379466E+03  0.22253951166E+03  0.17200000000E+03 0. -1.
         -6    1    1    2    0  502  0.51230831271E+02  0.11614496597E+02 -0.65725910374E+02  0.19147686518E+03  0.17200000000E+03 0. -1.
</event>
<event>
 4    1  0.4405880E+000  0.2240977E+03  0.7818608E-02  0.1130864E+00
         21   -1    0    0  503  502  0.00000000000E+00  0.00000000000E+00  0.26932900362E+03  0.26932900362E+03  0.00000000000E+00 0.  1.
         21   -1    0    0  501  503 -0.00000000000E+00 -0.00000000000E+00 -0.20231617944E+03  0.20231617944E+03  0.00000000000E+00 0. -1.
          6    1    1    2  501    0  0.87208964924E+02  0.11415070542E+03  0.99520058691E+02  0.24520201710E+03  0.17200000000E+03 0. -1.
         -6    1    1    2    0  502 -0.87208964924E+02 -0.11415070542E+03 -0.32507234511E+02  0.22644316595E+03  0.17200000000E+03 0. -1.
</event>
<event>
 4    1  0.4405880E+000  0.2386411E+03  0.7818608E-02  0.1120701E+00
         21   -1    0    0  503  502  0.00000000000E+00  0.00000000000E+00  0.59777524490E+03  0.59777524490E+03  0.00000000000E+00 0. -1.
         21   -1    0    0  501  503 -0.00000000000E+00 -0.00000000000E+00 -0.98257724232E+02  0.98257724232E+02  0.00000000000E+00 0.  1.
          6    1    1    2  501    0 -0.16501456330E+03 -0.11652010544E+02  0.18906499018E+03  0.30445877548E+03  0.17200000000E+03 0. -1.
         -6    1    1    2    0  502  0.16501456330E+03  0.11652010544E+02  0.31045253048E+03  0.39157419365E+03  0.17200000000E+03 0. -1.
</event>
<event>
 4    1  0.4405880E+000  0.2284094E+03  0.7818608E-02  0.1127764E+00
         21   -1    0    0  501  502  0.00000000000E+00  0.00000000000E+00  0.53844914128E+03  0.53844914128E+03  0.00000000000E+00 0. -1.
         21   -1    0    0  502  503 -0.00000000000E+00 -0.00000000000E+00 -0.10118053299E+03  0.10118053299E+03  0.00000000000E+00 0. -1.
          6    1    1    2  501    0 -0.19836382351E+02 -0.14897434312E+03  0.15278384945E+03  0.27479763760E+03  0.17200000000E+03 0. -1.
         -6    1    1    2    0  503  0.19836382351E+02  0.14897434312E+03  0.28448475884E+03  0.36483203668E+03  0.17200000000E+03 0. -1.
</event>
<event>
 4    1  0.4405880E+000  0.2983418E+03  0.7818608E-02  0.1086072E+00
         21   -1    0    0  501  502  0.00000000000E+00  0.00000000000E+00  0.70058424696E+03  0.70058424696E+03  0.00000000000E+00 0.  1.
         21   -1    0    0  502  503 -0.00000000000E+00 -0.00000000000E+00 -0.12816017492E+03  0.12816017492E+03  0.00000000000E+00 0.  1.
          6    1    1    2  501    0 -0.16293435949E+03  0.18131800643E+03  0.24761079147E+03  0.38770985158E+03  0.17200000000E+03 0.  1.
         -6    1    1    2    0  503  0.16293435949E+03 -0.18131800643E+03  0.32481328058E+03  0.44103457030E+03  0.17200000000E+03 0.  1.
</event>
<event>
 4    1  0.4405880E+000  0.2929105E+03  0.7818608E-02  0.1088839E+00
         21   -1    0    0  503  502  0.00000000000E+00  0.00000000000E+00  0.38599587605E+02  0.38599587605E+02  0.00000000000E+00 0. -1.
         21   -1    0    0  501  503 -0.00000000000E+00 -0.00000000000E+00 -0.29214195875E+04  0.29214195875E+04  0.00000000000E+00 0.  1.
          6    1    1    2  501    0  0.39478044316E+02 -0.23378210173E+03 -0.21651935088E+04  0.21849163640E+04  0.17200000000E+03 0.  1.
         -6    1    1    2    0  502 -0.39478044316E+02  0.23378210173E+03 -0.71762649104E+03  0.77510281106E+03  0.17200000000E+03 0. -1.
</event>
<event>
 4    1  0.4405880E+000  0.2238403E+03  0.7818608E-02  0.1131052E+00
         21   -1    0    0  501  502  0.00000000000E+00  0.00000000000E+00  0.90109636732E+03  0.90109636732E+03  0.00000000000E+00 0. -1.
         21   -1    0    0  502  503 -0.00000000000E+00 -0.00000000000E+00 -0.60210434870E+03  0.60210434870E+03  0.00000000000E+00 0. -1.
          6    1    1    2  501    0  0.84681914789E+02  0.11553977673E+03  0.86555097403E+03  0.89402626099E+03  0.17200000000E+03 0. -1.
         -6    1    1    2    0  503 -0.84681914789E+02 -0.11553977673E+03 -0.56655895541E+03  0.60917445502E+03  0.17200000000E+03 0. -1.
</event>
<event>
 4    1  0.4405880E+000  0.1721180E+03  0.7818608E-02  0.1175657E+00
         21   -1    0    0  503  502  0.00000000000E+00  0.00000000000E+00  0.49263449192E+03  0.49263449192E+03  0.00000000000E+00 0.  1.
         21   -1    0    0  501  503 -0.00000000000E+00 -0.00000000000E+00 -0.77561729001E+02  0.77561729001E+02  0.00000000000E+00 0.  1.
          6    1    1    2  501    0  0.63719058548E+01 -0.48676942590E-02  0.72398259758E+02  0.18672468831E+03  0.17200000000E+03 0.  1.
         -6    1    1    2    0  502 -0.63719058548E+01  0.48676942590E-02  0.34267450316E+03  0.38347153261E+03  0.17200000000E+03 0.  1.
</event>
<event>
 4    1  0.4405880E+000  0.2181132E+03  0.7818608E-02  0.1135298E+00
         21   -1    0    0  501  502  0.00000000000E+00  0.00000000000E+00  0.15807221552E+03  0.15807221552E+03  0.00000000000E+00 0.  1.
         21   -1    0    0  502  503 -0.00000000000E+00 -0.00000000000E+00 -0.37786847072E+03  0.37786847072E+03  0.00000000000E+00 0. -1.
          6    1    1    2  501    0  0.10259163918E+03  0.86396289098E+02  0.10995775550E+02  0.21839017899E+03  0.17200000000E+03 0.  1.
         -6    1    1    2    0  503 -0.10259163918E+03 -0.86396289098E+02 -0.23079203075E+03  0.31755050725E+03  0.17200000000E+03 0. -1.
</event>
<event>
 4    1  0.4405880E+000  0.2145062E+03  0.7818608E-02  0.1138046E+00
         21   -1    0    0  503  502  0.00000000000E+00  0.00000000000E+00  0.13319917880E+04  0.13319917880E+04  0.00000000000E+00 0.  1.
         21   -1    0    0  501  503 -0.00000000000E+00 -0.00000000000E+00 -0.38907479273E+02  0.38907479273E+02  0.00000000000E+00 0.  1.
          6    1    1    2  501    0 -0.11021680543E+03 -0.65430698237E+02  0.41700489805E+03  0.46894136677E+03  0.17200000000E+03 0.  1.
         -6    1    1    2    0  502  0.11021680543E+03  0.65430698237E+02  0.87607941072E+03  0.90195790055E+03  0.17200000000E+03 0.  1.
</event>
<event>
 4    1  0.4405880E+000  0.2496556E+03  0.7818608E-02  0.1113523E+00
         21   -1    0    0  501  502  0.00000000000E+00  0.00000000000E+00  0.36022435352E+03  0.36022435352E+03  0.00000000000E+00 0.  1.
         21   -1    0    0  502  503 -0.00000000000E+00 -0.00000000000E+00 -0.20022103623E+03  0.20022103623E+03  0.00000000000E+00 0.  1.
          6    1    1    2  501    0  0.29096137939E+02  0.17859819520E+03  0.18327766729E+03  0.30970728745E+03  0.17200000000E+03 0.  1.
         -6    1    1    2    0  503 -0.29096137939E+02 -0.17859819520E+03 -0.23274349997E+02  0.25073810229E+03  0.17200000000E+03 0.  1.
</event>
<event>
 4    1  0.4405880E+000  0.2882837E+03  0.7818608E-02  0.1091249E+00
         21   -1    0    0  501  502  0.00000000000E+00  0.00000000000E+00  0.11109841194E+04  0.11109841194E+04  0.00000000000E+00 0.  1.
         21   -1    0    0  502  503 -0.00000000000E+00 -0.00000000000E+00 -0.11458021493E+03  0.11458021493E+03  0.00000000000E+00 0. -1.
          6    1    1    2  501    0  0.12334193140E+03  0.19573013999E+03  0.85924238107E+03  0.90631395729E+03  0.17200000000E+03 0.  1.
         -6    1    1    2    0  503 -0.12334193140E+03 -0.19573013999E+03  0.13716152339E+03  0.31925037704E+03  0.17200000000E+03 0. -1.
</event>
<event>
 4    1  0.4405880E+000  0.1912866E+03  0.7818608E-02  0.1157306E+00
         21   -1    0    0  503  502  0.00000000000E+00  0.00000000000E+00  0.28866854267E+02  0.28866854267E+02  0.00000000000E+00 0. -1.
         21   -1    0    0  501  503 -0.00000000000E+00 -0.00000000000E+00 -0.23449707894E+04  0.23449707894E+04  0.00000000000E+00 0. -1.
          6    1    1    2  501    0  0.27558676095E+02 -0.79038368111E+02 -0.19625823295E+04  0.19718823353E+04  0.17200000000E+03 0. -1.
         -6    1    1    2    0  502 -0.27558676095E+02  0.79038368111E+02 -0.35352160563E+03  0.40195530834E+03  0.17200000000E+03 0. -1.
</event>
<event>
 4    1  0.4405880E+000  0.1872475E+03  0.7818608E-02  0.1160968E+00
         21   -1    0    0  503  502  0.00000000000E+00  0.00000000000E+00  0.45943056729E+02  0.45943056729E+02  0.00000000000E+00 0.  1.
         21   -1    0    0  501  503 -0.00000000000E+00 -0.00000000000E+00 -0.76463117860E+03  0.76463117860E+03  0.00000000000E+00 0.  1.
          6    1    1    2  501    0  0.22912183110E+02 -0.70375027116E+02 -0.34152843466E+03  0.38949105799E+03  0.17200000000E+03 0.  1.
         -6    1    1    2    0  502 -0.22912183110E+02  0.70375027116E+02 -0.37715968722E+03  0.42108317734E+03  0.17200000000E+03 0.  1.
</event>
<event>
 4    1  0.4405880E+000  0.2013222E+03  0.7818608E-02  0.1148628E+00
         21   -1    0    0  501  502  0.00000000000E+00  0.00000000000E+00  0.10056876581E+03  0.10056876581E+03  0.00000000000E+00 0.  1.
         21   -1    0    0  502  503 -0.00000000000E+00 -0.00000000000E+00 -0.44397237652E+03  0.44397237652E+03  0.00000000000E+00 0.  1.
          6    1    1    2  501    0  0.75907905826E+02 -0.72004182644E+02 -0.89003897689E+02  0.22011884583E+03  0.17200000000E+03 0.  1.
         -6    1    1    2    0  503 -0.75907905826E+02  0.72004182644E+02 -0.25439971302E+03  0.32442229650E+03  0.17200000000E+03 0.  1.
</event>
<event>
 4    1  0.4405880E+000  0.2146463E+03  0.7818608E-02  0.1137939E+00
         21   -1    0    0  501  502  0.00000000000E+00  0.00000000000E+00  0.34119886765E+04  0.34119886765E+04  0.00000000000E+00 0.  1.
         21   -1    0    0  502  503 -0.00000000000E+00 -0.00000000000E+00 -0.13714340569E+02  0.13714340569E+02  0.00000000000E+00 0.  1.
          6    1    1    2  501    0  0.53403413106E+02 -0.11677799871E+03  0.14866465771E+04  0.15020622726E+04  0.17200000000E+03 0.  1.
         -6    1    1    2    0  503 -0.53403413106E+02  0.11677799871E+03  0.19116277588E+04  0.19236407444E+04  0.17200000000E+03 0.  1.
</event>
<event>
 4    1  0.4405880E+000  0.2845136E+03  0.7818608E-02  0.1093249E+00
         21   -1    0    0  501  502  0.00000000000E+00  0.00000000000E+00  0.55233951116E+03  0.55233951116E+03  0.00000000000E+00 0. -1.
         21   -1    0    0  502  503 -0.00000000000E+00 -0.00000000000E+00 -0.15929829598E+03  0.15929829598E+03  0.00000000000E+00 0. -1.
          6    1    1    2  501    0 -0.57672368498E+02  0.21917542923E+03  0.29716019492E+03  0.41140266444E+03  0.17200000000E+03 0. -1.
         -6    1    1    2    0  503  0.57672368498E+02 -0.21917542923E+03  0.95881020255E+02  0.30023514270E+03  0.17200000000E+03 0. -1.
</event>
<event>
 4    1  0.4405880E+000  0.2126519E+03  0.7818608E-02  0.1139483E+00
         21   -1    0    0  503  502  0.00000000000E+00  0.00000000000E+00  0.41621713813E+03  0.41621713813E+03  0.00000000000E+00 0.  1.
         21   -1    0    0  501  503 -0.00000000000E+00 -0.00000000000E+00 -0.29073496860E+03  0.29073496860E+03  0.00000000000E+00 0.  1.
          6    1    1    2  501    0 -0.11603445666E+03 -0.46613496499E+02 -0.21699712273E+03  0.30382324543E+03  0.17200000000E+03 0.  1.
         -6    1    1    2    0  502  0.11603445666E+03  0.46613496499E+02  0.34247929226E+03  0.40312886130E+03  0.17200000000E+03 0.  1.
</event>
<event>
 4    1  0.4405880E+000  0.2135037E+03  0.7818608E-02  0.1138821E+00
         21   -1    0    0  503  502  0.00000000000E+00  0.00000000000E+00  0.35140389483E+03  0.35140389483E+03  0.00000000000E+00 0.  1.
         21   -1    0    0  501  503 -0.00000000000E+00 -0.00000000000E+00 -0.17139744102E+03  0.17139744102E+03  0.00000000000E+00 0. -1.
          6    1    1    2  501    0  0.12349983382E+03 -0.27342761647E+02 -0.38898627679E+02  0.21701829140E+03  0.17200000000E+03 0. -1.
         -6    1    1    2    0  502 -0.12349983382E+03  0.27342761647E+02  0.21890508149E+03  0.30578304444E+03  0.17200000000E+03 0.  1.
</event>
<event>
 4    1  0.4405880E+000  0.1995596E+03  0.7818608E-02  0.1150111E+00
         21   -1    0    0  503  502  0.00000000000E+00  0.00000000000E+00  0.45997000451E+03  0.45997000451E+03  0.00000000000E+00 0. -1.
         21   -1    0    0  501  503 -0.00000000000E+00 -0.00000000000E+00 -0.90947034186E+02  0.90947034186E+02  0.00000000000E+00 0. -1.
          6    1    1    2  501    0 -0.97703121154E+02 -0.26346621786E+02  0.24487470277E+03  0.31589185558E+03  0.17200000000E+03 0. -1.
         -6    1    1    2    0  502  0.97703121154E+02  0.26346621786E+02  0.12414826755E+03  0.23502518312E+03  0.17200000000E+03 0. -1.
</event>
<event>
 4    1  0.4405880E+000  0.1789314E+03  0.7818608E-02  0.1168841E+00
         21   -1    0    0  501  502  0.00000000000E+00  0.00000000000E+00  0.12863949025E+03  0.12863949025E+03  0.00000000000E+00 0. -1.
         21   -1    0    0  502  503 -0.00000000000E+00 -0.00000000000E+00 -0.25686227805E+03  0.25686227805E+03  0.00000000000E+00 0. -1.
          6    1    1    2  501    0 -0.37967020585E+02  0.31479299148E+02 -0.30143135282E+02  0.18145260960E+03  0.17200000000E+03 0. -1.
         -6    1    1    2    0  503  0.37967020585E+02 -0.31479299148E+02 -0.98079652517E+02  0.20404915870E+03  0.17200000000E+03 0. -1.
</event>
<event>
 4    1  0.4405880E+000  0.1853694E+03  0.7818608E-02  0.1162705E+00
         21   -1    0    0  503  502  0.00000000000E+00  0.00000000000E+00  0.13095764027E+04  0.13095764027E+04  0.00000000000E+00 0.  1.
         21   -1    0    0  501  503 -0.00000000000E+00 -0.00000000000E+00 -0.34607889550E+02  0.34607889550E+02  0.00000000000E+00 0.  1.
          6    1    1    2  501    0 -0.69089797207E+02 -0.20978172772E+01  0.30697879986E+03  0.35860533247E+03  0.17200000000E+03 0.  1.
         -6    1    1    2    0  502  0.69089797207E+02  0.20978172772E+01  0.96798971327E+03  0.98557895975E+03  0.17200000000E+03 0.  1.
</event>
<event>
 4    1  0.4405880E+000  0.2989021E+03  0.7818608E-02  0.1085791E+00
         21   -1    0    0  501  502  0.00000000000E+00  0.00000000000E+00  0.16036173284E+03  0.16036173284E+03  0.00000000000E+00 0.  1.
         21   -1    0    0  502  503 -0.00000000000E+00 -0.00000000000E+00 -0.78849879735E+03  0.78849879735E+03  0.00000000000E+00 0.  1.
          6    1    1    2  501    0  0.24204426913E+03  0.34249512200E+02 -0.57074208695E+02  0.30430235392E+03  0.17200000000E+03 0.  1.
         -6    1    1    2    0  503 -0.24204426913E+03 -0.34249512200E+02 -0.57106285581E+03  0.64455817627E+03  0.17200000000E+03 0.  1.
</event>
<event>
 4    1  0.4405880E+000  0.1893818E+03  0.7818608E-02  0.1159020E+00
         21   -1    0    0  501  502  0.00000000000E+00  0.00000000000E+00  0.16321119432E+03  0.16321119432E+03  0.00000000000E+00 0.  1.
         21   -1    0    0  502  503 -0.00000000000E+00 -0.00000000000E+00 -0.10386969022E+04  0.10386969022E+04  0.00000000000E+00 0.  1.
          6    1    1    2  501    0 -0.63662800418E+02  0.47207128777E+02  0.95868467876E+02  0.21226452435E+03  0.17200000000E+03 0.  1.
         -6    1    1    2    0  503  0.63662800418E+02 -0.47207128777E+02 -0.97135417579E+03  0.98964357220E+03  0.17200000000E+03 0.  1.
</event>
<event>
 4    1  0.4405880E+000  0.1783719E+03  0.7818608E-02  0.1169388E+00
         21   -1    0    0  501  502  0.00000000000E+00  0.00000000000E+00  0.17118509514E+03  0.17118509514E+03  0.00000000000E+00 0. -1.
         21   -1    0    0  502  503 -0.00000000000E+00 -0.00000000000E+00 -0.18687109254E+03  0.18687109254E+03  0.00000000000E+00 0. -1.
          6    1    1    2  501    0  0.42673180677E+02  0.20286306147E+02  0.53230133069E+01  0.17845130719E+03  0.17200000000E+03 0. -1.
         -6    1    1    2    0  503 -0.42673180677E+02 -0.20286306147E+02 -0.21009010708E+02  0.17960488049E+03  0.17200000000E+03 0. -1.
</event>
<event>
 4    1  0.4405880E+000  0.2031756E+03  0.7818608E-02  0.1147087E+00
         21   -1    0    0  503  502  0.00000000000E+00  0.00000000000E+00  0.99071275333E+03  0.99071275333E+03  0.00000000000E+00 0.  1.
         21   -1    0    0  501  503 -0.00000000000E+00 -0.00000000000E+00 -0.42489013757E+02  0.42489013757E+02  0.00000000000E+00 0. -1.
          6    1    1    2  501    0 -0.84950276375E+02  0.66930979902E+02  0.54595453374E+03  0.58253468432E+03  0.17200000000E+03 0.  1.
         -6    1    1    2    0  502  0.84950276375E+02 -0.66930979902E+02  0.40226920584E+03  0.45066708277E+03  0.17200000000E+03 0. -1.
</event>
<event>
 4    1  0.4405880E+000  0.1817837E+03  0.7818608E-02  0.1166088E+00
         21   -1    0    0  503  502  0.00000000000E+00  0.00000000000E+00  0.33223438344E+03  0.33223438344E+03  0.00000000000E+00 0.  1.
         21   -1    0    0  501  503 -0.00000000000E+00 -0.00000000000E+00 -0.11279257480E+03  0.11279257480E+03  0.00000000000E+00 0.  1.
          6    1    1    2  501    0  0.56049886320E+01 -0.58565346508E+02  0.33229940625E+02  0.18479595413E+03  0.17200000000E+03 0.  1.
         -6    1    1    2    0  502 -0.56049886320E+01  0.58565346508E+02  0.18621186802E+03  0.26023100411E+03  0.17200000000E+03 0.  1.
</event>
<event>
 4    1  0.4405880E+000  0.2285643E+03  0.7818608E-02  0.1127654E+00
         21   -1    0    0  503  502  0.00000000000E+00  0.00000000000E+00  0.77255289121E+02  0.77255289121E+02  0.00000000000E+00 0.  1.
         21   -1    0    0  501  503 -0.00000000000E+00 -0.00000000000E+00 -0.68414163812E+03  0.68414163812E+03  0.00000000000E+00 0.  1.
          6    1    1    2  501    0 -0.13030601747E+03 -0.75352227556E+02 -0.34440692605E+03  0.41334942494E+03  0.17200000000E+03 0.  1.
         -6    1    1    2    0  502  0.13030601747E+03  0.75352227556E+02 -0.26247942295E+03  0.34804750230E+03  0.17200000000E+03 0.  1.
</event>
<event>
 4    1  0.4405880E+000  0.2170032E+03  0.7818608E-02  0.1136137E+00
         21   -1    0    0  503  502  0.00000000000E+00  0.00000000000E+00  0.66942751795E+03  0.66942751795E+03  0.00000000000E+00 0.  1.
         21   -1    0    0  501  503 -0.00000000000E+00 -0.00000000000E+00 -0.73130140055E+03  0.73130140055E+03  0.00000000000E+00 0.  1.
          6    1    1    2  501    0  0.10963108005E+03  0.74077081986E+02 -0.69676569149E+03  0.72977586739E+03  0.17200000000E+03 0.  1.
         -6    1    1    2    0  502 -0.10963108005E+03 -0.74077081986E+02  0.63489180889E+03  0.67095305110E+03  0.17200000000E+03 0.  1.
</event>
<event>
 4    1  0.4405880E+000  0.1773639E+03  0.7818608E-02  0.1170379E+00
         21   -1    0    0  503  502  0.00000000000E+00  0.00000000000E+00  0.99768872095E+02  0.99768872095E+02  0.00000000000E+00 0. -1.
         21   -1    0    0  501  503 -0.00000000000E+00 -0.00000000000E+00 -0.58827154570E+03  0.58827154570E+03  0.00000000000E+00 0. -1.
          6    1    1    2  501    0 -0.27139008572E+02  0.33725664472E+02 -0.47859174302E+03  0.51039984592E+03  0.17200000000E+03 0. -1.
         -6    1    1    2    0  502  0.27139008572E+02 -0.33725664472E+02 -0.99109305843E+01  0.17764057187E+03  0.17200000000E+03 0. -1.
</event>
<event>
 4    1  0.4405880E+000  0.2083977E+03  0.7818608E-02  0.1142841E+00
         21   -1    0    0  501  502  0.00000000000E+00  0.00000000000E+00  0.67038349095E+03  0.67038349095E+03  0.00000000000E+00 0. -1.
         21   -1    0    0  502  503 -0.00000000000E+00 -0.00000000000E+00 -0.70845307964E+02  0.70845307964E+02  0.00000000000E+00 0. -1.
          6    1    1    2  501    0 -0.12646088211E+02  0.11698582559E+03  0.40818114031E+03  0.45830279318E+03  0.17200000000E+03 0. -1.
         -6    1    1    2    0  503  0.12646088211E+02 -0.11698582559E+03  0.19135704268E+03  0.28292600573E+03  0.17200000000E+03 0. -1.
</event>
<event>
 4    1  0.4405880E+000  0.1752478E+03  0.7818608E-02  0.1172483E+00
         21   -1    0    0  501  502  0.00000000000E+00  0.00000000000E+00  0.35759509601E+02  0.35759509601E+02  0.00000000000E+00 0.  1.
         21   -1    0    0  502  503 -0.00000000000E+00 -0.00000000000E+00 -0.89016304875E+03  0.89016304875E+03  0.00000000000E+00 0.  1.
          6    1    1    2  501    0  0.20548410569E+02  0.26562058919E+02 -0.34036056791E+03  0.38282776328E+03  0.17200000000E+03 0. -1.
         -6    1    1    2    0  503 -0.20548410569E+02 -0.26562058919E+02 -0.51404297124E+03  0.54309479507E+03  0.17200000000E+03 0. -1.
</event>
<event>
 4    1  0.4405880E+000  0.1829942E+03  0.7818608E-02  0.1164936E+00
         21   -1    0    0  503  502  0.00000000000E+00  0.00000000000E+00  0.51558218547E+03  0.51558218547E+03  0.00000000000E+00 0. -1.
         21   -1    0    0  501  503 -0.00000000000E+00 -0.00000000000E+00 -0.18074244848E+03  0.18074244848E+03  0.00000000000E+00 0. -1.
          6    1    1    2  501    0 -0.22256396402E+02  0.58374120408E+02 -0.11125156314E+03  0.21415834192E+03  0.17200000000E+03 0. -1.
         -6    1    1    2    0  502  0.22256396402E+02 -0.58374120408E+02  0.44609130013E+03  0.48216629203E+03  0.17200000000E+03 0. -1.
</event>
<event>
 4    1  0.4405880E+000  0.1746821E+03  0.7818608E-02  0.1173051E+00
         21   -1    0    0  501  502  0.00000000000E+00  0.00000000000E+00  0.81800729125E+03  0.81800729125E+03  0.00000000000E+00 0. -1.
         21   -1    0    0  502  503 -0.00000000000E+00 -0.00000000000E+00 -0.50751627165E+02  0.50751627165E+02  0.00000000000E+00 0. -1.
          6    1    1    2  501    0  0.18724524714E+02 -0.24066838110E+02  0.16001882085E+03  0.23689627170E+03  0.17200000000E+03 0. -1.
         -6    1    1    2    0  503 -0.18724524714E+02  0.24066838110E+02  0.60723684324E+03  0.63186264671E+03  0.17200000000E+03 0. -1.
</event>
<event>
 4    1  0.4405880E+000  0.1751083E+03  0.7818608E-02  0.1172623E+00
         21   -1    0    0  503  502  0.00000000000E+00  0.00000000000E+00  0.20378394379E+03  0.20378394379E+03  0.00000000000E+00 0.  1.
         21   -1    0    0  501  503 -0.00000000000E+00 -0.00000000000E+00 -0.27310779658E+03  0.27310779658E+03  0.00000000000E+00 0.  1.
          6    1    1    2  501    0  0.83785726569E+01  0.31760167466E+02 -0.19444800309E+03  0.26167333571E+03  0.17200000000E+03 0.  1.
         -6    1    1    2    0  502 -0.83785726569E+01 -0.31760167466E+02  0.12512415030E+03  0.21521840466E+03  0.17200000000E+03 0.  1.
</event>
<event>
 4    1  0.4405880E+000  0.1776450E+03  0.7818608E-02  0.1170102E+00
         21   -1    0    0  501  502  0.00000000000E+00  0.00000000000E+00  0.25065337963E+02  0.25065337963E+02  0.00000000000E+00 0. -1.
         21   -1    0    0  502  503 -0.00000000000E+00 -0.00000000000E+00 -0.14043150128E+04  0.14043150128E+04  0.00000000000E+00 0. -1.
          6    1    1    2  501    0  0.43011264837E+02 -0.11125063164E+02 -0.45973888228E+03  0.49286669172E+03  0.17200000000E+03 0. -1.
         -6    1    1    2    0  503 -0.43011264837E+02  0.11125063164E+02 -0.91951079253E+03  0.93651365901E+03  0.17200000000E+03 0. -1.
</event>
<event>
 4    1  0.4405880E+000  0.2601970E+03  0.7818608E-02  0.1107025E+00
         21   -1    0    0  503  502  0.00000000000E+00  0.00000000000E+00  0.12641972320E+04  0.12641972320E+04  0.00000000000E+00 0.  1.
         21   -1    0    0  501  503 -0.00000000000E+00 -0.00000000000E+00 -0.68266517073E+02  0.68266517073E+02  0.00000000000E+00 0. -1.
          6    1    1    2  501    0 -0.19486996268E+03  0.12007192613E+02  0.28867310994E+03  0.38863175299E+03  0.17200000000E+03 0. -1.
         -6    1    1    2    0  502  0.19486996268E+03 -0.12007192613E+02  0.90725760497E+03  0.94383199607E+03  0.17200000000E+03 0.  1.
</event>
<event>
 4    1  0.4405880E+000  0.2117892E+03  0.7818608E-02  0.1140157E+00
         21   -1    0    0  503  502  0.00000000000E+00  0.00000000000E+00  0.61860326900E+03  0.61860326900E+03  0.00000000000E+00 0. -1.
         21   -1    0    0  501  503 -0.00000000000E+00 -0.00000000000E+00 -0.72917429807E+02  0.72917429807E+02  0.00000000000E+00 0. -1.
          6    1    1    2  501    0 -0.11502296528E+03 -0.45170567003E+02  0.24698401511E+03  0.32535483150E+03  0.17200000000E+03 0. -1.
         -6    1    1    2    0  502  0.11502296528E+03  0.45170567003E+02  0.29870182409E+03  0.36616586731E+03  0.17200000000E+03 0. -1.
</event>
<event>
 4    1  0.4405880E+000  0.2742127E+03  0.7818608E-02  0.1098893E+00
         21   -1    0    0  501  502  0.00000000000E+00  0.00000000000E+00  0.34474293704E+02  0.34474293704E+02  0.00000000000E+00 0. -1.
         21   -1    0    0  502  503 -0.00000000000E+00 -0.00000000000E+00 -0.22967012706E+04  0.22967012706E+04  0.00000000000E+00 0.  1.
          6    1    1    2  501    0 -0.20155538648E+03  0.70597549466E+02 -0.86963523608E+03  0.91184320562E+03  0.17200000000E+03 0.  1.
         -6    1    1    2    0  503  0.20155538648E+03 -0.70597549466E+02 -0.13925917408E+04  0.14193323586E+04  0.17200000000E+03 0. -1.
</event>
<event>
 4    1  0.4405880E+000  0.1786075E+03  0.7818608E-02  0.1169158E+00
         21   -1    0    0  501  502  0.00000000000E+00  0.00000000000E+00  0.42947449259E+03  0.42947449259E+03  0.00000000000E+00 0. -1.
         21   -1    0    0  502  503 -0.00000000000E+00 -0.00000000000E+00 -0.18263690712E+03  0.18263690712E+03  0.00000000000E+00 0. -1.
          6    1    1    2  501    0 -0.47140136555E+02  0.97174726955E+01  0.35916133883E+03  0.40112029250E+03  0.17200000000E+03 0. -1.
         -6    1    1    2    0  503  0.47140136555E+02 -0.97174726955E+01 -0.11232375336E+03  0.21099110720E+03  0.17200000000E+03 0. -1.
</event>
<event>
 4    1  0.4405880E+000  0.2171859E+03  0.7818608E-02  0.1135999E+00
         21   -1    0    0  501  502  0.00000000000E+00  0.00000000000E+00  0.55302140185E+03  0.55302140185E+03  0.00000000000E+00 0.  1.
         21   -1    0    0  502  503 -0.00000000000E+00 -0.00000000000E+00 -0.87647467591E+02  0.87647467591E+02  0.00000000000E+00 0.  1.
          6    1    1    2  501    0 -0.12146870215E+03 -0.53207825512E+02  0.28517208568E+03  0.35845897499E+03  0.17200000000E+03 0.  1.
         -6    1    1    2    0  503  0.12146870215E+03  0.53207825512E+02  0.18020184858E+03  0.28220989446E+03  0.17200000000E+03 0.  1.
</event>
<event>
 4    1  0.4405880E+000  0.2104767E+03  0.7818608E-02  0.1141189E+00
         21   -1    0    0  501  502  0.00000000000E+00  0.00000000000E+00  0.98215142106E+03  0.98215142106E+03  0.00000000000E+00 0.  1.
         21   -1    0    0  502  503 -0.00000000000E+00 -0.00000000000E+00 -0.54971380774E+02  0.54971380774E+02  0.00000000000E+00 0.  1.
          6    1    1    2  501    0  0.12000076824E+03 -0.17783150352E+02  0.68327478134E+03  0.71495793697E+03  0.17200000000E+03 0.  1.
         -6    1    1    2    0  503 -0.12000076824E+03  0.17783150352E+02  0.24390525894E+03  0.32216486486E+03  0.17200000000E+03 0.  1.
</event>
<event>
 4    1  0.4405880E+000  0.1740014E+03  0.7818608E-02  0.1173738E+00
         21   -1    0    0  501  502  0.00000000000E+00  0.00000000000E+00  0.97245418953E+02  0.97245418953E+02  0.00000000000E+00 0. -1.
         21   -1    0    0  502  503 -0.00000000000E+00 -0.00000000000E+00 -0.31795138406E+03  0.31795138406E+03  0.00000000000E+00 0. -1.
          6    1    1    2  501    0  0.26309457650E+02  0.55549707030E+00 -0.80419754076E+02  0.19168680963E+03  0.17200000000E+03 0. -1.
         -6    1    1    2    0  503 -0.26309457650E+02 -0.55549707030E+00 -0.14028621103E+03  0.22350999339E+03  0.17200000000E+03 0. -1.
</event>
<event>
 4    1  0.4405880E+000  0.1954053E+03  0.7818608E-02  0.1153674E+00
         21   -1    0    0  501  502  0.00000000000E+00  0.00000000000E+00  0.27614166571E+03  0.27614166571E+03  0.00000000000E+00 0.  1.
         21   -1    0    0  502  503 -0.00000000000E+00 -0.00000000000E+00 -0.14526206061E+03  0.14526206061E+03  0.00000000000E+00 0. -1.
          6    1    1    2  501    0 -0.92694120704E+02 -0.26518729281E+01  0.11165325174E+03  0.22505484013E+03  0.17200000000E+03 0.  1.
         -6    1    1    2    0  503  0.92694120704E+02  0.26518729281E+01  0.19226353359E+02  0.19634888619E+03  0.17200000000E+03 0. -1.
</event>
<event>
 4    1  0.4405880E+000  0.1870336E+03  0.7818608E-02  0.1161164E+00
         21   -1    0    0  501  502  0.00000000000E+00  0.00000000000E+00  0.24370517617E+03  0.24370517617E+03  0.00000000000E+00 0.  1.
         21   -1    0    0  502  503 -0.00000000000E+00 -0.00000000000E+00 -0.22402036073E+03  0.22402036073E+03  0.00000000000E+00 0.  1.
          6    1    1    2  501    0  0.73357050438E+02 -0.40389004076E+01 -0.13032946448E+03  0.22796345952E+03  0.17200000000E+03 0.  1.
         -6    1    1    2    0  503 -0.73357050438E+02  0.40389004076E+01  0.15001427992E+03  0.23976207737E+03  0.17200000000E+03 0.  1.
</event>
<event>
 4    1  0.4405880E+000  0.3193457E+03  0.7818608E-02  0.1075951E+00
         21   -1    0    0  503  502  0.00000000000E+00  0.00000000000E+00  0.26502633262E+03  0.26502633262E+03  0.00000000000E+00 0.  1.
         21   -1    0    0  501  503 -0.00000000000E+00 -0.00000000000E+00 -0.90048154780E+03  0.90048154780E+03  0.00000000000E+00 0. -1.
          6    1    1    2  501    0 -0.14515787388E+03 -0.22655428306E+03 -0.75872840036E+03  0.82319526057E+03  0.17200000000E+03 0. -1.
         -6    1    1    2    0  502  0.14515787388E+03  0.22655428306E+03  0.12327318517E+03  0.34231261985E+03  0.17200000000E+03 0.  1.
</event>
<event>
 4    1  0.4405880E+000  0.1852581E+03  0.7818608E-02  0.1162809E+00
         21   -1    0    0  503  502  0.00000000000E+00  0.00000000000E+00  0.17977329213E+03  0.17977329213E+03  0.00000000000E+00 0.  1.
         21   -1    0    0  501  503 -0.00000000000E+00 -0.00000000000E+00 -0.22195455003E+03  0.22195455003E+03  0.00000000000E+00 0.  1.
          6    1    1    2  501    0 -0.31005763943E+02 -0.61442841793E+02 -0.96211431879E+02  0.20875157444E+03  0.17200000000E+03 0.  1.
         -6    1    1    2    0  502  0.31005763943E+02  0.61442841793E+02  0.54030173985E+02  0.19297626773E+03  0.17200000000E+03 0.  1.
</event>
<event>
 4    1  0.4405880E+000  0.2862326E+03  0.7818608E-02  0.1092333E+00
         21   -1    0    0  501  502  0.00000000000E+00  0.00000000000E+00  0.31130888614E+03  0.31130888614E+03  0.00000000000E+00 0. -1.
         21   -1    0    0  502  503 -0.00000000000E+00 -0.00000000000E+00 -0.62513987424E+03  0.62513987424E+03  0.00000000000E+00 0.  1.
          6    1    1    2  501    0  0.11278568686E+03 -0.19905904343E+03  0.19936977810E+03  0.34882290973E+03  0.17200000000E+03 0. -1.
         -6    1    1    2    0  503 -0.11278568686E+03  0.19905904343E+03 -0.51320076620E+03  0.58762585066E+03  0.17200000000E+03 0.  1.
</event>
<event>
 4    1  0.4405880E+000  0.2158024E+03  0.7818608E-02  0.1137052E+00
         21   -1    0    0  503  502  0.00000000000E+00  0.00000000000E+00  0.41100235912E+03  0.41100235912E+03  0.00000000000E+00 0.  1.
         21   -1    0    0  501  503 -0.00000000000E+00 -0.00000000000E+00 -0.15224980519E+03  0.15224980519E+03  0.00000000000E+00 0.  1.
          6    1    1    2  501    0  0.14633393056E+02  0.12950886339E+03 -0.13050394815E+02  0.21619665746E+03  0.17200000000E+03 0.  1.
         -6    1    1    2    0  502 -0.14633393056E+02 -0.12950886339E+03  0.27180294875E+03  0.34705550686E+03  0.17200000000E+03 0.  1.
</event>
<event>
 4    1  0.4405880E+000  0.2641309E+03  0.7818608E-02  0.1104686E+00
         21   -1    0    0  503  502  0.00000000000E+00  0.00000000000E+00  0.48731822856E+02  0.48731822856E+02  0.00000000000E+00 0.  1.
         21   -1    0    0  501  503 -0.00000000000E+00 -0.00000000000E+00 -0.14342528185E+04  0.14342528185E+04  0.00000000000E+00 0. -1.
          6    1    1    2  501    0  0.16678415788E+03  0.11119433339E+03 -0.72456878970E+03  0.77121013096E+03  0.17200000000E+03 0.  1.
         -6    1    1    2    0  502 -0.16678415788E+03 -0.11119433339E+03 -0.66095220591E+03  0.71177451036E+03  0.17200000000E+03 0. -1.
</event>
<event>
 4    1  0.4405880E+000  0.1733859E+03  0.7818608E-02  0.1174362E+00
         21   -1    0    0  503  502  0.00000000000E+00  0.00000000000E+00  0.41886423101E+02  0.41886423101E+02  0.00000000000E+00 0. -1.
         21   -1    0    0  501  503 -0.00000000000E+00 -0.00000000000E+00 -0.87216863981E+03  0.87216863981E+03  0.00000000000E+00 0. -1.
          6    1    1    2  501    0 -0.35831684221E+01  0.21582984532E+02 -0.60746629513E+03  0.63172617806E+03  0.17200000000E+03 0. -1.
         -6    1    1    2    0  502  0.35831684221E+01 -0.21582984532E+02 -0.22281592158E+03  0.28232888486E+03  0.17200000000E+03 0. -1.
</event>
<event>
 4    1  0.4405880E+000  0.2102475E+03  0.7818608E-02  0.1141370E+00
         21   -1    0    0  503  502  0.00000000000E+00  0.00000000000E+00  0.63648086244E+03  0.63648086244E+03  0.00000000000E+00 0. -1.
         21   -1    0    0  501  503 -0.00000000000E+00 -0.00000000000E+00 -0.15514302052E+03  0.15514302052E+03  0.00000000000E+00 0.  1.
          6    1    1    2  501    0  0.68112045975E+02  0.99903700661E+02 -0.53498035467E+02  0.21694709035E+03  0.17200000000E+03 0. -1.
         -6    1    1    2    0  502 -0.68112045975E+02 -0.99903700661E+02  0.53483587739E+03  0.57467679260E+03  0.17200000000E+03 0. -1.
</event>
<event>
 4    1  0.4405880E+000  0.2188004E+03  0.7818608E-02  0.1134781E+00
         21   -1    0    0  503  502  0.00000000000E+00  0.00000000000E+00  0.11247018545E+03  0.11247018545E+03  0.00000000000E+00 0.  1.
         21   -1    0    0  501  503 -0.00000000000E+00 -0.00000000000E+00 -0.51590880504E+03  0.51590880504E+03  0.00000000000E+00 0. -1.
          6    1    1    2  501    0 -0.39803533972E+02  0.12924893400E+03 -0.33313147357E+03  0.39856014218E+03  0.17200000000E+03 0. -1.
         -6    1    1    2    0  502  0.39803533972E+02 -0.12924893400E+03 -0.70307146024E+02  0.22981884831E+03  0.17200000000E+03 0.  1.
</event>
<event>
 4    1  0.4405880E+000  0.2230312E+03  0.7818608E-02  0.1131643E+00
         21   -1    0    0  501  502  0.00000000000E+00  0.00000000000E+00  0.10243847977E+03  0.10243847977E+03  0.00000000000E+00 0. -1.
         21   -1    0    0  502  503 -0.00000000000E+00 -0.00000000000E+00 -0.11233980897E+04  0.11233980897E+04  0.00000000000E+00 0. -1.
          6    1    1    2  501    0 -0.85701041765E+02  0.11319998023E+03 -0.48650588017E+02  0.22827567500E+03  0.17200000000E+03 0. -1.
         -6    1    1    2    0  503  0.85701041765E+02 -0.11319998023E+03 -0.97230902195E+03  0.99756089451E+03  0.17200000000E+03 0. -1.
</event>
<event>
 4    1  0.4405880E+000  0.2329396E+03  0.7818608E-02  0.1124588E+00
         21   -1    0    0  503  502  0.00000000000E+00  0.00000000000E+00  0.18405825294E+03  0.18405825294E+03  0.00000000000E+00 0.  1.
         21   -1    0    0  501  503 -0.00000000000E+00 -0.00000000000E+00 -0.33241403986E+03  0.33241403986E+03  0.00000000000E+00 0.  1.
          6    1    1    2  501    0  0.15685086360E+03  0.86418140374E+01 -0.16104125183E+03  0.28318749823E+03  0.17200000000E+03 0.  1.
         -6    1    1    2    0  502 -0.15685086360E+03 -0.86418140374E+01  0.12685464909E+02  0.23328479458E+03  0.17200000000E+03 0.  1.
</event>
<event>
 4    1  0.4405880E+000  0.1734704E+03  0.7818608E-02  0.1174276E+00
         21   -1    0    0  501  502  0.00000000000E+00  0.00000000000E+00  0.13954517405E+03  0.13954517405E+03  0.00000000000E+00 0. -1.
         21   -1    0    0  502  503 -0.00000000000E+00 -0.00000000000E+00 -0.32675724590E+03  0.32675724590E+03  0.00000000000E+00 0. -1.
          6    1    1    2  501    0  0.99720434274E+01 -0.20212096503E+02  0.42353446998E+02  0.17856591211E+03  0.17200000000E+03 0.  1.
         -6    1    1    2    0  503 -0.99720434274E+01  0.20212096503E+02 -0.22956551885E+03  0.28773650783E+03  0.17200000000E+03 0.  1.
</event>
<event>
 4    1  0.4405880E+000  0.1923436E+03  0.7818608E-02  0.1156364E+00
         21   -1    0    0  503  502  0.00000000000E+00  0.00000000000E+00  0.52470630463E+02  0.52470630463E+02  0.00000000000E+00 0. -1.
         21   -1    0    0  501  503 -0.00000000000E+00 -0.00000000000E+00 -0.89624052085E+03  0.89624052085E+03  0.00000000000E+00 0.  1.
          6    1    1    2  501    0 -0.25941614573E+02  0.82092036061E+02 -0.64095809076E+03  0.66919604292E+03  0.17200000000E+03 0.  1.
         -6    1    1    2    0  502  0.25941614573E+02 -0.82092036061E+02 -0.20281179963E+03  0.27951510839E+03  0.17200000000E+03 0. -1.
</event>
<event>
 4    1  0.4405880E+000  0.1949570E+03  0.7818608E-02  0.1154065E+00
         21   -1    0    0  503  502  0.00000000000E+00  0.00000000000E+00  0.18460620137E+04  0.18460620137E+04  0.00000000000E+00 0. -1.
         21   -1    0    0  501  503 -0.00000000000E+00 -0.00000000000E+00 -0.51040609677E+02  0.51040609677E+02  0.00000000000E+00 0. -1.
          6    1    1    2  501    0 -0.62106823953E+02  0.67579417008E+02  0.16483915560E+03  0.25530409789E+03  0.17200000000E+03 0. -1.
         -6    1    1    2    0  502  0.62106823953E+02 -0.67579417008E+02  0.16301822484E+04  0.16417985255E+04  0.17200000000E+03 0. -1.
</event>
<event>
 4    1  0.4405880E+000  0.2849300E+03  0.7818608E-02  0.1093026E+00
         21   -1    0    0  501  502  0.00000000000E+00  0.00000000000E+00  0.19591018810E+03  0.19591018810E+03  0.00000000000E+00 0. -1.
         21   -1    0    0  502  503 -0.00000000000E+00 -0.00000000000E+00 -0.55738247667E+03  0.55738247667E+03  0.00000000000E+00 0.  1.
          6    1    1    2  501    0 -0.19751617796E+03  0.11219845138E+03  0.10028933557E+02  0.28510649336E+03  0.17200000000E+03 0. -1.
         -6    1    1    2    0  503  0.19751617796E+03 -0.11219845138E+03 -0.37150122213E+03  0.46818617140E+03  0.17200000000E+03 0.  1.
</event>
<event>
 4    1  0.4405880E+000  0.2131694E+03  0.7818608E-02  0.1139080E+00
         21   -1    0    0  501  502  0.00000000000E+00  0.00000000000E+00  0.11799576967E+04  0.11799576967E+04  0.00000000000E+00 0. -1.
         21   -1    0    0  502  503 -0.00000000000E+00 -0.00000000000E+00 -0.39379564063E+02  0.39379564063E+02  0.00000000000E+00 0. -1.
          6    1    1    2  501    0 -0.76546642873E+02  0.99989000750E+02  0.66084015130E+03  0.69437086228E+03  0.17200000000E+03 0. -1.
         -6    1    1    2    0  503  0.76546642873E+02 -0.99989000750E+02  0.47973798135E+03  0.52496639850E+03  0.17200000000E+03 0. -1.
</event>
<event>
 4    1  0.4405880E+000  0.1827804E+03  0.7818608E-02  0.1165139E+00
         21   -1    0    0  503  502  0.00000000000E+00  0.00000000000E+00  0.90848467687E+03  0.90848467687E+03  0.00000000000E+00 0.  1.
         21   -1    0    0  501  503 -0.00000000000E+00 -0.00000000000E+00 -0.79034675297E+03  0.79034675297E+03  0.00000000000E+00 0.  1.
          6    1    1    2  501    0  0.42716104656E+02 -0.44721499697E+02 -0.77035013128E+03  0.79173733201E+03  0.17200000000E+03 0.  1.
         -6    1    1    2    0  502 -0.42716104656E+02  0.44721499697E+02  0.88848805518E+03  0.90709409784E+03  0.17200000000E+03 0.  1.
</event>
<event>
 4    1  0.4405880E+000  0.1824699E+03  0.7818608E-02  0.1165434E+00
         21   -1    0    0  501  502  0.00000000000E+00  0.00000000000E+00  0.45182001347E+02  0.45182001347E+02  0.00000000000E+00 0. -1.
         21   -1    0    0  502  503 -0.00000000000E+00 -0.00000000000E+00 -0.75373641665E+03  0.75373641665E+03  0.00000000000E+00 0. -1.
          6    1    1    2  501    0  0.54597893892E+02 -0.27024549694E+02 -0.29460049500E+03  0.34653240535E+03  0.17200000000E+03 0. -1.
         -6    1    1    2    0  503 -0.54597893892E+02  0.27024549694E+02 -0.41395392030E+03  0.45238601264E+03  0.17200000000E+03 0. -1.
</event>
<event>
 4    1  0.4405880E+000  0.2839138E+03  0.7818608E-02  0.1093570E+00
         21   -1    0    0  503  502  0.00000000000E+00  0.00000000000E+00  0.28357526821E+03  0.28357526821E+03  0.00000000000E+00 0. -1.
         21   -1    0    0  501  503 -0.00000000000E+00 -0.00000000000E+00 -0.28847730272E+03  0.28847730272E+03  0.00000000000E+00 0. -1.
          6    1    1    2  501    0  0.11442758499E+03 -0.19475459039E+03  0.32162474079E+02  0.28572967543E+03  0.17200000000E+03 0. -1.
         -6    1    1    2    0  502 -0.11442758499E+03  0.19475459039E+03 -0.37064508590E+02  0.28632289549E+03  0.17200000000E+03 0. -1.
</event>
<event>
 4    1  0.4405880E+000  0.1827399E+03  0.7818608E-02  0.1165177E+00
         21   -1    0    0  503  502  0.00000000000E+00  0.00000000000E+00  0.37251592899E+03  0.37251592899E+03  0.00000000000E+00 0.  1.
         21   -1    0    0  501  503 -0.00000000000E+00 -0.00000000000E+00 -0.94440529267E+02  0.94440529267E+02  0.00000000000E+00 0. -1.
          6    1    1    2  501    0  0.46621256779E+00  0.61722413439E+02  0.86420957033E+02  0.20214464002E+03  0.17200000000E+03 0. -1.
         -6    1    1    2    0  502 -0.46621256779E+00 -0.61722413439E+02  0.19165444269E+03  0.26481181824E+03  0.17200000000E+03 0.  1.
</event>
<event>
 4    1  0.4405880E+000  0.2578885E+03  0.7818608E-02  0.1108419E+00
         21   -1    0    0  501  502  0.00000000000E+00  0.00000000000E+00  0.20191438838E+03  0.20191438838E+03  0.00000000000E+00 0.  1.
         21   -1    0    0  502  503 -0.00000000000E+00 -0.00000000000E+00 -0.32967542724E+03  0.32967542724E+03  0.00000000000E+00 0.  1.
          6    1    1    2  501    0 -0.17022182444E+03 -0.89146140339E+02 -0.71840966564E+02  0.26770810284E+03  0.17200000000E+03 0.  1.
         -6    1    1    2    0  503  0.17022182444E+03  0.89146140339E+02 -0.55920072292E+02  0.26388171277E+03  0.17200000000E+03 0.  1.
</event>
<event>
 4    1  0.4405880E+000  0.2047368E+03  0.7818608E-02  0.1145803E+00
         21   -1    0    0  501  502  0.00000000000E+00  0.00000000000E+00  0.13351019844E+03  0.13351019844E+03  0.00000000000E+00 0.  1.
         21   -1    0    0  502  503 -0.00000000000E+00 -0.00000000000E+00 -0.34038636850E+03  0.34038636850E+03  0.00000000000E+00 0. -1.
          6    1    1    2  501    0 -0.10125053192E+03 -0.45623378689E+02 -0.37419273097E+02  0.20812824147E+03  0.17200000000E+03 0. -1.
         -6    1    1    2    0  503  0.10125053192E+03  0.45623378689E+02 -0.16945689696E+03  0.26576832547E+03  0.17200000000E+03 0.  1.
</event>
<event>
 4    1  0.4405880E+000  0.1958471E+03  0.7818608E-02  0.1153291E+00
         21   -1    0    0  501  502  0.00000000000E+00  0.00000000000E+00  0.18842021532E+03  0.18842021532E+03  0.00000000000E+00 0. -1.
         21   -1    0    0  502  503 -0.00000000000E+00 -0.00000000000E+00 -0.41016450185E+03  0.41016450185E+03  0.00000000000E+00 0. -1.
          6    1    1    2  501    0  0.77821837118E+02  0.52113691004E+02  0.10154006632E+03  0.22060476013E+03  0.17200000000E+03 0. -1.
         -6    1    1    2    0  503 -0.77821837118E+02 -0.52113691004E+02 -0.32328435286E+03  0.37797995704E+03  0.17200000000E+03 0. -1.
</event>
<event>
 4    1  0.4405880E+000  0.1887408E+03  0.7818608E-02  0.1159602E+00
         21   -1    0    0  503  502  0.00000000000E+00  0.00000000000E+00  0.28443233658E+03  0.28443233658E+03  0.00000000000E+00 0. -1.
         21   -1    0    0  501  503 -0.00000000000E+00 -0.00000000000E+00 -0.12536653203E+03  0.12536653203E+03  0.00000000000E+00 0.  1.
          6    1    1    2  501    0 -0.74997318823E+02  0.20358736700E+02  0.85972414182E+02  0.20739896815E+03  0.17200000000E+03 0. -1.
         -6    1    1    2    0  502  0.74997318823E+02 -0.20358736700E+02  0.73093390367E+02  0.20239990046E+03  0.17200000000E+03 0.  1.
</event>
<event>
 4    1  0.4405880E+000  0.2075969E+03  0.7818608E-02  0.1143483E+00
         21   -1    0    0  501  502  0.00000000000E+00  0.00000000000E+00  0.18000255119E+03  0.18000255119E+03  0.00000000000E+00 0. -1.
         21   -1    0    0  502  503 -0.00000000000E+00 -0.00000000000E+00 -0.97773989275E+03  0.97773989275E+03  0.00000000000E+00 0.  1.
          6    1    1    2  501    0 -0.11297643564E+03  0.27363939405E+02  0.10415934037E+03  0.23226198220E+03  0.17200000000E+03 0. -1.
         -6    1    1    2    0  503  0.11297643564E+03 -0.27363939405E+02 -0.90189668193E+03  0.92548046174E+03  0.17200000000E+03 0.  1.
</event>
<event>
 4    1  0.4405880E+000  0.2009509E+03  0.7818608E-02  0.1148939E+00
         21   -1    0    0  503  502  0.00000000000E+00  0.00000000000E+00  0.20094321741E+03  0.20094321741E+03  0.00000000000E+00 0.  1.
         21   -1    0    0  501  503 -0.00000000000E+00 -0.00000000000E+00 -0.21022467048E+03  0.21022467048E+03  0.00000000000E+00 0.  1.
          6    1    1    2  501    0  0.33556572236E+02  0.98342339083E+02 -0.47802187702E+02  0.20655824444E+03  0.17200000000E+03 0.  1.
         -6    1    1    2    0  502 -0.33556572236E+02 -0.98342339083E+02  0.38520734631E+02  0.20460964345E+03  0.17200000000E+03 0.  1.
</event>
<event>
 4    1  0.4405880E+000  0.2785424E+03  0.7818608E-02  0.1096488E+00
         21   -1    0    0  501  502  0.00000000000E+00  0.00000000000E+00  0.24738183898E+03  0.24738183898E+03  0.00000000000E+00 0. -1.
         21   -1    0    0  502  503 -0.00000000000E+00 -0.00000000000E+00 -0.32857936179E+03  0.32857936179E+03  0.00000000000E+00 0.  1.
          6    1    1    2  501    0  0.21536229802E+03 -0.40261339390E+02  0.20831461331E+02  0.27932032622E+03  0.17200000000E+03 0. -1.
         -6    1    1    2    0  503 -0.21536229802E+03  0.40261339390E+02 -0.10202898414E+03  0.29664087456E+03  0.17200000000E+03 0.  1.
</event>
<event>
 4    1  0.4405880E+000  0.2184234E+03  0.7818608E-02  0.1135064E+00
         21   -1    0    0  501  502  0.00000000000E+00  0.00000000000E+00  0.97566531223E+03  0.97566531223E+03  0.00000000000E+00 0. -1.
         21   -1    0    0  502  503 -0.00000000000E+00 -0.00000000000E+00 -0.64164097957E+02  0.64164097957E+02  0.00000000000E+00 0. -1.
          6    1    1    2  501    0 -0.13303026941E+03  0.20681639119E+02  0.70934512824E+03  0.74221243167E+03  0.17200000000E+03 0. -1.
         -6    1    1    2    0  503  0.13303026941E+03 -0.20681639119E+02  0.20215608603E+03  0.29761697851E+03  0.17200000000E+03 0. -1.
</event>
<event>
 4    1  0.4405880E+000  0.1753846E+03  0.7818608E-02  0.1172346E+00
         21   -1    0    0  503  502  0.00000000000E+00  0.00000000000E+00  0.17486067513E+03  0.17486067513E+03  0.00000000000E+00 0.  1.
         21   -1    0    0  501  503 -0.00000000000E+00 -0.00000000000E+00 -0.23285764279E+03  0.23285764279E+03  0.00000000000E+00 0.  1.
          6    1    1    2  501    0  0.60775582955E+01  0.33746479828E+02  0.71815880060E+02  0.18951855383E+03  0.17200000000E+03 0.  1.
         -6    1    1    2    0  502 -0.60775582955E+01 -0.33746479828E+02 -0.12981284772E+03  0.21819976409E+03  0.17200000000E+03 0.  1.
</event>
<event>
 4    1  0.4405880E+000  0.3178105E+03  0.7818608E-02  0.1076661E+00
         21   -1    0    0  501  502  0.00000000000E+00  0.00000000000E+00  0.11830880353E+04  0.11830880353E+04  0.00000000000E+00 0. -1.
         21   -1    0    0  502  503 -0.00000000000E+00 -0.00000000000E+00 -0.14848803434E+03  0.14848803434E+03  0.00000000000E+00 0. -1.
          6    1    1    2  501    0  0.26435553091E+03  0.39187435354E+02  0.95136769261E+03  0.10030473510E+04  0.17200000000E+03 0. -1.
         -6    1    1    2    0  503 -0.26435553091E+03 -0.39187435354E+02  0.83232308346E+02  0.32852871863E+03  0.17200000000E+03 0. -1.
</event>
<event>
 4    1  0.4405880E+000  0.1728067E+03  0.7818608E-02  0.1174952E+00
         21   -1    0    0  501  502  0.00000000000E+00  0.00000000000E+00  0.19657753138E+03  0.19657753138E+03  0.00000000000E+00 0.  1.
         21   -1    0    0  502  503 -0.00000000000E+00 -0.00000000000E+00 -0.22040763718E+03  0.22040763718E+03  0.00000000000E+00 0.  1.
          6    1    1    2  501    0  0.16666073293E+02 -0.63782716793E+00  0.10431379336E+03  0.20185027200E+03  0.17200000000E+03 0.  1.
         -6    1    1    2    0  503 -0.16666073293E+02  0.63782716793E+00 -0.12814389917E+03  0.21513489656E+03  0.17200000000E+03 0.  1.
</event>
<event>
 4    1  0.4405880E+000  0.1894497E+03  0.7818608E-02  0.1158959E+00
         21   -1    0    0  503  502  0.00000000000E+00  0.00000000000E+00  0.31600393213E+02  0.31600393213E+02  0.00000000000E+00 0. -1.
         21   -1    0    0  501  503 -0.00000000000E+00 -0.00000000000E+00 -0.13692721304E+04  0.13692721304E+04  0.00000000000E+00 0. -1.
          6    1    1    2  501    0  0.49216444264E+02  0.62329301843E+02 -0.95807480218E+03  0.97662609366E+03  0.17200000000E+03 0. -1.
         -6    1    1    2    0  502 -0.49216444264E+02 -0.62329301843E+02 -0.37959693497E+03  0.42424642991E+03  0.17200000000E+03 0. -1.
</event>
<event>
 4    1  0.4405880E+000  0.2169450E+03  0.7818608E-02  0.1136181E+00
         21   -1    0    0  501  502  0.00000000000E+00  0.00000000000E+00  0.25064963527E+03  0.25064963527E+03  0.00000000000E+00 0.  1.
         21   -1    0    0  502  503 -0.00000000000E+00 -0.00000000000E+00 -0.26585678685E+03  0.26585678685E+03  0.00000000000E+00 0.  1.
          6    1    1    2  501    0 -0.35812403584E+02 -0.12727377260E+03  0.13235622464E+03  0.25413246869E+03  0.17200000000E+03 0.  1.
         -6    1    1    2    0  503  0.35812403584E+02  0.12727377260E+03 -0.14756337621E+03  0.26237395343E+03  0.17200000000E+03 0.  1.
</event>
<event>
 4    1  0.4405880E+000  0.1997916E+03  0.7818608E-02  0.1149915E+00
         21   -1    0    0  501  502  0.00000000000E+00  0.00000000000E+00  0.12771479632E+03  0.12771479632E+03  0.00000000000E+00 0.  1.
         21   -1    0    0  502  503 -0.00000000000E+00 -0.00000000000E+00 -0.62596778623E+03  0.62596778623E+03  0.00000000000E+00 0.  1.
          6    1    1    2  501    0  0.44429092861E+02 -0.91426105947E+02  0.17527116717E+02  0.20055891145E+03  0.17200000000E+03 0.  1.
         -6    1    1    2    0  503 -0.44429092861E+02  0.91426105947E+02 -0.51578010662E+03  0.55312367110E+03  0.17200000000E+03 0.  1.
</event>
<event>
 4    1  0.4405880E+000  0.1854594E+03  0.7818608E-02  0.1162622E+00
         21   -1    0    0  501  502  0.00000000000E+00  0.00000000000E+00  0.55853629850E+03  0.55853629850E+03  0.00000000000E+00 0.  1.
         21   -1    0    0  502  503 -0.00000000000E+00 -0.00000000000E+00 -0.62119240978E+02  0.62119240978E+02  0.00000000000E+00 0.  1.
          6    1    1    2  501    0 -0.29323684948E+02 -0.62859567510E+02  0.27709606123E+03  0.33343279814E+03  0.17200000000E+03 0.  1.
         -6    1    1    2    0  503  0.29323684948E+02  0.62859567510E+02  0.21932099629E+03  0.28722274134E+03  0.17200000000E+03 0.  1.
</event>
<event>
 4    1  0.4405880E+000  0.2704760E+03  0.7818608E-02  0.1101008E+00
         21   -1    0    0  501  502  0.00000000000E+00  0.00000000000E+00  0.32751201199E+03  0.32751201199E+03  0.00000000000E+00 0. -1.
         21   -1    0    0  502  503 -0.00000000000E+00 -0.00000000000E+00 -0.47593128970E+03  0.47593128970E+03  0.00000000000E+00 0.  1.
          6    1    1    2  501    0 -0.39723748059E+02 -0.20492746439E+03  0.21843069467E+03  0.34766249466E+03  0.17200000000E+03 0. -1.
         -6    1    1    2    0  503  0.39723748059E+02  0.20492746439E+03 -0.36684997238E+03  0.45578080703E+03  0.17200000000E+03 0.  1.
</event>
<event>
 4    1  0.4405880E+000  0.2020793E+03  0.7818608E-02  0.1147996E+00
         21   -1    0    0  501  502  0.00000000000E+00  0.00000000000E+00  0.18994782350E+03  0.18994782350E+03  0.00000000000E+00 0. -1.
         21   -1    0    0  502  503 -0.00000000000E+00 -0.00000000000E+00 -0.24372583817E+03  0.24372583817E+03  0.00000000000E+00 0. -1.
          6    1    1    2  501    0 -0.73420078139E+01  0.10582124515E+03 -0.10134980375E+03  0.22607039551E+03  0.17200000000E+03 0. -1.
         -6    1    1    2    0  503  0.73420078139E+01 -0.10582124515E+03  0.47571789080E+02  0.20760326616E+03  0.17200000000E+03 0. -1.
</event>
<event>
 4    1  0.4405880E+000  0.1803980E+03  0.7818608E-02  0.1167418E+00
         21   -1    0    0  503  502  0.00000000000E+00  0.00000000000E+00  0.30387601047E+04  0.30387601047E+04  0.00000000000E+00 0.  1.
         21   -1    0    0  501  503 -0.00000000000E+00 -0.00000000000E+00 -0.19917258080E+02  0.19917258080E+02  0.00000000000E+00 0.  1.
          6    1    1    2  501    0  0.40636605530E+02 -0.36167586275E+02  0.46957981057E+03  0.50303938862E+03  0.17200000000E+03 0.  1.
         -6    1    1    2    0  502 -0.40636605530E+02  0.36167586275E+02  0.25492630361E+04  0.25556379742E+04  0.17200000000E+03 0.  1.
</event>
<event>
 4    1  0.4405880E+000  0.1777232E+03  0.7818608E-02  0.1170025E+00
         21   -1    0    0  501  502  0.00000000000E+00  0.00000000000E+00  0.12759844320E+04  0.12759844320E+04  0.00000000000E+00 0.  1.
         21   -1    0    0  502  503 -0.00000000000E+00 -0.00000000000E+00 -0.68834487599E+02  0.68834487599E+02  0.00000000000E+00 0.  1.
          6    1    1    2  501    0 -0.44725174892E+02 -0.10871674808E+01  0.11416647257E+04  0.11554150203E+04  0.17200000000E+03 0.  1.
         -6    1    1    2    0  503  0.44725174892E+02  0.10871674808E+01  0.65485218687E+02  0.18940389930E+03  0.17200000000E+03 0.  1.
</event>
<event>
 4    1  0.4405880E+000  0.1763977E+03  0.7818608E-02  0.1171336E+00
         21   -1    0    0  503  502  0.00000000000E+00  0.00000000000E+00  0.14539224586E+04  0.14539224586E+04  0.00000000000E+00 0.  1.
         21   -1    0    0  501  503 -0.00000000000E+00 -0.00000000000E+00 -0.21525053059E+02  0.21525053059E+02  0.00000000000E+00 0.  1.
          6    1    1    2  501    0  0.37833110111E+01 -0.38959627057E+02  0.66031378405E+03  0.68346942827E+03  0.17200000000E+03 0.  1.
         -6    1    1    2    0  502 -0.37833110111E+01  0.38959627057E+02  0.77208362150E+03  0.79197808339E+03  0.17200000000E+03 0.  1.
</event>
<event>
 4    1  0.4405880E+000  0.2645554E+03  0.7818608E-02  0.1104437E+00
         21   -1    0    0  501  502  0.00000000000E+00  0.00000000000E+00  0.66473448815E+03  0.66473448815E+03  0.00000000000E+00 0. -1.
         21   -1    0    0  502  503 -0.00000000000E+00 -0.00000000000E+00 -0.40314342495E+03  0.40314342495E+03  0.00000000000E+00 0.  1.
          6    1    1    2  501    0  0.20053454521E+03  0.13837135803E+02  0.58974352196E+03  0.64636444197E+03  0.17200000000E+03 0. -1.
         -6    1    1    2    0  503 -0.20053454521E+03 -0.13837135803E+02 -0.32815245876E+03  0.42151347113E+03  0.17200000000E+03 0.  1.
</event>
<event>
 4    1  0.4405880E+000  0.1952170E+03  0.7818608E-02  0.1153838E+00
         21   -1    0    0  503  502  0.00000000000E+00  0.00000000000E+00  0.96608505003E+03  0.96608505003E+03  0.00000000000E+00 0.  1.
         21   -1    0    0  501  503 -0.00000000000E+00 -0.00000000000E+00 -0.14387260260E+03  0.14387260260E+03  0.00000000000E+00 0.  1.
          6    1    1    2  501    0  0.87862906690E+02  0.28386137614E+02 -0.61707168944E+02  0.20473748528E+03  0.17200000000E+03 0.  1.
         -6    1    1    2    0  502 -0.87862906690E+02 -0.28386137614E+02  0.88391961637E+03  0.90522016736E+03  0.17200000000E+03 0.  1.
</event>
<event>
 4    1  0.4405880E+000  0.1843970E+03  0.7818608E-02  0.1163614E+00
         21   -1    0    0  503  502  0.00000000000E+00  0.00000000000E+00  0.22656767671E+03  0.22656767671E+03  0.00000000000E+00 0.  1.
         21   -1    0    0  501  503 -0.00000000000E+00 -0.00000000000E+00 -0.19152079191E+03  0.19152079191E+03  0.00000000000E+00 0.  1.
          6    1    1    2  501    0 -0.65801496965E+02 -0.94038216632E+01 -0.79721621227E+02  0.20089252290E+03  0.17200000000E+03 0.  1.
         -6    1    1    2    0  502  0.65801496965E+02  0.94038216632E+01  0.11476850602E+03  0.21719594572E+03  0.17200000000E+03 0.  1.
</event>
<event>
 4    1  0.4405880E+000  0.1982072E+03  0.7818608E-02  0.1151260E+00
         21   -1    0    0  503  502  0.00000000000E+00  0.00000000000E+00  0.10496187032E+04  0.10496187032E+04  0.00000000000E+00 0. -1.
         21   -1    0    0  501  503 -0.00000000000E+00 -0.00000000000E+00 -0.38847686553E+02  0.38847686553E+02  0.00000000000E+00 0. -1.
          6    1    1    2  501    0  0.78041233829E+02 -0.60097233976E+02  0.40138022424E+03  0.44765186933E+03  0.17200000000E+03 0. -1.
         -6    1    1    2    0  502 -0.78041233829E+02  0.60097233976E+02  0.60939079246E+03  0.64081452047E+03  0.17200000000E+03 0. -1.
</event>
<event>
 4    1  0.4405880E+000  0.2534926E+03  0.7818608E-02  0.1111117E+00
         21   -1    0    0  501  502  0.00000000000E+00  0.00000000000E+00  0.27251064421E+03  0.27251064421E+03  0.00000000000E+00 0.  1.
         21   -1    0    0  502  503 -0.00000000000E+00 -0.00000000000E+00 -0.45071592976E+03  0.45071592976E+03  0.00000000000E+00 0. -1.
          6    1    1    2  501    0 -0.18475836360E+03  0.23213393262E+02  0.16060127608E+03  0.30008546187E+03  0.17200000000E+03 0. -1.
         -6    1    1    2    0  503  0.18475836360E+03 -0.23213393262E+02 -0.33880656163E+03  0.42314111210E+03  0.17200000000E+03 0. -1.
</event>
<event>
 4    1  0.4405880E+000  0.2144812E+03  0.7818608E-02  0.1138066E+00
         21   -1    0    0  503  502  0.00000000000E+00  0.00000000000E+00  0.13621900153E+03  0.13621900153E+03  0.00000000000E+00 0.  1.
         21   -1    0    0  501  503 -0.00000000000E+00 -0.00000000000E+00 -0.38943259888E+03  0.38943259888E+03  0.00000000000E+00 0.  1.
          6    1    1    2  501    0  0.50514293184E+02 -0.11775614626E+03 -0.22239273034E+03  0.30896719940E+03  0.17200000000E+03 0.  1.
         -6    1    1    2    0  502 -0.50514293184E+02  0.11775614626E+03 -0.30820867013E+02  0.21668440101E+03  0.17200000000E+03 0.  1.
</event>
<event>
 4    1  0.4405880E+000  0.2197319E+03  0.7818608E-02  0.1134083E+00
         21   -1    0    0  501  502  0.00000000000E+00  0.00000000000E+00  0.95995176031E+03  0.95995176031E+03  0.00000000000E+00 0.  1.
         21   -1    0    0  502  503 -0.00000000000E+00 -0.00000000000E+00 -0.52031341715E+02  0.52031341715E+02  0.00000000000E+00 0.  1.
          6    1    1    2  501    0  0.11269072484E+03  0.77452624378E+02  0.36156394757E+03  0.42309643897E+03  0.17200000000E+03 0.  1.
         -6    1    1    2    0  503 -0.11269072484E+03 -0.77452624378E+02  0.54635647103E+03  0.58888666305E+03  0.17200000000E+03 0.  1.
</event>
<event>
 4    1  0.4405880E+000  0.1802779E+03  0.7818608E-02  0.1167534E+00
         21   -1    0    0  503  502  0.00000000000E+00  0.00000000000E+00  0.31696218939E+02  0.31696218939E+02  0.00000000000E+00 0. -1.
         21   -1    0    0  501  503 -0.00000000000E+00 -0.00000000000E+00 -0.14342328404E+04  0.14342328404E+04  0.00000000000E+00 0. -1.
          6    1    1    2  501    0 -0.22563432040E+02  0.49061293941E+02 -0.10926187734E+04  0.11073914859E+04  0.17200000000E+03 0. -1.
         -6    1    1    2    0  502  0.22563432040E+02 -0.49061293941E+02 -0.30991784804E+03  0.35853757343E+03  0.17200000000E+03 0. -1.
</event>
<event>
 4    1  0.4405880E+000  0.2621795E+03  0.7818608E-02  0.1105841E+00
         21   -1    0    0  501  502  0.00000000000E+00  0.00000000000E+00  0.19869018351E+03  0.19869018351E+03  0.00000000000E+00 0.  1.
         21   -1    0    0  502  503 -0.00000000000E+00 -0.00000000000E+00 -0.34711576132E+03  0.34711576132E+03  0.00000000000E+00 0.  1.
          6    1    1    2  501    0  0.73512932843E+02 -0.18371154629E+03 -0.89986514824E+02  0.27719245370E+03  0.17200000000E+03 0.  1.
         -6    1    1    2    0  503 -0.73512932843E+02  0.18371154629E+03 -0.58439062990E+02  0.26861349114E+03  0.17200000000E+03 0.  1.
</event>
<event>
 4    1  0.4405880E+000  0.2750944E+03  0.7818608E-02  0.1098399E+00
         21   -1    0    0  501  502  0.00000000000E+00  0.00000000000E+00  0.14931189397E+03  0.14931189397E+03  0.00000000000E+00 0.  1.
         21   -1    0    0  502  503 -0.00000000000E+00 -0.00000000000E+00 -0.52488078987E+03  0.52488078987E+03  0.00000000000E+00 0.  1.
          6    1    1    2  501    0  0.17161119159E+03  0.12900587699E+03 -0.12528480910E+03  0.30228000392E+03  0.17200000000E+03 0.  1.
         -6    1    1    2    0  503 -0.17161119159E+03 -0.12900587699E+03 -0.25028408680E+03  0.37191267992E+03  0.17200000000E+03 0.  1.
</event>
<event>
 4    1  0.4405880E+000  0.2669016E+03  0.7818608E-02  0.1103066E+00
         21   -1    0    0  503  502  0.00000000000E+00  0.00000000000E+00  0.11594059106E+03  0.11594059106E+03  0.00000000000E+00 0. -1.
         21   -1    0    0  501  503 -0.00000000000E+00 -0.00000000000E+00 -0.69685698629E+03  0.69685698629E+03  0.00000000000E+00 0.  1.
          6    1    1    2  501    0  0.20027102770E+03 -0.39293578449E+02 -0.43023525912E+03  0.50629916851E+03  0.17200000000E+03 0.  1.
         -6    1    1    2    0  502 -0.20027102770E+03  0.39293578449E+02 -0.15068113611E+03  0.30649840884E+03  0.17200000000E+03 0. -1.
</event>
<event>
 4    1  0.4405880E+000  0.2192060E+03  0.7818608E-02  0.1134476E+00
         21   -1    0    0  503  502  0.00000000000E+00  0.00000000000E+00  0.37445795606E+03  0.37445795606E+03  0.00000000000E+00 0.  1.
         21   -1    0    0  501  503 -0.00000000000E+00 -0.00000000000E+00 -0.23302800774E+03  0.23302800774E+03  0.00000000000E+00 0.  1.
          6    1    1    2  501    0 -0.91302764260E+02 -0.10065321121E+03 -0.13288963476E+03  0.25634141045E+03  0.17200000000E+03 0.  1.
         -6    1    1    2    0  502  0.91302764260E+02  0.10065321121E+03  0.27431958308E+03  0.35114455335E+03  0.17200000000E+03 0.  1.
</event>
<event>
 4    1  0.4405880E+000  0.1757172E+03  0.7818608E-02  0.1172014E+00
         21   -1    0    0  501  502  0.00000000000E+00  0.00000000000E+00  0.34764326659E+03  0.34764326659E+03  0.00000000000E+00 0. -1.
         21   -1    0    0  502  503 -0.00000000000E+00 -0.00000000000E+00 -0.11722408768E+03  0.11722408768E+03  0.00000000000E+00 0. -1.
          6    1    1    2  501    0 -0.25206892126E+02  0.25634747567E+02  0.22963072981E+03  0.28914840440E+03  0.17200000000E+03 0. -1.
         -6    1    1    2    0  503  0.25206892126E+02 -0.25634747567E+02  0.78844910700E+00  0.17571894988E+03  0.17200000000E+03 0. -1.
</event>
<event>
 4    1  0.4405880E+000  0.2584036E+03  0.7818608E-02  0.1108106E+00
         21   -1    0    0  501  502  0.00000000000E+00  0.00000000000E+00  0.68822371224E+03  0.68822371224E+03  0.00000000000E+00 0. -1.
         21   -1    0    0  502  503 -0.00000000000E+00 -0.00000000000E+00 -0.16838264146E+03  0.16838264146E+03  0.00000000000E+00 0.  1.
          6    1    1    2  501    0  0.75759218786E+01 -0.19269406895E+03  0.53874698224E+03  0.59751210002E+03  0.17200000000E+03 0.  1.
         -6    1    1    2    0  503 -0.75759218786E+01  0.19269406895E+03 -0.18905911456E+02  0.25909425368E+03  0.17200000000E+03 0.  1.
</event>
<event>
 4    1  0.4405880E+000  0.3123536E+03  0.7818608E-02  0.1079223E+00
         21   -1    0    0  501  502  0.00000000000E+00  0.00000000000E+00  0.14547557516E+04  0.14547557516E+04  0.00000000000E+00 0.  1.
         21   -1    0    0  502  503 -0.00000000000E+00 -0.00000000000E+00 -0.12108854213E+03  0.12108854213E+03  0.00000000000E+00 0. -1.
          6    1    1    2  501    0  0.13956370442E+03  0.22023331734E+03  0.11931162339E+04  0.12333252163E+04  0.17200000000E+03 0.  1.
         -6    1    1    2    0  503 -0.13956370442E+03 -0.22023331734E+03  0.14055097561E+03  0.34251907743E+03  0.17200000000E+03 0. -1.
</event>
<event>
 4    1  0.4405880E+000  0.1748559E+03  0.7818608E-02  0.1172876E+00
         21   -1    0    0  503  502  0.00000000000E+00  0.00000000000E+00  0.14257745401E+03  0.14257745401E+03  0.00000000000E+00 0.  1.
         21   -1    0    0  501  503 -0.00000000000E+00 -0.00000000000E+00 -0.27039527398E+03  0.27039527398E+03  0.00000000000E+00 0. -1.
          6    1    1    2  501    0  0.27610899727E+02  0.15107471716E+02 -0.15783894756E+03  0.23555833853E+03  0.17200000000E+03 0. -1.
         -6    1    1    2    0  502 -0.27610899727E+02 -0.15107471716E+02  0.30021127589E+02  0.17741438946E+03  0.17200000000E+03 0.  1.
</event>
<event>
 4    1  0.4405880E+000  0.1820969E+03  0.7818608E-02  0.1165789E+00
         21   -1    0    0  503  502  0.00000000000E+00  0.00000000000E+00  0.42955961041E+03  0.42955961041E+03  0.00000000000E+00 0. -1.
         21   -1    0    0  501  503 -0.00000000000E+00 -0.00000000000E+00 -0.12760061193E+03  0.12760061193E+03  0.00000000000E+00 0. -1.
          6    1    1    2  501    0 -0.59620935547E+02  0.45409532629E+01 -0.24113575913E+02  0.18368652851E+03  0.17200000000E+03 0. -1.
         -6    1    1    2    0  502  0.59620935547E+02 -0.45409532629E+01  0.32607257440E+03  0.37347369383E+03  0.17200000000E+03 0. -1.
</event>
<event>
 4    1  0.4405880E+000  0.2550838E+03  0.7818608E-02  0.1110133E+00
         21   -1    0    0  503  502  0.00000000000E+00  0.00000000000E+00  0.52648817940E+03  0.52648817940E+03  0.00000000000E+00 0. -1.
         21   -1    0    0  501  503 -0.00000000000E+00 -0.00000000000E+00 -0.16285039669E+03  0.16285039669E+03  0.00000000000E+00 0.  1.
          6    1    1    2  501    0 -0.42581437842E+01  0.18832312796E+03  0.12581854832E+02  0.25539388282E+03  0.17200000000E+03 0.  1.
         -6    1    1    2    0  502  0.42581437842E+01 -0.18832312796E+03  0.35105592788E+03  0.43394469327E+03  0.17200000000E+03 0. -1.
</event>
<event>
 4    1  0.4405880E+000  0.2062209E+03  0.7818608E-02  0.1144594E+00
         21   -1    0    0  503  502  0.00000000000E+00  0.00000000000E+00  0.17595247507E+03  0.17595247507E+03  0.00000000000E+00 0. -1.
         21   -1    0    0  501  503 -0.00000000000E+00 -0.00000000000E+00 -0.25024936637E+03  0.25024936637E+03  0.00000000000E+00 0. -1.
          6    1    1    2  501    0  0.11376696498E+03 -0.36169714657E+00 -0.76545255848E+02  0.21996870082E+03  0.17200000000E+03 0. -1.
         -6    1    1    2    0  502 -0.11376696498E+03  0.36169714657E+00  0.22483645465E+01  0.20623314062E+03  0.17200000000E+03 0. -1.
</event>
<event>
 4    1  0.4405880E+000  0.2402506E+03  0.7818608E-02  0.1119626E+00
         21   -1    0    0  503  502  0.00000000000E+00  0.00000000000E+00  0.49937619114E+03  0.49937619114E+03  0.00000000000E+00 0.  1.
         21   -1    0    0  501  503 -0.00000000000E+00 -0.00000000000E+00 -0.14184439986E+03  0.14184439986E+03  0.00000000000E+00 0.  1.
          6    1    1    2  501    0  0.34800443985E+01 -0.16770290426E+03  0.40818300439E+02  0.24369347233E+03  0.17200000000E+03 0.  1.
         -6    1    1    2    0  502 -0.34800443985E+01  0.16770290426E+03  0.31671349084E+03  0.39752711868E+03  0.17200000000E+03 0.  1.
</event>
<event>
 4    1  0.4405880E+000  0.2478107E+03  0.7818608E-02  0.1114696E+00
         21   -1    0    0  503  502  0.00000000000E+00  0.00000000000E+00  0.32939907414E+02  0.32939907414E+02  0.00000000000E+00 0.  1.
         21   -1    0    0  501  503 -0.00000000000E+00 -0.00000000000E+00 -0.23771380175E+04  0.23771380175E+04  0.00000000000E+00 0.  1.
          6    1    1    2  501    0 -0.39791806766E+02 -0.17390442450E+03 -0.17318058249E+04  0.17494460700E+04  0.17200000000E+03 0.  1.
         -6    1    1    2    0  502  0.39791806766E+02  0.17390442450E+03 -0.61239228518E+03  0.66063185489E+03  0.17200000000E+03 0.  1.
</event>
<event>
 4    1  0.4405880E+000  0.1797244E+03  0.7818608E-02  0.1168070E+00
         21   -1    0    0  501  502  0.00000000000E+00  0.00000000000E+00  0.62299030965E+02  0.62299030965E+02  0.00000000000E+00 0. -1.
         21   -1    0    0  502  503 -0.00000000000E+00 -0.00000000000E+00 -0.53111725171E+03  0.53111725171E+03  0.00000000000E+00 0. -1.
          6    1    1    2  501    0 -0.48794414931E+02 -0.18329277450E+02 -0.18864287442E+03  0.26055132203E+03  0.17200000000E+03 0. -1.
         -6    1    1    2    0  503  0.48794414931E+02  0.18329277450E+02 -0.28017534633E+03  0.33286496065E+03  0.17200000000E+03 0. -1.
</event>
<event>
 4    1  0.4405880E+000  0.1757506E+03  0.7818608E-02  0.1171980E+00
         21   -1    0    0  501  502  0.00000000000E+00  0.00000000000E+00  0.18189524693E+03  0.18189524693E+03  0.00000000000E+00 0. -1.
         21   -1    0    0  502  503 -0.00000000000E+00 -0.00000000000E+00 -0.20072040029E+03  0.20072040029E+03  0.00000000000E+00 0. -1.
          6    1    1    2  501    0  0.32984882660E+02 -0.14705832668E+02  0.65657156761E+02  0.18761430178E+03  0.17200000000E+03 0.  1.
         -6    1    1    2    0  503 -0.32984882660E+02  0.14705832668E+02 -0.84482310128E+02  0.19500134544E+03  0.17200000000E+03 0.  1.
</event>
<event>
 4    1  0.4405880E+000  0.1972453E+03  0.7818608E-02  0.1152084E+00
         21   -1    0    0  501  502  0.00000000000E+00  0.00000000000E+00  0.23719118809E+03  0.23719118809E+03  0.00000000000E+00 0.  1.
         21   -1    0    0  502  503 -0.00000000000E+00 -0.00000000000E+00 -0.16732249538E+03  0.16732249538E+03  0.00000000000E+00 0. -1.
          6    1    1    2  501    0  0.28683378900E+02 -0.92189799347E+02  0.63320339778E+02  0.20715974695E+03  0.17200000000E+03 0. -1.
         -6    1    1    2    0  503 -0.28683378900E+02  0.92189799347E+02  0.65483529326E+01  0.19735393651E+03  0.17200000000E+03 0. -1.
</event>
<event>
 4    1  0.4405880E+000  0.1861816E+03  0.7818608E-02  0.1161951E+00
         21   -1    0    0  501  502  0.00000000000E+00  0.00000000000E+00  0.65763583919E+02  0.65763583919E+02  0.00000000000E+00 0. -1.
         21   -1    0    0  502  503 -0.00000000000E+00 -0.00000000000E+00 -0.53355435241E+03  0.53355435241E+03  0.00000000000E+00 0. -1.
          6    1    1    2  501    0  0.67842465840E+02  0.21840369527E+02 -0.26686851759E+03  0.32539577071E+03  0.17200000000E+03 0. -1.
         -6    1    1    2    0  503 -0.67842465840E+02 -0.21840369527E+02 -0.20092225089E+03  0.27392216562E+03  0.17200000000E+03 0. -1.
</event>
<event>
 4    1  0.4405880E+000  0.1989874E+03  0.7818608E-02  0.1150596E+00
         21   -1    0    0  503  502  0.00000000000E+00  0.00000000000E+00  0.94058716015E+03  0.94058716015E+03  0.00000000000E+00 0.  1.
         21   -1    0    0  501  503 -0.00000000000E+00 -0.00000000000E+00 -0.43077612483E+02  0.43077612483E+02  0.00000000000E+00 0. -1.
          6    1    1    2  501    0 -0.54106794044E+01 -0.99913552869E+02  0.37455245799E+03  0.42412915166E+03  0.17200000000E+03 0. -1.
         -6    1    1    2    0  502  0.54106794044E+01  0.99913552869E+02  0.52295708967E+03  0.55953562097E+03  0.17200000000E+03 0.  1.
</event>
<event>
 4    1  0.4405880E+000  0.1727004E+03  0.7818608E-02  0.1175061E+00
         21   -1    0    0  503  502  0.00000000000E+00  0.00000000000E+00  0.18116993690E+03  0.18116993690E+03  0.00000000000E+00 0.  1.
         21   -1    0    0  501  503 -0.00000000000E+00 -0.00000000000E+00 -0.80204004341E+03  0.80204004341E+03  0.00000000000E+00 0. -1.
          6    1    1    2  501    0 -0.67561951038E+00 -0.15522727616E+02 -0.74869201841E+03  0.76835223040E+03  0.17200000000E+03 0. -1.
         -6    1    1    2    0  502  0.67561951038E+00  0.15522727616E+02  0.12782191190E+03  0.21485774991E+03  0.17200000000E+03 0.  1.
</event>
<event>
 4    1  0.4405880E+000  0.2318731E+03  0.7818608E-02  0.1125328E+00
         21   -1    0    0  501  502  0.00000000000E+00  0.00000000000E+00  0.19522253768E+03  0.19522253768E+03  0.00000000000E+00 0.  1.
         21   -1    0    0  502  503 -0.00000000000E+00 -0.00000000000E+00 -0.35565549742E+03  0.35565549742E+03  0.00000000000E+00 0.  1.
          6    1    1    2  501    0 -0.40480322000E+01 -0.15545012125E+03  0.50622290002E+02  0.23733466457E+03  0.17200000000E+03 0.  1.
         -6    1    1    2    0  503  0.40480322000E+01  0.15545012125E+03 -0.21105524974E+03  0.31354337053E+03  0.17200000000E+03 0.  1.
</event>
<event>
 4    1  0.4405880E+000  0.2095091E+03  0.7818608E-02  0.1141955E+00
         21   -1    0    0  501  502  0.00000000000E+00  0.00000000000E+00  0.60595176155E+03  0.60595176155E+03  0.00000000000E+00 0.  1.
         21   -1    0    0  502  503 -0.00000000000E+00 -0.00000000000E+00 -0.81419576153E+02  0.81419576153E+02  0.00000000000E+00 0. -1.
          6    1    1    2  501    0 -0.62492616146E+02  0.10200357667E+03  0.37641411048E+03  0.43079187468E+03  0.17200000000E+03 0.  1.
         -6    1    1    2    0  503  0.62492616146E+02 -0.10200357667E+03  0.14811807492E+03  0.25657946302E+03  0.17200000000E+03 0. -1.
</event>
<event>
 4    1  0.4405880E+000  0.1936228E+03  0.7818608E-02  0.1155234E+00
         21   -1    0    0  501  502  0.00000000000E+00  0.00000000000E+00  0.39654253560E+03  0.39654253560E+03  0.00000000000E+00 0. -1.
         21   -1    0    0  502  503 -0.00000000000E+00 -0.00000000000E+00 -0.28878835911E+03  0.28878835911E+03  0.00000000000E+00 0. -1.
          6    1    1    2  501    0 -0.87750230946E+02 -0.14342345949E+02  0.33491004374E+03  0.38685209488E+03  0.17200000000E+03 0. -1.
         -6    1    1    2    0  503  0.87750230946E+02  0.14342345949E+02 -0.22715586725E+03  0.29847879983E+03  0.17200000000E+03 0. -1.
</event>
<event>
 4    1  0.4405880E+000  0.1854607E+03  0.7818608E-02  0.1162620E+00
         21   -1    0    0  503  502  0.00000000000E+00  0.00000000000E+00  0.83547516330E+02  0.83547516330E+02  0.00000000000E+00 0.  1.
         21   -1    0    0  501  503 -0.00000000000E+00 -0.00000000000E+00 -0.75910389149E+03  0.75910389149E+03  0.00000000000E+00 0. -1.
          6    1    1    2  501    0  0.69365406413E+02  0.35823378274E+00 -0.62280837228E+03  0.64983533031E+03  0.17200000000E+03 0. -1.
         -6    1    1    2    0  502 -0.69365406413E+02 -0.35823378274E+00 -0.52748002881E+02  0.19281607751E+03  0.17200000000E+03 0.  1.
</event>
<event>
 4    1  0.4405880E+000  0.1956475E+03  0.7818608E-02  0.1153464E+00
         21   -1    0    0  501  502  0.00000000000E+00  0.00000000000E+00  0.10001806842E+03  0.10001806842E+03  0.00000000000E+00 0. -1.
         21   -1    0    0  502  503 -0.00000000000E+00 -0.00000000000E+00 -0.86102397126E+03  0.86102397126E+03  0.00000000000E+00 0.  1.
          6    1    1    2  501    0  0.11866605732E+02  0.92483113914E+02 -0.22356068031E+02  0.19692063495E+03  0.17200000000E+03 0. -1.
         -6    1    1    2    0  503 -0.11866605732E+02 -0.92483113914E+02 -0.73864983482E+03  0.76412140473E+03  0.17200000000E+03 0.  1.
</event>
<event>
 4    1  0.4405880E+000  0.2159248E+03  0.7818608E-02  0.1136958E+00
         21   -1    0    0  501  502  0.00000000000E+00  0.00000000000E+00  0.17516689880E+03  0.17516689880E+03  0.00000000000E+00 0.  1.
         21   -1    0    0  502  503 -0.00000000000E+00 -0.00000000000E+00 -0.33236976601E+03  0.33236976601E+03  0.00000000000E+00 0.  1.
          6    1    1    2  501    0 -0.11752307335E+03  0.56814295673E+02  0.34656025963E+02  0.21868831038E+03  0.17200000000E+03 0.  1.
         -6    1    1    2    0  503  0.11752307335E+03 -0.56814295673E+02 -0.19185889317E+03  0.28884835442E+03  0.17200000000E+03 0.  1.
</event>
<event>
 4    1  0.4405880E+000  0.1795360E+03  0.7818608E-02  0.1168253E+00
         21   -1    0    0  501  502  0.00000000000E+00  0.00000000000E+00  0.51486353544E+03  0.51486353544E+03  0.00000000000E+00 0.  1.
         21   -1    0    0  502  503 -0.00000000000E+00 -0.00000000000E+00 -0.68390265504E+02  0.68390265504E+02  0.00000000000E+00 0.  1.
          6    1    1    2  501    0  0.11119313862E+02 -0.50254733703E+02  0.30805335190E+03  0.35655300450E+03  0.17200000000E+03 0. -1.
         -6    1    1    2    0  503 -0.11119313862E+02  0.50254733703E+02  0.13841991804E+03  0.22670079645E+03  0.17200000000E+03 0. -1.
</event>
<event>
 4    1  0.4405880E+000  0.2043759E+03  0.7818608E-02  0.1146099E+00
         21   -1    0    0  501  502  0.00000000000E+00  0.00000000000E+00  0.15552340414E+03  0.15552340414E+03  0.00000000000E+00 0.  1.
         21   -1    0    0  502  503 -0.00000000000E+00 -0.00000000000E+00 -0.28502046635E+03  0.28502046635E+03  0.00000000000E+00 0.  1.
          6    1    1    2  501    0 -0.74450238573E+02 -0.81502664662E+02 -0.11835922343E+02  0.20471837101E+03  0.17200000000E+03 0.  1.
         -6    1    1    2    0  503  0.74450238573E+02  0.81502664662E+02 -0.11766113987E+03  0.23582549948E+03  0.17200000000E+03 0.  1.
</event>
<event>
 4    1  0.4405880E+000  0.2028669E+03  0.7818608E-02  0.1147342E+00
         21   -1    0    0  501  502  0.00000000000E+00  0.00000000000E+00  0.32104586093E+02  0.32104586093E+02  0.00000000000E+00 0. -1.
         21   -1    0    0  502  503 -0.00000000000E+00 -0.00000000000E+00 -0.13156914819E+04  0.13156914819E+04  0.00000000000E+00 0.  1.
          6    1    1    2  501    0 -0.10473509404E+03 -0.24526578190E+02 -0.53380036346E+03  0.57104975352E+03  0.17200000000E+03 0. -1.
         -6    1    1    2    0  503  0.10473509404E+03  0.24526578190E+02 -0.74978653230E+03  0.77674631443E+03  0.17200000000E+03 0.  1.
</event>
<event>
 4    1  0.4405880E+000  0.2136159E+03  0.7818608E-02  0.1138734E+00
         21   -1    0    0  501  502  0.00000000000E+00  0.00000000000E+00  0.11021257680E+04  0.11021257680E+04  0.00000000000E+00 0. -1.
         21   -1    0    0  502  503 -0.00000000000E+00 -0.00000000000E+00 -0.41824148784E+02  0.41824148784E+02  0.00000000000E+00 0. -1.
          6    1    1    2  501    0  0.12646838541E+03  0.73151611917E+01  0.58751887166E+03  0.62514813337E+03  0.17200000000E+03 0. -1.
         -6    1    1    2    0  503 -0.12646838541E+03 -0.73151611917E+01  0.47278274755E+03  0.51880178341E+03  0.17200000000E+03 0. -1.
</event>
<event>
 4    1  0.4405880E+000  0.2102361E+03  0.7818608E-02  0.1141379E+00
         21   -1    0    0  503  502  0.00000000000E+00  0.00000000000E+00  0.16903051519E+03  0.16903051519E+03  0.00000000000E+00 0. -1.
         21   -1    0    0  501  503 -0.00000000000E+00 -0.00000000000E+00 -0.30701011060E+03  0.30701011060E+03  0.00000000000E+00 0. -1.
          6    1    1    2  501    0  0.46562833760E+02  0.11156657390E+03 -0.16064476993E+03  0.26458635642E+03  0.17200000000E+03 0. -1.
         -6    1    1    2    0  502 -0.46562833760E+02 -0.11156657390E+03  0.22665174513E+02  0.21145426937E+03  0.17200000000E+03 0. -1.
</event>
<event>
 4    1  0.4405880E+000  0.3253224E+03  0.7818608E-02  0.1073226E+00
         21   -1    0    0  501  502  0.00000000000E+00  0.00000000000E+00  0.15914961250E+03  0.15914961250E+03  0.00000000000E+00 0. -1.
         21   -1    0    0  502  503 -0.00000000000E+00 -0.00000000000E+00 -0.66508187597E+03  0.66508187597E+03  0.00000000000E+00 0.  1.
          6    1    1    2  501    0 -0.36813007151E+02  0.27367033499E+03 -0.25751098972E+03  0.41490548270E+03  0.17200000000E+03 0.  1.
         -6    1    1    2    0  503  0.36813007151E+02 -0.27367033499E+03 -0.24842127375E+03  0.40932600577E+03  0.17200000000E+03 0. -1.
</event>
<event>
 4    1  0.4405880E+000  0.1775980E+03  0.7818608E-02  0.1170148E+00
         21   -1    0    0  501  502  0.00000000000E+00  0.00000000000E+00  0.13300656342E+03  0.13300656342E+03  0.00000000000E+00 0. -1.
         21   -1    0    0  502  503 -0.00000000000E+00 -0.00000000000E+00 -0.40385861775E+03  0.40385861775E+03  0.00000000000E+00 0. -1.
          6    1    1    2  501    0 -0.42497188942E+02  0.12289238831E+02  0.37044140983E+02  0.18142024374E+03  0.17200000000E+03 0. -1.
         -6    1    1    2    0  503  0.42497188942E+02 -0.12289238831E+02 -0.30789619531E+03  0.35544493743E+03  0.17200000000E+03 0. -1.
</event>
<event>
 4    1  0.4405880E+000  0.2198186E+03  0.7818608E-02  0.1134018E+00
         21   -1    0    0  503  502  0.00000000000E+00  0.00000000000E+00  0.12337851455E+03  0.12337851455E+03  0.00000000000E+00 0.  1.
         21   -1    0    0  501  503 -0.00000000000E+00 -0.00000000000E+00 -0.50803142159E+03  0.50803142159E+03  0.00000000000E+00 0.  1.
          6    1    1    2  501    0  0.56038370316E+02 -0.12488369860E+03 -0.34343618946E+03  0.40776053432E+03  0.17200000000E+03 0.  1.
         -6    1    1    2    0  502 -0.56038370316E+02  0.12488369860E+03 -0.41216717579E+02  0.22364940181E+03  0.17200000000E+03 0.  1.
</event>
<event>
 4    1  0.4405880E+000  0.1791262E+03  0.7818608E-02  0.1168651E+00
         21   -1    0    0  501  502  0.00000000000E+00  0.00000000000E+00  0.44293986274E+03  0.44293986274E+03  0.00000000000E+00 0.  1.
         21   -1    0    0  502  503 -0.00000000000E+00 -0.00000000000E+00 -0.72890784420E+02  0.72890784420E+02  0.00000000000E+00 0.  1.
          6    1    1    2  501    0  0.13597156237E+02 -0.48138628446E+02  0.16472391783E+03  0.24335196591E+03  0.17200000000E+03 0.  1.
         -6    1    1    2    0  503 -0.13597156237E+02  0.48138628446E+02  0.20532516049E+03  0.27247868125E+03  0.17200000000E+03 0.  1.
</event>
<event>
 4    1  0.4405880E+000  0.1753699E+03  0.7818608E-02  0.1172361E+00
         21   -1    0    0  503  502  0.00000000000E+00  0.00000000000E+00  0.20894011796E+03  0.20894011796E+03  0.00000000000E+00 0.  1.
         21   -1    0    0  501  503 -0.00000000000E+00 -0.00000000000E+00 -0.14856811273E+03  0.14856811273E+03  0.00000000000E+00 0.  1.
          6    1    1    2  501    0  0.29621043656E+02 -0.17122644375E+02  0.12990665278E+02  0.17585035844E+03  0.17200000000E+03 0.  1.
         -6    1    1    2    0  502 -0.29621043656E+02  0.17122644375E+02  0.47381339955E+02  0.18165787226E+03  0.17200000000E+03 0.  1.
</event>
<event>
 4    1  0.4405880E+000  0.2502855E+03  0.7818608E-02  0.1113125E+00
         21   -1    0    0  503  502  0.00000000000E+00  0.00000000000E+00  0.14825037559E+03  0.14825037559E+03  0.00000000000E+00 0.  1.
         21   -1    0    0  501  503 -0.00000000000E+00 -0.00000000000E+00 -0.10233086785E+04  0.10233086785E+04  0.00000000000E+00 0.  1.
          6    1    1    2  501    0 -0.53953219235E+02  0.17363147590E+03 -0.88635902702E+03  0.92101854708E+03  0.17200000000E+03 0.  1.
         -6    1    1    2    0  502  0.53953219235E+02 -0.17363147590E+03  0.11300724108E+02  0.25054050701E+03  0.17200000000E+03 0.  1.
</event>
<event>
 4    1  0.4405880E+000  0.2065183E+03  0.7818608E-02  0.1144353E+00
         21   -1    0    0  503  502  0.00000000000E+00  0.00000000000E+00  0.86642030726E+03  0.86642030726E+03  0.00000000000E+00 0.  1.
         21   -1    0    0  501  503 -0.00000000000E+00 -0.00000000000E+00 -0.49246425131E+02  0.49246425131E+02  0.00000000000E+00 0.  1.
          6    1    1    2  501    0 -0.11378078159E+03  0.10943535447E+02  0.39911167971E+03  0.44937730261E+03  0.17200000000E+03 0.  1.
         -6    1    1    2    0  502  0.11378078159E+03 -0.10943535447E+02  0.41806220243E+03  0.46628942978E+03  0.17200000000E+03 0.  1.
</event>
<event>
 4    1  0.4405880E+000  0.2168825E+03  0.7818608E-02  0.1136229E+00
         21   -1    0    0  503  502  0.00000000000E+00  0.00000000000E+00  0.13418277847E+04  0.13418277847E+04  0.00000000000E+00 0.  1.
         21   -1    0    0  501  503 -0.00000000000E+00 -0.00000000000E+00 -0.83597357677E+02  0.83597357677E+02  0.00000000000E+00 0.  1.
          6    1    1    2  501    0 -0.12914593798E+03  0.27844983968E+02  0.86017761461E+02  0.23331753409E+03  0.17200000000E+03 0.  1.
         -6    1    1    2    0  502  0.12914593798E+03 -0.27844983968E+02  0.11722126656E+04  0.11921076083E+04  0.17200000000E+03 0.  1.
</event>
<event>
 4    1  0.4405880E+000  0.1721715E+03  0.7818608E-02  0.1175602E+00
         21   -1    0    0  501  502  0.00000000000E+00  0.00000000000E+00  0.37233426514E+03  0.37233426514E+03  0.00000000000E+00 0.  1.
         21   -1    0    0  502  503 -0.00000000000E+00 -0.00000000000E+00 -0.12271859446E+03  0.12271859446E+03  0.00000000000E+00 0.  1.
          6    1    1    2  501    0  0.76088057390E+01 -0.10586786896E+01  0.27150720480E+03  0.32149522078E+03  0.17200000000E+03 0.  1.
         -6    1    1    2    0  503 -0.76088057390E+01  0.10586786896E+01 -0.21891534122E+02  0.17355763882E+03  0.17200000000E+03 0.  1.
</event>
<event>
 4    1  0.4405880E+000  0.1733838E+03  0.7818608E-02  0.1174364E+00
         21   -1    0    0  503  502  0.00000000000E+00  0.00000000000E+00  0.26323813736E+03  0.26323813736E+03  0.00000000000E+00 0.  1.
         21   -1    0    0  501  503 -0.00000000000E+00 -0.00000000000E+00 -0.49348205824E+03  0.49348205824E+03  0.00000000000E+00 0.  1.
          6    1    1    2  501    0 -0.12453557919E+02  0.17968440656E+02 -0.44682575937E+03  0.47928615168E+03  0.17200000000E+03 0.  1.
         -6    1    1    2    0  502  0.12453557919E+02 -0.17968440656E+02  0.21658183849E+03  0.27743404392E+03  0.17200000000E+03 0.  1.
</event>
<event>
 4    1  0.4405880E+000  0.2654599E+03  0.7818608E-02  0.1103906E+00
         21   -1    0    0  501  502  0.00000000000E+00  0.00000000000E+00  0.54747970319E+03  0.54747970319E+03  0.00000000000E+00 0. -1.
         21   -1    0    0  502  503 -0.00000000000E+00 -0.00000000000E+00 -0.21478579175E+03  0.21478579175E+03  0.00000000000E+00 0.  1.
          6    1    1    2  501    0  0.19276325798E+03  0.61051568851E+02  0.40761557991E+03  0.48643543115E+03  0.17200000000E+03 0. -1.
         -6    1    1    2    0  503 -0.19276325798E+03 -0.61051568851E+02 -0.74921668482E+02  0.27583006379E+03  0.17200000000E+03 0.  1.
</event>
<event>
 4    1  0.4405880E+000  0.1886222E+03  0.7818608E-02  0.1159710E+00
         21   -1    0    0  501  502  0.00000000000E+00  0.00000000000E+00  0.56154092326E+03  0.56154092326E+03  0.00000000000E+00 0.  1.
         21   -1    0    0  502  503 -0.00000000000E+00 -0.00000000000E+00 -0.18399303122E+03  0.18399303122E+03  0.00000000000E+00 0.  1.
          6    1    1    2  501    0  0.59785937499E+02  0.49193440555E+02  0.49061109222E+03  0.52562115324E+03  0.17200000000E+03 0.  1.
         -6    1    1    2    0  503 -0.59785937499E+02 -0.49193440555E+02 -0.11306320018E+03  0.21991280124E+03  0.17200000000E+03 0.  1.
</event>
<event>
 4    1  0.4405880E+000  0.1922515E+03  0.7818608E-02  0.1156446E+00
         21   -1    0    0  501  502  0.00000000000E+00  0.00000000000E+00  0.84178679495E+02  0.84178679495E+02  0.00000000000E+00 0. -1.
         21   -1    0    0  502  503 -0.00000000000E+00 -0.00000000000E+00 -0.43916263613E+03  0.43916263613E+03  0.00000000000E+00 0. -1.
          6    1    1    2  501    0  0.74571385358E+02  0.42611507271E+02 -0.17376518722E+03  0.25914276443E+03  0.17200000000E+03 0. -1.
         -6    1    1    2    0  503 -0.74571385358E+02 -0.42611507271E+02 -0.18121876941E+03  0.26419855120E+03  0.17200000000E+03 0. -1.
</event>
<event>
 4    1  0.4405880E+000  0.2189402E+03  0.7818608E-02  0.1134676E+00
         21   -1    0    0  503  502  0.00000000000E+00  0.00000000000E+00  0.60375237710E+03  0.60375237710E+03  0.00000000000E+00 0. -1.
         21   -1    0    0  501  503 -0.00000000000E+00 -0.00000000000E+00 -0.13395228425E+03  0.13395228425E+03  0.00000000000E+00 0.  1.
          6    1    1    2  501    0  0.13522927798E+03 -0.79909932483E+01 -0.49891549188E+00  0.21894077398E+03  0.17200000000E+03 0.  1.
         -6    1    1    2    0  502 -0.13522927798E+03  0.79909932483E+01  0.47029900833E+03  0.51876388737E+03  0.17200000000E+03 0. -1.
</event>
<event>
 4    1  0.4405880E+000  0.2624856E+03  0.7818608E-02  0.1105659E+00
         21   -1    0    0  503  502  0.00000000000E+00  0.00000000000E+00  0.19232667247E+04  0.19232667247E+04  0.00000000000E+00 0. -1.
         21   -1    0    0  501  503 -0.00000000000E+00 -0.00000000000E+00 -0.36311346104E+02  0.36311346104E+02  0.00000000000E+00 0.  1.
          6    1    1    2  501    0 -0.28921502888E+02 -0.19615873939E+03  0.82994434180E+03  0.87046327599E+03  0.17200000000E+03 0.  1.
         -6    1    1    2    0  502  0.28921502888E+02  0.19615873939E+03  0.10570110368E+04  0.10891147948E+04  0.17200000000E+03 0. -1.
</event>
<event>
 4    1  0.4405880E+000  0.2369506E+03  0.7818608E-02  0.1121841E+00
         21   -1    0    0  503  502  0.00000000000E+00  0.00000000000E+00  0.33781710026E+03  0.33781710026E+03  0.00000000000E+00 0. -1.
         21   -1    0    0  501  503 -0.00000000000E+00 -0.00000000000E+00 -0.16671121018E+03  0.16671121018E+03  0.00000000000E+00 0.  1.
          6    1    1    2  501    0 -0.10915669921E+03 -0.12102235427E+03  0.71599611428E+02  0.24753201727E+03  0.17200000000E+03 0. -1.
         -6    1    1    2    0  502  0.10915669921E+03  0.12102235427E+03  0.99506278651E+02  0.25699629317E+03  0.17200000000E+03 0. -1.
</event>
<event>
 4    1  0.4405880E+000  0.2205976E+03  0.7818608E-02  0.1133438E+00
         21   -1    0    0  503  502  0.00000000000E+00  0.00000000000E+00  0.19629569277E+03  0.19629569277E+03  0.00000000000E+00 0. -1.
         21   -1    0    0  501  503 -0.00000000000E+00 -0.00000000000E+00 -0.27474306897E+03  0.27474306897E+03  0.00000000000E+00 0. -1.
          6    1    1    2  501    0 -0.82065896930E+02 -0.11110572200E+03 -0.11282978678E+03  0.24777783131E+03  0.17200000000E+03 0. -1.
         -6    1    1    2    0  502  0.82065896930E+02  0.11110572200E+03  0.34382410589E+02  0.22326093044E+03  0.17200000000E+03 0. -1.
</event>
<event>
 4    1  0.4405880E+000  0.2139428E+03  0.7818608E-02  0.1138481E+00
         21   -1    0    0  503  502  0.00000000000E+00  0.00000000000E+00  0.46025419777E+03  0.46025419777E+03  0.00000000000E+00 0.  1.
         21   -1    0    0  501  503 -0.00000000000E+00 -0.00000000000E+00 -0.14397177534E+03  0.14397177534E+03  0.00000000000E+00 0.  1.
          6    1    1    2  501    0 -0.38894378229E+02 -0.12113941364E+03 -0.98648291385E+01  0.21417013108E+03  0.17200000000E+03 0.  1.
         -6    1    1    2    0  502  0.38894378229E+02  0.12113941364E+03  0.32614725157E+03  0.39005584203E+03  0.17200000000E+03 0.  1.
</event>
<event>
 4    1  0.4405880E+000  0.2084012E+03  0.7818608E-02  0.1142838E+00
         21   -1    0    0  503  502  0.00000000000E+00  0.00000000000E+00  0.10815117285E+03  0.10815117285E+03  0.00000000000E+00 0. -1.
         21   -1    0    0  501  503 -0.00000000000E+00 -0.00000000000E+00 -0.42240390951E+03  0.42240390951E+03  0.00000000000E+00 0. -1.
          6    1    1    2  501    0 -0.11619048138E+03 -0.18623402559E+02 -0.21603046591E+03  0.30016698901E+03  0.17200000000E+03 0. -1.
         -6    1    1    2    0  502  0.11619048138E+03  0.18623402559E+02 -0.98222270746E+02  0.23038809335E+03  0.17200000000E+03 0. -1.
</event>
<event>
 4    1  0.4405880E+000  0.1743574E+03  0.7818608E-02  0.1173378E+00
         21   -1    0    0  501  502  0.00000000000E+00  0.00000000000E+00  0.18824385248E+03  0.18824385248E+03  0.00000000000E+00 0.  1.
         21   -1    0    0  502  503 -0.00000000000E+00 -0.00000000000E+00 -0.16217481212E+03  0.16217481212E+03  0.00000000000E+00 0.  1.
          6    1    1    2  501    0  0.86341787428E+01  0.27238696581E+02  0.16931067136E+01  0.17436559937E+03  0.17200000000E+03 0.  1.
         -6    1    1    2    0  503 -0.86341787428E+01 -0.27238696581E+02  0.24375933647E+02  0.17605306523E+03  0.17200000000E+03 0.  1.
</event>
<event>
 4    1  0.4405880E+000  0.2013416E+03  0.7818608E-02  0.1148612E+00
         21   -1    0    0  503  502  0.00000000000E+00  0.00000000000E+00  0.60878407746E+02  0.60878407746E+02  0.00000000000E+00 0. -1.
         21   -1    0    0  501  503 -0.00000000000E+00 -0.00000000000E+00 -0.66695814236E+03  0.66695814236E+03  0.00000000000E+00 0. -1.
          6    1    1    2  501    0  0.36093813998E+02  0.98242943305E+02 -0.28848929253E+03  0.35180180673E+03  0.17200000000E+03 0.  1.
         -6    1    1    2    0  502 -0.36093813998E+02 -0.98242943305E+02 -0.31759044208E+03  0.37603474337E+03  0.17200000000E+03 0.  1.
</event>
<event>
 4    1  0.4405880E+000  0.1798430E+03  0.7818608E-02  0.1167955E+00
         21   -1    0    0  503  502  0.00000000000E+00  0.00000000000E+00  0.56443133324E+02  0.56443133324E+02  0.00000000000E+00 0.  1.
         21   -1    0    0  501  503 -0.00000000000E+00 -0.00000000000E+00 -0.79306097428E+03  0.79306097428E+03  0.00000000000E+00 0.  1.
          6    1    1    2  501    0 -0.19421157269E+02  0.48809098956E+02 -0.59203975534E+03  0.61875243950E+03  0.17200000000E+03 0.  1.
         -6    1    1    2    0  502  0.19421157269E+02 -0.48809098956E+02 -0.14457808562E+03  0.23075166810E+03  0.17200000000E+03 0.  1.
</event>
<event>
 4    1  0.4405880E+000  0.1892541E+03  0.7818608E-02  0.1159136E+00
         21   -1    0    0  501  502  0.00000000000E+00  0.00000000000E+00  0.12484626156E+04  0.12484626156E+04  0.00000000000E+00 0.  1.
         21   -1    0    0  502  503 -0.00000000000E+00 -0.00000000000E+00 -0.42131470771E+02  0.42131470771E+02  0.00000000000E+00 0.  1.
          6    1    1    2  501    0  0.50133976164E+02 -0.60989181908E+02  0.96766473750E+03  0.98599804263E+03  0.17200000000E+03 0.  1.
         -6    1    1    2    0  503 -0.50133976164E+02  0.60989181908E+02  0.23866640734E+03  0.30459604375E+03  0.17200000000E+03 0.  1.
</event>
<event>
 4    1  0.4405880E+000  0.1833832E+03  0.7818608E-02  0.1164568E+00
         21   -1    0    0  503  502  0.00000000000E+00  0.00000000000E+00  0.32584679121E+02  0.32584679121E+02  0.00000000000E+00 0.  1.
         21   -1    0    0  501  503 -0.00000000000E+00 -0.00000000000E+00 -0.10567580459E+04  0.10567580459E+04  0.00000000000E+00 0.  1.
          6    1    1    2  501    0  0.33596304401E+02  0.54006522896E+02 -0.59535093068E+03  0.62295436979E+03  0.17200000000E+03 0.  1.
         -6    1    1    2    0  502 -0.33596304401E+02 -0.54006522896E+02 -0.42882243605E+03  0.46638835518E+03  0.17200000000E+03 0.  1.
</event>
<event>
 4    1  0.4405880E+000  0.1966572E+03  0.7818608E-02  0.1152590E+00
         21   -1    0    0  503  502  0.00000000000E+00  0.00000000000E+00  0.60098941134E+02  0.60098941134E+02  0.00000000000E+00 0. -1.
         21   -1    0    0  501  503 -0.00000000000E+00 -0.00000000000E+00 -0.65705786988E+03  0.65705786988E+03  0.00000000000E+00 0. -1.
          6    1    1    2  501    0 -0.58263988758E+02  0.75467550196E+02 -0.34997601248E+03  0.40144395976E+03  0.17200000000E+03 0. -1.
         -6    1    1    2    0  502  0.58263988758E+02 -0.75467550196E+02 -0.24698291627E+03  0.31571285125E+03  0.17200000000E+03 0. -1.
</event>
<event>
 4    1  0.4405880E+000  0.1892915E+03  0.7818608E-02  0.1159102E+00
         21   -1    0    0  503  502  0.00000000000E+00  0.00000000000E+00  0.84384439332E+03  0.84384439332E+03  0.00000000000E+00 0. -1.
         21   -1    0    0  501  503 -0.00000000000E+00 -0.00000000000E+00 -0.44520900144E+02  0.44520900144E+02  0.00000000000E+00 0.  1.
          6    1    1    2  501    0 -0.73397942205E+02 -0.29325909157E+02  0.49518387276E+03  0.53013048838E+03  0.17200000000E+03 0. -1.
         -6    1    1    2    0  502  0.73397942205E+02  0.29325909157E+02  0.30413962041E+03  0.35823480508E+03  0.17200000000E+03 0.  1.
</event>
<event>
 4    1  0.4405880E+000  0.2069006E+03  0.7818608E-02  0.1144044E+00
         21   -1    0    0  503  502  0.00000000000E+00  0.00000000000E+00  0.24023083735E+03  0.24023083735E+03  0.00000000000E+00 0. -1.
         21   -1    0    0  501  503 -0.00000000000E+00 -0.00000000000E+00 -0.62554937818E+03  0.62554937818E+03  0.00000000000E+00 0. -1.
          6    1    1    2  501    0 -0.39405798042E+02  0.10803264905E+03 -0.55873660303E+03  0.59581411678E+03  0.17200000000E+03 0. -1.
         -6    1    1    2    0  502  0.39405798042E+02 -0.10803264905E+03  0.17341806220E+03  0.26996609875E+03  0.17200000000E+03 0. -1.
</event>
<event>
 4    1  0.4405880E+000  0.3291735E+03  0.7818608E-02  0.1071503E+00
         21   -1    0    0  501  502  0.00000000000E+00  0.00000000000E+00  0.96797401097E+03  0.96797401097E+03  0.00000000000E+00 0. -1.
         21   -1    0    0  502  503 -0.00000000000E+00 -0.00000000000E+00 -0.17816638422E+03  0.17816638422E+03  0.00000000000E+00 0.  1.
          6    1    1    2  501    0  0.27852351211E+03  0.34580820400E+02  0.74429334593E+03  0.81383521965E+03  0.17200000000E+03 0. -1.
         -6    1    1    2    0  503 -0.27852351211E+03 -0.34580820400E+02  0.45514280820E+02  0.33230517555E+03  0.17200000000E+03 0.  1.
</event>
<event>
 4    1  0.4405880E+000  0.1887744E+03  0.7818608E-02  0.1159571E+00
         21   -1    0    0  503  502  0.00000000000E+00  0.00000000000E+00  0.11990124625E+03  0.11990124625E+03  0.00000000000E+00 0.  1.
         21   -1    0    0  501  503 -0.00000000000E+00 -0.00000000000E+00 -0.33105362716E+03  0.33105362716E+03  0.00000000000E+00 0.  1.
          6    1    1    2  501    0 -0.68886078603E+02  0.36145439598E+02 -0.17766964403E+03  0.25923403912E+03  0.17200000000E+03 0.  1.
         -6    1    1    2    0  502  0.68886078603E+02 -0.36145439598E+02 -0.33482736884E+02  0.19172083428E+03  0.17200000000E+03 0.  1.
</event>
<event>
 4    1  0.4405880E+000  0.1763240E+03  0.7818608E-02  0.1171409E+00
         21   -1    0    0  503  502  0.00000000000E+00  0.00000000000E+00  0.45351985677E+03  0.45351985677E+03  0.00000000000E+00 0.  1.
         21   -1    0    0  501  503 -0.00000000000E+00 -0.00000000000E+00 -0.32656667933E+03  0.32656667933E+03  0.00000000000E+00 0.  1.
          6    1    1    2  501    0  0.38754884702E+02 -0.20547318266E+01 -0.28321889739E+03  0.33362120264E+03  0.17200000000E+03 0.  1.
         -6    1    1    2    0  502 -0.38754884702E+02  0.20547318266E+01  0.41017207483E+03  0.44646533346E+03  0.17200000000E+03 0.  1.
</event>
<event>
 4    1  0.4405880E+000  0.3476943E+03  0.7818608E-02  0.1063565E+00
         21   -1    0    0  503  502  0.00000000000E+00  0.00000000000E+00  0.14543037565E+04  0.14543037565E+04  0.00000000000E+00 0.  1.
         21   -1    0    0  501  503 -0.00000000000E+00 -0.00000000000E+00 -0.14956539547E+03  0.14956539547E+03  0.00000000000E+00 0. -1.
          6    1    1    2  501    0 -0.26114765267E+03  0.15201712162E+03  0.11788567399E+03  0.36713530733E+03  0.17200000000E+03 0.  1.
         -6    1    1    2    0  502  0.26114765267E+03 -0.15201712162E+03  0.11868526871E+04  0.12367338447E+04  0.17200000000E+03 0.  1.
</event>
<event>
 4    1  0.4405880E+000  0.2263564E+03  0.7818608E-02  0.1129231E+00
         21   -1    0    0  503  502  0.00000000000E+00  0.00000000000E+00  0.26245458349E+03  0.26245458349E+03  0.00000000000E+00 0. -1.
         21   -1    0    0  501  503 -0.00000000000E+00 -0.00000000000E+00 -0.32457444282E+03  0.32457444282E+03  0.00000000000E+00 0.  1.
          6    1    1    2  501    0  0.12825432582E+03  0.72139188313E+02 -0.21635234953E+03  0.31312229836E+03  0.17200000000E+03 0.  1.
         -6    1    1    2    0  502 -0.12825432582E+03 -0.72139188313E+02  0.15423249021E+03  0.27390672795E+03  0.17200000000E+03 0. -1.
</event>
<event>
 4    1  0.4405880E+000  0.2004768E+03  0.7818608E-02  0.1149337E+00
         21   -1    0    0  501  502  0.00000000000E+00  0.00000000000E+00  0.95643449831E+03  0.95643449831E+03  0.00000000000E+00 0.  1.
         21   -1    0    0  502  503 -0.00000000000E+00 -0.00000000000E+00 -0.82051670340E+02  0.82051670340E+02  0.00000000000E+00 0.  1.
          6    1    1    2  501    0  0.53513866437E+02 -0.87995559743E+02  0.79986834482E+03  0.82460919319E+03  0.17200000000E+03 0.  1.
         -6    1    1    2    0  503 -0.53513866437E+02  0.87995559743E+02  0.74514483148E+02  0.21387697547E+03  0.17200000000E+03 0.  1.
</event>
<event>
 4    1  0.4405880E+000  0.1857509E+03  0.7818608E-02  0.1162351E+00
         21   -1    0    0  503  502  0.00000000000E+00  0.00000000000E+00  0.11051656332E+03  0.11051656332E+03  0.00000000000E+00 0. -1.
         21   -1    0    0  501  503 -0.00000000000E+00 -0.00000000000E+00 -0.34817094231E+03  0.34817094231E+03  0.00000000000E+00 0. -1.
          6    1    1    2  501    0 -0.70193897510E+01 -0.69786342593E+02 -0.19254275822E+03  0.26753713609E+03  0.17200000000E+03 0. -1.
         -6    1    1    2    0  502  0.70193897510E+01  0.69786342593E+02 -0.45111620767E+02  0.19115036953E+03  0.17200000000E+03 0. -1.
</event>
<event>
 4    1  0.4405880E+000  0.2486890E+03  0.7818608E-02  0.1114136E+00
         21   -1    0    0  503  502  0.00000000000E+00  0.00000000000E+00  0.14252443017E+04  0.14252443017E+04  0.00000000000E+00 0. -1.
         21   -1    0    0  501  503 -0.00000000000E+00 -0.00000000000E+00 -0.95142413198E+02  0.95142413198E+02  0.00000000000E+00 0.  1.
          6    1    1    2  501    0 -0.87703580085E+02 -0.15674915025E+03  0.10440591957E+03  0.26971616582E+03  0.17200000000E+03 0.  1.
         -6    1    1    2    0  502  0.87703580085E+02  0.15674915025E+03  0.12256959689E+04  0.12506705490E+04  0.17200000000E+03 0. -1.
</event>
<event>
 4    1  0.4405880E+000  0.1919957E+03  0.7818608E-02  0.1156674E+00
         21   -1    0    0  503  502  0.00000000000E+00  0.00000000000E+00  0.10797686872E+04  0.10797686872E+04  0.00000000000E+00 0.  1.
         21   -1    0    0  501  503 -0.00000000000E+00 -0.00000000000E+00 -0.97110566901E+02  0.97110566901E+02  0.00000000000E+00 0.  1.
          6    1    1    2  501    0 -0.57079090065E+01 -0.85121989657E+02  0.17479409199E+02  0.19278968617E+03  0.17200000000E+03 0.  1.
         -6    1    1    2    0  502  0.57079090065E+01  0.85121989657E+02  0.96517871111E+03  0.98408956794E+03  0.17200000000E+03 0.  1.
</event>
<event>
 4    1  0.4405880E+000  0.2134557E+03  0.7818608E-02  0.1138858E+00
         21   -1    0    0  503  502  0.00000000000E+00  0.00000000000E+00  0.55192065733E+03  0.55192065733E+03  0.00000000000E+00 0. -1.
         21   -1    0    0  501  503 -0.00000000000E+00 -0.00000000000E+00 -0.83177821347E+02  0.83177821347E+02  0.00000000000E+00 0. -1.
          6    1    1    2  501    0 -0.92955492970E+02 -0.85665688377E+02  0.20687414967E+03  0.29725451660E+03  0.17200000000E+03 0. -1.
         -6    1    1    2    0  502  0.92955492970E+02  0.85665688377E+02  0.26186868631E+03  0.33784396208E+03  0.17200000000E+03 0. -1.
</event>
<event>
 4    1  0.4405880E+000  0.1759701E+03  0.7818608E-02  0.1171761E+00
         21   -1    0    0  501  502  0.00000000000E+00  0.00000000000E+00  0.18100198307E+03  0.18100198307E+03  0.00000000000E+00 0.  1.
         21   -1    0    0  502  503 -0.00000000000E+00 -0.00000000000E+00 -0.25981506555E+03  0.25981506555E+03  0.00000000000E+00 0.  1.
          6    1    1    2  501    0 -0.24384701135E+02  0.28051233322E+02  0.89403100850E+02  0.19737882303E+03  0.17200000000E+03 0.  1.
         -6    1    1    2    0  503  0.24384701135E+02 -0.28051233322E+02 -0.16821618333E+03  0.24343822558E+03  0.17200000000E+03 0.  1.
</event>
<event>
 4    1  0.4405880E+000  0.2052191E+03  0.7818608E-02  0.1145409E+00
         21   -1    0    0  503  502  0.00000000000E+00  0.00000000000E+00  0.24967872834E+04  0.24967872834E+04  0.00000000000E+00 0.  1.
         21   -1    0    0  501  503 -0.00000000000E+00 -0.00000000000E+00 -0.54216993576E+02  0.54216993576E+02  0.00000000000E+00 0.  1.
          6    1    1    2  501    0  0.89174348528E+02  0.67666859670E+02  0.16262853134E+03  0.26184519766E+03  0.17200000000E+03 0.  1.
         -6    1    1    2    0  502 -0.89174348528E+02 -0.67666859670E+02  0.22799417585E+04  0.22891590793E+04  0.17200000000E+03 0.  1.
</event>
<event>
 4    1  0.4405880E+000  0.1914726E+03  0.7818608E-02  0.1157140E+00
         21   -1    0    0  501  502  0.00000000000E+00  0.00000000000E+00  0.47451435718E+03  0.47451435718E+03  0.00000000000E+00 0. -1.
         21   -1    0    0  502  503 -0.00000000000E+00 -0.00000000000E+00 -0.10334178730E+03  0.10334178730E+03  0.00000000000E+00 0. -1.
          6    1    1    2  501    0  0.16540363474E+02  0.82487455396E+02  0.33073281638E+03  0.38215959984E+03  0.17200000000E+03 0. -1.
         -6    1    1    2    0  503 -0.16540363474E+02 -0.82487455396E+02  0.40439753505E+02  0.19569654464E+03  0.17200000000E+03 0. -1.
</event>
<event>
 4    1  0.4405880E+000  0.1762055E+03  0.7818608E-02  0.1171527E+00
         21   -1    0    0  501  502  0.00000000000E+00  0.00000000000E+00  0.84886352912E+02  0.84886352912E+02  0.00000000000E+00 0.  1.
         21   -1    0    0  502  503 -0.00000000000E+00 -0.00000000000E+00 -0.70533679469E+03  0.70533679469E+03  0.00000000000E+00 0.  1.
          6    1    1    2  501    0  0.17878980856E+02  0.33833480047E+02 -0.36075379666E+02  0.17986048856E+03  0.17200000000E+03 0.  1.
         -6    1    1    2    0  503 -0.17878980856E+02 -0.33833480047E+02 -0.58437506212E+03  0.61036265904E+03  0.17200000000E+03 0.  1.
</event>
<event>
 4    1  0.4405880E+000  0.1871475E+03  0.7818608E-02  0.1161060E+00
         21   -1    0    0  501  502  0.00000000000E+00  0.00000000000E+00  0.20507846409E+03  0.20507846409E+03  0.00000000000E+00 0.  1.
         21   -1    0    0  502  503 -0.00000000000E+00 -0.00000000000E+00 -0.23602542991E+03  0.23602542991E+03  0.00000000000E+00 0.  1.
          6    1    1    2  501    0 -0.65836231114E+02  0.33253353491E+02  0.10048219648E+03  0.21241672875E+03  0.17200000000E+03 0.  1.
         -6    1    1    2    0  503  0.65836231114E+02 -0.33253353491E+02 -0.13142916230E+03  0.22868716525E+03  0.17200000000E+03 0.  1.
</event>
<event>
 4    1  0.4405880E+000  0.2269458E+03  0.7818608E-02  0.1128808E+00
         21   -1    0    0  503  502  0.00000000000E+00  0.00000000000E+00  0.14013388896E+03  0.14013388896E+03  0.00000000000E+00 0.  1.
         21   -1    0    0  501  503 -0.00000000000E+00 -0.00000000000E+00 -0.53100453711E+03  0.53100453711E+03  0.00000000000E+00 0.  1.
          6    1    1    2  501    0 -0.50585880286E+02  0.13914554117E+03 -0.38162196979E+03  0.44400421252E+03  0.17200000000E+03 0.  1.
         -6    1    1    2    0  502  0.50585880286E+02 -0.13914554117E+03 -0.92486783602E+01  0.22713421355E+03  0.17200000000E+03 0.  1.
</event>
<event>
 4    1  0.4405880E+000  0.2055290E+03  0.7818608E-02  0.1145156E+00
         21   -1    0    0  503  502  0.00000000000E+00  0.00000000000E+00  0.24749561464E+03  0.24749561464E+03  0.00000000000E+00 0. -1.
         21   -1    0    0  501  503 -0.00000000000E+00 -0.00000000000E+00 -0.20321983974E+03  0.20321983974E+03  0.00000000000E+00 0.  1.
          6    1    1    2  501    0  0.11249784380E+03  0.15552472674E+01 -0.68041446812E+02  0.21649901186E+03  0.17200000000E+03 0.  1.
         -6    1    1    2    0  502 -0.11249784380E+03 -0.15552472674E+01  0.11231722171E+03  0.23421644252E+03  0.17200000000E+03 0. -1.
</event>
<event>
 4    1  0.4405880E+000  0.2330671E+03  0.7818608E-02  0.1124499E+00
         21   -1    0    0  503  502  0.00000000000E+00  0.00000000000E+00  0.19073641246E+03  0.19073641246E+03  0.00000000000E+00 0. -1.
         21   -1    0    0  501  503 -0.00000000000E+00 -0.00000000000E+00 -0.40183686338E+03  0.40183686338E+03  0.00000000000E+00 0. -1.
          6    1    1    2  501    0 -0.15627504600E+03  0.17730632068E+02 -0.26545549107E+03  0.35325186914E+03  0.17200000000E+03 0. -1.
         -6    1    1    2    0  502  0.15627504600E+03 -0.17730632068E+02  0.54355040146E+02  0.23932140670E+03  0.17200000000E+03 0. -1.
</event>
<event>
 4    1  0.4405880E+000  0.3180805E+03  0.7818608E-02  0.1076536E+00
         21   -1    0    0  501  502  0.00000000000E+00  0.00000000000E+00  0.13903185786E+03  0.13903185786E+03  0.00000000000E+00 0. -1.
         21   -1    0    0  502  503 -0.00000000000E+00 -0.00000000000E+00 -0.89570742958E+03  0.89570742958E+03  0.00000000000E+00 0. -1.
          6    1    1    2  501    0 -0.15205988759E+03  0.22015670228E+03 -0.15427677334E+03  0.35352016317E+03  0.17200000000E+03 0. -1.
         -6    1    1    2    0  503  0.15205988759E+03 -0.22015670228E+03 -0.60239879838E+03  0.68121912427E+03  0.17200000000E+03 0. -1.
</event>
<event>
 4    1  0.4405880E+000  0.1735986E+03  0.7818608E-02  0.1174146E+00
         21   -1    0    0  503  502  0.00000000000E+00  0.00000000000E+00  0.20803032209E+03  0.20803032209E+03  0.00000000000E+00 0. -1.
         21   -1    0    0  501  503 -0.00000000000E+00 -0.00000000000E+00 -0.15826033871E+03  0.15826033871E+03  0.00000000000E+00 0. -1.
          6    1    1    2  501    0  0.16728965534E+01  0.23444924559E+02 -0.28396322658E+02  0.17590569693E+03  0.17200000000E+03 0. -1.
         -6    1    1    2    0  502 -0.16728965534E+01 -0.23444924559E+02  0.78166306037E+02  0.19038496388E+03  0.17200000000E+03 0. -1.
</event>
<event>
 4    1  0.4405880E+000  0.2117770E+03  0.7818608E-02  0.1140167E+00
         21   -1    0    0  503  502  0.00000000000E+00  0.00000000000E+00  0.10776784821E+03  0.10776784821E+03  0.00000000000E+00 0.  1.
         21   -1    0    0  501  503 -0.00000000000E+00 -0.00000000000E+00 -0.51814489893E+03  0.51814489893E+03  0.00000000000E+00 0.  1.
          6    1    1    2  501    0  0.11523350278E+03 -0.44572669811E+02 -0.34402705716E+03  0.40398527091E+03  0.17200000000E+03 0.  1.
         -6    1    1    2    0  502 -0.11523350278E+03  0.44572669811E+02 -0.66349993572E+02  0.22192747623E+03  0.17200000000E+03 0.  1.
</event>
<event>
 4    1  0.4405880E+000  0.1830185E+03  0.7818608E-02  0.1164913E+00
         21   -1    0    0  503  502  0.00000000000E+00  0.00000000000E+00  0.83965659043E+02  0.83965659043E+02  0.00000000000E+00 0. -1.
         21   -1    0    0  501  503 -0.00000000000E+00 -0.00000000000E+00 -0.41453427894E+03  0.41453427894E+03  0.00000000000E+00 0.  1.
          6    1    1    2  501    0  0.16775268325E+02 -0.60252410004E+02 -0.21365538463E+03  0.28132612023E+03  0.17200000000E+03 0.  1.
         -6    1    1    2    0  502 -0.16775268325E+02  0.60252410004E+02 -0.11691323526E+03  0.21717381775E+03  0.17200000000E+03 0. -1.
</event>
<event>
 4    1  0.4405880E+000  0.2524353E+03  0.7818608E-02  0.1111775E+00
         21   -1    0    0  501  502  0.00000000000E+00  0.00000000000E+00  0.28992340618E+03  0.28992340618E+03  0.00000000000E+00 0. -1.
         21   -1    0    0  502  503 -0.00000000000E+00 -0.00000000000E+00 -0.24754104533E+03  0.24754104533E+03  0.00000000000E+00 0.  1.
          6    1    1    2  501    0  0.15615813175E+03  0.98763366597E+02 -0.68779445856E+02  0.26163749132E+03  0.17200000000E+03 0.  1.
         -6    1    1    2    0  503 -0.15615813175E+03 -0.98763366597E+02  0.11116180671E+03  0.27582696018E+03  0.17200000000E+03 0. -1.
</event>
<event>
 4    1  0.4405880E+000  0.2361620E+03  0.7818608E-02  0.1122376E+00
         21   -1    0    0  503  502  0.00000000000E+00  0.00000000000E+00  0.92552102057E+03  0.92552102057E+03  0.00000000000E+00 0.  1.
         21   -1    0    0  501  503 -0.00000000000E+00 -0.00000000000E+00 -0.75444563270E+02  0.75444563270E+02  0.00000000000E+00 0. -1.
          6    1    1    2  501    0  0.14515975221E+03 -0.71534122006E+02  0.20051191342E+03  0.30980237523E+03  0.17200000000E+03 0. -1.
         -6    1    1    2    0  502 -0.14515975221E+03  0.71534122006E+02  0.64956454387E+03  0.69116320861E+03  0.17200000000E+03 0.  1.
</event>
<event>
 4    1  0.4405880E+000  0.1928774E+03  0.7818608E-02  0.1155891E+00
         21   -1    0    0  503  502  0.00000000000E+00  0.00000000000E+00  0.17076298685E+04  0.17076298685E+04  0.00000000000E+00 0. -1.
         21   -1    0    0  501  503 -0.00000000000E+00 -0.00000000000E+00 -0.33632829705E+02  0.33632829705E+02  0.00000000000E+00 0. -1.
          6    1    1    2  501    0  0.80593954603E+02 -0.33500909516E+02  0.32027112997E+03  0.37386534093E+03  0.17200000000E+03 0. -1.
         -6    1    1    2    0  502 -0.80593954603E+02  0.33500909516E+02  0.13537259089E+04  0.13673973573E+04  0.17200000000E+03 0. -1.
</event>
<event>
 4    1  0.4405880E+000  0.1808252E+03  0.7818608E-02  0.1167007E+00
         21   -1    0    0  503  502  0.00000000000E+00  0.00000000000E+00  0.85061152172E+03  0.85061152172E+03  0.00000000000E+00 0. -1.
         21   -1    0    0  501  503 -0.00000000000E+00 -0.00000000000E+00 -0.81928649827E+02  0.81928649827E+02  0.00000000000E+00 0. -1.
          6    1    1    2  501    0  0.37600986806E+02 -0.41229877611E+02  0.44633051408E+02  0.18625210413E+03  0.17200000000E+03 0. -1.
         -6    1    1    2    0  502 -0.37600986806E+02  0.41229877611E+02  0.72404982048E+03  0.74628806741E+03  0.17200000000E+03 0. -1.
</event>
<event>
 4    1  0.4405880E+000  0.1992341E+03  0.7818608E-02  0.1150387E+00
         21   -1    0    0  501  502  0.00000000000E+00  0.00000000000E+00  0.44201935073E+03  0.44201935073E+03  0.00000000000E+00 0.  1.
         21   -1    0    0  502  503 -0.00000000000E+00 -0.00000000000E+00 -0.14644601980E+03  0.14644601980E+03  0.00000000000E+00 0.  1.
          6    1    1    2  501    0  0.23951089676E+02  0.97655319252E+02 -0.35204115676E+02  0.20232040390E+03  0.17200000000E+03 0.  1.
         -6    1    1    2    0  503 -0.23951089676E+02 -0.97655319252E+02  0.33077744660E+03  0.38614496663E+03  0.17200000000E+03 0.  1.
</event>
<event>
 4    1  0.4405880E+000  0.2096091E+03  0.7818608E-02  0.1141876E+00
         21   -1    0    0  501  502  0.00000000000E+00  0.00000000000E+00  0.49995229972E+02  0.49995229972E+02  0.00000000000E+00 0.  1.
         21   -1    0    0  502  503 -0.00000000000E+00 -0.00000000000E+00 -0.22310785420E+04  0.22310785420E+04  0.00000000000E+00 0.  1.
          6    1    1    2  501    0  0.86159030014E+02  0.83238285563E+02 -0.20260006706E+03  0.29151805743E+03  0.17200000000E+03 0.  1.
         -6    1    1    2    0  503 -0.86159030014E+02 -0.83238285563E+02 -0.19784832449E+04  0.19895557145E+04  0.17200000000E+03 0.  1.
</event>
<event>
 4    1  0.4405880E+000  0.2285549E+03  0.7818608E-02  0.1127661E+00
         21   -1    0    0  503  502  0.00000000000E+00  0.00000000000E+00  0.79641100370E+02  0.79641100370E+02  0.00000000000E+00 0. -1.
         21   -1    0    0  501  503 -0.00000000000E+00 -0.00000000000E+00 -0.68362135530E+03  0.68362135530E+03  0.00000000000E+00 0. -1.
          6    1    1    2  501    0 -0.75039784476E+02  0.13046973200E+03 -0.37882745488E+03  0.44243367954E+03  0.17200000000E+03 0. -1.
         -6    1    1    2    0  502  0.75039784476E+02 -0.13046973200E+03 -0.22515280006E+03  0.32082877613E+03  0.17200000000E+03 0. -1.
</event>
<event>
 4    1  0.4405880E+000  0.1730075E+03  0.7818608E-02  0.1174747E+00
         21   -1    0    0  501  502  0.00000000000E+00  0.00000000000E+00  0.55036697003E+03  0.55036697003E+03  0.00000000000E+00 0. -1.
         21   -1    0    0  502  503 -0.00000000000E+00 -0.00000000000E+00 -0.12421199542E+03  0.12421199542E+03  0.00000000000E+00 0. -1.
          6    1    1    2  501    0 -0.12861823860E+02  0.13496988793E+02  0.46596846940E+03  0.49704950427E+03  0.17200000000E+03 0. -1.
         -6    1    1    2    0  503  0.12861823860E+02 -0.13496988793E+02 -0.39813494796E+02  0.17752946118E+03  0.17200000000E+03 0. -1.
</event>
<event>
 4    1  0.4405880E+000  0.2612903E+03  0.7818608E-02  0.1106370E+00
         21   -1    0    0  501  502  0.00000000000E+00  0.00000000000E+00  0.28327998681E+03  0.28327998681E+03  0.00000000000E+00 0. -1.
         21   -1    0    0  502  503 -0.00000000000E+00 -0.00000000000E+00 -0.38817492773E+03  0.38817492773E+03  0.00000000000E+00 0.  1.
          6    1    1    2  501    0 -0.15641415228E+03 -0.11926110100E+03  0.15427086158E+03  0.30343384119E+03  0.17200000000E+03 0. -1.
         -6    1    1    2    0  503  0.15641415228E+03  0.11926110100E+03 -0.25916580250E+03  0.36802107335E+03  0.17200000000E+03 0.  1.
</event>
<event>
 4    1  0.4405880E+000  0.1740049E+03  0.7818608E-02  0.1173735E+00
         21   -1    0    0  503  502  0.00000000000E+00  0.00000000000E+00  0.20931795106E+03  0.20931795106E+03  0.00000000000E+00 0.  1.
         21   -1    0    0  501  503 -0.00000000000E+00 -0.00000000000E+00 -0.26823611153E+03  0.26823611153E+03  0.00000000000E+00 0.  1.
          6    1    1    2  501    0 -0.25329280645E+02  0.72212980758E+01 -0.19153548116E+03  0.25877318282E+03  0.17200000000E+03 0.  1.
         -6    1    1    2    0  502  0.25329280645E+02 -0.72212980758E+01  0.13261732069E+03  0.21878087977E+03  0.17200000000E+03 0.  1.
</event>
<event>
 4    1  0.4405880E+000  0.2461427E+03  0.7818608E-02  0.1115767E+00
         21   -1    0    0  503  502  0.00000000000E+00  0.00000000000E+00  0.46595861733E+03  0.46595861733E+03  0.00000000000E+00 0. -1.
         21   -1    0    0  501  503 -0.00000000000E+00 -0.00000000000E+00 -0.22051680728E+03  0.22051680728E+03  0.00000000000E+00 0.  1.
          6    1    1    2  501    0  0.13731306874E+03 -0.11021495164E+03 -0.97155720883E+02  0.26462321990E+03  0.17200000000E+03 0.  1.
         -6    1    1    2    0  502 -0.13731306874E+03  0.11021495164E+03  0.34259753094E+03  0.42185220471E+03  0.17200000000E+03 0. -1.
</event>
<event>
 4    1  0.4405880E+000  0.1759520E+03  0.7818608E-02  0.1171779E+00
         21   -1    0    0  503  502  0.00000000000E+00  0.00000000000E+00  0.61996717505E+03  0.61996717505E+03  0.00000000000E+00 0.  1.
         21   -1    0    0  501  503 -0.00000000000E+00 -0.00000000000E+00 -0.27250672182E+03  0.27250672182E+03  0.00000000000E+00 0.  1.
          6    1    1    2  501    0 -0.21550419280E+02 -0.30177612471E+02 -0.22955309451E+03  0.28922954909E+03  0.17200000000E+03 0.  1.
         -6    1    1    2    0  502  0.21550419280E+02  0.30177612471E+02  0.57701354774E+03  0.60324434779E+03  0.17200000000E+03 0.  1.
</event>
<event>
 4    1  0.4405880E+000  0.2119575E+03  0.7818608E-02  0.1140025E+00
         21   -1    0    0  503  502  0.00000000000E+00  0.00000000000E+00  0.47530536064E+03  0.47530536064E+03  0.00000000000E+00 0.  1.
         21   -1    0    0  501  503 -0.00000000000E+00 -0.00000000000E+00 -0.14307308291E+03  0.14307308291E+03  0.00000000000E+00 0.  1.
          6    1    1    2  501    0  0.10623296899E+03  0.63690941139E+02 -0.14000022661E+02  0.21241935015E+03  0.17200000000E+03 0.  1.
         -6    1    1    2    0  502 -0.10623296899E+03 -0.63690941139E+02  0.34623230039E+03  0.40595909340E+03  0.17200000000E+03 0.  1.
</event>
<event>
 4    1  0.4405880E+000  0.1824940E+03  0.7818608E-02  0.1165411E+00
         21   -1    0    0  501  502  0.00000000000E+00  0.00000000000E+00  0.28529009143E+03  0.28529009143E+03  0.00000000000E+00 0.  1.
         21   -1    0    0  502  503 -0.00000000000E+00 -0.00000000000E+00 -0.21571743271E+03  0.21571743271E+03  0.00000000000E+00 0.  1.
          6    1    1    2  501    0 -0.57115604692E+02  0.21397604522E+02  0.20447202201E+03  0.27406725008E+03  0.17200000000E+03 0.  1.
         -6    1    1    2    0  503  0.57115604692E+02 -0.21397604522E+02 -0.13489936329E+03  0.22694027407E+03  0.17200000000E+03 0.  1.
</event>
<event>
 4    1  0.4405880E+000  0.2295556E+03  0.7818608E-02  0.1126953E+00
         21   -1    0    0  503  502  0.00000000000E+00  0.00000000000E+00  0.37110541683E+03  0.37110541683E+03  0.00000000000E+00 0. -1.
         21   -1    0    0  501  503 -0.00000000000E+00 -0.00000000000E+00 -0.22800984502E+03  0.22800984502E+03  0.00000000000E+00 0. -1.
          6    1    1    2  501    0 -0.14297661962E+02 -0.15135169079E+03 -0.11243869537E+03  0.25561341448E+03  0.17200000000E+03 0. -1.
         -6    1    1    2    0  502  0.14297661962E+02  0.15135169079E+03  0.25553426718E+03  0.34350184737E+03  0.17200000000E+03 0. -1.
</event>
<event>
 4    1  0.4405880E+000  0.1791691E+03  0.7818608E-02  0.1168610E+00
         21   -1    0    0  501  502  0.00000000000E+00  0.00000000000E+00  0.46837847162E+02  0.46837847162E+02  0.00000000000E+00 0. -1.
         21   -1    0    0  502  503 -0.00000000000E+00 -0.00000000000E+00 -0.76498081191E+03  0.76498081191E+03  0.00000000000E+00 0. -1.
          6    1    1    2  501    0 -0.31861938758E+02  0.38760632948E+02 -0.49001122211E+03  0.52173994250E+03  0.17200000000E+03 0. -1.
         -6    1    1    2    0  503  0.31861938758E+02 -0.38760632948E+02 -0.22813174264E+03  0.29007871657E+03  0.17200000000E+03 0. -1.
</event>
<event>
 4    1  0.4405880E+000  0.1773916E+03  0.7818608E-02  0.1170352E+00
         21   -1    0    0  501  502  0.00000000000E+00  0.00000000000E+00  0.87933550189E+02  0.87933550189E+02  0.00000000000E+00 0.  1.
         21   -1    0    0  502  503 -0.00000000000E+00 -0.00000000000E+00 -0.38439859991E+03  0.38439859991E+03  0.00000000000E+00 0.  1.
          6    1    1    2  501    0 -0.34293882309E+02  0.26602945902E+02 -0.21028743453E+03  0.27511559792E+03  0.17200000000E+03 0.  1.
         -6    1    1    2    0  503  0.34293882309E+02 -0.26602945902E+02 -0.86177615183E+02  0.19721655218E+03  0.17200000000E+03 0.  1.
</event>
<event>
 4    1  0.4405880E+000  0.1743499E+03  0.7818608E-02  0.1173386E+00
         21   -1    0    0  503  502  0.00000000000E+00  0.00000000000E+00  0.71706492355E+03  0.71706492355E+03  0.00000000000E+00 0. -1.
         21   -1    0    0  501  503 -0.00000000000E+00 -0.00000000000E+00 -0.44232071830E+02  0.44232071830E+02  0.00000000000E+00 0.  1.
          6    1    1    2  501    0 -0.11152432643E+01  0.28506632511E+02  0.25878032554E+03  0.31203385834E+03  0.17200000000E+03 0. -1.
         -6    1    1    2    0  502  0.11152432643E+01 -0.28506632511E+02  0.41405252618E+03  0.44926313704E+03  0.17200000000E+03 0. -1.
</event>
<event>
 4    1  0.4405880E+000  0.2137301E+03  0.7818608E-02  0.1138646E+00
         21   -1    0    0  503  502  0.00000000000E+00  0.00000000000E+00  0.79224591413E+02  0.79224591413E+02  0.00000000000E+00 0. -1.
         21   -1    0    0  501  503 -0.00000000000E+00 -0.00000000000E+00 -0.59689966944E+03  0.59689966944E+03  0.00000000000E+00 0. -1.
          6    1    1    2  501    0  0.59592591469E+02 -0.11200578091E+03 -0.19648781258E+03  0.29032401280E+03  0.17200000000E+03 0. -1.
         -6    1    1    2    0  502 -0.59592591469E+02  0.11200578091E+03 -0.32118726544E+03  0.38580024805E+03  0.17200000000E+03 0. -1.
</event>
<event>
 4    1  0.4405880E+000  0.1877152E+03  0.7818608E-02  0.1160538E+00
         21   -1    0    0  503  502  0.00000000000E+00  0.00000000000E+00  0.43041265135E+03  0.43041265135E+03  0.00000000000E+00 0.  1.
         21   -1    0    0  501  503 -0.00000000000E+00 -0.00000000000E+00 -0.85697675984E+02  0.85697675984E+02  0.00000000000E+00 0. -1.
          6    1    1    2  501    0  0.72410483659E+02  0.20241544187E+02  0.11780528398E+03  0.22161923018E+03  0.17200000000E+03 0.  1.
         -6    1    1    2    0  502 -0.72410483659E+02 -0.20241544187E+02  0.22690969140E+03  0.29449109716E+03  0.17200000000E+03 0.  1.
</event>
<event>
 4    1  0.4405880E+000  0.1749972E+03  0.7818608E-02  0.1172734E+00
         21   -1    0    0  503  502  0.00000000000E+00  0.00000000000E+00  0.91007097024E+02  0.91007097024E+02  0.00000000000E+00 0.  1.
         21   -1    0    0  501  503 -0.00000000000E+00 -0.00000000000E+00 -0.48250397723E+03  0.48250397723E+03  0.00000000000E+00 0.  1.
          6    1    1    2  501    0 -0.12492476102E+02  0.29731618234E+02 -0.35348827111E+03  0.39443375730E+03  0.17200000000E+03 0.  1.
         -6    1    1    2    0  502  0.12492476102E+02 -0.29731618234E+02 -0.38008609091E+02  0.17907731695E+03  0.17200000000E+03 0.  1.
</event>
<event>
 4    1  0.4405880E+000  0.2837758E+03  0.7818608E-02  0.1093644E+00
         21   -1    0    0  503  502  0.00000000000E+00  0.00000000000E+00  0.17251533663E+03  0.17251533663E+03  0.00000000000E+00 0. -1.
         21   -1    0    0  501  503 -0.00000000000E+00 -0.00000000000E+00 -0.88159717703E+03  0.88159717703E+03  0.00000000000E+00 0.  1.
          6    1    1    2  501    0  0.53783056141E+02  0.21920789797E+03 -0.71607075441E+03  0.77025063777E+03  0.17200000000E+03 0.  1.
         -6    1    1    2    0  502 -0.53783056141E+02 -0.21920789797E+03  0.69889140180E+01  0.28386187589E+03  0.17200000000E+03 0. -1.
</event>
<event>
 4    1  0.4405880E+000  0.1878376E+03  0.7818608E-02  0.1160426E+00
         21   -1    0    0  503  502  0.00000000000E+00  0.00000000000E+00  0.91722689671E+03  0.91722689671E+03  0.00000000000E+00 0. -1.
         21   -1    0    0  501  503 -0.00000000000E+00 -0.00000000000E+00 -0.57643385901E+02  0.57643385901E+02  0.00000000000E+00 0.  1.
          6    1    1    2  501    0 -0.36864791946E+02 -0.65878231485E+02  0.14864981838E+03  0.23954064952E+03  0.17200000000E+03 0.  1.
         -6    1    1    2    0  502  0.36864791946E+02  0.65878231485E+02  0.71093369243E+03  0.73532963309E+03  0.17200000000E+03 0. -1.
</event>
<event>
 4    1  0.4405880E+000  0.1851746E+03  0.7818608E-02  0.1162887E+00
         21   -1    0    0  503  502  0.00000000000E+00  0.00000000000E+00  0.36967685019E+02  0.36967685019E+02  0.00000000000E+00 0. -1.
         21   -1    0    0  501  503 -0.00000000000E+00 -0.00000000000E+00 -0.11090256811E+04  0.11090256811E+04  0.00000000000E+00 0. -1.
          6    1    1    2  501    0 -0.60830240717E+02 -0.31706823859E+02 -0.30424579590E+03  0.35616729944E+03  0.17200000000E+03 0. -1.
         -6    1    1    2    0  502  0.60830240717E+02  0.31706823859E+02 -0.76781220015E+03  0.78982606665E+03  0.17200000000E+03 0. -1.
</event>
<event>
 4    1  0.4405880E+000  0.2084284E+03  0.7818608E-02  0.1142817E+00
         21   -1    0    0  503  502  0.00000000000E+00  0.00000000000E+00  0.87222722542E+03  0.87222722542E+03  0.00000000000E+00 0.  1.
         21   -1    0    0  501  503 -0.00000000000E+00 -0.00000000000E+00 -0.49856548195E+02  0.49856548195E+02  0.00000000000E+00 0.  1.
          6    1    1    2  501    0 -0.16572898308E+02 -0.11654931371E+03  0.39654753089E+03  0.44798699505E+03  0.17200000000E+03 0.  1.
         -6    1    1    2    0  502  0.16572898308E+02  0.11654931371E+03  0.42582314634E+03  0.47409677856E+03  0.17200000000E+03 0.  1.
</event>
<event>
 4    1  0.4405880E+000  0.2250285E+03  0.7818608E-02  0.1130189E+00
         21   -1    0    0  503  502  0.00000000000E+00  0.00000000000E+00  0.12150451199E+03  0.12150451199E+03  0.00000000000E+00 0.  1.
         21   -1    0    0  501  503 -0.00000000000E+00 -0.00000000000E+00 -0.44051003636E+03  0.44051003636E+03  0.00000000000E+00 0. -1.
          6    1    1    2  501    0  0.30296753163E+02  0.14190107818E+03 -0.94249423657E+02  0.24396877485E+03  0.17200000000E+03 0.  1.
         -6    1    1    2    0  502 -0.30296753163E+02 -0.14190107818E+03 -0.22475610071E+03  0.31804577351E+03  0.17200000000E+03 0. -1.
</event>
<event>
 4    1  0.4405880E+000  0.1870438E+03  0.7818608E-02  0.1161155E+00
         21   -1    0    0  503  502  0.00000000000E+00  0.00000000000E+00  0.72421260416E+02  0.72421260416E+02  0.00000000000E+00 0.  1.
         21   -1    0    0  501  503 -0.00000000000E+00 -0.00000000000E+00 -0.52310763300E+03  0.52310763300E+03  0.00000000000E+00 0.  1.
          6    1    1    2  501    0 -0.12863936334E+02  0.72359582376E+02 -0.30770913662E+03  0.36009762951E+03  0.17200000000E+03 0.  1.
         -6    1    1    2    0  502  0.12863936334E+02 -0.72359582376E+02 -0.14297723596E+03  0.23543126390E+03  0.17200000000E+03 0.  1.
</event>
<event>
 4    1  0.4405880E+000  0.2278677E+03  0.7818608E-02  0.1128150E+00
         21   -1    0    0  501  502  0.00000000000E+00  0.00000000000E+00  0.12582355379E+04  0.12582355379E+04  0.00000000000E+00 0.  1.
         21   -1    0    0  502  503 -0.00000000000E+00 -0.00000000000E+00 -0.42650534730E+02  0.42650534730E+02  0.00000000000E+00 0.  1.
          6    1    1    2  501    0  0.13197956340E+03  0.70150339095E+02  0.72494010767E+03  0.75990909650E+03  0.17200000000E+03 0.  1.
         -6    1    1    2    0  503 -0.13197956340E+03 -0.70150339095E+02  0.49064489554E+03  0.54097697617E+03  0.17200000000E+03 0.  1.
</event>
<event>
 4    1  0.4405880E+000  0.2867931E+03  0.7818608E-02  0.1092036E+00
         21   -1    0    0  501  502  0.00000000000E+00  0.00000000000E+00  0.68843959426E+02  0.68843959426E+02  0.00000000000E+00 0.  1.
         21   -1    0    0  502  503 -0.00000000000E+00 -0.00000000000E+00 -0.14277438665E+04  0.14277438665E+04  0.00000000000E+00 0. -1.
          6    1    1    2  501    0  0.22196829073E+03 -0.58278078811E+02 -0.37715304332E+03  0.47380868992E+03  0.17200000000E+03 0. -1.
         -6    1    1    2    0  503 -0.22196829073E+03  0.58278078811E+02 -0.98174686376E+03  0.10227791360E+04  0.17200000000E+03 0. -1.
</event>
<event>
 4    1  0.4405880E+000  0.2150116E+03  0.7818608E-02  0.1137658E+00
         21   -1    0    0  503  502  0.00000000000E+00  0.00000000000E+00  0.42042954220E+03  0.42042954220E+03  0.00000000000E+00 0. -1.
         21   -1    0    0  501  503 -0.00000000000E+00 -0.00000000000E+00 -0.12436138587E+03  0.12436138587E+03  0.00000000000E+00 0. -1.
          6    1    1    2  501    0 -0.35384908927E+02  0.12407209249E+03  0.24073319813E+03  0.32277306052E+03  0.17200000000E+03 0. -1.
         -6    1    1    2    0  502  0.35384908927E+02 -0.12407209249E+03  0.55334958200E+02  0.22201786756E+03  0.17200000000E+03 0. -1.
</event>
<event>
 4    1  0.4405880E+000  0.1863015E+03  0.7818608E-02  0.1161840E+00
         21   -1    0    0  501  502  0.00000000000E+00  0.00000000000E+00  0.73175810725E+03  0.73175810725E+03  0.00000000000E+00 0.  1.
         21   -1    0    0  502  503 -0.00000000000E+00 -0.00000000000E+00 -0.47827139512E+02  0.47827139512E+02  0.00000000000E+00 0. -1.
          6    1    1    2  501    0  0.70285368456E+02 -0.13572198774E+02  0.30650403149E+03  0.35868225342E+03  0.17200000000E+03 0. -1.
         -6    1    1    2    0  503 -0.70285368456E+02  0.13572198774E+02  0.37742693625E+03  0.42090299334E+03  0.17200000000E+03 0.  1.
</event>
<event>
 4    1  0.4405880E+000  0.2273033E+03  0.7818608E-02  0.1128552E+00
         21   -1    0    0  503  502  0.00000000000E+00  0.00000000000E+00  0.34288189593E+03  0.34288189593E+03  0.00000000000E+00 0.  1.
         21   -1    0    0  501  503 -0.00000000000E+00 -0.00000000000E+00 -0.16179606966E+03  0.16179606966E+03  0.00000000000E+00 0. -1.
          6    1    1    2  501    0 -0.12820702325E+03  0.75138281302E+02  0.24412899825E+02  0.22861056801E+03  0.17200000000E+03 0.  1.
         -6    1    1    2    0  502  0.12820702325E+03 -0.75138281302E+02  0.15667292644E+03  0.27606739758E+03  0.17200000000E+03 0.  1.
</event>
<event>
 4    1  0.4405880E+000  0.1905659E+03  0.7818608E-02  0.1157952E+00
         21   -1    0    0  501  502  0.00000000000E+00  0.00000000000E+00  0.15099841968E+03  0.15099841968E+03  0.00000000000E+00 0.  1.
         21   -1    0    0  502  503 -0.00000000000E+00 -0.00000000000E+00 -0.29097413806E+03  0.29097413806E+03  0.00000000000E+00 0.  1.
          6    1    1    2  501    0  0.18917295981E+02 -0.79834104015E+02  0.22049905892E+02  0.19183729200E+03  0.17200000000E+03 0. -1.
         -6    1    1    2    0  503 -0.18917295981E+02  0.79834104015E+02 -0.16202562427E+03  0.25013526575E+03  0.17200000000E+03 0. -1.
</event>
<event>
 4    1  0.4405880E+000  0.1743513E+03  0.7818608E-02  0.1173385E+00
         21   -1    0    0  501  502  0.00000000000E+00  0.00000000000E+00  0.10330267659E+04  0.10330267659E+04  0.00000000000E+00 0. -1.
         21   -1    0    0  502  503 -0.00000000000E+00 -0.00000000000E+00 -0.40690899058E+02  0.40690899058E+02  0.00000000000E+00 0. -1.
          6    1    1    2  501    0  0.37366355754E+01  0.28291762121E+02  0.77863318122E+03  0.79791479316E+03  0.17200000000E+03 0. -1.
         -6    1    1    2    0  503 -0.37366355754E+01 -0.28291762121E+02  0.21370268563E+03  0.27580287180E+03  0.17200000000E+03 0. -1.
</event>
<event>
 4    1  0.4405880E+000  0.3641277E+03  0.7818608E-02  0.1056961E+00
         21   -1    0    0  503  502  0.00000000000E+00  0.00000000000E+00  0.15306604887E+03  0.15306604887E+03  0.00000000000E+00 0. -1.
         21   -1    0    0  501  503 -0.00000000000E+00 -0.00000000000E+00 -0.94193998026E+03  0.94193998026E+03  0.00000000000E+00 0. -1.
          6    1    1    2  501    0  0.79586760490E+02 -0.31091948367E+03 -0.54966786724E+03  0.65933583404E+03  0.17200000000E+03 0. -1.
         -6    1    1    2    0  502 -0.79586760490E+02  0.31091948367E+03 -0.23920606415E+03  0.43567019510E+03  0.17200000000E+03 0. -1.
</event>
<event>
 4    1  0.4405880E+000  0.1967809E+03  0.7818608E-02  0.1152484E+00
         21   -1    0    0  503  502  0.00000000000E+00  0.00000000000E+00  0.27637340877E+03  0.27637340877E+03  0.00000000000E+00 0. -1.
         21   -1    0    0  501  503 -0.00000000000E+00 -0.00000000000E+00 -0.65692607761E+03  0.65692607761E+03  0.00000000000E+00 0.  1.
          6    1    1    2  501    0  0.30215897838E+02 -0.90695807528E+02 -0.60418136930E+03  0.63541943391E+03  0.17200000000E+03 0.  1.
         -6    1    1    2    0  502 -0.30215897838E+02  0.90695807528E+02  0.22362870046E+03  0.29788005246E+03  0.17200000000E+03 0. -1.
</event>
<event>
 4    1  0.4405880E+000  0.1934772E+03  0.7818608E-02  0.1155362E+00
         21   -1    0    0  501  502  0.00000000000E+00  0.00000000000E+00  0.48391570004E+03  0.48391570004E+03  0.00000000000E+00 0.  1.
         21   -1    0    0  502  503 -0.00000000000E+00 -0.00000000000E+00 -0.77477584256E+02  0.77477584256E+02  0.00000000000E+00 0. -1.
          6    1    1    2  501    0 -0.85449226506E+02 -0.23406258720E+02  0.21437255629E+03  0.28877156396E+03  0.17200000000E+03 0.  1.
         -6    1    1    2    0  503  0.85449226506E+02  0.23406258720E+02  0.19206555949E+03  0.27262172034E+03  0.17200000000E+03 0. -1.
</event>
<event>
 4    1  0.4405880E+000  0.2021047E+03  0.7818608E-02  0.1147975E+00
         21   -1    0    0  503  502  0.00000000000E+00  0.00000000000E+00  0.20199337327E+04  0.20199337327E+04  0.00000000000E+00 0. -1.
         21   -1    0    0  501  503 -0.00000000000E+00 -0.00000000000E+00 -0.10008454832E+03  0.10008454832E+03  0.00000000000E+00 0. -1.
          6    1    1    2  501    0  0.45224937868E+02 -0.96005263124E+02  0.13036304428E+02  0.20252469179E+03  0.17200000000E+03 0. -1.
         -6    1    1    2    0  502 -0.45224937868E+02  0.96005263124E+02  0.19068128800E+04  0.19174935892E+04  0.17200000000E+03 0. -1.
</event>
<event>
 4    1  0.4405880E+000  0.2023754E+03  0.7818608E-02  0.1147750E+00
         21   -1    0    0  503  502  0.00000000000E+00  0.00000000000E+00  0.40055135779E+02  0.40055135779E+02  0.00000000000E+00 0.  1.
         21   -1    0    0  501  503 -0.00000000000E+00 -0.00000000000E+00 -0.12469681521E+04  0.12469681521E+04  0.00000000000E+00 0. -1.
          6    1    1    2  501    0 -0.10176934359E+03 -0.31855857668E+02 -0.87649264774E+03  0.89955275360E+03  0.17200000000E+03 0. -1.
         -6    1    1    2    0  502  0.10176934359E+03  0.31855857668E+02 -0.33042036856E+03  0.38747053426E+03  0.17200000000E+03 0.  1.
</event>
<event>
 4    1  0.4405880E+000  0.2001023E+03  0.7818608E-02  0.1149653E+00
         21   -1    0    0  503  502  0.00000000000E+00  0.00000000000E+00  0.98637752643E+02  0.98637752643E+02  0.00000000000E+00 0.  1.
         21   -1    0    0  501  503 -0.00000000000E+00 -0.00000000000E+00 -0.47650055053E+03  0.47650055053E+03  0.00000000000E+00 0.  1.
          6    1    1    2  501    0  0.78928938748E+02 -0.65016709708E+02 -0.29959210227E+03  0.36027264350E+03  0.17200000000E+03 0.  1.
         -6    1    1    2    0  502 -0.78928938748E+02  0.65016709708E+02 -0.78270695613E+02  0.21486565967E+03  0.17200000000E+03 0.  1.
</event>
<event>
 4    1  0.4405880E+000  0.2010091E+03  0.7818608E-02  0.1148890E+00
         21   -1    0    0  501  502  0.00000000000E+00  0.00000000000E+00  0.29672467005E+02  0.29672467005E+02  0.00000000000E+00 0.  1.
         21   -1    0    0  502  503 -0.00000000000E+00 -0.00000000000E+00 -0.20769004464E+04  0.20769004464E+04  0.00000000000E+00 0.  1.
          6    1    1    2  501    0  0.35669665071E+02 -0.97715510299E+02 -0.40551767523E+03  0.45260272964E+03  0.17200000000E+03 0.  1.
         -6    1    1    2    0  503 -0.35669665071E+02  0.97715510299E+02 -0.16417103042E+04  0.16539701838E+04  0.17200000000E+03 0.  1.
</event>
<event>
 4    1  0.4405880E+000  0.1721662E+03  0.7818608E-02  0.1175608E+00
         21   -1    0    0  501  502  0.00000000000E+00  0.00000000000E+00  0.25797010980E+04  0.25797010980E+04  0.00000000000E+00 0. -1.
         21   -1    0    0  502  503 -0.00000000000E+00 -0.00000000000E+00 -0.25163660744E+02  0.25163660744E+02  0.00000000000E+00 0. -1.
          6    1    1    2  501    0 -0.62658018929E+01 -0.42336200001E+01  0.22373502151E+04  0.22439646095E+04  0.17200000000E+03 0. -1.
         -6    1    1    2    0  503  0.62658018929E+01  0.42336200001E+01  0.31718722225E+03  0.36090014931E+03  0.17200000000E+03 0. -1.
</event>
<event>
 4    1  0.4405880E+000  0.1738907E+03  0.7818608E-02  0.1173850E+00
         21   -1    0    0  501  502  0.00000000000E+00  0.00000000000E+00  0.44390684060E+03  0.44390684060E+03  0.00000000000E+00 0. -1.
         21   -1    0    0  502  503 -0.00000000000E+00 -0.00000000000E+00 -0.82299384590E+02  0.82299384590E+02  0.00000000000E+00 0. -1.
          6    1    1    2  501    0 -0.23415040347E+02  0.10281244416E+02  0.29002059204E+03  0.33815663813E+03  0.17200000000E+03 0. -1.
         -6    1    1    2    0  503  0.23415040347E+02 -0.10281244416E+02  0.71586863965E+02  0.18804958706E+03  0.17200000000E+03 0. -1.
</event>
<event>
 4    1  0.4405880E+000  0.1920872E+03  0.7818608E-02  0.1156592E+00
         21   -1    0    0  501  502  0.00000000000E+00  0.00000000000E+00  0.25211687052E+03  0.25211687052E+03  0.00000000000E+00 0. -1.
         21   -1    0    0  502  503 -0.00000000000E+00 -0.00000000000E+00 -0.34148038611E+03  0.34148038611E+03  0.00000000000E+00 0.  1.
          6    1    1    2  501    0  0.60451245429E+02  0.60490978851E+02  0.17967571697E+03  0.26302257482E+03  0.17200000000E+03 0. -1.
         -6    1    1    2    0  503 -0.60451245429E+02 -0.60490978851E+02 -0.26903923256E+03  0.33057468181E+03  0.17200000000E+03 0.  1.
</event>
<event>
 4    1  0.4405880E+000  0.1896108E+03  0.7818608E-02  0.1158813E+00
         21   -1    0    0  501  502  0.00000000000E+00  0.00000000000E+00  0.21150169533E+03  0.21150169533E+03  0.00000000000E+00 0. -1.
         21   -1    0    0  502  503 -0.00000000000E+00 -0.00000000000E+00 -0.55336749771E+03  0.55336749771E+03  0.00000000000E+00 0. -1.
          6    1    1    2  501    0 -0.63105770420E+02  0.48845957407E+02  0.14738868408E+03  0.24015763575E+03  0.17200000000E+03 0. -1.
         -6    1    1    2    0  503  0.63105770420E+02 -0.48845957407E+02 -0.48925448647E+03  0.52471155728E+03  0.17200000000E+03 0. -1.
</event>
<event>
 4    1  0.4405880E+000  0.2345103E+03  0.7818608E-02  0.1123505E+00
         21   -1    0    0  503  502  0.00000000000E+00  0.00000000000E+00  0.47104504974E+03  0.47104504974E+03  0.00000000000E+00 0.  1.
         21   -1    0    0  501  503 -0.00000000000E+00 -0.00000000000E+00 -0.11820574669E+03  0.11820574669E+03  0.00000000000E+00 0. -1.
          6    1    1    2  501    0  0.10997323798E+03 -0.11539916075E+03  0.14373730170E+03  0.27505543309E+03  0.17200000000E+03 0.  1.
         -6    1    1    2    0  502 -0.10997323798E+03  0.11539916075E+03  0.20910200134E+03  0.31419536333E+03  0.17200000000E+03 0. -1.
</event>
<event>
 4    1  0.4405880E+000  0.2558634E+03  0.7818608E-02  0.1109654E+00
         21   -1    0    0  501  502  0.00000000000E+00  0.00000000000E+00  0.17276252976E+03  0.17276252976E+03  0.00000000000E+00 0. -1.
         21   -1    0    0  502  503 -0.00000000000E+00 -0.00000000000E+00 -0.39411664751E+03  0.39411664751E+03  0.00000000000E+00 0.  1.
          6    1    1    2  501    0  0.12302041053E+03  0.14404177859E+03 -0.16630383321E+03  0.30516064675E+03  0.17200000000E+03 0. -1.
         -6    1    1    2    0  503 -0.12302041053E+03 -0.14404177859E+03 -0.55050284541E+02  0.26171853051E+03  0.17200000000E+03 0. -1.
</event>
<event>
 4    1  0.4405880E+000  0.1782532E+03  0.7818608E-02  0.1169504E+00
         21   -1    0    0  501  502  0.00000000000E+00  0.00000000000E+00  0.14284766699E+03  0.14284766699E+03  0.00000000000E+00 0. -1.
         21   -1    0    0  502  503 -0.00000000000E+00 -0.00000000000E+00 -0.22308153682E+03  0.22308153682E+03  0.00000000000E+00 0. -1.
          6    1    1    2  501    0  0.17834643493E+01 -0.46765668617E+02 -0.30261046560E+02  0.18080359356E+03  0.17200000000E+03 0. -1.
         -6    1    1    2    0  503 -0.17834643493E+01  0.46765668617E+02 -0.49972823266E+02  0.18512561025E+03  0.17200000000E+03 0. -1.
</event>
<event>
 4    1  0.4405880E+000  0.1783264E+03  0.7818608E-02  0.1169433E+00
         21   -1    0    0  503  502  0.00000000000E+00  0.00000000000E+00  0.11525983265E+03  0.11525983265E+03  0.00000000000E+00 0. -1.
         21   -1    0    0  501  503 -0.00000000000E+00 -0.00000000000E+00 -0.40362376843E+03  0.40362376843E+03  0.00000000000E+00 0. -1.
          6    1    1    2  501    0 -0.45968113896E+02 -0.10161082432E+02 -0.29012574032E+03  0.34054846980E+03  0.17200000000E+03 0. -1.
         -6    1    1    2    0  502  0.45968113896E+02  0.10161082432E+02  0.17618045404E+01  0.17833513127E+03  0.17200000000E+03 0. -1.
</event>
<event>
 4    1  0.4405880E+000  0.3262929E+03  0.7818608E-02  0.1072789E+00
         21   -1    0    0  503  502  0.00000000000E+00  0.00000000000E+00  0.84920071863E+03  0.84920071863E+03  0.00000000000E+00 0.  1.
         21   -1    0    0  501  503 -0.00000000000E+00 -0.00000000000E+00 -0.22739131519E+03  0.22739131519E+03  0.00000000000E+00 0. -1.
          6    1    1    2  501    0 -0.26067099649E+03  0.94518154824E+02 -0.49651342981E+02  0.33004894464E+03  0.17200000000E+03 0. -1.
         -6    1    1    2    0  502  0.26067099649E+03 -0.94518154824E+02  0.67146074643E+03  0.74654308917E+03  0.17200000000E+03 0.  1.
</event>
<event>
 4    1  0.4405880E+000  0.1883465E+03  0.7818608E-02  0.1159961E+00
         21   -1    0    0  503  502  0.00000000000E+00  0.00000000000E+00  0.29807026481E+03  0.29807026481E+03  0.00000000000E+00 0.  1.
         21   -1    0    0  501  503 -0.00000000000E+00 -0.00000000000E+00 -0.17742554722E+03  0.17742554722E+03  0.00000000000E+00 0.  1.
          6    1    1    2  501    0 -0.38241462219E+01 -0.76653560910E+02 -0.76091894449E+02  0.20313633081E+03  0.17200000000E+03 0.  1.
         -6    1    1    2    0  502  0.38241462219E+01  0.76653560910E+02  0.19673661204E+03  0.27235948122E+03  0.17200000000E+03 0.  1.
</event>
<event>
 4    1  0.4405880E+000  0.1956673E+03  0.7818608E-02  0.1153447E+00
         21   -1    0    0  501  502  0.00000000000E+00  0.00000000000E+00  0.43643546821E+03  0.43643546821E+03  0.00000000000E+00 0. -1.
         21   -1    0    0  502  503 -0.00000000000E+00 -0.00000000000E+00 -0.93263388265E+02  0.93263388265E+02  0.00000000000E+00 0. -1.
          6    1    1    2  501    0 -0.93109314790E+02  0.56884886081E+01  0.23613494263E+03  0.30666824833E+03  0.17200000000E+03 0. -1.
         -6    1    1    2    0  503  0.93109314790E+02 -0.56884886081E+01  0.10703713731E+03  0.22303060814E+03  0.17200000000E+03 0. -1.
</event>
<event>
 4    1  0.4405880E+000  0.2298754E+03  0.7818608E-02  0.1126728E+00
         21   -1    0    0  501  502  0.00000000000E+00  0.00000000000E+00  0.70655158942E+03  0.70655158942E+03  0.00000000000E+00 0. -1.
         21   -1    0    0  502  503 -0.00000000000E+00 -0.00000000000E+00 -0.22727021473E+03  0.22727021473E+03  0.00000000000E+00 0. -1.
          6    1    1    2  501    0  0.19783086637E+02  0.15121942648E+03  0.62208668600E+03  0.66320021891E+03  0.17200000000E+03 0. -1.
         -6    1    1    2    0  503 -0.19783086637E+02 -0.15121942648E+03 -0.14280531131E+03  0.27062158525E+03  0.17200000000E+03 0. -1.
</event>
<event>
 4    1  0.4405880E+000  0.2530860E+03  0.7818608E-02  0.1111370E+00
         21   -1    0    0  503  502  0.00000000000E+00  0.00000000000E+00  0.47952660800E+03  0.47952660800E+03  0.00000000000E+00 0.  1.
         21   -1    0    0  501  503 -0.00000000000E+00 -0.00000000000E+00 -0.22474519999E+03  0.22474519999E+03  0.00000000000E+00 0.  1.
          6    1    1    2  501    0  0.15606733998E+03  0.10055599798E+03 -0.96890437618E+02  0.27099867203E+03  0.17200000000E+03 0.  1.
         -6    1    1    2    0  502 -0.15606733998E+03 -0.10055599798E+03  0.35167184562E+03  0.43327313596E+03  0.17200000000E+03 0.  1.
</event>
<event>
 4    1  0.4405880E+000  0.1876172E+03  0.7818608E-02  0.1160628E+00
         21   -1    0    0  503  502  0.00000000000E+00  0.00000000000E+00  0.36222740960E+02  0.36222740960E+02  0.00000000000E+00 0. -1.
         21   -1    0    0  501  503 -0.00000000000E+00 -0.00000000000E+00 -0.10366316558E+04  0.10366316558E+04  0.00000000000E+00 0. -1.
          6    1    1    2  501    0  0.74214261775E+02  0.10414311142E+02 -0.63438474919E+03  0.66154684228E+03  0.17200000000E+03 0. -1.
         -6    1    1    2    0  502 -0.74214261775E+02 -0.10414311142E+02 -0.36602416562E+03  0.41130755444E+03  0.17200000000E+03 0. -1.
</event>
<event>
 4    1  0.4405880E+000  0.1875965E+03  0.7818608E-02  0.1160647E+00
         21   -1    0    0  503  502  0.00000000000E+00  0.00000000000E+00  0.20483411078E+03  0.20483411078E+03  0.00000000000E+00 0.  1.
         21   -1    0    0  501  503 -0.00000000000E+00 -0.00000000000E+00 -0.65547942503E+03  0.65547942503E+03  0.00000000000E+00 0.  1.
          6    1    1    2  501    0 -0.46504549223E+02 -0.58700669170E+02 -0.59482889963E+03  0.62370975742E+03  0.17200000000E+03 0.  1.
         -6    1    1    2    0  502  0.46504549223E+02  0.58700669170E+02  0.14418358538E+03  0.23660377840E+03  0.17200000000E+03 0.  1.
</event>
<event>
 4    1  0.4405880E+000  0.1948441E+03  0.7818608E-02  0.1154163E+00
         21   -1    0    0  501  502  0.00000000000E+00  0.00000000000E+00  0.50339403025E+02  0.50339403025E+02  0.00000000000E+00 0. -1.
         21   -1    0    0  502  503 -0.00000000000E+00 -0.00000000000E+00 -0.10646137113E+04  0.10646137113E+04  0.00000000000E+00 0. -1.
          6    1    1    2  501    0 -0.62934201388E+02 -0.66479330171E+02 -0.20609624005E+03  0.28361924336E+03  0.17200000000E+03 0. -1.
         -6    1    1    2    0  503  0.62934201388E+02  0.66479330171E+02 -0.80817806823E+03  0.83133387097E+03  0.17200000000E+03 0. -1.
</event>
<event>
 4    1  0.4405880E+000  0.1853747E+03  0.7818608E-02  0.1162700E+00
         21   -1    0    0  501  502  0.00000000000E+00  0.00000000000E+00  0.49264361158E+02  0.49264361158E+02  0.00000000000E+00 0.  1.
         21   -1    0    0  502  503 -0.00000000000E+00 -0.00000000000E+00 -0.72911125865E+03  0.72911125865E+03  0.00000000000E+00 0.  1.
          6    1    1    2  501    0  0.43676770750E+02  0.53592196166E+02 -0.42091118513E+03  0.45992391714E+03  0.17200000000E+03 0. -1.
         -6    1    1    2    0  503 -0.43676770750E+02 -0.53592196166E+02 -0.25893571236E+03  0.31845170266E+03  0.17200000000E+03 0. -1.
</event>
<event>
 4    1  0.4405880E+000  0.2243795E+03  0.7818608E-02  0.1130659E+00
         21   -1    0    0  501  502  0.00000000000E+00  0.00000000000E+00  0.25644183294E+04  0.25644183294E+04  0.00000000000E+00 0. -1.
         21   -1    0    0  502  503 -0.00000000000E+00 -0.00000000000E+00 -0.22334303989E+02  0.22334303989E+02  0.00000000000E+00 0.  1.
          6    1    1    2  501    0 -0.45380454977E+02 -0.13675816794E+03  0.17208820545E+04  0.17354484226E+04  0.17200000000E+03 0. -1.
         -6    1    1    2    0  503  0.45380454977E+02  0.13675816794E+03  0.82120197100E+03  0.85130421083E+03  0.17200000000E+03 0.  1.
</event>
<event>
 4    1  0.4405880E+000  0.1777161E+03  0.7818608E-02  0.1170032E+00
         21   -1    0    0  501  502  0.00000000000E+00  0.00000000000E+00  0.90034159844E+02  0.90034159844E+02  0.00000000000E+00 0. -1.
         21   -1    0    0  502  503 -0.00000000000E+00 -0.00000000000E+00 -0.35124004112E+03  0.35124004112E+03  0.00000000000E+00 0. -1.
          6    1    1    2  501    0  0.14069397717E+02 -0.42438979429E+02 -0.12269857957E+03  0.21595822826E+03  0.17200000000E+03 0. -1.
         -6    1    1    2    0  503 -0.14069397717E+02  0.42438979429E+02 -0.13850730171E+03  0.22531597270E+03  0.17200000000E+03 0. -1.
</event>
<event>
 4    1  0.4405880E+000  0.1731139E+03  0.7818608E-02  0.1174639E+00
         21   -1    0    0  501  502  0.00000000000E+00  0.00000000000E+00  0.57730736856E+03  0.57730736856E+03  0.00000000000E+00 0.  1.
         21   -1    0    0  502  503 -0.00000000000E+00 -0.00000000000E+00 -0.82356741249E+02  0.82356741249E+02  0.00000000000E+00 0.  1.
          6    1    1    2  501    0 -0.10903734444E+02  0.16294617545E+02  0.44801899884E+03  0.48030139424E+03  0.17200000000E+03 0.  1.
         -6    1    1    2    0  503  0.10903734444E+02 -0.16294617545E+02  0.46931628472E+02  0.17936271557E+03  0.17200000000E+03 0.  1.
</event>
<event>
 4    1  0.4405880E+000  0.1873169E+03  0.7818608E-02  0.1160904E+00
         21   -1    0    0  501  502  0.00000000000E+00  0.00000000000E+00  0.40023098758E+02  0.40023098758E+02  0.00000000000E+00 0.  1.
         21   -1    0    0  502  503 -0.00000000000E+00 -0.00000000000E+00 -0.11326479499E+04  0.11326479499E+04  0.00000000000E+00 0.  1.
          6    1    1    2  501    0 -0.71788879095E+02  0.18707207276E+02 -0.26757948433E+03  0.32662881563E+03  0.17200000000E+03 0.  1.
         -6    1    1    2    0  503  0.71788879095E+02 -0.18707207276E+02 -0.82504536678E+03  0.84604223300E+03  0.17200000000E+03 0.  1.
</event>
<event>
 4    1  0.4405880E+000  0.1775843E+03  0.7818608E-02  0.1170162E+00
         21   -1    0    0  501  502  0.00000000000E+00  0.00000000000E+00  0.96821121855E+03  0.96821121855E+03  0.00000000000E+00 0.  1.
         21   -1    0    0  502  503 -0.00000000000E+00 -0.00000000000E+00 -0.43723910463E+02  0.43723910463E+02  0.00000000000E+00 0. -1.
          6    1    1    2  501    0 -0.17013817000E+02 -0.40776507310E+02  0.71777577747E+03  0.73941751415E+03  0.17200000000E+03 0.  1.
         -6    1    1    2    0  503  0.17013817000E+02  0.40776507310E+02  0.20671153062E+03  0.27251761486E+03  0.17200000000E+03 0. -1.
</event>
<event>
 4    1  0.4405880E+000  0.2639582E+03  0.7818608E-02  0.1104788E+00
         21   -1    0    0  501  502  0.00000000000E+00  0.00000000000E+00  0.29829346475E+03  0.29829346475E+03  0.00000000000E+00 0. -1.
         21   -1    0    0  502  503 -0.00000000000E+00 -0.00000000000E+00 -0.24171520100E+03  0.24171520100E+03  0.00000000000E+00 0.  1.
          6    1    1    2  501    0  0.11459170513E+03 -0.16419098696E+03  0.77837854895E+02  0.27519569534E+03  0.17200000000E+03 0.  1.
         -6    1    1    2    0  503 -0.11459170513E+03  0.16419098696E+03 -0.21259591145E+02  0.26481297041E+03  0.17200000000E+03 0.  1.
</event>
<event>
 4    1  0.4405880E+000  0.2219260E+03  0.7818608E-02  0.1132455E+00
         21   -1    0    0  503  502  0.00000000000E+00  0.00000000000E+00  0.63032758459E+02  0.63032758459E+02  0.00000000000E+00 0.  1.
         21   -1    0    0  501  503 -0.00000000000E+00 -0.00000000000E+00 -0.10919632872E+04  0.10919632872E+04  0.00000000000E+00 0.  1.
          6    1    1    2  501    0  0.83434603797E+02  0.11272004136E+03 -0.82246547092E+03  0.85188062056E+03  0.17200000000E+03 0.  1.
         -6    1    1    2    0  502 -0.83434603797E+02 -0.11272004136E+03 -0.20646505785E+03  0.30311542512E+03  0.17200000000E+03 0.  1.
</event>
<event>
 4    1  0.4405880E+000  0.2575685E+03  0.7818608E-02  0.1108613E+00
         21   -1    0    0  503  502  0.00000000000E+00  0.00000000000E+00  0.19302328199E+04  0.19302328199E+04  0.00000000000E+00 0.  1.
         21   -1    0    0  501  503 -0.00000000000E+00 -0.00000000000E+00 -0.54199832509E+02  0.54199832509E+02  0.00000000000E+00 0. -1.
          6    1    1    2  501    0 -0.12715688220E+03  0.14348743013E+03  0.33785206978E+03  0.42483589344E+03  0.17200000000E+03 0. -1.
         -6    1    1    2    0  502  0.12715688220E+03 -0.14348743013E+03  0.15381809176E+04  0.15595967590E+04  0.17200000000E+03 0.  1.
</event>
<event>
 4    1  0.4405880E+000  0.2118750E+03  0.7818608E-02  0.1140090E+00
         21   -1    0    0  503  502  0.00000000000E+00  0.00000000000E+00  0.49692525571E+02  0.49692525571E+02  0.00000000000E+00 0.  1.
         21   -1    0    0  501  503 -0.00000000000E+00 -0.00000000000E+00 -0.12782113156E+04  0.12782113156E+04  0.00000000000E+00 0. -1.
          6    1    1    2  501    0 -0.90248523400E+02  0.84629882007E+02 -0.97380651202E+03  0.99658925127E+03  0.17200000000E+03 0. -1.
         -6    1    1    2    0  502  0.90248523400E+02 -0.84629882007E+02 -0.25471227797E+03  0.33131458986E+03  0.17200000000E+03 0.  1.
</event>
<event>
 4    1  0.4405880E+000  0.3328206E+03  0.7818608E-02  0.1069896E+00
         21   -1    0    0  503  502  0.00000000000E+00  0.00000000000E+00  0.63046685628E+03  0.63046685628E+03  0.00000000000E+00 0.  1.
         21   -1    0    0  501  503 -0.00000000000E+00 -0.00000000000E+00 -0.21841068091E+03  0.21841068091E+03  0.00000000000E+00 0. -1.
          6    1    1    2  501    0 -0.28325430515E+03  0.30862966972E+02  0.39373255117E+03  0.51555295166E+03  0.17200000000E+03 0.  1.
         -6    1    1    2    0  502  0.28325430515E+03 -0.30862966972E+02  0.18323624197E+02  0.33332458553E+03  0.17200000000E+03 0. -1.
</event>
<event>
 4    1  0.4405880E+000  0.1951618E+03  0.7818608E-02  0.1153886E+00
         21   -1    0    0  501  502  0.00000000000E+00  0.00000000000E+00  0.70822509541E+03  0.70822509541E+03  0.00000000000E+00 0. -1.
         21   -1    0    0  502  503 -0.00000000000E+00 -0.00000000000E+00 -0.55969001004E+02  0.55969001004E+02  0.00000000000E+00 0.  1.
          6    1    1    2  501    0 -0.28272720672E+02  0.87776934753E+02  0.40169851395E+03  0.44659806663E+03  0.17200000000E+03 0. -1.
         -6    1    1    2    0  503  0.28272720672E+02 -0.87776934753E+02  0.25055758045E+03  0.31759602978E+03  0.17200000000E+03 0.  1.
</event>
<event>
 4    1  0.4405880E+000  0.1982209E+03  0.7818608E-02  0.1151249E+00
         21   -1    0    0  501  502  0.00000000000E+00  0.00000000000E+00  0.90238174431E+03  0.90238174431E+03  0.00000000000E+00 0. -1.
         21   -1    0    0  502  503 -0.00000000000E+00 -0.00000000000E+00 -0.46000677110E+02  0.46000677110E+02  0.00000000000E+00 0. -1.
          6    1    1    2  501    0  0.72572672135E+02  0.66638870081E+02  0.53781805828E+03  0.57318391076E+03  0.17200000000E+03 0. -1.
         -6    1    1    2    0  503 -0.72572672135E+02 -0.66638870081E+02  0.31856300892E+03  0.37519851066E+03  0.17200000000E+03 0. -1.
</event>
<event>
 4    1  0.4405880E+000  0.1878910E+03  0.7818608E-02  0.1160377E+00
         21   -1    0    0  501  502  0.00000000000E+00  0.00000000000E+00  0.72419766476E+03  0.72419766476E+03  0.00000000000E+00 0. -1.
         21   -1    0    0  502  503 -0.00000000000E+00 -0.00000000000E+00 -0.10887914159E+03  0.10887914159E+03  0.00000000000E+00 0. -1.
          6    1    1    2  501    0  0.37907095071E+02 -0.65437674686E+02  0.61721095156E+03  0.64517625177E+03  0.17200000000E+03 0. -1.
         -6    1    1    2    0  503 -0.37907095071E+02  0.65437674686E+02 -0.18924283878E+01  0.18790055458E+03  0.17200000000E+03 0. -1.
</event>
<event>
 4    1  0.4405880E+000  0.1901773E+03  0.7818608E-02  0.1158302E+00
         21   -1    0    0  501  502  0.00000000000E+00  0.00000000000E+00  0.10178985160E+04  0.10178985160E+04  0.00000000000E+00 0. -1.
         21   -1    0    0  502  503 -0.00000000000E+00 -0.00000000000E+00 -0.46324788071E+02  0.46324788071E+02  0.00000000000E+00 0. -1.
          6    1    1    2  501    0 -0.75034933461E+02 -0.30873103124E+02  0.74263377295E+03  0.76659788055E+03  0.17200000000E+03 0. -1.
         -6    1    1    2    0  503  0.75034933461E+02  0.30873103124E+02  0.22893995494E+03  0.29762542348E+03  0.17200000000E+03 0. -1.
</event>
<event>
 4    1  0.4405880E+000  0.2907086E+03  0.7818608E-02  0.1089980E+00
         21   -1    0    0  503  502  0.00000000000E+00  0.00000000000E+00  0.51149485657E+03  0.51149485657E+03  0.00000000000E+00 0.  1.
         21   -1    0    0  501  503 -0.00000000000E+00 -0.00000000000E+00 -0.27681343765E+03  0.27681343765E+03  0.00000000000E+00 0. -1.
          6    1    1    2  501    0  0.23292351843E+03 -0.25963758141E+02  0.36759589576E+03  0.46865576360E+03  0.17200000000E+03 0.  1.
         -6    1    1    2    0  502 -0.23292351843E+03  0.25963758141E+02 -0.13291447684E+03  0.31965253061E+03  0.17200000000E+03 0. -1.
</event>
<event>
 4    1  0.4405880E+000  0.1831168E+03  0.7818608E-02  0.1164820E+00
         21   -1    0    0  503  502  0.00000000000E+00  0.00000000000E+00  0.45232895088E+03  0.45232895088E+03  0.00000000000E+00 0.  1.
         21   -1    0    0  501  503 -0.00000000000E+00 -0.00000000000E+00 -0.67948746718E+03  0.67948746718E+03  0.00000000000E+00 0.  1.
          6    1    1    2  501    0  0.38437361372E+02 -0.49702306669E+02 -0.64772619311E+03  0.67311289638E+03  0.17200000000E+03 0.  1.
         -6    1    1    2    0  502 -0.38437361372E+02  0.49702306669E+02  0.42056767680E+03  0.45870352169E+03  0.17200000000E+03 0.  1.
</event>
<event>
 4    1  0.4405880E+000  0.2499386E+03  0.7818608E-02  0.1113344E+00
         21   -1    0    0  501  502  0.00000000000E+00  0.00000000000E+00  0.95895572179E+03  0.95895572179E+03  0.00000000000E+00 0.  1.
         21   -1    0    0  502  503 -0.00000000000E+00 -0.00000000000E+00 -0.72442910675E+02  0.72442910675E+02  0.00000000000E+00 0. -1.
          6    1    1    2  501    0  0.10013086355E+03  0.15119236936E+03  0.60695887000E+03  0.65640566136E+03  0.17200000000E+03 0.  1.
         -6    1    1    2    0  503 -0.10013086355E+03 -0.15119236936E+03  0.27955394111E+03  0.37499297111E+03  0.17200000000E+03 0. -1.
</event>
<event>
 4    1  0.4405880E+000  0.3319529E+03  0.7818608E-02  0.1070276E+00
         21   -1    0    0  501  502  0.00000000000E+00  0.00000000000E+00  0.15092410038E+03  0.15092410038E+03  0.00000000000E+00 0. -1.
         21   -1    0    0  502  503 -0.00000000000E+00 -0.00000000000E+00 -0.73063803537E+03  0.73063803537E+03  0.00000000000E+00 0.  1.
          6    1    1    2  501    0  0.11517344310E+03 -0.25950685124E+03 -0.30159203966E+03  0.44849803368E+03  0.17200000000E+03 0.  1.
         -6    1    1    2    0  503 -0.11517344310E+03  0.25950685124E+03 -0.27812189533E+03  0.43306410206E+03  0.17200000000E+03 0. -1.
</event>
<event>
 4    1  0.4405880E+000  0.2849436E+03  0.7818608E-02  0.1093019E+00
         21   -1    0    0  501  502  0.00000000000E+00  0.00000000000E+00  0.17629587957E+03  0.17629587957E+03  0.00000000000E+00 0. -1.
         21   -1    0    0  502  503 -0.00000000000E+00 -0.00000000000E+00 -0.52586782039E+03  0.52586782039E+03  0.00000000000E+00 0.  1.
          6    1    1    2  501    0 -0.20240984487E+03 -0.10314597569E+03 -0.51051628009E+02  0.28948075294E+03  0.17200000000E+03 0. -1.
         -6    1    1    2    0  503  0.20240984487E+03  0.10314597569E+03 -0.29852031281E+03  0.41268294702E+03  0.17200000000E+03 0.  1.
</event>
<event>
 4    1  0.4405880E+000  0.1866165E+03  0.7818608E-02  0.1161549E+00
         21   -1    0    0  503  502  0.00000000000E+00  0.00000000000E+00  0.72050092265E+03  0.72050092265E+03  0.00000000000E+00 0. -1.
         21   -1    0    0  501  503 -0.00000000000E+00 -0.00000000000E+00 -0.10746908677E+03  0.10746908677E+03  0.00000000000E+00 0. -1.
          6    1    1    2  501    0 -0.32751306080E+02 -0.64568388198E+02 -0.57020023695E+00  0.18661738915E+03  0.17200000000E+03 0. -1.
         -6    1    1    2    0  502  0.32751306080E+02  0.64568388198E+02  0.61360203611E+03  0.64135262027E+03  0.17200000000E+03 0. -1.
</event>
<event>
 4    1  0.4405880E+000  0.1854279E+03  0.7818608E-02  0.1162651E+00
         21   -1    0    0  503  502  0.00000000000E+00  0.00000000000E+00  0.84348967328E+02  0.84348967328E+02  0.00000000000E+00 0.  1.
         21   -1    0    0  501  503 -0.00000000000E+00 -0.00000000000E+00 -0.41949759592E+03  0.41949759592E+03  0.00000000000E+00 0. -1.
          6    1    1    2  501    0  0.16010940097E+02  0.67403053200E+02 -0.20993944206E+03  0.28010371493E+03  0.17200000000E+03 0. -1.
         -6    1    1    2    0  502 -0.16010940097E+02 -0.67403053200E+02 -0.12520918653E+03  0.22374284832E+03  0.17200000000E+03 0.  1.
</event>
<event>
 4    1  0.4405880E+000  0.1899423E+03  0.7818608E-02  0.1158513E+00
         21   -1    0    0  501  502  0.00000000000E+00  0.00000000000E+00  0.34541736181E+02  0.34541736181E+02  0.00000000000E+00 0.  1.
         21   -1    0    0  502  503 -0.00000000000E+00 -0.00000000000E+00 -0.10638551395E+04  0.10638551395E+04  0.00000000000E+00 0.  1.
          6    1    1    2  501    0  0.32381289896E+02  0.73793833165E+02 -0.58877658918E+03  0.61865656847E+03  0.17200000000E+03 0.  1.
         -6    1    1    2    0  503 -0.32381289896E+02 -0.73793833165E+02 -0.44053681415E+03  0.47974030722E+03  0.17200000000E+03 0.  1.
</event>
<event>
 4    1  0.4405880E+000  0.2415182E+03  0.7818608E-02  0.1118786E+00
         21   -1    0    0  501  502  0.00000000000E+00  0.00000000000E+00  0.31907802233E+03  0.31907802233E+03  0.00000000000E+00 0. -1.
         21   -1    0    0  502  503 -0.00000000000E+00 -0.00000000000E+00 -0.18357410173E+03  0.18357410173E+03  0.00000000000E+00 0.  1.
          6    1    1    2  501    0  0.16118877132E+03  0.52585247820E+02  0.83954128579E+02  0.25569380906E+03  0.17200000000E+03 0. -1.
         -6    1    1    2    0  503 -0.16118877132E+03 -0.52585247820E+02  0.51549792020E+02  0.24695831500E+03  0.17200000000E+03 0.  1.
</event>
<event>
 4    1  0.4405880E+000  0.1828812E+03  0.7818608E-02  0.1165043E+00
         21   -1    0    0  503  502  0.00000000000E+00  0.00000000000E+00  0.54402277532E+02  0.54402277532E+02  0.00000000000E+00 0. -1.
         21   -1    0    0  501  503 -0.00000000000E+00 -0.00000000000E+00 -0.61616139661E+03  0.61616139661E+03  0.00000000000E+00 0. -1.
          6    1    1    2  501    0 -0.57148969840E+02  0.24403567545E+02 -0.26501553017E+03  0.32199187893E+03  0.17200000000E+03 0. -1.
         -6    1    1    2    0  502  0.57148969840E+02 -0.24403567545E+02 -0.29674358890E+03  0.34857179521E+03  0.17200000000E+03 0. -1.
</event>
<event>
 4    1  0.4405880E+000  0.2153756E+03  0.7818608E-02  0.1137378E+00
         21   -1    0    0  501  502  0.00000000000E+00  0.00000000000E+00  0.21709218114E+03  0.21709218114E+03  0.00000000000E+00 0. -1.
         21   -1    0    0  502  503 -0.00000000000E+00 -0.00000000000E+00 -0.23241317813E+03  0.23241317813E+03  0.00000000000E+00 0.  1.
          6    1    1    2  501    0  0.10305333213E+03 -0.78629771393E+02  0.56161014222E+02  0.22257737920E+03  0.17200000000E+03 0. -1.
         -6    1    1    2    0  503 -0.10305333213E+03  0.78629771393E+02 -0.71482011210E+02  0.22692798007E+03  0.17200000000E+03 0.  1.
</event>
<event>
 4    1  0.4405880E+000  0.2242658E+03  0.7818608E-02  0.1130742E+00
         21   -1    0    0  503  502  0.00000000000E+00  0.00000000000E+00  0.12709561007E+03  0.12709561007E+03  0.00000000000E+00 0. -1.
         21   -1    0    0  501  503 -0.00000000000E+00 -0.00000000000E+00 -0.55110622173E+03  0.55110622173E+03  0.00000000000E+00 0. -1.
          6    1    1    2  501    0 -0.76039058778E+02  0.12218518734E+03 -0.31949204263E+02  0.22653015278E+03  0.17200000000E+03 0. -1.
         -6    1    1    2    0  502  0.76039058778E+02 -0.12218518734E+03 -0.39206140739E+03  0.45167167902E+03  0.17200000000E+03 0. -1.
</event>
<event>
 4    1  0.4405880E+000  0.2577684E+03  0.7818608E-02  0.1108491E+00
         21   -1    0    0  501  502  0.00000000000E+00  0.00000000000E+00  0.24184239227E+03  0.24184239227E+03  0.00000000000E+00 0.  1.
         21   -1    0    0  502  503 -0.00000000000E+00 -0.00000000000E+00 -0.28315545087E+03  0.28315545087E+03  0.00000000000E+00 0.  1.
          6    1    1    2  501    0  0.83010989264E+02  0.17311762626E+03 -0.65901765929E+02  0.26605935355E+03  0.17200000000E+03 0.  1.
         -6    1    1    2    0  503 -0.83010989264E+02 -0.17311762626E+03  0.24588707330E+02  0.25893848959E+03  0.17200000000E+03 0.  1.
</event>
<event>
 4    1  0.4405880E+000  0.2467470E+03  0.7818608E-02  0.1115378E+00
         21   -1    0    0  501  502  0.00000000000E+00  0.00000000000E+00  0.58645178628E+02  0.58645178628E+02  0.00000000000E+00 0. -1.
         21   -1    0    0  502  503 -0.00000000000E+00 -0.00000000000E+00 -0.11241928238E+04  0.11241928238E+04  0.00000000000E+00 0.  1.
          6    1    1    2  501    0 -0.17516760930E+03 -0.24826860823E+02 -0.36918089294E+03  0.44404796597E+03  0.17200000000E+03 0. -1.
         -6    1    1    2    0  503  0.17516760930E+03  0.24826860823E+02 -0.69636675225E+03  0.73879003648E+03  0.17200000000E+03 0. -1.
</event>
<event>
 4    1  0.4405880E+000  0.1855645E+03  0.7818608E-02  0.1162524E+00
         21   -1    0    0  501  502  0.00000000000E+00  0.00000000000E+00  0.79194508064E+02  0.79194508064E+02  0.00000000000E+00 0.  1.
         21   -1    0    0  502  503 -0.00000000000E+00 -0.00000000000E+00 -0.43480530550E+03  0.43480530550E+03  0.00000000000E+00 0.  1.
          6    1    1    2  501    0 -0.27495381853E+02 -0.63985849154E+02 -0.17792419804E+03  0.25708209810E+03  0.17200000000E+03 0. -1.
         -6    1    1    2    0  503  0.27495381853E+02  0.63985849154E+02 -0.17768659940E+03  0.25691771547E+03  0.17200000000E+03 0. -1.
</event>
<event>
 4    1  0.4405880E+000  0.2079407E+03  0.7818608E-02  0.1143207E+00
         21   -1    0    0  503  502  0.00000000000E+00  0.00000000000E+00  0.43208502550E+02  0.43208502550E+02  0.00000000000E+00 0. -1.
         21   -1    0    0  501  503 -0.00000000000E+00 -0.00000000000E+00 -0.12453470031E+04  0.12453470031E+04  0.00000000000E+00 0.  1.
          6    1    1    2  501    0 -0.93185892825E+02  0.70510441753E+02 -0.88662169836E+03  0.91067961930E+03  0.17200000000E+03 0.  1.
         -6    1    1    2    0  502  0.93185892825E+02 -0.70510441753E+02 -0.31551680221E+03  0.37787588637E+03  0.17200000000E+03 0. -1.
</event>
<event>
 4    1  0.4405880E+000  0.1946739E+03  0.7818608E-02  0.1154312E+00
         21   -1    0    0  501  502  0.00000000000E+00  0.00000000000E+00  0.80471134115E+03  0.80471134115E+03  0.00000000000E+00 0.  1.
         21   -1    0    0  502  503 -0.00000000000E+00 -0.00000000000E+00 -0.77168711778E+02  0.77168711778E+02  0.00000000000E+00 0. -1.
          6    1    1    2  501    0  0.86866992629E+02 -0.27713539702E+02  0.63903702151E+03  0.66803160820E+03  0.17200000000E+03 0.  1.
         -6    1    1    2    0  503 -0.86866992629E+02  0.27713539702E+02  0.88505607864E+02  0.21384844473E+03  0.17200000000E+03 0. -1.
</event>
<event>
 4    1  0.4405880E+000  0.2262807E+03  0.7818608E-02  0.1129285E+00
         21   -1    0    0  503  502  0.00000000000E+00  0.00000000000E+00  0.80905052728E+02  0.80905052728E+02  0.00000000000E+00 0.  1.
         21   -1    0    0  501  503 -0.00000000000E+00 -0.00000000000E+00 -0.66410296197E+03  0.66410296197E+03  0.00000000000E+00 0. -1.
          6    1    1    2  501    0 -0.96625309424E+02  0.11082653572E+03 -0.37237248365E+03  0.43573413685E+03  0.17200000000E+03 0. -1.
         -6    1    1    2    0  502  0.96625309424E+02 -0.11082653572E+03 -0.21082542559E+03  0.30927387784E+03  0.17200000000E+03 0.  1.
</event>
<event>
 4    1  0.4405880E+000  0.1889004E+03  0.7818608E-02  0.1159457E+00
         21   -1    0    0  501  502  0.00000000000E+00  0.00000000000E+00  0.34437448972E+02  0.34437448972E+02  0.00000000000E+00 0.  1.
         21   -1    0    0  502  503 -0.00000000000E+00 -0.00000000000E+00 -0.12382497616E+04  0.12382497616E+04  0.00000000000E+00 0.  1.
          6    1    1    2  501    0 -0.72382032412E+02 -0.29329512777E+02 -0.34484364212E+03  0.39319272177E+03  0.17200000000E+03 0.  1.
         -6    1    1    2    0  503  0.72382032412E+02  0.29329512777E+02 -0.85896867054E+03  0.87949448885E+03  0.17200000000E+03 0.  1.
</event>
<event>
 4    1  0.4405880E+000  0.2101866E+03  0.7818608E-02  0.1141418E+00
         21   -1    0    0  501  502  0.00000000000E+00  0.00000000000E+00  0.30517645465E+03  0.30517645465E+03  0.00000000000E+00 0. -1.
         21   -1    0    0  502  503 -0.00000000000E+00 -0.00000000000E+00 -0.26496740508E+03  0.26496740508E+03  0.00000000000E+00 0.  1.
          6    1    1    2  501    0  0.11701132520E+03 -0.30045787230E+02  0.21211175810E+03  0.29861312342E+03  0.17200000000E+03 0. -1.
         -6    1    1    2    0  503 -0.11701132520E+03  0.30045787230E+02 -0.17190270854E+03  0.27153073631E+03  0.17200000000E+03 0.  1.
</event>
<event>
 4    1  0.4405880E+000  0.2450372E+03  0.7818608E-02  0.1116482E+00
         21   -1    0    0  501  502  0.00000000000E+00  0.00000000000E+00  0.33091414427E+03  0.33091414427E+03  0.00000000000E+00 0. -1.
         21   -1    0    0  502  503 -0.00000000000E+00 -0.00000000000E+00 -0.19037682645E+03  0.19037682645E+03  0.00000000000E+00 0. -1.
          6    1    1    2  501    0 -0.14330210487E+03 -0.99617933396E+02  0.13817104564E+02  0.24542644171E+03  0.17200000000E+03 0. -1.
         -6    1    1    2    0  503  0.14330210487E+03  0.99617933396E+02  0.12672021326E+03  0.27586452900E+03  0.17200000000E+03 0. -1.
</event>
<event>
 4    1  0.4405880E+000  0.2357370E+03  0.7818608E-02  0.1122666E+00
         21   -1    0    0  503  502  0.00000000000E+00  0.00000000000E+00  0.54125297898E+02  0.54125297898E+02  0.00000000000E+00 0. -1.
         21   -1    0    0  501  503 -0.00000000000E+00 -0.00000000000E+00 -0.11249520240E+04  0.11249520240E+04  0.00000000000E+00 0.  1.
          6    1    1    2  501    0 -0.41255379852E+02  0.15583943459E+03 -0.70961614869E+03  0.74774796169E+03  0.17200000000E+03 0. -1.
         -6    1    1    2    0  502  0.41255379852E+02 -0.15583943459E+03 -0.36121057744E+03  0.43132936023E+03  0.17200000000E+03 0. -1.
</event>
<event>
 4    1  0.4405880E+000  0.3383041E+03  0.7818608E-02  0.1067521E+00
         21   -1    0    0  503  502  0.00000000000E+00  0.00000000000E+00  0.22610913816E+03  0.22610913816E+03  0.00000000000E+00 0. -1.
         21   -1    0    0  501  503 -0.00000000000E+00 -0.00000000000E+00 -0.51344660139E+03  0.51344660139E+03  0.00000000000E+00 0.  1.
          6    1    1    2  501    0 -0.19830872022E+02  0.29064139248E+03 -0.99648236638E+02  0.35267471355E+03  0.17200000000E+03 0. -1.
         -6    1    1    2    0  502  0.19830872022E+02 -0.29064139248E+03 -0.18768922659E+03  0.38688102601E+03  0.17200000000E+03 0.  1.
</event>
<event>
 4    1  0.4405880E+000  0.2189175E+03  0.7818608E-02  0.1134693E+00
         21   -1    0    0  503  502  0.00000000000E+00  0.00000000000E+00  0.23368708397E+03  0.23368708397E+03  0.00000000000E+00 0. -1.
         21   -1    0    0  501  503 -0.00000000000E+00 -0.00000000000E+00 -0.21658446076E+03  0.21658446076E+03  0.00000000000E+00 0.  1.
          6    1    1    2  501    0  0.11572296481E+03 -0.70349537471E+02 -0.43333299143E+02  0.22316504391E+03  0.17200000000E+03 0.  1.
         -6    1    1    2    0  502 -0.11572296481E+03  0.70349537471E+02  0.60435922347E+02  0.22710650082E+03  0.17200000000E+03 0.  1.
</event>
<event>
 4    1  0.4405880E+000  0.1806659E+03  0.7818608E-02  0.1167160E+00
         21   -1    0    0  503  502  0.00000000000E+00  0.00000000000E+00  0.73010518038E+02  0.73010518038E+02  0.00000000000E+00 0. -1.
         21   -1    0    0  501  503 -0.00000000000E+00 -0.00000000000E+00 -0.50262549403E+03  0.50262549403E+03  0.00000000000E+00 0. -1.
          6    1    1    2  501    0  0.32153215882E+02  0.44970231316E+02 -0.31050366997E+03  0.35923902914E+03  0.17200000000E+03 0.  1.
         -6    1    1    2    0  502 -0.32153215882E+02 -0.44970231316E+02 -0.11911130602E+03  0.21639698292E+03  0.17200000000E+03 0.  1.
</event>
<event>
 4    1  0.4405880E+000  0.2031329E+03  0.7818608E-02  0.1147122E+00
         21   -1    0    0  501  502  0.00000000000E+00  0.00000000000E+00  0.44656392570E+03  0.44656392570E+03  0.00000000000E+00 0. -1.
         21   -1    0    0  502  503 -0.00000000000E+00 -0.00000000000E+00 -0.11748104231E+03  0.11748104231E+03  0.00000000000E+00 0. -1.
          6    1    1    2  501    0 -0.34881575018E+02  0.10228515664E+03  0.29484716770E+03  0.35804724527E+03  0.17200000000E+03 0. -1.
         -6    1    1    2    0  503  0.34881575018E+02 -0.10228515664E+03  0.34235715698E+02  0.20599772274E+03  0.17200000000E+03 0. -1.
</event>
<event>
 4    1  0.4405880E+000  0.1968678E+03  0.7818608E-02  0.1152409E+00
         21   -1    0    0  503  502  0.00000000000E+00  0.00000000000E+00  0.79648435612E+02  0.79648435612E+02  0.00000000000E+00 0. -1.
         21   -1    0    0  501  503 -0.00000000000E+00 -0.00000000000E+00 -0.68506288914E+03  0.68506288914E+03  0.00000000000E+00 0. -1.
          6    1    1    2  501    0  0.59156028096E+02 -0.75322569411E+02 -0.50850563435E+03  0.54528424265E+03  0.17200000000E+03 0. -1.
         -6    1    1    2    0  502 -0.59156028096E+02  0.75322569411E+02 -0.96908819178E+02  0.21942708210E+03  0.17200000000E+03 0. -1.
</event>
<event>
 4    1  0.4405880E+000  0.2318847E+03  0.7818608E-02  0.1125320E+00
         21   -1    0    0  503  502  0.00000000000E+00  0.00000000000E+00  0.11840165002E+03  0.11840165002E+03  0.00000000000E+00 0. -1.
         21   -1    0    0  501  503 -0.00000000000E+00 -0.00000000000E+00 -0.50590021932E+03  0.50590021932E+03  0.00000000000E+00 0. -1.
          6    1    1    2  501    0  0.14502076082E+03 -0.56173901568E+02 -0.29359842446E+03  0.37412639994E+03  0.17200000000E+03 0. -1.
         -6    1    1    2    0  502 -0.14502076082E+03  0.56173901568E+02 -0.93900144848E+02  0.25017546940E+03  0.17200000000E+03 0. -1.
</event>
<event>
 4    1  0.4405880E+000  0.1729192E+03  0.7818608E-02  0.1174837E+00
         21   -1    0    0  503  502  0.00000000000E+00  0.00000000000E+00  0.80455952366E+03  0.80455952366E+03  0.00000000000E+00 0.  1.
         21   -1    0    0  501  503 -0.00000000000E+00 -0.00000000000E+00 -0.43462382475E+02  0.43462382475E+02  0.00000000000E+00 0.  1.
          6    1    1    2  501    0 -0.22622035233E+01  0.17661976272E+02  0.21914351471E+03  0.27915039497E+03  0.17200000000E+03 0.  1.
         -6    1    1    2    0  502  0.22622035233E+01 -0.17661976272E+02  0.54195362647E+03  0.56887151117E+03  0.17200000000E+03 0.  1.
</event>
<event>
 4    1  0.4405880E+000  0.2345605E+03  0.7818608E-02  0.1123470E+00
         21   -1    0    0  501  502  0.00000000000E+00  0.00000000000E+00  0.13335402254E+03  0.13335402254E+03  0.00000000000E+00 0.  1.
         21   -1    0    0  502  503 -0.00000000000E+00 -0.00000000000E+00 -0.41303148784E+03  0.41303148784E+03  0.00000000000E+00 0. -1.
          6    1    1    2  501    0  0.50796939930E+02 -0.15117635440E+03 -0.14891473408E+03  0.27783847333E+03  0.17200000000E+03 0.  1.
         -6    1    1    2    0  503 -0.50796939930E+02  0.15117635440E+03 -0.13076273122E+03  0.26854703706E+03  0.17200000000E+03 0.  1.
</event>
<event>
 4    1  0.4405880E+000  0.2032436E+03  0.7818608E-02  0.1147031E+00
         21   -1    0    0  503  502  0.00000000000E+00  0.00000000000E+00  0.11523467562E+03  0.11523467562E+03  0.00000000000E+00 0.  1.
         21   -1    0    0  501  503 -0.00000000000E+00 -0.00000000000E+00 -0.42780060486E+03  0.42780060486E+03  0.00000000000E+00 0.  1.
          6    1    1    2  501    0  0.27350456955E+02  0.10476591525E+03 -0.26558949030E+03  0.33443343411E+03  0.17200000000E+03 0.  1.
         -6    1    1    2    0  502 -0.27350456955E+02 -0.10476591525E+03 -0.46976438936E+02  0.20860184637E+03  0.17200000000E+03 0.  1.
</event>
<event>
 4    1  0.4405880E+000  0.1821847E+03  0.7818608E-02  0.1165705E+00
         21   -1    0    0  501  502  0.00000000000E+00  0.00000000000E+00  0.71125889212E+03  0.71125889212E+03  0.00000000000E+00 0. -1.
         21   -1    0    0  502  503 -0.00000000000E+00 -0.00000000000E+00 -0.12630820547E+03  0.12630820547E+03  0.00000000000E+00 0. -1.
          6    1    1    2  501    0  0.16514072757E+02 -0.57745608290E+02  0.62501754170E+03  0.65102856873E+03  0.17200000000E+03 0. -1.
         -6    1    1    2    0  503 -0.16514072757E+02  0.57745608290E+02 -0.40066855051E+02  0.18653852886E+03  0.17200000000E+03 0. -1.
</event>
<event>
 4    1  0.4405880E+000  0.2174951E+03  0.7818608E-02  0.1135764E+00
         21   -1    0    0  501  502  0.00000000000E+00  0.00000000000E+00  0.70021538702E+02  0.70021538702E+02  0.00000000000E+00 0. -1.
         21   -1    0    0  502  503 -0.00000000000E+00 -0.00000000000E+00 -0.67815957458E+03  0.67815957458E+03  0.00000000000E+00 0. -1.
          6    1    1    2  501    0  0.69426862665E+01  0.13293580203E+03 -0.28093181105E+03  0.35528412688E+03  0.17200000000E+03 0. -1.
         -6    1    1    2    0  503 -0.69426862665E+01 -0.13293580203E+03 -0.32720622482E+03  0.39289698640E+03  0.17200000000E+03 0. -1.
</event>
<event>
 4    1  0.4405880E+000  0.1988758E+03  0.7818608E-02  0.1150691E+00
         21   -1    0    0  503  502  0.00000000000E+00  0.00000000000E+00  0.52709404465E+03  0.52709404465E+03  0.00000000000E+00 0. -1.
         21   -1    0    0  501  503 -0.00000000000E+00 -0.00000000000E+00 -0.75711876175E+02  0.75711876175E+02  0.00000000000E+00 0. -1.
          6    1    1    2  501    0 -0.75608623435E+02 -0.65199017755E+02  0.19723564243E+03  0.28009547390E+03  0.17200000000E+03 0. -1.
         -6    1    1    2    0  502  0.75608623435E+02  0.65199017755E+02  0.25414652605E+03  0.32271044693E+03  0.17200000000E+03 0. -1.
</event>
<event>
 4    1  0.4405880E+000  0.2543006E+03  0.7818608E-02  0.1110617E+00
         21   -1    0    0  503  502  0.00000000000E+00  0.00000000000E+00  0.34771335244E+03  0.34771335244E+03  0.00000000000E+00 0. -1.
         21   -1    0    0  501  503 -0.00000000000E+00 -0.00000000000E+00 -0.18598308718E+03  0.18598308718E+03  0.00000000000E+00 0. -1.
          6    1    1    2  501    0 -0.24191060082E+01  0.18729367098E+03  0.81051311888E+02  0.26690463919E+03  0.17200000000E+03 0. -1.
         -6    1    1    2    0  502  0.24191060082E+01 -0.18729367098E+03  0.80678953366E+02  0.26679180043E+03  0.17200000000E+03 0. -1.
</event>
<event>
 4    1  0.4405880E+000  0.1739083E+03  0.7818608E-02  0.1173832E+00
         21   -1    0    0  503  502  0.00000000000E+00  0.00000000000E+00  0.49682349200E+02  0.49682349200E+02  0.00000000000E+00 0. -1.
         21   -1    0    0  501  503 -0.00000000000E+00 -0.00000000000E+00 -0.62052972435E+03  0.62052972435E+03  0.00000000000E+00 0. -1.
          6    1    1    2  501    0 -0.18162096062E+02  0.18172364529E+02 -0.23925144659E+03  0.29577922723E+03  0.17200000000E+03 0. -1.
         -6    1    1    2    0  502  0.18162096062E+02 -0.18172364529E+02 -0.33159592856E+03  0.37443284632E+03  0.17200000000E+03 0. -1.
</event>
<event>
 4    1  0.4405880E+000  0.2095143E+03  0.7818608E-02  0.1141951E+00
         21   -1    0    0  501  502  0.00000000000E+00  0.00000000000E+00  0.16093393159E+03  0.16093393159E+03  0.00000000000E+00 0.  1.
         21   -1    0    0  502  503 -0.00000000000E+00 -0.00000000000E+00 -0.53611409885E+03  0.53611409885E+03  0.00000000000E+00 0.  1.
          6    1    1    2  501    0  0.10458259540E+03 -0.58092241669E+02  0.56682488904E+02  0.21704638295E+03  0.17200000000E+03 0.  1.
         -6    1    1    2    0  503 -0.10458259540E+03  0.58092241669E+02 -0.43186265616E+03  0.48000164749E+03  0.17200000000E+03 0.  1.
</event>
<event>
 4    1  0.4405880E+000  0.2814502E+03  0.7818608E-02  0.1094900E+00
         21   -1    0    0  503  502  0.00000000000E+00  0.00000000000E+00  0.28901309299E+03  0.28901309299E+03  0.00000000000E+00 0.  1.
         21   -1    0    0  501  503 -0.00000000000E+00 -0.00000000000E+00 -0.28285952619E+03  0.28285952619E+03  0.00000000000E+00 0. -1.
          6    1    1    2  501    0 -0.22059529915E+03 -0.31111402482E+02 -0.47283864201E+02  0.28539440987E+03  0.17200000000E+03 0. -1.
         -6    1    1    2    0  502  0.22059529915E+03  0.31111402482E+02  0.53437431006E+02  0.28647820930E+03  0.17200000000E+03 0.  1.
</event>
<event>
 4    1  0.4405880E+000  0.2862294E+03  0.7818608E-02  0.1092334E+00
         21   -1    0    0  501  502  0.00000000000E+00  0.00000000000E+00  0.36342595478E+03  0.36342595478E+03  0.00000000000E+00 0.  1.
         21   -1    0    0  502  503 -0.00000000000E+00 -0.00000000000E+00 -0.24081055627E+03  0.24081055627E+03  0.00000000000E+00 0.  1.
          6    1    1    2  501    0 -0.22869983058E+03  0.62953781515E+01 -0.15044249875E+02  0.28662444723E+03  0.17200000000E+03 0.  1.
         -6    1    1    2    0  503  0.22869983058E+03 -0.62953781515E+01  0.13765964838E+03  0.31761206383E+03  0.17200000000E+03 0.  1.
</event>
<event>
 4    1  0.4405880E+000  0.2589877E+03  0.7818608E-02  0.1107753E+00
         21   -1    0    0  501  502  0.00000000000E+00  0.00000000000E+00  0.78261582739E+03  0.78261582739E+03  0.00000000000E+00 0.  1.
         21   -1    0    0  502  503 -0.00000000000E+00 -0.00000000000E+00 -0.11597409238E+03  0.11597409238E+03  0.00000000000E+00 0. -1.
          6    1    1    2  501    0  0.10986368071E+02  0.19331302745E+03  0.10378749964E+03  0.27900980619E+03  0.17200000000E+03 0. -1.
         -6    1    1    2    0  503 -0.10986368071E+02 -0.19331302745E+03  0.56285423538E+03  0.61958011358E+03  0.17200000000E+03 0.  1.
</event>
<event>
 4    1  0.4405880E+000  0.2301173E+03  0.7818608E-02  0.1126557E+00
         21   -1    0    0  503  502  0.00000000000E+00  0.00000000000E+00  0.25661792288E+03  0.25661792288E+03  0.00000000000E+00 0.  1.
         21   -1    0    0  501  503 -0.00000000000E+00 -0.00000000000E+00 -0.33530809179E+03  0.33530809179E+03  0.00000000000E+00 0.  1.
          6    1    1    2  501    0  0.35446536505E+02 -0.14870620731E+03 -0.22288642894E+03  0.32036284624E+03  0.17200000000E+03 0.  1.
         -6    1    1    2    0  502 -0.35446536505E+02  0.14870620731E+03  0.14419626003E+03  0.27156316843E+03  0.17200000000E+03 0.  1.
</event>
<event>
 4    1  0.4405880E+000  0.2004001E+03  0.7818608E-02  0.1149402E+00
         21   -1    0    0  501  502  0.00000000000E+00  0.00000000000E+00  0.63787498815E+03  0.63787498815E+03  0.00000000000E+00 0.  1.
         21   -1    0    0  502  503 -0.00000000000E+00 -0.00000000000E+00 -0.71261323675E+02  0.71261323675E+02  0.00000000000E+00 0.  1.
          6    1    1    2  501    0  0.10107083729E+03 -0.18997364966E+02  0.40432836997E+03  0.45126671137E+03  0.17200000000E+03 0.  1.
         -6    1    1    2    0  503 -0.10107083729E+03  0.18997364966E+02  0.16228529451E+03  0.25786960046E+03  0.17200000000E+03 0.  1.
</event>
<event>
 4    1  0.4405880E+000  0.1969540E+03  0.7818608E-02  0.1152335E+00
         21   -1    0    0  503  502  0.00000000000E+00  0.00000000000E+00  0.54855881252E+03  0.54855881252E+03  0.00000000000E+00 0.  1.
         21   -1    0    0  501  503 -0.00000000000E+00 -0.00000000000E+00 -0.16535397592E+03  0.16535397592E+03  0.00000000000E+00 0.  1.
          6    1    1    2  501    0 -0.95494525964E+02  0.93639648247E+01 -0.78447926027E+02  0.21200227693E+03  0.17200000000E+03 0.  1.
         -6    1    1    2    0  502  0.95494525964E+02 -0.93639648247E+01  0.46165276262E+03  0.50191051151E+03  0.17200000000E+03 0.  1.
</event>
<event>
 4    1  0.4405880E+000  0.2252349E+03  0.7818608E-02  0.1130039E+00
         21   -1    0    0  501  502  0.00000000000E+00  0.00000000000E+00  0.14217153523E+03  0.14217153523E+03  0.00000000000E+00 0. -1.
         21   -1    0    0  502  503 -0.00000000000E+00 -0.00000000000E+00 -0.35692000235E+03  0.35692000235E+03  0.00000000000E+00 0.  1.
          6    1    1    2  501    0  0.67788874409E+02  0.12865240641E+03 -0.11138247132E+03  0.25127042819E+03  0.17200000000E+03 0. -1.
         -6    1    1    2    0  503 -0.67788874409E+02 -0.12865240641E+03 -0.10336599580E+03  0.24782110938E+03  0.17200000000E+03 0. -1.
</event>
<event>
 4    1  0.4405880E+000  0.1932545E+03  0.7818608E-02  0.1155558E+00
         21   -1    0    0  503  502  0.00000000000E+00  0.00000000000E+00  0.17963205816E+03  0.17963205816E+03  0.00000000000E+00 0. -1.
         21   -1    0    0  501  503 -0.00000000000E+00 -0.00000000000E+00 -0.23253869087E+03  0.23253869087E+03  0.00000000000E+00 0.  1.
          6    1    1    2  501    0 -0.56823309729E+02  0.67338046987E+02  0.40615436318E+02  0.19747636509E+03  0.17200000000E+03 0. -1.
         -6    1    1    2    0  502  0.56823309729E+02 -0.67338046987E+02 -0.93522069035E+02  0.21469438394E+03  0.17200000000E+03 0.  1.
</event>
<event>
 4    1  0.4405880E+000  0.1976608E+03  0.7818608E-02  0.1151728E+00
         21   -1    0    0  501  502  0.00000000000E+00  0.00000000000E+00  0.56162876549E+03  0.56162876549E+03  0.00000000000E+00 0.  1.
         21   -1    0    0  502  503 -0.00000000000E+00 -0.00000000000E+00 -0.60234010764E+03  0.60234010764E+03  0.00000000000E+00 0.  1.
          6    1    1    2  501    0 -0.35710996321E+02  0.90611915280E+02  0.52699086967E+03  0.56284027145E+03  0.17200000000E+03 0.  1.
         -6    1    1    2    0  503  0.35710996321E+02 -0.90611915280E+02 -0.56770221182E+03  0.60112860168E+03  0.17200000000E+03 0.  1.
</event>
<event>
 4    1  0.4405880E+000  0.1950533E+03  0.7818608E-02  0.1153981E+00
         21   -1    0    0  503  502  0.00000000000E+00  0.00000000000E+00  0.66397852345E+03  0.66397852345E+03  0.00000000000E+00 0. -1.
         21   -1    0    0  501  503 -0.00000000000E+00 -0.00000000000E+00 -0.10855254119E+03  0.10855254119E+03  0.00000000000E+00 0. -1.
          6    1    1    2  501    0  0.68504946699E+02  0.61391162379E+02  0.12298442173E+02  0.19544066675E+03  0.17200000000E+03 0. -1.
         -6    1    1    2    0  502 -0.68504946699E+02 -0.61391162379E+02  0.54312754009E+03  0.57709039789E+03  0.17200000000E+03 0. -1.
</event>
<event>
 4    1  0.4405880E+000  0.2158846E+03  0.7818608E-02  0.1136989E+00
         21   -1    0    0  503  502  0.00000000000E+00  0.00000000000E+00  0.28431743872E+03  0.28431743872E+03  0.00000000000E+00 0.  1.
         21   -1    0    0  501  503 -0.00000000000E+00 -0.00000000000E+00 -0.19255909352E+03  0.19255909352E+03  0.00000000000E+00 0.  1.
          6    1    1    2  501    0  0.29460663796E+02  0.12709936645E+03 -0.46070566321E+02  0.22074572871E+03  0.17200000000E+03 0.  1.
         -6    1    1    2    0  502 -0.29460663796E+02 -0.12709936645E+03  0.13782891153E+03  0.25613080353E+03  0.17200000000E+03 0.  1.
</event>
<event>
 4    1  0.4405880E+000  0.2042791E+03  0.7818608E-02  0.1146178E+00
         21   -1    0    0  503  502  0.00000000000E+00  0.00000000000E+00  0.29574175078E+03  0.29574175078E+03  0.00000000000E+00 0.  1.
         21   -1    0    0  501  503 -0.00000000000E+00 -0.00000000000E+00 -0.15450599218E+03  0.15450599218E+03  0.00000000000E+00 0.  1.
          6    1    1    2  501    0  0.10654995142E+03  0.28161462389E+02  0.43116095466E+01  0.20432461939E+03  0.17200000000E+03 0.  1.
         -6    1    1    2    0  502 -0.10654995142E+03 -0.28161462389E+02  0.13692414906E+03  0.24592312357E+03  0.17200000000E+03 0.  1.
</event>
<event>
 4    1  0.4405880E+000  0.2118389E+03  0.7818608E-02  0.1140118E+00
         21   -1    0    0  501  502  0.00000000000E+00  0.00000000000E+00  0.86548476564E+03  0.86548476564E+03  0.00000000000E+00 0. -1.
         21   -1    0    0  502  503 -0.00000000000E+00 -0.00000000000E+00 -0.56916794914E+02  0.56916794914E+02  0.00000000000E+00 0.  1.
          6    1    1    2  501    0  0.30422929376E+02 -0.11985898962E+03  0.54188425929E+03  0.58181980243E+03  0.17200000000E+03 0.  1.
         -6    1    1    2    0  503 -0.30422929376E+02  0.11985898962E+03  0.26668371144E+03  0.34058175813E+03  0.17200000000E+03 0.  1.
</event>
<event>
 4    1  0.4405880E+000  0.1731499E+03  0.7818608E-02  0.1174602E+00
         21   -1    0    0  501  502  0.00000000000E+00  0.00000000000E+00  0.12231915482E+03  0.12231915482E+03  0.00000000000E+00 0. -1.
         21   -1    0    0  502  503 -0.00000000000E+00 -0.00000000000E+00 -0.33746060731E+03  0.33746060731E+03  0.00000000000E+00 0. -1.
          6    1    1    2  501    0 -0.11508170371E+02  0.16262032852E+02  0.12695235942E+02  0.17361469037E+03  0.17200000000E+03 0. -1.
         -6    1    1    2    0  503  0.11508170371E+02 -0.16262032852E+02 -0.22783668843E+03  0.28616507176E+03  0.17200000000E+03 0. -1.
</event>
<event>
 4    1  0.4405880E+000  0.2205976E+03  0.7818608E-02  0.1133438E+00
         21   -1    0    0  503  502  0.00000000000E+00  0.00000000000E+00  0.44069026740E+03  0.44069026740E+03  0.00000000000E+00 0. -1.
         21   -1    0    0  501  503 -0.00000000000E+00 -0.00000000000E+00 -0.11380739848E+03  0.11380739848E+03  0.00000000000E+00 0.  1.
          6    1    1    2  501    0 -0.13421954579E+03 -0.32625685526E+02  0.21123643093E+03  0.30542454319E+03  0.17200000000E+03 0. -1.
         -6    1    1    2    0  502  0.13421954579E+03  0.32625685526E+02  0.11564643799E+03  0.24907312269E+03  0.17200000000E+03 0.  1.
</event>
<event>
 4    1  0.4405880E+000  0.4132450E+03  0.7818608E-02  0.1039288E+00
         21   -1    0    0  501  502  0.00000000000E+00  0.00000000000E+00  0.17341396533E+03  0.17341396533E+03  0.00000000000E+00 0.  1.
         21   -1    0    0  502  503 -0.00000000000E+00 -0.00000000000E+00 -0.14051822613E+04  0.14051822613E+04  0.00000000000E+00 0.  1.
          6    1    1    2  501    0 -0.22357024280E+03 -0.30199966392E+03 -0.18414974990E+03  0.45241859031E+03  0.17200000000E+03 0.  1.
         -6    1    1    2    0  503  0.22357024280E+03  0.30199966392E+03 -0.10476185460E+04  0.11261776363E+04  0.17200000000E+03 0.  1.
</event>
<event>
 4    1  0.4405880E+000  0.3046533E+03  0.7818608E-02  0.1082937E+00
         21   -1    0    0  503  502  0.00000000000E+00  0.00000000000E+00  0.57973442389E+03  0.57973442389E+03  0.00000000000E+00 0.  1.
         21   -1    0    0  501  503 -0.00000000000E+00 -0.00000000000E+00 -0.25195568770E+03  0.25195568770E+03  0.00000000000E+00 0.  1.
          6    1    1    2  501    0 -0.24774346719E+03 -0.43044216157E+02 -0.87200988779E+02  0.31688742879E+03  0.17200000000E+03 0.  1.
         -6    1    1    2    0  502  0.24774346719E+03  0.43044216157E+02  0.41497972497E+03  0.51480268280E+03  0.17200000000E+03 0.  1.
</event>
<event>
 4    1  0.4405880E+000  0.4035275E+03  0.7818608E-02  0.1042565E+00
         21   -1    0    0  503  502  0.00000000000E+00  0.00000000000E+00  0.57533617121E+03  0.57533617121E+03  0.00000000000E+00 0. -1.
         21   -1    0    0  501  503 -0.00000000000E+00 -0.00000000000E+00 -0.29782190337E+03  0.29782190337E+03  0.00000000000E+00 0.  1.
          6    1    1    2  501    0 -0.28066620611E+03 -0.23340286428E+03  0.23607052833E+03  0.46750797924E+03  0.17200000000E+03 0. -1.
         -6    1    1    2    0  502  0.28066620611E+03  0.23340286428E+03  0.41443739511E+02  0.40565009534E+03  0.17200000000E+03 0.  1.
</event>
<event>
 4    1  0.4405880E+000  0.2663275E+03  0.7818608E-02  0.1103400E+00
         21   -1    0    0  501  502  0.00000000000E+00  0.00000000000E+00  0.53476088038E+03  0.53476088038E+03  0.00000000000E+00 0.  1.
         21   -1    0    0  502  503 -0.00000000000E+00 -0.00000000000E+00 -0.13547988328E+03  0.13547988328E+03  0.00000000000E+00 0.  1.
          6    1    1    2  501    0 -0.77039422544E+02  0.18817878594E+03  0.24816537579E+03  0.36402799596E+03  0.17200000000E+03 0.  1.
         -6    1    1    2    0  503  0.77039422544E+02 -0.18817878594E+03  0.15111562132E+03  0.30621276771E+03  0.17200000000E+03 0.  1.
</event>
<event>
 4    1  0.4405880E+000  0.2015893E+03  0.7818608E-02  0.1148405E+00
         21   -1    0    0  503  502  0.00000000000E+00  0.00000000000E+00  0.73218566597E+03  0.73218566597E+03  0.00000000000E+00 0.  1.
         21   -1    0    0  501  503 -0.00000000000E+00 -0.00000000000E+00 -0.60754687464E+02  0.60754687464E+02  0.00000000000E+00 0. -1.
          6    1    1    2  501    0  0.81602676772E+02  0.66296780824E+02  0.45228465150E+03  0.49517639886E+03  0.17200000000E+03 0.  1.
         -6    1    1    2    0  502 -0.81602676772E+02 -0.66296780824E+02  0.21914632701E+03  0.29776395458E+03  0.17200000000E+03 0. -1.
</event>
<event>
 4    1  0.4405880E+000  0.1930530E+03  0.7818608E-02  0.1155736E+00
         21   -1    0    0  503  502  0.00000000000E+00  0.00000000000E+00  0.81301612655E+02  0.81301612655E+02  0.00000000000E+00 0.  1.
         21   -1    0    0  501  503 -0.00000000000E+00 -0.00000000000E+00 -0.45949228644E+03  0.45949228644E+03  0.00000000000E+00 0.  1.
          6    1    1    2  501    0  0.79470532748E+02 -0.37012185442E+02 -0.20221871541E+03  0.27957445575E+03  0.17200000000E+03 0. -1.
         -6    1    1    2    0  502 -0.79470532748E+02  0.37012185442E+02 -0.17597195837E+03  0.26121944334E+03  0.17200000000E+03 0. -1.
</event>
<event>
 4    1  0.4405880E+000  0.2050929E+03  0.7818608E-02  0.1145512E+00
         21   -1    0    0  503  502  0.00000000000E+00  0.00000000000E+00  0.34681660003E+04  0.34681660003E+04  0.00000000000E+00 0.  1.
         21   -1    0    0  501  503 -0.00000000000E+00 -0.00000000000E+00 -0.19115466233E+02  0.19115466233E+02  0.00000000000E+00 0.  1.
          6    1    1    2  501    0 -0.87887838535E+02  0.68955115772E+02  0.67034714434E+03  0.70101952475E+03  0.17200000000E+03 0.  1.
         -6    1    1    2    0  502  0.87887838535E+02 -0.68955115772E+02  0.27787033897E+04  0.27862619417E+04  0.17200000000E+03 0.  1.
</event>
<event>
 4    1  0.4405880E+000  0.1825650E+03  0.7818608E-02  0.1165343E+00
         21   -1    0    0  503  502  0.00000000000E+00  0.00000000000E+00  0.32961075945E+03  0.32961075945E+03  0.00000000000E+00 0. -1.
         21   -1    0    0  501  503 -0.00000000000E+00 -0.00000000000E+00 -0.15841054125E+03  0.15841054125E+03  0.00000000000E+00 0. -1.
          6    1    1    2  501    0  0.61121229195E+02  0.31900208054E+01 -0.61144172210E+02  0.19253205106E+03  0.17200000000E+03 0. -1.
         -6    1    1    2    0  502 -0.61121229195E+02 -0.31900208054E+01  0.23234439041E+03  0.29548924963E+03  0.17200000000E+03 0. -1.
</event>
<event>
 4    1  0.4405880E+000  0.2050007E+03  0.7818608E-02  0.1145587E+00
         21   -1    0    0  503  502  0.00000000000E+00  0.00000000000E+00  0.42186453616E+03  0.42186453616E+03  0.00000000000E+00 0. -1.
         21   -1    0    0  501  503 -0.00000000000E+00 -0.00000000000E+00 -0.10252841643E+03  0.10252841643E+03  0.00000000000E+00 0.  1.
          6    1    1    2  501    0  0.10813291955E+03 -0.27359428988E+02  0.20384426772E+03  0.28909817040E+03  0.17200000000E+03 0.  1.
         -6    1    1    2    0  502 -0.10813291955E+03  0.27359428988E+02  0.11549185201E+03  0.23529478219E+03  0.17200000000E+03 0.  1.
</event>
<event>
 4    1  0.4405880E+000  0.1817574E+03  0.7818608E-02  0.1166113E+00
         21   -1    0    0  503  502  0.00000000000E+00  0.00000000000E+00  0.23485464898E+03  0.23485464898E+03  0.00000000000E+00 0.  1.
         21   -1    0    0  501  503 -0.00000000000E+00 -0.00000000000E+00 -0.14578784962E+03  0.14578784962E+03  0.00000000000E+00 0.  1.
          6    1    1    2  501    0  0.57838114241E+02  0.10319781112E+02  0.88556418780E+01  0.18197298628E+03  0.17200000000E+03 0.  1.
         -6    1    1    2    0  502 -0.57838114241E+02 -0.10319781112E+02  0.80211157486E+02  0.19866951232E+03  0.17200000000E+03 0.  1.
</event>
<event>
 4    1  0.4405880E+000  0.1746817E+03  0.7818608E-02  0.1173052E+00
         21   -1    0    0  503  502  0.00000000000E+00  0.00000000000E+00  0.48055843359E+03  0.48055843359E+03  0.00000000000E+00 0.  1.
         21   -1    0    0  501  503 -0.00000000000E+00 -0.00000000000E+00 -0.23614188742E+03  0.23614188742E+03  0.00000000000E+00 0.  1.
          6    1    1    2  501    0 -0.13297521730E+01 -0.30461667748E+02 -0.18419883250E+03  0.25385604452E+03  0.17200000000E+03 0.  1.
         -6    1    1    2    0  502  0.13297521730E+01  0.30461667748E+02  0.42861537868E+03  0.46284427649E+03  0.17200000000E+03 0.  1.
</event>
<event>
 4    1  0.4405880E+000  0.1790621E+03  0.7818608E-02  0.1168714E+00
         21   -1    0    0  503  502  0.00000000000E+00  0.00000000000E+00  0.13012643027E+03  0.13012643027E+03  0.00000000000E+00 0.  1.
         21   -1    0    0  501  503 -0.00000000000E+00 -0.00000000000E+00 -0.40776126707E+03  0.40776126707E+03  0.00000000000E+00 0.  1.
          6    1    1    2  501    0  0.11171365757E+02  0.48522619152E+02  0.30365819041E+02  0.18161863051E+03  0.17200000000E+03 0.  1.
         -6    1    1    2    0  502 -0.11171365757E+02 -0.48522619152E+02 -0.30800065584E+03  0.35626906683E+03  0.17200000000E+03 0.  1.
</event>
<event>
 4    1  0.4405880E+000  0.1795670E+03  0.7818608E-02  0.1168223E+00
         21   -1    0    0  503  502  0.00000000000E+00  0.00000000000E+00  0.45360260401E+03  0.45360260401E+03  0.00000000000E+00 0.  1.
         21   -1    0    0  501  503 -0.00000000000E+00 -0.00000000000E+00 -0.72056763666E+02  0.72056763666E+02  0.00000000000E+00 0. -1.
          6    1    1    2  501    0  0.98291158663E+00  0.51568654546E+02  0.16024892102E+03  0.24067407200E+03  0.17200000000E+03 0. -1.
         -6    1    1    2    0  502 -0.98291158663E+00 -0.51568654546E+02  0.22129691933E+03  0.28498529568E+03  0.17200000000E+03 0.  1.
</event>
<event>
 4    1  0.4405880E+000  0.1721371E+03  0.7818608E-02  0.1175637E+00
         21   -1    0    0  503  502  0.00000000000E+00  0.00000000000E+00  0.69511130949E+03  0.69511130949E+03  0.00000000000E+00 0. -1.
         21   -1    0    0  501  503 -0.00000000000E+00 -0.00000000000E+00 -0.19737584823E+03  0.19737584823E+03  0.00000000000E+00 0. -1.
          6    1    1    2  501    0 -0.66801466646E+01  0.16034378074E+01 -0.14625981236E+03  0.22588299645E+03  0.17200000000E+03 0. -1.
         -6    1    1    2    0  502  0.66801466646E+01 -0.16034378074E+01  0.64399527362E+03  0.66660416127E+03  0.17200000000E+03 0. -1.
</event>
<event>
 4    1  0.4405880E+000  0.1794369E+03  0.7818608E-02  0.1168349E+00
         21   -1    0    0  501  502  0.00000000000E+00  0.00000000000E+00  0.10779711294E+04  0.10779711294E+04  0.00000000000E+00 0.  1.
         21   -1    0    0  502  503 -0.00000000000E+00 -0.00000000000E+00 -0.73538735175E+02  0.73538735175E+02  0.00000000000E+00 0.  1.
          6    1    1    2  501    0  0.41623550497E+01  0.50953551525E+02  0.94589776884E+03  0.96276693894E+03  0.17200000000E+03 0.  1.
         -6    1    1    2    0  503 -0.41623550497E+01 -0.50953551525E+02  0.58534625395E+02  0.18874292565E+03  0.17200000000E+03 0.  1.
</event>
<event>
 4    1  0.4405880E+000  0.1965504E+03  0.7818608E-02  0.1152683E+00
         21   -1    0    0  501  502  0.00000000000E+00  0.00000000000E+00  0.26973389552E+03  0.26973389552E+03  0.00000000000E+00 0. -1.
         21   -1    0    0  502  503 -0.00000000000E+00 -0.00000000000E+00 -0.16478769204E+03  0.16478769204E+03  0.00000000000E+00 0.  1.
          6    1    1    2  501    0  0.65308951740E+02 -0.69157686588E+02  0.13106767900E+03  0.23624305550E+03  0.17200000000E+03 0. -1.
         -6    1    1    2    0  503 -0.65308951740E+02  0.69157686588E+02 -0.26121475521E+02  0.19827853206E+03  0.17200000000E+03 0.  1.
</event>
<event>
 4    1  0.4405880E+000  0.1891965E+03  0.7818608E-02  0.1159188E+00
         21   -1    0    0  503  502  0.00000000000E+00  0.00000000000E+00  0.41106212359E+02  0.41106212359E+02  0.00000000000E+00 0.  1.
         21   -1    0    0  501  503 -0.00000000000E+00 -0.00000000000E+00 -0.94680162848E+03  0.94680162848E+03  0.00000000000E+00 0. -1.
          6    1    1    2  501    0 -0.16553483725E+02 -0.77053908816E+02 -0.59279551470E+03  0.62225544990E+03  0.17200000000E+03 0. -1.
         -6    1    1    2    0  502  0.16553483725E+02  0.77053908816E+02 -0.31289990142E+03  0.36565239094E+03  0.17200000000E+03 0.  1.
</event>
<event>
 4    1  0.4405880E+000  0.1822364E+03  0.7818608E-02  0.1165656E+00
         21   -1    0    0  501  502  0.00000000000E+00  0.00000000000E+00  0.23150544834E+03  0.23150544834E+03  0.00000000000E+00 0.  1.
         21   -1    0    0  502  503 -0.00000000000E+00 -0.00000000000E+00 -0.22941180728E+03  0.22941180728E+03  0.00000000000E+00 0.  1.
          6    1    1    2  501    0  0.34967507500E+02  0.49024088681E+02  0.14211561951E+03  0.23109940970E+03  0.17200000000E+03 0.  1.
         -6    1    1    2    0  503 -0.34967507500E+02 -0.49024088681E+02 -0.14002197846E+03  0.22981784592E+03  0.17200000000E+03 0.  1.
</event>
<event>
 4    1  0.4405880E+000  0.1748011E+03  0.7818608E-02  0.1172932E+00
         21   -1    0    0  503  502  0.00000000000E+00  0.00000000000E+00  0.12107985776E+04  0.12107985776E+04  0.00000000000E+00 0.  1.
         21   -1    0    0  501  503 -0.00000000000E+00 -0.00000000000E+00 -0.34768312995E+02  0.34768312995E+02  0.00000000000E+00 0.  1.
          6    1    1    2  501    0  0.11555407443E+02  0.28946423070E+02  0.26191584137E+03  0.31488939457E+03  0.17200000000E+03 0.  1.
         -6    1    1    2    0  502 -0.11555407443E+02 -0.28946423070E+02  0.91411442323E+03  0.93067749602E+03  0.17200000000E+03 0.  1.
</event>
<event>
 4    1  0.4405880E+000  0.2214279E+03  0.7818608E-02  0.1132823E+00
         21   -1    0    0  503  502  0.00000000000E+00  0.00000000000E+00  0.33264105934E+03  0.33264105934E+03  0.00000000000E+00 0.  1.
         21   -1    0    0  501  503 -0.00000000000E+00 -0.00000000000E+00 -0.36659549215E+03  0.36659549215E+03  0.00000000000E+00 0.  1.
          6    1    1    2  501    0  0.66081588251E+02  0.12279875696E+03 -0.28732281140E+03  0.36274606679E+03  0.17200000000E+03 0.  1.
         -6    1    1    2    0  502 -0.66081588251E+02 -0.12279875696E+03  0.25336837859E+03  0.33649048469E+03  0.17200000000E+03 0.  1.
</event>
<event>
 4    1  0.4405880E+000  0.3577641E+03  0.7818608E-02  0.1059473E+00
         21   -1    0    0  501  502  0.00000000000E+00  0.00000000000E+00  0.59918650636E+02  0.59918650636E+02  0.00000000000E+00 0. -1.
         21   -1    0    0  502  503 -0.00000000000E+00 -0.00000000000E+00 -0.21615448271E+04  0.21615448271E+04  0.00000000000E+00 0. -1.
          6    1    1    2  501    0  0.64210429083E+02 -0.30706379282E+03 -0.11712085663E+04  0.12246324583E+04  0.17200000000E+03 0. -1.
         -6    1    1    2    0  503 -0.64210429083E+02  0.30706379282E+03 -0.93041761009E+03  0.99683101940E+03  0.17200000000E+03 0. -1.
</event>
<event>
 4    1  0.4405880E+000  0.2359735E+03  0.7818608E-02  0.1122505E+00
         21   -1    0    0  501  502  0.00000000000E+00  0.00000000000E+00  0.80952783279E+03  0.80952783279E+03  0.00000000000E+00 0. -1.
         21   -1    0    0  502  503 -0.00000000000E+00 -0.00000000000E+00 -0.73745227794E+02  0.73745227794E+02  0.00000000000E+00 0. -1.
          6    1    1    2  501    0  0.15376614013E+03 -0.49552456225E+02  0.48242767984E+03  0.53704742625E+03  0.17200000000E+03 0. -1.
         -6    1    1    2    0  503 -0.15376614013E+03  0.49552456225E+02  0.25335492516E+03  0.34622563433E+03  0.17200000000E+03 0. -1.
</event>
<event>
 4    1  0.4405880E+000  0.1885490E+03  0.7818608E-02  0.1159777E+00
         21   -1    0    0  501  502  0.00000000000E+00  0.00000000000E+00  0.55135453484E+03  0.55135453484E+03  0.00000000000E+00 0. -1.
         21   -1    0    0  502  503 -0.00000000000E+00 -0.00000000000E+00 -0.76524825589E+02  0.76524825589E+02  0.00000000000E+00 0. -1.
          6    1    1    2  501    0 -0.34513958562E+01 -0.77167545822E+02  0.36197091190E+03  0.40813439370E+03  0.17200000000E+03 0. -1.
         -6    1    1    2    0  503  0.34513958562E+01  0.77167545822E+02  0.11285879735E+03  0.21974496672E+03  0.17200000000E+03 0. -1.
</event>
<event>
 4    1  0.4405880E+000  0.1979227E+03  0.7818608E-02  0.1151504E+00
         21   -1    0    0  503  502  0.00000000000E+00  0.00000000000E+00  0.12690569347E+03  0.12690569347E+03  0.00000000000E+00 0.  1.
         21   -1    0    0  501  503 -0.00000000000E+00 -0.00000000000E+00 -0.47389013812E+03  0.47389013812E+03  0.00000000000E+00 0. -1.
          6    1    1    2  501    0  0.97719296047E+02  0.63499667506E+01 -0.35086013079E+03  0.40283521975E+03  0.17200000000E+03 0. -1.
         -6    1    1    2    0  502 -0.97719296047E+02 -0.63499667506E+01  0.38756861395E+01  0.19796061184E+03  0.17200000000E+03 0.  1.
</event>
<event>
 4    1  0.4405880E+000  0.1906285E+03  0.7818608E-02  0.1157896E+00
         21   -1    0    0  503  502  0.00000000000E+00  0.00000000000E+00  0.65652445848E+02  0.65652445848E+02  0.00000000000E+00 0.  1.
         21   -1    0    0  501  503 -0.00000000000E+00 -0.00000000000E+00 -0.61181277668E+03  0.61181277668E+03  0.00000000000E+00 0.  1.
          6    1    1    2  501    0  0.81604791797E+02 -0.97925535699E+01 -0.37764728538E+03  0.42303275086E+03  0.17200000000E+03 0.  1.
         -6    1    1    2    0  502 -0.81604791797E+02  0.97925535699E+01 -0.16851304546E+03  0.25443247167E+03  0.17200000000E+03 0.  1.
</event>
<event>
 4    1  0.4405880E+000  0.1884627E+03  0.7818608E-02  0.1159855E+00
         21   -1    0    0  501  502  0.00000000000E+00  0.00000000000E+00  0.96328388714E+02  0.96328388714E+02  0.00000000000E+00 0.  1.
         21   -1    0    0  502  503 -0.00000000000E+00 -0.00000000000E+00 -0.37887471955E+03  0.37887471955E+03  0.00000000000E+00 0.  1.
          6    1    1    2  501    0  0.76844959292E+02 -0.53887129192E+01 -0.10237408696E+03  0.21447293460E+03  0.17200000000E+03 0. -1.
         -6    1    1    2    0  503 -0.76844959292E+02  0.53887129192E+01 -0.18017224387E+03  0.26073017366E+03  0.17200000000E+03 0. -1.
</event>
<event>
 4    1  0.4405880E+000  0.2311082E+03  0.7818608E-02  0.1125862E+00
         21   -1    0    0  501  502  0.00000000000E+00  0.00000000000E+00  0.12243242791E+04  0.12243242791E+04  0.00000000000E+00 0. -1.
         21   -1    0    0  502  503 -0.00000000000E+00 -0.00000000000E+00 -0.50117850575E+02  0.50117850575E+02  0.00000000000E+00 0.  1.
          6    1    1    2  501    0 -0.99064108462E+02 -0.11837784758E+03  0.81646194567E+03  0.84854058307E+03  0.17200000000E+03 0. -1.
         -6    1    1    2    0  503  0.99064108462E+02  0.11837784758E+03  0.35774448281E+03  0.42590154656E+03  0.17200000000E+03 0.  1.
</event>
<event>
 4    1  0.4405880E+000  0.1782650E+03  0.7818608E-02  0.1169493E+00
         21   -1    0    0  503  502  0.00000000000E+00  0.00000000000E+00  0.56533611224E+03  0.56533611224E+03  0.00000000000E+00 0.  1.
         21   -1    0    0  501  503 -0.00000000000E+00 -0.00000000000E+00 -0.19226143296E+03  0.19226143296E+03  0.00000000000E+00 0.  1.
          6    1    1    2  501    0  0.40403035867E+02  0.23706896200E+02 -0.13211092173E+03  0.22188221622E+03  0.17200000000E+03 0.  1.
         -6    1    1    2    0  502 -0.40403035867E+02 -0.23706896200E+02  0.50518560101E+03  0.53571532897E+03  0.17200000000E+03 0.  1.
</event>
<event>
 4    1  0.4405880E+000  0.1756034E+03  0.7818608E-02  0.1172127E+00
         21   -1    0    0  503  502  0.00000000000E+00  0.00000000000E+00  0.10745351115E+03  0.10745351115E+03  0.00000000000E+00 0. -1.
         21   -1    0    0  501  503 -0.00000000000E+00 -0.00000000000E+00 -0.11708303538E+04  0.11708303538E+04  0.00000000000E+00 0. -1.
          6    1    1    2  501    0  0.29659025289E+02 -0.19310381434E+02 -0.10870051374E+04  0.11010979599E+04  0.17200000000E+03 0. -1.
         -6    1    1    2    0  502 -0.29659025289E+02  0.19310381434E+02  0.23628294791E+02  0.17718590499E+03  0.17200000000E+03 0. -1.
</event>
<event>
 4    1  0.4405880E+000  0.2063276E+03  0.7818608E-02  0.1144508E+00
         21   -1    0    0  501  502  0.00000000000E+00  0.00000000000E+00  0.47166441089E+03  0.47166441089E+03  0.00000000000E+00 0. -1.
         21   -1    0    0  502  503 -0.00000000000E+00 -0.00000000000E+00 -0.98813756039E+02  0.98813756039E+02  0.00000000000E+00 0. -1.
          6    1    1    2  501    0 -0.10000888729E+03 -0.54637733763E+02  0.27036214430E+03  0.34009814548E+03  0.17200000000E+03 0.  1.
         -6    1    1    2    0  503  0.10000888729E+03  0.54637733763E+02  0.10248851055E+03  0.23038002145E+03  0.17200000000E+03 0.  1.
</event>
<event>
 4    1  0.4405880E+000  0.2231425E+03  0.7818608E-02  0.1131562E+00
         21   -1    0    0  503  502  0.00000000000E+00  0.00000000000E+00  0.61255415572E+02  0.61255415572E+02  0.00000000000E+00 0. -1.
         21   -1    0    0  501  503 -0.00000000000E+00 -0.00000000000E+00 -0.90293739221E+03  0.90293739221E+03  0.00000000000E+00 0. -1.
          6    1    1    2  501    0  0.15280437219E+02 -0.14133316376E+03 -0.57310391362E+03  0.61501272405E+03  0.17200000000E+03 0. -1.
         -6    1    1    2    0  502 -0.15280437219E+02  0.14133316376E+03 -0.26857806302E+03  0.34918008373E+03  0.17200000000E+03 0. -1.
</event>
<event>
 4    1  0.4405880E+000  0.1735674E+03  0.7818608E-02  0.1174178E+00
         21   -1    0    0  503  502  0.00000000000E+00  0.00000000000E+00  0.10566666589E+03  0.10566666589E+03  0.00000000000E+00 0. -1.
         21   -1    0    0  501  503 -0.00000000000E+00 -0.00000000000E+00 -0.77332868428E+03  0.77332868428E+03  0.00000000000E+00 0. -1.
          6    1    1    2  501    0  0.22923253789E+02  0.40213441838E+01 -0.68304033236E+03  0.70474799922E+03  0.17200000000E+03 0. -1.
         -6    1    1    2    0  502 -0.22923253789E+02 -0.40213441838E+01  0.15378313972E+02  0.17424735095E+03  0.17200000000E+03 0. -1.
</event>
<event>
 4    1  0.4405880E+000  0.1872650E+03  0.7818608E-02  0.1160952E+00
         21   -1    0    0  503  502  0.00000000000E+00  0.00000000000E+00  0.47931521754E+03  0.47931521754E+03  0.00000000000E+00 0. -1.
         21   -1    0    0  501  503 -0.00000000000E+00 -0.00000000000E+00 -0.17315234111E+03  0.17315234111E+03  0.00000000000E+00 0. -1.
          6    1    1    2  501    0 -0.52172011494E+02 -0.52557055344E+02 -0.94827102997E+02  0.20990555570E+03  0.17200000000E+03 0. -1.
         -6    1    1    2    0  502  0.52172011494E+02  0.52557055344E+02  0.40098997944E+03  0.44256200295E+03  0.17200000000E+03 0. -1.
</event>
<event>
 4    1  0.4405880E+000  0.1852895E+03  0.7818608E-02  0.1162780E+00
         21   -1    0    0  501  502  0.00000000000E+00  0.00000000000E+00  0.32447470024E+02  0.32447470024E+02  0.00000000000E+00 0. -1.
         21   -1    0    0  502  503 -0.00000000000E+00 -0.00000000000E+00 -0.10719428511E+04  0.10719428511E+04  0.00000000000E+00 0. -1.
          6    1    1    2  501    0  0.36353635716E+02  0.58537230472E+02 -0.58253162297E+03  0.61128985427E+03  0.17200000000E+03 0. -1.
         -6    1    1    2    0  503 -0.36353635716E+02 -0.58537230472E+02 -0.45696375809E+03  0.49310046683E+03  0.17200000000E+03 0. -1.
</event>
<event>
 4    1  0.4405880E+000  0.3520279E+03  0.7818608E-02  0.1061786E+00
         21   -1    0    0  501  502  0.00000000000E+00  0.00000000000E+00  0.51206310514E+03  0.51206310514E+03  0.00000000000E+00 0.  1.
         21   -1    0    0  502  503 -0.00000000000E+00 -0.00000000000E+00 -0.77217433310E+03  0.77217433310E+03  0.00000000000E+00 0. -1.
          6    1    1    2  501    0 -0.27082645197E+03  0.14488845718E+03  0.40200794033E+03  0.53435383053E+03  0.17200000000E+03 0.  1.
         -6    1    1    2    0  503  0.27082645197E+03 -0.14488845718E+03 -0.66211916829E+03  0.74988360772E+03  0.17200000000E+03 0. -1.
</event>
<event>
 4    1  0.4405880E+000  0.1737733E+03  0.7818608E-02  0.1173969E+00
         21   -1    0    0  503  502  0.00000000000E+00  0.00000000000E+00  0.28362250474E+03  0.28362250474E+03  0.00000000000E+00 0. -1.
         21   -1    0    0  501  503 -0.00000000000E+00 -0.00000000000E+00 -0.11074048919E+03  0.11074048919E+03  0.00000000000E+00 0. -1.
          6    1    1    2  501    0  0.40105441113E+00  0.24758918482E+02  0.47717575997E+02  0.18020580442E+03  0.17200000000E+03 0. -1.
         -6    1    1    2    0  502 -0.40105441113E+00 -0.24758918482E+02  0.12516443955E+03  0.21415718951E+03  0.17200000000E+03 0. -1.
</event>
<event>
 4    1  0.4405880E+000  0.3310621E+03  0.7818608E-02  0.1070668E+00
         21   -1    0    0  503  502  0.00000000000E+00  0.00000000000E+00  0.39125153440E+03  0.39125153440E+03  0.00000000000E+00 0. -1.
         21   -1    0    0  501  503 -0.00000000000E+00 -0.00000000000E+00 -0.29620435151E+03  0.29620435151E+03  0.00000000000E+00 0.  1.
          6    1    1    2  501    0  0.23914627436E+03 -0.15108674938E+03  0.12759110873E+03  0.35479802340E+03  0.17200000000E+03 0.  1.
         -6    1    1    2    0  502 -0.23914627436E+03  0.15108674938E+03 -0.32543925846E+02  0.33265786251E+03  0.17200000000E+03 0. -1.
</event>
<event>
 4    1  0.4405880E+000  0.2468942E+03  0.7818608E-02  0.1115284E+00
         21   -1    0    0  503  502  0.00000000000E+00  0.00000000000E+00  0.56089593989E+02  0.56089593989E+02  0.00000000000E+00 0. -1.
         21   -1    0    0  501  503 -0.00000000000E+00 -0.00000000000E+00 -0.11641733062E+04  0.11641733062E+04  0.00000000000E+00 0. -1.
          6    1    1    2  501    0  0.11384253473E+03  0.13569304153E+03 -0.39672236379E+03  0.46727439279E+03  0.17200000000E+03 0. -1.
         -6    1    1    2    0  502 -0.11384253473E+03 -0.13569304153E+03 -0.71136134840E+03  0.75298850737E+03  0.17200000000E+03 0. -1.
</event>
<event>
 4    1  0.4405880E+000  0.2290803E+03  0.7818608E-02  0.1127289E+00
         21   -1    0    0  501  502  0.00000000000E+00  0.00000000000E+00  0.15183296888E+03  0.15183296888E+03  0.00000000000E+00 0.  1.
         21   -1    0    0  502  503 -0.00000000000E+00 -0.00000000000E+00 -0.41644189174E+03  0.41644189174E+03  0.00000000000E+00 0.  1.
          6    1    1    2  501    0 -0.13147517107E+03 -0.74886907585E+02 -0.15136308820E+02  0.22957978435E+03  0.17200000000E+03 0.  1.
         -6    1    1    2    0  503  0.13147517107E+03  0.74886907585E+02 -0.24947261404E+03  0.33869507627E+03  0.17200000000E+03 0.  1.
</event>
<event>
 4    1  0.4405880E+000  0.2085141E+03  0.7818608E-02  0.1142748E+00
         21   -1    0    0  503  502  0.00000000000E+00  0.00000000000E+00  0.23100127129E+03  0.23100127129E+03  0.00000000000E+00 0. -1.
         21   -1    0    0  501  503 -0.00000000000E+00 -0.00000000000E+00 -0.21074398154E+03  0.21074398154E+03  0.00000000000E+00 0. -1.
          6    1    1    2  501    0 -0.97188016308E+02  0.66698057220E+02 -0.62085985446E+02  0.21756105106E+03  0.17200000000E+03 0. -1.
         -6    1    1    2    0  502  0.97188016308E+02 -0.66698057220E+02  0.82343275200E+02  0.22418420177E+03  0.17200000000E+03 0. -1.
</event>
<event>
 4    1  0.4405880E+000  0.2060617E+03  0.7818608E-02  0.1144723E+00
         21   -1    0    0  503  502  0.00000000000E+00  0.00000000000E+00  0.13626086810E+03  0.13626086810E+03  0.00000000000E+00 0.  1.
         21   -1    0    0  501  503 -0.00000000000E+00 -0.00000000000E+00 -0.32430701143E+03  0.32430701143E+03  0.00000000000E+00 0.  1.
          6    1    1    2  501    0  0.24319194957E+02 -0.11084227905E+03 -0.13957297512E+03  0.24888159726E+03  0.17200000000E+03 0.  1.
         -6    1    1    2    0  502 -0.24319194957E+02  0.11084227905E+03 -0.48473168208E+02  0.21168628228E+03  0.17200000000E+03 0.  1.
</event>
<event>
 4    1  0.4405880E+000  0.1755471E+03  0.7818608E-02  0.1172183E+00
         21   -1    0    0  503  502  0.00000000000E+00  0.00000000000E+00  0.88870432006E+02  0.88870432006E+02  0.00000000000E+00 0.  1.
         21   -1    0    0  501  503 -0.00000000000E+00 -0.00000000000E+00 -0.16525713301E+04  0.16525713301E+04  0.00000000000E+00 0.  1.
          6    1    1    2  501    0 -0.30767704028E+02 -0.16915653070E+02 -0.15558468108E+04  0.15657190328E+04  0.17200000000E+03 0.  1.
         -6    1    1    2    0  502  0.30767704028E+02  0.16915653070E+02 -0.78540873389E+01  0.17572272937E+03  0.17200000000E+03 0.  1.
</event>
<event>
 4    1  0.4405880E+000  0.2260043E+03  0.7818608E-02  0.1129484E+00
         21   -1    0    0  501  502  0.00000000000E+00  0.00000000000E+00  0.18603973512E+03  0.18603973512E+03  0.00000000000E+00 0. -1.
         21   -1    0    0  502  503 -0.00000000000E+00 -0.00000000000E+00 -0.28958172071E+03  0.28958172071E+03  0.00000000000E+00 0. -1.
          6    1    1    2  501    0 -0.12716986322E+03 -0.72950545672E+02  0.24031703261E+01  0.22601710434E+03  0.17200000000E+03 0. -1.
         -6    1    1    2    0  503  0.12716986322E+03  0.72950545672E+02 -0.10594515592E+03  0.24960435150E+03  0.17200000000E+03 0. -1.
</event>
<event>
 4    1  0.4405880E+000  0.2935094E+03  0.7818608E-02  0.1088531E+00
         21   -1    0    0  501  502  0.00000000000E+00  0.00000000000E+00  0.62941286296E+03  0.62941286296E+03  0.00000000000E+00 0. -1.
         21   -1    0    0  502  503 -0.00000000000E+00 -0.00000000000E+00 -0.32194965208E+03  0.32194965208E+03  0.00000000000E+00 0. -1.
          6    1    1    2  501    0  0.14684895472E+03  0.18708055947E+03  0.51439442494E+03  0.59224097769E+03  0.17200000000E+03 0. -1.
         -6    1    1    2    0  503 -0.14684895472E+03 -0.18708055947E+03 -0.20693121406E+03  0.35912153735E+03  0.17200000000E+03 0. -1.
</event>
<event>
 4    1  0.4405880E+000  0.4679238E+03  0.7818608E-02  0.1022508E+00
         21   -1    0    0  501  502  0.00000000000E+00  0.00000000000E+00  0.50287524961E+03  0.50287524961E+03  0.00000000000E+00 0. -1.
         21   -1    0    0  502  503 -0.00000000000E+00 -0.00000000000E+00 -0.64534163870E+03  0.64534163870E+03  0.00000000000E+00 0.  1.
          6    1    1    2  501    0 -0.41166981316E+03 -0.14105544776E+03  0.25621813331E+03  0.53347952748E+03  0.17200000000E+03 0. -1.
         -6    1    1    2    0  503  0.41166981316E+03  0.14105544776E+03 -0.39868452239E+03  0.61473736083E+03  0.17200000000E+03 0.  1.
</event>
<event>
 4    1  0.4405880E+000  0.3223696E+03  0.7818608E-02  0.1074564E+00
         21   -1    0    0  503  502  0.00000000000E+00  0.00000000000E+00  0.64616492351E+03  0.64616492351E+03  0.00000000000E+00 0. -1.
         21   -1    0    0  501  503 -0.00000000000E+00 -0.00000000000E+00 -0.21837601982E+03  0.21837601982E+03  0.00000000000E+00 0.  1.
          6    1    1    2  501    0 -0.92615515476E+02 -0.25643812901E+03 -0.80089676295E+01  0.32246905476E+03  0.17200000000E+03 0. -1.
         -6    1    1    2    0  502  0.92615515476E+02  0.25643812901E+03  0.43579787132E+03  0.54207188856E+03  0.17200000000E+03 0. -1.
</event>
<event>
 4    1  0.4405880E+000  0.1736278E+03  0.7818608E-02  0.1174117E+00
         21   -1    0    0  501  502  0.00000000000E+00  0.00000000000E+00  0.88596145559E+03  0.88596145559E+03  0.00000000000E+00 0.  1.
         21   -1    0    0  502  503 -0.00000000000E+00 -0.00000000000E+00 -0.10461453370E+03  0.10461453370E+03  0.00000000000E+00 0.  1.
          6    1    1    2  501    0 -0.96402966364E+01 -0.21671874499E+02  0.79751548918E+03  0.81619701111E+03  0.17200000000E+03 0.  1.
         -6    1    1    2    0  503  0.96402966364E+01  0.21671874499E+02 -0.16168567280E+02  0.17437897818E+03  0.17200000000E+03 0.  1.
</event>
<event>
 4    1  0.4405880E+000  0.2004019E+03  0.7818608E-02  0.1149400E+00
         21   -1    0    0  503  502  0.00000000000E+00  0.00000000000E+00  0.16944670618E+03  0.16944670618E+03  0.00000000000E+00 0.  1.
         21   -1    0    0  501  503 -0.00000000000E+00 -0.00000000000E+00 -0.45986145818E+03  0.45986145818E+03  0.00000000000E+00 0.  1.
          6    1    1    2  501    0  0.73973356162E+02 -0.71448229650E+02 -0.36424848590E+03  0.41573773755E+03  0.17200000000E+03 0.  1.
         -6    1    1    2    0  502 -0.73973356162E+02  0.71448229650E+02  0.73833733907E+02  0.21357042680E+03  0.17200000000E+03 0.  1.
</event>
<event>
 4    1  0.4405880E+000  0.2265939E+03  0.7818608E-02  0.1129060E+00
         21   -1    0    0  501  502  0.00000000000E+00  0.00000000000E+00  0.18515313216E+03  0.18515313216E+03  0.00000000000E+00 0.  1.
         21   -1    0    0  502  503 -0.00000000000E+00 -0.00000000000E+00 -0.12496850185E+04  0.12496850185E+04  0.00000000000E+00 0.  1.
          6    1    1    2  501    0  0.66604720921E+02 -0.13162303878E+03  0.10056766711E+03  0.24790858972E+03  0.17200000000E+03 0.  1.
         -6    1    1    2    0  503 -0.66604720921E+02  0.13162303878E+03 -0.11650995534E+04  0.11869295609E+04  0.17200000000E+03 0.  1.
</event>
<event>
 4    1  0.4405880E+000  0.2403235E+03  0.7818608E-02  0.1119578E+00
         21   -1    0    0  503  502  0.00000000000E+00  0.00000000000E+00  0.37502355895E+03  0.37502355895E+03  0.00000000000E+00 0.  1.
         21   -1    0    0  501  503 -0.00000000000E+00 -0.00000000000E+00 -0.20254950368E+03  0.20254950368E+03  0.00000000000E+00 0.  1.
          6    1    1    2  501    0  0.10611718497E+03  0.13004045258E+03 -0.55141316066E+02  0.24656832925E+03  0.17200000000E+03 0.  1.
         -6    1    1    2    0  502 -0.10611718497E+03 -0.13004045258E+03  0.22761537133E+03  0.33100473338E+03  0.17200000000E+03 0.  1.
</event>
<event>
 4    1  0.4405880E+000  0.1786318E+03  0.7818608E-02  0.1169134E+00
         21   -1    0    0  501  502  0.00000000000E+00  0.00000000000E+00  0.63794909422E+03  0.63794909422E+03  0.00000000000E+00 0. -1.
         21   -1    0    0  502  503 -0.00000000000E+00 -0.00000000000E+00 -0.94098455595E+02  0.94098455595E+02  0.00000000000E+00 0. -1.
          6    1    1    2  501    0 -0.42770567180E+02 -0.22271078700E+02  0.52244284614E+03  0.55213752802E+03  0.17200000000E+03 0. -1.
         -6    1    1    2    0  503  0.42770567180E+02  0.22271078700E+02  0.21407792484E+02  0.17991002180E+03  0.17200000000E+03 0. -1.
</event>
<event>
 4    1  0.4405880E+000  0.1910507E+03  0.7818608E-02  0.1157517E+00
         21   -1    0    0  501  502  0.00000000000E+00  0.00000000000E+00  0.10078519064E+03  0.10078519064E+03  0.00000000000E+00 0. -1.
         21   -1    0    0  502  503 -0.00000000000E+00 -0.00000000000E+00 -0.44200470270E+03  0.44200470270E+03  0.00000000000E+00 0. -1.
          6    1    1    2  501    0 -0.33188945268E+02  0.76255235959E+02 -0.55261429106E+02  0.19888235881E+03  0.17200000000E+03 0. -1.
         -6    1    1    2    0  503  0.33188945268E+02 -0.76255235959E+02 -0.28595808296E+03  0.34390753453E+03  0.17200000000E+03 0. -1.
</event>
<event>
 4    1  0.4405880E+000  0.1974297E+03  0.7818608E-02  0.1151926E+00
         21   -1    0    0  503  502  0.00000000000E+00  0.00000000000E+00  0.18994965816E+03  0.18994965816E+03  0.00000000000E+00 0.  1.
         21   -1    0    0  501  503 -0.00000000000E+00 -0.00000000000E+00 -0.21150506963E+03  0.21150506963E+03  0.00000000000E+00 0.  1.
          6    1    1    2  501    0 -0.42988074619E+02 -0.86870635895E+02 -0.45422967212E+02  0.20258758079E+03  0.17200000000E+03 0. -1.
         -6    1    1    2    0  502  0.42988074619E+02  0.86870635895E+02  0.23867555742E+02  0.19886714700E+03  0.17200000000E+03 0. -1.
</event>
<event>
 4    1  0.4405880E+000  0.1955901E+03  0.7818608E-02  0.1153514E+00
         21   -1    0    0  503  502  0.00000000000E+00  0.00000000000E+00  0.10810844244E+03  0.10810844244E+03  0.00000000000E+00 0. -1.
         21   -1    0    0  501  503 -0.00000000000E+00 -0.00000000000E+00 -0.11172925010E+04  0.11172925010E+04  0.00000000000E+00 0. -1.
          6    1    1    2  501    0  0.88511701062E+02  0.28933778783E+02 -0.10110570857E+04  0.10298018815E+04  0.17200000000E+03 0. -1.
         -6    1    1    2    0  502 -0.88511701062E+02 -0.28933778783E+02  0.18730271121E+01  0.19559906188E+03  0.17200000000E+03 0. -1.
</event>
<event>
 4    1  0.4405880E+000  0.1772345E+03  0.7818608E-02  0.1170507E+00
         21   -1    0    0  503  502  0.00000000000E+00  0.00000000000E+00  0.10809595963E+03  0.10809595963E+03  0.00000000000E+00 0. -1.
         21   -1    0    0  501  503 -0.00000000000E+00 -0.00000000000E+00 -0.30401990643E+03  0.30401990643E+03  0.00000000000E+00 0. -1.
          6    1    1    2  501    0  0.37642361629E+02 -0.20276227235E+02 -0.14126366144E+03  0.22664398255E+03  0.17200000000E+03 0. -1.
         -6    1    1    2    0  502 -0.37642361629E+02  0.20276227235E+02 -0.54660285350E+02  0.18547188351E+03  0.17200000000E+03 0. -1.
</event>
<event>
 4    1  0.4405880E+000  0.1869948E+03  0.7818608E-02  0.1161200E+00
         21   -1    0    0  501  502  0.00000000000E+00  0.00000000000E+00  0.51659637354E+02  0.51659637354E+02  0.00000000000E+00 0. -1.
         21   -1    0    0  502  503 -0.00000000000E+00 -0.00000000000E+00 -0.71587044979E+03  0.71587044979E+03  0.00000000000E+00 0. -1.
          6    1    1    2  501    0 -0.58271777961E+02 -0.44580885584E+02 -0.42167524630E+03  0.46127764828E+03  0.17200000000E+03 0. -1.
         -6    1    1    2    0  503  0.58271777961E+02  0.44580885584E+02 -0.24253556614E+03  0.30625243886E+03  0.17200000000E+03 0. -1.
</event>
<event>
 4    1  0.4405880E+000  0.1887021E+03  0.7818608E-02  0.1159637E+00
         21   -1    0    0  503  502  0.00000000000E+00  0.00000000000E+00  0.43442486205E+02  0.43442486205E+02  0.00000000000E+00 0. -1.
         21   -1    0    0  501  503 -0.00000000000E+00 -0.00000000000E+00 -0.11104643376E+04  0.11104643376E+04  0.00000000000E+00 0. -1.
          6    1    1    2  501    0 -0.12287709445E+02 -0.76638641759E+02 -0.82875554118E+03  0.84996718539E+03  0.17200000000E+03 0.  1.
         -6    1    1    2    0  502  0.12287709445E+02  0.76638641759E+02 -0.23826631023E+03  0.30393963842E+03  0.17200000000E+03 0.  1.
</event>
<event>
 4    1  0.4405880E+000  0.1846011E+03  0.7818608E-02  0.1163423E+00
         21   -1    0    0  503  502  0.00000000000E+00  0.00000000000E+00  0.95129940542E+03  0.95129940542E+03  0.00000000000E+00 0. -1.
         21   -1    0    0  501  503 -0.00000000000E+00 -0.00000000000E+00 -0.38619182679E+02  0.38619182679E+02  0.00000000000E+00 0. -1.
          6    1    1    2  501    0  0.66976975544E+02  0.27689615952E+01  0.32313609054E+03  0.37214851257E+03  0.17200000000E+03 0. -1.
         -6    1    1    2    0  502 -0.66976975544E+02 -0.27689615952E+01  0.58954413220E+03  0.61777007553E+03  0.17200000000E+03 0. -1.
</event>
<event>
 4    1  0.4405880E+000  0.1825136E+03  0.7818608E-02  0.1165392E+00
         21   -1    0    0  501  502  0.00000000000E+00  0.00000000000E+00  0.64011949879E+02  0.64011949879E+02  0.00000000000E+00 0. -1.
         21   -1    0    0  502  503 -0.00000000000E+00 -0.00000000000E+00 -0.52173266684E+03  0.52173266684E+03  0.00000000000E+00 0.  1.
          6    1    1    2  501    0 -0.61050881999E+02 -0.91886548678E-01 -0.21400656966E+03  0.28126505381E+03  0.17200000000E+03 0.  1.
         -6    1    1    2    0  503  0.61050881999E+02  0.91886548678E-01 -0.24371414730E+03  0.30447956291E+03  0.17200000000E+03 0.  1.
</event>
<event>
 4    1  0.4405880E+000  0.1975169E+03  0.7818608E-02  0.1151851E+00
         21   -1    0    0  501  502  0.00000000000E+00  0.00000000000E+00  0.81426613746E+03  0.81426613746E+03  0.00000000000E+00 0. -1.
         21   -1    0    0  502  503 -0.00000000000E+00 -0.00000000000E+00 -0.68860227378E+02  0.68860227378E+02  0.00000000000E+00 0. -1.
          6    1    1    2  501    0 -0.58579170397E+02  0.77442996499E+02  0.61625096675E+03  0.64713073713E+03  0.17200000000E+03 0. -1.
         -6    1    1    2    0  503  0.58579170397E+02 -0.77442996499E+02  0.12915494332E+03  0.23599562771E+03  0.17200000000E+03 0. -1.
</event>
<event>
 4    1  0.4405880E+000  0.1945568E+03  0.7818608E-02  0.1154414E+00
         21   -1    0    0  501  502  0.00000000000E+00  0.00000000000E+00  0.67667575927E+02  0.67667575927E+02  0.00000000000E+00 0.  1.
         21   -1    0    0  502  503 -0.00000000000E+00 -0.00000000000E+00 -0.60224224151E+03  0.60224224151E+03  0.00000000000E+00 0.  1.
          6    1    1    2  501    0 -0.74293476805E+02 -0.52429111527E+02 -0.17793519463E+03  0.26365368558E+03  0.17200000000E+03 0.  1.
         -6    1    1    2    0  503  0.74293476805E+02  0.52429111527E+02 -0.35663947095E+03  0.40625613185E+03  0.17200000000E+03 0.  1.
</event>
<event>
 4    1  0.4405880E+000  0.1841211E+03  0.7818608E-02  0.1163873E+00
         21   -1    0    0  501  502  0.00000000000E+00  0.00000000000E+00  0.33416622004E+02  0.33416622004E+02  0.00000000000E+00 0.  1.
         21   -1    0    0  502  503 -0.00000000000E+00 -0.00000000000E+00 -0.15754261787E+04  0.15754261787E+04  0.00000000000E+00 0.  1.
          6    1    1    2  501    0  0.63770038085E+02 -0.15810369734E+02 -0.29100157988E+03  0.34435810582E+03  0.17200000000E+03 0.  1.
         -6    1    1    2    0  503 -0.63770038085E+02  0.15810369734E+02 -0.12510079768E+04  0.12644846949E+04  0.17200000000E+03 0.  1.
</event>
<event>
 4    1  0.4405880E+000  0.2013101E+03  0.7818608E-02  0.1148638E+00
         21   -1    0    0  503  502  0.00000000000E+00  0.00000000000E+00  0.13143590725E+04  0.13143590725E+04  0.00000000000E+00 0.  1.
         21   -1    0    0  501  503 -0.00000000000E+00 -0.00000000000E+00 -0.34917299254E+02  0.34917299254E+02  0.00000000000E+00 0.  1.
          6    1    1    2  501    0 -0.81618556394E+02 -0.65422899895E+02  0.40899045818E+03  0.45584968954E+03  0.17200000000E+03 0.  1.
         -6    1    1    2    0  502  0.81618556394E+02  0.65422899895E+02  0.87045131510E+03  0.89342668224E+03  0.17200000000E+03 0.  1.
</event>
<event>
 4    1  0.4405880E+000  0.1981545E+03  0.7818608E-02  0.1151305E+00
         21   -1    0    0  501  502  0.00000000000E+00  0.00000000000E+00  0.14292583347E+03  0.14292583347E+03  0.00000000000E+00 0.  1.
         21   -1    0    0  502  503 -0.00000000000E+00 -0.00000000000E+00 -0.81755743392E+03  0.81755743392E+03  0.00000000000E+00 0. -1.
          6    1    1    2  501    0 -0.93074911616E+02  0.31910342813E+02  0.54005798603E+02  0.20538216922E+03  0.17200000000E+03 0.  1.
         -6    1    1    2    0  503  0.93074911616E+02 -0.31910342813E+02 -0.72863739905E+03  0.75510109816E+03  0.17200000000E+03 0. -1.
</event>
<event>
 4    1  0.4405880E+000  0.1792143E+03  0.7818608E-02  0.1168566E+00
         21   -1    0    0  503  502  0.00000000000E+00  0.00000000000E+00  0.60750043813E+02  0.60750043813E+02  0.00000000000E+00 0.  1.
         21   -1    0    0  501  503 -0.00000000000E+00 -0.00000000000E+00 -0.63258212575E+03  0.63258212575E+03  0.00000000000E+00 0.  1.
          6    1    1    2  501    0 -0.34219645113E+02 -0.36915923354E+02 -0.42640755806E+03  0.46253775531E+03  0.17200000000E+03 0.  1.
         -6    1    1    2    0  502  0.34219645113E+02  0.36915923354E+02 -0.14542452387E+03  0.23079441426E+03  0.17200000000E+03 0.  1.
</event>
<event>
 4    1  0.4405880E+000  0.2427168E+03  0.7818608E-02  0.1117996E+00
         21   -1    0    0  503  502  0.00000000000E+00  0.00000000000E+00  0.30904560902E+03  0.30904560902E+03  0.00000000000E+00 0.  1.
         21   -1    0    0  501  503 -0.00000000000E+00 -0.00000000000E+00 -0.19188070397E+03  0.19188070397E+03  0.00000000000E+00 0. -1.
          6    1    1    2  501    0 -0.17038716576E+03 -0.17194914815E+02  0.38311340305E+02  0.24572181455E+03  0.17200000000E+03 0. -1.
         -6    1    1    2    0  502  0.17038716576E+03  0.17194914815E+02  0.78853564754E+02  0.25520449844E+03  0.17200000000E+03 0.  1.
</event>
<event>
 4    1  0.4405880E+000  0.2640844E+03  0.7818608E-02  0.1104714E+00
         21   -1    0    0  501  502  0.00000000000E+00  0.00000000000E+00  0.12771522224E+03  0.12771522224E+03  0.00000000000E+00 0. -1.
         21   -1    0    0  502  503 -0.00000000000E+00 -0.00000000000E+00 -0.55018222373E+03  0.55018222373E+03  0.00000000000E+00 0.  1.
          6    1    1    2  501    0 -0.21223784703E+02 -0.19926393341E+03 -0.24056171452E+03  0.35722612263E+03  0.17200000000E+03 0.  1.
         -6    1    1    2    0  503  0.21223784703E+02  0.19926393341E+03 -0.18190528697E+03  0.32067132335E+03  0.17200000000E+03 0. -1.
</event>
<event>
 4    1  0.4405880E+000  0.2577025E+03  0.7818608E-02  0.1108532E+00
         21   -1    0    0  501  502  0.00000000000E+00  0.00000000000E+00  0.34535912346E+03  0.34535912346E+03  0.00000000000E+00 0.  1.
         21   -1    0    0  502  503 -0.00000000000E+00 -0.00000000000E+00 -0.29278387102E+03  0.29278387102E+03  0.00000000000E+00 0. -1.
          6    1    1    2  501    0  0.19166101037E+03  0.96234541203E+01  0.21321597275E+03  0.33447212859E+03  0.17200000000E+03 0.  1.
         -6    1    1    2    0  503 -0.19166101037E+03 -0.96234541203E+01 -0.16064072031E+03  0.30367086589E+03  0.17200000000E+03 0. -1.
</event>
<event>
 4    1  0.4405880E+000  0.1813874E+03  0.7818608E-02  0.1166467E+00
         21   -1    0    0  501  502  0.00000000000E+00  0.00000000000E+00  0.11502583414E+04  0.11502583414E+04  0.00000000000E+00 0. -1.
         21   -1    0    0  502  503 -0.00000000000E+00 -0.00000000000E+00 -0.11618512896E+03  0.11618512896E+03  0.00000000000E+00 0. -1.
          6    1    1    2  501    0  0.11762042398E+02  0.56383077991E+02  0.10668142656E+04  0.10821247961E+04  0.17200000000E+03 0. -1.
         -6    1    1    2    0  503 -0.11762042398E+02 -0.56383077991E+02 -0.32741053110E+02  0.18431867427E+03  0.17200000000E+03 0. -1.
</event>
<event>
 4    1  0.4405880E+000  0.1827876E+03  0.7818608E-02  0.1165132E+00
         21   -1    0    0  503  502  0.00000000000E+00  0.00000000000E+00  0.15924501206E+03  0.15924501206E+03  0.00000000000E+00 0.  1.
         21   -1    0    0  501  503 -0.00000000000E+00 -0.00000000000E+00 -0.81666013931E+03  0.81666013931E+03  0.00000000000E+00 0. -1.
          6    1    1    2  501    0 -0.23059312268E+02  0.57407024336E+02  0.91919714358E+02  0.20459846581E+03  0.17200000000E+03 0.  1.
         -6    1    1    2    0  502  0.23059312268E+02 -0.57407024336E+02 -0.74933484161E+03  0.77130668555E+03  0.17200000000E+03 0. -1.
</event>
<event>
 4    1  0.4405880E+000  0.3088462E+03  0.7818608E-02  0.1080900E+00
         21   -1    0    0  503  502  0.00000000000E+00  0.00000000000E+00  0.18413910935E+04  0.18413910935E+04  0.00000000000E+00 0.  1.
         21   -1    0    0  501  503 -0.00000000000E+00 -0.00000000000E+00 -0.71121541279E+02  0.71121541279E+02  0.00000000000E+00 0. -1.
          6    1    1    2  501    0  0.14238331297E+03 -0.21337519208E+03  0.38672920114E+03  0.49491964542E+03  0.17200000000E+03 0. -1.
         -6    1    1    2    0  502 -0.14238331297E+03  0.21337519208E+03  0.13835403511E+04  0.14175929894E+04  0.17200000000E+03 0.  1.
</event>
<event>
 4    1  0.4405880E+000  0.1870717E+03  0.7818608E-02  0.1161129E+00
         21   -1    0    0  501  502  0.00000000000E+00  0.00000000000E+00  0.39122552111E+03  0.39122552111E+03  0.00000000000E+00 0.  1.
         21   -1    0    0  502  503 -0.00000000000E+00 -0.00000000000E+00 -0.31097381453E+03  0.31097381453E+03  0.00000000000E+00 0. -1.
          6    1    1    2  501    0  0.73564981468E+02 -0.51544462209E-01  0.33645679361E+03  0.38496621036E+03  0.17200000000E+03 0.  1.
         -6    1    1    2    0  503 -0.73564981468E+02  0.51544462209E-01 -0.25620508703E+03  0.31723312528E+03  0.17200000000E+03 0. -1.
</event>
<event>
 4    1  0.4405880E+000  0.2032707E+03  0.7818608E-02  0.1147009E+00
         21   -1    0    0  501  502  0.00000000000E+00  0.00000000000E+00  0.95428758501E+02  0.95428758501E+02  0.00000000000E+00 0.  1.
         21   -1    0    0  502  503 -0.00000000000E+00 -0.00000000000E+00 -0.60706171159E+03  0.60706171159E+03  0.00000000000E+00 0. -1.
          6    1    1    2  501    0 -0.24327534837E+02  0.10556107470E+03 -0.67725636706E+02  0.21425622817E+03  0.17200000000E+03 0.  1.
         -6    1    1    2    0  503  0.24327534837E+02 -0.10556107470E+03 -0.44390731638E+03  0.48823424192E+03  0.17200000000E+03 0. -1.
</event>
<event>
 4    1  0.4405880E+000  0.1975677E+03  0.7818608E-02  0.1151808E+00
         21   -1    0    0  501  502  0.00000000000E+00  0.00000000000E+00  0.12568746098E+03  0.12568746098E+03  0.00000000000E+00 0. -1.
         21   -1    0    0  502  503 -0.00000000000E+00 -0.00000000000E+00 -0.34296938490E+03  0.34296938490E+03  0.00000000000E+00 0. -1.
          6    1    1    2  501    0  0.89392704873E+02  0.38183046859E+02 -0.36603370138E+02  0.20092985706E+03  0.17200000000E+03 0. -1.
         -6    1    1    2    0  503 -0.89392704873E+02 -0.38183046859E+02 -0.18067855378E+03  0.26772698883E+03  0.17200000000E+03 0. -1.
</event>
<event>
 4    1  0.4405880E+000  0.1838113E+03  0.7818608E-02  0.1164165E+00
         21   -1    0    0  503  502  0.00000000000E+00  0.00000000000E+00  0.86853457537E+03  0.86853457537E+03  0.00000000000E+00 0.  1.
         21   -1    0    0  501  503 -0.00000000000E+00 -0.00000000000E+00 -0.38959847602E+02  0.38959847602E+02  0.00000000000E+00 0.  1.
          6    1    1    2  501    0 -0.69877910133E+01 -0.64449609082E+02  0.39710398344E+03  0.43758216943E+03  0.17200000000E+03 0.  1.
         -6    1    1    2    0  502  0.69877910133E+01  0.64449609082E+02  0.43247074432E+03  0.46991225354E+03  0.17200000000E+03 0.  1.
</event>
<event>
 4    1  0.4405880E+000  0.2405290E+03  0.7818608E-02  0.1119441E+00
         21   -1    0    0  501  502  0.00000000000E+00  0.00000000000E+00  0.38493184150E+03  0.38493184150E+03  0.00000000000E+00 0.  1.
         21   -1    0    0  502  503 -0.00000000000E+00 -0.00000000000E+00 -0.21490902265E+03  0.21490902265E+03  0.00000000000E+00 0. -1.
          6    1    1    2  501    0 -0.51180546266E+02 -0.16015856398E+03  0.24946161120E+03  0.34653327314E+03  0.17200000000E+03 0.  1.
         -6    1    1    2    0  503  0.51180546266E+02  0.16015856398E+03 -0.79438792355E+02  0.25330759101E+03  0.17200000000E+03 0. -1.
</event>
<event>
 4    1  0.4405880E+000  0.1859376E+03  0.7818608E-02  0.1162177E+00
         21   -1    0    0  501  502  0.00000000000E+00  0.00000000000E+00  0.11857145743E+03  0.11857145743E+03  0.00000000000E+00 0.  1.
         21   -1    0    0  502  503 -0.00000000000E+00 -0.00000000000E+00 -0.30657624893E+03  0.30657624893E+03  0.00000000000E+00 0. -1.
          6    1    1    2  501    0  0.53996994745E+02  0.45531351830E+02 -0.46984103587E+02  0.19178186940E+03  0.17200000000E+03 0. -1.
         -6    1    1    2    0  503 -0.53996994745E+02 -0.45531351830E+02 -0.14102068791E+03  0.23336583696E+03  0.17200000000E+03 0. -1.
</event>
<event>
 4    1  0.4405880E+000  0.2716076E+03  0.7818608E-02  0.1100363E+00
         21   -1    0    0  503  502  0.00000000000E+00  0.00000000000E+00  0.65396860498E+03  0.65396860498E+03  0.00000000000E+00 0.  1.
         21   -1    0    0  501  503 -0.00000000000E+00 -0.00000000000E+00 -0.18659790400E+03  0.18659790400E+03  0.00000000000E+00 0.  1.
          6    1    1    2  501    0  0.17380196232E+03  0.11823514487E+03 -0.30614649294E+02  0.27332751113E+03  0.17200000000E+03 0.  1.
         -6    1    1    2    0  502 -0.17380196232E+03 -0.11823514487E+03  0.49798535028E+03  0.56723899785E+03  0.17200000000E+03 0.  1.
</event>
<event>
 4    1  0.4405880E+000  0.2159881E+03  0.7818608E-02  0.1136910E+00
         21   -1    0    0  501  502  0.00000000000E+00  0.00000000000E+00  0.42738549348E+02  0.42738549348E+02  0.00000000000E+00 0. -1.
         21   -1    0    0  502  503 -0.00000000000E+00 -0.00000000000E+00 -0.10919559479E+04  0.10919559479E+04  0.00000000000E+00 0. -1.
          6    1    1    2  501    0 -0.12868262835E+03 -0.22531227864E+02 -0.53566958772E+03  0.57757491486E+03  0.17200000000E+03 0. -1.
         -6    1    1    2    0  503  0.12868262835E+03  0.22531227864E+02 -0.51354781084E+03  0.55711958239E+03  0.17200000000E+03 0. -1.
</event>
<event>
 4    1  0.4405880E+000  0.2219962E+03  0.7818608E-02  0.1132403E+00
         21   -1    0    0  501  502  0.00000000000E+00  0.00000000000E+00  0.45357629511E+03  0.45357629511E+03  0.00000000000E+00 0. -1.
         21   -1    0    0  502  503 -0.00000000000E+00 -0.00000000000E+00 -0.10898916146E+03  0.10898916146E+03  0.00000000000E+00 0.  1.
          6    1    1    2  501    0 -0.13911500760E+03 -0.18583458744E+02  0.18792002304E+03  0.29085437136E+03  0.17200000000E+03 0.  1.
         -6    1    1    2    0  503  0.13911500760E+03  0.18583458744E+02  0.15666711061E+03  0.27171108521E+03  0.17200000000E+03 0.  1.
</event>
<event>
 4    1  0.4405880E+000  0.2174020E+03  0.7818608E-02  0.1135835E+00
         21   -1    0    0  503  502  0.00000000000E+00  0.00000000000E+00  0.13733077681E+03  0.13733077681E+03  0.00000000000E+00 0.  1.
         21   -1    0    0  501  503 -0.00000000000E+00 -0.00000000000E+00 -0.60786039903E+03  0.60786039903E+03  0.00000000000E+00 0.  1.
          6    1    1    2  501    0  0.83859700041E+02 -0.10318511455E+03 -0.48067468562E+03  0.52755262349E+03  0.17200000000E+03 0.  1.
         -6    1    1    2    0  502 -0.83859700041E+02  0.10318511455E+03  0.10145063404E+02  0.21763855234E+03  0.17200000000E+03 0.  1.
</event>
<event>
 4    1  0.4405880E+000  0.2081579E+03  0.7818608E-02  0.1143033E+00
         21   -1    0    0  501  502  0.00000000000E+00  0.00000000000E+00  0.15977584577E+03  0.15977584577E+03  0.00000000000E+00 0.  1.
         21   -1    0    0  502  503 -0.00000000000E+00 -0.00000000000E+00 -0.31493511459E+03  0.31493511459E+03  0.00000000000E+00 0. -1.
          6    1    1    2  501    0 -0.11474027387E+03  0.24091303933E+02  0.10881008121E+02  0.20844212077E+03  0.17200000000E+03 0.  1.
         -6    1    1    2    0  503  0.11474027387E+03 -0.24091303933E+02 -0.16604027694E+03  0.26626883959E+03  0.17200000000E+03 0. -1.
</event>
<event>
 4    1  0.4405880E+000  0.1807931E+03  0.7818608E-02  0.1167038E+00
         21   -1    0    0  503  502  0.00000000000E+00  0.00000000000E+00  0.59613199716E+02  0.59613199716E+02  0.00000000000E+00 0.  1.
         21   -1    0    0  501  503 -0.00000000000E+00 -0.00000000000E+00 -0.81868795224E+03  0.81868795224E+03  0.00000000000E+00 0.  1.
          6    1    1    2  501    0 -0.36110822471E+02 -0.42404486053E+02 -0.12716312982E+03  0.22103527665E+03  0.17200000000E+03 0.  1.
         -6    1    1    2    0  502  0.36110822471E+02  0.42404486053E+02 -0.63191162270E+03  0.65726587531E+03  0.17200000000E+03 0.  1.
</event>
<event>
 4    1  0.4405880E+000  0.2104359E+03  0.7818608E-02  0.1141221E+00
         21   -1    0    0  503  502  0.00000000000E+00  0.00000000000E+00  0.11713368480E+04  0.11713368480E+04  0.00000000000E+00 0. -1.
         21   -1    0    0  501  503 -0.00000000000E+00 -0.00000000000E+00 -0.97315456880E+02  0.97315456880E+02  0.00000000000E+00 0. -1.
          6    1    1    2  501    0 -0.32662779429E+02 -0.11675798358E+03  0.40971995854E+02  0.21438747243E+03  0.17200000000E+03 0. -1.
         -6    1    1    2    0  502  0.32662779429E+02  0.11675798358E+03  0.10330493953E+04  0.10542648325E+04  0.17200000000E+03 0. -1.
</event>
<event>
 4    1  0.4405880E+000  0.2056418E+03  0.7818608E-02  0.1145064E+00
         21   -1    0    0  503  502  0.00000000000E+00  0.00000000000E+00  0.51455976795E+02  0.51455976795E+02  0.00000000000E+00 0. -1.
         21   -1    0    0  501  503 -0.00000000000E+00 -0.00000000000E+00 -0.83496065668E+03  0.83496065668E+03  0.00000000000E+00 0.  1.
          6    1    1    2  501    0  0.65578082338E+02 -0.91673659201E+02 -0.44731256967E+03  0.49231806758E+03  0.17200000000E+03 0. -1.
         -6    1    1    2    0  502 -0.65578082338E+02  0.91673659201E+02 -0.33619211022E+03  0.39409856590E+03  0.17200000000E+03 0. -1.
</event>
<event>
 4    1  0.4405880E+000  0.1729196E+03  0.7818608E-02  0.1174837E+00
         21   -1    0    0  501  502  0.00000000000E+00  0.00000000000E+00  0.45158935957E+03  0.45158935957E+03  0.00000000000E+00 0. -1.
         21   -1    0    0  502  503 -0.00000000000E+00 -0.00000000000E+00 -0.76491905271E+02  0.76491905271E+02  0.00000000000E+00 0. -1.
          6    1    1    2  501    0  0.54699327451E+01  0.16948490533E+02  0.28433916839E+03  0.33279112695E+03  0.17200000000E+03 0. -1.
         -6    1    1    2    0  503 -0.54699327451E+01 -0.16948490533E+02  0.90758285902E+02  0.19529013789E+03  0.17200000000E+03 0. -1.
</event>
<event>
 4    1  0.4405880E+000  0.1917280E+03  0.7818608E-02  0.1156912E+00
         21   -1    0    0  503  502  0.00000000000E+00  0.00000000000E+00  0.77997520127E+03  0.77997520127E+03  0.00000000000E+00 0. -1.
         21   -1    0    0  501  503 -0.00000000000E+00 -0.00000000000E+00 -0.94145685459E+02  0.94145685459E+02  0.00000000000E+00 0. -1.
          6    1    1    2  501    0  0.43415277557E+02 -0.72737365849E+02  0.65177808939E+03  0.67939258792E+03  0.17200000000E+03 0. -1.
         -6    1    1    2    0  502 -0.43415277557E+02  0.72737365849E+02  0.34051426427E+02  0.19472829881E+03  0.17200000000E+03 0. -1.
</event>
<event>
 4    1  0.4405880E+000  0.1973974E+03  0.7818608E-02  0.1151954E+00
         21   -1    0    0  503  502  0.00000000000E+00  0.00000000000E+00  0.87837860421E+02  0.87837860421E+02  0.00000000000E+00 0. -1.
         21   -1    0    0  501  503 -0.00000000000E+00 -0.00000000000E+00 -0.53182547196E+03  0.53182547196E+03  0.00000000000E+00 0. -1.
          6    1    1    2  501    0  0.16723773718E+02  0.95404694931E+02 -0.34818062004E+03  0.40024428115E+03  0.17200000000E+03 0. -1.
         -6    1    1    2    0  502 -0.16723773718E+02 -0.95404694931E+02 -0.95806991496E+02  0.21941905123E+03  0.17200000000E+03 0. -1.
</event>
<event>
 4    1  0.4405880E+000  0.2447590E+03  0.7818608E-02  0.1116663E+00
         21   -1    0    0  501  502  0.00000000000E+00  0.00000000000E+00  0.68991163093E+02  0.68991163093E+02  0.00000000000E+00 0.  1.
         21   -1    0    0  502  503 -0.00000000000E+00 -0.00000000000E+00 -0.14266126580E+04  0.14266126580E+04  0.00000000000E+00 0.  1.
          6    1    1    2  501    0  0.13214317826E+03  0.11340694282E+03 -0.21100946780E+03  0.32315932563E+03  0.17200000000E+03 0.  1.
         -6    1    1    2    0  503 -0.13214317826E+03 -0.11340694282E+03 -0.11466120271E+04  0.11724444955E+04  0.17200000000E+03 0.  1.
</event>
<event>
 4    1  0.4405880E+000  0.2129032E+03  0.7818608E-02  0.1139287E+00
         21   -1    0    0  501  502  0.00000000000E+00  0.00000000000E+00  0.36624322116E+03  0.36624322116E+03  0.00000000000E+00 0. -1.
         21   -1    0    0  502  503 -0.00000000000E+00 -0.00000000000E+00 -0.15464002655E+03  0.15464002655E+03  0.00000000000E+00 0.  1.
          6    1    1    2  501    0 -0.66675348631E+02  0.10629292214E+03  0.22217640082E+03  0.30771763111E+03  0.17200000000E+03 0. -1.
         -6    1    1    2    0  503  0.66675348631E+02 -0.10629292214E+03 -0.10573206210E+02  0.21316561660E+03  0.17200000000E+03 0.  1.
</event>
<event>
 4    1  0.4405880E+000  0.1870294E+03  0.7818608E-02  0.1161168E+00
         21   -1    0    0  503  502  0.00000000000E+00  0.00000000000E+00  0.11376100045E+04  0.11376100045E+04  0.00000000000E+00 0. -1.
         21   -1    0    0  501  503 -0.00000000000E+00 -0.00000000000E+00 -0.34169242056E+02  0.34169242056E+02  0.00000000000E+00 0. -1.
          6    1    1    2  501    0 -0.25982085120E+02  0.68708970410E+02  0.36634686537E+03  0.41132714125E+03  0.17200000000E+03 0. -1.
         -6    1    1    2    0  502  0.25982085120E+02 -0.68708970410E+02  0.73709389705E+03  0.76045210528E+03  0.17200000000E+03 0. -1.
</event>
<event>
 4    1  0.4405880E+000  0.1970365E+03  0.7818608E-02  0.1152264E+00
         21   -1    0    0  501  502  0.00000000000E+00  0.00000000000E+00  0.10304247034E+03  0.10304247034E+03  0.00000000000E+00 0. -1.
         21   -1    0    0  502  503 -0.00000000000E+00 -0.00000000000E+00 -0.46484746080E+03  0.46484746080E+03  0.00000000000E+00 0. -1.
          6    1    1    2  501    0  0.10970811947E+02 -0.95493496257E+02 -0.57304900683E+02  0.20520043417E+03  0.17200000000E+03 0. -1.
         -6    1    1    2    0  503 -0.10970811947E+02  0.95493496257E+02 -0.30450008977E+03  0.36268949697E+03  0.17200000000E+03 0. -1.
</event>
<event>
 4    1  0.4405880E+000  0.2141694E+03  0.7818608E-02  0.1138306E+00
         21   -1    0    0  501  502  0.00000000000E+00  0.00000000000E+00  0.99016022772E+02  0.99016022772E+02  0.00000000000E+00 0. -1.
         21   -1    0    0  502  503 -0.00000000000E+00 -0.00000000000E+00 -0.51182179596E+03  0.51182179596E+03  0.00000000000E+00 0. -1.
          6    1    1    2  501    0  0.85851111339E+02 -0.94414715430E+02 -0.30049574022E+03  0.36900710250E+03  0.17200000000E+03 0. -1.
         -6    1    1    2    0  503 -0.85851111339E+02  0.94414715430E+02 -0.11231003297E+03  0.24183071623E+03  0.17200000000E+03 0. -1.
</event>
<event>
 4    1  0.4405880E+000  0.1757041E+03  0.7818608E-02  0.1172027E+00
         21   -1    0    0  503  502  0.00000000000E+00  0.00000000000E+00  0.56062479198E+02  0.56062479198E+02  0.00000000000E+00 0.  1.
         21   -1    0    0  501  503 -0.00000000000E+00 -0.00000000000E+00 -0.55119794257E+03  0.55119794257E+03  0.00000000000E+00 0.  1.
          6    1    1    2  501    0  0.20236171982E+02 -0.29638336204E+02 -0.25696332678E+03  0.31129099720E+03  0.17200000000E+03 0.  1.
         -6    1    1    2    0  502 -0.20236171982E+02  0.29638336204E+02 -0.23817213659E+03  0.29596942457E+03  0.17200000000E+03 0.  1.
</event>
<event>
 4    1  0.4405880E+000  0.1932584E+03  0.7818608E-02  0.1155555E+00
         21   -1    0    0  501  502  0.00000000000E+00  0.00000000000E+00  0.13636735923E+03  0.13636735923E+03  0.00000000000E+00 0. -1.
         21   -1    0    0  502  503 -0.00000000000E+00 -0.00000000000E+00 -0.37542716811E+03  0.37542716811E+03  0.00000000000E+00 0. -1.
          6    1    1    2  501    0 -0.11019397417E+02 -0.87426454248E+02  0.13554924960E+02  0.19373318769E+03  0.17200000000E+03 0. -1.
         -6    1    1    2    0  503  0.11019397417E+02  0.87426454248E+02 -0.25261473384E+03  0.31806133964E+03  0.17200000000E+03 0. -1.
</event>
<event>
 4    1  0.4405880E+000  0.2739246E+03  0.7818608E-02  0.1099054E+00
         21   -1    0    0  501  502  0.00000000000E+00  0.00000000000E+00  0.10234473717E+04  0.10234473717E+04  0.00000000000E+00 0.  1.
         21   -1    0    0  502  503 -0.00000000000E+00 -0.00000000000E+00 -0.73414950208E+02  0.73414950208E+02  0.00000000000E+00 0. -1.
          6    1    1    2  501    0  0.16780719949E+03 -0.13149697347E+03  0.49518607381E+03  0.56590101425E+03  0.17200000000E+03 0. -1.
         -6    1    1    2    0  503 -0.16780719949E+03  0.13149697347E+03  0.45484634765E+03  0.53096130763E+03  0.17200000000E+03 0. -1.
</event>
<event>
 4    1  0.4405880E+000  0.1921796E+03  0.7818608E-02  0.1156510E+00
         21   -1    0    0  501  502  0.00000000000E+00  0.00000000000E+00  0.49626708117E+02  0.49626708117E+02  0.00000000000E+00 0.  1.
         21   -1    0    0  502  503 -0.00000000000E+00 -0.00000000000E+00 -0.77018682863E+03  0.77018682863E+03  0.00000000000E+00 0.  1.
          6    1    1    2  501    0 -0.85583244432E+02 -0.49509342177E+01 -0.43555106503E+03  0.47606484194E+03  0.17200000000E+03 0.  1.
         -6    1    1    2    0  503  0.85583244432E+02  0.49509342177E+01 -0.28500905547E+03  0.34374869480E+03  0.17200000000E+03 0.  1.
</event>
<event>
 4    1  0.4405880E+000  0.1842777E+03  0.7818608E-02  0.1163726E+00
         21   -1    0    0  501  502  0.00000000000E+00  0.00000000000E+00  0.73007359791E+03  0.73007359791E+03  0.00000000000E+00 0. -1.
         21   -1    0    0  502  503 -0.00000000000E+00 -0.00000000000E+00 -0.64100814883E+02  0.64100814883E+02  0.00000000000E+00 0. -1.
          6    1    1    2  501    0  0.73360997433E+01  0.65730111433E+02  0.54098196801E+03  0.57150656656E+03  0.17200000000E+03 0. -1.
         -6    1    1    2    0  503 -0.73360997433E+01 -0.65730111433E+02  0.12499081502E+03  0.22266784624E+03  0.17200000000E+03 0. -1.
</event>
<event>
 4    1  0.4405880E+000  0.1910055E+03  0.7818608E-02  0.1157558E+00
         21   -1    0    0  503  502  0.00000000000E+00  0.00000000000E+00  0.19157881509E+03  0.19157881509E+03  0.00000000000E+00 0. -1.
         21   -1    0    0  501  503 -0.00000000000E+00 -0.00000000000E+00 -0.34571668794E+03  0.34571668794E+03  0.00000000000E+00 0. -1.
          6    1    1    2  501    0 -0.63328817595E+02  0.53745453707E+02 -0.25711540615E+03  0.32029899315E+03  0.17200000000E+03 0. -1.
         -6    1    1    2    0  502  0.63328817595E+02 -0.53745453707E+02  0.10297753330E+03  0.21699650987E+03  0.17200000000E+03 0. -1.
</event>
<event>
 4    1  0.4405880E+000  0.2607553E+03  0.7818608E-02  0.1106690E+00
         21   -1    0    0  503  502  0.00000000000E+00  0.00000000000E+00  0.26403579597E+03  0.26403579597E+03  0.00000000000E+00 0.  1.
         21   -1    0    0  501  503 -0.00000000000E+00 -0.00000000000E+00 -0.25846717070E+03  0.25846717070E+03  0.00000000000E+00 0. -1.
          6    1    1    2  501    0  0.15160944429E+03  0.12419290983E+03 -0.13068486556E+02  0.26108253061E+03  0.17200000000E+03 0. -1.
         -6    1    1    2    0  502 -0.15160944429E+03 -0.12419290983E+03  0.18637111827E+02  0.26142043606E+03  0.17200000000E+03 0.  1.
</event>
<event>
 4    1  0.4405880E+000  0.2263971E+03  0.7818608E-02  0.1129202E+00
         21   -1    0    0  501  502  0.00000000000E+00  0.00000000000E+00  0.40805017612E+02  0.40805017612E+02  0.00000000000E+00 0. -1.
         21   -1    0    0  502  503 -0.00000000000E+00 -0.00000000000E+00 -0.17121261059E+04  0.17121261059E+04  0.00000000000E+00 0.  1.
          6    1    1    2  501    0  0.93776864340E+02 -0.11347926988E+03 -0.12879916339E+04  0.13077377772E+04  0.17200000000E+03 0.  1.
         -6    1    1    2    0  503 -0.93776864340E+02  0.11347926988E+03 -0.38332945437E+03  0.44519334627E+03  0.17200000000E+03 0. -1.
</event>
<event>
 4    1  0.4405880E+000  0.1960928E+03  0.7818608E-02  0.1153078E+00
         21   -1    0    0  503  502  0.00000000000E+00  0.00000000000E+00  0.84689916599E+03  0.84689916599E+03  0.00000000000E+00 0.  1.
         21   -1    0    0  501  503 -0.00000000000E+00 -0.00000000000E+00 -0.83419272561E+02  0.83419272561E+02  0.00000000000E+00 0.  1.
          6    1    1    2  501    0  0.70134745137E+02 -0.62845132609E+02  0.67725991806E+02  0.20745891915E+03  0.17200000000E+03 0.  1.
         -6    1    1    2    0  502 -0.70134745137E+02  0.62845132609E+02  0.69575390162E+03  0.72285951940E+03  0.17200000000E+03 0.  1.
</event>
<event>
 4    1  0.4405880E+000  0.1976946E+03  0.7818608E-02  0.1151699E+00
         21   -1    0    0  501  502  0.00000000000E+00  0.00000000000E+00  0.59172137445E+02  0.59172137445E+02  0.00000000000E+00 0.  1.
         21   -1    0    0  502  503 -0.00000000000E+00 -0.00000000000E+00 -0.73373435611E+03  0.73373435611E+03  0.00000000000E+00 0.  1.
          6    1    1    2  501    0 -0.97430278762E+02  0.25503744739E+01 -0.21202998111E+03  0.28989632030E+03  0.17200000000E+03 0.  1.
         -6    1    1    2    0  503  0.97430278762E+02 -0.25503744739E+01 -0.46253223755E+03  0.50301017326E+03  0.17200000000E+03 0.  1.
</event>
<event>
 4    1  0.4405880E+000  0.1990124E+03  0.7818608E-02  0.1150575E+00
         21   -1    0    0  503  502  0.00000000000E+00  0.00000000000E+00  0.18267649933E+03  0.18267649933E+03  0.00000000000E+00 0. -1.
         21   -1    0    0  501  503 -0.00000000000E+00 -0.00000000000E+00 -0.36228536941E+03  0.36228536941E+03  0.00000000000E+00 0. -1.
          6    1    1    2  501    0  0.71148452177E+02 -0.70426144542E+02 -0.26247036956E+03  0.32938827996E+03  0.17200000000E+03 0. -1.
         -6    1    1    2    0  502 -0.71148452177E+02  0.70426144542E+02  0.82861499474E+02  0.21557358877E+03  0.17200000000E+03 0. -1.
</event>
<event>
 4    1  0.4405880E+000  0.1816754E+03  0.7818608E-02  0.1166191E+00
         21   -1    0    0  503  502  0.00000000000E+00  0.00000000000E+00  0.63825249015E+02  0.63825249015E+02  0.00000000000E+00 0. -1.
         21   -1    0    0  501  503 -0.00000000000E+00 -0.00000000000E+00 -0.52969378766E+03  0.52969378766E+03  0.00000000000E+00 0. -1.
          6    1    1    2  501    0 -0.10809345034E+02 -0.57489953911E+02 -0.27863849751E+03  0.33263395652E+03  0.17200000000E+03 0. -1.
         -6    1    1    2    0  502  0.10809345034E+02  0.57489953911E+02 -0.18723004114E+03  0.26088508015E+03  0.17200000000E+03 0. -1.
</event>
<event>
 4    1  0.4405880E+000  0.2041422E+03  0.7818608E-02  0.1146291E+00
         21   -1    0    0  501  502  0.00000000000E+00  0.00000000000E+00  0.41470245348E+03  0.41470245348E+03  0.00000000000E+00 0. -1.
         21   -1    0    0  502  503 -0.00000000000E+00 -0.00000000000E+00 -0.16387244608E+03  0.16387244608E+03  0.00000000000E+00 0. -1.
          6    1    1    2  501    0  0.10599549444E+03  0.29240104306E+02  0.30532543278E+03  0.36728415218E+03  0.17200000000E+03 0. -1.
         -6    1    1    2    0  503 -0.10599549444E+03 -0.29240104306E+02 -0.54495425384E+02  0.21129074738E+03  0.17200000000E+03 0. -1.
</event>
<event>
 4    1  0.4405880E+000  0.1846606E+03  0.7818608E-02  0.1163367E+00
         21   -1    0    0  501  502  0.00000000000E+00  0.00000000000E+00  0.19591121152E+03  0.19591121152E+03  0.00000000000E+00 0.  1.
         21   -1    0    0  502  503 -0.00000000000E+00 -0.00000000000E+00 -0.30838752625E+03  0.30838752625E+03  0.00000000000E+00 0. -1.
          6    1    1    2  501    0 -0.46358956849E+02  0.48645580534E+02  0.11017906311E+03  0.21503248902E+03  0.17200000000E+03 0.  1.
         -6    1    1    2    0  503  0.46358956849E+02 -0.48645580534E+02 -0.22265537785E+03  0.28926624876E+03  0.17200000000E+03 0. -1.
</event>
<event>
 4    1  0.4405880E+000  0.1732861E+03  0.7818608E-02  0.1174464E+00
         21   -1    0    0  503  502  0.00000000000E+00  0.00000000000E+00  0.14546722846E+03  0.14546722846E+03  0.00000000000E+00 0.  1.
         21   -1    0    0  501  503 -0.00000000000E+00 -0.00000000000E+00 -0.33626393609E+03  0.33626393609E+03  0.00000000000E+00 0.  1.
          6    1    1    2  501    0 -0.25268877866E+01 -0.20920707651E+02 -0.24506919761E+03  0.30014491964E+03  0.17200000000E+03 0.  1.
         -6    1    1    2    0  502  0.25268877866E+01  0.20920707651E+02  0.54272489975E+02  0.18158624490E+03  0.17200000000E+03 0.  1.
</event>
<event>
 4    1  0.4405880E+000  0.2017613E+03  0.7818608E-02  0.1148261E+00
         21   -1    0    0  503  502  0.00000000000E+00  0.00000000000E+00  0.72494396100E+02  0.72494396100E+02  0.00000000000E+00 0. -1.
         21   -1    0    0  501  503 -0.00000000000E+00 -0.00000000000E+00 -0.56611959525E+03  0.56611959525E+03  0.00000000000E+00 0.  1.
          6    1    1    2  501    0 -0.39093647686E+02  0.97955587388E+02 -0.21805510454E+03  0.29707850647E+03  0.17200000000E+03 0. -1.
         -6    1    1    2    0  502  0.39093647686E+02 -0.97955587388E+02 -0.27557009460E+03  0.34153548488E+03  0.17200000000E+03 0.  1.
</event>
<event>
 4    1  0.4405880E+000  0.1980037E+03  0.7818608E-02  0.1151434E+00
         21   -1    0    0  503  502  0.00000000000E+00  0.00000000000E+00  0.15756366961E+03  0.15756366961E+03  0.00000000000E+00 0.  1.
         21   -1    0    0  501  503 -0.00000000000E+00 -0.00000000000E+00 -0.26043827041E+03  0.26043827041E+03  0.00000000000E+00 0.  1.
          6    1    1    2  501    0  0.31086130019E+02  0.93032965368E+02 -0.95574905423E+02  0.21986369112E+03  0.17200000000E+03 0.  1.
         -6    1    1    2    0  502 -0.31086130019E+02 -0.93032965368E+02 -0.72996953798E+01  0.19813824890E+03  0.17200000000E+03 0.  1.
</event>
<event>
 4    1  0.4405880E+000  0.2002418E+03  0.7818608E-02  0.1149535E+00
         21   -1    0    0  503  502  0.00000000000E+00  0.00000000000E+00  0.20410182560E+02  0.20410182560E+02  0.00000000000E+00 0.  1.
         21   -1    0    0  501  503 -0.00000000000E+00 -0.00000000000E+00 -0.20169322308E+04  0.20169322308E+04  0.00000000000E+00 0.  1.
          6    1    1    2  501    0 -0.67202708283E+02 -0.77437469790E+02 -0.83409161395E+03  0.85779110872E+03  0.17200000000E+03 0.  1.
         -6    1    1    2    0  502  0.67202708283E+02  0.77437469790E+02 -0.11624304343E+04  0.11795513046E+04  0.17200000000E+03 0.  1.
</event>
<event>
 4    1  0.4405880E+000  0.1844822E+03  0.7818608E-02  0.1163534E+00
         21   -1    0    0  503  502  0.00000000000E+00  0.00000000000E+00  0.51504142967E+03  0.51504142967E+03  0.00000000000E+00 0.  1.
         21   -1    0    0  501  503 -0.00000000000E+00 -0.00000000000E+00 -0.74728194673E+02  0.74728194673E+02  0.00000000000E+00 0.  1.
          6    1    1    2  501    0 -0.41352624035E+02 -0.52341564693E+02  0.11983708418E+03  0.21998773978E+03  0.17200000000E+03 0.  1.
         -6    1    1    2    0  502  0.41352624035E+02  0.52341564693E+02  0.32047615081E+03  0.36978188456E+03  0.17200000000E+03 0.  1.
</event>
<event>
 4    1  0.4405880E+000  0.1966467E+03  0.7818608E-02  0.1152599E+00
         21   -1    0    0  501  502  0.00000000000E+00  0.00000000000E+00  0.64999945536E+02  0.64999945536E+02  0.00000000000E+00 0. -1.
         21   -1    0    0  502  503 -0.00000000000E+00 -0.00000000000E+00 -0.15957630273E+04  0.15957630273E+04  0.00000000000E+00 0.  1.
          6    1    1    2  501    0  0.30780058532E+01  0.95270340206E+02 -0.10776010498E+03  0.22423682139E+03  0.17200000000E+03 0. -1.
         -6    1    1    2    0  503 -0.30780058532E+01 -0.95270340206E+02 -0.14230029768E+04  0.14365261515E+04  0.17200000000E+03 0.  1.
</event>
<event>
 4    1  0.4405880E+000  0.1819550E+03  0.7818608E-02  0.1165924E+00
         21   -1    0    0  503  502  0.00000000000E+00  0.00000000000E+00  0.67849134845E+02  0.67849134845E+02  0.00000000000E+00 0. -1.
         21   -1    0    0  501  503 -0.00000000000E+00 -0.00000000000E+00 -0.89138500511E+03  0.89138500511E+03  0.00000000000E+00 0.  1.
          6    1    1    2  501    0  0.56278202275E+02 -0.18878140289E+02 -0.73442688951E+03  0.75663100404E+03  0.17200000000E+03 0.  1.
         -6    1    1    2    0  502 -0.56278202275E+02  0.18878140289E+02 -0.89108980748E+02  0.20260313591E+03  0.17200000000E+03 0. -1.
</event>
<event>
 4    1  0.4405880E+000  0.3189184E+03  0.7818608E-02  0.1076148E+00
         21   -1    0    0  503  502  0.00000000000E+00  0.00000000000E+00  0.94796991331E+02  0.94796991331E+02  0.00000000000E+00 0.  1.
         21   -1    0    0  501  503 -0.00000000000E+00 -0.00000000000E+00 -0.16105203587E+04  0.16105203587E+04  0.00000000000E+00 0. -1.
          6    1    1    2  501    0  0.22206554154E+03 -0.15103584443E+03 -0.12504960207E+04  0.12905228510E+04  0.17200000000E+03 0. -1.
         -6    1    1    2    0  502 -0.22206554154E+03  0.15103584443E+03 -0.26522734665E+03  0.41479449906E+03  0.17200000000E+03 0.  1.
</event>
<event>
 4    1  0.4405880E+000  0.2281537E+03  0.7818608E-02  0.1127946E+00
         21   -1    0    0  503  502  0.00000000000E+00  0.00000000000E+00  0.70630565093E+03  0.70630565093E+03  0.00000000000E+00 0. -1.
         21   -1    0    0  501  503 -0.00000000000E+00 -0.00000000000E+00 -0.77868518722E+02  0.77868518722E+02  0.00000000000E+00 0.  1.
          6    1    1    2  501    0  0.12139481165E+03 -0.87939734745E+02  0.22349108339E+03  0.31937808566E+03  0.17200000000E+03 0.  1.
         -6    1    1    2    0  502 -0.12139481165E+03  0.87939734745E+02  0.40494604881E+03  0.46479608399E+03  0.17200000000E+03 0.  1.
</event>
<event>
 4    1  0.4405880E+000  0.2047448E+03  0.7818608E-02  0.1145796E+00
         21   -1    0    0  501  502  0.00000000000E+00  0.00000000000E+00  0.12013252941E+04  0.12013252941E+04  0.00000000000E+00 0.  1.
         21   -1    0    0  502  503 -0.00000000000E+00 -0.00000000000E+00 -0.36844483746E+02  0.36844483746E+02  0.00000000000E+00 0.  1.
          6    1    1    2  501    0 -0.10301014265E+02  0.11059081746E+03  0.72463903745E+03  0.75300874789E+03  0.17200000000E+03 0.  1.
         -6    1    1    2    0  503  0.10301014265E+02 -0.11059081746E+03  0.43984177293E+03  0.48516102999E+03  0.17200000000E+03 0.  1.
</event>
<event>
 4    1  0.4405880E+000  0.1741737E+03  0.7818608E-02  0.1173564E+00
         21   -1    0    0  501  502  0.00000000000E+00  0.00000000000E+00  0.38752582014E+02  0.38752582014E+02  0.00000000000E+00 0.  1.
         21   -1    0    0  502  503 -0.00000000000E+00 -0.00000000000E+00 -0.82640185651E+03  0.82640185651E+03  0.00000000000E+00 0.  1.
          6    1    1    2  501    0 -0.97333251303E+01  0.25646776022E+02 -0.29449122731E+03  0.34214262771E+03  0.17200000000E+03 0.  1.
         -6    1    1    2    0  503  0.97333251303E+01 -0.25646776022E+02 -0.49315804719E+03  0.52301181081E+03  0.17200000000E+03 0.  1.
</event>
<event>
 4    1  0.4405880E+000  0.1872375E+03  0.7818608E-02  0.1160977E+00
         21   -1    0    0  501  502  0.00000000000E+00  0.00000000000E+00  0.15913128609E+04  0.15913128609E+04  0.00000000000E+00 0. -1.
         21   -1    0    0  502  503 -0.00000000000E+00 -0.00000000000E+00 -0.10420824714E+03  0.10420824714E+03  0.00000000000E+00 0. -1.
          6    1    1    2  501    0 -0.66879135698E+02  0.31639516562E+02  0.14963850710E+04  0.15080537651E+04  0.17200000000E+03 0. -1.
         -6    1    1    2    0  503  0.66879135698E+02 -0.31639516562E+02 -0.92804571652E+01  0.18746734298E+03  0.17200000000E+03 0. -1.
</event>
<event>
 4    1  0.4405880E+000  0.1758487E+03  0.7818608E-02  0.1171882E+00
         21   -1    0    0  503  502  0.00000000000E+00  0.00000000000E+00  0.16314352865E+03  0.16314352865E+03  0.00000000000E+00 0.  1.
         21   -1    0    0  501  503 -0.00000000000E+00 -0.00000000000E+00 -0.22603677504E+03  0.22603677504E+03  0.00000000000E+00 0.  1.
          6    1    1    2  501    0  0.24988238276E+02  0.26727171986E+02  0.46741222095E+02  0.18195465264E+03  0.17200000000E+03 0. -1.
         -6    1    1    2    0  502 -0.24988238276E+02 -0.26727171986E+02 -0.10963446849E+03  0.20722565105E+03  0.17200000000E+03 0. -1.
</event>
<event>
 4    1  0.4405880E+000  0.2154298E+03  0.7818608E-02  0.1137337E+00
         21   -1    0    0  503  502  0.00000000000E+00  0.00000000000E+00  0.10698352929E+04  0.10698352929E+04  0.00000000000E+00 0. -1.
         21   -1    0    0  501  503 -0.00000000000E+00 -0.00000000000E+00 -0.45005852573E+02  0.45005852573E+02  0.00000000000E+00 0.  1.
          6    1    1    2  501    0 -0.11359704275E+03 -0.62623408532E+02  0.40648359138E+03  0.46004226923E+03  0.17200000000E+03 0.  1.
         -6    1    1    2    0  502  0.11359704275E+03  0.62623408532E+02  0.61834584899E+03  0.65479887628E+03  0.17200000000E+03 0. -1.
</event>
<event>
 4    1  0.4405880E+000  0.1934604E+03  0.7818608E-02  0.1155377E+00
         21   -1    0    0  501  502  0.00000000000E+00  0.00000000000E+00  0.52339137422E+02  0.52339137422E+02  0.00000000000E+00 0. -1.
         21   -1    0    0  502  503 -0.00000000000E+00 -0.00000000000E+00 -0.72392412795E+03  0.72392412795E+03  0.00000000000E+00 0.  1.
          6    1    1    2  501    0 -0.75341727859E+02 -0.46546086785E+02 -0.37868146760E+03  0.42523707277E+03  0.17200000000E+03 0.  1.
         -6    1    1    2    0  503  0.75341727859E+02  0.46546086785E+02 -0.29290352293E+03  0.35102619261E+03  0.17200000000E+03 0.  1.
</event>
<event>
 4    1  0.4405880E+000  0.2516301E+03  0.7818608E-02  0.1112279E+00
         21   -1    0    0  501  502  0.00000000000E+00  0.00000000000E+00  0.51677099626E+03  0.51677099626E+03  0.00000000000E+00 0.  1.
         21   -1    0    0  502  503 -0.00000000000E+00 -0.00000000000E+00 -0.15608303773E+03  0.15608303773E+03  0.00000000000E+00 0.  1.
          6    1    1    2  501    0 -0.87537884437E+02 -0.16146456047E+03  0.33633776316E+03  0.42004854056E+03  0.17200000000E+03 0.  1.
         -6    1    1    2    0  503  0.87537884437E+02  0.16146456047E+03  0.24350195366E+02  0.25280549344E+03  0.17200000000E+03 0.  1.
</event>
<event>
 4    1  0.4405880E+000  0.4097669E+03  0.7818608E-02  0.1040449E+00
         21   -1    0    0  501  502  0.00000000000E+00  0.00000000000E+00  0.41139902206E+03  0.41139902206E+03  0.00000000000E+00 0. -1.
         21   -1    0    0  502  503 -0.00000000000E+00 -0.00000000000E+00 -0.26192743689E+04  0.26192743689E+04  0.00000000000E+00 0.  1.
          6    1    1    2  501    0 -0.17288300550E+03  0.32929681176E+03  0.28834072648E+03  0.50104819965E+03  0.17200000000E+03 0. -1.
         -6    1    1    2    0  503  0.17288300550E+03 -0.32929681176E+03 -0.24962160733E+04  0.25296251913E+04  0.17200000000E+03 0.  1.
</event>
<event>
 4    1  0.4405880E+000  0.2235516E+03  0.7818608E-02  0.1131263E+00
         21   -1    0    0  501  502  0.00000000000E+00  0.00000000000E+00  0.13891953719E+03  0.13891953719E+03  0.00000000000E+00 0.  1.
         21   -1    0    0  502  503 -0.00000000000E+00 -0.00000000000E+00 -0.14746390078E+04  0.14746390078E+04  0.00000000000E+00 0.  1.
          6    1    1    2  501    0 -0.89654415168E+02  0.11114589165E+03  0.33642507605E+02  0.22606888708E+03  0.17200000000E+03 0.  1.
         -6    1    1    2    0  503  0.89654415168E+02 -0.11114589165E+03 -0.13693619782E+04  0.13874896579E+04  0.17200000000E+03 0.  1.
</event>
<event>
 4    1  0.4405880E+000  0.1748069E+03  0.7818608E-02  0.1172926E+00
         21   -1    0    0  501  502  0.00000000000E+00  0.00000000000E+00  0.10657488838E+04  0.10657488838E+04  0.00000000000E+00 0. -1.
         21   -1    0    0  502  503 -0.00000000000E+00 -0.00000000000E+00 -0.36246351895E+02  0.36246351895E+02  0.00000000000E+00 0. -1.
          6    1    1    2  501    0  0.23288763508E+02  0.20762785298E+02  0.26287802523E+03  0.31569338908E+03  0.17200000000E+03 0. -1.
         -6    1    1    2    0  503 -0.23288763508E+02 -0.20762785298E+02  0.76662450670E+03  0.78630184664E+03  0.17200000000E+03 0. -1.
</event>
<event>
 4    1  0.4405880E+000  0.1858248E+03  0.7818608E-02  0.1162282E+00
         21   -1    0    0  503  502  0.00000000000E+00  0.00000000000E+00  0.49160396208E+02  0.49160396208E+02  0.00000000000E+00 0.  1.
         21   -1    0    0  501  503 -0.00000000000E+00 -0.00000000000E+00 -0.74345381756E+03  0.74345381756E+03  0.00000000000E+00 0. -1.
          6    1    1    2  501    0  0.37674194867E+01 -0.70233049536E+02 -0.25403254925E+03  0.31474340466E+03  0.17200000000E+03 0.  1.
         -6    1    1    2    0  502 -0.37674194867E+01  0.70233049536E+02 -0.44026087210E+03  0.47787080911E+03  0.17200000000E+03 0. -1.
</event>
<event>
 4    1  0.4405880E+000  0.2145772E+03  0.7818608E-02  0.1137992E+00
         21   -1    0    0  501  502  0.00000000000E+00  0.00000000000E+00  0.27082248292E+03  0.27082248292E+03  0.00000000000E+00 0. -1.
         21   -1    0    0  502  503 -0.00000000000E+00 -0.00000000000E+00 -0.17674427421E+03  0.17674427421E+03  0.00000000000E+00 0. -1.
          6    1    1    2  501    0 -0.82408370285E+02  0.98327248270E+02  0.90710643198E+02  0.23296310445E+03  0.17200000000E+03 0.  1.
         -6    1    1    2    0  503  0.82408370285E+02 -0.98327248270E+02  0.33675655113E+01  0.21460365268E+03  0.17200000000E+03 0.  1.
</event>
<event>
 4    1  0.4405880E+000  0.1990332E+03  0.7818608E-02  0.1150557E+00
         21   -1    0    0  501  502  0.00000000000E+00  0.00000000000E+00  0.12272860006E+02  0.12272860006E+02  0.00000000000E+00 0.  1.
         21   -1    0    0  502  503 -0.00000000000E+00 -0.00000000000E+00 -0.32641943229E+04  0.32641943229E+04  0.00000000000E+00 0.  1.
          6    1    1    2  501    0  0.23311314216E+02  0.97400230535E+02 -0.14529549294E+04  0.14665238659E+04  0.17200000000E+03 0.  1.
         -6    1    1    2    0  503 -0.23311314216E+02 -0.97400230535E+02 -0.17989665335E+04  0.18099433170E+04  0.17200000000E+03 0.  1.
</event>
<event>
 4    1  0.4405880E+000  0.2900059E+03  0.7818608E-02  0.1090346E+00
         21   -1    0    0  501  502  0.00000000000E+00  0.00000000000E+00  0.34332973279E+03  0.34332973279E+03  0.00000000000E+00 0. -1.
         21   -1    0    0  502  503 -0.00000000000E+00 -0.00000000000E+00 -0.47278189473E+03  0.47278189473E+03  0.00000000000E+00 0. -1.
          6    1    1    2  501    0  0.15512884145E+02  0.23297810639E+03  0.21853245409E+03  0.36312515903E+03  0.17200000000E+03 0. -1.
         -6    1    1    2    0  503 -0.15512884145E+02 -0.23297810639E+03 -0.34798461604E+03  0.45298646848E+03  0.17200000000E+03 0. -1.
</event>
<event>
 4    1  0.4405880E+000  0.1745306E+03  0.7818608E-02  0.1173204E+00
         21   -1    0    0  503  502  0.00000000000E+00  0.00000000000E+00  0.60779478099E+02  0.60779478099E+02  0.00000000000E+00 0. -1.
         21   -1    0    0  501  503 -0.00000000000E+00 -0.00000000000E+00 -0.50117508410E+03  0.50117508410E+03  0.00000000000E+00 0. -1.
          6    1    1    2  501    0  0.12693820613E+02 -0.26754535429E+02 -0.21943961182E+03  0.28038309771E+03  0.17200000000E+03 0.  1.
         -6    1    1    2    0  502 -0.12693820613E+02  0.26754535429E+02 -0.22095599418E+03  0.28157146449E+03  0.17200000000E+03 0.  1.
</event>
<event>
 4    1  0.4405880E+000  0.1866452E+03  0.7818608E-02  0.1161522E+00
         21   -1    0    0  501  502  0.00000000000E+00  0.00000000000E+00  0.86977766411E+03  0.86977766411E+03  0.00000000000E+00 0. -1.
         21   -1    0    0  502  503 -0.00000000000E+00 -0.00000000000E+00 -0.55917460196E+02  0.55917460196E+02  0.00000000000E+00 0. -1.
          6    1    1    2  501    0  0.68534213241E+02  0.23569130116E+02  0.65347096434E+03  0.67960337221E+03  0.17200000000E+03 0. -1.
         -6    1    1    2    0  503 -0.68534213241E+02 -0.23569130116E+02  0.16038923957E+03  0.24609175209E+03  0.17200000000E+03 0. -1.
</event>
<event>
 4    1  0.4405880E+000  0.3194443E+03  0.7818608E-02  0.1075905E+00
         21   -1    0    0  501  502  0.00000000000E+00  0.00000000000E+00  0.99378655651E+03  0.99378655651E+03  0.00000000000E+00 0.  1.
         21   -1    0    0  502  503 -0.00000000000E+00 -0.00000000000E+00 -0.11029355935E+03  0.11029355935E+03  0.00000000000E+00 0.  1.
          6    1    1    2  501    0  0.23119489011E+03 -0.13787521006E+03  0.58676165676E+03  0.66808224988E+03  0.17200000000E+03 0.  1.
         -6    1    1    2    0  503 -0.23119489011E+03  0.13787521006E+03  0.29673134041E+03  0.43599786598E+03  0.17200000000E+03 0.  1.
</event>
<event>
 4    1  0.4405880E+000  0.2075611E+03  0.7818608E-02  0.1143512E+00
         21   -1    0    0  501  502  0.00000000000E+00  0.00000000000E+00  0.79851073556E+02  0.79851073556E+02  0.00000000000E+00 0. -1.
         21   -1    0    0  502  503 -0.00000000000E+00 -0.00000000000E+00 -0.10512730044E+04  0.10512730044E+04  0.00000000000E+00 0. -1.
          6    1    1    2  501    0  0.19608543401E+02  0.11451247617E+03 -0.91116644177E+02  0.22668004989E+03  0.17200000000E+03 0. -1.
         -6    1    1    2    0  503 -0.19608543401E+02 -0.11451247617E+03 -0.88030528666E+03  0.90444402806E+03  0.17200000000E+03 0. -1.
</event>
<event>
 4    1  0.4405880E+000  0.1823121E+03  0.7818608E-02  0.1165584E+00
         21   -1    0    0  503  502  0.00000000000E+00  0.00000000000E+00  0.22251131225E+03  0.22251131225E+03  0.00000000000E+00 0.  1.
         21   -1    0    0  501  503 -0.00000000000E+00 -0.00000000000E+00 -0.48959950995E+03  0.48959950995E+03  0.00000000000E+00 0.  1.
          6    1    1    2  501    0 -0.55908166974E+02 -0.22977763889E+02 -0.43035489293E+03  0.46737889837E+03  0.17200000000E+03 0.  1.
         -6    1    1    2    0  502  0.55908166974E+02  0.22977763889E+02  0.16326669523E+03  0.24473192383E+03  0.17200000000E+03 0.  1.
</event>
<event>
 4    1  0.4405880E+000  0.2346719E+03  0.7818608E-02  0.1123394E+00
         21   -1    0    0  501  502  0.00000000000E+00  0.00000000000E+00  0.74018178186E+03  0.74018178186E+03  0.00000000000E+00 0.  1.
         21   -1    0    0  502  503 -0.00000000000E+00 -0.00000000000E+00 -0.23050412345E+03  0.23050412345E+03  0.00000000000E+00 0. -1.
          6    1    1    2  501    0  0.95901781984E+02 -0.12763125513E+03  0.65424429298E+03  0.69505861909E+03  0.17200000000E+03 0.  1.
         -6    1    1    2    0  503 -0.95901781984E+02  0.12763125513E+03 -0.14456663457E+03  0.27562728621E+03  0.17200000000E+03 0. -1.
</event>
<event>
 4    1  0.4405880E+000  0.2188244E+03  0.7818608E-02  0.1134763E+00
         21   -1    0    0  501  502  0.00000000000E+00  0.00000000000E+00  0.81979409755E+02  0.81979409755E+02  0.00000000000E+00 0.  1.
         21   -1    0    0  502  503 -0.00000000000E+00 -0.00000000000E+00 -0.67861445521E+03  0.67861445521E+03  0.00000000000E+00 0. -1.
          6    1    1    2  501    0  0.50619173064E+02 -0.12545038892E+03 -0.15639137400E+03  0.26896535581E+03  0.17200000000E+03 0. -1.
         -6    1    1    2    0  503 -0.50619173064E+02  0.12545038892E+03 -0.44024367146E+03  0.49162850916E+03  0.17200000000E+03 0.  1.
</event>
<event>
 4    1  0.4405880E+000  0.2137611E+03  0.7818608E-02  0.1138622E+00
         21   -1    0    0  501  502  0.00000000000E+00  0.00000000000E+00  0.16068733531E+03  0.16068733531E+03  0.00000000000E+00 0. -1.
         21   -1    0    0  502  503 -0.00000000000E+00 -0.00000000000E+00 -0.30653722236E+03  0.30653722236E+03  0.00000000000E+00 0.  1.
          6    1    1    2  501    0  0.34172822346E+02 -0.12223760856E+03 -0.13575407691E+03  0.25322516488E+03  0.17200000000E+03 0.  1.
         -6    1    1    2    0  503 -0.34172822346E+02  0.12223760856E+03 -0.10095810139E+02  0.21399939279E+03  0.17200000000E+03 0. -1.
</event>
<event>
 4    1  0.4405880E+000  0.2192996E+03  0.7818608E-02  0.1134406E+00
         21   -1    0    0  501  502  0.00000000000E+00  0.00000000000E+00  0.22747964684E+03  0.22747964684E+03  0.00000000000E+00 0.  1.
         21   -1    0    0  502  503 -0.00000000000E+00 -0.00000000000E+00 -0.23481285219E+03  0.23481285219E+03  0.00000000000E+00 0.  1.
          6    1    1    2  501    0  0.43489026270E+02  0.12890694412E+03  0.69300436068E+02  0.22998879557E+03  0.17200000000E+03 0.  1.
         -6    1    1    2    0  503 -0.43489026270E+02 -0.12890694412E+03 -0.76633641415E+02  0.23230370346E+03  0.17200000000E+03 0.  1.
</event>
<event>
 4    1  0.4405880E+000  0.1744977E+03  0.7818608E-02  0.1173237E+00
         21   -1    0    0  501  502  0.00000000000E+00  0.00000000000E+00  0.45220020461E+03  0.45220020461E+03  0.00000000000E+00 0.  1.
         21   -1    0    0  502  503 -0.00000000000E+00 -0.00000000000E+00 -0.68757998965E+02  0.68757998965E+02  0.00000000000E+00 0.  1.
          6    1    1    2  501    0 -0.27922765334E+02  0.92604704206E+01  0.15426414608E+03  0.23290956164E+03  0.17200000000E+03 0. -1.
         -6    1    1    2    0  503  0.27922765334E+02 -0.92604704206E+01  0.22917805956E+03  0.28804864193E+03  0.17200000000E+03 0. -1.
</event>
<event>
 4    1  0.4405880E+000  0.1972115E+03  0.7818608E-02  0.1152113E+00
         21   -1    0    0  503  502  0.00000000000E+00  0.00000000000E+00  0.10565505471E+03  0.10565505471E+03  0.00000000000E+00 0. -1.
         21   -1    0    0  501  503 -0.00000000000E+00 -0.00000000000E+00 -0.36924131656E+03  0.36924131656E+03  0.00000000000E+00 0. -1.
          6    1    1    2  501    0 -0.56128324059E+02  0.78472807449E+02 -0.14495361017E+03  0.24475277194E+03  0.17200000000E+03 0. -1.
         -6    1    1    2    0  502  0.56128324059E+02 -0.78472807449E+02 -0.11863265167E+03  0.23014359933E+03  0.17200000000E+03 0. -1.
</event>
<event>
 4    1  0.4405880E+000  0.1991247E+03  0.7818608E-02  0.1150480E+00
         21   -1    0    0  501  502  0.00000000000E+00  0.00000000000E+00  0.40367842160E+03  0.40367842160E+03  0.00000000000E+00 0.  1.
         21   -1    0    0  502  503 -0.00000000000E+00 -0.00000000000E+00 -0.99653012095E+02  0.99653012095E+02  0.00000000000E+00 0.  1.
          6    1    1    2  501    0  0.21990243174E+02 -0.97893272302E+02  0.18215589913E+03  0.26987299818E+03  0.17200000000E+03 0.  1.
         -6    1    1    2    0  503 -0.21990243174E+02  0.97893272302E+02  0.12186951038E+03  0.23345843552E+03  0.17200000000E+03 0.  1.
</event>
<event>
 4    1  0.4405880E+000  0.2622137E+03  0.7818608E-02  0.1105820E+00
         21   -1    0    0  503  502  0.00000000000E+00  0.00000000000E+00  0.88898219537E+03  0.88898219537E+03  0.00000000000E+00 0.  1.
         21   -1    0    0  501  503 -0.00000000000E+00 -0.00000000000E+00 -0.77713275552E+02  0.77713275552E+02  0.00000000000E+00 0. -1.
          6    1    1    2  501    0 -0.15556228410E+03  0.12236180741E+03  0.43902421809E+03  0.51136904503E+03  0.17200000000E+03 0. -1.
         -6    1    1    2    0  502  0.15556228410E+03 -0.12236180741E+03  0.37224470172E+03  0.45532642588E+03  0.17200000000E+03 0.  1.
</event>
<event>
 4    1  0.4405880E+000  0.1861114E+03  0.7818608E-02  0.1162016E+00
         21   -1    0    0  501  502  0.00000000000E+00  0.00000000000E+00  0.18183271532E+03  0.18183271532E+03  0.00000000000E+00 0. -1.
         21   -1    0    0  502  503 -0.00000000000E+00 -0.00000000000E+00 -0.25080888228E+03  0.25080888228E+03  0.00000000000E+00 0. -1.
          6    1    1    2  501    0 -0.58597676187E+02  0.40246117522E+02  0.71596192197E+02  0.19940775403E+03  0.17200000000E+03 0. -1.
         -6    1    1    2    0  503  0.58597676187E+02 -0.40246117522E+02 -0.14057235916E+03  0.23323384358E+03  0.17200000000E+03 0. -1.
</event>
<event>
 4    1  0.4405880E+000  0.1931972E+03  0.7818608E-02  0.1155609E+00
         21   -1    0    0  501  502  0.00000000000E+00  0.00000000000E+00  0.38625197911E+03  0.38625197911E+03  0.00000000000E+00 0. -1.
         21   -1    0    0  502  503 -0.00000000000E+00 -0.00000000000E+00 -0.11373076278E+03  0.11373076278E+03  0.00000000000E+00 0. -1.
          6    1    1    2  501    0 -0.53948598332E+02 -0.69503189419E+02  0.23318668962E+03  0.30282202169E+03  0.17200000000E+03 0. -1.
         -6    1    1    2    0  503  0.53948598332E+02  0.69503189419E+02  0.39334526715E+02  0.19716072021E+03  0.17200000000E+03 0. -1.
</event>
<event>
 4    1  0.4405880E+000  0.1872118E+03  0.7818608E-02  0.1161000E+00
         21   -1    0    0  501  502  0.00000000000E+00  0.00000000000E+00  0.93990060550E+02  0.93990060550E+02  0.00000000000E+00 0. -1.
         21   -1    0    0  502  503 -0.00000000000E+00 -0.00000000000E+00 -0.38067698410E+03  0.38067698410E+03  0.00000000000E+00 0. -1.
          6    1    1    2  501    0  0.66641271220E+02 -0.31987345455E+02 -0.10940613008E+03  0.21683622990E+03  0.17200000000E+03 0. -1.
         -6    1    1    2    0  503 -0.66641271220E+02  0.31987345455E+02 -0.17728079347E+03  0.25783081474E+03  0.17200000000E+03 0. -1.
</event>
<event>
 4    1  0.4405880E+000  0.3809888E+03  0.7818608E-02  0.1050569E+00
         21   -1    0    0  501  502  0.00000000000E+00  0.00000000000E+00  0.37816519855E+03  0.37816519855E+03  0.00000000000E+00 0. -1.
         21   -1    0    0  502  503 -0.00000000000E+00 -0.00000000000E+00 -0.56672880092E+03  0.56672880092E+03  0.00000000000E+00 0. -1.
          6    1    1    2  501    0  0.20190923537E+03  0.27349798154E+03  0.17410841784E+03  0.41888688974E+03  0.17200000000E+03 0. -1.
         -6    1    1    2    0  503 -0.20190923537E+03 -0.27349798154E+03 -0.36267202021E+03  0.52600710972E+03  0.17200000000E+03 0. -1.
</event>
<event>
 4    1  0.4405880E+000  0.1927706E+03  0.7818608E-02  0.1155986E+00
         21   -1    0    0  503  502  0.00000000000E+00  0.00000000000E+00  0.16418395429E+03  0.16418395429E+03  0.00000000000E+00 0.  1.
         21   -1    0    0  501  503 -0.00000000000E+00 -0.00000000000E+00 -0.56262474894E+03  0.56262474894E+03  0.00000000000E+00 0. -1.
          6    1    1    2  501    0 -0.25183230900E+02 -0.83320510288E+02 -0.48017607181E+03  0.51742590048E+03  0.17200000000E+03 0. -1.
         -6    1    1    2    0  502  0.25183230900E+02  0.83320510288E+02  0.81735277165E+02  0.20938280275E+03  0.17200000000E+03 0.  1.
</event>
<event>
 4    1  0.4405880E+000  0.1795465E+03  0.7818608E-02  0.1168243E+00
         21   -1    0    0  501  502  0.00000000000E+00  0.00000000000E+00  0.46830806578E+02  0.46830806578E+02  0.00000000000E+00 0.  1.
         21   -1    0    0  502  503 -0.00000000000E+00 -0.00000000000E+00 -0.69952157687E+03  0.69952157687E+03  0.00000000000E+00 0.  1.
          6    1    1    2  501    0  0.17632543486E+02  0.48394765181E+02 -0.27922965856E+03  0.33197313461E+03  0.17200000000E+03 0.  1.
         -6    1    1    2    0  503 -0.17632543486E+02 -0.48394765181E+02 -0.37346111173E+03  0.41437924883E+03  0.17200000000E+03 0.  1.
</event>
<event>
 4    1  0.4405880E+000  0.2957312E+03  0.7818608E-02  0.1087394E+00
         21   -1    0    0  501  502  0.00000000000E+00  0.00000000000E+00  0.14912168617E+04  0.14912168617E+04  0.00000000000E+00 0. -1.
         21   -1    0    0  502  503 -0.00000000000E+00 -0.00000000000E+00 -0.68625974464E+02  0.68625974464E+02  0.00000000000E+00 0. -1.
          6    1    1    2  501    0  0.22970887843E+03  0.71461790593E+02  0.10086857168E+04  0.10511440584E+04  0.17200000000E+03 0. -1.
         -6    1    1    2    0  503 -0.22970887843E+03 -0.71461790593E+02  0.41390517051E+03  0.50869877778E+03  0.17200000000E+03 0. -1.
</event>
<event>
 4    1  0.4405880E+000  0.1954116E+03  0.7818608E-02  0.1153669E+00
         21   -1    0    0  501  502  0.00000000000E+00  0.00000000000E+00  0.31020836192E+03  0.31020836192E+03  0.00000000000E+00 0.  1.
         21   -1    0    0  502  503 -0.00000000000E+00 -0.00000000000E+00 -0.46064892477E+03  0.46064892477E+03  0.00000000000E+00 0.  1.
          6    1    1    2  501    0  0.17666318039E+02  0.91047317708E+02  0.25471538211E+03  0.32103837580E+03  0.17200000000E+03 0.  1.
         -6    1    1    2    0  503 -0.17666318039E+02 -0.91047317708E+02 -0.40515594496E+03  0.44981891089E+03  0.17200000000E+03 0.  1.
</event>
<event>
 4    1  0.4405880E+000  0.2030984E+03  0.7818608E-02  0.1147151E+00
         21   -1    0    0  503  502  0.00000000000E+00  0.00000000000E+00  0.53013739684E+03  0.53013739684E+03  0.00000000000E+00 0.  1.
         21   -1    0    0  501  503 -0.00000000000E+00 -0.00000000000E+00 -0.18152372133E+03  0.18152372133E+03  0.00000000000E+00 0.  1.
          6    1    1    2  501    0  0.10645447537E+03 -0.18231731381E+02 -0.94660016656E+02  0.22407469761E+03  0.17200000000E+03 0.  1.
         -6    1    1    2    0  502 -0.10645447537E+03  0.18231731381E+02  0.44327369217E+03  0.48758642057E+03  0.17200000000E+03 0.  1.
</event>
<event>
 4    1  0.4405880E+000  0.2039231E+03  0.7818608E-02  0.1146471E+00
         21   -1    0    0  501  502  0.00000000000E+00  0.00000000000E+00  0.12664332469E+03  0.12664332469E+03  0.00000000000E+00 0. -1.
         21   -1    0    0  502  503 -0.00000000000E+00 -0.00000000000E+00 -0.59350372242E+03  0.59350372242E+03  0.00000000000E+00 0. -1.
          6    1    1    2  501    0 -0.30651904305E+02 -0.10517176161E+03  0.72386623552E+01  0.20405155454E+03  0.17200000000E+03 0. -1.
         -6    1    1    2    0  503  0.30651904305E+02  0.10517176161E+03 -0.47409906009E+03  0.51609549257E+03  0.17200000000E+03 0. -1.
</event>
<event>
 4    1  0.4405880E+000  0.2564437E+03  0.7818608E-02  0.1109299E+00
         21   -1    0    0  503  502  0.00000000000E+00  0.00000000000E+00  0.60906187049E+02  0.60906187049E+02  0.00000000000E+00 0. -1.
         21   -1    0    0  501  503 -0.00000000000E+00 -0.00000000000E+00 -0.11722258483E+04  0.11722258483E+04  0.00000000000E+00 0. -1.
          6    1    1    2  501    0  0.11264373424E+02 -0.18987485296E+03 -0.72883767280E+03  0.77263684820E+03  0.17200000000E+03 0. -1.
         -6    1    1    2    0  502 -0.11264373424E+02  0.18987485296E+03 -0.38248198842E+03  0.46049518712E+03  0.17200000000E+03 0. -1.
</event>
<event>
 4    1  0.4405880E+000  0.1830792E+03  0.7818608E-02  0.1164856E+00
         21   -1    0    0  501  502  0.00000000000E+00  0.00000000000E+00  0.16077132279E+03  0.16077132279E+03  0.00000000000E+00 0. -1.
         21   -1    0    0  502  503 -0.00000000000E+00 -0.00000000000E+00 -0.28974368496E+03  0.28974368496E+03  0.00000000000E+00 0. -1.
          6    1    1    2  501    0  0.52085518275E+02 -0.34944368339E+02 -0.18377886422E+03  0.25940832875E+03  0.17200000000E+03 0. -1.
         -6    1    1    2    0  503 -0.52085518275E+02  0.34944368339E+02  0.54806502043E+02  0.19110667900E+03  0.17200000000E+03 0. -1.
</event>
<event>
 4    1  0.4405880E+000  0.1860850E+03  0.7818608E-02  0.1162041E+00
         21   -1    0    0  503  502  0.00000000000E+00  0.00000000000E+00  0.93639031359E+03  0.93639031359E+03  0.00000000000E+00 0.  1.
         21   -1    0    0  501  503 -0.00000000000E+00 -0.00000000000E+00 -0.48543787108E+02  0.48543787108E+02  0.00000000000E+00 0.  1.
          6    1    1    2  501    0 -0.61707371594E+02 -0.35154468313E+02  0.20356340015E+03  0.27580009832E+03  0.17200000000E+03 0.  1.
         -6    1    1    2    0  502  0.61707371594E+02  0.35154468313E+02  0.68428312633E+03  0.70913400238E+03  0.17200000000E+03 0.  1.
</event>
<event>
 4    1  0.4405880E+000  0.3480039E+03  0.7818608E-02  0.1063437E+00
         21   -1    0    0  501  502  0.00000000000E+00  0.00000000000E+00  0.30847034118E+03  0.30847034118E+03  0.00000000000E+00 0.  1.
         21   -1    0    0  502  503 -0.00000000000E+00 -0.00000000000E+00 -0.41491065500E+03  0.41491065500E+03  0.00000000000E+00 0.  1.
          6    1    1    2  501    0  0.22434177683E+03  0.20296175301E+03  0.30644026031E+02  0.34935048640E+03  0.17200000000E+03 0.  1.
         -6    1    1    2    0  503 -0.22434177683E+03 -0.20296175301E+03 -0.13708433985E+03  0.37403050978E+03  0.17200000000E+03 0.  1.
</event>
<event>
 4    1  0.4405880E+000  0.2038768E+03  0.7818608E-02  0.1146509E+00
         21   -1    0    0  501  502  0.00000000000E+00  0.00000000000E+00  0.74932281186E+02  0.74932281186E+02  0.00000000000E+00 0. -1.
         21   -1    0    0  502  503 -0.00000000000E+00 -0.00000000000E+00 -0.71654689800E+03  0.71654689800E+03  0.00000000000E+00 0. -1.
          6    1    1    2  501    0 -0.36844713618E+02 -0.10307377019E+03 -0.13273490330E+03  0.24327821435E+03  0.17200000000E+03 0. -1.
         -6    1    1    2    0  503  0.36844713618E+02  0.10307377019E+03 -0.50887971351E+03  0.54820096484E+03  0.17200000000E+03 0. -1.
</event>
<event>
 4    1  0.4405880E+000  0.3457651E+03  0.7818608E-02  0.1064367E+00
         21   -1    0    0  501  502  0.00000000000E+00  0.00000000000E+00  0.10719448103E+04  0.10719448103E+04  0.00000000000E+00 0.  1.
         21   -1    0    0  502  503 -0.00000000000E+00 -0.00000000000E+00 -0.19144156750E+03  0.19144156750E+03  0.00000000000E+00 0. -1.
          6    1    1    2  501    0  0.19798691687E+03 -0.22532358241E+03  0.84837745553E+03  0.91613200091E+03  0.17200000000E+03 0.  1.
         -6    1    1    2    0  503 -0.19798691687E+03  0.22532358241E+03  0.32125787240E+02  0.34725437686E+03  0.17200000000E+03 0. -1.
</event>
<event>
 4    1  0.4405880E+000  0.2580693E+03  0.7818608E-02  0.1108309E+00
         21   -1    0    0  501  502  0.00000000000E+00  0.00000000000E+00  0.27450934599E+03  0.27450934599E+03  0.00000000000E+00 0.  1.
         21   -1    0    0  502  503 -0.00000000000E+00 -0.00000000000E+00 -0.35305313583E+03  0.35305313583E+03  0.00000000000E+00 0. -1.
          6    1    1    2  501    0  0.67025900198E+02  0.18034219371E+03  0.13622469052E+03  0.29181662810E+03  0.17200000000E+03 0.  1.
         -6    1    1    2    0  503 -0.67025900198E+02 -0.18034219371E+03 -0.21476848035E+03  0.33574585371E+03  0.17200000000E+03 0. -1.
</event>
<event>
 4    1  0.4405880E+000  0.1753421E+03  0.7818608E-02  0.1172389E+00
         21   -1    0    0  501  502  0.00000000000E+00  0.00000000000E+00  0.32130565344E+02  0.32130565344E+02  0.00000000000E+00 0. -1.
         21   -1    0    0  502  503 -0.00000000000E+00 -0.00000000000E+00 -0.10301316586E+04  0.10301316586E+04  0.00000000000E+00 0. -1.
          6    1    1    2  501    0  0.29567637119E+02  0.16929921648E+02 -0.35736080161E+03  0.39805980699E+03  0.17200000000E+03 0. -1.
         -6    1    1    2    0  503 -0.29567637119E+02 -0.16929921648E+02 -0.64064029168E+03  0.66420241699E+03  0.17200000000E+03 0. -1.
</event>
<event>
 4    1  0.4405880E+000  0.1925052E+03  0.7818608E-02  0.1156221E+00
         21   -1    0    0  501  502  0.00000000000E+00  0.00000000000E+00  0.19302771795E+03  0.19302771795E+03  0.00000000000E+00 0.  1.
         21   -1    0    0  502  503 -0.00000000000E+00 -0.00000000000E+00 -0.20423558100E+03  0.20423558100E+03  0.00000000000E+00 0.  1.
          6    1    1    2  501    0  0.73900987471E+02 -0.44865344940E+02  0.43045393567E+02  0.19725912155E+03  0.17200000000E+03 0.  1.
         -6    1    1    2    0  503 -0.73900987471E+02  0.44865344940E+02 -0.54253256611E+02  0.20000417740E+03  0.17200000000E+03 0.  1.
</event>
<event>
 4    1  0.4405880E+000  0.3048326E+03  0.7818608E-02  0.1082849E+00
         21   -1    0    0  503  502  0.00000000000E+00  0.00000000000E+00  0.42575956004E+03  0.42575956004E+03  0.00000000000E+00 0. -1.
         21   -1    0    0  501  503 -0.00000000000E+00 -0.00000000000E+00 -0.21911223108E+03  0.21911223108E+03  0.00000000000E+00 0. -1.
          6    1    1    2  501    0 -0.25100607789E+03 -0.18299068640E+02  0.83121452278E+02  0.31596215419E+03  0.17200000000E+03 0. -1.
         -6    1    1    2    0  502  0.25100607789E+03  0.18299068640E+02  0.12352587669E+03  0.32890963693E+03  0.17200000000E+03 0. -1.
</event>
<event>
 4    1  0.4405880E+000  0.2224029E+03  0.7818608E-02  0.1132104E+00
         21   -1    0    0  503  502  0.00000000000E+00  0.00000000000E+00  0.46642871190E+02  0.46642871190E+02  0.00000000000E+00 0. -1.
         21   -1    0    0  501  503 -0.00000000000E+00 -0.00000000000E+00 -0.14166729649E+04  0.14166729649E+04  0.00000000000E+00 0.  1.
          6    1    1    2  501    0 -0.49401391170E+01  0.14090650686E+03 -0.10518968581E+04  0.10751511748E+04  0.17200000000E+03 0. -1.
         -6    1    1    2    0  502  0.49401391170E+01 -0.14090650686E+03 -0.31813323559E+03  0.38816466125E+03  0.17200000000E+03 0. -1.
</event>
<event>
 4    1  0.4405880E+000  0.1942998E+03  0.7818608E-02  0.1154639E+00
         21   -1    0    0  503  502  0.00000000000E+00  0.00000000000E+00  0.24373133682E+03  0.24373133682E+03  0.00000000000E+00 0.  1.
         21   -1    0    0  501  503 -0.00000000000E+00 -0.00000000000E+00 -0.17669661300E+03  0.17669661300E+03  0.00000000000E+00 0. -1.
          6    1    1    2  501    0  0.23512312106E+02  0.87267291295E+02 -0.40325131288E+02  0.19844023071E+03  0.17200000000E+03 0.  1.
         -6    1    1    2    0  502 -0.23512312106E+02 -0.87267291295E+02  0.10735985510E+03  0.22198771912E+03  0.17200000000E+03 0. -1.
</event>
<event>
 4    1  0.4405880E+000  0.1746733E+03  0.7818608E-02  0.1173060E+00
         21   -1    0    0  503  502  0.00000000000E+00  0.00000000000E+00  0.98956258938E+02  0.98956258938E+02  0.00000000000E+00 0.  1.
         21   -1    0    0  501  503 -0.00000000000E+00 -0.00000000000E+00 -0.44420196247E+03  0.44420196247E+03  0.00000000000E+00 0.  1.
          6    1    1    2  501    0 -0.17788789358E+02  0.24704675934E+02 -0.22420112442E+02  0.17610628462E+03  0.17200000000E+03 0.  1.
         -6    1    1    2    0  502  0.17788789358E+02 -0.24704675934E+02 -0.32282559109E+03  0.36705193679E+03  0.17200000000E+03 0.  1.
</event>
<event>
 4    1  0.4405880E+000  0.1840482E+03  0.7818608E-02  0.1163942E+00
         21   -1    0    0  501  502  0.00000000000E+00  0.00000000000E+00  0.24162972072E+03  0.24162972072E+03  0.00000000000E+00 0. -1.
         21   -1    0    0  502  503 -0.00000000000E+00 -0.00000000000E+00 -0.25676005902E+03  0.25676005902E+03  0.00000000000E+00 0. -1.
          6    1    1    2  501    0  0.19325314429E+02  0.62580188388E+02  0.16034283347E+03  0.24409746415E+03  0.17200000000E+03 0. -1.
         -6    1    1    2    0  503 -0.19325314429E+02 -0.62580188388E+02 -0.17547317178E+03  0.25429231559E+03  0.17200000000E+03 0. -1.
</event>
<event>
 4    1  0.4405880E+000  0.4068476E+03  0.7818608E-02  0.1041434E+00
         21   -1    0    0  501  502  0.00000000000E+00  0.00000000000E+00  0.24109795243E+03  0.24109795243E+03  0.00000000000E+00 0. -1.
         21   -1    0    0  502  503 -0.00000000000E+00 -0.00000000000E+00 -0.12610381393E+04  0.12610381393E+04  0.00000000000E+00 0.  1.
          6    1    1    2  501    0 -0.36857313096E+03 -0.97357659395E+01 -0.30295125989E+01  0.40685884032E+03  0.17200000000E+03 0.  1.
         -6    1    1    2    0  503  0.36857313096E+03  0.97357659395E+01 -0.10169106743E+04  0.10952772514E+04  0.17200000000E+03 0.  1.
</event>
<event>
 4    1  0.4405880E+000  0.1870090E+03  0.7818608E-02  0.1161187E+00
         21   -1    0    0  501  502  0.00000000000E+00  0.00000000000E+00  0.15486223667E+03  0.15486223667E+03  0.00000000000E+00 0. -1.
         21   -1    0    0  502  503 -0.00000000000E+00 -0.00000000000E+00 -0.33238014729E+03  0.33238014729E+03  0.00000000000E+00 0. -1.
          6    1    1    2  501    0 -0.74477563479E+01 -0.73026597044E+02  0.49176845366E+02  0.19336678895E+03  0.17200000000E+03 0. -1.
         -6    1    1    2    0  503  0.74477563479E+01  0.73026597044E+02 -0.22669475598E+03  0.29387559500E+03  0.17200000000E+03 0. -1.
</event>
<event>
 4    1  0.4405880E+000  0.1760275E+03  0.7818608E-02  0.1171704E+00
         21   -1    0    0  503  502  0.00000000000E+00  0.00000000000E+00  0.56527590386E+03  0.56527590386E+03  0.00000000000E+00 0. -1.
         21   -1    0    0  501  503 -0.00000000000E+00 -0.00000000000E+00 -0.62012859402E+02  0.62012859402E+02  0.00000000000E+00 0.  1.
          6    1    1    2  501    0 -0.15969761578E+02  0.33862283039E+02  0.35848620830E+03  0.39937206842E+03  0.17200000000E+03 0. -1.
         -6    1    1    2    0  502  0.15969761578E+02 -0.33862283039E+02  0.14477683616E+03  0.22791669484E+03  0.17200000000E+03 0.  1.
</event>
<event>
 4    1  0.4405880E+000  0.1785628E+03  0.7818608E-02  0.1169201E+00
         21   -1    0    0  501  502  0.00000000000E+00  0.00000000000E+00  0.53508363304E+03  0.53508363304E+03  0.00000000000E+00 0.  1.
         21   -1    0    0  502  503 -0.00000000000E+00 -0.00000000000E+00 -0.10655578182E+03  0.10655578182E+03  0.00000000000E+00 0.  1.
          6    1    1    2  501    0 -0.44908381295E+02 -0.16850063106E+02  0.12679079226E+01  0.17856734004E+03  0.17200000000E+03 0.  1.
         -6    1    1    2    0  503  0.44908381295E+02  0.16850063106E+02  0.42725994329E+03  0.46307207482E+03  0.17200000000E+03 0.  1.
</event>
<event>
 4    1  0.4405880E+000  0.2675022E+03  0.7818608E-02  0.1102718E+00
         21   -1    0    0  503  502  0.00000000000E+00  0.00000000000E+00  0.12272207725E+03  0.12272207725E+03  0.00000000000E+00 0. -1.
         21   -1    0    0  501  503 -0.00000000000E+00 -0.00000000000E+00 -0.67470362651E+03  0.67470362651E+03  0.00000000000E+00 0. -1.
          6    1    1    2  501    0 -0.15677996937E+03  0.13188423335E+03 -0.12906585624E+03  0.29701078272E+03  0.17200000000E+03 0. -1.
         -6    1    1    2    0  502  0.15677996937E+03 -0.13188423335E+03 -0.42291569302E+03  0.50041492104E+03  0.17200000000E+03 0. -1.
</event>
<event>
 4    1  0.4405880E+000  0.6220753E+03  0.7818608E-02  0.9860636E-01
         21   -1    0    0  501  502  0.00000000000E+00  0.00000000000E+00  0.58786745493E+03  0.58786745493E+03  0.00000000000E+00 0.  1.
         21   -1    0    0  502  503 -0.00000000000E+00 -0.00000000000E+00 -0.67665478324E+03  0.67665478324E+03  0.00000000000E+00 0.  1.
          6    1    1    2  501    0 -0.52650943873E+03 -0.28316339348E+03  0.59813652092E+02  0.62494429308E+03  0.17200000000E+03 0.  1.
         -6    1    1    2    0  503  0.52650943873E+03  0.28316339348E+03 -0.14860098041E+03  0.63957794510E+03  0.17200000000E+03 0.  1.
</event>
<event>
 4    1  0.4405880E+000  0.1735809E+03  0.7818608E-02  0.1174164E+00
         21   -1    0    0  501  502  0.00000000000E+00  0.00000000000E+00  0.22859950048E+03  0.22859950048E+03  0.00000000000E+00 0. -1.
         21   -1    0    0  502  503 -0.00000000000E+00 -0.00000000000E+00 -0.17742230393E+03  0.17742230393E+03  0.00000000000E+00 0. -1.
          6    1    1    2  501    0 -0.21215957430E+02 -0.98095447582E+01 -0.77351481221E+02  0.19003577470E+03  0.17200000000E+03 0.  1.
         -6    1    1    2    0  503  0.21215957430E+02  0.98095447582E+01  0.12852867777E+03  0.21598602971E+03  0.17200000000E+03 0.  1.
</event>
<event>
 4    1  0.4405880E+000  0.1810937E+03  0.7818608E-02  0.1166749E+00
         21   -1    0    0  501  502  0.00000000000E+00  0.00000000000E+00  0.15452525658E+03  0.15452525658E+03  0.00000000000E+00 0. -1.
         21   -1    0    0  502  503 -0.00000000000E+00 -0.00000000000E+00 -0.12984929626E+04  0.12984929626E+04  0.00000000000E+00 0. -1.
          6    1    1    2  501    0  0.10459639050E+01 -0.56655391953E+02  0.92506542942E+02  0.20335286564E+03  0.17200000000E+03 0. -1.
         -6    1    1    2    0  503 -0.10459639050E+01  0.56655391953E+02 -0.12364742490E+04  0.12496653536E+04  0.17200000000E+03 0. -1.
</event>
<event>
 4    1  0.4405880E+000  0.1818769E+03  0.7818608E-02  0.1165999E+00
         21   -1    0    0  501  502  0.00000000000E+00  0.00000000000E+00  0.83805084339E+03  0.83805084339E+03  0.00000000000E+00 0.  1.
         21   -1    0    0  502  503 -0.00000000000E+00 -0.00000000000E+00 -0.80043000683E+02  0.80043000683E+02  0.00000000000E+00 0.  1.
          6    1    1    2  501    0 -0.33577814089E+02 -0.48659267247E+02  0.70582156009E+03  0.72887808896E+03  0.17200000000E+03 0.  1.
         -6    1    1    2    0  503  0.33577814089E+02  0.48659267247E+02  0.52186282620E+02  0.18921575511E+03  0.17200000000E+03 0.  1.
</event>
<event>
 4    1  0.4405880E+000  0.1915208E+03  0.7818608E-02  0.1157097E+00
         21   -1    0    0  503  502  0.00000000000E+00  0.00000000000E+00  0.25655631203E+03  0.25655631203E+03  0.00000000000E+00 0. -1.
         21   -1    0    0  501  503 -0.00000000000E+00 -0.00000000000E+00 -0.45943263052E+03  0.45943263052E+03  0.00000000000E+00 0.  1.
          6    1    1    2  501    0  0.72867929909E+02  0.42266732655E+02 -0.39855390356E+03  0.44218257082E+03  0.17200000000E+03 0.  1.
         -6    1    1    2    0  502 -0.72867929909E+02 -0.42266732655E+02  0.19567758507E+03  0.27380637173E+03  0.17200000000E+03 0. -1.
</event>
<event>
 4    1  0.4405880E+000  0.2368911E+03  0.7818608E-02  0.1121881E+00
         21   -1    0    0  501  502  0.00000000000E+00  0.00000000000E+00  0.44138062918E+03  0.44138062918E+03  0.00000000000E+00 0.  1.
         21   -1    0    0  502  503 -0.00000000000E+00 -0.00000000000E+00 -0.17961937188E+03  0.17961937188E+03  0.00000000000E+00 0. -1.
          6    1    1    2  501    0 -0.13806254495E+03  0.86441445482E+02 -0.36952204952E+02  0.23975582426E+03  0.17200000000E+03 0. -1.
         -6    1    1    2    0  503  0.13806254495E+03 -0.86441445482E+02  0.29871346225E+03  0.38124417680E+03  0.17200000000E+03 0.  1.
</event>
<event>
 4    1  0.4405880E+000  0.1963562E+03  0.7818608E-02  0.1152850E+00
         21   -1    0    0  501  502  0.00000000000E+00  0.00000000000E+00  0.72471402191E+02  0.72471402191E+02  0.00000000000E+00 0.  1.
         21   -1    0    0  502  503 -0.00000000000E+00 -0.00000000000E+00 -0.62208727481E+03  0.62208727481E+03  0.00000000000E+00 0.  1.
          6    1    1    2  501    0  0.79938868966E+02  0.50808867550E+02 -0.14266240350E+03  0.24271037301E+03  0.17200000000E+03 0.  1.
         -6    1    1    2    0  503 -0.79938868966E+02 -0.50808867550E+02 -0.40695346912E+03  0.45184830400E+03  0.17200000000E+03 0.  1.
</event>
<event>
 4    1  0.4405880E+000  0.1894785E+03  0.7818608E-02  0.1158932E+00
         21   -1    0    0  501  502  0.00000000000E+00  0.00000000000E+00  0.15503838568E+04  0.15503838568E+04  0.00000000000E+00 0.  1.
         21   -1    0    0  502  503 -0.00000000000E+00 -0.00000000000E+00 -0.43665145197E+02  0.43665145197E+02  0.00000000000E+00 0.  1.
          6    1    1    2  501    0 -0.11054615151E+02 -0.78714135974E+02  0.12995801432E+04  0.13133204744E+04  0.17200000000E+03 0.  1.
         -6    1    1    2    0  503  0.11054615151E+02  0.78714135974E+02  0.20713856839E+03  0.28072852764E+03  0.17200000000E+03 0.  1.
</event>
<event>
 4    1  0.4405880E+000  0.2423410E+03  0.7818608E-02  0.1118243E+00
         21   -1    0    0  503  502  0.00000000000E+00  0.00000000000E+00  0.48610416510E+03  0.48610416510E+03  0.00000000000E+00 0.  1.
         21   -1    0    0  501  503 -0.00000000000E+00 -0.00000000000E+00 -0.34215212443E+03  0.34215212443E+03  0.00000000000E+00 0. -1.
          6    1    1    2  501    0 -0.14461961132E+03 -0.90721166399E+02 -0.26110606467E+03  0.35623803702E+03  0.17200000000E+03 0. -1.
         -6    1    1    2    0  502  0.14461961132E+03  0.90721166399E+02  0.40505810534E+03  0.47201825252E+03  0.17200000000E+03 0.  1.
</event>
<event>
 4    1  0.4405880E+000  0.2544195E+03  0.7818608E-02  0.1110543E+00
         21   -1    0    0  503  502  0.00000000000E+00  0.00000000000E+00  0.71614307650E+02  0.71614307650E+02  0.00000000000E+00 0.  1.
         21   -1    0    0  501  503 -0.00000000000E+00 -0.00000000000E+00 -0.97910378211E+03  0.97910378211E+03  0.00000000000E+00 0.  1.
          6    1    1    2  501    0  0.18193626701E+03  0.45215960329E+02 -0.59938382693E+03  0.65114534500E+03  0.17200000000E+03 0.  1.
         -6    1    1    2    0  502 -0.18193626701E+03 -0.45215960329E+02 -0.30810564753E+03  0.39957274477E+03  0.17200000000E+03 0.  1.
</event>
<event>
 4    1  0.4405880E+000  0.2193693E+03  0.7818608E-02  0.1134354E+00
         21   -1    0    0  503  502  0.00000000000E+00  0.00000000000E+00  0.10054225736E+03  0.10054225736E+03  0.00000000000E+00 0. -1.
         21   -1    0    0  501  503 -0.00000000000E+00 -0.00000000000E+00 -0.50367561731E+03  0.50367561731E+03  0.00000000000E+00 0. -1.
          6    1    1    2  501    0 -0.10020091946E+03 -0.92188145056E+02 -0.13420314704E+03  0.25716407802E+03  0.17200000000E+03 0. -1.
         -6    1    1    2    0  502  0.10020091946E+03  0.92188145056E+02 -0.26893021291E+03  0.34705379665E+03  0.17200000000E+03 0. -1.
</event>
<event>
 4    1  0.4405880E+000  0.2123381E+03  0.7818608E-02  0.1139728E+00
         21   -1    0    0  501  502  0.00000000000E+00  0.00000000000E+00  0.33336743640E+02  0.33336743640E+02  0.00000000000E+00 0.  1.
         21   -1    0    0  502  503 -0.00000000000E+00 -0.00000000000E+00 -0.15314132534E+04  0.15314132534E+04  0.00000000000E+00 0. -1.
          6    1    1    2  501    0 -0.11000090248E+03 -0.58337647426E+02 -0.48161018552E+03  0.52634195202E+03  0.17200000000E+03 0.  1.
         -6    1    1    2    0  503  0.11000090248E+03  0.58337647426E+02 -0.10164663242E+04  0.10384080450E+04  0.17200000000E+03 0. -1.
</event>
<event>
 4    1  0.4405880E+000  0.1898922E+03  0.7818608E-02  0.1158559E+00
         21   -1    0    0  503  502  0.00000000000E+00  0.00000000000E+00  0.14807255987E+03  0.14807255987E+03  0.00000000000E+00 0.  1.
         21   -1    0    0  501  503 -0.00000000000E+00 -0.00000000000E+00 -0.28847848788E+03  0.28847848788E+03  0.00000000000E+00 0.  1.
          6    1    1    2  501    0 -0.63789144795E+02  0.49050734776E+02 -0.15636999509E+03  0.24598903418E+03  0.17200000000E+03 0.  1.
         -6    1    1    2    0  502  0.63789144795E+02 -0.49050734776E+02  0.15964067083E+02  0.19056201356E+03  0.17200000000E+03 0.  1.
</event>
<event>
 4    1  0.4405880E+000  0.2287177E+03  0.7818608E-02  0.1127546E+00
         21   -1    0    0  503  502  0.00000000000E+00  0.00000000000E+00  0.46823795169E+02  0.46823795169E+02  0.00000000000E+00 0. -1.
         21   -1    0    0  501  503 -0.00000000000E+00 -0.00000000000E+00 -0.16410873497E+04  0.16410873497E+04  0.00000000000E+00 0.  1.
          6    1    1    2  501    0 -0.13654162014E+03  0.63907495968E+02 -0.12739694770E+04  0.12943376725E+04  0.17200000000E+03 0.  1.
         -6    1    1    2    0  502  0.13654162014E+03 -0.63907495968E+02 -0.32029407755E+03  0.39357347241E+03  0.17200000000E+03 0. -1.
</event>
<event>
 4    1  0.4405880E+000  0.2019478E+03  0.7818608E-02  0.1148106E+00
         21   -1    0    0  501  502  0.00000000000E+00  0.00000000000E+00  0.40414805452E+03  0.40414805452E+03  0.00000000000E+00 0.  1.
         21   -1    0    0  502  503 -0.00000000000E+00 -0.00000000000E+00 -0.14907263897E+03  0.14907263897E+03  0.00000000000E+00 0. -1.
          6    1    1    2  501    0  0.99396723223E+02 -0.36320758681E+02  0.28476247228E+03  0.34910252321E+03  0.17200000000E+03 0.  1.
         -6    1    1    2    0  503 -0.99396723223E+02  0.36320758681E+02 -0.29687056718E+02  0.20411817027E+03  0.17200000000E+03 0. -1.
</event>
<event>
 4    1  0.4405880E+000  0.1805411E+03  0.7818608E-02  0.1167280E+00
         21   -1    0    0  503  502  0.00000000000E+00  0.00000000000E+00  0.23176273127E+02  0.23176273127E+02  0.00000000000E+00 0. -1.
         21   -1    0    0  501  503 -0.00000000000E+00 -0.00000000000E+00 -0.18116102347E+04  0.18116102347E+04  0.00000000000E+00 0. -1.
          6    1    1    2  501    0 -0.56238510959E+01  0.54584559363E+02 -0.13280909188E+04  0.13403061555E+04  0.17200000000E+03 0. -1.
         -6    1    1    2    0  502  0.56238510959E+01 -0.54584559363E+02 -0.46034304271E+03  0.49448035228E+03  0.17200000000E+03 0. -1.
</event>
<event>
 4    1  0.4405880E+000  0.2044975E+03  0.7818608E-02  0.1145999E+00
         21   -1    0    0  501  502  0.00000000000E+00  0.00000000000E+00  0.75765563402E+03  0.75765563402E+03  0.00000000000E+00 0. -1.
         21   -1    0    0  502  503 -0.00000000000E+00 -0.00000000000E+00 -0.55609587650E+02  0.55609587650E+02  0.00000000000E+00 0. -1.
          6    1    1    2  501    0 -0.87773071086E+02 -0.67313528442E+02  0.31593614479E+03  0.37634408551E+03  0.17200000000E+03 0. -1.
         -6    1    1    2    0  503  0.87773071086E+02  0.67313528442E+02  0.38610990158E+03  0.43692113616E+03  0.17200000000E+03 0. -1.
</event>
<event>
 4    1  0.4405880E+000  0.4019412E+03  0.7818608E-02  0.1043110E+00
         21   -1    0    0  501  502  0.00000000000E+00  0.00000000000E+00  0.13665439198E+03  0.13665439198E+03  0.00000000000E+00 0.  1.
         21   -1    0    0  502  503 -0.00000000000E+00 -0.00000000000E+00 -0.17665098119E+04  0.17665098119E+04  0.00000000000E+00 0. -1.
          6    1    1    2  501    0 -0.30811404624E+03 -0.19245378871E+03 -0.26766077427E+03  0.48290684025E+03  0.17200000000E+03 0.  1.
         -6    1    1    2    0  503  0.30811404624E+03  0.19245378871E+03 -0.13621946457E+04  0.14202573636E+04  0.17200000000E+03 0. -1.
</event>
<event>
 4    1  0.4405880E+000  0.1897371E+03  0.7818608E-02  0.1158699E+00
         21   -1    0    0  501  502  0.00000000000E+00  0.00000000000E+00  0.10350400867E+04  0.10350400867E+04  0.00000000000E+00 0.  1.
         21   -1    0    0  502  503 -0.00000000000E+00 -0.00000000000E+00 -0.35202202241E+02  0.35202202241E+02  0.00000000000E+00 0.  1.
          6    1    1    2  501    0 -0.38928037929E+02 -0.70005409069E+02  0.44141257349E+03  0.48046353605E+03  0.17200000000E+03 0.  1.
         -6    1    1    2    0  503  0.38928037929E+02  0.70005409069E+02  0.55842531098E+03  0.58977875290E+03  0.17200000000E+03 0.  1.
</event>
<event>
 4    1  0.4405880E+000  0.1799383E+03  0.7818608E-02  0.1167863E+00
         21   -1    0    0  503  502  0.00000000000E+00  0.00000000000E+00  0.40553436979E+03  0.40553436979E+03  0.00000000000E+00 0.  1.
         21   -1    0    0  501  503 -0.00000000000E+00 -0.00000000000E+00 -0.18468505392E+03  0.18468505392E+03  0.00000000000E+00 0.  1.
          6    1    1    2  501    0  0.46855481259E+02  0.24461177782E+02 -0.11192783483E+03  0.21190947490E+03  0.17200000000E+03 0.  1.
         -6    1    1    2    0  502 -0.46855481259E+02 -0.24461177782E+02  0.33277715070E+03  0.37830994881E+03  0.17200000000E+03 0.  1.
</event>
<event>
 4    1  0.4405880E+000  0.1981021E+03  0.7818608E-02  0.1151350E+00
         21   -1    0    0  501  502  0.00000000000E+00  0.00000000000E+00  0.17378569797E+03  0.17378569797E+03  0.00000000000E+00 0. -1.
         21   -1    0    0  502  503 -0.00000000000E+00 -0.00000000000E+00 -0.23326679224E+03  0.23326679224E+03  0.00000000000E+00 0.  1.
          6    1    1    2  501    0 -0.76505427474E+02 -0.61703966729E+02  0.66215937503E+01  0.19821277821E+03  0.17200000000E+03 0. -1.
         -6    1    1    2    0  503  0.76505427474E+02  0.61703966729E+02 -0.66102688016E+02  0.20883971199E+03  0.17200000000E+03 0. -1.
</event>
<event>
 4    1  0.4405880E+000  0.3164993E+03  0.7818608E-02  0.1077272E+00
         21   -1    0    0  503  502  0.00000000000E+00  0.00000000000E+00  0.66271548427E+03  0.66271548427E+03  0.00000000000E+00 0. -1.
         21   -1    0    0  501  503 -0.00000000000E+00 -0.00000000000E+00 -0.32585016003E+03  0.32585016003E+03  0.00000000000E+00 0.  1.
          6    1    1    2  501    0  0.11912471089E+03 -0.23748081896E+03 -0.19348411497E+03  0.37095544054E+03  0.17200000000E+03 0.  1.
         -6    1    1    2    0  502 -0.11912471089E+03  0.23748081896E+03  0.53034943921E+03  0.61761020376E+03  0.17200000000E+03 0. -1.
</event>
<event>
 4    1  0.4405880E+000  0.1973054E+03  0.7818608E-02  0.1152033E+00
         21   -1    0    0  501  502  0.00000000000E+00  0.00000000000E+00  0.19717033864E+03  0.19717033864E+03  0.00000000000E+00 0. -1.
         21   -1    0    0  502  503 -0.00000000000E+00 -0.00000000000E+00 -0.57784814989E+03  0.57784814989E+03  0.00000000000E+00 0.  1.
          6    1    1    2  501    0  0.96530862275E+02  0.52176280623E+01  0.12407356597E+03  0.23307441041E+03  0.17200000000E+03 0. -1.
         -6    1    1    2    0  503 -0.96530862275E+02 -0.52176280623E+01 -0.50475137722E+03  0.54194407813E+03  0.17200000000E+03 0.  1.
</event>
<event>
 4    1  0.4405880E+000  0.1790350E+03  0.7818608E-02  0.1168740E+00
         21   -1    0    0  501  502  0.00000000000E+00  0.00000000000E+00  0.74217954988E+02  0.74217954988E+02  0.00000000000E+00 0. -1.
         21   -1    0    0  502  503 -0.00000000000E+00 -0.00000000000E+00 -0.50871972231E+03  0.50871972231E+03  0.00000000000E+00 0. -1.
          6    1    1    2  501    0 -0.41783751210E+02 -0.26900491182E+02 -0.10397550157E+03  0.20703725080E+03  0.17200000000E+03 0. -1.
         -6    1    1    2    0  503  0.41783751210E+02  0.26900491182E+02 -0.33052626575E+03  0.37590042650E+03  0.17200000000E+03 0. -1.
</event>
<event>
 4    1  0.4405880E+000  0.2436927E+03  0.7818608E-02  0.1117357E+00
         21   -1    0    0  503  502  0.00000000000E+00  0.00000000000E+00  0.16339289155E+04  0.16339289155E+04  0.00000000000E+00 0. -1.
         21   -1    0    0  501  503 -0.00000000000E+00 -0.00000000000E+00 -0.38111236593E+02  0.38111236593E+02  0.00000000000E+00 0. -1.
          6    1    1    2  501    0 -0.13332719582E+03  0.10966301164E+03  0.61796310195E+03  0.66427743650E+03  0.17200000000E+03 0. -1.
         -6    1    1    2    0  502  0.13332719582E+03 -0.10966301164E+03  0.97785457701E+03  0.10077627156E+04  0.17200000000E+03 0. -1.
</event>
<event>
 4    1  0.4405880E+000  0.1813769E+03  0.7818608E-02  0.1166477E+00
         21   -1    0    0  503  502  0.00000000000E+00  0.00000000000E+00  0.92634682764E+02  0.92634682764E+02  0.00000000000E+00 0.  1.
         21   -1    0    0  501  503 -0.00000000000E+00 -0.00000000000E+00 -0.66532338529E+03  0.66532338529E+03  0.00000000000E+00 0.  1.
          6    1    1    2  501    0  0.44430122559E+02 -0.36599731093E+02 -0.54511402882E+03  0.57449706746E+03  0.17200000000E+03 0.  1.
         -6    1    1    2    0  502 -0.44430122559E+02  0.36599731093E+02 -0.27574673701E+02  0.18346100059E+03  0.17200000000E+03 0.  1.
</event>
<event>
 4    1  0.4405880E+000  0.1870617E+03  0.7818608E-02  0.1161139E+00
         21   -1    0    0  501  502  0.00000000000E+00  0.00000000000E+00  0.12414509300E+04  0.12414509300E+04  0.00000000000E+00 0.  1.
         21   -1    0    0  502  503 -0.00000000000E+00 -0.00000000000E+00 -0.41815639736E+02  0.41815639736E+02  0.00000000000E+00 0. -1.
          6    1    1    2  501    0  0.15099775744E+02  0.71972641094E+02  0.96613114108E+03  0.98407390274E+03  0.17200000000E+03 0.  1.
         -6    1    1    2    0  503 -0.15099775744E+02 -0.71972641094E+02  0.23350414916E+03  0.29919266697E+03  0.17200000000E+03 0. -1.
</event>
<event>
 4    1  0.4405880E+000  0.2017641E+03  0.7818608E-02  0.1148259E+00
         21   -1    0    0  503  502  0.00000000000E+00  0.00000000000E+00  0.38472077874E+02  0.38472077874E+02  0.00000000000E+00 0. -1.
         21   -1    0    0  501  503 -0.00000000000E+00 -0.00000000000E+00 -0.12021401989E+04  0.12021401989E+04  0.00000000000E+00 0. -1.
          6    1    1    2  501    0  0.10444665091E+03 -0.14684632454E+02 -0.36714292720E+03  0.41893038838E+03  0.17200000000E+03 0. -1.
         -6    1    1    2    0  502 -0.10444665091E+03  0.14684632454E+02 -0.79652519385E+03  0.82168188841E+03  0.17200000000E+03 0. -1.
</event>
<event>
 4    1  0.4405880E+000  0.1976445E+03  0.7818608E-02  0.1151742E+00
         21   -1    0    0  503  502  0.00000000000E+00  0.00000000000E+00  0.46734769558E+03  0.46734769558E+03  0.00000000000E+00 0.  1.
         21   -1    0    0  501  503 -0.00000000000E+00 -0.00000000000E+00 -0.90113851630E+02  0.90113851630E+02  0.00000000000E+00 0. -1.
          6    1    1    2  501    0 -0.73143047094E+02  0.64260656542E+02  0.11359264183E+03  0.22796189505E+03  0.17200000000E+03 0.  1.
         -6    1    1    2    0  502  0.73143047094E+02 -0.64260656542E+02  0.26364120212E+03  0.32949965216E+03  0.17200000000E+03 0.  1.
</event>
<event>
 4    1  0.4405880E+000  0.2280553E+03  0.7818608E-02  0.1128016E+00
         21   -1    0    0  503  502  0.00000000000E+00  0.00000000000E+00  0.13408730293E+04  0.13408730293E+04  0.00000000000E+00 0.  1.
         21   -1    0    0  501  503 -0.00000000000E+00 -0.00000000000E+00 -0.50044491946E+02  0.50044491946E+02  0.00000000000E+00 0. -1.
          6    1    1    2  501    0 -0.14533378170E+03  0.36101477508E+02  0.31557466185E+03  0.38935407020E+03  0.17200000000E+03 0. -1.
         -6    1    1    2    0  502  0.14533378170E+03 -0.36101477508E+02  0.97525387552E+03  0.10015634511E+04  0.17200000000E+03 0.  1.
</event>
<event>
 4    1  0.4405880E+000  0.2179955E+03  0.7818608E-02  0.1135386E+00
         21   -1    0    0  501  502  0.00000000000E+00  0.00000000000E+00  0.40897757643E+03  0.40897757643E+03  0.00000000000E+00 0. -1.
         21   -1    0    0  502  503 -0.00000000000E+00 -0.00000000000E+00 -0.12277342702E+03  0.12277342702E+03  0.00000000000E+00 0. -1.
          6    1    1    2  501    0  0.87323604945E+02 -0.10155104763E+03  0.20463623906E+03  0.29899501265E+03  0.17200000000E+03 0. -1.
         -6    1    1    2    0  503 -0.87323604945E+02  0.10155104763E+03  0.81567910350E+02  0.23275599080E+03  0.17200000000E+03 0. -1.
</event>
<event>
 4    1  0.4405880E+000  0.1750763E+03  0.7818608E-02  0.1172655E+00
         21   -1    0    0  501  502  0.00000000000E+00  0.00000000000E+00  0.22834119622E+03  0.22834119622E+03  0.00000000000E+00 0.  1.
         21   -1    0    0  502  503 -0.00000000000E+00 -0.00000000000E+00 -0.13438189487E+03  0.13438189487E+03  0.00000000000E+00 0.  1.
          6    1    1    2  501    0 -0.29692959467E+02 -0.13639286183E+02  0.52947073191E+02  0.18290733864E+03  0.17200000000E+03 0.  1.
         -6    1    1    2    0  503  0.29692959467E+02  0.13639286183E+02  0.41012228167E+02  0.17981575245E+03  0.17200000000E+03 0.  1.
</event>
<event>
 4    1  0.4405880E+000  0.2139092E+03  0.7818608E-02  0.1138507E+00
         21   -1    0    0  503  502  0.00000000000E+00  0.00000000000E+00  0.49070641051E+02  0.49070641051E+02  0.00000000000E+00 0.  1.
         21   -1    0    0  501  503 -0.00000000000E+00 -0.00000000000E+00 -0.10268004561E+04  0.10268004561E+04  0.00000000000E+00 0.  1.
          6    1    1    2  501    0 -0.10101649776E+03  0.77258117587E+02 -0.65190766408E+03  0.68610549629E+03  0.17200000000E+03 0.  1.
         -6    1    1    2    0  502  0.10101649776E+03 -0.77258117587E+02 -0.32582215097E+03  0.38976560086E+03  0.17200000000E+03 0.  1.
</event>
<event>
 4    1  0.4405880E+000  0.3135103E+03  0.7818608E-02  0.1078675E+00
         21   -1    0    0  501  502  0.00000000000E+00  0.00000000000E+00  0.25064128072E+04  0.25064128072E+04  0.00000000000E+00 0. -1.
         21   -1    0    0  502  503 -0.00000000000E+00 -0.00000000000E+00 -0.18333852630E+03  0.18333852630E+03  0.00000000000E+00 0.  1.
          6    1    1    2  501    0  0.16678448443E+03  0.20220694944E+03  0.23539396078E+04  0.23747253298E+04  0.17200000000E+03 0. -1.
         -6    1    1    2    0  503 -0.16678448443E+03 -0.20220694944E+03 -0.30865326862E+02  0.31502600377E+03  0.17200000000E+03 0.  1.
</event>
<event>
 4    1  0.4405880E+000  0.1876688E+03  0.7818608E-02  0.1160581E+00
         21   -1    0    0  501  502  0.00000000000E+00  0.00000000000E+00  0.11563267509E+04  0.11563267509E+04  0.00000000000E+00 0. -1.
         21   -1    0    0  502  503 -0.00000000000E+00 -0.00000000000E+00 -0.36035367925E+02  0.36035367925E+02  0.00000000000E+00 0. -1.
          6    1    1    2  501    0  0.53358766194E+02  0.52805415667E+02  0.79468877392E+03  0.81654749846E+03  0.17200000000E+03 0. -1.
         -6    1    1    2    0  503 -0.53358766194E+02 -0.52805415667E+02  0.32560260906E+03  0.37581462037E+03  0.17200000000E+03 0. -1.
</event>
<event>
 4    1  0.4405880E+000  0.1893672E+03  0.7818608E-02  0.1159033E+00
         21   -1    0    0  503  502  0.00000000000E+00  0.00000000000E+00  0.19638668884E+03  0.19638668884E+03  0.00000000000E+00 0. -1.
         21   -1    0    0  501  503 -0.00000000000E+00 -0.00000000000E+00 -0.27675846448E+03  0.27675846448E+03  0.00000000000E+00 0.  1.
          6    1    1    2  501    0  0.12034428944E+00 -0.79220751121E+02 -0.17817561906E+03  0.26001248647E+03  0.17200000000E+03 0.  1.
         -6    1    1    2    0  502 -0.12034428944E+00  0.79220751121E+02  0.97803843425E+02  0.21313266685E+03  0.17200000000E+03 0. -1.
</event>
<event>
 4    1  0.4405880E+000  0.2108435E+03  0.7818608E-02  0.1140900E+00
         21   -1    0    0  501  502  0.00000000000E+00  0.00000000000E+00  0.20926278624E+03  0.20926278624E+03  0.00000000000E+00 0. -1.
         21   -1    0    0  502  503 -0.00000000000E+00 -0.00000000000E+00 -0.42333084128E+03  0.42333084128E+03  0.00000000000E+00 0. -1.
          6    1    1    2  501    0  0.11972837018E+03  0.23154222680E+02  0.11621397799E+03  0.24075026342E+03  0.17200000000E+03 0. -1.
         -6    1    1    2    0  503 -0.11972837018E+03 -0.23154222680E+02 -0.33028203302E+03  0.39184336410E+03  0.17200000000E+03 0. -1.
</event>
<event>
 4    1  0.4405880E+000  0.2468673E+03  0.7818608E-02  0.1115301E+00
         21   -1    0    0  501  502  0.00000000000E+00  0.00000000000E+00  0.10712684793E+04  0.10712684793E+04  0.00000000000E+00 0.  1.
         21   -1    0    0  502  503 -0.00000000000E+00 -0.00000000000E+00 -0.57415608182E+02  0.57415608182E+02  0.00000000000E+00 0. -1.
          6    1    1    2  501    0  0.16151216452E+03 -0.72617529289E+02  0.56096896674E+03  0.61288634060E+03  0.17200000000E+03 0.  1.
         -6    1    1    2    0  503 -0.16151216452E+03  0.72617529289E+02  0.45288390443E+03  0.51579774693E+03  0.17200000000E+03 0. -1.
</event>
<event>
 4    1  0.4405880E+000  0.1962961E+03  0.7818608E-02  0.1152902E+00
         21   -1    0    0  503  502  0.00000000000E+00  0.00000000000E+00  0.67213078772E+02  0.67213078772E+02  0.00000000000E+00 0.  1.
         21   -1    0    0  501  503 -0.00000000000E+00 -0.00000000000E+00 -0.75604337947E+03  0.75604337947E+03  0.00000000000E+00 0. -1.
          6    1    1    2  501    0 -0.77016801193E+02 -0.54923143060E+02 -0.54679738962E+03  0.58096430579E+03  0.17200000000E+03 0. -1.
         -6    1    1    2    0  502  0.77016801193E+02  0.54923143060E+02 -0.14203291108E+03  0.24229215245E+03  0.17200000000E+03 0.  1.
</event>
<event>
 4    1  0.4405880E+000  0.1914250E+03  0.7818608E-02  0.1157182E+00
         21   -1    0    0  501  502  0.00000000000E+00  0.00000000000E+00  0.14487677154E+03  0.14487677154E+03  0.00000000000E+00 0. -1.
         21   -1    0    0  502  503 -0.00000000000E+00 -0.00000000000E+00 -0.25312083875E+03  0.25312083875E+03  0.00000000000E+00 0. -1.
          6    1    1    2  501    0  0.67448027072E+02 -0.50102889405E+02 -0.59600550615E+02  0.20048880646E+03  0.17200000000E+03 0. -1.
         -6    1    1    2    0  503 -0.67448027072E+02  0.50102889405E+02 -0.48643516602E+02  0.19750880383E+03  0.17200000000E+03 0. -1.
</event>
<event>
 4    1  0.4405880E+000  0.2257014E+03  0.7818608E-02  0.1129702E+00
         21   -1    0    0  501  502  0.00000000000E+00  0.00000000000E+00  0.14828897773E+04  0.14828897773E+04  0.00000000000E+00 0.  1.
         21   -1    0    0  502  503 -0.00000000000E+00 -0.00000000000E+00 -0.31960711548E+03  0.31960711548E+03  0.00000000000E+00 0.  1.
          6    1    1    2  501    0 -0.11883054675E+03 -0.85067123167E+02  0.14330784425E+04  0.14507428913E+04  0.17200000000E+03 0.  1.
         -6    1    1    2    0  503  0.11883054675E+03  0.85067123167E+02 -0.26979578068E+03  0.35175400148E+03  0.17200000000E+03 0.  1.
</event>
<event>
 4    1  0.4405880E+000  0.1794378E+03  0.7818608E-02  0.1168348E+00
         21   -1    0    0  501  502  0.00000000000E+00  0.00000000000E+00  0.21597339639E+03  0.21597339639E+03  0.00000000000E+00 0. -1.
         21   -1    0    0  502  503 -0.00000000000E+00 -0.00000000000E+00 -0.15098875707E+03  0.15098875707E+03  0.00000000000E+00 0. -1.
          6    1    1    2  501    0 -0.21544429212E+02 -0.46365475190E+02  0.53106922507E+02  0.18713167807E+03  0.17200000000E+03 0. -1.
         -6    1    1    2    0  503  0.21544429212E+02  0.46365475190E+02  0.11877716810E+02  0.17983047538E+03  0.17200000000E+03 0. -1.
</event>
<event>
 4    1  0.4405880E+000  0.1966015E+03  0.7818608E-02  0.1152638E+00
         21   -1    0    0  501  502  0.00000000000E+00  0.00000000000E+00  0.45069209080E+03  0.45069209080E+03  0.00000000000E+00 0.  1.
         21   -1    0    0  502  503 -0.00000000000E+00 -0.00000000000E+00 -0.85809012364E+02  0.85809012364E+02  0.00000000000E+00 0.  1.
          6    1    1    2  501    0 -0.22872922607E+02  0.92439066955E+02  0.17614738517E+03  0.26396979560E+03  0.17200000000E+03 0.  1.
         -6    1    1    2    0  503  0.22872922607E+02 -0.92439066955E+02  0.18873569326E+03  0.27253130756E+03  0.17200000000E+03 0.  1.
</event>
<event>
 4    1  0.4405880E+000  0.1742241E+03  0.7818608E-02  0.1173513E+00
         21   -1    0    0  501  502  0.00000000000E+00  0.00000000000E+00  0.10160513250E+03  0.10160513250E+03  0.00000000000E+00 0. -1.
         21   -1    0    0  502  503 -0.00000000000E+00 -0.00000000000E+00 -0.35394086324E+03  0.35394086324E+03  0.00000000000E+00 0. -1.
          6    1    1    2  501    0  0.53919478784E+01  0.27220928222E+02 -0.36220361646E+02  0.17794933726E+03  0.17200000000E+03 0. -1.
         -6    1    1    2    0  503 -0.53919478784E+01 -0.27220928222E+02 -0.21611536910E+03  0.27759665847E+03  0.17200000000E+03 0. -1.
</event>
<event>
 4    1  0.4405880E+000  0.1780985E+03  0.7818608E-02  0.1169656E+00
         21   -1    0    0  503  502  0.00000000000E+00  0.00000000000E+00  0.93014752845E+02  0.93014752845E+02  0.00000000000E+00 0. -1.
         21   -1    0    0  501  503 -0.00000000000E+00 -0.00000000000E+00 -0.34844674688E+03  0.34844674688E+03  0.00000000000E+00 0. -1.
          6    1    1    2  501    0  0.18152116237E+00  0.46206409035E+02 -0.15996032881E+03  0.23938749336E+03  0.17200000000E+03 0. -1.
         -6    1    1    2    0  502 -0.18152116237E+00 -0.46206409035E+02 -0.95471665223E+02  0.20207400636E+03  0.17200000000E+03 0. -1.
</event>
<event>
 4    1  0.4405880E+000  0.2461669E+03  0.7818608E-02  0.1115751E+00
         21   -1    0    0  503  502  0.00000000000E+00  0.00000000000E+00  0.16543316870E+03  0.16543316870E+03  0.00000000000E+00 0.  1.
         21   -1    0    0  501  503 -0.00000000000E+00 -0.00000000000E+00 -0.71658146880E+03  0.71658146880E+03  0.00000000000E+00 0. -1.
          6    1    1    2  501    0 -0.10450361675E+03  0.14175026816E+03 -0.58390834112E+03  0.63367743787E+03  0.17200000000E+03 0. -1.
         -6    1    1    2    0  502  0.10450361675E+03 -0.14175026816E+03  0.32760041018E+02  0.24833719964E+03  0.17200000000E+03 0.  1.
</event>
<event>
 4    1  0.4405880E+000  0.2099478E+03  0.7818608E-02  0.1141607E+00
         21   -1    0    0  501  502  0.00000000000E+00  0.00000000000E+00  0.18241817716E+03  0.18241817716E+03  0.00000000000E+00 0. -1.
         21   -1    0    0  502  503 -0.00000000000E+00 -0.00000000000E+00 -0.24187456571E+03  0.24187456571E+03  0.00000000000E+00 0. -1.
          6    1    1    2  501    0  0.11624838277E+03  0.31311437754E+02 -0.36444634141E+02  0.21308755006E+03  0.17200000000E+03 0. -1.
         -6    1    1    2    0  503 -0.11624838277E+03 -0.31311437754E+02 -0.23011754411E+02  0.21120519282E+03  0.17200000000E+03 0. -1.
</event>
<event>
 4    1  0.4405880E+000  0.2719845E+03  0.7818608E-02  0.1100149E+00
         21   -1    0    0  503  502  0.00000000000E+00  0.00000000000E+00  0.25985217831E+03  0.25985217831E+03  0.00000000000E+00 0. -1.
         21   -1    0    0  501  503 -0.00000000000E+00 -0.00000000000E+00 -0.28898887547E+03  0.28898887547E+03  0.00000000000E+00 0.  1.
          6    1    1    2  501    0 -0.20312196318E+03  0.55973350837E+02 -0.48064661971E+02  0.27619876839E+03  0.17200000000E+03 0. -1.
         -6    1    1    2    0  502  0.20312196318E+03 -0.55973350837E+02  0.18927964804E+02  0.27264228539E+03  0.17200000000E+03 0.  1.
</event>
<event>
 4    1  0.4405880E+000  0.4408491E+03  0.7818608E-02  0.1030487E+00
         21   -1    0    0  501  502  0.00000000000E+00  0.00000000000E+00  0.19992238883E+04  0.19992238883E+04  0.00000000000E+00 0.  1.
         21   -1    0    0  502  503 -0.00000000000E+00 -0.00000000000E+00 -0.78206203392E+03  0.78206203392E+03  0.00000000000E+00 0. -1.
          6    1    1    2  501    0  0.24728097631E+03 -0.32189443159E+03  0.19099272333E+04  0.19601453882E+04  0.17200000000E+03 0.  1.
         -6    1    1    2    0  503 -0.24728097631E+03  0.32189443159E+03 -0.69276537894E+03  0.82114053401E+03  0.17200000000E+03 0. -1.
</event>
<event>
 4    1  0.4405880E+000  0.2189504E+03  0.7818608E-02  0.1134668E+00
         21   -1    0    0  503  502  0.00000000000E+00  0.00000000000E+00  0.87930842620E+03  0.87930842620E+03  0.00000000000E+00 0.  1.
         21   -1    0    0  501  503 -0.00000000000E+00 -0.00000000000E+00 -0.83568189453E+02  0.83568189453E+02  0.00000000000E+00 0. -1.
          6    1    1    2  501    0 -0.30018638793E+02 -0.13211418445E+03  0.11402270312E+03  0.24686120237E+03  0.17200000000E+03 0. -1.
         -6    1    1    2    0  502  0.30018638793E+02  0.13211418445E+03  0.68171753362E+03  0.71601541328E+03  0.17200000000E+03 0.  1.
</event>
<event>
 4    1  0.4405880E+000  0.2094769E+03  0.7818608E-02  0.1141981E+00
         21   -1    0    0  503  502  0.00000000000E+00  0.00000000000E+00  0.76868689228E+02  0.76868689228E+02  0.00000000000E+00 0. -1.
         21   -1    0    0  501  503 -0.00000000000E+00 -0.00000000000E+00 -0.90683481339E+03  0.90683481339E+03  0.00000000000E+00 0. -1.
          6    1    1    2  501    0 -0.11983640703E+02  0.11896623894E+03 -0.71436752690E+03  0.74444713522E+03  0.17200000000E+03 0. -1.
         -6    1    1    2    0  502  0.11983640703E+02 -0.11896623894E+03 -0.11559859727E+03  0.23925636740E+03  0.17200000000E+03 0. -1.
</event>
<event>
 4    1  0.4405880E+000  0.1810828E+03  0.7818608E-02  0.1166759E+00
         21   -1    0    0  501  502  0.00000000000E+00  0.00000000000E+00  0.11816728828E+03  0.11816728828E+03  0.00000000000E+00 0.  1.
         21   -1    0    0  502  503 -0.00000000000E+00 -0.00000000000E+00 -0.31585532560E+03  0.31585532560E+03  0.00000000000E+00 0.  1.
          6    1    1    2  501    0 -0.22239835469E+02  0.52080495153E+02 -0.17447015290E+03  0.25145739701E+03  0.17200000000E+03 0.  1.
         -6    1    1    2    0  503  0.22239835469E+02 -0.52080495153E+02 -0.23217884418E+02  0.18256521688E+03  0.17200000000E+03 0.  1.
</event>
<event>
 4    1  0.4405880E+000  0.1941841E+03  0.7818608E-02  0.1154741E+00
         21   -1    0    0  503  502  0.00000000000E+00  0.00000000000E+00  0.22164096005E+03  0.22164096005E+03  0.00000000000E+00 0.  1.
         21   -1    0    0  501  503 -0.00000000000E+00 -0.00000000000E+00 -0.19147880716E+03  0.19147880716E+03  0.00000000000E+00 0.  1.
          6    1    1    2  501    0  0.20099869621E+02 -0.87860419956E+02 -0.53893182166E+02  0.20152402645E+03  0.17200000000E+03 0.  1.
         -6    1    1    2    0  502 -0.20099869621E+02  0.87860419956E+02  0.84055335061E+02  0.21159574076E+03  0.17200000000E+03 0.  1.
</event>
<event>
 4    1  0.4405880E+000  0.1885583E+03  0.7818608E-02  0.1159768E+00
         21   -1    0    0  501  502  0.00000000000E+00  0.00000000000E+00  0.27345526693E+03  0.27345526693E+03  0.00000000000E+00 0. -1.
         21   -1    0    0  502  503 -0.00000000000E+00 -0.00000000000E+00 -0.16370064600E+03  0.16370064600E+03  0.00000000000E+00 0. -1.
          6    1    1    2  501    0  0.44252076413E+02  0.63340190119E+02  0.15402473978E+03  0.24347042206E+03  0.17200000000E+03 0. -1.
         -6    1    1    2    0  503 -0.44252076413E+02 -0.63340190119E+02 -0.44270118854E+02  0.19368549087E+03  0.17200000000E+03 0. -1.
</event>
<event>
 4    1  0.4405880E+000  0.1896386E+03  0.7818608E-02  0.1158788E+00
         21   -1    0    0  503  502  0.00000000000E+00  0.00000000000E+00  0.54879655764E+03  0.54879655764E+03  0.00000000000E+00 0. -1.
         21   -1    0    0  501  503 -0.00000000000E+00 -0.00000000000E+00 -0.74325664929E+02  0.74325664929E+02  0.00000000000E+00 0.  1.
          6    1    1    2  501    0 -0.79403205953E+02  0.85972833423E+01  0.13005841982E+03  0.22995211450E+03  0.17200000000E+03 0.  1.
         -6    1    1    2    0  502  0.79403205953E+02 -0.85972833423E+01  0.34441247290E+03  0.39317010807E+03  0.17200000000E+03 0. -1.
</event>
<event>
 4    1  0.4405880E+000  0.1892441E+03  0.7818608E-02  0.1159145E+00
         21   -1    0    0  501  502  0.00000000000E+00  0.00000000000E+00  0.28694586556E+03  0.28694586556E+03  0.00000000000E+00 0. -1.
         21   -1    0    0  502  503 -0.00000000000E+00 -0.00000000000E+00 -0.12480886538E+03  0.12480886538E+03  0.00000000000E+00 0. -1.
          6    1    1    2  501    0 -0.78654474244E+02 -0.65415021464E+01  0.80779975100E+02  0.20576375275E+03  0.17200000000E+03 0. -1.
         -6    1    1    2    0  503  0.78654474244E+02  0.65415021464E+01  0.81357025078E+02  0.20599097820E+03  0.17200000000E+03 0. -1.
</event>
<event>
 4    1  0.4405880E+000  0.2425649E+03  0.7818608E-02  0.1118096E+00
         21   -1    0    0  501  502  0.00000000000E+00  0.00000000000E+00  0.37159420157E+03  0.37159420157E+03  0.00000000000E+00 0. -1.
         21   -1    0    0  502  503 -0.00000000000E+00 -0.00000000000E+00 -0.20028478673E+03  0.20028478673E+03  0.00000000000E+00 0.  1.
          6    1    1    2  501    0 -0.14501165042E+03  0.90693625800E+02 -0.45202097031E+02  0.24674063730E+03  0.17200000000E+03 0.  1.
         -6    1    1    2    0  503  0.14501165042E+03 -0.90693625800E+02  0.21651151188E+03  0.32513835100E+03  0.17200000000E+03 0. -1.
</event>
<event>
 4    1  0.4405880E+000  0.1764064E+03  0.7818608E-02  0.1171327E+00
         21   -1    0    0  501  502  0.00000000000E+00  0.00000000000E+00  0.20792890776E+03  0.20792890776E+03  0.00000000000E+00 0.  1.
         21   -1    0    0  502  503 -0.00000000000E+00 -0.00000000000E+00 -0.39478512020E+03  0.39478512020E+03  0.00000000000E+00 0.  1.
          6    1    1    2  501    0 -0.33676483652E+02  0.20027549495E+02  0.14403295611E+03  0.22773822853E+03  0.17200000000E+03 0.  1.
         -6    1    1    2    0  503  0.33676483652E+02 -0.20027549495E+02 -0.33088916855E+03  0.37497579942E+03  0.17200000000E+03 0.  1.
</event>
<event>
 4    1  0.4405880E+000  0.1884336E+03  0.7818608E-02  0.1159882E+00
         21   -1    0    0  501  502  0.00000000000E+00  0.00000000000E+00  0.13582303757E+03  0.13582303757E+03  0.00000000000E+00 0. -1.
         21   -1    0    0  502  503 -0.00000000000E+00 -0.00000000000E+00 -0.33125415563E+03  0.33125415563E+03  0.00000000000E+00 0. -1.
          6    1    1    2  501    0 -0.30861002221E+02 -0.70503986225E+02  0.95113564555E+01  0.18867347305E+03  0.17200000000E+03 0. -1.
         -6    1    1    2    0  503  0.30861002221E+02  0.70503986225E+02 -0.20494247452E+03  0.27840372015E+03  0.17200000000E+03 0. -1.
</event>
<event>
 4    1  0.4405880E+000  0.1987849E+03  0.7818608E-02  0.1150768E+00
         21   -1    0    0  501  502  0.00000000000E+00  0.00000000000E+00  0.13683557517E+03  0.13683557517E+03  0.00000000000E+00 0.  1.
         21   -1    0    0  502  503 -0.00000000000E+00 -0.00000000000E+00 -0.35491994940E+03  0.35491994940E+03  0.00000000000E+00 0.  1.
          6    1    1    2  501    0 -0.24104657787E+02  0.96697432456E+02 -0.29007991868E+01  0.19880604268E+03  0.17200000000E+03 0.  1.
         -6    1    1    2    0  503  0.24104657787E+02 -0.96697432456E+02 -0.21518357505E+03  0.29294948189E+03  0.17200000000E+03 0.  1.
</event>
<event>
 4    1  0.4405880E+000  0.1777280E+03  0.7818608E-02  0.1170020E+00
         21   -1    0    0  501  502  0.00000000000E+00  0.00000000000E+00  0.12302881880E+03  0.12302881880E+03  0.00000000000E+00 0. -1.
         21   -1    0    0  502  503 -0.00000000000E+00 -0.00000000000E+00 -0.25676573830E+03  0.25676573830E+03  0.00000000000E+00 0. -1.
          6    1    1    2  501    0  0.41013977909E+02 -0.17919511218E+02 -0.68499428413E+02  0.19047159095E+03  0.17200000000E+03 0. -1.
         -6    1    1    2    0  503 -0.41013977909E+02  0.17919511218E+02 -0.65237491090E+02  0.18932296615E+03  0.17200000000E+03 0. -1.
</event>
<event>
 4    1  0.4405880E+000  0.1734949E+03  0.7818608E-02  0.1174251E+00
         21   -1    0    0  503  502  0.00000000000E+00  0.00000000000E+00  0.45448113595E+03  0.45448113595E+03  0.00000000000E+00 0. -1.
         21   -1    0    0  501  503 -0.00000000000E+00 -0.00000000000E+00 -0.16502252964E+03  0.16502252964E+03  0.00000000000E+00 0. -1.
          6    1    1    2  501    0  0.51996630353E+01  0.22123608935E+02 -0.94934985512E+02  0.19777042762E+03  0.17200000000E+03 0. -1.
         -6    1    1    2    0  502 -0.51996630353E+01 -0.22123608935E+02  0.38439359183E+03  0.42173323796E+03  0.17200000000E+03 0. -1.
</event>
<event>
 4    1  0.4405880E+000  0.2185333E+03  0.7818608E-02  0.1134981E+00
         21   -1    0    0  503  502  0.00000000000E+00  0.00000000000E+00  0.10389558460E+03  0.10389558460E+03  0.00000000000E+00 0. -1.
         21   -1    0    0  501  503 -0.00000000000E+00 -0.00000000000E+00 -0.46098094829E+03  0.46098094829E+03  0.00000000000E+00 0.  1.
          6    1    1    2  501    0 -0.19624892038E+02  0.13337041060E+03 -0.19365302054E+03  0.29199023130E+03  0.17200000000E+03 0.  1.
         -6    1    1    2    0  502  0.19624892038E+02 -0.13337041060E+03 -0.16343234314E+03  0.27288630159E+03  0.17200000000E+03 0. -1.
</event>
<event>
 4    1  0.4405880E+000  0.2300113E+03  0.7818608E-02  0.1126632E+00
         21   -1    0    0  503  502  0.00000000000E+00  0.00000000000E+00  0.24720434972E+03  0.24720434972E+03  0.00000000000E+00 0.  1.
         21   -1    0    0  501  503 -0.00000000000E+00 -0.00000000000E+00 -0.24973998524E+03  0.24973998524E+03  0.00000000000E+00 0.  1.
          6    1    1    2  501    0  0.14229846217E+03 -0.55428832986E+02 -0.95245648786E+02  0.24895168502E+03  0.17200000000E+03 0.  1.
         -6    1    1    2    0  502 -0.14229846217E+03  0.55428832986E+02  0.92710013274E+02  0.24799264994E+03  0.17200000000E+03 0.  1.
</event>
<event>
 4    1  0.4405880E+000  0.1938099E+03  0.7818608E-02  0.1155069E+00
         21   -1    0    0  503  502  0.00000000000E+00  0.00000000000E+00  0.22475723765E+02  0.22475723765E+02  0.00000000000E+00 0.  1.
         21   -1    0    0  501  503 -0.00000000000E+00 -0.00000000000E+00 -0.18959417479E+04  0.18959417479E+04  0.00000000000E+00 0.  1.
          6    1    1    2  501    0 -0.64355342734E+02 -0.61940703034E+02 -0.12669555942E+04  0.12816936992E+04  0.17200000000E+03 0.  1.
         -6    1    1    2    0  502  0.64355342734E+02  0.61940703034E+02 -0.60651042989E+03  0.63672377245E+03  0.17200000000E+03 0.  1.
</event>
<event>
 4    1  0.4405880E+000  0.1821125E+03  0.7818608E-02  0.1165774E+00
         21   -1    0    0  501  502  0.00000000000E+00  0.00000000000E+00  0.37572563941E+02  0.37572563941E+02  0.00000000000E+00 0. -1.
         21   -1    0    0  502  503 -0.00000000000E+00 -0.00000000000E+00 -0.89852786233E+03  0.89852786233E+03  0.00000000000E+00 0. -1.
          6    1    1    2  501    0  0.20214383039E+02  0.56323486865E+02 -0.36833868476E+03  0.41089943191E+03  0.17200000000E+03 0. -1.
         -6    1    1    2    0  503 -0.20214383039E+02 -0.56323486865E+02 -0.49261661363E+03  0.52520099436E+03  0.17200000000E+03 0. -1.
</event>
<event>
 4    1  0.4405880E+000  0.1909811E+03  0.7818608E-02  0.1157579E+00
         21   -1    0    0  503  502  0.00000000000E+00  0.00000000000E+00  0.99025108255E+02  0.99025108255E+02  0.00000000000E+00 0.  1.
         21   -1    0    0  501  503 -0.00000000000E+00 -0.00000000000E+00 -0.37212215310E+03  0.37212215310E+03  0.00000000000E+00 0. -1.
          6    1    1    2  501    0 -0.82674946255E+02 -0.73909850083E+01 -0.16033392558E+03  0.24936066468E+03  0.17200000000E+03 0. -1.
         -6    1    1    2    0  502  0.82674946255E+02  0.73909850083E+01 -0.11276311926E+03  0.22178659667E+03  0.17200000000E+03 0.  1.
</event>
<event>
 4    1  0.4405880E+000  0.1947885E+03  0.7818608E-02  0.1154212E+00
         21   -1    0    0  503  502  0.00000000000E+00  0.00000000000E+00  0.79051409560E+03  0.79051409560E+03  0.00000000000E+00 0. -1.
         21   -1    0    0  501  503 -0.00000000000E+00 -0.00000000000E+00 -0.51168789798E+02  0.51168789798E+02  0.00000000000E+00 0. -1.
          6    1    1    2  501    0  0.65056871157E+02  0.64235314887E+02  0.26490071131E+03  0.32880839255E+03  0.17200000000E+03 0. -1.
         -6    1    1    2    0  502 -0.65056871157E+02 -0.64235314887E+02  0.47444459449E+03  0.51287449284E+03  0.17200000000E+03 0. -1.
</event>
<event>
 4    1  0.4405880E+000  0.1748046E+03  0.7818608E-02  0.1172928E+00
         21   -1    0    0  501  502  0.00000000000E+00  0.00000000000E+00  0.33588568681E+03  0.33588568681E+03  0.00000000000E+00 0. -1.
         21   -1    0    0  502  503 -0.00000000000E+00 -0.00000000000E+00 -0.91074077883E+02  0.91074077883E+02  0.00000000000E+00 0. -1.
          6    1    1    2  501    0  0.11003953265E+02  0.29181658422E+02  0.12950436089E+03  0.21755007622E+03  0.17200000000E+03 0.  1.
         -6    1    1    2    0  503 -0.11003953265E+02 -0.29181658422E+02  0.11530724804E+03  0.20940968847E+03  0.17200000000E+03 0.  1.
</event>
<event>
 4    1  0.4405880E+000  0.1894133E+03  0.7818608E-02  0.1158992E+00
         21   -1    0    0  501  502  0.00000000000E+00  0.00000000000E+00  0.43772637992E+02  0.43772637992E+02  0.00000000000E+00 0. -1.
         21   -1    0    0  502  503 -0.00000000000E+00 -0.00000000000E+00 -0.82304150624E+03  0.82304150624E+03  0.00000000000E+00 0.  1.
          6    1    1    2  501    0  0.20513729804E+02  0.76632862980E+02 -0.36173484394E+03  0.40832524551E+03  0.17200000000E+03 0. -1.
         -6    1    1    2    0  503 -0.20513729804E+02 -0.76632862980E+02 -0.41753402431E+03  0.45848889872E+03  0.17200000000E+03 0.  1.
</event>
<event>
 4    1  0.4405880E+000  0.1816222E+03  0.7818608E-02  0.1166242E+00
         21   -1    0    0  503  502  0.00000000000E+00  0.00000000000E+00  0.79167493041E+02  0.79167493041E+02  0.00000000000E+00 0. -1.
         21   -1    0    0  501  503 -0.00000000000E+00 -0.00000000000E+00 -0.42895694784E+03  0.42895694784E+03  0.00000000000E+00 0. -1.
          6    1    1    2  501    0  0.56803510673E+02  0.13265970942E+02 -0.21789550821E+03  0.28366366934E+03  0.17200000000E+03 0. -1.
         -6    1    1    2    0  502 -0.56803510673E+02 -0.13265970942E+02 -0.13189394659E+03  0.22446077153E+03  0.17200000000E+03 0. -1.
</event>
<event>
 4    1  0.4405880E+000  0.2352583E+03  0.7818608E-02  0.1122993E+00
         21   -1    0    0  501  502  0.00000000000E+00  0.00000000000E+00  0.31814849430E+03  0.31814849430E+03  0.00000000000E+00 0. -1.
         21   -1    0    0  502  503 -0.00000000000E+00 -0.00000000000E+00 -0.20169225329E+03  0.20169225329E+03  0.00000000000E+00 0. -1.
          6    1    1    2  501    0  0.14656186850E+03 -0.65437686595E+02  0.15460099601E+03  0.28151010656E+03  0.17200000000E+03 0. -1.
         -6    1    1    2    0  503 -0.14656186850E+03  0.65437686595E+02 -0.38144755004E+02  0.23833064104E+03  0.17200000000E+03 0. -1.
</event>
<event>
 4    1  0.4405880E+000  0.1741373E+03  0.7818608E-02  0.1173601E+00
         21   -1    0    0  503  502  0.00000000000E+00  0.00000000000E+00  0.40802628574E+02  0.40802628574E+02  0.00000000000E+00 0.  1.
         21   -1    0    0  501  503 -0.00000000000E+00 -0.00000000000E+00 -0.12630972854E+04  0.12630972854E+04  0.00000000000E+00 0. -1.
          6    1    1    2  501    0 -0.14745824488E+02  0.22855236265E+02 -0.10294223471E+04  0.10440470151E+04  0.17200000000E+03 0. -1.
         -6    1    1    2    0  502  0.14745824488E+02 -0.22855236265E+02 -0.19287230975E+03  0.25985289884E+03  0.17200000000E+03 0.  1.
</event>
<event>
 4    1  0.4405880E+000  0.1785202E+03  0.7818608E-02  0.1169243E+00
         21   -1    0    0  501  502  0.00000000000E+00  0.00000000000E+00  0.48091327779E+02  0.48091327779E+02  0.00000000000E+00 0.  1.
         21   -1    0    0  502  503 -0.00000000000E+00 -0.00000000000E+00 -0.11336085829E+04  0.11336085829E+04  0.00000000000E+00 0.  1.
          6    1    1    2  501    0  0.68859256732E+01  0.47307891113E+02 -0.16193807814E+03  0.24102571167E+03  0.17200000000E+03 0.  1.
         -6    1    1    2    0  503 -0.68859256732E+01 -0.47307891113E+02 -0.92357917702E+03  0.94067419905E+03  0.17200000000E+03 0.  1.
</event>
<event>
 4    1  0.4405880E+000  0.1839424E+03  0.7818608E-02  0.1164041E+00
         21   -1    0    0  501  502  0.00000000000E+00  0.00000000000E+00  0.11990538639E+03  0.11990538639E+03  0.00000000000E+00 0. -1.
         21   -1    0    0  502  503 -0.00000000000E+00 -0.00000000000E+00 -0.29473692494E+03  0.29473692494E+03  0.00000000000E+00 0. -1.
          6    1    1    2  501    0  0.44265639905E+02  0.47868016530E+02 -0.13020983788E+03  0.22536502782E+03  0.17200000000E+03 0.  1.
         -6    1    1    2    0  503 -0.44265639905E+02 -0.47868016530E+02 -0.44621700668E+02  0.18927728351E+03  0.17200000000E+03 0.  1.
</event>
<event>
 4    1  0.4405880E+000  0.1921257E+03  0.7818608E-02  0.1156558E+00
         21   -1    0    0  503  502  0.00000000000E+00  0.00000000000E+00  0.70997361831E+03  0.70997361831E+03  0.00000000000E+00 0.  1.
         21   -1    0    0  501  503 -0.00000000000E+00 -0.00000000000E+00 -0.54657478558E+02  0.54657478558E+02  0.00000000000E+00 0.  1.
          6    1    1    2  501    0 -0.61495820743E+02 -0.59552929029E+02  0.24321566389E+03  0.30994539275E+03  0.17200000000E+03 0.  1.
         -6    1    1    2    0  502  0.61495820743E+02  0.59552929029E+02  0.41210047586E+03  0.45468570412E+03  0.17200000000E+03 0.  1.
</event>
<event>
 4    1  0.4405880E+000  0.1843053E+03  0.7818608E-02  0.1163700E+00
         21   -1    0    0  503  502  0.00000000000E+00  0.00000000000E+00  0.10928030029E+03  0.10928030029E+03  0.00000000000E+00 0. -1.
         21   -1    0    0  501  503 -0.00000000000E+00 -0.00000000000E+00 -0.36085754647E+03  0.36085754647E+03  0.00000000000E+00 0. -1.
          6    1    1    2  501    0 -0.43491026117E+02  0.49929612474E+02 -0.21330686096E+03  0.28190113956E+03  0.17200000000E+03 0. -1.
         -6    1    1    2    0  502  0.43491026117E+02 -0.49929612474E+02 -0.38270385221E+02  0.18823670721E+03  0.17200000000E+03 0. -1.
</event>
<event>
 4    1  0.4405880E+000  0.2509332E+03  0.7818608E-02  0.1112716E+00
         21   -1    0    0  501  502  0.00000000000E+00  0.00000000000E+00  0.90021186851E+03  0.90021186851E+03  0.00000000000E+00 0.  1.
         21   -1    0    0  502  503 -0.00000000000E+00 -0.00000000000E+00 -0.16425361180E+03  0.16425361180E+03  0.00000000000E+00 0. -1.
          6    1    1    2  501    0  0.17108811203E+03 -0.64127427233E+02  0.77126619987E+03  0.81106042935E+03  0.17200000000E+03 0.  1.
         -6    1    1    2    0  503 -0.17108811203E+03  0.64127427233E+02 -0.35307943159E+02  0.25340505096E+03  0.17200000000E+03 0. -1.
</event>
<event>
 4    1  0.4405880E+000  0.1764051E+03  0.7818608E-02  0.1171328E+00
         21   -1    0    0  503  502  0.00000000000E+00  0.00000000000E+00  0.81083470349E+03  0.81083470349E+03  0.00000000000E+00 0.  1.
         21   -1    0    0  501  503 -0.00000000000E+00 -0.00000000000E+00 -0.16715854796E+03  0.16715854796E+03  0.00000000000E+00 0.  1.
          6    1    1    2  501    0  0.25373845905E+02  0.29848178532E+02 -0.10736773623E+03  0.20651047577E+03  0.17200000000E+03 0.  1.
         -6    1    1    2    0  502 -0.25373845905E+02 -0.29848178532E+02  0.75104389177E+03  0.77148277569E+03  0.17200000000E+03 0.  1.
</event>
<event>
 4    1  0.4405880E+000  0.2079657E+03  0.7818608E-02  0.1143187E+00
         21   -1    0    0  501  502  0.00000000000E+00  0.00000000000E+00  0.21502333060E+03  0.21502333060E+03  0.00000000000E+00 0.  1.
         21   -1    0    0  502  503 -0.00000000000E+00 -0.00000000000E+00 -0.22757797112E+03  0.22757797112E+03  0.00000000000E+00 0.  1.
          6    1    1    2  501    0 -0.10825865638E+03 -0.44110966070E+02  0.69151036931E+02  0.21916108212E+03  0.17200000000E+03 0.  1.
         -6    1    1    2    0  503  0.10825865638E+03  0.44110966070E+02 -0.81705677454E+02  0.22344021960E+03  0.17200000000E+03 0.  1.
</event>
<event>
 4    1  0.4405880E+000  0.2811737E+03  0.7818608E-02  0.1095050E+00
         21   -1    0    0  503  502  0.00000000000E+00  0.00000000000E+00  0.35139810101E+03  0.35139810101E+03  0.00000000000E+00 0. -1.
         21   -1    0    0  501  503 -0.00000000000E+00 -0.00000000000E+00 -0.22705139756E+03  0.22705139756E+03  0.00000000000E+00 0. -1.
          6    1    1    2  501    0 -0.13402141734E+03  0.17751870623E+03  0.34568800563E+02  0.28329072229E+03  0.17200000000E+03 0. -1.
         -6    1    1    2    0  502  0.13402141734E+03 -0.17751870623E+03  0.89777902889E+02  0.29515877627E+03  0.17200000000E+03 0. -1.
</event>
<event>
 4    1  0.4405880E+000  0.2095647E+03  0.7818608E-02  0.1141911E+00
         21   -1    0    0  501  502  0.00000000000E+00  0.00000000000E+00  0.57472836995E+02  0.57472836995E+02  0.00000000000E+00 0. -1.
         21   -1    0    0  502  503 -0.00000000000E+00 -0.00000000000E+00 -0.13250833454E+04  0.13250833454E+04  0.00000000000E+00 0. -1.
          6    1    1    2  501    0 -0.95134683038E+02 -0.72682656086E+02 -0.18403561290E+03  0.27890228258E+03  0.17200000000E+03 0. -1.
         -6    1    1    2    0  503  0.95134683038E+02  0.72682656086E+02 -0.10835748955E+04  0.11036538998E+04  0.17200000000E+03 0. -1.
</event>
<event>
 4    1  0.4405880E+000  0.3114138E+03  0.7818608E-02  0.1079670E+00
         21   -1    0    0  501  502  0.00000000000E+00  0.00000000000E+00  0.37724876431E+03  0.37724876431E+03  0.00000000000E+00 0.  1.
         21   -1    0    0  502  503 -0.00000000000E+00 -0.00000000000E+00 -0.25873264692E+03  0.25873264692E+03  0.00000000000E+00 0.  1.
          6    1    1    2  501    0 -0.25436533558E+03  0.51892526420E+02  0.33751066683E+02  0.31323743829E+03  0.17200000000E+03 0.  1.
         -6    1    1    2    0  503  0.25436533558E+03 -0.51892526420E+02  0.84765050705E+02  0.32274397293E+03  0.17200000000E+03 0.  1.
</event>
<event>
 4    1  0.4405880E+000  0.1925271E+03  0.7818608E-02  0.1156202E+00
         21   -1    0    0  501  502  0.00000000000E+00  0.00000000000E+00  0.14549854479E+04  0.14549854479E+04  0.00000000000E+00 0. -1.
         21   -1    0    0  502  503 -0.00000000000E+00 -0.00000000000E+00 -0.34889387463E+02  0.34889387463E+02  0.00000000000E+00 0.  1.
          6    1    1    2  501    0 -0.15433542644E+02 -0.85114679251E+02  0.32309868788E+03  0.37611097428E+03  0.17200000000E+03 0.  1.
         -6    1    1    2    0  503  0.15433542644E+02  0.85114679251E+02  0.10969973725E+04  0.11137638611E+04  0.17200000000E+03 0. -1.
</event>
<event>
 4    1  0.4405880E+000  0.2450235E+03  0.7818608E-02  0.1116491E+00
         21   -1    0    0  501  502  0.00000000000E+00  0.00000000000E+00  0.93827882997E+03  0.93827882997E+03  0.00000000000E+00 0. -1.
         21   -1    0    0  502  503 -0.00000000000E+00 -0.00000000000E+00 -0.13579475027E+03  0.13579475027E+03  0.00000000000E+00 0. -1.
          6    1    1    2  501    0 -0.13914792055E+03 -0.10531085273E+03  0.79176973989E+03  0.82881592679E+03  0.17200000000E+03 0. -1.
         -6    1    1    2    0  503  0.13914792055E+03  0.10531085273E+03  0.10714339803E+02  0.24525765344E+03  0.17200000000E+03 0. -1.
</event>
<event>
 4    1  0.4405880E+000  0.1759143E+03  0.7818608E-02  0.1171817E+00
         21   -1    0    0  501  502  0.00000000000E+00  0.00000000000E+00  0.43806124445E+03  0.43806124445E+03  0.00000000000E+00 0.  1.
         21   -1    0    0  502  503 -0.00000000000E+00 -0.00000000000E+00 -0.11025645342E+03  0.11025645342E+03  0.00000000000E+00 0.  1.
          6    1    1    2  501    0 -0.77348276180E+01 -0.36083296874E+02  0.32823480412E+03  0.37240289809E+03  0.17200000000E+03 0.  1.
         -6    1    1    2    0  503  0.77348276180E+01  0.36083296874E+02 -0.43001309233E+00  0.17591479978E+03  0.17200000000E+03 0.  1.
</event>
<event>
 4    1  0.4405880E+000  0.2740019E+03  0.7818608E-02  0.1099011E+00
         21   -1    0    0  503  502  0.00000000000E+00  0.00000000000E+00  0.26760863168E+03  0.26760863168E+03  0.00000000000E+00 0. -1.
         21   -1    0    0  501  503 -0.00000000000E+00 -0.00000000000E+00 -0.28229369290E+03  0.28229369290E+03  0.00000000000E+00 0. -1.
          6    1    1    2  501    0 -0.21317292416E+03 -0.70956003984E+01 -0.28964721978E+02  0.27552857975E+03  0.17200000000E+03 0. -1.
         -6    1    1    2    0  502  0.21317292416E+03  0.70956003984E+01  0.14279660762E+02  0.27437374483E+03  0.17200000000E+03 0. -1.
</event>
<event>
 4    1  0.4405880E+000  0.3446353E+03  0.7818608E-02  0.1064839E+00
         21   -1    0    0  503  502  0.00000000000E+00  0.00000000000E+00  0.21022600666E+03  0.21022600666E+03  0.00000000000E+00 0.  1.
         21   -1    0    0  501  503 -0.00000000000E+00 -0.00000000000E+00 -0.77816853211E+03  0.77816853211E+03  0.00000000000E+00 0.  1.
          6    1    1    2  501    0  0.29588171758E+02  0.29717674895E+03 -0.54264091153E+03  0.64283173451E+03  0.17200000000E+03 0.  1.
         -6    1    1    2    0  502 -0.29588171758E+02 -0.29717674895E+03 -0.25301613912E+02  0.34556280426E+03  0.17200000000E+03 0.  1.
</event>
<event>
 4    1  0.4405880E+000  0.2552370E+03  0.7818608E-02  0.1110039E+00
         21   -1    0    0  503  502  0.00000000000E+00  0.00000000000E+00  0.34847956547E+03  0.34847956547E+03  0.00000000000E+00 0.  1.
         21   -1    0    0  501  503 -0.00000000000E+00 -0.00000000000E+00 -0.19207335964E+03  0.19207335964E+03  0.00000000000E+00 0. -1.
          6    1    1    2  501    0  0.16118474708E+03  0.97884619253E+02  0.12237394649E+03  0.28305706873E+03  0.17200000000E+03 0. -1.
         -6    1    1    2    0  502 -0.16118474708E+03 -0.97884619253E+02  0.34032259337E+02  0.25749585638E+03  0.17200000000E+03 0.  1.
</event>
<event>
 4    1  0.4405880E+000  0.1936421E+03  0.7818608E-02  0.1155217E+00
         21   -1    0    0  501  502  0.00000000000E+00  0.00000000000E+00  0.15754245563E+03  0.15754245563E+03  0.00000000000E+00 0.  1.
         21   -1    0    0  502  503 -0.00000000000E+00 -0.00000000000E+00 -0.24714913953E+03  0.24714913953E+03  0.00000000000E+00 0. -1.
          6    1    1    2  501    0  0.49026302080E+02  0.74227364167E+02 -0.83705776370E+02  0.21095956220E+03  0.17200000000E+03 0. -1.
         -6    1    1    2    0  503 -0.49026302080E+02 -0.74227364167E+02 -0.59009075329E+01  0.19373203296E+03  0.17200000000E+03 0.  1.
</event>
<event>
 4    1  0.4405880E+000  0.2753283E+03  0.7818608E-02  0.1098268E+00
         21   -1    0    0  501  502  0.00000000000E+00  0.00000000000E+00  0.56214257769E+03  0.56214257769E+03  0.00000000000E+00 0. -1.
         21   -1    0    0  502  503 -0.00000000000E+00 -0.00000000000E+00 -0.13524682665E+03  0.13524682665E+03  0.00000000000E+00 0. -1.
          6    1    1    2  501    0 -0.19958439830E+03 -0.79923431075E+02  0.19459225287E+03  0.33715253486E+03  0.17200000000E+03 0.  1.
         -6    1    1    2    0  503  0.19958439830E+03  0.79923431075E+02  0.23230349816E+03  0.36023686949E+03  0.17200000000E+03 0.  1.
</event>
<event>
 4    1  0.4405880E+000  0.2070452E+03  0.7818608E-02  0.1143927E+00
         21   -1    0    0  501  502  0.00000000000E+00  0.00000000000E+00  0.67619538079E+03  0.67619538079E+03  0.00000000000E+00 0.  1.
         21   -1    0    0  502  503 -0.00000000000E+00 -0.00000000000E+00 -0.14557701489E+03  0.14557701489E+03  0.00000000000E+00 0.  1.
          6    1    1    2  501    0 -0.51404691725E+02 -0.10315657194E+03  0.57402743857E+03  0.61022554920E+03  0.17200000000E+03 0.  1.
         -6    1    1    2    0  503  0.51404691725E+02  0.10315657194E+03 -0.43409072677E+02  0.21154684648E+03  0.17200000000E+03 0.  1.
</event>
<event>
 4    1  0.4405880E+000  0.2388046E+03  0.7818608E-02  0.1120592E+00
         21   -1    0    0  501  502  0.00000000000E+00  0.00000000000E+00  0.20993805401E+03  0.20993805401E+03  0.00000000000E+00 0. -1.
         21   -1    0    0  502  503 -0.00000000000E+00 -0.00000000000E+00 -0.38201367593E+03  0.38201367593E+03  0.00000000000E+00 0.  1.
          6    1    1    2  501    0  0.15826554978E+03 -0.48945538233E+02  0.73054384509E+02  0.24972903927E+03  0.17200000000E+03 0. -1.
         -6    1    1    2    0  503 -0.15826554978E+03  0.48945538233E+02 -0.24513000642E+03  0.34222269067E+03  0.17200000000E+03 0.  1.
</event>
<event>
 4    1  0.4405880E+000  0.2501355E+03  0.7818608E-02  0.1113219E+00
         21   -1    0    0  501  502  0.00000000000E+00  0.00000000000E+00  0.36036405539E+02  0.36036405539E+02  0.00000000000E+00 0. -1.
         21   -1    0    0  502  503 -0.00000000000E+00 -0.00000000000E+00 -0.19943874512E+04  0.19943874512E+04  0.00000000000E+00 0. -1.
          6    1    1    2  501    0  0.47162019127E+02 -0.17538388614E+03 -0.61392751604E+03  0.66292892418E+03  0.17200000000E+03 0. -1.
         -6    1    1    2    0  503 -0.47162019127E+02  0.17538388614E+03 -0.13444235297E+04  0.13674949326E+04  0.17200000000E+03 0. -1.
</event>
<event>
 4    1  0.4405880E+000  0.2059182E+03  0.7818608E-02  0.1144840E+00
         21   -1    0    0  503  502  0.00000000000E+00  0.00000000000E+00  0.89326950893E+02  0.89326950893E+02  0.00000000000E+00 0. -1.
         21   -1    0    0  501  503 -0.00000000000E+00 -0.00000000000E+00 -0.50427297808E+03  0.50427297808E+03  0.00000000000E+00 0. -1.
          6    1    1    2  501    0  0.86750143888E+02 -0.72751075901E+02 -0.13558161944E+03  0.24654549690E+03  0.17200000000E+03 0. -1.
         -6    1    1    2    0  502 -0.86750143888E+02  0.72751075901E+02 -0.27936440774E+03  0.34705443207E+03  0.17200000000E+03 0. -1.
</event>
<event>
 4    1  0.4405880E+000  0.2311851E+03  0.7818608E-02  0.1125808E+00
         21   -1    0    0  503  502  0.00000000000E+00  0.00000000000E+00  0.10002001295E+03  0.10002001295E+03  0.00000000000E+00 0. -1.
         21   -1    0    0  501  503 -0.00000000000E+00 -0.00000000000E+00 -0.81563906965E+03  0.81563906965E+03  0.00000000000E+00 0. -1.
          6    1    1    2  501    0 -0.13723202611E+03 -0.70922006519E+02 -0.62666850752E+03  0.66795207786E+03  0.17200000000E+03 0. -1.
         -6    1    1    2    0  502  0.13723202611E+03  0.70922006519E+02 -0.88950549176E+02  0.24770700474E+03  0.17200000000E+03 0. -1.
</event>
<event>
 4    1  0.4405880E+000  0.1770666E+03  0.7818608E-02  0.1170673E+00
         21   -1    0    0  501  502  0.00000000000E+00  0.00000000000E+00  0.64108517540E+03  0.64108517540E+03  0.00000000000E+00 0. -1.
         21   -1    0    0  502  503 -0.00000000000E+00 -0.00000000000E+00 -0.51077313174E+02  0.51077313174E+02  0.00000000000E+00 0. -1.
          6    1    1    2  501    0  0.41723767201E+02  0.52642415677E+01  0.36636744361E+03  0.40691238458E+03  0.17200000000E+03 0. -1.
         -6    1    1    2    0  503 -0.41723767201E+02 -0.52642415677E+01  0.22364041862E+03  0.28525010399E+03  0.17200000000E+03 0. -1.
</event>
<event>
 4    1  0.4405880E+000  0.1970229E+03  0.7818608E-02  0.1152275E+00
         21   -1    0    0  503  502  0.00000000000E+00  0.00000000000E+00  0.97950747964E+03  0.97950747964E+03  0.00000000000E+00 0.  1.
         21   -1    0    0  501  503 -0.00000000000E+00 -0.00000000000E+00 -0.59635276338E+02  0.59635276338E+02  0.00000000000E+00 0.  1.
          6    1    1    2  501    0  0.92402792848E+02  0.26377273090E+02  0.15900702139E+03  0.25318228515E+03  0.17200000000E+03 0.  1.
         -6    1    1    2    0  502 -0.92402792848E+02 -0.26377273090E+02  0.76086518191E+03  0.78596047083E+03  0.17200000000E+03 0.  1.
</event>
<event>
 4    1  0.4405880E+000  0.2021863E+03  0.7818608E-02  0.1147907E+00
         21   -1    0    0  503  502  0.00000000000E+00  0.00000000000E+00  0.83150613300E+02  0.83150613300E+02  0.00000000000E+00 0.  1.
         21   -1    0    0  501  503 -0.00000000000E+00 -0.00000000000E+00 -0.12394244121E+04  0.12394244121E+04  0.00000000000E+00 0.  1.
          6    1    1    2  501    0  0.90611709422E+02 -0.55541101375E+02 -0.10917919315E+04  0.11103553113E+04  0.17200000000E+03 0.  1.
         -6    1    1    2    0  502 -0.90611709422E+02  0.55541101375E+02 -0.64481867367E+02  0.21221971408E+03  0.17200000000E+03 0.  1.
</event>
<event>
 4    1  0.4405880E+000  0.3212232E+03  0.7818608E-02  0.1075088E+00
         21   -1    0    0  501  502  0.00000000000E+00  0.00000000000E+00  0.74074141828E+03  0.74074141828E+03  0.00000000000E+00 0. -1.
         21   -1    0    0  502  503 -0.00000000000E+00 -0.00000000000E+00 -0.29520286404E+03  0.29520286404E+03  0.00000000000E+00 0.  1.
          6    1    1    2  501    0  0.20844372959E+03  0.17364203432E+03  0.59919121290E+03  0.67986355551E+03  0.17200000000E+03 0. -1.
         -6    1    1    2    0  503 -0.20844372959E+03 -0.17364203432E+03 -0.15365265866E+03  0.35608072681E+03  0.17200000000E+03 0.  1.
</event>
<event>
 4    1  0.4405880E+000  0.1809946E+03  0.7818608E-02  0.1166844E+00
         21   -1    0    0  503  502  0.00000000000E+00  0.00000000000E+00  0.23478885302E+03  0.23478885302E+03  0.00000000000E+00 0.  1.
         21   -1    0    0  501  503 -0.00000000000E+00 -0.00000000000E+00 -0.28032014685E+03  0.28032014685E+03  0.00000000000E+00 0.  1.
          6    1    1    2  501    0  0.26569022585E+02  0.49690343220E+02 -0.20529595422E+03  0.27368864059E+03  0.17200000000E+03 0.  1.
         -6    1    1    2    0  502 -0.26569022585E+02 -0.49690343220E+02  0.15976466039E+03  0.24142035929E+03  0.17200000000E+03 0.  1.
</event>
<event>
 4    1  0.4405880E+000  0.2380341E+03  0.7818608E-02  0.1121109E+00
         21   -1    0    0  501  502  0.00000000000E+00  0.00000000000E+00  0.98434652459E+03  0.98434652459E+03  0.00000000000E+00 0. -1.
         21   -1    0    0  502  503 -0.00000000000E+00 -0.00000000000E+00 -0.79534439560E+02  0.79534439560E+02  0.00000000000E+00 0. -1.
          6    1    1    2  501    0 -0.16161687996E+03 -0.30922868279E+02  0.73200255331E+03  0.76973240657E+03  0.17200000000E+03 0. -1.
         -6    1    1    2    0  503  0.16161687996E+03  0.30922868279E+02  0.17280953172E+03  0.29414855758E+03  0.17200000000E+03 0. -1.
</event>
<event>
 4    1  0.4405880E+000  0.1732483E+03  0.7818608E-02  0.1174502E+00
         21   -1    0    0  503  502  0.00000000000E+00  0.00000000000E+00  0.14473592914E+03  0.14473592914E+03  0.00000000000E+00 0.  1.
         21   -1    0    0  501  503 -0.00000000000E+00 -0.00000000000E+00 -0.22472873139E+03  0.22472873139E+03  0.00000000000E+00 0.  1.
          6    1    1    2  501    0 -0.20741816752E+02  0.87365511350E+00  0.11334371384E+02  0.17361870351E+03  0.17200000000E+03 0.  1.
         -6    1    1    2    0  502  0.20741816752E+02 -0.87365511350E+00 -0.91327173636E+02  0.19584595702E+03  0.17200000000E+03 0.  1.
</event>
<event>
 4    1  0.4405880E+000  0.1739246E+03  0.7818608E-02  0.1173816E+00
         21   -1    0    0  501  502  0.00000000000E+00  0.00000000000E+00  0.13042849131E+04  0.13042849131E+04  0.00000000000E+00 0. -1.
         21   -1    0    0  502  503 -0.00000000000E+00 -0.00000000000E+00 -0.62973595802E+02  0.62973595802E+02  0.00000000000E+00 0. -1.
          6    1    1    2  501    0 -0.24299373919E+02  0.86782667719E+01  0.11640050202E+04  0.11769271256E+04  0.17200000000E+03 0. -1.
         -6    1    1    2    0  503  0.24299373919E+02 -0.86782667719E+01  0.77306297020E+02  0.19033138324E+03  0.17200000000E+03 0. -1.
</event>
<event>
 4    1  0.4405880E+000  0.2147582E+03  0.7818608E-02  0.1137852E+00
         21   -1    0    0  501  502  0.00000000000E+00  0.00000000000E+00  0.13242794895E+03  0.13242794895E+03  0.00000000000E+00 0. -1.
         21   -1    0    0  502  503 -0.00000000000E+00 -0.00000000000E+00 -0.36388476867E+03  0.36388476867E+03  0.00000000000E+00 0. -1.
          6    1    1    2  501    0 -0.11176968721E+03 -0.63597390890E+02 -0.64327801622E+02  0.22418554184E+03  0.17200000000E+03 0. -1.
         -6    1    1    2    0  503  0.11176968721E+03  0.63597390890E+02 -0.16712901810E+03  0.27212717578E+03  0.17200000000E+03 0. -1.
</event>
<event>
 4    1  0.4405880E+000  0.2047739E+03  0.7818608E-02  0.1145773E+00
         21   -1    0    0  501  502  0.00000000000E+00  0.00000000000E+00  0.44925373506E+03  0.44925373506E+03  0.00000000000E+00 0. -1.
         21   -1    0    0  502  503 -0.00000000000E+00 -0.00000000000E+00 -0.45042436801E+03  0.45042436801E+03  0.00000000000E+00 0. -1.
          6    1    1    2  501    0  0.45514943577E+02 -0.10137417028E+03  0.39994279590E+03  0.44931789691E+03  0.17200000000E+03 0. -1.
         -6    1    1    2    0  503 -0.45514943577E+02  0.10137417028E+03 -0.40111342885E+03  0.45036020616E+03  0.17200000000E+03 0. -1.
</event>
<event>
 4    1  0.4405880E+000  0.2061423E+03  0.7818608E-02  0.1144658E+00
         21   -1    0    0  503  502  0.00000000000E+00  0.00000000000E+00  0.43169902117E+02  0.43169902117E+02  0.00000000000E+00 0. -1.
         21   -1    0    0  501  503 -0.00000000000E+00 -0.00000000000E+00 -0.10266801020E+04  0.10266801020E+04  0.00000000000E+00 0. -1.
          6    1    1    2  501    0 -0.72257745891E+02  0.87689636008E+02 -0.60036191684E+03  0.63476695353E+03  0.17200000000E+03 0. -1.
         -6    1    1    2    0  502  0.72257745891E+02 -0.87689636008E+02 -0.38314828302E+03  0.43508305056E+03  0.17200000000E+03 0. -1.
</event>
<event>
 4    1  0.4405880E+000  0.2201730E+03  0.7818608E-02  0.1133754E+00
         21   -1    0    0  503  502  0.00000000000E+00  0.00000000000E+00  0.34329847072E+02  0.34329847072E+02  0.00000000000E+00 0. -1.
         21   -1    0    0  501  503 -0.00000000000E+00 -0.00000000000E+00 -0.17259326984E+04  0.17259326984E+04  0.00000000000E+00 0.  1.
          6    1    1    2  501    0 -0.10975393725E+02  0.13700979161E+03 -0.12211246813E+04  0.12408149054E+04  0.17200000000E+03 0.  1.
         -6    1    1    2    0  502  0.10975393725E+02 -0.13700979161E+03 -0.47047816998E+03  0.51944763999E+03  0.17200000000E+03 0. -1.
</event>
<event>
 4    1  0.4405880E+000  0.3151542E+03  0.7818608E-02  0.1077901E+00
         21   -1    0    0  503  502  0.00000000000E+00  0.00000000000E+00  0.13812980178E+03  0.13812980178E+03  0.00000000000E+00 0.  1.
         21   -1    0    0  501  503 -0.00000000000E+00 -0.00000000000E+00 -0.81200848243E+03  0.81200848243E+03  0.00000000000E+00 0. -1.
          6    1    1    2  501    0 -0.20879741816E+03 -0.16168426276E+03 -0.49767870875E+03  0.58907237230E+03  0.17200000000E+03 0. -1.
         -6    1    1    2    0  502  0.20879741816E+03  0.16168426276E+03 -0.17619997189E+03  0.36106591192E+03  0.17200000000E+03 0.  1.
</event>
<event>
 4    1  0.4405880E+000  0.2242838E+03  0.7818608E-02  0.1130729E+00
         21   -1    0    0  503  502  0.00000000000E+00  0.00000000000E+00  0.34925265841E+03  0.34925265841E+03  0.00000000000E+00 0.  1.
         21   -1    0    0  501  503 -0.00000000000E+00 -0.00000000000E+00 -0.20504053436E+03  0.20504053436E+03  0.00000000000E+00 0. -1.
          6    1    1    2  501    0  0.13553594297E+03  0.48468711431E+02 -0.79071925824E+02  0.23781416543E+03  0.17200000000E+03 0. -1.
         -6    1    1    2    0  502 -0.13553594297E+03 -0.48468711431E+02  0.22328404987E+03  0.31647902734E+03  0.17200000000E+03 0.  1.
</event>
<event>
 4    1  0.4405880E+000  0.2495309E+03  0.7818608E-02  0.1113602E+00
         21   -1    0    0  501  502  0.00000000000E+00  0.00000000000E+00  0.15264157265E+03  0.15264157265E+03  0.00000000000E+00 0.  1.
         21   -1    0    0  502  503 -0.00000000000E+00 -0.00000000000E+00 -0.44919370908E+03  0.44919370908E+03  0.00000000000E+00 0. -1.
          6    1    1    2  501    0 -0.14350543940E+03 -0.10994483664E+03 -0.57061720741E+02  0.25597210437E+03  0.17200000000E+03 0.  1.
         -6    1    1    2    0  503  0.14350543940E+03  0.10994483664E+03 -0.23949041569E+03  0.34586317735E+03  0.17200000000E+03 0. -1.
</event>
<event>
 4    1  0.4405880E+000  0.2295779E+03  0.7818608E-02  0.1126937E+00
         21   -1    0    0  503  502  0.00000000000E+00  0.00000000000E+00  0.20638636144E+03  0.20638636144E+03  0.00000000000E+00 0. -1.
         21   -1    0    0  501  503 -0.00000000000E+00 -0.00000000000E+00 -0.40091355968E+03  0.40091355968E+03  0.00000000000E+00 0. -1.
          6    1    1    2  501    0 -0.20439602301E+01  0.15204552389E+03 -0.28021517511E+03  0.36225207173E+03  0.17200000000E+03 0. -1.
         -6    1    1    2    0  502  0.20439602301E+01 -0.15204552389E+03  0.85687976876E+02  0.24504784939E+03  0.17200000000E+03 0. -1.
</event>
<event>
 4    1  0.4405880E+000  0.1808931E+03  0.7818608E-02  0.1166942E+00
         21   -1    0    0  501  502  0.00000000000E+00  0.00000000000E+00  0.14152065341E+04  0.14152065341E+04  0.00000000000E+00 0.  1.
         21   -1    0    0  502  503 -0.00000000000E+00 -0.00000000000E+00 -0.32846310358E+02  0.32846310358E+02  0.00000000000E+00 0.  1.
          6    1    1    2  501    0 -0.35615240423E+02  0.43241841214E+02  0.10851310644E+04  0.11001053264E+04  0.17200000000E+03 0. -1.
         -6    1    1    2    0  503  0.35615240423E+02 -0.43241841214E+02  0.29722915936E+03  0.34794751810E+03  0.17200000000E+03 0. -1.
</event>
<event>
 4    1  0.4405880E+000  0.1855176E+03  0.7818608E-02  0.1162567E+00
         21   -1    0    0  503  502  0.00000000000E+00  0.00000000000E+00  0.21508491853E+03  0.21508491853E+03  0.00000000000E+00 0.  1.
         21   -1    0    0  501  503 -0.00000000000E+00 -0.00000000000E+00 -0.50264395080E+03  0.50264395080E+03  0.00000000000E+00 0.  1.
          6    1    1    2  501    0 -0.18403920129E+02  0.67037754309E+02 -0.44006635500E+03  0.47757215327E+03  0.17200000000E+03 0.  1.
         -6    1    1    2    0  502  0.18403920129E+02 -0.67037754309E+02  0.15250732273E+03  0.24015671606E+03  0.17200000000E+03 0.  1.
</event>
<event>
 4    1  0.4405880E+000  0.1796191E+03  0.7818608E-02  0.1168172E+00
         21   -1    0    0  503  502  0.00000000000E+00  0.00000000000E+00  0.13562084937E+04  0.13562084937E+04  0.00000000000E+00 0.  1.
         21   -1    0    0  501  503 -0.00000000000E+00 -0.00000000000E+00 -0.25868925228E+02  0.25868925228E+02  0.00000000000E+00 0.  1.
          6    1    1    2  501    0  0.41826853938E+02 -0.30488493064E+02  0.46923009606E+03  0.50243399265E+03  0.17200000000E+03 0.  1.
         -6    1    1    2    0  502 -0.41826853938E+02  0.30488493064E+02  0.86110947240E+03  0.87964342626E+03  0.17200000000E+03 0.  1.
</event>
<event>
 4    1  0.4405880E+000  0.1735568E+03  0.7818608E-02  0.1174189E+00
         21   -1    0    0  501  502  0.00000000000E+00  0.00000000000E+00  0.38690843581E+03  0.38690843581E+03  0.00000000000E+00 0. -1.
         21   -1    0    0  502  503 -0.00000000000E+00 -0.00000000000E+00 -0.23703382500E+03  0.23703382500E+03  0.00000000000E+00 0. -1.
          6    1    1    2  501    0 -0.38360062875E+01 -0.22874840269E+02  0.33059251810E+03  0.37338102025E+03  0.17200000000E+03 0. -1.
         -6    1    1    2    0  503  0.38360062875E+01  0.22874840269E+02 -0.18071790728E+03  0.25056124056E+03  0.17200000000E+03 0. -1.
</event>
<event>
 4    1  0.4405880E+000  0.2024677E+03  0.7818608E-02  0.1147674E+00
         21   -1    0    0  501  502  0.00000000000E+00  0.00000000000E+00  0.32362215555E+04  0.32362215555E+04  0.00000000000E+00 0. -1.
         21   -1    0    0  502  503 -0.00000000000E+00 -0.00000000000E+00 -0.90637106084E+02  0.90637106084E+02  0.00000000000E+00 0. -1.
          6    1    1    2  501    0  0.10333994764E+03 -0.27019266344E+02  0.31156128302E+04  0.31221845707E+04  0.17200000000E+03 0. -1.
         -6    1    1    2    0  503 -0.10333994764E+03  0.27019266344E+02  0.29971619197E+02  0.20467409091E+03  0.17200000000E+03 0. -1.
</event>
<event>
 4    1  0.4405880E+000  0.2061621E+03  0.7818608E-02  0.1144642E+00
         21   -1    0    0  503  502  0.00000000000E+00  0.00000000000E+00  0.28627864973E+03  0.28627864973E+03  0.00000000000E+00 0.  1.
         21   -1    0    0  501  503 -0.00000000000E+00 -0.00000000000E+00 -0.14959030658E+03  0.14959030658E+03  0.00000000000E+00 0.  1.
          6    1    1    2  501    0 -0.10284932474E+03 -0.48381994566E+02  0.49455039448E+02  0.21201085332E+03  0.17200000000E+03 0.  1.
         -6    1    1    2    0  502  0.10284932474E+03  0.48381994566E+02  0.87233303701E+02  0.22385810299E+03  0.17200000000E+03 0.  1.
</event>
<event>
 4    1  0.4405880E+000  0.1864910E+03  0.7818608E-02  0.1161665E+00
         21   -1    0    0  501  502  0.00000000000E+00  0.00000000000E+00  0.27696933789E+03  0.27696933789E+03  0.00000000000E+00 0. -1.
         21   -1    0    0  502  503 -0.00000000000E+00 -0.00000000000E+00 -0.15120681813E+03  0.15120681813E+03  0.00000000000E+00 0.  1.
          6    1    1    2  501    0 -0.66994472107E+02  0.26582920258E+02  0.15103541686E+03  0.23998043272E+03  0.17200000000E+03 0. -1.
         -6    1    1    2    0  503  0.66994472107E+02 -0.26582920258E+02 -0.25272897102E+02  0.18819572331E+03  0.17200000000E+03 0.  1.
</event>
<event>
 4    1  0.4405880E+000  0.1845752E+03  0.7818608E-02  0.1163447E+00
         21   -1    0    0  501  502  0.00000000000E+00  0.00000000000E+00  0.37719535824E+03  0.37719535824E+03  0.00000000000E+00 0.  1.
         21   -1    0    0  502  503 -0.00000000000E+00 -0.00000000000E+00 -0.90422757391E+02  0.90422757391E+02  0.00000000000E+00 0.  1.
          6    1    1    2  501    0 -0.42280639744E+02  0.51926396496E+02  0.15129674626E+03  0.23866023669E+03  0.17200000000E+03 0.  1.
         -6    1    1    2    0  503  0.42280639744E+02 -0.51926396496E+02  0.13547585459E+03  0.22895787894E+03  0.17200000000E+03 0.  1.
</event>
<event>
 4    1  0.4405880E+000  0.1810664E+03  0.7818608E-02  0.1166775E+00
         21   -1    0    0  503  502  0.00000000000E+00  0.00000000000E+00  0.25737164139E+03  0.25737164139E+03  0.00000000000E+00 0. -1.
         21   -1    0    0  501  503 -0.00000000000E+00 -0.00000000000E+00 -0.13513265457E+03  0.13513265457E+03  0.00000000000E+00 0. -1.
          6    1    1    2  501    0 -0.56529704088E+02  0.23293698797E+01  0.14125002054E+02  0.18161648904E+03  0.17200000000E+03 0.  1.
         -6    1    1    2    0  502  0.56529704088E+02 -0.23293698797E+01  0.10811398476E+03  0.21088780692E+03  0.17200000000E+03 0.  1.
</event>
<event>
 4    1  0.4405880E+000  0.1932118E+03  0.7818608E-02  0.1155596E+00
         21   -1    0    0  503  502  0.00000000000E+00  0.00000000000E+00  0.79316867129E+02  0.79316867129E+02  0.00000000000E+00 0. -1.
         21   -1    0    0  501  503 -0.00000000000E+00 -0.00000000000E+00 -0.96132090250E+03  0.96132090250E+03  0.00000000000E+00 0. -1.
          6    1    1    2  501    0  0.70192758050E+02  0.53101709167E+02 -0.81273294905E+03  0.83538354142E+03  0.17200000000E+03 0. -1.
         -6    1    1    2    0  502 -0.70192758050E+02 -0.53101709167E+02 -0.69271086323E+02  0.20525422821E+03  0.17200000000E+03 0. -1.
</event>
<event>
 4    1  0.4405880E+000  0.1935530E+03  0.7818608E-02  0.1155295E+00
         21   -1    0    0  501  502  0.00000000000E+00  0.00000000000E+00  0.12780289219E+03  0.12780289219E+03  0.00000000000E+00 0.  1.
         21   -1    0    0  502  503 -0.00000000000E+00 -0.00000000000E+00 -0.52201404841E+03  0.52201404841E+03  0.00000000000E+00 0.  1.
          6    1    1    2  501    0  0.13399772269E+02 -0.87745192049E+02  0.18037988085E+02  0.19439172215E+03  0.17200000000E+03 0.  1.
         -6    1    1    2    0  503 -0.13399772269E+02  0.87745192049E+02 -0.41224914430E+03  0.45542521845E+03  0.17200000000E+03 0.  1.
</event>
<event>
 4    1  0.4405880E+000  0.2381343E+03  0.7818608E-02  0.1121042E+00
         21   -1    0    0  503  502  0.00000000000E+00  0.00000000000E+00  0.37228489780E+03  0.37228489780E+03  0.00000000000E+00 0.  1.
         21   -1    0    0  501  503 -0.00000000000E+00 -0.00000000000E+00 -0.17902633362E+03  0.17902633362E+03  0.00000000000E+00 0. -1.
          6    1    1    2  501    0 -0.16154708739E+03  0.32038584938E+02 -0.98298272681E+01  0.23833706777E+03  0.17200000000E+03 0. -1.
         -6    1    1    2    0  502  0.16154708739E+03 -0.32038584938E+02  0.20308839145E+03  0.31297416365E+03  0.17200000000E+03 0.  1.
</event>
<event>
 4    1  0.4405880E+000  0.2401036E+03  0.7818608E-02  0.1119724E+00
         21   -1    0    0  503  502  0.00000000000E+00  0.00000000000E+00  0.10006786024E+04  0.10006786024E+04  0.00000000000E+00 0. -1.
         21   -1    0    0  501  503 -0.00000000000E+00 -0.00000000000E+00 -0.12602836256E+03  0.12602836256E+03  0.00000000000E+00 0.  1.
          6    1    1    2  501    0  0.32663486151E+02  0.16431328758E+03  0.22245831292E+02  0.24113199044E+03  0.17200000000E+03 0.  1.
         -6    1    1    2    0  502 -0.32663486151E+02 -0.16431328758E+03  0.85240440854E+03  0.88557497453E+03  0.17200000000E+03 0. -1.
</event>
<event>
 4    1  0.4405880E+000  0.2371505E+03  0.7818608E-02  0.1121706E+00
         21   -1    0    0  503  502  0.00000000000E+00  0.00000000000E+00  0.12051069650E+04  0.12051069650E+04  0.00000000000E+00 0. -1.
         21   -1    0    0  501  503 -0.00000000000E+00 -0.00000000000E+00 -0.31515650083E+03  0.31515650083E+03  0.00000000000E+00 0. -1.
          6    1    1    2  501    0 -0.16001396543E+03  0.32432554177E+02 -0.25662269873E+03  0.34942173545E+03  0.17200000000E+03 0. -1.
         -6    1    1    2    0  502  0.16001396543E+03 -0.32432554177E+02  0.11465731629E+04  0.11708417303E+04  0.17200000000E+03 0. -1.
</event>
<event>
 4    1  0.4405880E+000  0.1975785E+03  0.7818608E-02  0.1151798E+00
         21   -1    0    0  503  502  0.00000000000E+00  0.00000000000E+00  0.40849904265E+02  0.40849904265E+02  0.00000000000E+00 0. -1.
         21   -1    0    0  501  503 -0.00000000000E+00 -0.00000000000E+00 -0.19051600841E+04  0.19051600841E+04  0.00000000000E+00 0. -1.
          6    1    1    2  501    0 -0.39337759412E+02  0.88914662216E+02 -0.16190722330E+04  0.16310831286E+04  0.17200000000E+03 0. -1.
         -6    1    1    2    0  502  0.39337759412E+02 -0.88914662216E+02 -0.24523794676E+03  0.31492685977E+03  0.17200000000E+03 0. -1.
</event>
<event>
 4    1  0.4405880E+000  0.1995107E+03  0.7818608E-02  0.1150152E+00
         21   -1    0    0  503  502  0.00000000000E+00  0.00000000000E+00  0.43920531750E+03  0.43920531750E+03  0.00000000000E+00 0.  1.
         21   -1    0    0  501  503 -0.00000000000E+00 -0.00000000000E+00 -0.11406709007E+03  0.11406709007E+03  0.00000000000E+00 0. -1.
          6    1    1    2  501    0 -0.31064166575E+02  0.96205697978E+02  0.28796826123E+03  0.35032875737E+03  0.17200000000E+03 0.  1.
         -6    1    1    2    0  502  0.31064166575E+02 -0.96205697978E+02  0.37169966200E+02  0.20294365020E+03  0.17200000000E+03 0. -1.
</event>
<event>
 4    1  0.4405880E+000  0.1805196E+03  0.7818608E-02  0.1167301E+00
         21   -1    0    0  501  502  0.00000000000E+00  0.00000000000E+00  0.18233741464E+03  0.18233741464E+03  0.00000000000E+00 0. -1.
         21   -1    0    0  502  503 -0.00000000000E+00 -0.00000000000E+00 -0.32484363816E+03  0.32484363816E+03  0.00000000000E+00 0. -1.
          6    1    1    2  501    0  0.33986356864E+02 -0.42991478364E+02  0.98828007715E+02  0.20580163939E+03  0.17200000000E+03 0. -1.
         -6    1    1    2    0  503 -0.33986356864E+02  0.42991478364E+02 -0.24133423123E+03  0.30137941341E+03  0.17200000000E+03 0. -1.
</event>
<event>
 4    1  0.4405880E+000  0.1762761E+03  0.7818608E-02  0.1171456E+00
         21   -1    0    0  501  502  0.00000000000E+00  0.00000000000E+00  0.30419366351E+03  0.30419366351E+03  0.00000000000E+00 0. -1.
         21   -1    0    0  502  503 -0.00000000000E+00 -0.00000000000E+00 -0.18616098158E+03  0.18616098158E+03  0.00000000000E+00 0. -1.
          6    1    1    2  501    0 -0.35188093388E+02  0.15845369997E+02  0.22372062296E+03  0.28482309387E+03  0.17200000000E+03 0. -1.
         -6    1    1    2    0  503  0.35188093388E+02 -0.15845369997E+02 -0.10568794103E+03  0.20553155122E+03  0.17200000000E+03 0. -1.
</event>
<event>
 4    1  0.4405880E+000  0.2728375E+03  0.7818608E-02  0.1099667E+00
         21   -1    0    0  503  502  0.00000000000E+00  0.00000000000E+00  0.11900820552E+04  0.11900820552E+04  0.00000000000E+00 0.  1.
         21   -1    0    0  501  503 -0.00000000000E+00 -0.00000000000E+00 -0.73283481632E+02  0.73283481632E+02  0.00000000000E+00 0.  1.
          6    1    1    2  501    0 -0.16953108085E+03  0.12694695017E+03  0.80014271748E+03  0.84538079223E+03  0.17200000000E+03 0.  1.
         -6    1    1    2    0  502  0.16953108085E+03 -0.12694695017E+03  0.31665585612E+03  0.41798474463E+03  0.17200000000E+03 0.  1.
</event>
<event>
 4    1  0.4405880E+000  0.1816987E+03  0.7818608E-02  0.1166169E+00
         21   -1    0    0  503  502  0.00000000000E+00  0.00000000000E+00  0.23713991697E+03  0.23713991697E+03  0.00000000000E+00 0.  1.
         21   -1    0    0  501  503 -0.00000000000E+00 -0.00000000000E+00 -0.58310576334E+03  0.58310576334E+03  0.00000000000E+00 0.  1.
          6    1    1    2  501    0  0.28642255174E+02  0.51088390935E+02 -0.53081259042E+03  0.56104938162E+03  0.17200000000E+03 0.  1.
         -6    1    1    2    0  502 -0.28642255174E+02 -0.51088390935E+02  0.18484674405E+03  0.25919629869E+03  0.17200000000E+03 0.  1.
</event>
<event>
 4    1  0.4405880E+000  0.3066529E+03  0.7818608E-02  0.1081961E+00
         21   -1    0    0  501  502  0.00000000000E+00  0.00000000000E+00  0.18269570232E+03  0.18269570232E+03  0.00000000000E+00 0.  1.
         21   -1    0    0  502  503 -0.00000000000E+00 -0.00000000000E+00 -0.10884108041E+04  0.10884108041E+04  0.00000000000E+00 0.  1.
          6    1    1    2  501    0  0.91497839799E+02 -0.23681248120E+03 -0.91427796116E+03  0.96433406877E+03  0.17200000000E+03 0.  1.
         -6    1    1    2    0  503 -0.91497839799E+02  0.23681248120E+03  0.85628593822E+01  0.30677243765E+03  0.17200000000E+03 0.  1.
</event>
<event>
 4    1  0.4405880E+000  0.1829739E+03  0.7818608E-02  0.1164956E+00
         21   -1    0    0  501  502  0.00000000000E+00  0.00000000000E+00  0.33101877930E+03  0.33101877930E+03  0.00000000000E+00 0.  1.
         21   -1    0    0  502  503 -0.00000000000E+00 -0.00000000000E+00 -0.12711369387E+03  0.12711369387E+03  0.00000000000E+00 0.  1.
          6    1    1    2  501    0 -0.20411891023E+02  0.58981423003E+02  0.20549688158E+03  0.27515163436E+03  0.17200000000E+03 0.  1.
         -6    1    1    2    0  503  0.20411891023E+02 -0.58981423003E+02 -0.15917961470E+01  0.18298083880E+03  0.17200000000E+03 0.  1.
</event>
<event>
 4    1  0.4405880E+000  0.1838245E+03  0.7818608E-02  0.1164152E+00
         21   -1    0    0  503  502  0.00000000000E+00  0.00000000000E+00  0.61478735999E+03  0.61478735999E+03  0.00000000000E+00 0. -1.
         21   -1    0    0  501  503 -0.00000000000E+00 -0.00000000000E+00 -0.19922145711E+03  0.19922145711E+03  0.00000000000E+00 0. -1.
          6    1    1    2  501    0 -0.39466940835E+02  0.51476325136E+02 -0.13855454269E+03  0.23019299027E+03  0.17200000000E+03 0. -1.
         -6    1    1    2    0  502  0.39466940835E+02 -0.51476325136E+02  0.55412044557E+03  0.58381582683E+03  0.17200000000E+03 0. -1.
</event>
<event>
 4    1  0.4405880E+000  0.1897215E+03  0.7818608E-02  0.1158713E+00
         21   -1    0    0  503  502  0.00000000000E+00  0.00000000000E+00  0.88182237178E+02  0.88182237178E+02  0.00000000000E+00 0. -1.
         21   -1    0    0  501  503 -0.00000000000E+00 -0.00000000000E+00 -0.42054729790E+03  0.42054729790E+03  0.00000000000E+00 0. -1.
          6    1    1    2  501    0 -0.78901861830E+02 -0.13591422326E+02 -0.20980255940E+03  0.28286276618E+03  0.17200000000E+03 0.  1.
         -6    1    1    2    0  502  0.78901861830E+02  0.13591422326E+02 -0.12256250132E+03  0.22586676890E+03  0.17200000000E+03 0.  1.
</event>
<event>
 4    1  0.4405880E+000  0.1852412E+03  0.7818608E-02  0.1162825E+00
         21   -1    0    0  503  502  0.00000000000E+00  0.00000000000E+00  0.45556220194E+02  0.45556220194E+02  0.00000000000E+00 0.  1.
         21   -1    0    0  501  503 -0.00000000000E+00 -0.00000000000E+00 -0.75465811396E+03  0.75465811396E+03  0.00000000000E+00 0.  1.
          6    1    1    2  501    0 -0.15090447513E+02 -0.67101239471E+02 -0.37195813685E+03  0.41553237361E+03  0.17200000000E+03 0.  1.
         -6    1    1    2    0  502  0.15090447513E+02  0.67101239471E+02 -0.33714375691E+03  0.38468196055E+03  0.17200000000E+03 0.  1.
</event>
<event>
 4    1  0.4405880E+000  0.1733555E+03  0.7818608E-02  0.1174393E+00
         21   -1    0    0  503  502  0.00000000000E+00  0.00000000000E+00  0.51716878326E+03  0.51716878326E+03  0.00000000000E+00 0. -1.
         21   -1    0    0  501  503 -0.00000000000E+00 -0.00000000000E+00 -0.69189446989E+02  0.69189446989E+02  0.00000000000E+00 0. -1.
          6    1    1    2  501    0 -0.20094834513E+02  0.80213247339E+01  0.10666417809E+03  0.20354211091E+03  0.17200000000E+03 0. -1.
         -6    1    1    2    0  502  0.20094834513E+02 -0.80213247339E+01  0.34131515819E+03  0.38281611935E+03  0.17200000000E+03 0. -1.
</event>
<event>
 4    1  0.4405880E+000  0.2120433E+03  0.7818608E-02  0.1139958E+00
         21   -1    0    0  501  502  0.00000000000E+00  0.00000000000E+00  0.91150438021E+02  0.91150438021E+02  0.00000000000E+00 0. -1.
         21   -1    0    0  502  503 -0.00000000000E+00 -0.00000000000E+00 -0.10941265267E+04  0.10941265267E+04  0.00000000000E+00 0.  1.
          6    1    1    2  501    0 -0.69664814784E+02  0.10259220323E+03 -0.62311430139E+02  0.22100918738E+03  0.17200000000E+03 0. -1.
         -6    1    1    2    0  503  0.69664814784E+02 -0.10259220323E+03 -0.94066465853E+03  0.96426777732E+03  0.17200000000E+03 0.  1.
</event>
<event>
 4    1  0.4405880E+000  0.1873163E+03  0.7818608E-02  0.1160904E+00
         21   -1    0    0  501  502  0.00000000000E+00  0.00000000000E+00  0.27294135678E+03  0.27294135678E+03  0.00000000000E+00 0. -1.
         21   -1    0    0  502  503 -0.00000000000E+00 -0.00000000000E+00 -0.13168503807E+03  0.13168503807E+03  0.00000000000E+00 0. -1.
          6    1    1    2  501    0 -0.49599513324E+02  0.55165912678E+02  0.39426346756E+02  0.19142054869E+03  0.17200000000E+03 0. -1.
         -6    1    1    2    0  503  0.49599513324E+02 -0.55165912678E+02  0.10182997195E+03  0.21320584615E+03  0.17200000000E+03 0. -1.
</event>
<event>
 4    1  0.4405880E+000  0.2023726E+03  0.7818608E-02  0.1147753E+00
         21   -1    0    0  503  502  0.00000000000E+00  0.00000000000E+00  0.29924780124E+03  0.29924780124E+03  0.00000000000E+00 0.  1.
         21   -1    0    0  501  503 -0.00000000000E+00 -0.00000000000E+00 -0.13701212881E+03  0.13701212881E+03  0.00000000000E+00 0. -1.
          6    1    1    2  501    0  0.74641009873E+02 -0.76153813062E+02  0.73819874696E+02  0.21541601031E+03  0.17200000000E+03 0.  1.
         -6    1    1    2    0  502 -0.74641009873E+02  0.76153813062E+02  0.88415797730E+02  0.22084391974E+03  0.17200000000E+03 0.  1.
</event>
<event>
 4    1  0.4405880E+000  0.1788249E+03  0.7818608E-02  0.1168945E+00
         21   -1    0    0  501  502  0.00000000000E+00  0.00000000000E+00  0.17961191574E+03  0.17961191574E+03  0.00000000000E+00 0.  1.
         21   -1    0    0  502  503 -0.00000000000E+00 -0.00000000000E+00 -0.18730456503E+03  0.18730456503E+03  0.00000000000E+00 0. -1.
          6    1    1    2  501    0 -0.28961209740E+02  0.39440877486E+02 -0.44644963383E+02  0.18431361111E+03  0.17200000000E+03 0. -1.
         -6    1    1    2    0  503  0.28961209740E+02 -0.39440877486E+02  0.36952314093E+02  0.18260286965E+03  0.17200000000E+03 0.  1.
</event>
<event>
 4    1  0.4405880E+000  0.2214282E+03  0.7818608E-02  0.1132823E+00
         21   -1    0    0  503  502  0.00000000000E+00  0.00000000000E+00  0.41581551629E+02  0.41581551629E+02  0.00000000000E+00 0.  1.
         21   -1    0    0  501  503 -0.00000000000E+00 -0.00000000000E+00 -0.13206514471E+04  0.13206514471E+04  0.00000000000E+00 0.  1.
          6    1    1    2  501    0 -0.13917781010E+03  0.87168684674E+01 -0.86249341640E+03  0.89046355341E+03  0.17200000000E+03 0.  1.
         -6    1    1    2    0  502  0.13917781010E+03 -0.87168684674E+01 -0.41657647906E+03  0.47176944531E+03  0.17200000000E+03 0.  1.
</event>
<event>
 4    1  0.4405880E+000  0.2879175E+03  0.7818608E-02  0.1091441E+00
         21   -1    0    0  503  502  0.00000000000E+00  0.00000000000E+00  0.22841191481E+04  0.22841191481E+04  0.00000000000E+00 0. -1.
         21   -1    0    0  501  503 -0.00000000000E+00 -0.00000000000E+00 -0.40108345725E+02  0.40108345725E+02  0.00000000000E+00 0.  1.
          6    1    1    2  501    0 -0.79161406293E+02 -0.21690076053E+03  0.76355850484E+03  0.81603802515E+03  0.17200000000E+03 0.  1.
         -6    1    1    2    0  502  0.79161406293E+02  0.21690076053E+03  0.14804522975E+04  0.15081894686E+04  0.17200000000E+03 0.  1.
</event>
<event>
 4    1  0.4405880E+000  0.1799890E+03  0.7818608E-02  0.1167814E+00
         21   -1    0    0  501  502  0.00000000000E+00  0.00000000000E+00  0.34857228423E+03  0.34857228423E+03  0.00000000000E+00 0. -1.
         21   -1    0    0  502  503 -0.00000000000E+00 -0.00000000000E+00 -0.11204554935E+03  0.11204554935E+03  0.00000000000E+00 0. -1.
          6    1    1    2  501    0 -0.28356032497E+02  0.44810357030E+02  0.23158620854E+02  0.18147273734E+03  0.17200000000E+03 0. -1.
         -6    1    1    2    0  503  0.28356032497E+02 -0.44810357030E+02  0.21336811403E+03  0.27914509625E+03  0.17200000000E+03 0. -1.
</event>
<event>
 4    1  0.4405880E+000  0.2271808E+03  0.7818608E-02  0.1128640E+00
         21   -1    0    0  503  502  0.00000000000E+00  0.00000000000E+00  0.42337343095E+02  0.42337343095E+02  0.00000000000E+00 0. -1.
         21   -1    0    0  501  503 -0.00000000000E+00 -0.00000000000E+00 -0.14590816816E+04  0.14590816816E+04  0.00000000000E+00 0. -1.
          6    1    1    2  501    0 -0.64965262109E+02  0.13344143546E+03 -0.10128610555E+04  0.10380263097E+04  0.17200000000E+03 0. -1.
         -6    1    1    2    0  502  0.64965262109E+02 -0.13344143546E+03 -0.40388328305E+03  0.46339271499E+03  0.17200000000E+03 0. -1.
</event>
<event>
 4    1  0.4405880E+000  0.1838600E+03  0.7818608E-02  0.1164119E+00
         21   -1    0    0  503  502  0.00000000000E+00  0.00000000000E+00  0.29052811002E+03  0.29052811002E+03  0.00000000000E+00 0. -1.
         21   -1    0    0  501  503 -0.00000000000E+00 -0.00000000000E+00 -0.18925017031E+03  0.18925017031E+03  0.00000000000E+00 0. -1.
          6    1    1    2  501    0 -0.51110887432E+02 -0.40102176883E+02 -0.98242520124E+02  0.20846126778E+03  0.17200000000E+03 0. -1.
         -6    1    1    2    0  502  0.51110887432E+02  0.40102176883E+02  0.19952045983E+03  0.27131701254E+03  0.17200000000E+03 0. -1.
</event>
<event>
 4    1  0.4405880E+000  0.1737487E+03  0.7818608E-02  0.1173994E+00
         21   -1    0    0  503  502  0.00000000000E+00  0.00000000000E+00  0.26570456375E+02  0.26570456375E+02  0.00000000000E+00 0. -1.
         21   -1    0    0  501  503 -0.00000000000E+00 -0.00000000000E+00 -0.14312724917E+04  0.14312724917E+04  0.00000000000E+00 0. -1.
          6    1    1    2  501    0 -0.24197493065E+02  0.43683865090E+01 -0.10333332992E+04  0.10478388753E+04  0.17200000000E+03 0.  1.
         -6    1    1    2    0  502  0.24197493065E+02 -0.43683865090E+01 -0.37136873609E+03  0.41000407268E+03  0.17200000000E+03 0.  1.
</event>
<event>
 4    1  0.4405880E+000  0.2012470E+03  0.7818608E-02  0.1148691E+00
         21   -1    0    0  503  502  0.00000000000E+00  0.00000000000E+00  0.29864493757E+03  0.29864493757E+03  0.00000000000E+00 0.  1.
         21   -1    0    0  501  503 -0.00000000000E+00 -0.00000000000E+00 -0.21475612519E+03  0.21475612519E+03  0.00000000000E+00 0.  1.
          6    1    1    2  501    0 -0.73168294628E+02  0.74583810858E+02 -0.11388832143E+03  0.23123774332E+03  0.17200000000E+03 0.  1.
         -6    1    1    2    0  502  0.73168294628E+02 -0.74583810858E+02  0.19777713380E+03  0.28216331944E+03  0.17200000000E+03 0.  1.
</event>
<event>
 4    1  0.4405880E+000  0.3038642E+03  0.7818608E-02  0.1083325E+00
         21   -1    0    0  501  502  0.00000000000E+00  0.00000000000E+00  0.98691027201E+03  0.98691027201E+03  0.00000000000E+00 0. -1.
         21   -1    0    0  502  503 -0.00000000000E+00 -0.00000000000E+00 -0.14063108428E+03  0.14063108428E+03  0.00000000000E+00 0.  1.
          6    1    1    2  501    0  0.20345774131E+03  0.14613145497E+03  0.74931233677E+03  0.80858050475E+03  0.17200000000E+03 0. -1.
         -6    1    1    2    0  503 -0.20345774131E+03 -0.14613145497E+03  0.96966850963E+02  0.31896085154E+03  0.17200000000E+03 0.  1.
</event>
<event>
 4    1  0.4405880E+000  0.1950882E+03  0.7818608E-02  0.1153951E+00
         21   -1    0    0  503  502  0.00000000000E+00  0.00000000000E+00  0.98477931987E+03  0.98477931987E+03  0.00000000000E+00 0. -1.
         21   -1    0    0  501  503 -0.00000000000E+00 -0.00000000000E+00 -0.42598600228E+02  0.42598600228E+02  0.00000000000E+00 0. -1.
          6    1    1    2  501    0 -0.17150191874E+02 -0.90450391238E+02  0.31464828130E+03  0.37022012814E+03  0.17200000000E+03 0. -1.
         -6    1    1    2    0  502  0.17150191874E+02  0.90450391238E+02  0.62753243835E+03  0.65715779196E+03  0.17200000000E+03 0. -1.
</event>
<event>
 4    1  0.4405880E+000  0.2607351E+03  0.7818608E-02  0.1106702E+00
         21   -1    0    0  503  502  0.00000000000E+00  0.00000000000E+00  0.58152573661E+02  0.58152573661E+02  0.00000000000E+00 0.  1.
         21   -1    0    0  501  503 -0.00000000000E+00 -0.00000000000E+00 -0.12452241301E+04  0.12452241301E+04  0.00000000000E+00 0. -1.
          6    1    1    2  501    0  0.17807667839E+03 -0.81777057543E+02 -0.43234385956E+03  0.50488018720E+03  0.17200000000E+03 0.  1.
         -6    1    1    2    0  502 -0.17807667839E+03  0.81777057543E+02 -0.75472769689E+03  0.79849651658E+03  0.17200000000E+03 0. -1.
</event>
<event>
 4    1  0.4405880E+000  0.1914817E+03  0.7818608E-02  0.1157132E+00
         21   -1    0    0  501  502  0.00000000000E+00  0.00000000000E+00  0.19577865585E+03  0.19577865585E+03  0.00000000000E+00 0.  1.
         21   -1    0    0  502  503 -0.00000000000E+00 -0.00000000000E+00 -0.23921410581E+03  0.23921410581E+03  0.00000000000E+00 0.  1.
          6    1    1    2  501    0  0.83976121016E+02  0.54082062812E+01  0.79624167268E+02  0.20737706143E+03  0.17200000000E+03 0.  1.
         -6    1    1    2    0  503 -0.83976121016E+02 -0.54082062812E+01 -0.12305961723E+03  0.22761570023E+03  0.17200000000E+03 0.  1.
</event>
<event>
 4    1  0.4405880E+000  0.2302228E+03  0.7818608E-02  0.1126483E+00
         21   -1    0    0  503  502  0.00000000000E+00  0.00000000000E+00  0.13013848906E+03  0.13013848906E+03  0.00000000000E+00 0.  1.
         21   -1    0    0  501  503 -0.00000000000E+00 -0.00000000000E+00 -0.59492914429E+03  0.59492914429E+03  0.00000000000E+00 0.  1.
          6    1    1    2  501    0  0.62388139611E+01 -0.15290393180E+03 -0.43600180210E+03  0.49305182952E+03  0.17200000000E+03 0.  1.
         -6    1    1    2    0  502 -0.62388139611E+01  0.15290393180E+03 -0.28788853130E+02  0.23201580382E+03  0.17200000000E+03 0.  1.
</event>
<event>
 4    1  0.4405880E+000  0.1756781E+03  0.7818608E-02  0.1172053E+00
         21   -1    0    0  503  502  0.00000000000E+00  0.00000000000E+00  0.34750124161E+02  0.34750124161E+02  0.00000000000E+00 0.  1.
         21   -1    0    0  501  503 -0.00000000000E+00 -0.00000000000E+00 -0.90741957366E+03  0.90741957366E+03  0.00000000000E+00 0.  1.
          6    1    1    2  501    0 -0.35759790886E+02  0.20200559549E+00 -0.50500985015E+03  0.53469407346E+03  0.17200000000E+03 0.  1.
         -6    1    1    2    0  502  0.35759790886E+02 -0.20200559549E+00 -0.36765959935E+03  0.40747562436E+03  0.17200000000E+03 0.  1.
</event>
<event>
 4    1  0.4405880E+000  0.1732146E+03  0.7818608E-02  0.1174536E+00
         21   -1    0    0  503  502  0.00000000000E+00  0.00000000000E+00  0.78063428429E+02  0.78063428429E+02  0.00000000000E+00 0.  1.
         21   -1    0    0  501  503 -0.00000000000E+00 -0.00000000000E+00 -0.40954864100E+03  0.40954864100E+03  0.00000000000E+00 0.  1.
          6    1    1    2  501    0 -0.79653588982E+01 -0.18864390625E+02 -0.22622385161E+03  0.28492199497E+03  0.17200000000E+03 0.  1.
         -6    1    1    2    0  502  0.79653588982E+01  0.18864390625E+02 -0.10526136096E+03  0.20269007447E+03  0.17200000000E+03 0.  1.
</event>
<event>
 4    1  0.4405880E+000  0.1739468E+03  0.7818608E-02  0.1173793E+00
         21   -1    0    0  501  502  0.00000000000E+00  0.00000000000E+00  0.67177247529E+02  0.67177247529E+02  0.00000000000E+00 0.  1.
         21   -1    0    0  502  503 -0.00000000000E+00 -0.00000000000E+00 -0.46820681010E+03  0.46820681010E+03  0.00000000000E+00 0.  1.
          6    1    1    2  501    0  0.20882927172E+02 -0.15407988972E+02 -0.14832907519E+03  0.22860231258E+03  0.17200000000E+03 0.  1.
         -6    1    1    2    0  503 -0.20882927172E+02  0.15407988972E+02 -0.25270048738E+03  0.30678174505E+03  0.17200000000E+03 0.  1.
</event>
<event>
 4    1  0.4405880E+000  0.2049036E+03  0.7818608E-02  0.1145667E+00
         21   -1    0    0  501  502  0.00000000000E+00  0.00000000000E+00  0.12287595069E+03  0.12287595069E+03  0.00000000000E+00 0. -1.
         21   -1    0    0  502  503 -0.00000000000E+00 -0.00000000000E+00 -0.44665610445E+03  0.44665610445E+03  0.00000000000E+00 0.  1.
          6    1    1    2  501    0  0.10802211560E+03  0.27068228058E+02 -0.29993688480E+03  0.36324592399E+03  0.17200000000E+03 0.  1.
         -6    1    1    2    0  503 -0.10802211560E+03 -0.27068228058E+02 -0.23843268958E+02  0.20628613115E+03  0.17200000000E+03 0. -1.
</event>
<event>
 4    1  0.4405880E+000  0.2182904E+03  0.7818608E-02  0.1135164E+00
         21   -1    0    0  501  502  0.00000000000E+00  0.00000000000E+00  0.27843752947E+03  0.27843752947E+03  0.00000000000E+00 0.  1.
         21   -1    0    0  502  503 -0.00000000000E+00 -0.00000000000E+00 -0.45193498233E+03  0.45193498233E+03  0.00000000000E+00 0. -1.
          6    1    1    2  501    0 -0.12236347361E+03  0.55622472676E+02  0.20110657053E+03  0.29680723012E+03  0.17200000000E+03 0.  1.
         -6    1    1    2    0  503  0.12236347361E+03 -0.55622472676E+02 -0.37460402339E+03  0.43356528169E+03  0.17200000000E+03 0. -1.
</event>
<event>
 4    1  0.4405880E+000  0.1883224E+03  0.7818608E-02  0.1159983E+00
         21   -1    0    0  501  502  0.00000000000E+00  0.00000000000E+00  0.10495034512E+03  0.10495034512E+03  0.00000000000E+00 0. -1.
         21   -1    0    0  502  503 -0.00000000000E+00 -0.00000000000E+00 -0.34730198454E+03  0.34730198454E+03  0.00000000000E+00 0. -1.
          6    1    1    2  501    0  0.76397936856E+02  0.66857671071E+01 -0.15833182667E+03  0.24603721583E+03  0.17200000000E+03 0. -1.
         -6    1    1    2    0  503 -0.76397936856E+02 -0.66857671071E+01 -0.84019812755E+02  0.20621511383E+03  0.17200000000E+03 0. -1.
</event>
<event>
 4    1  0.4405880E+000  0.1973272E+03  0.7818608E-02  0.1152014E+00
         21   -1    0    0  501  502  0.00000000000E+00  0.00000000000E+00  0.79996358205E+03  0.79996358205E+03  0.00000000000E+00 0.  1.
         21   -1    0    0  502  503 -0.00000000000E+00 -0.00000000000E+00 -0.99029214061E+02  0.99029214061E+02  0.00000000000E+00 0.  1.
          6    1    1    2  501    0 -0.12015683360E+02  0.95966931652E+02  0.67099338196E+03  0.69940699686E+03  0.17200000000E+03 0.  1.
         -6    1    1    2    0  503  0.12015683360E+02 -0.95966931652E+02  0.29940986020E+02  0.19958579925E+03  0.17200000000E+03 0.  1.
</event>
<event>
 4    1  0.4405880E+000  0.1941221E+03  0.7818608E-02  0.1154795E+00
         21   -1    0    0  501  502  0.00000000000E+00  0.00000000000E+00  0.62455394123E+03  0.62455394123E+03  0.00000000000E+00 0.  1.
         21   -1    0    0  502  503 -0.00000000000E+00 -0.00000000000E+00 -0.72240249361E+02  0.72240249361E+02  0.00000000000E+00 0.  1.
          6    1    1    2  501    0  0.89837019015E+02  0.53573695098E+01  0.41758211472E+03  0.46049778927E+03  0.17200000000E+03 0.  1.
         -6    1    1    2    0  503 -0.89837019015E+02 -0.53573695098E+01  0.13473157715E+03  0.23629640132E+03  0.17200000000E+03 0.  1.
</event>
<event>
 4    1  0.4405880E+000  0.1993482E+03  0.7818608E-02  0.1150290E+00
         21   -1    0    0  503  502  0.00000000000E+00  0.00000000000E+00  0.94562789735E+03  0.94562789735E+03  0.00000000000E+00 0. -1.
         21   -1    0    0  501  503 -0.00000000000E+00 -0.00000000000E+00 -0.77564932770E+02  0.77564932770E+02  0.00000000000E+00 0.  1.
          6    1    1    2  501    0  0.43164769047E+02  0.91063101370E+02  0.87729327389E+02  0.21779834848E+03  0.17200000000E+03 0.  1.
         -6    1    1    2    0  502 -0.43164769047E+02 -0.91063101370E+02  0.78033363720E+03  0.80539448164E+03  0.17200000000E+03 0. -1.
</event>
<event>
 4    1  0.4405880E+000  0.1763235E+03  0.7818608E-02  0.1171409E+00
         21   -1    0    0  503  502  0.00000000000E+00  0.00000000000E+00  0.17843755063E+04  0.17843755063E+04  0.00000000000E+00 0. -1.
         21   -1    0    0  501  503 -0.00000000000E+00 -0.00000000000E+00 -0.15423627543E+03  0.15423627543E+03  0.00000000000E+00 0. -1.
          6    1    1    2  501    0 -0.19393855782E+02  0.33613300993E+02 -0.97846755378E+02  0.20165307631E+03  0.17200000000E+03 0. -1.
         -6    1    1    2    0  502  0.19393855782E+02 -0.33613300993E+02  0.17279859862E+04  0.17369587054E+04  0.17200000000E+03 0. -1.
</event>
<event>
 4    1  0.4405880E+000  0.1971421E+03  0.7818608E-02  0.1152173E+00
         21   -1    0    0  503  502  0.00000000000E+00  0.00000000000E+00  0.62729464689E+02  0.62729464689E+02  0.00000000000E+00 0.  1.
         21   -1    0    0  501  503 -0.00000000000E+00 -0.00000000000E+00 -0.65033628322E+03  0.65033628322E+03  0.00000000000E+00 0.  1.
          6    1    1    2  501    0  0.48306677372E+02 -0.83351480905E+02 -0.37135678921E+03  0.42044127930E+03  0.17200000000E+03 0.  1.
         -6    1    1    2    0  502 -0.48306677372E+02  0.83351480905E+02 -0.21625002932E+03  0.29262446861E+03  0.17200000000E+03 0.  1.
</event>
<event>
 4    1  0.4405880E+000  0.2113733E+03  0.7818608E-02  0.1140483E+00
         21   -1    0    0  501  502  0.00000000000E+00  0.00000000000E+00  0.32593200644E+02  0.32593200644E+02  0.00000000000E+00 0.  1.
         21   -1    0    0  502  503 -0.00000000000E+00 -0.00000000000E+00 -0.16327386815E+04  0.16327386815E+04  0.00000000000E+00 0. -1.
          6    1    1    2  501    0  0.65967438910E+02 -0.10364824925E+03 -0.46655822333E+03  0.51220624588E+03  0.17200000000E+03 0.  1.
         -6    1    1    2    0  503 -0.65967438910E+02  0.10364824925E+03 -0.11335872575E+04  0.11531256363E+04  0.17200000000E+03 0. -1.
</event>
<event>
 4    1  0.4405880E+000  0.1965443E+03  0.7818608E-02  0.1152688E+00
         21   -1    0    0  503  502  0.00000000000E+00  0.00000000000E+00  0.12248966316E+03  0.12248966316E+03  0.00000000000E+00 0. -1.
         21   -1    0    0  501  503 -0.00000000000E+00 -0.00000000000E+00 -0.35863092092E+03  0.35863092092E+03  0.00000000000E+00 0. -1.
          6    1    1    2  501    0 -0.65120468904E+01 -0.94885495253E+02 -0.20162013831E+03  0.28156765464E+03  0.17200000000E+03 0. -1.
         -6    1    1    2    0  502  0.65120468904E+01  0.94885495253E+02 -0.34521119444E+02  0.19955292945E+03  0.17200000000E+03 0. -1.
</event>
<event>
 4    1  0.4405880E+000  0.2903220E+03  0.7818608E-02  0.1090181E+00
         21   -1    0    0  503  502  0.00000000000E+00  0.00000000000E+00  0.49602684424E+03  0.49602684424E+03  0.00000000000E+00 0. -1.
         21   -1    0    0  501  503 -0.00000000000E+00 -0.00000000000E+00 -0.17725349671E+03  0.17725349671E+03  0.00000000000E+00 0.  1.
          6    1    1    2  501    0  0.16390109335E+03  0.16685113422E+03  0.22784170547E+03  0.36905109693E+03  0.17200000000E+03 0.  1.
         -6    1    1    2    0  502 -0.16390109335E+03 -0.16685113422E+03  0.90931642065E+02  0.30422924403E+03  0.17200000000E+03 0.  1.
</event>
<event>
 4    1  0.4405880E+000  0.1863036E+03  0.7818608E-02  0.1161838E+00
         21   -1    0    0  501  502  0.00000000000E+00  0.00000000000E+00  0.14837431674E+04  0.14837431674E+04  0.00000000000E+00 0. -1.
         21   -1    0    0  502  503 -0.00000000000E+00 -0.00000000000E+00 -0.49245173956E+02  0.49245173956E+02  0.00000000000E+00 0.  1.
          6    1    1    2  501    0 -0.67986294188E+02  0.22425437322E+02  0.12726114327E+04  0.12861760747E+04  0.17200000000E+03 0. -1.
         -6    1    1    2    0  503  0.67986294188E+02 -0.22425437322E+02  0.16188656076E+03  0.24681226670E+03  0.17200000000E+03 0.  1.
</event>
<event>
 4    1  0.4405880E+000  0.1809975E+03  0.7818608E-02  0.1166841E+00
         21   -1    0    0  503  502  0.00000000000E+00  0.00000000000E+00  0.47586126554E+02  0.47586126554E+02  0.00000000000E+00 0. -1.
         21   -1    0    0  501  503 -0.00000000000E+00 -0.00000000000E+00 -0.74904177434E+03  0.74904177434E+03  0.00000000000E+00 0.  1.
          6    1    1    2  501    0  0.43805793875E+02 -0.35456145569E+02 -0.46402608236E+03  0.49807659145E+03  0.17200000000E+03 0. -1.
         -6    1    1    2    0  502 -0.43805793875E+02  0.35456145569E+02 -0.23742956543E+03  0.29855130945E+03  0.17200000000E+03 0. -1.
</event>
<event>
 4    1  0.4405880E+000  0.1780540E+03  0.7818608E-02  0.1169700E+00
         21   -1    0    0  501  502  0.00000000000E+00  0.00000000000E+00  0.19730796615E+03  0.19730796615E+03  0.00000000000E+00 0. -1.
         21   -1    0    0  502  503 -0.00000000000E+00 -0.00000000000E+00 -0.16287531383E+03  0.16287531383E+03  0.00000000000E+00 0. -1.
          6    1    1    2  501    0 -0.23061183500E+01 -0.45977313906E+02  0.38129535887E+02  0.18209089237E+03  0.17200000000E+03 0. -1.
         -6    1    1    2    0  503  0.23061183500E+01  0.45977313906E+02 -0.36968835665E+01  0.17809238761E+03  0.17200000000E+03 0. -1.
</event>
<event>
 4    1  0.4405880E+000  0.1831071E+03  0.7818608E-02  0.1164829E+00
         21   -1    0    0  501  502  0.00000000000E+00  0.00000000000E+00  0.36224260840E+03  0.36224260840E+03  0.00000000000E+00 0. -1.
         21   -1    0    0  502  503 -0.00000000000E+00 -0.00000000000E+00 -0.94987211134E+02  0.94987211134E+02  0.00000000000E+00 0. -1.
          6    1    1    2  501    0 -0.36014140508E+02  0.51450948262E+02  0.17019240517E+03  0.24998734602E+03  0.17200000000E+03 0. -1.
         -6    1    1    2    0  503  0.36014140508E+02 -0.51450948262E+02  0.97062992104E+02  0.20724247352E+03  0.17200000000E+03 0. -1.
</event>
<event>
 4    1  0.4405880E+000  0.1774513E+03  0.7818608E-02  0.1170293E+00
         21   -1    0    0  501  502  0.00000000000E+00  0.00000000000E+00  0.15403389144E+03  0.15403389144E+03  0.00000000000E+00 0.  1.
         21   -1    0    0  502  503 -0.00000000000E+00 -0.00000000000E+00 -0.41618935706E+03  0.41618935706E+03  0.00000000000E+00 0.  1.
          6    1    1    2  501    0  0.37499887596E+02  0.22331752687E+02  0.72294695096E+02  0.19161281713E+03  0.17200000000E+03 0.  1.
         -6    1    1    2    0  503 -0.37499887596E+02 -0.22331752687E+02 -0.33445016071E+03  0.37861043138E+03  0.17200000000E+03 0.  1.
</event>
<event>
 4    1  0.4405880E+000  0.2496345E+03  0.7818608E-02  0.1113536E+00
         21   -1    0    0  503  502  0.00000000000E+00  0.00000000000E+00  0.63799161185E+03  0.63799161185E+03  0.00000000000E+00 0.  1.
         21   -1    0    0  501  503 -0.00000000000E+00 -0.00000000000E+00 -0.11155559159E+03  0.11155559159E+03  0.00000000000E+00 0.  1.
          6    1    1    2  501    0  0.12655891225E+03  0.12929116988E+03  0.13103072408E+03  0.28193335300E+03  0.17200000000E+03 0.  1.
         -6    1    1    2    0  502 -0.12655891225E+03 -0.12929116988E+03  0.39540529617E+03  0.46761385044E+03  0.17200000000E+03 0.  1.
</event>
<event>
 4    1  0.4405880E+000  0.2081014E+03  0.7818608E-02  0.1143078E+00
         21   -1    0    0  501  502  0.00000000000E+00  0.00000000000E+00  0.27336246898E+03  0.27336246898E+03  0.00000000000E+00 0. -1.
         21   -1    0    0  502  503 -0.00000000000E+00 -0.00000000000E+00 -0.20489237112E+03  0.20489237112E+03  0.00000000000E+00 0. -1.
          6    1    1    2  501    0 -0.10109815780E+03  0.59172352231E+02  0.14811881143E+03  0.25543176600E+03  0.17200000000E+03 0.  1.
         -6    1    1    2    0  503  0.10109815780E+03 -0.59172352231E+02 -0.79648713573E+02  0.22282307410E+03  0.17200000000E+03 0.  1.
</event>
<event>
 4    1  0.4405880E+000  0.1745990E+03  0.7818608E-02  0.1173135E+00
         21   -1    0    0  501  502  0.00000000000E+00  0.00000000000E+00  0.33953316468E+03  0.33953316468E+03  0.00000000000E+00 0.  1.
         21   -1    0    0  502  503 -0.00000000000E+00 -0.00000000000E+00 -0.11808481346E+03  0.11808481346E+03  0.00000000000E+00 0.  1.
          6    1    1    2  501    0  0.35815331157E+01  0.29798932408E+02  0.22273808251E+03  0.28301423489E+03  0.17200000000E+03 0.  1.
         -6    1    1    2    0  503 -0.35815331157E+01 -0.29798932408E+02 -0.12897312888E+01  0.17460374326E+03  0.17200000000E+03 0.  1.
</event>
<event>
 4    1  0.4405880E+000  0.2669402E+03  0.7818608E-02  0.1103044E+00
         21   -1    0    0  501  502  0.00000000000E+00  0.00000000000E+00  0.35182888718E+03  0.35182888718E+03  0.00000000000E+00 0.  1.
         21   -1    0    0  502  503 -0.00000000000E+00 -0.00000000000E+00 -0.26805904968E+03  0.26805904968E+03  0.00000000000E+00 0.  1.
          6    1    1    2  501    0  0.32587235567E+02  0.20152207899E+03  0.19512552132E+03  0.33065245397E+03  0.17200000000E+03 0.  1.
         -6    1    1    2    0  503 -0.32587235567E+02 -0.20152207899E+03 -0.11135568383E+03  0.28923548289E+03  0.17200000000E+03 0.  1.
</event>
<event>
 4    1  0.4405880E+000  0.1935309E+03  0.7818608E-02  0.1155315E+00
         21   -1    0    0  503  502  0.00000000000E+00  0.00000000000E+00  0.26018410819E+03  0.26018410819E+03  0.00000000000E+00 0. -1.
         21   -1    0    0  501  503 -0.00000000000E+00 -0.00000000000E+00 -0.14397764021E+03  0.14397764021E+03  0.00000000000E+00 0. -1.
          6    1    1    2  501    0  0.87382512152E+02  0.15314122795E+02  0.60758613784E+02  0.20284436136E+03  0.17200000000E+03 0. -1.
         -6    1    1    2    0  502 -0.87382512152E+02 -0.15314122795E+02  0.55447854196E+02  0.20131738703E+03  0.17200000000E+03 0. -1.
</event>
<event>
 4    1  0.4405880E+000  0.2067225E+03  0.7818608E-02  0.1144188E+00
         21   -1    0    0  501  502  0.00000000000E+00  0.00000000000E+00  0.71104039403E+03  0.71104039403E+03  0.00000000000E+00 0.  1.
         21   -1    0    0  502  503 -0.00000000000E+00 -0.00000000000E+00 -0.10103107267E+03  0.10103107267E+03  0.00000000000E+00 0.  1.
          6    1    1    2  501    0  0.94448150014E+02 -0.65036509250E+02  0.56344381783E+03  0.60016925648E+03  0.17200000000E+03 0.  1.
         -6    1    1    2    0  503 -0.94448150014E+02  0.65036509250E+02  0.46565503524E+02  0.21190221022E+03  0.17200000000E+03 0.  1.
</event>
<event>
 4    1  0.4405880E+000  0.1833406E+03  0.7818608E-02  0.1164609E+00
         21   -1    0    0  503  502  0.00000000000E+00  0.00000000000E+00  0.41449987577E+03  0.41449987577E+03  0.00000000000E+00 0. -1.
         21   -1    0    0  501  503 -0.00000000000E+00 -0.00000000000E+00 -0.22559716277E+03  0.22559716277E+03  0.00000000000E+00 0. -1.
          6    1    1    2  501    0 -0.31908146175E+02  0.54878611861E+02 -0.16169397994E+03  0.24445599805E+03  0.17200000000E+03 0. -1.
         -6    1    1    2    0  502  0.31908146175E+02 -0.54878611861E+02  0.35059669294E+03  0.39564104050E+03  0.17200000000E+03 0. -1.
</event>
<event>
 4    1  0.4405880E+000  0.1756277E+03  0.7818608E-02  0.1172103E+00
         21   -1    0    0  503  502  0.00000000000E+00  0.00000000000E+00  0.76502790596E+02  0.76502790596E+02  0.00000000000E+00 0. -1.
         21   -1    0    0  501  503 -0.00000000000E+00 -0.00000000000E+00 -0.64379186864E+03  0.64379186864E+03  0.00000000000E+00 0. -1.
          6    1    1    2  501    0 -0.30278293045E+02  0.18555719972E+02 -0.50381435708E+03  0.53354849468E+03  0.17200000000E+03 0. -1.
         -6    1    1    2    0  502  0.30278293045E+02 -0.18555719972E+02 -0.63474720956E+02  0.18674616455E+03  0.17200000000E+03 0. -1.
</event>
<event>
 4    1  0.4405880E+000  0.2278228E+03  0.7818608E-02  0.1128182E+00
         21   -1    0    0  503  502  0.00000000000E+00  0.00000000000E+00  0.61495749263E+02  0.61495749263E+02  0.00000000000E+00 0. -1.
         21   -1    0    0  501  503 -0.00000000000E+00 -0.00000000000E+00 -0.87069134112E+03  0.87069134112E+03  0.00000000000E+00 0.  1.
          6    1    1    2  501    0 -0.14888317770E+03  0.12369676548E+02 -0.32301084668E+03  0.39527106721E+03  0.17200000000E+03 0.  1.
         -6    1    1    2    0  502  0.14888317770E+03 -0.12369676548E+02 -0.48618474517E+03  0.53691602317E+03  0.17200000000E+03 0. -1.
</event>
<event>
 4    1  0.4405880E+000  0.1722531E+03  0.7818608E-02  0.1175518E+00
         21   -1    0    0  503  502  0.00000000000E+00  0.00000000000E+00  0.77333155064E+02  0.77333155064E+02  0.00000000000E+00 0. -1.
         21   -1    0    0  501  503 -0.00000000000E+00 -0.00000000000E+00 -0.11968975124E+04  0.11968975124E+04  0.00000000000E+00 0. -1.
          6    1    1    2  501    0 -0.40256279259E+01  0.84218266761E+01 -0.10849439645E+04  0.10985329030E+04  0.17200000000E+03 0. -1.
         -6    1    1    2    0  502  0.40256279259E+01 -0.84218266761E+01 -0.34620392848E+02  0.17569776449E+03  0.17200000000E+03 0. -1.
</event>
<event>
 4    1  0.4405880E+000  0.2959111E+03  0.7818608E-02  0.1087303E+00
         21   -1    0    0  501  502  0.00000000000E+00  0.00000000000E+00  0.12436786870E+04  0.12436786870E+04  0.00000000000E+00 0. -1.
         21   -1    0    0  502  503 -0.00000000000E+00 -0.00000000000E+00 -0.71613548112E+02  0.71613548112E+02  0.00000000000E+00 0. -1.
          6    1    1    2  501    0 -0.59400755625E+02 -0.23334720128E+03  0.67140412090E+03  0.73372124112E+03  0.17200000000E+03 0. -1.
         -6    1    1    2    0  503  0.59400755625E+02  0.23334720128E+03  0.50066101795E+03  0.58157099395E+03  0.17200000000E+03 0. -1.
</event>
<event>
 4    1  0.4405880E+000  0.1867911E+03  0.7818608E-02  0.1161388E+00
         21   -1    0    0  503  502  0.00000000000E+00  0.00000000000E+00  0.31253509522E+03  0.31253509522E+03  0.00000000000E+00 0.  1.
         21   -1    0    0  501  503 -0.00000000000E+00 -0.00000000000E+00 -0.14602940485E+03  0.14602940485E+03  0.00000000000E+00 0.  1.
          6    1    1    2  501    0 -0.56196236669E+02  0.46356028586E+02 -0.28015878251E+02  0.18888035323E+03  0.17200000000E+03 0.  1.
         -6    1    1    2    0  502  0.56196236669E+02 -0.46356028586E+02  0.19452156862E+03  0.26968414685E+03  0.17200000000E+03 0.  1.
</event>
<event>
 4    1  0.4405880E+000  0.1836235E+03  0.7818608E-02  0.1164342E+00
         21   -1    0    0  503  502  0.00000000000E+00  0.00000000000E+00  0.37467576622E+03  0.37467576622E+03  0.00000000000E+00 0.  1.
         21   -1    0    0  501  503 -0.00000000000E+00 -0.00000000000E+00 -0.15532826274E+03  0.15532826274E+03  0.00000000000E+00 0.  1.
          6    1    1    2  501    0 -0.64284237847E+02 -0.10662435832E+01 -0.62197421533E+02  0.19387139902E+03  0.17200000000E+03 0.  1.
         -6    1    1    2    0  502  0.64284237847E+02  0.10662435832E+01  0.28154492502E+03  0.33613262995E+03  0.17200000000E+03 0.  1.
</event>
<event>
 4    1  0.4405880E+000  0.3158133E+03  0.7818608E-02  0.1077592E+00
         21   -1    0    0  501  502  0.00000000000E+00  0.00000000000E+00  0.28576114678E+03  0.28576114678E+03  0.00000000000E+00 0.  1.
         21   -1    0    0  502  503 -0.00000000000E+00 -0.00000000000E+00 -0.17418510754E+04  0.17418510754E+04  0.00000000000E+00 0. -1.
          6    1    1    2  501    0  0.26464109523E+03 -0.10915855320E+02  0.17851739974E+03  0.36277613922E+03  0.17200000000E+03 0.  1.
         -6    1    1    2    0  503 -0.26464109523E+03  0.10915855320E+02 -0.16346073283E+04  0.16648360829E+04  0.17200000000E+03 0. -1.
</event>
<event>
 4    1  0.4405880E+000  0.2028629E+03  0.7818608E-02  0.1147346E+00
         21   -1    0    0  501  502  0.00000000000E+00  0.00000000000E+00  0.20885811798E+03  0.20885811798E+03  0.00000000000E+00 0. -1.
         21   -1    0    0  502  503 -0.00000000000E+00 -0.00000000000E+00 -0.21420048115E+03  0.21420048115E+03  0.00000000000E+00 0. -1.
          6    1    1    2  501    0  0.57098669123E+02 -0.91154312092E+02  0.57201302673E+02  0.21077323278E+03  0.17200000000E+03 0. -1.
         -6    1    1    2    0  503 -0.57098669123E+02  0.91154312092E+02 -0.62543665849E+02  0.21228536635E+03  0.17200000000E+03 0. -1.
</event>
<event>
 4    1  0.4405880E+000  0.1933610E+03  0.7818608E-02  0.1155464E+00
         21   -1    0    0  501  502  0.00000000000E+00  0.00000000000E+00  0.22979907206E+03  0.22979907206E+03  0.00000000000E+00 0.  1.
         21   -1    0    0  502  503 -0.00000000000E+00 -0.00000000000E+00 -0.18218586263E+03  0.18218586263E+03  0.00000000000E+00 0. -1.
          6    1    1    2  501    0  0.48206426331E+02  0.74031076874E+02 -0.43560286346E+02  0.19820685767E+03  0.17200000000E+03 0. -1.
         -6    1    1    2    0  503 -0.48206426331E+02 -0.74031076874E+02  0.91173495774E+02  0.21377807702E+03  0.17200000000E+03 0.  1.
</event>
<event>
 4    1  0.4405880E+000  0.1784532E+03  0.7818608E-02  0.1169309E+00
         21   -1    0    0  501  502  0.00000000000E+00  0.00000000000E+00  0.15168572036E+03  0.15168572036E+03  0.00000000000E+00 0. -1.
         21   -1    0    0  502  503 -0.00000000000E+00 -0.00000000000E+00 -0.27017852605E+03  0.27017852605E+03  0.00000000000E+00 0. -1.
          6    1    1    2  501    0 -0.45717727883E+02  0.13093076824E+02  0.40348998988E+02  0.18295786680E+03  0.17200000000E+03 0. -1.
         -6    1    1    2    0  503  0.45717727883E+02 -0.13093076824E+02 -0.15884180468E+03  0.23890637961E+03  0.17200000000E+03 0. -1.
</event>
<event>
 4    1  0.4405880E+000  0.2097147E+03  0.7818608E-02  0.1141792E+00
         21   -1    0    0  501  502  0.00000000000E+00  0.00000000000E+00  0.20440297401E+04  0.20440297401E+04  0.00000000000E+00 0.  1.
         21   -1    0    0  502  503 -0.00000000000E+00 -0.00000000000E+00 -0.21519001317E+02  0.21519001317E+02  0.00000000000E+00 0.  1.
          6    1    1    2  501    0 -0.88240744767E+01  0.11965953212E+03  0.10224962665E+04  0.10437810513E+04  0.17200000000E+03 0.  1.
         -6    1    1    2    0  503  0.88240744767E+01 -0.11965953212E+03  0.10000144723E+04  0.10217676902E+04  0.17200000000E+03 0.  1.
</event>
<event>
 4    1  0.4405880E+000  0.1892287E+03  0.7818608E-02  0.1159159E+00
         21   -1    0    0  503  502  0.00000000000E+00  0.00000000000E+00  0.14656111052E+04  0.14656111052E+04  0.00000000000E+00 0.  1.
         21   -1    0    0  501  503 -0.00000000000E+00 -0.00000000000E+00 -0.33105950354E+02  0.33105950354E+02  0.00000000000E+00 0.  1.
          6    1    1    2  501    0 -0.49128597101E+02 -0.61724168114E+02  0.33267736759E+03  0.38272930759E+03  0.17200000000E+03 0. -1.
         -6    1    1    2    0  502  0.49128597101E+02  0.61724168114E+02  0.10998277873E+04  0.11159877480E+04  0.17200000000E+03 0. -1.
</event>
<event>
 4    1  0.4405880E+000  0.1740390E+03  0.7818608E-02  0.1173700E+00
         21   -1    0    0  503  502  0.00000000000E+00  0.00000000000E+00  0.67103187336E+03  0.67103187336E+03  0.00000000000E+00 0.  1.
         21   -1    0    0  501  503 -0.00000000000E+00 -0.00000000000E+00 -0.19920966570E+03  0.19920966570E+03  0.00000000000E+00 0.  1.
          6    1    1    2  501    0 -0.19174049613E+02 -0.18382706493E+02 -0.14675049646E+03  0.22765165558E+03  0.17200000000E+03 0.  1.
         -6    1    1    2    0  502  0.19174049613E+02  0.18382706493E+02  0.61857270412E+03  0.64258988349E+03  0.17200000000E+03 0.  1.
</event>
<event>
 4    1  0.4405880E+000  0.1841185E+03  0.7818608E-02  0.1163876E+00
         21   -1    0    0  503  502  0.00000000000E+00  0.00000000000E+00  0.67231834070E+03  0.67231834070E+03  0.00000000000E+00 0. -1.
         21   -1    0    0  501  503 -0.00000000000E+00 -0.00000000000E+00 -0.60873617709E+02  0.60873617709E+02  0.00000000000E+00 0. -1.
          6    1    1    2  501    0  0.58969693400E+02 -0.28951717927E+02  0.15381977569E+03  0.23991696502E+03  0.17200000000E+03 0. -1.
         -6    1    1    2    0  502 -0.58969693400E+02  0.28951717927E+02  0.45762494730E+03  0.49327499339E+03  0.17200000000E+03 0. -1.
</event>
<event>
 4    1  0.4405880E+000  0.2040522E+03  0.7818608E-02  0.1146365E+00
         21   -1    0    0  501  502  0.00000000000E+00  0.00000000000E+00  0.15265613241E+03  0.15265613241E+03  0.00000000000E+00 0. -1.
         21   -1    0    0  502  503 -0.00000000000E+00 -0.00000000000E+00 -0.28110573007E+03  0.28110573007E+03  0.00000000000E+00 0.  1.
          6    1    1    2  501    0 -0.10476474527E+03  0.32827293217E+02 -0.26837529922E+02  0.20580946539E+03  0.17200000000E+03 0. -1.
         -6    1    1    2    0  503  0.10476474527E+03 -0.32827293217E+02 -0.10161206774E+03  0.22795239710E+03  0.17200000000E+03 0.  1.
</event>
<event>
 4    1  0.4405880E+000  0.1982364E+03  0.7818608E-02  0.1151236E+00
         21   -1    0    0  501  502  0.00000000000E+00  0.00000000000E+00  0.82478544377E+02  0.82478544377E+02  0.00000000000E+00 0.  1.
         21   -1    0    0  502  503 -0.00000000000E+00 -0.00000000000E+00 -0.49363037521E+03  0.49363037521E+03  0.00000000000E+00 0.  1.
          6    1    1    2  501    0  0.30244015364E+02 -0.93802811036E+02 -0.15185137973E+03  0.24971285379E+03  0.17200000000E+03 0.  1.
         -6    1    1    2    0  503 -0.30244015364E+02  0.93802811036E+02 -0.25930045110E+03  0.32639606579E+03  0.17200000000E+03 0.  1.
</event>
<event>
 4    1  0.4405880E+000  0.2263013E+03  0.7818608E-02  0.1129270E+00
         21   -1    0    0  501  502  0.00000000000E+00  0.00000000000E+00  0.21598072596E+03  0.21598072596E+03  0.00000000000E+00 0. -1.
         21   -1    0    0  502  503 -0.00000000000E+00 -0.00000000000E+00 -0.24509669863E+03  0.24509669863E+03  0.00000000000E+00 0. -1.
          6    1    1    2  501    0  0.14469124065E+03  0.26319479071E+02  0.27044832934E+02  0.22791159051E+03  0.17200000000E+03 0. -1.
         -6    1    1    2    0  503 -0.14469124065E+03 -0.26319479071E+02 -0.56160805606E+02  0.23316583409E+03  0.17200000000E+03 0. -1.
</event>
<event>
 4    1  0.4405880E+000  0.1976246E+03  0.7818608E-02  0.1151759E+00
         21   -1    0    0  503  502  0.00000000000E+00  0.00000000000E+00  0.89231250084E+03  0.89231250084E+03  0.00000000000E+00 0. -1.
         21   -1    0    0  501  503 -0.00000000000E+00 -0.00000000000E+00 -0.44344523084E+02  0.44344523084E+02  0.00000000000E+00 0. -1.
          6    1    1    2  501    0 -0.84504619604E+02 -0.48274926875E+02  0.37062403052E+03  0.42002103674E+03  0.17200000000E+03 0. -1.
         -6    1    1    2    0  502  0.84504619604E+02  0.48274926875E+02  0.47734394723E+03  0.51663598719E+03  0.17200000000E+03 0. -1.
</event>
<event>
 4    1  0.4405880E+000  0.2384565E+03  0.7818608E-02  0.1120825E+00
         21   -1    0    0  503  502  0.00000000000E+00  0.00000000000E+00  0.82379806812E+03  0.82379806812E+03  0.00000000000E+00 0. -1.
         21   -1    0    0  501  503 -0.00000000000E+00 -0.00000000000E+00 -0.91889099281E+02  0.91889099281E+02  0.00000000000E+00 0.  1.
          6    1    1    2  501    0 -0.14288198387E+03  0.82838748877E+02  0.13756539696E+03  0.27529213224E+03  0.17200000000E+03 0. -1.
         -6    1    1    2    0  502  0.14288198387E+03 -0.82838748877E+02  0.59434357188E+03  0.64039503517E+03  0.17200000000E+03 0.  1.
</event>
<event>
 4    1  0.4405880E+000  0.1908464E+03  0.7818608E-02  0.1157700E+00
         21   -1    0    0  503  502  0.00000000000E+00  0.00000000000E+00  0.40303939710E+03  0.40303939710E+03  0.00000000000E+00 0.  1.
         21   -1    0    0  501  503 -0.00000000000E+00 -0.00000000000E+00 -0.17699624383E+03  0.17699624383E+03  0.00000000000E+00 0.  1.
          6    1    1    2  501    0  0.81074040775E+02 -0.16289469716E+02 -0.89872520717E+02  0.21094884899E+03  0.17200000000E+03 0.  1.
         -6    1    1    2    0  502 -0.81074040775E+02  0.16289469716E+02  0.31591567398E+03  0.36908679193E+03  0.17200000000E+03 0.  1.
</event>
<event>
 4    1  0.4405880E+000  0.1837998E+03  0.7818608E-02  0.1164175E+00
         21   -1    0    0  501  502  0.00000000000E+00  0.00000000000E+00  0.15124501494E+03  0.15124501494E+03  0.00000000000E+00 0.  1.
         21   -1    0    0  502  503 -0.00000000000E+00 -0.00000000000E+00 -0.28507667281E+03  0.28507667281E+03  0.00000000000E+00 0.  1.
          6    1    1    2  501    0  0.40926249656E+01  0.64665516683E+02  0.34589868956E+02  0.18702630206E+03  0.17200000000E+03 0.  1.
         -6    1    1    2    0  503 -0.40926249656E+01 -0.64665516683E+02 -0.16842152683E+03  0.24929538569E+03  0.17200000000E+03 0.  1.
</event>
<event>
 4    1  0.4405880E+000  0.1749521E+03  0.7818608E-02  0.1172780E+00
         21   -1    0    0  503  502  0.00000000000E+00  0.00000000000E+00  0.29791953937E+03  0.29791953937E+03  0.00000000000E+00 0. -1.
         21   -1    0    0  501  503 -0.00000000000E+00 -0.00000000000E+00 -0.24929170744E+03  0.24929170744E+03  0.00000000000E+00 0. -1.
          6    1    1    2  501    0 -0.24252673801E+02  0.20881332138E+02 -0.18546734902E+03  0.25496344791E+03  0.17200000000E+03 0. -1.
         -6    1    1    2    0  502  0.24252673801E+02 -0.20881332138E+02  0.23409518095E+03  0.29224779890E+03  0.17200000000E+03 0. -1.
</event>
<event>
 4    1  0.4405880E+000  0.2117650E+03  0.7818608E-02  0.1140176E+00
         21   -1    0    0  501  502  0.00000000000E+00  0.00000000000E+00  0.18833125314E+03  0.18833125314E+03  0.00000000000E+00 0. -1.
         21   -1    0    0  502  503 -0.00000000000E+00 -0.00000000000E+00 -0.24783558649E+03  0.24783558649E+03  0.00000000000E+00 0. -1.
          6    1    1    2  501    0 -0.80204951766E+02  0.93955176862E+02  0.13439239635E+02  0.21219100525E+03  0.17200000000E+03 0. -1.
         -6    1    1    2    0  503  0.80204951766E+02 -0.93955176862E+02 -0.72943572989E+02  0.22397583438E+03  0.17200000000E+03 0. -1.
</event>
<event>
 4    1  0.4405880E+000  0.1739655E+03  0.7818608E-02  0.1173774E+00
         21   -1    0    0  503  502  0.00000000000E+00  0.00000000000E+00  0.86566566907E+02  0.86566566907E+02  0.00000000000E+00 0. -1.
         21   -1    0    0  501  503 -0.00000000000E+00 -0.00000000000E+00 -0.41804319953E+03  0.41804319953E+03  0.00000000000E+00 0. -1.
          6    1    1    2  501    0  0.24142434101E+02 -0.98563014888E+01 -0.26782475597E+03  0.31936515732E+03  0.17200000000E+03 0. -1.
         -6    1    1    2    0  502 -0.24142434101E+02  0.98563014888E+01 -0.63651876653E+02  0.18524460911E+03  0.17200000000E+03 0. -1.
</event>
<event>
 4    1  0.4405880E+000  0.1811954E+03  0.7818608E-02  0.1166651E+00
         21   -1    0    0  501  502  0.00000000000E+00  0.00000000000E+00  0.72579008687E+03  0.72579008687E+03  0.00000000000E+00 0. -1.
         21   -1    0    0  502  503 -0.00000000000E+00 -0.00000000000E+00 -0.61271102461E+02  0.61271102461E+02  0.00000000000E+00 0. -1.
          6    1    1    2  501    0 -0.29998525936E+02 -0.48454772333E+02  0.53357986013E+03  0.56350620552E+03  0.17200000000E+03 0. -1.
         -6    1    1    2    0  503  0.29998525936E+02  0.48454772333E+02  0.13093912427E+03  0.22355498381E+03  0.17200000000E+03 0. -1.
</event>
<event>
 4    1  0.4405880E+000  0.2676473E+03  0.7818608E-02  0.1102634E+00
         21   -1    0    0  503  502  0.00000000000E+00  0.00000000000E+00  0.15785667363E+03  0.15785667363E+03  0.00000000000E+00 0.  1.
         21   -1    0    0  501  503 -0.00000000000E+00 -0.00000000000E+00 -0.14375989729E+04  0.14375989729E+04  0.00000000000E+00 0.  1.
          6    1    1    2  501    0 -0.69374428465E+02 -0.19297214964E+03 -0.12997883680E+04  0.13270587264E+04  0.17200000000E+03 0.  1.
         -6    1    1    2    0  502  0.69374428465E+02  0.19297214964E+03  0.20046068688E+02  0.26839692012E+03  0.17200000000E+03 0.  1.
</event>
<event>
 4    1  0.4405880E+000  0.2427495E+03  0.7818608E-02  0.1117975E+00
         21   -1    0    0  501  502  0.00000000000E+00  0.00000000000E+00  0.70944494046E+03  0.70944494046E+03  0.00000000000E+00 0. -1.
         21   -1    0    0  502  503 -0.00000000000E+00 -0.00000000000E+00 -0.96126609401E+02  0.96126609401E+02  0.00000000000E+00 0. -1.
          6    1    1    2  501    0 -0.15127703461E+03  0.80365247344E+02  0.45515511859E+03  0.51584251100E+03  0.17200000000E+03 0. -1.
         -6    1    1    2    0  503  0.15127703461E+03 -0.80365247344E+02  0.15816321247E+03  0.28972903886E+03  0.17200000000E+03 0. -1.
</event>
<event>
 4    1  0.4405880E+000  0.2253004E+03  0.7818608E-02  0.1129992E+00
         21   -1    0    0  503  502  0.00000000000E+00  0.00000000000E+00  0.32441300026E+02  0.32441300026E+02  0.00000000000E+00 0. -1.
         21   -1    0    0  501  503 -0.00000000000E+00 -0.00000000000E+00 -0.15839692224E+04  0.15839692224E+04  0.00000000000E+00 0.  1.
          6    1    1    2  501    0  0.10121302716E+03  0.10455704735E+03 -0.68657609559E+03  0.72259739001E+03  0.17200000000E+03 0. -1.
         -6    1    1    2    0  502 -0.10121302716E+03 -0.10455704735E+03 -0.86495182675E+03  0.89381313238E+03  0.17200000000E+03 0.  1.
</event>
<event>
 4    1  0.4405880E+000  0.2677574E+03  0.7818608E-02  0.1102570E+00
         21   -1    0    0  501  502  0.00000000000E+00  0.00000000000E+00  0.26005131042E+04  0.26005131042E+04  0.00000000000E+00 0.  1.
         21   -1    0    0  502  503 -0.00000000000E+00 -0.00000000000E+00 -0.58100870705E+02  0.58100870705E+02  0.00000000000E+00 0. -1.
          6    1    1    2  501    0 -0.83754786447E+02 -0.18733702999E+03  0.22348340002E+04  0.22508169707E+04  0.17200000000E+03 0.  1.
         -6    1    1    2    0  503  0.83754786447E+02  0.18733702999E+03  0.30757823330E+03  0.40779700423E+03  0.17200000000E+03 0. -1.
</event>
<event>
 4    1  0.4405880E+000  0.1996710E+03  0.7818608E-02  0.1150017E+00
         21   -1    0    0  503  502  0.00000000000E+00  0.00000000000E+00  0.15990181636E+03  0.15990181636E+03  0.00000000000E+00 0. -1.
         21   -1    0    0  501  503 -0.00000000000E+00 -0.00000000000E+00 -0.34673709102E+03  0.34673709102E+03  0.00000000000E+00 0.  1.
          6    1    1    2  501    0  0.10374103266E+02  0.10088056889E+03 -0.22768207941E+03  0.30283269388E+03  0.17200000000E+03 0.  1.
         -6    1    1    2    0  502 -0.10374103266E+02 -0.10088056889E+03  0.40846804752E+02  0.20380621349E+03  0.17200000000E+03 0. -1.
</event>
<event>
 4    1  0.4405880E+000  0.1919723E+03  0.7818608E-02  0.1156694E+00
         21   -1    0    0  501  502  0.00000000000E+00  0.00000000000E+00  0.43862964380E+03  0.43862964380E+03  0.00000000000E+00 0.  1.
         21   -1    0    0  502  503 -0.00000000000E+00 -0.00000000000E+00 -0.50235008187E+03  0.50235008187E+03  0.00000000000E+00 0.  1.
          6    1    1    2  501    0  0.18046018852E+02 -0.83328925169E+02  0.39748529314E+03  0.44141582077E+03  0.17200000000E+03 0.  1.
         -6    1    1    2    0  503 -0.18046018852E+02  0.83328925169E+02 -0.46120573122E+03  0.49956390489E+03  0.17200000000E+03 0.  1.
</event>
<event>
 4    1  0.4405880E+000  0.2091294E+03  0.7818608E-02  0.1142257E+00
         21   -1    0    0  501  502  0.00000000000E+00  0.00000000000E+00  0.86229430500E+03  0.86229430500E+03  0.00000000000E+00 0. -1.
         21   -1    0    0  502  503 -0.00000000000E+00 -0.00000000000E+00 -0.70399023960E+02  0.70399023960E+02  0.00000000000E+00 0.  1.
          6    1    1    2  501    0  0.81501139736E+01 -0.11867894680E+03  0.64251358750E+03  0.67569136955E+03  0.17200000000E+03 0. -1.
         -6    1    1    2    0  503 -0.81501139736E+01  0.11867894680E+03  0.14938169354E+03  0.25700195940E+03  0.17200000000E+03 0.  1.
</event>
<event>
 4    1  0.4405880E+000  0.1757571E+03  0.7818608E-02  0.1171974E+00
         21   -1    0    0  501  502  0.00000000000E+00  0.00000000000E+00  0.69564677718E+03  0.69564677718E+03  0.00000000000E+00 0.  1.
         21   -1    0    0  502  503 -0.00000000000E+00 -0.00000000000E+00 -0.61670177550E+02  0.61670177550E+02  0.00000000000E+00 0.  1.
          6    1    1    2  501    0 -0.18684895334E+02  0.30942250490E+02  0.51733824423E+03  0.54637844679E+03  0.17200000000E+03 0. -1.
         -6    1    1    2    0  503  0.18684895334E+02 -0.30942250490E+02  0.11663835540E+03  0.21093850793E+03  0.17200000000E+03 0. -1.
</event>
<event>
 4    1  0.4405880E+000  0.1823841E+03  0.7818608E-02  0.1165515E+00
         21   -1    0    0  501  502  0.00000000000E+00  0.00000000000E+00  0.22973338719E+03  0.22973338719E+03  0.00000000000E+00 0.  1.
         21   -1    0    0  502  503 -0.00000000000E+00 -0.00000000000E+00 -0.32187829651E+03  0.32187829651E+03  0.00000000000E+00 0.  1.
          6    1    1    2  501    0 -0.58191500117E+02 -0.17138168918E+02  0.15850034938E+03  0.24163263081E+03  0.17200000000E+03 0.  1.
         -6    1    1    2    0  503  0.58191500117E+02  0.17138168918E+02 -0.25064525870E+03  0.30997905288E+03  0.17200000000E+03 0.  1.
</event>
<event>
 4    1  0.4405880E+000  0.2100556E+03  0.7818608E-02  0.1141522E+00
         21   -1    0    0  503  502  0.00000000000E+00  0.00000000000E+00  0.19754713535E+03  0.19754713535E+03  0.00000000000E+00 0.  1.
         21   -1    0    0  501  503 -0.00000000000E+00 -0.00000000000E+00 -0.22815053035E+03  0.22815053035E+03  0.00000000000E+00 0.  1.
          6    1    1    2  501    0  0.31235139215E+02  0.11646346978E+03 -0.46156684748E+02  0.21506699714E+03  0.17200000000E+03 0.  1.
         -6    1    1    2    0  502 -0.31235139215E+02 -0.11646346978E+03  0.15553289748E+02  0.21063066856E+03  0.17200000000E+03 0.  1.
</event>
<event>
 4    1  0.4405880E+000  0.2029410E+03  0.7818608E-02  0.1147281E+00
         21   -1    0    0  501  502  0.00000000000E+00  0.00000000000E+00  0.40298853454E+02  0.40298853454E+02  0.00000000000E+00 0. -1.
         21   -1    0    0  502  503 -0.00000000000E+00 -0.00000000000E+00 -0.10984594065E+04  0.10984594065E+04  0.00000000000E+00 0. -1.
          6    1    1    2  501    0  0.31549677206E+02 -0.10298375513E+03 -0.37885166847E+03  0.42978322752E+03  0.17200000000E+03 0. -1.
         -6    1    1    2    0  503 -0.31549677206E+02  0.10298375513E+03 -0.67930888453E+03  0.70897503239E+03  0.17200000000E+03 0. -1.
</event>
<event>
 4    1  0.4405880E+000  0.1966678E+03  0.7818608E-02  0.1152581E+00
         21   -1    0    0  503  502  0.00000000000E+00  0.00000000000E+00  0.75732862231E+03  0.75732862231E+03  0.00000000000E+00 0.  1.
         21   -1    0    0  501  503 -0.00000000000E+00 -0.00000000000E+00 -0.19901710387E+03  0.19901710387E+03  0.00000000000E+00 0.  1.
          6    1    1    2  501    0 -0.40078804581E+02 -0.86532694734E+02 -0.13312223840E+03  0.23748631159E+03  0.17200000000E+03 0.  1.
         -6    1    1    2    0  502  0.40078804581E+02  0.86532694734E+02  0.69143375685E+03  0.71885941459E+03  0.17200000000E+03 0.  1.
</event>
<event>
 4    1  0.4405880E+000  0.2000827E+03  0.7818608E-02  0.1149669E+00
         21   -1    0    0  503  502  0.00000000000E+00  0.00000000000E+00  0.70032314847E+02  0.70032314847E+02  0.00000000000E+00 0. -1.
         21   -1    0    0  501  503 -0.00000000000E+00 -0.00000000000E+00 -0.57417842198E+03  0.57417842198E+03  0.00000000000E+00 0. -1.
          6    1    1    2  501    0 -0.10186609191E+03 -0.85068800743E+01 -0.27350227644E+03  0.33887543863E+03  0.17200000000E+03 0.  1.
         -6    1    1    2    0  502  0.10186609191E+03  0.85068800743E+01 -0.23064383070E+03  0.30533529820E+03  0.17200000000E+03 0.  1.
</event>
<event>
 4    1  0.4405880E+000  0.2094976E+03  0.7818608E-02  0.1141964E+00
         21   -1    0    0  501  502  0.00000000000E+00  0.00000000000E+00  0.39431799942E+03  0.39431799942E+03  0.00000000000E+00 0. -1.
         21   -1    0    0  502  503 -0.00000000000E+00 -0.00000000000E+00 -0.35180872200E+03  0.35180872200E+03  0.00000000000E+00 0.  1.
          6    1    1    2  501    0  0.37284814188E+02  0.11364455803E+03  0.32970901428E+03  0.39063701442E+03  0.17200000000E+03 0. -1.
         -6    1    1    2    0  503 -0.37284814188E+02 -0.11364455803E+03 -0.28719973685E+03  0.35548970701E+03  0.17200000000E+03 0.  1.
</event>
<event>
 4    1  0.4405880E+000  0.1809863E+03  0.7818608E-02  0.1166852E+00
         21   -1    0    0  501  502  0.00000000000E+00  0.00000000000E+00  0.83424274682E+03  0.83424274682E+03  0.00000000000E+00 0. -1.
         21   -1    0    0  502  503 -0.00000000000E+00 -0.00000000000E+00 -0.43588315499E+02  0.43588315499E+02  0.00000000000E+00 0. -1.
          6    1    1    2  501    0  0.22402980567E+02 -0.51673503280E+02  0.53356739544E+03  0.56342720023E+03  0.17200000000E+03 0.  1.
         -6    1    1    2    0  503 -0.22402980567E+02  0.51673503280E+02  0.25708703588E+03  0.31440386209E+03  0.17200000000E+03 0.  1.
</event>
<event>
 4    1  0.4405880E+000  0.2486173E+03  0.7818608E-02  0.1114182E+00
         21   -1    0    0  501  502  0.00000000000E+00  0.00000000000E+00  0.72751889567E+02  0.72751889567E+02  0.00000000000E+00 0.  1.
         21   -1    0    0  502  503 -0.00000000000E+00 -0.00000000000E+00 -0.89207856085E+03  0.89207856085E+03  0.00000000000E+00 0. -1.
          6    1    1    2  501    0 -0.12563179553E+03 -0.12823101065E+03 -0.30440250968E+03  0.39302853337E+03  0.17200000000E+03 0.  1.
         -6    1    1    2    0  503  0.12563179553E+03  0.12823101065E+03 -0.51492416160E+03  0.57180191705E+03  0.17200000000E+03 0. -1.
</event>
<event>
 4    1  0.4405880E+000  0.1841392E+03  0.7818608E-02  0.1163856E+00
         21   -1    0    0  501  502  0.00000000000E+00  0.00000000000E+00  0.32855700062E+03  0.32855700062E+03  0.00000000000E+00 0. -1.
         21   -1    0    0  502  503 -0.00000000000E+00 -0.00000000000E+00 -0.29129828098E+03  0.29129828098E+03  0.00000000000E+00 0. -1.
          6    1    1    2  501    0  0.65352541943E+02  0.72317588306E+01  0.26767741997E+03  0.32489760577E+03  0.17200000000E+03 0. -1.
         -6    1    1    2    0  503 -0.65352541943E+02 -0.72317588306E+01 -0.23041870032E+03  0.29495767583E+03  0.17200000000E+03 0. -1.
</event>
<event>
 4    1  0.4405880E+000  0.2030330E+03  0.7818608E-02  0.1147205E+00
         21   -1    0    0  503  502  0.00000000000E+00  0.00000000000E+00  0.95158898734E+03  0.95158898734E+03  0.00000000000E+00 0. -1.
         21   -1    0    0  501  503 -0.00000000000E+00 -0.00000000000E+00 -0.48146447823E+02  0.48146447823E+02  0.00000000000E+00 0. -1.
          6    1    1    2  501    0  0.83608912711E+02  0.68175975692E+02  0.29344832760E+03  0.35683936850E+03  0.17200000000E+03 0. -1.
         -6    1    1    2    0  502 -0.83608912711E+02 -0.68175975692E+02  0.60999421192E+03  0.64289606665E+03  0.17200000000E+03 0. -1.
</event>
<event>
 4    1  0.4405880E+000  0.1851423E+03  0.7818608E-02  0.1162917E+00
         21   -1    0    0  501  502  0.00000000000E+00  0.00000000000E+00  0.15636567064E+03  0.15636567064E+03  0.00000000000E+00 0.  1.
         21   -1    0    0  502  503 -0.00000000000E+00 -0.00000000000E+00 -0.22051937077E+03  0.22051937077E+03  0.00000000000E+00 0.  1.
          6    1    1    2  501    0  0.34755137765E+02 -0.59040323002E+02 -0.17583173167E+02  0.18597539439E+03  0.17200000000E+03 0.  1.
         -6    1    1    2    0  503 -0.34755137765E+02  0.59040323002E+02 -0.46570526959E+02  0.19090964701E+03  0.17200000000E+03 0.  1.
</event>
<event>
 4    1  0.4405880E+000  0.1966800E+03  0.7818608E-02  0.1152571E+00
         21   -1    0    0  501  502  0.00000000000E+00  0.00000000000E+00  0.49193831499E+03  0.49193831499E+03  0.00000000000E+00 0. -1.
         21   -1    0    0  502  503 -0.00000000000E+00 -0.00000000000E+00 -0.45847939375E+03  0.45847939375E+03  0.00000000000E+00 0. -1.
          6    1    1    2  501    0  0.85258999033E+02 -0.42777736421E+02  0.44927127619E+03  0.49043624587E+03  0.17200000000E+03 0. -1.
         -6    1    1    2    0  503 -0.85258999033E+02  0.42777736421E+02 -0.41581235496E+03  0.45998146287E+03  0.17200000000E+03 0. -1.
</event>
<event>
 4    1  0.4405880E+000  0.1949441E+03  0.7818608E-02  0.1154076E+00
         21   -1    0    0  503  502  0.00000000000E+00  0.00000000000E+00  0.37179777669E+03  0.37179777669E+03  0.00000000000E+00 0.  1.
         21   -1    0    0  501  503 -0.00000000000E+00 -0.00000000000E+00 -0.10230241016E+03  0.10230241016E+03  0.00000000000E+00 0.  1.
          6    1    1    2  501    0  0.83376691156E+02  0.38308570333E+02  0.14168645149E+03  0.24099433546E+03  0.17200000000E+03 0.  1.
         -6    1    1    2    0  502 -0.83376691156E+02 -0.38308570333E+02  0.12780891503E+03  0.23310585139E+03  0.17200000000E+03 0.  1.
</event>
<event>
 4    1  0.4405880E+000  0.1767687E+03  0.7818608E-02  0.1170967E+00
         21   -1    0    0  503  502  0.00000000000E+00  0.00000000000E+00  0.70827683087E+02  0.70827683087E+02  0.00000000000E+00 0.  1.
         21   -1    0    0  501  503 -0.00000000000E+00 -0.00000000000E+00 -0.49136430147E+03  0.49136430147E+03  0.00000000000E+00 0.  1.
          6    1    1    2  501    0 -0.30619438236E+02 -0.26937644628E+02 -0.30010870297E+03  0.34829932572E+03  0.17200000000E+03 0.  1.
         -6    1    1    2    0  502  0.30619438236E+02  0.26937644628E+02 -0.12042791542E+03  0.21389265884E+03  0.17200000000E+03 0.  1.
</event>
<event>
 4    1  0.4405880E+000  0.2856447E+03  0.7818608E-02  0.1092645E+00
         21   -1    0    0  503  502  0.00000000000E+00  0.00000000000E+00  0.22269580477E+03  0.22269580477E+03  0.00000000000E+00 0. -1.
         21   -1    0    0  501  503 -0.00000000000E+00 -0.00000000000E+00 -0.70403331390E+03  0.70403331390E+03  0.00000000000E+00 0.  1.
          6    1    1    2  501    0  0.10769590519E+03 -0.20102364505E+03 -0.56155937599E+03  0.63003321073E+03  0.17200000000E+03 0.  1.
         -6    1    1    2    0  502 -0.10769590519E+03  0.20102364505E+03  0.80221866866E+02  0.29669590794E+03  0.17200000000E+03 0. -1.
</event>
<event>
 4    1  0.4405880E+000  0.1726985E+03  0.7818608E-02  0.1175063E+00
         21   -1    0    0  503  502  0.00000000000E+00  0.00000000000E+00  0.30657087778E+03  0.30657087778E+03  0.00000000000E+00 0. -1.
         21   -1    0    0  501  503 -0.00000000000E+00 -0.00000000000E+00 -0.17156647291E+03  0.17156647291E+03  0.00000000000E+00 0. -1.
          6    1    1    2  501    0 -0.26724066967E+01 -0.15284969460E+02 -0.89804231594E+02  0.19465243913E+03  0.17200000000E+03 0. -1.
         -6    1    1    2    0  502  0.26724066967E+01  0.15284969460E+02  0.22480863647E+03  0.28348491155E+03  0.17200000000E+03 0. -1.
</event>
<event>
 4    1  0.4405880E+000  0.1844761E+03  0.7818608E-02  0.1163540E+00
         21   -1    0    0  503  502  0.00000000000E+00  0.00000000000E+00  0.21578490959E+03  0.21578490959E+03  0.00000000000E+00 0.  1.
         21   -1    0    0  501  503 -0.00000000000E+00 -0.00000000000E+00 -0.17733031221E+03  0.17733031221E+03  0.00000000000E+00 0. -1.
          6    1    1    2  501    0  0.13968055827E+02 -0.65209849242E+02 -0.46153721819E+02  0.19016202844E+03  0.17200000000E+03 0. -1.
         -6    1    1    2    0  502 -0.13968055827E+02  0.65209849242E+02  0.84608319200E+02  0.20295319337E+03  0.17200000000E+03 0. -1.
</event>
<event>
 4    1  0.4405880E+000  0.1749394E+03  0.7818608E-02  0.1172793E+00
         21   -1    0    0  501  502  0.00000000000E+00  0.00000000000E+00  0.90633341562E+02  0.90633341562E+02  0.00000000000E+00 0.  1.
         21   -1    0    0  502  503 -0.00000000000E+00 -0.00000000000E+00 -0.56055694403E+03  0.56055694403E+03  0.00000000000E+00 0.  1.
          6    1    1    2  501    0 -0.17611276407E+02  0.26639033616E+02 -0.29649821672E+02  0.17743423315E+03  0.17200000000E+03 0.  1.
         -6    1    1    2    0  503  0.17611276407E+02 -0.26639033616E+02 -0.44027378079E+03  0.47375605244E+03  0.17200000000E+03 0.  1.
</event>
<event>
 4    1  0.4405880E+000  0.2174046E+03  0.7818608E-02  0.1135833E+00
         21   -1    0    0  501  502  0.00000000000E+00  0.00000000000E+00  0.39081610710E+03  0.39081610710E+03  0.00000000000E+00 0.  1.
         21   -1    0    0  502  503 -0.00000000000E+00 -0.00000000000E+00 -0.13789745617E+03  0.13789745617E+03  0.00000000000E+00 0.  1.
          6    1    1    2  501    0  0.53499074330E+02  0.12173178705E+03  0.21916573310E+03  0.30870438529E+03  0.17200000000E+03 0.  1.
         -6    1    1    2    0  503 -0.53499074330E+02 -0.12173178705E+03  0.33752917835E+02  0.22000917798E+03  0.17200000000E+03 0.  1.
</event>
<event>
 4    1  0.4405880E+000  0.2038918E+03  0.7818608E-02  0.1146496E+00
         21   -1    0    0  501  502  0.00000000000E+00  0.00000000000E+00  0.33283048571E+02  0.33283048571E+02  0.00000000000E+00 0.  1.
         21   -1    0    0  502  503 -0.00000000000E+00 -0.00000000000E+00 -0.12774482070E+04  0.12774482070E+04  0.00000000000E+00 0. -1.
          6    1    1    2  501    0 -0.20752567360E+01 -0.10946936978E+03 -0.52435073931E+03  0.56259714488E+03  0.17200000000E+03 0. -1.
         -6    1    1    2    0  503  0.20752567360E+01  0.10946936978E+03 -0.71981441912E+03  0.74813411069E+03  0.17200000000E+03 0. -1.
</event>
<event>
 4    1  0.4405880E+000  0.2004402E+03  0.7818608E-02  0.1149368E+00
         21   -1    0    0  501  502  0.00000000000E+00  0.00000000000E+00  0.53989783563E+03  0.53989783563E+03  0.00000000000E+00 0.  1.
         21   -1    0    0  502  503 -0.00000000000E+00 -0.00000000000E+00 -0.13020915852E+03  0.13020915852E+03  0.00000000000E+00 0.  1.
          6    1    1    2  501    0  0.86076192393E+02  0.56419493037E+02  0.42416997279E+03  0.46914436574E+03  0.17200000000E+03 0.  1.
         -6    1    1    2    0  503 -0.86076192393E+02 -0.56419493037E+02 -0.14481295677E+02  0.20096262841E+03  0.17200000000E+03 0.  1.
</event>
<event>
 4    1  0.4405880E+000  0.2146383E+03  0.7818608E-02  0.1137945E+00
         21   -1    0    0  501  502  0.00000000000E+00  0.00000000000E+00  0.52700461178E+02  0.52700461178E+02  0.00000000000E+00 0.  1.
         21   -1    0    0  502  503 -0.00000000000E+00 -0.00000000000E+00 -0.96378267624E+03  0.96378267624E+03  0.00000000000E+00 0.  1.
          6    1    1    2  501    0 -0.62978505452E+02  0.11188976783E+03 -0.61051004307E+03  0.64714150306E+03  0.17200000000E+03 0.  1.
         -6    1    1    2    0  503  0.62978505452E+02 -0.11188976783E+03 -0.30057217200E+03  0.36934163436E+03  0.17200000000E+03 0.  1.
</event>
<event>
 4    1  0.4405880E+000  0.1918094E+03  0.7818608E-02  0.1156839E+00
         21   -1    0    0  501  502  0.00000000000E+00  0.00000000000E+00  0.42101191721E+03  0.42101191721E+03  0.00000000000E+00 0.  1.
         21   -1    0    0  502  503 -0.00000000000E+00 -0.00000000000E+00 -0.16440229567E+03  0.16440229567E+03  0.00000000000E+00 0.  1.
          6    1    1    2  501    0 -0.62560118164E+02  0.57385361786E+02  0.32864525237E+03  0.38052404660E+03  0.17200000000E+03 0.  1.
         -6    1    1    2    0  503  0.62560118164E+02 -0.57385361786E+02 -0.72035630834E+02  0.20489016629E+03  0.17200000000E+03 0.  1.
</event>
<event>
 4    1  0.4405880E+000  0.2235231E+03  0.7818608E-02  0.1131283E+00
         21   -1    0    0  503  502  0.00000000000E+00  0.00000000000E+00  0.12652639081E+03  0.12652639081E+03  0.00000000000E+00 0. -1.
         21   -1    0    0  501  503 -0.00000000000E+00 -0.00000000000E+00 -0.11270740932E+04  0.11270740932E+04  0.00000000000E+00 0.  1.
          6    1    1    2  501    0  0.10533945528E+03 -0.96344121834E+02 -0.10054773915E+04  0.10300229975E+04  0.17200000000E+03 0.  1.
         -6    1    1    2    0  502 -0.10533945528E+03  0.96344121834E+02  0.49296890480E+01  0.22357748653E+03  0.17200000000E+03 0. -1.
</event>
<event>
 4    1  0.4405880E+000  0.2395191E+03  0.7818608E-02  0.1120114E+00
         21   -1    0    0  501  502  0.00000000000E+00  0.00000000000E+00  0.15574687651E+03  0.15574687651E+03  0.00000000000E+00 0. -1.
         21   -1    0    0  502  503 -0.00000000000E+00 -0.00000000000E+00 -0.91768614748E+03  0.91768614748E+03  0.00000000000E+00 0.  1.
          6    1    1    2  501    0 -0.16625946037E+03 -0.11966378103E+02  0.34287261777E+02  0.24196077923E+03  0.17200000000E+03 0. -1.
         -6    1    1    2    0  503  0.16625946037E+03  0.11966378103E+02 -0.79622653275E+03  0.83147224477E+03  0.17200000000E+03 0.  1.
</event>
<event>
 4    1  0.4405880E+000  0.2452074E+03  0.7818608E-02  0.1116372E+00
         21   -1    0    0  501  502  0.00000000000E+00  0.00000000000E+00  0.26234795673E+03  0.26234795673E+03  0.00000000000E+00 0. -1.
         21   -1    0    0  502  503 -0.00000000000E+00 -0.00000000000E+00 -0.33090498713E+03  0.33090498713E+03  0.00000000000E+00 0. -1.
          6    1    1    2  501    0  0.16047252474E+03  0.69218802010E+02 -0.19873752736E+03  0.31563155503E+03  0.17200000000E+03 0. -1.
         -6    1    1    2    0  503 -0.16047252474E+03 -0.69218802010E+02  0.13018049696E+03  0.27762138883E+03  0.17200000000E+03 0. -1.
</event>
<event>
 4    1  0.4405880E+000  0.1736872E+03  0.7818608E-02  0.1174056E+00
         21   -1    0    0  501  502  0.00000000000E+00  0.00000000000E+00  0.25792713979E+03  0.25792713979E+03  0.00000000000E+00 0. -1.
         21   -1    0    0  502  503 -0.00000000000E+00 -0.00000000000E+00 -0.11701735816E+03  0.11701735816E+03  0.00000000000E+00 0. -1.
          6    1    1    2  501    0  0.20410850810E+02  0.12909559018E+02  0.74591246211E+02  0.18902675355E+03  0.17200000000E+03 0.  1.
         -6    1    1    2    0  503 -0.20410850810E+02 -0.12909559018E+02  0.66318535411E+02  0.18591774440E+03  0.17200000000E+03 0.  1.
</event>
<event>
 4    1  0.4405880E+000  0.3923156E+03  0.7818608E-02  0.1046473E+00
         21   -1    0    0  501  502  0.00000000000E+00  0.00000000000E+00  0.23769676709E+03  0.23769676709E+03  0.00000000000E+00 0.  1.
         21   -1    0    0  502  503 -0.00000000000E+00 -0.00000000000E+00 -0.74033636183E+03  0.74033636183E+03  0.00000000000E+00 0. -1.
          6    1    1    2  501    0  0.16135405833E+02  0.35223166486E+03 -0.42447682976E+03  0.57800698617E+03  0.17200000000E+03 0.  1.
         -6    1    1    2    0  503 -0.16135405833E+02 -0.35223166486E+03 -0.78162764976E+02  0.40002614275E+03  0.17200000000E+03 0. -1.
</event>
<event>
 4    1  0.4405880E+000  0.1901565E+03  0.7818608E-02  0.1158320E+00
         21   -1    0    0  503  502  0.00000000000E+00  0.00000000000E+00  0.61084943853E+02  0.61084943853E+02  0.00000000000E+00 0. -1.
         21   -1    0    0  501  503 -0.00000000000E+00 -0.00000000000E+00 -0.79454517071E+03  0.79454517071E+03  0.00000000000E+00 0.  1.
          6    1    1    2  501    0  0.22284743222E+02  0.77967203573E+02 -0.58275645710E+03  0.61299639713E+03  0.17200000000E+03 0.  1.
         -6    1    1    2    0  502 -0.22284743222E+02 -0.77967203573E+02 -0.15070376976E+03  0.24263371743E+03  0.17200000000E+03 0.  1.
</event>
<event>
 4    1  0.4405880E+000  0.1759499E+03  0.7818608E-02  0.1171781E+00
         21   -1    0    0  503  502  0.00000000000E+00  0.00000000000E+00  0.61604183031E+03  0.61604183031E+03  0.00000000000E+00 0.  1.
         21   -1    0    0  501  503 -0.00000000000E+00 -0.00000000000E+00 -0.14299659231E+03  0.14299659231E+03  0.00000000000E+00 0.  1.
          6    1    1    2  501    0  0.36640647685E+02  0.56433859847E+01  0.54216334685E+03  0.56999954345E+03  0.17200000000E+03 0.  1.
         -6    1    1    2    0  502 -0.36640647685E+02 -0.56433859847E+01 -0.69118108842E+02  0.18903887917E+03  0.17200000000E+03 0.  1.
</event>
<event>
 4    1  0.4405880E+000  0.2136908E+03  0.7818608E-02  0.1138676E+00
         21   -1    0    0  501  502  0.00000000000E+00  0.00000000000E+00  0.69296049700E+02  0.69296049700E+02  0.00000000000E+00 0.  1.
         21   -1    0    0  502  503 -0.00000000000E+00 -0.00000000000E+00 -0.71624242225E+03  0.71624242225E+03  0.00000000000E+00 0.  1.
          6    1    1    2  501    0 -0.62708378282E+01 -0.12665086454E+03 -0.21240387974E+03  0.30129582311E+03  0.17200000000E+03 0.  1.
         -6    1    1    2    0  503  0.62708378282E+01  0.12665086454E+03 -0.43454249281E+03  0.48424264884E+03  0.17200000000E+03 0.  1.
</event>
<event>
 4    1  0.4405880E+000  0.1807950E+03  0.7818608E-02  0.1167036E+00
         21   -1    0    0  503  502  0.00000000000E+00  0.00000000000E+00  0.11888477151E+04  0.11888477151E+04  0.00000000000E+00 0. -1.
         21   -1    0    0  501  503 -0.00000000000E+00 -0.00000000000E+00 -0.56332938724E+02  0.56332938724E+02  0.00000000000E+00 0. -1.
          6    1    1    2  501    0 -0.53078886424E+02 -0.16895195168E+02  0.12079938154E+03  0.21743805183E+03  0.17200000000E+03 0. -1.
         -6    1    1    2    0  502  0.53078886424E+02  0.16895195168E+02  0.10117153949E+04  0.10277426020E+04  0.17200000000E+03 0. -1.
</event>
<event>
 4    1  0.4405880E+000  0.2019023E+03  0.7818608E-02  0.1148144E+00
         21   -1    0    0  503  502  0.00000000000E+00  0.00000000000E+00  0.89697012387E+02  0.89697012387E+02  0.00000000000E+00 0. -1.
         21   -1    0    0  501  503 -0.00000000000E+00 -0.00000000000E+00 -0.16100501143E+04  0.16100501143E+04  0.00000000000E+00 0. -1.
          6    1    1    2  501    0  0.10375626548E+03  0.20375958477E+02 -0.14801803307E+04  0.14938869949E+04  0.17200000000E+03 0. -1.
         -6    1    1    2    0  502 -0.10375626548E+03 -0.20375958477E+02 -0.40172771275E+02  0.20586013179E+03  0.17200000000E+03 0. -1.
</event>
<event>
 4    1  0.4405880E+000  0.1784384E+03  0.7818608E-02  0.1169323E+00
         21   -1    0    0  503  502  0.00000000000E+00  0.00000000000E+00  0.60812024953E+03  0.60812024953E+03  0.00000000000E+00 0.  1.
         21   -1    0    0  501  503 -0.00000000000E+00 -0.00000000000E+00 -0.52744161651E+02  0.52744161651E+02  0.00000000000E+00 0.  1.
          6    1    1    2  501    0  0.25772574414E+02  0.39900408865E+02  0.24943309204E+03  0.30668735811E+03  0.17200000000E+03 0. -1.
         -6    1    1    2    0  502 -0.25772574414E+02 -0.39900408865E+02  0.30594299583E+03  0.35417705307E+03  0.17200000000E+03 0. -1.
</event>
<event>
 4    1  0.4405880E+000  0.1826129E+03  0.7818608E-02  0.1165298E+00
         21   -1    0    0  503  502  0.00000000000E+00  0.00000000000E+00  0.15897611988E+03  0.15897611988E+03  0.00000000000E+00 0.  1.
         21   -1    0    0  501  503 -0.00000000000E+00 -0.00000000000E+00 -0.21307996849E+03  0.21307996849E+03  0.00000000000E+00 0.  1.
          6    1    1    2  501    0 -0.55821841421E+02  0.25443614876E+02 -0.38450335565E+01  0.18265333230E+03  0.17200000000E+03 0.  1.
         -6    1    1    2    0  502  0.55821841421E+02 -0.25443614876E+02 -0.50258815049E+02  0.18940275607E+03  0.17200000000E+03 0.  1.
</event>
<event>
 4    1  0.4405880E+000  0.2333282E+03  0.7818608E-02  0.1124319E+00
         21   -1    0    0  503  502  0.00000000000E+00  0.00000000000E+00  0.10630181388E+03  0.10630181388E+03  0.00000000000E+00 0.  1.
         21   -1    0    0  501  503 -0.00000000000E+00 -0.00000000000E+00 -0.85957411267E+03  0.85957411267E+03  0.00000000000E+00 0. -1.
          6    1    1    2  501    0  0.40356512585E+02 -0.15241190366E+03 -0.68366715371E+03  0.72238688633E+03  0.17200000000E+03 0. -1.
         -6    1    1    2    0  502 -0.40356512585E+02  0.15241190366E+03 -0.69605145082E+02  0.24348904022E+03  0.17200000000E+03 0.  1.
</event>
<event>
 4    1  0.4405880E+000  0.1941637E+03  0.7818608E-02  0.1154759E+00
         21   -1    0    0  501  502  0.00000000000E+00  0.00000000000E+00  0.47783981139E+02  0.47783981139E+02  0.00000000000E+00 0. -1.
         21   -1    0    0  502  503 -0.00000000000E+00 -0.00000000000E+00 -0.14774787780E+04  0.14774787780E+04  0.00000000000E+00 0.  1.
          6    1    1    2  501    0 -0.47738225864E+02 -0.76397609504E+02 -0.19423715275E+03  0.27464086450E+03  0.17200000000E+03 0. -1.
         -6    1    1    2    0  503  0.47738225864E+02  0.76397609504E+02 -0.12354576441E+04  0.12506218946E+04  0.17200000000E+03 0.  1.
</event>
<event>
 4    1  0.4405880E+000  0.2630608E+03  0.7818608E-02  0.1105318E+00
         21   -1    0    0  501  502  0.00000000000E+00  0.00000000000E+00  0.20101330212E+03  0.20101330212E+03  0.00000000000E+00 0.  1.
         21   -1    0    0  502  503 -0.00000000000E+00 -0.00000000000E+00 -0.42620593027E+03  0.42620593027E+03  0.00000000000E+00 0. -1.
          6    1    1    2  501    0 -0.21619434695E+02  0.19786251622E+03  0.24915980937E+02  0.26423811494E+03  0.17200000000E+03 0.  1.
         -6    1    1    2    0  503  0.21619434695E+02 -0.19786251622E+03 -0.25010860909E+03  0.36298111745E+03  0.17200000000E+03 0. -1.
</event>
<event>
 4    1  0.4405880E+000  0.1805752E+03  0.7818608E-02  0.1167248E+00
         21   -1    0    0  501  502  0.00000000000E+00  0.00000000000E+00  0.25122662672E+03  0.25122662672E+03  0.00000000000E+00 0. -1.
         21   -1    0    0  502  503 -0.00000000000E+00 -0.00000000000E+00 -0.22754414587E+03  0.22754414587E+03  0.00000000000E+00 0. -1.
          6    1    1    2  501    0  0.30645748745E+01 -0.54900083340E+02  0.16874239649E+03  0.24714652970E+03  0.17200000000E+03 0. -1.
         -6    1    1    2    0  503 -0.30645748745E+01  0.54900083340E+02 -0.14505991564E+03  0.23162424289E+03  0.17200000000E+03 0. -1.
</event>
<event>
 4    1  0.4405880E+000  0.4167060E+03  0.7818608E-02  0.1038144E+00
         21   -1    0    0  501  502  0.00000000000E+00  0.00000000000E+00  0.46334415138E+03  0.46334415138E+03  0.00000000000E+00 0.  1.
         21   -1    0    0  502  503 -0.00000000000E+00 -0.00000000000E+00 -0.42376756709E+03  0.42376756709E+03  0.00000000000E+00 0. -1.
          6    1    1    2  501    0  0.10399932772E+03 -0.36502610732E+03  0.17062458486E+03  0.45028509652E+03  0.17200000000E+03 0.  1.
         -6    1    1    2    0  503 -0.10399932772E+03  0.36502610732E+03 -0.13104800058E+03  0.43682662195E+03  0.17200000000E+03 0. -1.
</event>
<event>
 4    1  0.4405880E+000  0.2056020E+03  0.7818608E-02  0.1145097E+00
         21   -1    0    0  503  502  0.00000000000E+00  0.00000000000E+00  0.11134410128E+03  0.11134410128E+03  0.00000000000E+00 0. -1.
         21   -1    0    0  501  503 -0.00000000000E+00 -0.00000000000E+00 -0.71176948672E+03  0.71176948672E+03  0.00000000000E+00 0.  1.
          6    1    1    2  501    0 -0.33552769914E+02 -0.10752860387E+03 -0.58134121962E+03  0.61662776669E+03  0.17200000000E+03 0.  1.
         -6    1    1    2    0  502  0.33552769914E+02  0.10752860387E+03 -0.19084165825E+02  0.20648582131E+03  0.17200000000E+03 0. -1.
</event>
<event>
 4    1  0.4405880E+000  0.1809914E+03  0.7818608E-02  0.1166847E+00
         21   -1    0    0  501  502  0.00000000000E+00  0.00000000000E+00  0.10597483008E+03  0.10597483008E+03  0.00000000000E+00 0. -1.
         21   -1    0    0  502  503 -0.00000000000E+00 -0.00000000000E+00 -0.34396647920E+03  0.34396647920E+03  0.00000000000E+00 0. -1.
          6    1    1    2  501    0 -0.53133812309E+02 -0.18726206682E+02 -0.47379838521E+02  0.18709014385E+03  0.17200000000E+03 0. -1.
         -6    1    1    2    0  503  0.53133812309E+02  0.18726206682E+02 -0.19061181061E+03  0.26285116543E+03  0.17200000000E+03 0. -1.
</event>
<event>
 4    1  0.4405880E+000  0.1909776E+03  0.7818608E-02  0.1157583E+00
         21   -1    0    0  503  502  0.00000000000E+00  0.00000000000E+00  0.95742703457E+03  0.95742703457E+03  0.00000000000E+00 0.  1.
         21   -1    0    0  501  503 -0.00000000000E+00 -0.00000000000E+00 -0.82047194909E+02  0.82047194909E+02  0.00000000000E+00 0.  1.
          6    1    1    2  501    0  0.80856356045E+02 -0.18726571206E+02  0.57285103745E+02  0.19938409639E+03  0.17200000000E+03 0.  1.
         -6    1    1    2    0  502 -0.80856356045E+02  0.18726571206E+02  0.81809473591E+03  0.84009013309E+03  0.17200000000E+03 0.  1.
</event>
<event>
 4    1  0.4405880E+000  0.2228064E+03  0.7818608E-02  0.1131808E+00
         21   -1    0    0  501  502  0.00000000000E+00  0.00000000000E+00  0.68430066238E+03  0.68430066238E+03  0.00000000000E+00 0. -1.
         21   -1    0    0  502  503 -0.00000000000E+00 -0.00000000000E+00 -0.26844940995E+03  0.26844940995E+03  0.00000000000E+00 0.  1.
          6    1    1    2  501    0  0.11482148033E+03  0.82913816298E+02  0.61487439765E+03  0.65399785792E+03  0.17200000000E+03 0. -1.
         -6    1    1    2    0  503 -0.11482148033E+03 -0.82913816298E+02 -0.19902314522E+03  0.29875221441E+03  0.17200000000E+03 0.  1.
</event>
<event>
 4    1  0.4405880E+000  0.2144023E+03  0.7818608E-02  0.1138127E+00
         21   -1    0    0  503  502  0.00000000000E+00  0.00000000000E+00  0.13506062094E+03  0.13506062094E+03  0.00000000000E+00 0.  1.
         21   -1    0    0  501  503 -0.00000000000E+00 -0.00000000000E+00 -0.40278835975E+03  0.40278835975E+03  0.00000000000E+00 0.  1.
          6    1    1    2  501    0 -0.10410032203E+03  0.74481320893E+02 -0.23974187403E+03  0.32162790670E+03  0.17200000000E+03 0.  1.
         -6    1    1    2    0  502  0.10410032203E+03 -0.74481320893E+02 -0.27985864777E+02  0.21622107399E+03  0.17200000000E+03 0.  1.
</event>
<event>
 4    1  0.4405880E+000  0.1950398E+03  0.7818608E-02  0.1153993E+00
         21   -1    0    0  503  502  0.00000000000E+00  0.00000000000E+00  0.24958151693E+02  0.24958151693E+02  0.00000000000E+00 0. -1.
         21   -1    0    0  501  503 -0.00000000000E+00 -0.00000000000E+00 -0.16764611799E+04  0.16764611799E+04  0.00000000000E+00 0. -1.
          6    1    1    2  501    0 -0.89697326563E+02  0.20271351427E+02 -0.10821514298E+04  0.10995873112E+04  0.17200000000E+03 0. -1.
         -6    1    1    2    0  502  0.89697326563E+02 -0.20271351427E+02 -0.56935159841E+03  0.60183202033E+03  0.17200000000E+03 0. -1.
</event>
<event>
 4    1  0.4405880E+000  0.3084205E+03  0.7818608E-02  0.1081105E+00
         21   -1    0    0  503  502  0.00000000000E+00  0.00000000000E+00  0.30715813561E+03  0.30715813561E+03  0.00000000000E+00 0.  1.
         21   -1    0    0  501  503 -0.00000000000E+00 -0.00000000000E+00 -0.49106427283E+03  0.49106427283E+03  0.00000000000E+00 0. -1.
          6    1    1    2  501    0  0.56095106942E+01 -0.25594481704E+03 -0.33451066532E+03  0.45499516612E+03  0.17200000000E+03 0. -1.
         -6    1    1    2    0  502 -0.56095106942E+01  0.25594481704E+03  0.15060452810E+03  0.34322724231E+03  0.17200000000E+03 0. -1.
</event>
<event>
 4    1  0.4405880E+000  0.1956293E+03  0.7818608E-02  0.1153480E+00
         21   -1    0    0  503  502  0.00000000000E+00  0.00000000000E+00  0.78802151375E+02  0.78802151375E+02  0.00000000000E+00 0. -1.
         21   -1    0    0  501  503 -0.00000000000E+00 -0.00000000000E+00 -0.72344235242E+03  0.72344235242E+03  0.00000000000E+00 0.  1.
          6    1    1    2  501    0 -0.81206938906E+02  0.45741395968E+02 -0.55228790554E+03  0.58591191559E+03  0.17200000000E+03 0.  1.
         -6    1    1    2    0  502  0.81206938906E+02 -0.45741395968E+02 -0.92352295504E+02  0.21633258820E+03  0.17200000000E+03 0. -1.
</event>
<event>
 4    1  0.4405880E+000  0.2089392E+03  0.7818608E-02  0.1142409E+00
         21   -1    0    0  501  502  0.00000000000E+00  0.00000000000E+00  0.84796859118E+03  0.84796859118E+03  0.00000000000E+00 0. -1.
         21   -1    0    0  502  503 -0.00000000000E+00 -0.00000000000E+00 -0.54640181218E+03  0.54640181218E+03  0.00000000000E+00 0. -1.
          6    1    1    2  501    0  0.12942426274E+02 -0.11791558353E+03  0.81431141380E+03  0.84068940155E+03  0.17200000000E+03 0. -1.
         -6    1    1    2    0  503 -0.12942426274E+02  0.11791558353E+03 -0.51274463481E+03  0.55368100181E+03  0.17200000000E+03 0. -1.
</event>
<event>
 4    1  0.4405880E+000  0.2624816E+03  0.7818608E-02  0.1105661E+00
         21   -1    0    0  503  502  0.00000000000E+00  0.00000000000E+00  0.71069019842E+03  0.71069019842E+03  0.00000000000E+00 0. -1.
         21   -1    0    0  501  503 -0.00000000000E+00 -0.00000000000E+00 -0.97542991894E+02  0.97542991894E+02  0.00000000000E+00 0. -1.
          6    1    1    2  501    0 -0.19276384417E+03 -0.46418752393E+02  0.33826195863E+03  0.42815622481E+03  0.17200000000E+03 0. -1.
         -6    1    1    2    0  502  0.19276384417E+03  0.46418752393E+02  0.27488524790E+03  0.38007696550E+03  0.17200000000E+03 0. -1.
</event>
<event>
 4    1  0.4405880E+000  0.3893017E+03  0.7818608E-02  0.1047548E+00
         21   -1    0    0  501  502  0.00000000000E+00  0.00000000000E+00  0.87265808360E+03  0.87265808360E+03  0.00000000000E+00 0. -1.
         21   -1    0    0  502  503 -0.00000000000E+00 -0.00000000000E+00 -0.17491298946E+03  0.17491298946E+03  0.00000000000E+00 0.  1.
          6    1    1    2  501    0  0.88984015800E+02 -0.33771831991E+03  0.39300092227E+03  0.55317767812E+03  0.17200000000E+03 0. -1.
         -6    1    1    2    0  503 -0.88984015800E+02  0.33771831991E+03  0.30474417187E+03  0.49439339494E+03  0.17200000000E+03 0.  1.
</event>
<event>
 4    1  0.4405880E+000  0.1942400E+03  0.7818608E-02  0.1154692E+00
         21   -1    0    0  501  502  0.00000000000E+00  0.00000000000E+00  0.40497742968E+03  0.40497742968E+03  0.00000000000E+00 0.  1.
         21   -1    0    0  502  503 -0.00000000000E+00 -0.00000000000E+00 -0.94443848000E+02  0.94443848000E+02  0.00000000000E+00 0.  1.
          6    1    1    2  501    0 -0.84796953319E+02 -0.30897315351E+02  0.18433994730E+03  0.26778794513E+03  0.17200000000E+03 0. -1.
         -6    1    1    2    0  503  0.84796953319E+02  0.30897315351E+02  0.12619363438E+03  0.23163333255E+03  0.17200000000E+03 0. -1.
</event>
<event>
 4    1  0.4405880E+000  0.2033001E+03  0.7818608E-02  0.1146984E+00
         21   -1    0    0  501  502  0.00000000000E+00  0.00000000000E+00  0.50561597595E+03  0.50561597595E+03  0.00000000000E+00 0. -1.
         21   -1    0    0  502  503 -0.00000000000E+00 -0.00000000000E+00 -0.22108995795E+03  0.22108995795E+03  0.00000000000E+00 0. -1.
          6    1    1    2  501    0 -0.76211263438E+02 -0.77063490971E+02  0.43072712966E+03  0.47629486512E+03  0.17200000000E+03 0. -1.
         -6    1    1    2    0  503  0.76211263438E+02  0.77063490971E+02 -0.14620111166E+03  0.25041106878E+03  0.17200000000E+03 0. -1.
</event>
<event>
 4    1  0.4405880E+000  0.2390642E+03  0.7818608E-02  0.1120418E+00
         21   -1    0    0  503  502  0.00000000000E+00  0.00000000000E+00  0.21831796765E+03  0.21831796765E+03  0.00000000000E+00 0.  1.
         21   -1    0    0  501  503 -0.00000000000E+00 -0.00000000000E+00 -0.27850012750E+03  0.27850012750E+03  0.00000000000E+00 0. -1.
          6    1    1    2  501    0  0.12834742482E+03  0.10533114382E+03 -0.90953427379E+02  0.25578162027E+03  0.17200000000E+03 0.  1.
         -6    1    1    2    0  502 -0.12834742482E+03 -0.10533114382E+03  0.30771267534E+02  0.24103647488E+03  0.17200000000E+03 0.  1.
</event>
<event>
 4    1  0.4405880E+000  0.1989692E+03  0.7818608E-02  0.1150612E+00
         21   -1    0    0  503  502  0.00000000000E+00  0.00000000000E+00  0.59646735270E+02  0.59646735270E+02  0.00000000000E+00 0.  1.
         21   -1    0    0  501  503 -0.00000000000E+00 -0.00000000000E+00 -0.91677871123E+03  0.91677871123E+03  0.00000000000E+00 0.  1.
          6    1    1    2  501    0 -0.91969574643E+02 -0.39323635423E+02 -0.68506588441E+03  0.71337508853E+03  0.17200000000E+03 0.  1.
         -6    1    1    2    0  502  0.91969574643E+02  0.39323635423E+02 -0.17206609155E+03  0.26305035796E+03  0.17200000000E+03 0.  1.
</event>
<event>
 4    1  0.4405880E+000  0.2805188E+03  0.7818608E-02  0.1095406E+00
         21   -1    0    0  501  502  0.00000000000E+00  0.00000000000E+00  0.16637233666E+03  0.16637233666E+03  0.00000000000E+00 0.  1.
         21   -1    0    0  502  503 -0.00000000000E+00 -0.00000000000E+00 -0.47373916649E+03  0.47373916649E+03  0.00000000000E+00 0. -1.
          6    1    1    2  501    0  0.18891439778E+03 -0.11583664482E+03 -0.16649613638E+03  0.32620812590E+03  0.17200000000E+03 0.  1.
         -6    1    1    2    0  503 -0.18891439778E+03  0.11583664482E+03 -0.14087069345E+03  0.31390337725E+03  0.17200000000E+03 0. -1.
</event>
<event>
 4    1  0.4405880E+000  0.1945410E+03  0.7818608E-02  0.1154428E+00
         21   -1    0    0  501  502  0.00000000000E+00  0.00000000000E+00  0.11646246865E+03  0.11646246865E+03  0.00000000000E+00 0. -1.
         21   -1    0    0  502  503 -0.00000000000E+00 -0.00000000000E+00 -0.44755048871E+03  0.44755048871E+03  0.00000000000E+00 0. -1.
          6    1    1    2  501    0 -0.61768120202E+02  0.66684943939E+02 -0.17953557615E+02  0.19536763461E+03  0.17200000000E+03 0. -1.
         -6    1    1    2    0  503  0.61768120202E+02 -0.66684943939E+02 -0.31313446244E+03  0.36864532276E+03  0.17200000000E+03 0. -1.
</event>
<event>
 4    1  0.4405880E+000  0.1723664E+03  0.7818608E-02  0.1175402E+00
         21   -1    0    0  503  502  0.00000000000E+00  0.00000000000E+00  0.12123302220E+03  0.12123302220E+03  0.00000000000E+00 0.  1.
         21   -1    0    0  501  503 -0.00000000000E+00 -0.00000000000E+00 -0.47155200223E+03  0.47155200223E+03  0.00000000000E+00 0.  1.
          6    1    1    2  501    0  0.10260909671E+02  0.45701020838E+01 -0.38056991414E+03  0.41778419267E+03  0.17200000000E+03 0.  1.
         -6    1    1    2    0  502 -0.10260909671E+02 -0.45701020838E+01  0.30250934111E+02  0.17500083175E+03  0.17200000000E+03 0.  1.
</event>
<event>
 4    1  0.4405880E+000  0.2106286E+03  0.7818608E-02  0.1141069E+00
         21   -1    0    0  503  502  0.00000000000E+00  0.00000000000E+00  0.18072721984E+03  0.18072721984E+03  0.00000000000E+00 0.  1.
         21   -1    0    0  501  503 -0.00000000000E+00 -0.00000000000E+00 -0.26537194145E+03  0.26537194145E+03  0.00000000000E+00 0. -1.
          6    1    1    2  501    0 -0.44270642140E+02 -0.11322774644E+03 -0.10339448616E+03  0.23463766127E+03  0.17200000000E+03 0.  1.
         -6    1    1    2    0  502  0.44270642140E+02  0.11322774644E+03  0.18749764547E+02  0.21146150002E+03  0.17200000000E+03 0. -1.
</event>
<event>
 4    1  0.4405880E+000  0.2249981E+03  0.7818608E-02  0.1130211E+00
         21   -1    0    0  501  502  0.00000000000E+00  0.00000000000E+00  0.86990768204E+02  0.86990768204E+02  0.00000000000E+00 0. -1.
         21   -1    0    0  502  503 -0.00000000000E+00 -0.00000000000E+00 -0.69883160103E+03  0.69883160103E+03  0.00000000000E+00 0. -1.
          6    1    1    2  501    0  0.14056764056E+03 -0.35789133681E+02 -0.14523203119E+03  0.26779930273E+03  0.17200000000E+03 0. -1.
         -6    1    1    2    0  503 -0.14056764056E+03  0.35789133681E+02 -0.46660880164E+03  0.51802306650E+03  0.17200000000E+03 0. -1.
</event>
<event>
 4    1  0.4405880E+000  0.2060211E+03  0.7818608E-02  0.1144756E+00
         21   -1    0    0  503  502  0.00000000000E+00  0.00000000000E+00  0.24936337058E+03  0.24936337058E+03  0.00000000000E+00 0.  1.
         21   -1    0    0  501  503 -0.00000000000E+00 -0.00000000000E+00 -0.21659027446E+03  0.21659027446E+03  0.00000000000E+00 0. -1.
          6    1    1    2  501    0 -0.35571508685E+02 -0.10768171659E+03  0.12419421960E+03  0.24055953213E+03  0.17200000000E+03 0.  1.
         -6    1    1    2    0  502  0.35571508685E+02  0.10768171659E+03 -0.91421123468E+02  0.22539411291E+03  0.17200000000E+03 0. -1.
</event>
<event>
 4    1  0.4405880E+000  0.1735078E+03  0.7818608E-02  0.1174238E+00
         21   -1    0    0  503  502  0.00000000000E+00  0.00000000000E+00  0.11466099264E+03  0.11466099264E+03  0.00000000000E+00 0.  1.
         21   -1    0    0  501  503 -0.00000000000E+00 -0.00000000000E+00 -0.28759119423E+03  0.28759119423E+03  0.00000000000E+00 0.  1.
          6    1    1    2  501    0  0.11139071577E+02 -0.19921765542E+02 -0.14580602248E+03  0.22663704871E+03  0.17200000000E+03 0.  1.
         -6    1    1    2    0  502 -0.11139071577E+02  0.19921765542E+02 -0.27124179114E+02  0.17561513816E+03  0.17200000000E+03 0.  1.
</event>
<event>
 4    1  0.4405880E+000  0.1916952E+03  0.7818608E-02  0.1156941E+00
         21   -1    0    0  501  502  0.00000000000E+00  0.00000000000E+00  0.55968071347E+03  0.55968071347E+03  0.00000000000E+00 0.  1.
         21   -1    0    0  502  503 -0.00000000000E+00 -0.00000000000E+00 -0.89062895177E+02  0.89062895177E+02  0.00000000000E+00 0.  1.
          6    1    1    2  501    0  0.39837020181E+02 -0.74673143243E+02  0.40159483715E+03  0.44500053901E+03  0.17200000000E+03 0.  1.
         -6    1    1    2    0  503 -0.39837020181E+02  0.74673143243E+02  0.69022981150E+02  0.20374306964E+03  0.17200000000E+03 0.  1.
</event>
<event>
 4    1  0.4405880E+000  0.1772753E+03  0.7818608E-02  0.1170466E+00
         21   -1    0    0  501  502  0.00000000000E+00  0.00000000000E+00  0.17192172707E+03  0.17192172707E+03  0.00000000000E+00 0. -1.
         21   -1    0    0  502  503 -0.00000000000E+00 -0.00000000000E+00 -0.19985540151E+03  0.19985540151E+03  0.00000000000E+00 0. -1.
          6    1    1    2  501    0 -0.14561727426E+02 -0.40379257784E+02 -0.68277140107E+02  0.18996919810E+03  0.17200000000E+03 0. -1.
         -6    1    1    2    0  503  0.14561727426E+02  0.40379257784E+02  0.40343465671E+02  0.18180793048E+03  0.17200000000E+03 0. -1.
</event>
<event>
 4    1  0.4405880E+000  0.1723202E+03  0.7818608E-02  0.1175450E+00
         21   -1    0    0  503  502  0.00000000000E+00  0.00000000000E+00  0.13533504835E+04  0.13533504835E+04  0.00000000000E+00 0.  1.
         21   -1    0    0  501  503 -0.00000000000E+00 -0.00000000000E+00 -0.22021666245E+02  0.22021666245E+02  0.00000000000E+00 0.  1.
          6    1    1    2  501    0 -0.88053466079E+01  0.57199640378E+01  0.62411779694E+03  0.64746990400E+03  0.17200000000E+03 0.  1.
         -6    1    1    2    0  502  0.88053466079E+01 -0.57199640378E+01  0.70721102031E+03  0.72790224575E+03  0.17200000000E+03 0.  1.
</event>
<event>
 4    1  0.4405880E+000  0.1768550E+03  0.7818608E-02  0.1170882E+00
         21   -1    0    0  501  502  0.00000000000E+00  0.00000000000E+00  0.18137036580E+04  0.18137036580E+04  0.00000000000E+00 0. -1.
         21   -1    0    0  502  503 -0.00000000000E+00 -0.00000000000E+00 -0.42351666913E+02  0.42351666913E+02  0.00000000000E+00 0.  1.
          6    1    1    2  501    0  0.18493549449E+02 -0.36765253036E+02  0.16002026050E+04  0.16099459842E+04  0.17200000000E+03 0. -1.
         -6    1    1    2    0  503 -0.18493549449E+02  0.36765253036E+02  0.17114938613E+03  0.24610934069E+03  0.17200000000E+03 0.  1.
</event>
<event>
 4    1  0.4405880E+000  0.2530032E+03  0.7818608E-02  0.1111421E+00
         21   -1    0    0  501  502  0.00000000000E+00  0.00000000000E+00  0.16947579691E+03  0.16947579691E+03  0.00000000000E+00 0.  1.
         21   -1    0    0  502  503 -0.00000000000E+00 -0.00000000000E+00 -0.44088709338E+03  0.44088709338E+03  0.00000000000E+00 0. -1.
          6    1    1    2  501    0  0.84293916726E+02  0.16529116230E+03 -0.20169937302E+02  0.25380594773E+03  0.17200000000E+03 0.  1.
         -6    1    1    2    0  503 -0.84293916726E+02 -0.16529116230E+03 -0.25124135916E+03  0.35655694256E+03  0.17200000000E+03 0. -1.
</event>
<event>
 4    1  0.4405880E+000  0.1931524E+03  0.7818608E-02  0.1155648E+00
         21   -1    0    0  503  502  0.00000000000E+00  0.00000000000E+00  0.60989704618E+02  0.60989704618E+02  0.00000000000E+00 0. -1.
         21   -1    0    0  501  503 -0.00000000000E+00 -0.00000000000E+00 -0.11253902452E+04  0.11253902452E+04  0.00000000000E+00 0. -1.
          6    1    1    2  501    0 -0.69855701581E+02 -0.53329544498E+02 -0.93296521010E+03  0.95274967469E+03  0.17200000000E+03 0. -1.
         -6    1    1    2    0  502  0.69855701581E+02  0.53329544498E+02 -0.13143533049E+03  0.23363027514E+03  0.17200000000E+03 0. -1.
</event>
<event>
 4    1  0.4405880E+000  0.1842883E+03  0.7818608E-02  0.1163716E+00
         21   -1    0    0  503  502  0.00000000000E+00  0.00000000000E+00  0.38110731683E+03  0.38110731683E+03  0.00000000000E+00 0. -1.
         21   -1    0    0  501  503 -0.00000000000E+00 -0.00000000000E+00 -0.89867441191E+02  0.89867441191E+02  0.00000000000E+00 0.  1.
          6    1    1    2  501    0 -0.21306930627E+02  0.62643298513E+02  0.12406424467E+03  0.22215783791E+03  0.17200000000E+03 0. -1.
         -6    1    1    2    0  502  0.21306930627E+02 -0.62643298513E+02  0.16717563097E+03  0.24881692010E+03  0.17200000000E+03 0. -1.
</event>
<event>
 4    1  0.4405880E+000  0.1735866E+03  0.7818608E-02  0.1174158E+00
         21   -1    0    0  501  502  0.00000000000E+00  0.00000000000E+00  0.42947442537E+02  0.42947442537E+02  0.00000000000E+00 0. -1.
         21   -1    0    0  502  503 -0.00000000000E+00 -0.00000000000E+00 -0.75088632696E+03  0.75088632696E+03  0.00000000000E+00 0. -1.
          6    1    1    2  501    0  0.20070384882E+02  0.12061184661E+02 -0.45565003433E+03  0.48759537150E+03  0.17200000000E+03 0. -1.
         -6    1    1    2    0  503 -0.20070384882E+02 -0.12061184661E+02 -0.25228885009E+03  0.30623839799E+03  0.17200000000E+03 0. -1.
</event>
<event>
 4    1  0.4405880E+000  0.2124346E+03  0.7818608E-02  0.1139652E+00
         21   -1    0    0  503  502  0.00000000000E+00  0.00000000000E+00  0.21123136955E+03  0.21123136955E+03  0.00000000000E+00 0. -1.
         21   -1    0    0  501  503 -0.00000000000E+00 -0.00000000000E+00 -0.27323457591E+03  0.27323457591E+03  0.00000000000E+00 0. -1.
          6    1    1    2  501    0 -0.18789408458E+02 -0.12325343210E+03 -0.14412485531E+03  0.25671077951E+03  0.17200000000E+03 0. -1.
         -6    1    1    2    0  502  0.18789408458E+02  0.12325343210E+03  0.82121648952E+02  0.22775516596E+03  0.17200000000E+03 0. -1.
</event>
<event>
 4    1  0.4405880E+000  0.1822860E+03  0.7818608E-02  0.1165609E+00
         21   -1    0    0  501  502  0.00000000000E+00  0.00000000000E+00  0.15881430326E+03  0.15881430326E+03  0.00000000000E+00 0.  1.
         21   -1    0    0  502  503 -0.00000000000E+00 -0.00000000000E+00 -0.21329067610E+03  0.21329067610E+03  0.00000000000E+00 0. -1.
          6    1    1    2  501    0  0.21860451059E+02 -0.56270096022E+02 -0.15566140807E+01  0.18229269342E+03  0.17200000000E+03 0.  1.
         -6    1    1    2    0  503 -0.21860451059E+02  0.56270096022E+02 -0.52919758756E+02  0.18981228594E+03  0.17200000000E+03 0. -1.
</event>
<event>
 4    1  0.4405880E+000  0.1802552E+03  0.7818608E-02  0.1167556E+00
         21   -1    0    0  501  502  0.00000000000E+00  0.00000000000E+00  0.14469721658E+03  0.14469721658E+03  0.00000000000E+00 0.  1.
         21   -1    0    0  502  503 -0.00000000000E+00 -0.00000000000E+00 -0.24351534999E+03  0.24351534999E+03  0.00000000000E+00 0.  1.
          6    1    1    2  501    0  0.50338027224E+02 -0.19339418398E+02  0.47590071665E+01  0.18031799200E+03  0.17200000000E+03 0.  1.
         -6    1    1    2    0  503 -0.50338027224E+02  0.19339418398E+02 -0.10357714057E+03  0.20789457457E+03  0.17200000000E+03 0.  1.
</event>
<event>
 4    1  0.4405880E+000  0.2897667E+03  0.7818608E-02  0.1090471E+00
         21   -1    0    0  503  502  0.00000000000E+00  0.00000000000E+00  0.48292646849E+03  0.48292646849E+03  0.00000000000E+00 0.  1.
         21   -1    0    0  501  503 -0.00000000000E+00 -0.00000000000E+00 -0.45961277231E+03  0.45961277231E+03  0.00000000000E+00 0. -1.
          6    1    1    2  501    0  0.21289148786E+03  0.95173181661E+02 -0.35993288843E+03  0.46207835297E+03  0.17200000000E+03 0. -1.
         -6    1    1    2    0  502 -0.21289148786E+03 -0.95173181661E+02  0.38324658461E+03  0.48046088782E+03  0.17200000000E+03 0.  1.
</event>
<event>
 4    1  0.4405880E+000  0.2646056E+03  0.7818608E-02  0.1104407E+00
         21   -1    0    0  501  502  0.00000000000E+00  0.00000000000E+00  0.48886998143E+03  0.48886998143E+03  0.00000000000E+00 0.  1.
         21   -1    0    0  502  503 -0.00000000000E+00 -0.00000000000E+00 -0.27416527649E+03  0.27416527649E+03  0.00000000000E+00 0. -1.
          6    1    1    2  501    0 -0.63401971650E+02 -0.19082004053E+03  0.37101756404E+03  0.45570838341E+03  0.17200000000E+03 0.  1.
         -6    1    1    2    0  503  0.63401971650E+02  0.19082004053E+03 -0.15631285910E+03  0.30732687451E+03  0.17200000000E+03 0. -1.
</event>
<event>
 4    1  0.4405880E+000  0.2915737E+03  0.7818608E-02  0.1089530E+00
         21   -1    0    0  501  502  0.00000000000E+00  0.00000000000E+00  0.74518822247E+02  0.74518822247E+02  0.00000000000E+00 0. -1.
         21   -1    0    0  502  503 -0.00000000000E+00 -0.00000000000E+00 -0.14093035346E+04  0.14093035346E+04  0.00000000000E+00 0.  1.
          6    1    1    2  501    0 -0.17457060121E+03 -0.15797580646E+03 -0.34359052361E+03  0.45063255336E+03  0.17200000000E+03 0. -1.
         -6    1    1    2    0  503  0.17457060121E+03  0.15797580646E+03 -0.99119418877E+03  0.10331898035E+04  0.17200000000E+03 0.  1.
</event>
<event>
 4    1  0.4405880E+000  0.1970687E+03  0.7818608E-02  0.1152236E+00
         21   -1    0    0  503  502  0.00000000000E+00  0.00000000000E+00  0.89846734914E+02  0.89846734914E+02  0.00000000000E+00 0. -1.
         21   -1    0    0  501  503 -0.00000000000E+00 -0.00000000000E+00 -0.44270123156E+03  0.44270123156E+03  0.00000000000E+00 0. -1.
          6    1    1    2  501    0  0.78189236082E+02  0.56022528928E+02 -0.21734357096E+03  0.29338423309E+03  0.17200000000E+03 0. -1.
         -6    1    1    2    0  502 -0.78189236082E+02 -0.56022528928E+02 -0.13551092568E+03  0.23916373338E+03  0.17200000000E+03 0. -1.
</event>
<event>
 4    1  0.4405880E+000  0.2198949E+03  0.7818608E-02  0.1133961E+00
         21   -1    0    0  503  502  0.00000000000E+00  0.00000000000E+00  0.10543520616E+03  0.10543520616E+03  0.00000000000E+00 0. -1.
         21   -1    0    0  501  503 -0.00000000000E+00 -0.00000000000E+00 -0.46801481382E+03  0.46801481382E+03  0.00000000000E+00 0. -1.
          6    1    1    2  501    0 -0.13533681104E+03 -0.21301040737E+02 -0.22193214474E+03  0.31242225214E+03  0.17200000000E+03 0. -1.
         -6    1    1    2    0  502  0.13533681104E+03  0.21301040737E+02 -0.14064746291E+03  0.26102776784E+03  0.17200000000E+03 0. -1.
</event>
<event>
 4    1  0.4405880E+000  0.1867851E+03  0.7818608E-02  0.1161393E+00
         21   -1    0    0  501  502  0.00000000000E+00  0.00000000000E+00  0.52378398420E+02  0.52378398420E+02  0.00000000000E+00 0. -1.
         21   -1    0    0  502  503 -0.00000000000E+00 -0.00000000000E+00 -0.12607414830E+04  0.12607414830E+04  0.00000000000E+00 0. -1.
          6    1    1    2  501    0 -0.27517448615E+02  0.67434951132E+02 -0.15326836705E+03  0.24161927686E+03  0.17200000000E+03 0. -1.
         -6    1    1    2    0  503  0.27517448615E+02 -0.67434951132E+02 -0.10550947175E+04  0.10715006046E+04  0.17200000000E+03 0. -1.
</event>
<event>
 4    1  0.4405880E+000  0.2025704E+03  0.7818608E-02  0.1147588E+00
         21   -1    0    0  503  502  0.00000000000E+00  0.00000000000E+00  0.29330141359E+03  0.29330141359E+03  0.00000000000E+00 0.  1.
         21   -1    0    0  501  503 -0.00000000000E+00 -0.00000000000E+00 -0.14026991722E+03  0.14026991722E+03  0.00000000000E+00 0. -1.
          6    1    1    2  501    0  0.10644486044E+03  0.10965767318E+02  0.87551131114E+02  0.22068066731E+03  0.17200000000E+03 0.  1.
         -6    1    1    2    0  502 -0.10644486044E+03 -0.10965767318E+02  0.65480365256E+02  0.21289066349E+03  0.17200000000E+03 0.  1.
</event>
<event>
 4    1  0.4405880E+000  0.2253470E+03  0.7818608E-02  0.1129958E+00
         21   -1    0    0  501  502  0.00000000000E+00  0.00000000000E+00  0.31366985402E+03  0.31366985402E+03  0.00000000000E+00 0.  1.
         21   -1    0    0  502  503 -0.00000000000E+00 -0.00000000000E+00 -0.23629293259E+03  0.23629293259E+03  0.00000000000E+00 0.  1.
          6    1    1    2  501    0 -0.74786496812E+02  0.12491694909E+03  0.19298682530E+03  0.29669037567E+03  0.17200000000E+03 0.  1.
         -6    1    1    2    0  503  0.74786496812E+02 -0.12491694909E+03 -0.11560990386E+03  0.25327241094E+03  0.17200000000E+03 0.  1.
</event>
<event>
 4    1  0.4405880E+000  0.2054792E+03  0.7818608E-02  0.1145197E+00
         21   -1    0    0  501  502  0.00000000000E+00  0.00000000000E+00  0.82253256726E+03  0.82253256726E+03  0.00000000000E+00 0.  1.
         21   -1    0    0  502  503 -0.00000000000E+00 -0.00000000000E+00 -0.84610653098E+02  0.84610653098E+02  0.00000000000E+00 0.  1.
          6    1    1    2  501    0  0.25996324875E+02  0.10937046994E+03  0.65342045521E+03  0.68496715241E+03  0.17200000000E+03 0.  1.
         -6    1    1    2    0  503 -0.25996324875E+02 -0.10937046994E+03  0.84501458954E+02  0.22217606794E+03  0.17200000000E+03 0.  1.
</event>
<event>
 4    1  0.4405880E+000  0.2911420E+03  0.7818608E-02  0.1089754E+00
         21   -1    0    0  501  502  0.00000000000E+00  0.00000000000E+00  0.17482368807E+03  0.17482368807E+03  0.00000000000E+00 0.  1.
         21   -1    0    0  502  503 -0.00000000000E+00 -0.00000000000E+00 -0.51422677624E+03  0.51422677624E+03  0.00000000000E+00 0. -1.
          6    1    1    2  501    0  0.21206479246E+03 -0.10103556703E+03 -0.25204497879E+03  0.38508483915E+03  0.17200000000E+03 0. -1.
         -6    1    1    2    0  503 -0.21206479246E+03  0.10103556703E+03 -0.87358109379E+02  0.30396562517E+03  0.17200000000E+03 0.  1.
</event>
<event>
 4    1  0.4405880E+000  0.1759236E+03  0.7818608E-02  0.1171808E+00
         21   -1    0    0  503  502  0.00000000000E+00  0.00000000000E+00  0.77857682399E+02  0.77857682399E+02  0.00000000000E+00 0. -1.
         21   -1    0    0  501  503 -0.00000000000E+00 -0.00000000000E+00 -0.12189082621E+04  0.12189082621E+04  0.00000000000E+00 0. -1.
          6    1    1    2  501    0 -0.25094056604E+02 -0.27118076771E+02 -0.11027846883E+04  0.11167287811E+04  0.17200000000E+03 0. -1.
         -6    1    1    2    0  502  0.25094056604E+02  0.27118076771E+02 -0.38265891402E+02  0.18003716341E+03  0.17200000000E+03 0. -1.
</event>
<event>
 4    1  0.4405880E+000  0.2108715E+03  0.7818608E-02  0.1140878E+00
         21   -1    0    0  501  502  0.00000000000E+00  0.00000000000E+00  0.32505650557E+02  0.32505650557E+02  0.00000000000E+00 0. -1.
         21   -1    0    0  502  503 -0.00000000000E+00 -0.00000000000E+00 -0.13681809274E+04  0.13681809274E+04  0.00000000000E+00 0. -1.
          6    1    1    2  501    0 -0.47685732790E+01 -0.12190172041E+03 -0.67652451804E+03  0.70862697679E+03  0.17200000000E+03 0. -1.
         -6    1    1    2    0  503  0.47685732790E+01  0.12190172041E+03 -0.65915075878E+03  0.69205960114E+03  0.17200000000E+03 0. -1.
</event>
<event>
 4    1  0.4405880E+000  0.2562153E+03  0.7818608E-02  0.1109439E+00
         21   -1    0    0  501  502  0.00000000000E+00  0.00000000000E+00  0.23989820973E+04  0.23989820973E+04  0.00000000000E+00 0.  1.
         21   -1    0    0  502  503 -0.00000000000E+00 -0.00000000000E+00 -0.28827692692E+02  0.28827692692E+02  0.00000000000E+00 0. -1.
          6    1    1    2  501    0 -0.15030272801E+03 -0.11606619935E+03  0.91156789660E+03  0.94689086107E+03  0.17200000000E+03 0.  1.
         -6    1    1    2    0  503  0.15030272801E+03  0.11606619935E+03  0.14585865080E+04  0.14809189289E+04  0.17200000000E+03 0.  1.
</event>
<event>
 4    1  0.4405880E+000  0.2534628E+03  0.7818608E-02  0.1111136E+00
         21   -1    0    0  503  502  0.00000000000E+00  0.00000000000E+00  0.35167688056E+03  0.35167688056E+03  0.00000000000E+00 0. -1.
         21   -1    0    0  501  503 -0.00000000000E+00 -0.00000000000E+00 -0.61572020142E+03  0.61572020142E+03  0.00000000000E+00 0.  1.
          6    1    1    2  501    0 -0.34082366795E+02 -0.18302394388E+03 -0.53766892715E+03  0.59441672838E+03  0.17200000000E+03 0.  1.
         -6    1    1    2    0  502  0.34082366795E+02  0.18302394388E+03  0.27362560628E+03  0.37298035360E+03  0.17200000000E+03 0. -1.
</event>
<event>
 4    1  0.4405880E+000  0.2503546E+03  0.7818608E-02  0.1113081E+00
         21   -1    0    0  503  502  0.00000000000E+00  0.00000000000E+00  0.70504537949E+03  0.70504537949E+03  0.00000000000E+00 0. -1.
         21   -1    0    0  501  503 -0.00000000000E+00 -0.00000000000E+00 -0.11601623243E+03  0.11601623243E+03  0.00000000000E+00 0.  1.
          6    1    1    2  501    0  0.18089941370E+03 -0.19204886735E+02  0.96035995825E+02  0.26814238390E+03  0.17200000000E+03 0.  1.
         -6    1    1    2    0  502 -0.18089941370E+03  0.19204886735E+02  0.49299315123E+03  0.55291922802E+03  0.17200000000E+03 0. -1.
</event>
<event>
 4    1  0.4405880E+000  0.2141815E+03  0.7818608E-02  0.1138297E+00
         21   -1    0    0  501  502  0.00000000000E+00  0.00000000000E+00  0.77908718724E+03  0.77908718724E+03  0.00000000000E+00 0. -1.
         21   -1    0    0  502  503 -0.00000000000E+00 -0.00000000000E+00 -0.61181236979E+02  0.61181236979E+02  0.00000000000E+00 0. -1.
          6    1    1    2  501    0  0.11385243989E+03  0.57682950596E+02  0.44041078202E+03  0.48972988247E+03  0.17200000000E+03 0.  1.
         -6    1    1    2    0  503 -0.11385243989E+03 -0.57682950596E+02  0.27749516824E+03  0.35053854176E+03  0.17200000000E+03 0.  1.
</event>
<event>
 4    1  0.4405880E+000  0.2238313E+03  0.7818608E-02  0.1131058E+00
         21   -1    0    0  503  502  0.00000000000E+00  0.00000000000E+00  0.98139627131E+02  0.98139627131E+02  0.00000000000E+00 0.  1.
         21   -1    0    0  501  503 -0.00000000000E+00 -0.00000000000E+00 -0.51068641205E+03  0.51068641205E+03  0.00000000000E+00 0. -1.
          6    1    1    2  501    0 -0.14302811650E+03 -0.77080254748E+01 -0.20048547263E+03  0.30049106560E+03  0.17200000000E+03 0.  1.
         -6    1    1    2    0  502  0.14302811650E+03  0.77080254748E+01 -0.21206131229E+03  0.30833497359E+03  0.17200000000E+03 0.  1.
</event>
<event>
 4    1  0.4405880E+000  0.2163793E+03  0.7818608E-02  0.1136612E+00
         21   -1    0    0  501  502  0.00000000000E+00  0.00000000000E+00  0.20801252721E+03  0.20801252721E+03  0.00000000000E+00 0. -1.
         21   -1    0    0  502  503 -0.00000000000E+00 -0.00000000000E+00 -0.58118822581E+03  0.58118822581E+03  0.00000000000E+00 0. -1.
          6    1    1    2  501    0 -0.10223090876E+03  0.82370221695E+02  0.12229121626E+03  0.24854607964E+03  0.17200000000E+03 0. -1.
         -6    1    1    2    0  503  0.10223090876E+03 -0.82370221695E+02 -0.49546691486E+03  0.54065467338E+03  0.17200000000E+03 0. -1.
</event>
<event>
 4    1  0.4405880E+000  0.1787954E+03  0.7818608E-02  0.1168974E+00
         21   -1    0    0  503  502  0.00000000000E+00  0.00000000000E+00  0.52850133624E+02  0.52850133624E+02  0.00000000000E+00 0.  1.
         21   -1    0    0  501  503 -0.00000000000E+00 -0.00000000000E+00 -0.64308157774E+03  0.64308157774E+03  0.00000000000E+00 0.  1.
          6    1    1    2  501    0 -0.10271383532E+02  0.47731344173E+02 -0.37992950462E+03  0.41989785784E+03  0.17200000000E+03 0.  1.
         -6    1    1    2    0  502  0.10271383532E+02 -0.47731344173E+02 -0.21030193949E+03  0.27603385352E+03  0.17200000000E+03 0.  1.
</event>
<event>
 4    1  0.4405880E+000  0.4354372E+03  0.7818608E-02  0.1032156E+00
         21   -1    0    0  503  502  0.00000000000E+00  0.00000000000E+00  0.31461456991E+03  0.31461456991E+03  0.00000000000E+00 0.  1.
         21   -1    0    0  501  503 -0.00000000000E+00 -0.00000000000E+00 -0.63466105300E+03  0.63466105300E+03  0.00000000000E+00 0. -1.
          6    1    1    2  501    0 -0.34913887297E+03  0.19525271137E+03 -0.26660293484E+03  0.51057095372E+03  0.17200000000E+03 0.  1.
         -6    1    1    2    0  502  0.34913887297E+03 -0.19525271137E+03 -0.53443548250E+02  0.43870466918E+03  0.17200000000E+03 0.  1.
</event>
<event>
 4    1  0.4405880E+000  0.2227295E+03  0.7818608E-02  0.1131864E+00
         21   -1    0    0  503  502  0.00000000000E+00  0.00000000000E+00  0.49204787500E+02  0.49204787500E+02  0.00000000000E+00 0. -1.
         21   -1    0    0  501  503 -0.00000000000E+00 -0.00000000000E+00 -0.11087743535E+04  0.11087743535E+04  0.00000000000E+00 0.  1.
          6    1    1    2  501    0  0.93372777973E+02 -0.10632942100E+03 -0.70416049434E+03  0.73854615511E+03  0.17200000000E+03 0.  1.
         -6    1    1    2    0  502 -0.93372777973E+02  0.10632942100E+03 -0.35540907167E+03  0.41943298591E+03  0.17200000000E+03 0. -1.
</event>
<event>
 4    1  0.4405880E+000  0.2041337E+03  0.7818608E-02  0.1146298E+00
         21   -1    0    0  501  502  0.00000000000E+00  0.00000000000E+00  0.16634630825E+03  0.16634630825E+03  0.00000000000E+00 0. -1.
         21   -1    0    0  502  503 -0.00000000000E+00 -0.00000000000E+00 -0.33071964554E+03  0.33071964554E+03  0.00000000000E+00 0.  1.
          6    1    1    2  501    0 -0.81636385809E+02 -0.73634592477E+02  0.40213308084E+02  0.20805687406E+03  0.17200000000E+03 0. -1.
         -6    1    1    2    0  503  0.81636385809E+02  0.73634592477E+02 -0.20458664538E+03  0.28900907973E+03  0.17200000000E+03 0.  1.
</event>
<event>
 4    1  0.4405880E+000  0.1769021E+03  0.7818608E-02  0.1170835E+00
         21   -1    0    0  501  502  0.00000000000E+00  0.00000000000E+00  0.14905971212E+03  0.14905971212E+03  0.00000000000E+00 0. -1.
         21   -1    0    0  502  503 -0.00000000000E+00 -0.00000000000E+00 -0.61214280597E+03  0.61214280597E+03  0.00000000000E+00 0. -1.
          6    1    1    2  501    0 -0.81836725501E+01  0.40538563790E+02  0.76964493019E+02  0.19291936356E+03  0.17200000000E+03 0. -1.
         -6    1    1    2    0  503  0.81836725501E+01 -0.40538563790E+02 -0.54004758687E+03  0.56828315454E+03  0.17200000000E+03 0. -1.
</event>
<event>
 4    1  0.4405880E+000  0.2836857E+03  0.7818608E-02  0.1093693E+00
         21   -1    0    0  501  502  0.00000000000E+00  0.00000000000E+00  0.43962595557E+03  0.43962595557E+03  0.00000000000E+00 0. -1.
         21   -1    0    0  502  503 -0.00000000000E+00 -0.00000000000E+00 -0.26960063250E+03  0.26960063250E+03  0.00000000000E+00 0.  1.
          6    1    1    2  501    0 -0.43575085898E+02  0.22134770692E+03  0.28592494357E+03  0.40277868467E+03  0.17200000000E+03 0. -1.
         -6    1    1    2    0  503  0.43575085898E+02 -0.22134770692E+03 -0.11589962049E+03  0.30644790340E+03  0.17200000000E+03 0.  1.
</event>
<event>
 4    1  0.4405880E+000  0.1822389E+03  0.7818608E-02  0.1165654E+00
         21   -1    0    0  501  502  0.00000000000E+00  0.00000000000E+00  0.20013766968E+03  0.20013766968E+03  0.00000000000E+00 0.  1.
         21   -1    0    0  502  503 -0.00000000000E+00 -0.00000000000E+00 -0.16850680040E+03  0.16850680040E+03  0.00000000000E+00 0.  1.
          6    1    1    2  501    0 -0.55577701680E+02  0.23197970193E+02  0.38560552106E+02  0.18627383854E+03  0.17200000000E+03 0.  1.
         -6    1    1    2    0  503  0.55577701680E+02 -0.23197970193E+02 -0.69296828160E+01  0.18237063154E+03  0.17200000000E+03 0.  1.
</event>
<event>
 4    1  0.4405880E+000  0.2260967E+03  0.7818608E-02  0.1129418E+00
         21   -1    0    0  503  502  0.00000000000E+00  0.00000000000E+00  0.51306854419E+03  0.51306854419E+03  0.00000000000E+00 0.  1.
         21   -1    0    0  501  503 -0.00000000000E+00 -0.00000000000E+00 -0.11093236192E+03  0.11093236192E+03  0.00000000000E+00 0.  1.
          6    1    1    2  501    0  0.14399129396E+03 -0.28323840626E+02  0.10150254953E+03  0.24783563151E+03  0.17200000000E+03 0.  1.
         -6    1    1    2    0  502 -0.14399129396E+03  0.28323840626E+02  0.30063363274E+03  0.37616527461E+03  0.17200000000E+03 0.  1.
</event>
<event>
 4    1  0.4405880E+000  0.2526439E+03  0.7818608E-02  0.1111645E+00
         21   -1    0    0  503  502  0.00000000000E+00  0.00000000000E+00  0.30248157961E+03  0.30248157961E+03  0.00000000000E+00 0.  1.
         21   -1    0    0  501  503 -0.00000000000E+00 -0.00000000000E+00 -0.42815528980E+03  0.42815528980E+03  0.00000000000E+00 0.  1.
          6    1    1    2  501    0  0.12274359425E+03  0.13848812049E+03 -0.32299564049E+03  0.41006723013E+03  0.17200000000E+03 0.  1.
         -6    1    1    2    0  502 -0.12274359425E+03 -0.13848812049E+03  0.19732193031E+03  0.32056963928E+03  0.17200000000E+03 0.  1.
</event>
<event>
 4    1  0.4405880E+000  0.1814381E+03  0.7818608E-02  0.1166418E+00
         21   -1    0    0  503  502  0.00000000000E+00  0.00000000000E+00  0.37357976853E+02  0.37357976853E+02  0.00000000000E+00 0.  1.
         21   -1    0    0  501  503 -0.00000000000E+00 -0.00000000000E+00 -0.10136776781E+04  0.10136776781E+04  0.00000000000E+00 0.  1.
          6    1    1    2  501    0 -0.24994413800E+02  0.52067972192E+02 -0.29817836997E+03  0.34904173786E+03  0.17200000000E+03 0.  1.
         -6    1    1    2    0  502  0.24994413800E+02 -0.52067972192E+02 -0.67814133123E+03  0.70199391705E+03  0.17200000000E+03 0.  1.
</event>
<event>
 4    1  0.4405880E+000  0.1966534E+03  0.7818608E-02  0.1152594E+00
         21   -1    0    0  503  502  0.00000000000E+00  0.00000000000E+00  0.37290584376E+02  0.37290584376E+02  0.00000000000E+00 0. -1.
         21   -1    0    0  501  503 -0.00000000000E+00 -0.00000000000E+00 -0.11831980823E+04  0.11831980823E+04  0.00000000000E+00 0.  1.
          6    1    1    2  501    0  0.49495469683E+02  0.81478621374E+02 -0.78741901953E+03  0.81160413970E+03  0.17200000000E+03 0. -1.
         -6    1    1    2    0  502 -0.49495469683E+02 -0.81478621374E+02 -0.35848847841E+03  0.40888452699E+03  0.17200000000E+03 0. -1.
</event>
<event>
 4    1  0.4405880E+000  0.1761829E+03  0.7818608E-02  0.1171549E+00
         21   -1    0    0  503  502  0.00000000000E+00  0.00000000000E+00  0.50410590197E+02  0.50410590197E+02  0.00000000000E+00 0.  1.
         21   -1    0    0  501  503 -0.00000000000E+00 -0.00000000000E+00 -0.79902172672E+03  0.79902172672E+03  0.00000000000E+00 0.  1.
          6    1    1    2  501    0  0.30607697329E+02  0.22794541899E+02 -0.57771207588E+03  0.60397985471E+03  0.17200000000E+03 0.  1.
         -6    1    1    2    0  502 -0.30607697329E+02 -0.22794541899E+02 -0.17089906065E+03  0.24545246221E+03  0.17200000000E+03 0.  1.
</event>
<event>
 4    1  0.4405880E+000  0.2577580E+03  0.7818608E-02  0.1108498E+00
         21   -1    0    0  501  502  0.00000000000E+00  0.00000000000E+00  0.11487621942E+03  0.11487621942E+03  0.00000000000E+00 0. -1.
         21   -1    0    0  502  503 -0.00000000000E+00 -0.00000000000E+00 -0.71377344108E+03  0.71377344108E+03  0.00000000000E+00 0. -1.
          6    1    1    2  501    0  0.49556492714E+02  0.18547052384E+03 -0.11898039838E+03  0.28389345957E+03  0.17200000000E+03 0. -1.
         -6    1    1    2    0  503 -0.49556492714E+02 -0.18547052384E+03 -0.47991682328E+03  0.54475620093E+03  0.17200000000E+03 0. -1.
</event>
<event>
 4    1  0.4405880E+000  0.2352573E+03  0.7818608E-02  0.1122993E+00
         21   -1    0    0  501  502  0.00000000000E+00  0.00000000000E+00  0.52078537376E+03  0.52078537376E+03  0.00000000000E+00 0. -1.
         21   -1    0    0  502  503 -0.00000000000E+00 -0.00000000000E+00 -0.12214622832E+03  0.12214622832E+03  0.00000000000E+00 0. -1.
          6    1    1    2  501    0  0.66414926781E+02  0.14612000662E+03  0.31520058460E+03  0.39331591293E+03  0.17200000000E+03 0. -1.
         -6    1    1    2    0  503 -0.66414926781E+02 -0.14612000662E+03  0.83438560841E+02  0.24961568915E+03  0.17200000000E+03 0. -1.
</event>
<event>
 4    1  0.4405880E+000  0.2610398E+03  0.7818608E-02  0.1106520E+00
         21   -1    0    0  503  502  0.00000000000E+00  0.00000000000E+00  0.74715646943E+03  0.74715646943E+03  0.00000000000E+00 0.  1.
         21   -1    0    0  501  503 -0.00000000000E+00 -0.00000000000E+00 -0.98536944708E+02  0.98536944708E+02  0.00000000000E+00 0.  1.
          6    1    1    2  501    0 -0.10393303859E+03  0.16660044786E+03  0.43968080809E+03  0.51133257157E+03  0.17200000000E+03 0.  1.
         -6    1    1    2    0  502  0.10393303859E+03 -0.16660044786E+03  0.20893871663E+03  0.33436084257E+03  0.17200000000E+03 0.  1.
</event>
<event>
 4    1  0.4405880E+000  0.2138153E+03  0.7818608E-02  0.1138580E+00
         21   -1    0    0  503  502  0.00000000000E+00  0.00000000000E+00  0.11687526982E+03  0.11687526982E+03  0.00000000000E+00 0. -1.
         21   -1    0    0  501  503 -0.00000000000E+00 -0.00000000000E+00 -0.61804774915E+03  0.61804774915E+03  0.00000000000E+00 0.  1.
          6    1    1    2  501    0  0.17102388529E+02 -0.12585894385E+03 -0.47322771836E+03  0.51928935947E+03  0.17200000000E+03 0.  1.
         -6    1    1    2    0  502 -0.17102388529E+02  0.12585894385E+03 -0.27944760974E+02  0.21563365949E+03  0.17200000000E+03 0. -1.
</event>
<event>
 4    1  0.4405880E+000  0.1831947E+03  0.7818608E-02  0.1164747E+00
         21   -1    0    0  503  502  0.00000000000E+00  0.00000000000E+00  0.12760346394E+03  0.12760346394E+03  0.00000000000E+00 0. -1.
         21   -1    0    0  501  503 -0.00000000000E+00 -0.00000000000E+00 -0.26325793944E+03  0.26325793944E+03  0.00000000000E+00 0.  1.
          6    1    1    2  501    0  0.48815641454E+02 -0.39916621945E+02 -0.73889239574E+02  0.19753461287E+03  0.17200000000E+03 0.  1.
         -6    1    1    2    0  502 -0.48815641454E+02  0.39916621945E+02 -0.61765235927E+02  0.19332679051E+03  0.17200000000E+03 0. -1.
</event>
<event>
 4    1  0.4405880E+000  0.1893644E+03  0.7818608E-02  0.1159036E+00
         21   -1    0    0  503  502  0.00000000000E+00  0.00000000000E+00  0.33285161923E+03  0.33285161923E+03  0.00000000000E+00 0. -1.
         21   -1    0    0  501  503 -0.00000000000E+00 -0.00000000000E+00 -0.10773370592E+03  0.10773370592E+03  0.00000000000E+00 0. -1.
          6    1    1    2  501    0  0.76328915054E+02  0.21184167701E+02  0.11176463257E+03  0.21988680117E+03  0.17200000000E+03 0. -1.
         -6    1    1    2    0  502 -0.76328915054E+02 -0.21184167701E+02  0.11335328074E+03  0.22069852398E+03  0.17200000000E+03 0. -1.
</event>
<event>
 4    1  0.4405880E+000  0.2598866E+03  0.7818608E-02  0.1107211E+00
         21   -1    0    0  501  502  0.00000000000E+00  0.00000000000E+00  0.10477583579E+03  0.10477583579E+03  0.00000000000E+00 0.  1.
         21   -1    0    0  502  503 -0.00000000000E+00 -0.00000000000E+00 -0.64614991464E+03  0.64614991464E+03  0.00000000000E+00 0. -1.
          6    1    1    2  501    0  0.15692328477E+03 -0.11546481014E+03 -0.25244234774E+03  0.36230950666E+03  0.17200000000E+03 0.  1.
         -6    1    1    2    0  503 -0.15692328477E+03  0.11546481014E+03 -0.28893173110E+03  0.38861624377E+03  0.17200000000E+03 0.  1.
</event>
<event>
 4    1  0.4405880E+000  0.1821089E+03  0.7818608E-02  0.1165777E+00
         21   -1    0    0  503  502  0.00000000000E+00  0.00000000000E+00  0.12821434730E+03  0.12821434730E+03  0.00000000000E+00 0. -1.
         21   -1    0    0  501  503 -0.00000000000E+00 -0.00000000000E+00 -0.41475412703E+03  0.41475412703E+03  0.00000000000E+00 0.  1.
          6    1    1    2  501    0 -0.25426546903E+02 -0.54158560777E+02 -0.30982018537E+03  0.35937752608E+03  0.17200000000E+03 0.  1.
         -6    1    1    2    0  502  0.25426546903E+02  0.54158560777E+02  0.23280405642E+02  0.18359094825E+03  0.17200000000E+03 0. -1.
</event>
<event>
 4    1  0.4405880E+000  0.2713592E+03  0.7818608E-02  0.1100504E+00
         21   -1    0    0  503  502  0.00000000000E+00  0.00000000000E+00  0.46864369931E+03  0.46864369931E+03  0.00000000000E+00 0.  1.
         21   -1    0    0  501  503 -0.00000000000E+00 -0.00000000000E+00 -0.33775676690E+03  0.33775676690E+03  0.00000000000E+00 0. -1.
          6    1    1    2  501    0  0.20967135628E+03 -0.94725139624E+01 -0.22941621194E+03  0.35534153214E+03  0.17200000000E+03 0. -1.
         -6    1    1    2    0  502 -0.20967135628E+03  0.94725139624E+01  0.36030314436E+03  0.45105893407E+03  0.17200000000E+03 0.  1.
</event>
<event>
 4    1  0.4405880E+000  0.2162830E+03  0.7818608E-02  0.1136685E+00
         21   -1    0    0  501  502  0.00000000000E+00  0.00000000000E+00  0.43680863691E+03  0.43680863691E+03  0.00000000000E+00 0.  1.
         21   -1    0    0  502  503 -0.00000000000E+00 -0.00000000000E+00 -0.13554600457E+03  0.13554600457E+03  0.00000000000E+00 0.  1.
          6    1    1    2  501    0 -0.66287183584E+02 -0.11313868163E+03  0.28175158042E+03  0.35519333476E+03  0.17200000000E+03 0.  1.
         -6    1    1    2    0  503  0.66287183584E+02  0.11313868163E+03  0.19511051917E+02  0.21716130672E+03  0.17200000000E+03 0.  1.
</event>
<event>
 4    1  0.4405880E+000  0.2226644E+03  0.7818608E-02  0.1131912E+00
         21   -1    0    0  501  502  0.00000000000E+00  0.00000000000E+00  0.33370603914E+03  0.33370603914E+03  0.00000000000E+00 0. -1.
         21   -1    0    0  502  503 -0.00000000000E+00 -0.00000000000E+00 -0.19925695875E+03  0.19925695875E+03  0.00000000000E+00 0.  1.
          6    1    1    2  501    0 -0.84746896702E+00 -0.14140260775E+03  0.20162455696E+03  0.30038621415E+03  0.17200000000E+03 0. -1.
         -6    1    1    2    0  503  0.84746896702E+00  0.14140260775E+03 -0.67175476568E+02  0.23257678374E+03  0.17200000000E+03 0.  1.
</event>
<event>
 4    1  0.4405880E+000  0.2489752E+03  0.7818608E-02  0.1113954E+00
         21   -1    0    0  501  502  0.00000000000E+00  0.00000000000E+00  0.49447093924E+03  0.49447093924E+03  0.00000000000E+00 0. -1.
         21   -1    0    0  502  503 -0.00000000000E+00 -0.00000000000E+00 -0.13355360283E+03  0.13355360283E+03  0.00000000000E+00 0. -1.
          6    1    1    2  501    0  0.17925017601E+03  0.16553452753E+02  0.25821963055E+03  0.35870046000E+03  0.17200000000E+03 0. -1.
         -6    1    1    2    0  503 -0.17925017601E+03 -0.16553452753E+02  0.10269770586E+03  0.26932408208E+03  0.17200000000E+03 0. -1.
</event>
<event>
 4    1  0.4405880E+000  0.2342461E+03  0.7818608E-02  0.1123686E+00
         21   -1    0    0  503  502  0.00000000000E+00  0.00000000000E+00  0.39209277129E+03  0.39209277129E+03  0.00000000000E+00 0.  1.
         21   -1    0    0  501  503 -0.00000000000E+00 -0.00000000000E+00 -0.70101502538E+03  0.70101502538E+03  0.00000000000E+00 0.  1.
          6    1    1    2  501    0  0.95804060678E+02 -0.12692052187E+03 -0.64342643866E+03  0.68473996443E+03  0.17200000000E+03 0.  1.
         -6    1    1    2    0  502 -0.95804060678E+02  0.12692052187E+03  0.33450418458E+03  0.40836783225E+03  0.17200000000E+03 0.  1.
</event>
<event>
 4    1  0.4405880E+000  0.1836581E+03  0.7818608E-02  0.1164309E+00
         21   -1    0    0  501  502  0.00000000000E+00  0.00000000000E+00  0.39833628683E+03  0.39833628683E+03  0.00000000000E+00 0. -1.
         21   -1    0    0  502  503 -0.00000000000E+00 -0.00000000000E+00 -0.21394790958E+03  0.21394790958E+03  0.00000000000E+00 0.  1.
          6    1    1    2  501    0 -0.42488452738E+02 -0.48384347352E+02  0.33016176102E+03  0.37780564067E+03  0.17200000000E+03 0. -1.
         -6    1    1    2    0  503  0.42488452738E+02  0.48384347352E+02 -0.14577338377E+03  0.23447855574E+03  0.17200000000E+03 0.  1.
</event>
<event>
 4    1  0.4405880E+000  0.1996786E+03  0.7818608E-02  0.1150010E+00
         21   -1    0    0  501  502  0.00000000000E+00  0.00000000000E+00  0.12908157808E+03  0.12908157808E+03  0.00000000000E+00 0.  1.
         21   -1    0    0  502  503 -0.00000000000E+00 -0.00000000000E+00 -0.33706507731E+03  0.33706507731E+03  0.00000000000E+00 0.  1.
          6    1    1    2  501    0  0.91140071870E+02  0.44508785464E+02 -0.17138182717E+03  0.26314117004E+03  0.17200000000E+03 0.  1.
         -6    1    1    2    0  503 -0.91140071870E+02 -0.44508785464E+02 -0.36601672058E+02  0.20300548535E+03  0.17200000000E+03 0.  1.
</event>
<event>
 4    1  0.4405880E+000  0.2400169E+03  0.7818608E-02  0.1119782E+00
         21   -1    0    0  501  502  0.00000000000E+00  0.00000000000E+00  0.21656025214E+03  0.21656025214E+03  0.00000000000E+00 0.  1.
         21   -1    0    0  502  503 -0.00000000000E+00 -0.00000000000E+00 -0.40219606322E+03  0.40219606322E+03  0.00000000000E+00 0. -1.
          6    1    1    2  501    0 -0.76518010309E+02  0.14889293165E+03  0.87206055261E+02  0.25536837524E+03  0.17200000000E+03 0.  1.
         -6    1    1    2    0  503  0.76518010309E+02 -0.14889293165E+03 -0.27284186635E+03  0.36338794012E+03  0.17200000000E+03 0. -1.
</event>
<event>
 4    1  0.4405880E+000  0.1784089E+03  0.7818608E-02  0.1169352E+00
         21   -1    0    0  503  502  0.00000000000E+00  0.00000000000E+00  0.56386933206E+02  0.56386933206E+02  0.00000000000E+00 0.  1.
         21   -1    0    0  501  503 -0.00000000000E+00 -0.00000000000E+00 -0.63809420137E+03  0.63809420137E+03  0.00000000000E+00 0.  1.
          6    1    1    2  501    0  0.25678646903E+02 -0.39828794520E+02 -0.40878963002E+03  0.44602543357E+03  0.17200000000E+03 0.  1.
         -6    1    1    2    0  502 -0.25678646903E+02  0.39828794520E+02 -0.17291763813E+03  0.24845570100E+03  0.17200000000E+03 0.  1.
</event>
<event>
 4    1  0.4405880E+000  0.1873176E+03  0.7818608E-02  0.1160903E+00
         21   -1    0    0  503  502  0.00000000000E+00  0.00000000000E+00  0.11220600267E+04  0.11220600267E+04  0.00000000000E+00 0.  1.
         21   -1    0    0  501  503 -0.00000000000E+00 -0.00000000000E+00 -0.32168039998E+02  0.32168039998E+02  0.00000000000E+00 0. -1.
          6    1    1    2  501    0  0.45647227430E+02 -0.58482684654E+02  0.44857085475E+03  0.48611079551E+03  0.17200000000E+03 0.  1.
         -6    1    1    2    0  502 -0.45647227430E+02  0.58482684654E+02  0.64132113193E+03  0.66811727117E+03  0.17200000000E+03 0. -1.
</event>
<event>
 4    1  0.4405880E+000  0.2176024E+03  0.7818608E-02  0.1135683E+00
         21   -1    0    0  503  502  0.00000000000E+00  0.00000000000E+00  0.33038840581E+03  0.33038840581E+03  0.00000000000E+00 0.  1.
         21   -1    0    0  501  503 -0.00000000000E+00 -0.00000000000E+00 -0.32631956439E+03  0.32631956439E+03  0.00000000000E+00 0.  1.
          6    1    1    2  501    0  0.13314813120E+03 -0.61959916688E+01 -0.24385926891E+03  0.32683047317E+03  0.17200000000E+03 0.  1.
         -6    1    1    2    0  502 -0.13314813120E+03  0.61959916688E+01  0.24792811033E+03  0.32987749703E+03  0.17200000000E+03 0.  1.
</event>
<event>
 4    1  0.4405880E+000  0.1804704E+03  0.7818608E-02  0.1167349E+00
         21   -1    0    0  501  502  0.00000000000E+00  0.00000000000E+00  0.67997697036E+03  0.67997697036E+03  0.00000000000E+00 0.  1.
         21   -1    0    0  502  503 -0.00000000000E+00 -0.00000000000E+00 -0.10793724014E+03  0.10793724014E+03  0.00000000000E+00 0.  1.
          6    1    1    2  501    0 -0.22383930581E+02 -0.49845183587E+02  0.57983937719E+03  0.60727529673E+03  0.17200000000E+03 0.  1.
         -6    1    1    2    0  503  0.22383930581E+02  0.49845183587E+02 -0.77996469641E+01  0.18063891377E+03  0.17200000000E+03 0.  1.
</event>
<event>
 4    1  0.4405880E+000  0.1752665E+03  0.7818608E-02  0.1172464E+00
         21   -1    0    0  503  502  0.00000000000E+00  0.00000000000E+00  0.28594026942E+03  0.28594026942E+03  0.00000000000E+00 0.  1.
         21   -1    0    0  501  503 -0.00000000000E+00 -0.00000000000E+00 -0.19584709948E+03  0.19584709948E+03  0.00000000000E+00 0.  1.
          6    1    1    2  501    0 -0.10246270558E+02  0.32083693455E+02 -0.11681239886E+03  0.21062641329E+03  0.17200000000E+03 0.  1.
         -6    1    1    2    0  502  0.10246270558E+02 -0.32083693455E+02  0.20690556880E+03  0.27116095561E+03  0.17200000000E+03 0.  1.
</event>
<event>
 4    1  0.4405880E+000  0.2203353E+03  0.7818608E-02  0.1133633E+00
         21   -1    0    0  503  502  0.00000000000E+00  0.00000000000E+00  0.91256254032E+02  0.91256254032E+02  0.00000000000E+00 0.  1.
         21   -1    0    0  501  503 -0.00000000000E+00 -0.00000000000E+00 -0.10864482985E+04  0.10864482985E+04  0.00000000000E+00 0.  1.
          6    1    1    2  501    0  0.10863024483E+03 -0.84635284670E+02 -0.91825988984E+03  0.94432456644E+03  0.17200000000E+03 0.  1.
         -6    1    1    2    0  502 -0.10863024483E+03  0.84635284670E+02 -0.76932154670E+02  0.23337998613E+03  0.17200000000E+03 0.  1.
</event>
<event>
 4    1  0.4405880E+000  0.2195107E+03  0.7818608E-02  0.1134248E+00
         21   -1    0    0  503  502  0.00000000000E+00  0.00000000000E+00  0.75520421369E+02  0.75520421369E+02  0.00000000000E+00 0. -1.
         21   -1    0    0  501  503 -0.00000000000E+00 -0.00000000000E+00 -0.63812903897E+03  0.63812903897E+03  0.00000000000E+00 0.  1.
          6    1    1    2  501    0  0.22804179589E+02 -0.13446526969E+03 -0.27705494895E+03  0.35347472908E+03  0.17200000000E+03 0.  1.
         -6    1    1    2    0  502 -0.22804179589E+02  0.13446526969E+03 -0.28555366864E+03  0.36017473125E+03  0.17200000000E+03 0. -1.
</event>
<event>
 4    1  0.4405880E+000  0.2574201E+03  0.7818608E-02  0.1108703E+00
         21   -1    0    0  503  502  0.00000000000E+00  0.00000000000E+00  0.53774986928E+02  0.53774986928E+02  0.00000000000E+00 0.  1.
         21   -1    0    0  501  503 -0.00000000000E+00 -0.00000000000E+00 -0.13509920401E+04  0.13509920401E+04  0.00000000000E+00 0.  1.
          6    1    1    2  501    0 -0.36317704107E+02 -0.18804827841E+03 -0.85682709516E+03  0.89466071874E+03  0.17200000000E+03 0.  1.
         -6    1    1    2    0  502  0.36317704107E+02  0.18804827841E+03 -0.44038995800E+03  0.51010630828E+03  0.17200000000E+03 0.  1.
</event>
<event>
 4    1  0.4405880E+000  0.4221990E+03  0.7818608E-02  0.1036353E+00
         21   -1    0    0  503  502  0.00000000000E+00  0.00000000000E+00  0.10166750931E+04  0.10166750931E+04  0.00000000000E+00 0.  1.
         21   -1    0    0  501  503 -0.00000000000E+00 -0.00000000000E+00 -0.24261443514E+03  0.24261443514E+03  0.00000000000E+00 0. -1.
          6    1    1    2  501    0 -0.72218708517E+02  0.37875118373E+03  0.55441570478E+02  0.42582363576E+03  0.17200000000E+03 0. -1.
         -6    1    1    2    0  502  0.72218708517E+02 -0.37875118373E+03  0.71861908752E+03  0.83346589252E+03  0.17200000000E+03 0.  1.
</event>
<event>
 4    1  0.4405880E+000  0.1982724E+03  0.7818608E-02  0.1151205E+00
         21   -1    0    0  503  502  0.00000000000E+00  0.00000000000E+00  0.66443330340E+03  0.66443330340E+03  0.00000000000E+00 0. -1.
         21   -1    0    0  501  503 -0.00000000000E+00 -0.00000000000E+00 -0.73449787549E+02  0.73449787549E+02  0.00000000000E+00 0. -1.
          6    1    1    2  501    0 -0.98170163588E+02 -0.95161123070E+01  0.13279375225E+03  0.23863385771E+03  0.17200000000E+03 0. -1.
         -6    1    1    2    0  502  0.98170163588E+02  0.95161123070E+01  0.45818976360E+03  0.49924923323E+03  0.17200000000E+03 0. -1.
</event>
<event>
 4    1  0.4405880E+000  0.1780787E+03  0.7818608E-02  0.1169676E+00
         21   -1    0    0  503  502  0.00000000000E+00  0.00000000000E+00  0.14247880426E+02  0.14247880426E+02  0.00000000000E+00 0. -1.
         21   -1    0    0  501  503 -0.00000000000E+00 -0.00000000000E+00 -0.22286804445E+04  0.22286804445E+04  0.00000000000E+00 0. -1.
          6    1    1    2  501    0 -0.61042125326E+01 -0.45724916823E+02 -0.10664579518E+04  0.10812236551E+04  0.17200000000E+03 0. -1.
         -6    1    1    2    0  502  0.61042125326E+01  0.45724916823E+02 -0.11479746123E+04  0.11617046698E+04  0.17200000000E+03 0. -1.
</event>
<event>
 4    1  0.4405880E+000  0.1732253E+03  0.7818608E-02  0.1174525E+00
         21   -1    0    0  501  502  0.00000000000E+00  0.00000000000E+00  0.13029483461E+03  0.13029483461E+03  0.00000000000E+00 0.  1.
         21   -1    0    0  502  503 -0.00000000000E+00 -0.00000000000E+00 -0.35997828445E+03  0.35997828445E+03  0.00000000000E+00 0.  1.
          6    1    1    2  501    0  0.10650609671E+02 -0.17594942644E+02  0.32288554110E+02  0.17620887668E+03  0.17200000000E+03 0.  1.
         -6    1    1    2    0  503 -0.10650609671E+02  0.17594942644E+02 -0.26197200395E+03  0.31406424239E+03  0.17200000000E+03 0.  1.
</event>
<event>
 4    1  0.4405880E+000  0.1766817E+03  0.7818608E-02  0.1171054E+00
         21   -1    0    0  501  502  0.00000000000E+00  0.00000000000E+00  0.11140320332E+03  0.11140320332E+03  0.00000000000E+00 0. -1.
         21   -1    0    0  502  503 -0.00000000000E+00 -0.00000000000E+00 -0.36217004330E+03  0.36217004330E+03  0.00000000000E+00 0. -1.
          6    1    1    2  501    0  0.19986433127E+02 -0.35113610617E+02 -0.12741806531E+02  0.17714055660E+03  0.17200000000E+03 0.  1.
         -6    1    1    2    0  503 -0.19986433127E+02  0.35113610617E+02 -0.23802503346E+03  0.29643269002E+03  0.17200000000E+03 0.  1.
</event>
<event>
 4    1  0.4405880E+000  0.2076482E+03  0.7818608E-02  0.1143442E+00
         21   -1    0    0  501  502  0.00000000000E+00  0.00000000000E+00  0.13355900500E+04  0.13355900500E+04  0.00000000000E+00 0. -1.
         21   -1    0    0  502  503 -0.00000000000E+00 -0.00000000000E+00 -0.32405792102E+02  0.32405792102E+02  0.00000000000E+00 0.  1.
          6    1    1    2  501    0  0.37826771069E+02  0.11001316449E+03  0.60960425345E+03  0.64399930652E+03  0.17200000000E+03 0.  1.
         -6    1    1    2    0  503 -0.37826771069E+02 -0.11001316449E+03  0.69358000446E+03  0.72399653560E+03  0.17200000000E+03 0. -1.
</event>
<event>
 4    1  0.4405880E+000  0.2282418E+03  0.7818608E-02  0.1127883E+00
         21   -1    0    0  503  502  0.00000000000E+00  0.00000000000E+00  0.99434540333E+03  0.99434540333E+03  0.00000000000E+00 0. -1.
         21   -1    0    0  501  503 -0.00000000000E+00 -0.00000000000E+00 -0.59148300483E+02  0.59148300483E+02  0.00000000000E+00 0. -1.
          6    1    1    2  501    0 -0.13701789042E+03  0.61126206605E+02  0.28955285774E+03  0.36869387418E+03  0.17200000000E+03 0. -1.
         -6    1    1    2    0  502  0.13701789042E+03 -0.61126206605E+02  0.64564424511E+03  0.68479982964E+03  0.17200000000E+03 0. -1.
</event>
<event>
 4    1  0.4405880E+000  0.2266381E+03  0.7818608E-02  0.1129029E+00
         21   -1    0    0  501  502  0.00000000000E+00  0.00000000000E+00  0.48077741548E+03  0.48077741548E+03  0.00000000000E+00 0.  1.
         21   -1    0    0  502  503 -0.00000000000E+00 -0.00000000000E+00 -0.10715991437E+03  0.10715991437E+03  0.00000000000E+00 0. -1.
          6    1    1    2  501    0 -0.10457463213E+03 -0.10413910825E+03  0.17067105956E+03  0.28371361991E+03  0.17200000000E+03 0. -1.
         -6    1    1    2    0  503  0.10457463213E+03  0.10413910825E+03  0.20294644155E+03  0.30422370994E+03  0.17200000000E+03 0. -1.
</event>
<event>
 4    1  0.4405880E+000  0.1881712E+03  0.7818608E-02  0.1160121E+00
         21   -1    0    0  501  502  0.00000000000E+00  0.00000000000E+00  0.34537939283E+03  0.34537939283E+03  0.00000000000E+00 0. -1.
         21   -1    0    0  502  503 -0.00000000000E+00 -0.00000000000E+00 -0.11040565322E+03  0.11040565322E+03  0.00000000000E+00 0. -1.
          6    1    1    2  501    0 -0.12409282821E+02 -0.75302176512E+02  0.56583086779E+02  0.19649441162E+03  0.17200000000E+03 0. -1.
         -6    1    1    2    0  503  0.12409282821E+02  0.75302176512E+02  0.17839065283E+03  0.25929063443E+03  0.17200000000E+03 0. -1.
</event>
<event>
 4    1  0.4405880E+000  0.1807501E+03  0.7818608E-02  0.1167079E+00
         21   -1    0    0  501  502  0.00000000000E+00  0.00000000000E+00  0.21800426364E+03  0.21800426364E+03  0.00000000000E+00 0. -1.
         21   -1    0    0  502  503 -0.00000000000E+00 -0.00000000000E+00 -0.18515597834E+03  0.18515597834E+03  0.00000000000E+00 0.  1.
          6    1    1    2  501    0  0.51869625608E+02 -0.19903322239E+02  0.10443329938E+03  0.20875084267E+03  0.17200000000E+03 0. -1.
         -6    1    1    2    0  503 -0.51869625608E+02  0.19903322239E+02 -0.71585014078E+02  0.19440939930E+03  0.17200000000E+03 0.  1.
</event>
<event>
 4    1  0.4405880E+000  0.1886374E+03  0.7818608E-02  0.1159696E+00
         21   -1    0    0  503  502  0.00000000000E+00  0.00000000000E+00  0.79635304900E+02  0.79635304900E+02  0.00000000000E+00 0. -1.
         21   -1    0    0  501  503 -0.00000000000E+00 -0.00000000000E+00 -0.44984550341E+03  0.44984550341E+03  0.00000000000E+00 0. -1.
          6    1    1    2  501    0  0.77454743510E+02 -0.91445337923E+00 -0.16345809446E+03  0.24960493217E+03  0.17200000000E+03 0. -1.
         -6    1    1    2    0  502 -0.77454743510E+02  0.91445337923E+00 -0.20675210405E+03  0.27987587614E+03  0.17200000000E+03 0. -1.
</event>
<event>
 4    1  0.4405880E+000  0.2148259E+03  0.7818608E-02  0.1137800E+00
         21   -1    0    0  503  502  0.00000000000E+00  0.00000000000E+00  0.15565596919E+04  0.15565596919E+04  0.00000000000E+00 0. -1.
         21   -1    0    0  501  503 -0.00000000000E+00 -0.00000000000E+00 -0.43271256113E+02  0.43271256113E+02  0.00000000000E+00 0.  1.
          6    1    1    2  501    0  0.97963222257E+02 -0.83482715570E+02  0.30782468312E+03  0.37537473576E+03  0.17200000000E+03 0.  1.
         -6    1    1    2    0  502 -0.97963222257E+02  0.83482715570E+02  0.12054637527E+04  0.12244562123E+04  0.17200000000E+03 0. -1.
</event>
<event>
 4    1  0.4405880E+000  0.2238682E+03  0.7818608E-02  0.1131032E+00
         21   -1    0    0  501  502  0.00000000000E+00  0.00000000000E+00  0.32739775276E+02  0.32739775276E+02  0.00000000000E+00 0. -1.
         21   -1    0    0  502  503 -0.00000000000E+00 -0.00000000000E+00 -0.30239276517E+04  0.30239276517E+04  0.00000000000E+00 0. -1.
          6    1    1    2  501    0 -0.12510156782E+02 -0.14274620477E+03 -0.42163990082E+03  0.47738578631E+03  0.17200000000E+03 0. -1.
         -6    1    1    2    0  503  0.12510156782E+02  0.14274620477E+03 -0.25695479756E+04  0.25792816407E+04  0.17200000000E+03 0. -1.
</event>
<event>
 4    1  0.4405880E+000  0.1854059E+03  0.7818608E-02  0.1162671E+00
         21   -1    0    0  501  502  0.00000000000E+00  0.00000000000E+00  0.79640721733E+02  0.79640721733E+02  0.00000000000E+00 0.  1.
         21   -1    0    0  502  503 -0.00000000000E+00 -0.00000000000E+00 -0.61483408238E+03  0.61483408238E+03  0.00000000000E+00 0.  1.
          6    1    1    2  501    0  0.42635089629E+02 -0.54530791983E+02 -0.78050687539E+02  0.20116477815E+03  0.17200000000E+03 0.  1.
         -6    1    1    2    0  503 -0.42635089629E+02  0.54530791983E+02 -0.45714267311E+03  0.49331002596E+03  0.17200000000E+03 0.  1.
</event>
<event>
 4    1  0.4405880E+000  0.1896741E+03  0.7818608E-02  0.1158756E+00
         21   -1    0    0  503  502  0.00000000000E+00  0.00000000000E+00  0.10110492625E+04  0.10110492625E+04  0.00000000000E+00 0. -1.
         21   -1    0    0  501  503 -0.00000000000E+00 -0.00000000000E+00 -0.11467135552E+03  0.11467135552E+03  0.00000000000E+00 0. -1.
          6    1    1    2  501    0  0.69756847207E+02 -0.39067221057E+02 -0.19254577475E+02  0.19064890308E+03  0.17200000000E+03 0. -1.
         -6    1    1    2    0  502 -0.69756847207E+02  0.39067221057E+02  0.91563248445E+03  0.93507171493E+03  0.17200000000E+03 0. -1.
</event>
<event>
 4    1  0.4405880E+000  0.2376174E+03  0.7818608E-02  0.1121390E+00
         21   -1    0    0  501  502  0.00000000000E+00  0.00000000000E+00  0.16913540318E+03  0.16913540318E+03  0.00000000000E+00 0.  1.
         21   -1    0    0  502  503 -0.00000000000E+00 -0.00000000000E+00 -0.33578380992E+03  0.33578380992E+03  0.00000000000E+00 0. -1.
          6    1    1    2  501    0  0.68093823961E+02  0.14913497243E+03 -0.10259532816E+03  0.25882003443E+03  0.17200000000E+03 0. -1.
         -6    1    1    2    0  503 -0.68093823961E+02 -0.14913497243E+03 -0.64053078589E+02  0.24609917867E+03  0.17200000000E+03 0.  1.
</event>
<event>
 4    1  0.4405880E+000  0.1806950E+03  0.7818608E-02  0.1167132E+00
         21   -1    0    0  503  502  0.00000000000E+00  0.00000000000E+00  0.19616711691E+03  0.19616711691E+03  0.00000000000E+00 0.  1.
         21   -1    0    0  501  503 -0.00000000000E+00 -0.00000000000E+00 -0.44592842715E+03  0.44592842715E+03  0.00000000000E+00 0.  1.
          6    1    1    2  501    0  0.11287239748E+02  0.54215158888E+02 -0.37904609640E+03  0.41991264380E+03  0.17200000000E+03 0.  1.
         -6    1    1    2    0  502 -0.11287239748E+02 -0.54215158888E+02  0.12928478616E+03  0.22218290026E+03  0.17200000000E+03 0.  1.
</event>
<event>
 4    1  0.4405880E+000  0.1868878E+03  0.7818608E-02  0.1161299E+00
         21   -1    0    0  503  502  0.00000000000E+00  0.00000000000E+00  0.23633566106E+03  0.23633566106E+03  0.00000000000E+00 0.  1.
         21   -1    0    0  501  503 -0.00000000000E+00 -0.00000000000E+00 -0.19208677711E+03  0.19208677711E+03  0.00000000000E+00 0.  1.
          6    1    1    2  501    0  0.53005062055E+02 -0.50333986480E+02 -0.80748295133E+02  0.20358618314E+03  0.17200000000E+03 0.  1.
         -6    1    1    2    0  502 -0.53005062055E+02  0.50333986480E+02  0.12499717908E+03  0.22483625503E+03  0.17200000000E+03 0.  1.
</event>
<event>
 4    1  0.4405880E+000  0.1734793E+03  0.7818608E-02  0.1174267E+00
         21   -1    0    0  503  502  0.00000000000E+00  0.00000000000E+00  0.37678000878E+03  0.37678000878E+03  0.00000000000E+00 0. -1.
         21   -1    0    0  501  503 -0.00000000000E+00 -0.00000000000E+00 -0.83665244714E+02  0.83665244714E+02  0.00000000000E+00 0. -1.
          6    1    1    2  501    0  0.22525248477E+02  0.19215049289E+01  0.97552068136E+02  0.19902634247E+03  0.17200000000E+03 0.  1.
         -6    1    1    2    0  502 -0.22525248477E+02 -0.19215049289E+01  0.19556269593E+03  0.26141891102E+03  0.17200000000E+03 0.  1.
</event>
<event>
 4    1  0.4405880E+000  0.1890702E+03  0.7818608E-02  0.1159303E+00
         21   -1    0    0  503  502  0.00000000000E+00  0.00000000000E+00  0.37057022723E+03  0.37057022723E+03  0.00000000000E+00 0.  1.
         21   -1    0    0  501  503 -0.00000000000E+00 -0.00000000000E+00 -0.20266397167E+03  0.20266397167E+03  0.00000000000E+00 0.  1.
          6    1    1    2  501    0 -0.26169239139E+02 -0.74018359524E+02 -0.12352450100E+03  0.22584474528E+03  0.17200000000E+03 0.  1.
         -6    1    1    2    0  502  0.26169239139E+02  0.74018359524E+02  0.29143075656E+03  0.34738945363E+03  0.17200000000E+03 0.  1.
</event>
<event>
 4    1  0.4405880E+000  0.1789571E+03  0.7818608E-02  0.1168816E+00
         21   -1    0    0  501  502  0.00000000000E+00  0.00000000000E+00  0.61639101546E+02  0.61639101546E+02  0.00000000000E+00 0. -1.
         21   -1    0    0  502  503 -0.00000000000E+00 -0.00000000000E+00 -0.66142139511E+03  0.66142139511E+03  0.00000000000E+00 0. -1.
          6    1    1    2  501    0  0.37522430302E+02  0.32151376167E+02 -0.13246360499E+03  0.22264826613E+03  0.17200000000E+03 0. -1.
         -6    1    1    2    0  503 -0.37522430302E+02 -0.32151376167E+02 -0.46731868858E+03  0.50041223053E+03  0.17200000000E+03 0. -1.
</event>
<event>
 4    1  0.4405880E+000  0.2096606E+03  0.7818608E-02  0.1141835E+00
         21   -1    0    0  503  502  0.00000000000E+00  0.00000000000E+00  0.17476134038E+03  0.17476134038E+03  0.00000000000E+00 0. -1.
         21   -1    0    0  501  503 -0.00000000000E+00 -0.00000000000E+00 -0.40066053961E+03  0.40066053961E+03  0.00000000000E+00 0. -1.
          6    1    1    2  501    0  0.34970643056E+02 -0.11467611061E+03 -0.28848016388E+03  0.35662075258E+03  0.17200000000E+03 0. -1.
         -6    1    1    2    0  502 -0.34970643056E+02  0.11467611061E+03  0.62580964651E+02  0.21880112741E+03  0.17200000000E+03 0. -1.
</event>
<event>
 4    1  0.4405880E+000  0.1845508E+03  0.7818608E-02  0.1163470E+00
         21   -1    0    0  503  502  0.00000000000E+00  0.00000000000E+00  0.10636528176E+03  0.10636528176E+03  0.00000000000E+00 0.  1.
         21   -1    0    0  501  503 -0.00000000000E+00 -0.00000000000E+00 -0.33769112096E+03  0.33769112096E+03  0.00000000000E+00 0.  1.
          6    1    1    2  501    0  0.14440042626E+02 -0.65318182194E+02 -0.65143097099E+02  0.19571050778E+03  0.17200000000E+03 0.  1.
         -6    1    1    2    0  502 -0.14440042626E+02  0.65318182194E+02 -0.16618274210E+03  0.24834589493E+03  0.17200000000E+03 0.  1.
</event>
<event>
 4    1  0.4405880E+000  0.1801148E+03  0.7818608E-02  0.1167692E+00
         21   -1    0    0  501  502  0.00000000000E+00  0.00000000000E+00  0.71637723219E+03  0.71637723219E+03  0.00000000000E+00 0. -1.
         21   -1    0    0  502  503 -0.00000000000E+00 -0.00000000000E+00 -0.45558654006E+02  0.45558654006E+02  0.00000000000E+00 0.  1.
          6    1    1    2  501    0 -0.13188504341E+02 -0.51801695278E+02  0.36491947282E+03  0.40694910483E+03  0.17200000000E+03 0. -1.
         -6    1    1    2    0  503  0.13188504341E+02  0.51801695278E+02  0.30589910536E+03  0.35498678136E+03  0.17200000000E+03 0.  1.
</event>
<event>
 4    1  0.4405880E+000  0.1999411E+03  0.7818608E-02  0.1149789E+00
         21   -1    0    0  503  502  0.00000000000E+00  0.00000000000E+00  0.51801533507E+03  0.51801533507E+03  0.00000000000E+00 0.  1.
         21   -1    0    0  501  503 -0.00000000000E+00 -0.00000000000E+00 -0.99396966721E+02  0.99396966721E+02  0.00000000000E+00 0. -1.
          6    1    1    2  501    0  0.20649736647E+02 -0.99830030411E+02  0.63334977400E+02  0.20973260585E+03  0.17200000000E+03 0. -1.
         -6    1    1    2    0  502 -0.20649736647E+02  0.99830030411E+02  0.35528339095E+03  0.40767969593E+03  0.17200000000E+03 0.  1.
</event>
<event>
 4    1  0.4405880E+000  0.1729101E+03  0.7818608E-02  0.1174847E+00
         21   -1    0    0  503  502  0.00000000000E+00  0.00000000000E+00  0.13348886230E+03  0.13348886230E+03  0.00000000000E+00 0.  1.
         21   -1    0    0  501  503 -0.00000000000E+00 -0.00000000000E+00 -0.23751713858E+03  0.23751713858E+03  0.00000000000E+00 0.  1.
          6    1    1    2  501    0 -0.51993837564E+00 -0.17710057070E+02 -0.77168341652E+01  0.17308225209E+03  0.17200000000E+03 0. -1.
         -6    1    1    2    0  502  0.51993837564E+00  0.17710057070E+02 -0.96311442108E+02  0.19792374880E+03  0.17200000000E+03 0. -1.
</event>
<event>
 4    1  0.4405880E+000  0.3241926E+03  0.7818608E-02  0.1073736E+00
         21   -1    0    0  501  502  0.00000000000E+00  0.00000000000E+00  0.11947994924E+04  0.11947994924E+04  0.00000000000E+00 0.  1.
         21   -1    0    0  502  503 -0.00000000000E+00 -0.00000000000E+00 -0.20962712955E+03  0.20962712955E+03  0.00000000000E+00 0. -1.
          6    1    1    2  501    0  0.23197520775E+03  0.14732387803E+03 -0.42375401833E+02  0.32695029703E+03  0.17200000000E+03 0.  1.
         -6    1    1    2    0  503 -0.23197520775E+03 -0.14732387803E+03  0.10275477647E+04  0.10774763249E+04  0.17200000000E+03 0. -1.
</event>
<event>
 4    1  0.4405880E+000  0.3039697E+03  0.7818608E-02  0.1083273E+00
         21   -1    0    0  501  502  0.00000000000E+00  0.00000000000E+00  0.13246937222E+04  0.13246937222E+04  0.00000000000E+00 0.  1.
         21   -1    0    0  502  503 -0.00000000000E+00 -0.00000000000E+00 -0.78592688337E+02  0.78592688337E+02  0.00000000000E+00 0.  1.
          6    1    1    2  501    0 -0.22565982812E+03  0.10904682217E+03  0.85840044395E+03  0.91063103924E+03  0.17200000000E+03 0.  1.
         -6    1    1    2    0  503  0.22565982812E+03 -0.10904682217E+03  0.38770058993E+03  0.49265537132E+03  0.17200000000E+03 0.  1.
</event>
<event>
 4    1  0.4405880E+000  0.1809190E+03  0.7818608E-02  0.1166917E+00
         21   -1    0    0  501  502  0.00000000000E+00  0.00000000000E+00  0.29814094723E+03  0.29814094723E+03  0.00000000000E+00 0. -1.
         21   -1    0    0  502  503 -0.00000000000E+00 -0.00000000000E+00 -0.10984297139E+03  0.10984297139E+03  0.00000000000E+00 0. -1.
          6    1    1    2  501    0 -0.45296987709E+02 -0.33103983491E+02  0.98796265535E+02  0.20613683053E+03  0.17200000000E+03 0. -1.
         -6    1    1    2    0  503  0.45296987709E+02  0.33103983491E+02  0.89501710307E+02  0.20184708808E+03  0.17200000000E+03 0. -1.
</event>
<event>
 4    1  0.4405880E+000  0.3420510E+03  0.7818608E-02  0.1065926E+00
         21   -1    0    0  501  502  0.00000000000E+00  0.00000000000E+00  0.21187309434E+03  0.21187309434E+03  0.00000000000E+00 0. -1.
         21   -1    0    0  502  503 -0.00000000000E+00 -0.00000000000E+00 -0.81545396241E+03  0.81545396241E+03  0.00000000000E+00 0. -1.
          6    1    1    2  501    0  0.13091891358E+03 -0.26509456646E+03 -0.99426058179E+01  0.34219547997E+03  0.17200000000E+03 0. -1.
         -6    1    1    2    0  503 -0.13091891358E+03  0.26509456646E+03 -0.59363826225E+03  0.68513157679E+03  0.17200000000E+03 0. -1.
</event>
<event>
 4    1  0.4405880E+000  0.2434649E+03  0.7818608E-02  0.1117506E+00
         21   -1    0    0  503  502  0.00000000000E+00  0.00000000000E+00  0.33073253643E+03  0.33073253643E+03  0.00000000000E+00 0. -1.
         21   -1    0    0  501  503 -0.00000000000E+00 -0.00000000000E+00 -0.18780625183E+03  0.18780625183E+03  0.00000000000E+00 0. -1.
          6    1    1    2  501    0  0.14108899710E+03 -0.98919466572E+02  0.16038859661E+02  0.24399264536E+03  0.17200000000E+03 0. -1.
         -6    1    1    2    0  502 -0.14108899710E+03  0.98919466572E+02  0.12688742494E+03  0.27454614289E+03  0.17200000000E+03 0. -1.
</event>
<event>
 4    1  0.4405880E+000  0.1771916E+03  0.7818608E-02  0.1170549E+00
         21   -1    0    0  501  502  0.00000000000E+00  0.00000000000E+00  0.36123161937E+03  0.36123161937E+03  0.00000000000E+00 0. -1.
         21   -1    0    0  502  503 -0.00000000000E+00 -0.00000000000E+00 -0.35105241060E+03  0.35105241060E+03  0.00000000000E+00 0.  1.
          6    1    1    2  501    0 -0.95617021385E+01  0.41490185342E+02  0.31401331615E+03  0.36055682540E+03  0.17200000000E+03 0. -1.
         -6    1    1    2    0  503  0.95617021385E+01 -0.41490185342E+02 -0.30383410738E+03  0.35172720457E+03  0.17200000000E+03 0.  1.
</event>
<event>
 4    1  0.4405880E+000  0.3178226E+03  0.7818608E-02  0.1076656E+00
         21   -1    0    0  501  502  0.00000000000E+00  0.00000000000E+00  0.15007105905E+04  0.15007105905E+04  0.00000000000E+00 0. -1.
         21   -1    0    0  502  503 -0.00000000000E+00 -0.00000000000E+00 -0.17694769273E+03  0.17694769273E+03  0.00000000000E+00 0. -1.
          6    1    1    2  501    0 -0.26543819055E+03  0.31141077729E+02  0.13221690662E+04  0.13598316952E+04  0.17200000000E+03 0. -1.
         -6    1    1    2    0  503  0.26543819055E+03 -0.31141077729E+02  0.15938315308E+01  0.31782658797E+03  0.17200000000E+03 0. -1.
</event>
<event>
 4    1  0.4405880E+000  0.2034661E+03  0.7818608E-02  0.1146847E+00
         21   -1    0    0  503  502  0.00000000000E+00  0.00000000000E+00  0.10825212248E+03  0.10825212248E+03  0.00000000000E+00 0. -1.
         21   -1    0    0  501  503 -0.00000000000E+00 -0.00000000000E+00 -0.48744622013E+03  0.48744622013E+03  0.00000000000E+00 0. -1.
          6    1    1    2  501    0  0.92211905784E+02 -0.57544846947E+02 -0.32784832404E+03  0.38585355843E+03  0.17200000000E+03 0. -1.
         -6    1    1    2    0  502 -0.92211905784E+02  0.57544846947E+02 -0.51345773615E+02  0.20984478418E+03  0.17200000000E+03 0. -1.
</event>
<event>
 4    1  0.4405880E+000  0.1752186E+03  0.7818608E-02  0.1172512E+00
         21   -1    0    0  503  502  0.00000000000E+00  0.00000000000E+00  0.75489337140E+03  0.75489337140E+03  0.00000000000E+00 0.  1.
         21   -1    0    0  501  503 -0.00000000000E+00 -0.00000000000E+00 -0.43648717576E+02  0.43648717576E+02  0.00000000000E+00 0.  1.
          6    1    1    2  501    0 -0.29004948587E+02 -0.16621176002E+02  0.25132020325E+03  0.30637133531E+03  0.17200000000E+03 0.  1.
         -6    1    1    2    0  502  0.29004948587E+02  0.16621176002E+02  0.45992445057E+03  0.49217075366E+03  0.17200000000E+03 0.  1.
</event>
<event>
 4    1  0.4405880E+000  0.1883948E+03  0.7818608E-02  0.1159917E+00
         21   -1    0    0  503  502  0.00000000000E+00  0.00000000000E+00  0.11098563470E+04  0.11098563470E+04  0.00000000000E+00 0. -1.
         21   -1    0    0  501  503 -0.00000000000E+00 -0.00000000000E+00 -0.35777509343E+02  0.35777509343E+02  0.00000000000E+00 0.  1.
          6    1    1    2  501    0 -0.74731737420E+02 -0.17993786711E+02  0.35040532787E+03  0.39783979531E+03  0.17200000000E+03 0.  1.
         -6    1    1    2    0  502  0.74731737420E+02  0.17993786711E+02  0.72367350978E+03  0.74779406102E+03  0.17200000000E+03 0. -1.
</event>
<event>
 4    1  0.4405880E+000  0.2329174E+03  0.7818608E-02  0.1124603E+00
         21   -1    0    0  501  502  0.00000000000E+00  0.00000000000E+00  0.13262444445E+03  0.13262444445E+03  0.00000000000E+00 0. -1.
         21   -1    0    0  502  503 -0.00000000000E+00 -0.00000000000E+00 -0.42591527469E+03  0.42591527469E+03  0.00000000000E+00 0.  1.
          6    1    1    2  501    0 -0.11905780802E+03 -0.10242935391E+03 -0.91079289267E+02  0.25009192535E+03  0.17200000000E+03 0. -1.
         -6    1    1    2    0  503  0.11905780802E+03  0.10242935391E+03 -0.20221154097E+03  0.30844779379E+03  0.17200000000E+03 0.  1.
</event>
<event>
 4    1  0.4405880E+000  0.1743013E+03  0.7818608E-02  0.1173435E+00
         21   -1    0    0  503  502  0.00000000000E+00  0.00000000000E+00  0.51975164381E+03  0.51975164381E+03  0.00000000000E+00 0.  1.
         21   -1    0    0  501  503 -0.00000000000E+00 -0.00000000000E+00 -0.80446245435E+02  0.80446245435E+02  0.00000000000E+00 0.  1.
          6    1    1    2  501    0  0.78667904029E+01 -0.27111724986E+02  0.62739909465E+02  0.18524909787E+03  0.17200000000E+03 0.  1.
         -6    1    1    2    0  502 -0.78667904029E+01  0.27111724986E+02  0.37656548891E+03  0.41494879137E+03  0.17200000000E+03 0.  1.
</event>
<event>
 4    1  0.4405880E+000  0.2166367E+03  0.7818608E-02  0.1136416E+00
         21   -1    0    0  501  502  0.00000000000E+00  0.00000000000E+00  0.56812481101E+03  0.56812481101E+03  0.00000000000E+00 0.  1.
         21   -1    0    0  502  503 -0.00000000000E+00 -0.00000000000E+00 -0.83038868721E+02  0.83038868721E+02  0.00000000000E+00 0.  1.
          6    1    1    2  501    0 -0.98912015640E+02 -0.86970436043E+02  0.26600571859E+03  0.34306046975E+03  0.17200000000E+03 0.  1.
         -6    1    1    2    0  503  0.98912015640E+02  0.86970436043E+02  0.21908022370E+03  0.30810320998E+03  0.17200000000E+03 0.  1.
</event>
<event>
 4    1  0.4405880E+000  0.1955816E+03  0.7818608E-02  0.1153521E+00
         21   -1    0    0  501  502  0.00000000000E+00  0.00000000000E+00  0.16789547309E+04  0.16789547309E+04  0.00000000000E+00 0. -1.
         21   -1    0    0  502  503 -0.00000000000E+00 -0.00000000000E+00 -0.23084483459E+02  0.23084483459E+02  0.00000000000E+00 0.  1.
          6    1    1    2  501    0 -0.11232001852E+02 -0.92422932279E+02  0.73073127331E+03  0.75645247708E+03  0.17200000000E+03 0.  1.
         -6    1    1    2    0  503  0.11232001852E+02  0.92422932279E+02  0.92513897418E+03  0.94558673733E+03  0.17200000000E+03 0.  1.
</event>
<event>
 4    1  0.4405880E+000  0.2330716E+03  0.7818608E-02  0.1124496E+00
         21   -1    0    0  503  502  0.00000000000E+00  0.00000000000E+00  0.38817874738E+03  0.38817874738E+03  0.00000000000E+00 0. -1.
         21   -1    0    0  501  503 -0.00000000000E+00 -0.00000000000E+00 -0.16790548152E+03  0.16790548152E+03  0.00000000000E+00 0.  1.
          6    1    1    2  501    0  0.56343261541E+02  0.14684616425E+03 -0.33322528567E+01  0.23309539461E+03  0.17200000000E+03 0.  1.
         -6    1    1    2    0  502 -0.56343261541E+02 -0.14684616425E+03  0.22360551872E+03  0.32298883429E+03  0.17200000000E+03 0. -1.
</event>
<event>
 4    1  0.4405880E+000  0.1893145E+03  0.7818608E-02  0.1159081E+00
         21   -1    0    0  503  502  0.00000000000E+00  0.00000000000E+00  0.32144605780E+03  0.32144605780E+03  0.00000000000E+00 0.  1.
         21   -1    0    0  501  503 -0.00000000000E+00 -0.00000000000E+00 -0.14448329519E+03  0.14448329519E+03  0.00000000000E+00 0.  1.
          6    1    1    2  501    0 -0.64509121347E+02 -0.45766107843E+02 -0.22833782446E+02  0.19068650971E+03  0.17200000000E+03 0.  1.
         -6    1    1    2    0  502  0.64509121347E+02  0.45766107843E+02  0.19979654505E+03  0.27524284328E+03  0.17200000000E+03 0.  1.
</event>
<event>
 4    1  0.4405880E+000  0.2807475E+03  0.7818608E-02  0.1095281E+00
         21   -1    0    0  503  502  0.00000000000E+00  0.00000000000E+00  0.14009949107E+03  0.14009949107E+03  0.00000000000E+00 0. -1.
         21   -1    0    0  501  503 -0.00000000000E+00 -0.00000000000E+00 -0.58540998545E+03  0.58540998545E+03  0.00000000000E+00 0. -1.
          6    1    1    2  501    0 -0.20903681327E+03 -0.74422870962E+02 -0.29426980118E+03  0.40671103859E+03  0.17200000000E+03 0. -1.
         -6    1    1    2    0  502  0.20903681327E+03  0.74422870962E+02 -0.15104069320E+03  0.31879843793E+03  0.17200000000E+03 0. -1.
</event>
<event>
 4    1  0.4405880E+000  0.2231252E+03  0.7818608E-02  0.1131574E+00
         21   -1    0    0  501  502  0.00000000000E+00  0.00000000000E+00  0.11785459591E+03  0.11785459591E+03  0.00000000000E+00 0.  1.
         21   -1    0    0  502  503 -0.00000000000E+00 -0.00000000000E+00 -0.46546775905E+03  0.46546775905E+03  0.00000000000E+00 0. -1.
          6    1    1    2  501    0 -0.12927970035E+03 -0.59055858605E+02 -0.85115640315E+02  0.23880851657E+03  0.17200000000E+03 0.  1.
         -6    1    1    2    0  503  0.12927970035E+03  0.59055858605E+02 -0.26249752283E+03  0.34451383840E+03  0.17200000000E+03 0. -1.
</event>
<event>
 4    1  0.4405880E+000  0.1860593E+03  0.7818608E-02  0.1162064E+00
         21   -1    0    0  503  502  0.00000000000E+00  0.00000000000E+00  0.55945986891E+02  0.55945986891E+02  0.00000000000E+00 0. -1.
         21   -1    0    0  501  503 -0.00000000000E+00 -0.00000000000E+00 -0.62422199540E+03  0.62422199540E+03  0.00000000000E+00 0. -1.
          6    1    1    2  501    0 -0.46879396204E+02  0.53257699125E+02 -0.31590210253E+03  0.36662269254E+03  0.17200000000E+03 0. -1.
         -6    1    1    2    0  502  0.46879396204E+02 -0.53257699125E+02 -0.25237390598E+03  0.31354528975E+03  0.17200000000E+03 0. -1.
</event>
<event>
 4    1  0.4405880E+000  0.2508031E+03  0.7818608E-02  0.1112798E+00
         21   -1    0    0  501  502  0.00000000000E+00  0.00000000000E+00  0.11805753318E+04  0.11805753318E+04  0.00000000000E+00 0. -1.
         21   -1    0    0  502  503 -0.00000000000E+00 -0.00000000000E+00 -0.53849761075E+02  0.53849761075E+02  0.00000000000E+00 0.  1.
          6    1    1    2  501    0  0.17998349320E+03 -0.30399653535E+02  0.49992910448E+03  0.55931324520E+03  0.17200000000E+03 0.  1.
         -6    1    1    2    0  503 -0.17998349320E+03  0.30399653535E+02  0.62679646622E+03  0.67511184765E+03  0.17200000000E+03 0. -1.
</event>
<event>
 4    1  0.4405880E+000  0.2231609E+03  0.7818608E-02  0.1131548E+00
         21   -1    0    0  503  502  0.00000000000E+00  0.00000000000E+00  0.42176396123E+03  0.42176396123E+03  0.00000000000E+00 0.  1.
         21   -1    0    0  501  503 -0.00000000000E+00 -0.00000000000E+00 -0.11908089312E+03  0.11908089312E+03  0.00000000000E+00 0.  1.
          6    1    1    2  501    0 -0.11283498932E+03  0.86516304467E+02  0.12651753272E+03  0.25652970947E+03  0.17200000000E+03 0.  1.
         -6    1    1    2    0  502  0.11283498932E+03 -0.86516304467E+02  0.17616553539E+03  0.28431514489E+03  0.17200000000E+03 0.  1.
</event>
<event>
 4    1  0.4405880E+000  0.1906312E+03  0.7818608E-02  0.1157893E+00
         21   -1    0    0  501  502  0.00000000000E+00  0.00000000000E+00  0.99724496936E+02  0.99724496936E+02  0.00000000000E+00 0. -1.
         21   -1    0    0  502  503 -0.00000000000E+00 -0.00000000000E+00 -0.54433402357E+03  0.54433402357E+03  0.00000000000E+00 0.  1.
          6    1    1    2  501    0 -0.25354655247E+02  0.78188097402E+02 -0.40744960234E+03  0.44983932194E+03  0.17200000000E+03 0.  1.
         -6    1    1    2    0  503  0.25354655247E+02 -0.78188097402E+02 -0.37159924296E+02  0.19421919857E+03  0.17200000000E+03 0. -1.
</event>
<event>
 4    1  0.4405880E+000  0.1817230E+03  0.7818608E-02  0.1166146E+00
         21   -1    0    0  503  502  0.00000000000E+00  0.00000000000E+00  0.28977264851E+03  0.28977264851E+03  0.00000000000E+00 0. -1.
         21   -1    0    0  501  503 -0.00000000000E+00 -0.00000000000E+00 -0.13166147863E+03  0.13166147863E+03  0.00000000000E+00 0. -1.
          6    1    1    2  501    0 -0.20731347271E+02 -0.54858659067E+02  0.17977549292E+01  0.18173192663E+03  0.17200000000E+03 0. -1.
         -6    1    1    2    0  502  0.20731347271E+02  0.54858659067E+02  0.15631341496E+03  0.23970220051E+03  0.17200000000E+03 0. -1.
</event>
<event>
 4    1  0.4405880E+000  0.2023928E+03  0.7818608E-02  0.1147736E+00
         21   -1    0    0  503  502  0.00000000000E+00  0.00000000000E+00  0.32658393339E+03  0.32658393339E+03  0.00000000000E+00 0.  1.
         21   -1    0    0  501  503 -0.00000000000E+00 -0.00000000000E+00 -0.15579048219E+03  0.15579048219E+03  0.00000000000E+00 0.  1.
          6    1    1    2  501    0  0.39255039397E+01 -0.10659936693E+03 -0.21079101372E+02  0.20348750115E+03  0.17200000000E+03 0.  1.
         -6    1    1    2    0  502 -0.39255039397E+01  0.10659936693E+03  0.19187255257E+03  0.27888691443E+03  0.17200000000E+03 0.  1.
</event>
<event>
 4    1  0.4405880E+000  0.2144649E+03  0.7818608E-02  0.1138078E+00
         21   -1    0    0  503  502  0.00000000000E+00  0.00000000000E+00  0.31165643289E+03  0.31165643289E+03  0.00000000000E+00 0.  1.
         21   -1    0    0  501  503 -0.00000000000E+00 -0.00000000000E+00 -0.15596036943E+03  0.15596036943E+03  0.00000000000E+00 0. -1.
          6    1    1    2  501    0 -0.21406303093E+02  0.12630499368E+03  0.23659465785E+02  0.21576596479E+03  0.17200000000E+03 0. -1.
         -6    1    1    2    0  502  0.21406303093E+02 -0.12630499368E+03  0.13203659767E+03  0.25185083753E+03  0.17200000000E+03 0.  1.
</event>
<event>
 4    1  0.4405880E+000  0.1909088E+03  0.7818608E-02  0.1157644E+00
         21   -1    0    0  501  502  0.00000000000E+00  0.00000000000E+00  0.49865634544E+02  0.49865634544E+02  0.00000000000E+00 0. -1.
         21   -1    0    0  502  503 -0.00000000000E+00 -0.00000000000E+00 -0.74392192807E+03  0.74392192807E+03  0.00000000000E+00 0. -1.
          6    1    1    2  501    0 -0.80215618710E+02  0.20678959229E+02 -0.39956426528E+03  0.44282927514E+03  0.17200000000E+03 0. -1.
         -6    1    1    2    0  503  0.80215618710E+02 -0.20678959229E+02 -0.29449202825E+03  0.35095828747E+03  0.17200000000E+03 0. -1.
</event>
<event>
 4    1  0.4405880E+000  0.2899341E+03  0.7818608E-02  0.1090384E+00
         21   -1    0    0  503  502  0.00000000000E+00  0.00000000000E+00  0.21671593813E+03  0.21671593813E+03  0.00000000000E+00 0. -1.
         21   -1    0    0  501  503 -0.00000000000E+00 -0.00000000000E+00 -0.57859605818E+03  0.57859605818E+03  0.00000000000E+00 0.  1.
          6    1    1    2  501    0 -0.21756285633E+03 -0.84523415975E+02 -0.40923841787E+03  0.50153552912E+03  0.17200000000E+03 0.  1.
         -6    1    1    2    0  502  0.21756285633E+03  0.84523415975E+02  0.47358297825E+02  0.29377646719E+03  0.17200000000E+03 0. -1.
</event>
<event>
 4    1  0.4405880E+000  0.2078794E+03  0.7818608E-02  0.1143256E+00
         21   -1    0    0  501  502  0.00000000000E+00  0.00000000000E+00  0.60441421370E+03  0.60441421370E+03  0.00000000000E+00 0.  1.
         21   -1    0    0  502  503 -0.00000000000E+00 -0.00000000000E+00 -0.93768889139E+02  0.93768889139E+02  0.00000000000E+00 0.  1.
          6    1    1    2  501    0  0.76222818656E+02 -0.88430366745E+02  0.42545534808E+03  0.47352518524E+03  0.17200000000E+03 0.  1.
         -6    1    1    2    0  503 -0.76222818656E+02  0.88430366745E+02  0.85189976479E+02  0.22465791760E+03  0.17200000000E+03 0.  1.
</event>
<event>
 4    1  0.4405880E+000  0.2268664E+03  0.7818608E-02  0.1128865E+00
         21   -1    0    0  501  502  0.00000000000E+00  0.00000000000E+00  0.14928548737E+04  0.14928548737E+04  0.00000000000E+00 0. -1.
         21   -1    0    0  502  503 -0.00000000000E+00 -0.00000000000E+00 -0.37523155962E+02  0.37523155962E+02  0.00000000000E+00 0. -1.
          6    1    1    2  501    0  0.10817377577E+03 -0.10090983597E+03  0.94570434404E+03  0.97253538089E+03  0.17200000000E+03 0. -1.
         -6    1    1    2    0  503 -0.10817377577E+03  0.10090983597E+03  0.50962737371E+03  0.55784264878E+03  0.17200000000E+03 0. -1.
</event>
<event>
 4    1  0.4405880E+000  0.2070605E+03  0.7818608E-02  0.1143915E+00
         21   -1    0    0  501  502  0.00000000000E+00  0.00000000000E+00  0.29737734797E+02  0.29737734797E+02  0.00000000000E+00 0. -1.
         21   -1    0    0  502  503 -0.00000000000E+00 -0.00000000000E+00 -0.24093393597E+04  0.24093393597E+04  0.00000000000E+00 0.  1.
          6    1    1    2  501    0  0.29750222361E+02 -0.11137765919E+03 -0.41695207000E+03  0.46553526974E+03  0.17200000000E+03 0. -1.
         -6    1    1    2    0  503 -0.29750222361E+02  0.11137765919E+03 -0.19626495549E+04  0.19735418247E+04  0.17200000000E+03 0.  1.
</event>
<event>
 4    1  0.4405880E+000  0.1838565E+03  0.7818608E-02  0.1164122E+00
         21   -1    0    0  501  502  0.00000000000E+00  0.00000000000E+00  0.12217889999E+04  0.12217889999E+04  0.00000000000E+00 0.  1.
         21   -1    0    0  502  503 -0.00000000000E+00 -0.00000000000E+00 -0.28337249740E+02  0.28337249740E+02  0.00000000000E+00 0.  1.
          6    1    1    2  501    0  0.63766080228E+02  0.12373273288E+02  0.69285834197E+03  0.71683742432E+03  0.17200000000E+03 0.  1.
         -6    1    1    2    0  503 -0.63766080228E+02 -0.12373273288E+02  0.50059340819E+03  0.53328882531E+03  0.17200000000E+03 0.  1.
</event>
<event>
 4    1  0.4405880E+000  0.2381300E+03  0.7818608E-02  0.1121045E+00
         21   -1    0    0  503  502  0.00000000000E+00  0.00000000000E+00  0.12778281245E+03  0.12778281245E+03  0.00000000000E+00 0.  1.
         21   -1    0    0  501  503 -0.00000000000E+00 -0.00000000000E+00 -0.50444923241E+03  0.50444923241E+03  0.00000000000E+00 0. -1.
          6    1    1    2  501    0  0.10181931034E+03  0.12943998827E+03 -0.29797247338E+03  0.38143607251E+03  0.17200000000E+03 0.  1.
         -6    1    1    2    0  502 -0.10181931034E+03 -0.12943998827E+03 -0.78693946585E+02  0.25079597236E+03  0.17200000000E+03 0. -1.
</event>
<event>
 4    1  0.4405880E+000  0.2223543E+03  0.7818608E-02  0.1132140E+00
         21   -1    0    0  501  502  0.00000000000E+00  0.00000000000E+00  0.14006006849E+03  0.14006006849E+03  0.00000000000E+00 0. -1.
         21   -1    0    0  502  503 -0.00000000000E+00 -0.00000000000E+00 -0.42717402432E+03  0.42717402432E+03  0.00000000000E+00 0. -1.
          6    1    1    2  501    0  0.56436895728E+02  0.12912137629E+03 -0.25375169357E+02  0.22379756977E+03  0.17200000000E+03 0. -1.
         -6    1    1    2    0  503 -0.56436895728E+02 -0.12912137629E+03 -0.26173878647E+03  0.34343652304E+03  0.17200000000E+03 0. -1.
</event>
<event>
 4    1  0.4405880E+000  0.1806383E+03  0.7818608E-02  0.1167187E+00
         21   -1    0    0  503  502  0.00000000000E+00  0.00000000000E+00  0.24440934382E+03  0.24440934382E+03  0.00000000000E+00 0.  1.
         21   -1    0    0  501  503 -0.00000000000E+00 -0.00000000000E+00 -0.29108719938E+03  0.29108719938E+03  0.00000000000E+00 0.  1.
          6    1    1    2  501    0  0.54191482120E+02 -0.10462681426E+02 -0.22033924480E+03  0.28492028225E+03  0.17200000000E+03 0.  1.
         -6    1    1    2    0  502 -0.54191482120E+02  0.10462681426E+02  0.17366138924E+03  0.25057626094E+03  0.17200000000E+03 0.  1.
</event>
<event>
 4    1  0.4405880E+000  0.3614472E+03  0.7818608E-02  0.1058012E+00
         21   -1    0    0  503  502  0.00000000000E+00  0.00000000000E+00  0.25713200777E+04  0.25713200777E+04  0.00000000000E+00 0. -1.
         21   -1    0    0  501  503 -0.00000000000E+00 -0.00000000000E+00 -0.55795386547E+02  0.55795386547E+02  0.00000000000E+00 0.  1.
          6    1    1    2  501    0  0.31180904382E+03  0.61929217778E+02  0.86504647526E+03  0.93752307288E+03  0.17200000000E+03 0.  1.
         -6    1    1    2    0  502 -0.31180904382E+03 -0.61929217778E+02  0.16504782159E+04  0.16895923913E+04  0.17200000000E+03 0. -1.
</event>
<event>
 4    1  0.4405880E+000  0.1789398E+03  0.7818608E-02  0.1168833E+00
         21   -1    0    0  503  502  0.00000000000E+00  0.00000000000E+00  0.70420969603E+03  0.70420969603E+03  0.00000000000E+00 0. -1.
         21   -1    0    0  501  503 -0.00000000000E+00 -0.00000000000E+00 -0.51699358049E+02  0.51699358049E+02  0.00000000000E+00 0. -1.
          6    1    1    2  501    0 -0.15179328113E+02  0.46957977396E+02  0.19504554084E+03  0.26469270229E+03  0.17200000000E+03 0. -1.
         -6    1    1    2    0  502  0.15179328113E+02 -0.46957977396E+02  0.45746479714E+03  0.49121635178E+03  0.17200000000E+03 0. -1.
</event>
<event>
 4    1  0.4405880E+000  0.1970759E+03  0.7818608E-02  0.1152230E+00
         21   -1    0    0  503  502  0.00000000000E+00  0.00000000000E+00  0.91232987909E+03  0.91232987909E+03  0.00000000000E+00 0.  1.
         21   -1    0    0  501  503 -0.00000000000E+00 -0.00000000000E+00 -0.60055633022E+02  0.60055633022E+02  0.00000000000E+00 0.  1.
          6    1    1    2  501    0 -0.33142946833E+01 -0.96145429725E+02  0.16380102136E+03  0.25626100524E+03  0.17200000000E+03 0.  1.
         -6    1    1    2    0  502  0.33142946833E+01  0.96145429725E+02  0.68847322471E+03  0.71612450687E+03  0.17200000000E+03 0.  1.
</event>
<event>
 4    1  0.4405880E+000  0.2515344E+03  0.7818608E-02  0.1112339E+00
         21   -1    0    0  501  502  0.00000000000E+00  0.00000000000E+00  0.62027706965E+03  0.62027706965E+03  0.00000000000E+00 0. -1.
         21   -1    0    0  502  503 -0.00000000000E+00 -0.00000000000E+00 -0.13320346815E+03  0.13320346815E+03  0.00000000000E+00 0. -1.
          6    1    1    2  501    0  0.83815458000E+02  0.16328051256E+03  0.42587227610E+03  0.49460767516E+03  0.17200000000E+03 0. -1.
         -6    1    1    2    0  503 -0.83815458000E+02 -0.16328051256E+03  0.61201325405E+02  0.25887286265E+03  0.17200000000E+03 0. -1.
</event>
<event>
 4    1  0.4405880E+000  0.2143630E+03  0.7818608E-02  0.1138157E+00
         21   -1    0    0  503  502  0.00000000000E+00  0.00000000000E+00  0.23893982238E+03  0.23893982238E+03  0.00000000000E+00 0. -1.
         21   -1    0    0  501  503 -0.00000000000E+00 -0.00000000000E+00 -0.35658478625E+03  0.35658478625E+03  0.00000000000E+00 0. -1.
          6    1    1    2  501    0 -0.12695344606E+03  0.15822114276E+02 -0.26092337726E+03  0.33768702310E+03  0.17200000000E+03 0. -1.
         -6    1    1    2    0  502  0.12695344606E+03 -0.15822114276E+02  0.14327841340E+03  0.25783758553E+03  0.17200000000E+03 0. -1.
</event>
<event>
 4    1  0.4405880E+000  0.2491437E+03  0.7818608E-02  0.1113847E+00
         21   -1    0    0  501  502  0.00000000000E+00  0.00000000000E+00  0.33575302025E+03  0.33575302025E+03  0.00000000000E+00 0. -1.
         21   -1    0    0  502  503 -0.00000000000E+00 -0.00000000000E+00 -0.19929456777E+03  0.19929456777E+03  0.00000000000E+00 0.  1.
          6    1    1    2  501    0 -0.42925438027E+02 -0.17505995111E+03  0.14018738407E+03  0.28587599124E+03  0.17200000000E+03 0. -1.
         -6    1    1    2    0  503  0.42925438027E+02  0.17505995111E+03 -0.37289315885E+01  0.24917159678E+03  0.17200000000E+03 0.  1.
</event>
<event>
 4    1  0.4405880E+000  0.1966211E+03  0.7818608E-02  0.1152621E+00
         21   -1    0    0  501  502  0.00000000000E+00  0.00000000000E+00  0.14250118550E+03  0.14250118550E+03  0.00000000000E+00 0. -1.
         21   -1    0    0  502  503 -0.00000000000E+00 -0.00000000000E+00 -0.54260235564E+03  0.54260235564E+03  0.00000000000E+00 0. -1.
          6    1    1    2  501    0 -0.93274302257E+02 -0.19384682870E+02  0.42172845492E+02  0.20109303889E+03  0.17200000000E+03 0. -1.
         -6    1    1    2    0  503  0.93274302257E+02  0.19384682870E+02 -0.44227401563E+03  0.48401050226E+03  0.17200000000E+03 0. -1.
</event>
<event>
 4    1  0.4405880E+000  0.2276350E+03  0.7818608E-02  0.1128315E+00
         21   -1    0    0  501  502  0.00000000000E+00  0.00000000000E+00  0.33278537040E+03  0.33278537040E+03  0.00000000000E+00 0. -1.
         21   -1    0    0  502  503 -0.00000000000E+00 -0.00000000000E+00 -0.33208689005E+03  0.33208689005E+03  0.00000000000E+00 0. -1.
          6    1    1    2  501    0 -0.12610912397E+03  0.79562575102E+02  0.24262183248E+03  0.33269064926E+03  0.17200000000E+03 0. -1.
         -6    1    1    2    0  503  0.12610912397E+03 -0.79562575102E+02 -0.24192335213E+03  0.33218161119E+03  0.17200000000E+03 0. -1.
</event>
<event>
 4    1  0.4405880E+000  0.1855379E+03  0.7818608E-02  0.1162549E+00
         21   -1    0    0  503  502  0.00000000000E+00  0.00000000000E+00  0.96687266064E+02  0.96687266064E+02  0.00000000000E+00 0.  1.
         21   -1    0    0  501  503 -0.00000000000E+00 -0.00000000000E+00 -0.48689465106E+03  0.48689465106E+03  0.00000000000E+00 0.  1.
          6    1    1    2  501    0  0.58277289027E+02 -0.38000896046E+02 -0.34637367270E+03  0.39293642190E+03  0.17200000000E+03 0.  1.
         -6    1    1    2    0  502 -0.58277289027E+02  0.38000896046E+02 -0.43833712300E+02  0.19064549523E+03  0.17200000000E+03 0.  1.
</event>
<event>
 4    1  0.4405880E+000  0.1760128E+03  0.7818608E-02  0.1171719E+00
         21   -1    0    0  503  502  0.00000000000E+00  0.00000000000E+00  0.76963566755E+02  0.76963566755E+02  0.00000000000E+00 0. -1.
         21   -1    0    0  501  503 -0.00000000000E+00 -0.00000000000E+00 -0.48143105015E+03  0.48143105015E+03  0.00000000000E+00 0. -1.
          6    1    1    2  501    0 -0.92730257457E+01 -0.36201096696E+02 -0.31525823224E+03  0.36106545307E+03  0.17200000000E+03 0. -1.
         -6    1    1    2    0  502  0.92730257457E+01  0.36201096696E+02 -0.89209251164E+02  0.19732916384E+03  0.17200000000E+03 0. -1.
</event>
<event>
 4    1  0.4405880E+000  0.2042732E+03  0.7818608E-02  0.1146183E+00
         21   -1    0    0  503  502  0.00000000000E+00  0.00000000000E+00  0.12926388559E+03  0.12926388559E+03  0.00000000000E+00 0.  1.
         21   -1    0    0  501  503 -0.00000000000E+00 -0.00000000000E+00 -0.69840930422E+03  0.69840930422E+03  0.00000000000E+00 0. -1.
          6    1    1    2  501    0  0.90170321717E+02 -0.63347131486E+02 -0.58805744332E+03  0.62252638710E+03  0.17200000000E+03 0. -1.
         -6    1    1    2    0  502 -0.90170321717E+02  0.63347131486E+02  0.18912024683E+02  0.20514680271E+03  0.17200000000E+03 0.  1.
</event>
<event>
 4    1  0.4405880E+000  0.2089587E+03  0.7818608E-02  0.1142393E+00
         21   -1    0    0  503  502  0.00000000000E+00  0.00000000000E+00  0.21380969067E+04  0.21380969067E+04  0.00000000000E+00 0.  1.
         21   -1    0    0  501  503 -0.00000000000E+00 -0.00000000000E+00 -0.25557269526E+02  0.25557269526E+02  0.00000000000E+00 0. -1.
          6    1    1    2  501    0  0.11660244528E+03  0.21991266862E+02  0.57132589607E+03  0.60833956437E+03  0.17200000000E+03 0. -1.
         -6    1    1    2    0  502 -0.11660244528E+03 -0.21991266862E+02  0.15412137411E+04  0.15553146118E+04  0.17200000000E+03 0.  1.
</event>
<event>
 4    1  0.4405880E+000  0.1919539E+03  0.7818608E-02  0.1156711E+00
         21   -1    0    0  503  502  0.00000000000E+00  0.00000000000E+00  0.93633821252E+03  0.93633821252E+03  0.00000000000E+00 0. -1.
         21   -1    0    0  501  503 -0.00000000000E+00 -0.00000000000E+00 -0.40696432752E+02  0.40696432752E+02  0.00000000000E+00 0. -1.
          6    1    1    2  501    0 -0.68884755426E+02 -0.50171793118E+02  0.35901307431E+03  0.40710773252E+03  0.17200000000E+03 0. -1.
         -6    1    1    2    0  502  0.68884755426E+02  0.50171793118E+02  0.53662870546E+03  0.56992691276E+03  0.17200000000E+03 0. -1.
</event>
<event>
 4    1  0.4405880E+000  0.1729897E+03  0.7818608E-02  0.1174765E+00
         21   -1    0    0  501  502  0.00000000000E+00  0.00000000000E+00  0.34408264965E+03  0.34408264965E+03  0.00000000000E+00 0. -1.
         21   -1    0    0  502  503 -0.00000000000E+00 -0.00000000000E+00 -0.22429058210E+03  0.22429058210E+03  0.00000000000E+00 0. -1.
          6    1    1    2  501    0 -0.18204094040E+02  0.31699253848E+01  0.28225943193E+03  0.33105260063E+03  0.17200000000E+03 0. -1.
         -6    1    1    2    0  503  0.18204094040E+02 -0.31699253848E+01 -0.16246736438E+03  0.23732063112E+03  0.17200000000E+03 0. -1.
</event>
<event>
 4    1  0.4405880E+000  0.2807269E+03  0.7818608E-02  0.1095293E+00
         21   -1    0    0  501  502  0.00000000000E+00  0.00000000000E+00  0.87936811637E+02  0.87936811637E+02  0.00000000000E+00 0. -1.
         21   -1    0    0  502  503 -0.00000000000E+00 -0.00000000000E+00 -0.24999866943E+04  0.24999866943E+04  0.00000000000E+00 0. -1.
          6    1    1    2  501    0 -0.14770337540E+03 -0.16555153513E+03 -0.16962350172E+03  0.32799349113E+03  0.17200000000E+03 0. -1.
         -6    1    1    2    0  503  0.14770337540E+03  0.16555153513E+03 -0.22424263810E+04  0.22599300148E+04  0.17200000000E+03 0. -1.
</event>
<event>
 4    1  0.4405880E+000  0.1925066E+03  0.7818608E-02  0.1156220E+00
         21   -1    0    0  503  502  0.00000000000E+00  0.00000000000E+00  0.76188952098E+03  0.76188952098E+03  0.00000000000E+00 0. -1.
         21   -1    0    0  501  503 -0.00000000000E+00 -0.00000000000E+00 -0.10359386634E+03  0.10359386634E+03  0.00000000000E+00 0. -1.
          6    1    1    2  501    0 -0.38458343534E+01 -0.86371369147E+02  0.13968107244E+02  0.19301272463E+03  0.17200000000E+03 0. -1.
         -6    1    1    2    0  502  0.38458343534E+01  0.86371369147E+02  0.64432754740E+03  0.67247066269E+03  0.17200000000E+03 0. -1.
</event>
<event>
 4    1  0.4405880E+000  0.1904395E+03  0.7818608E-02  0.1158066E+00
         21   -1    0    0  503  502  0.00000000000E+00  0.00000000000E+00  0.10317125285E+04  0.10317125285E+04  0.00000000000E+00 0. -1.
         21   -1    0    0  501  503 -0.00000000000E+00 -0.00000000000E+00 -0.50403322991E+02  0.50403322991E+02  0.00000000000E+00 0.  1.
          6    1    1    2  501    0 -0.48138353771E+02 -0.66074931283E+02  0.19303476097E+03  0.27116344996E+03  0.17200000000E+03 0.  1.
         -6    1    1    2    0  502  0.48138353771E+02  0.66074931283E+02  0.78827444457E+03  0.81095240157E+03  0.17200000000E+03 0. -1.
</event>
<event>
 4    1  0.4405880E+000  0.2672641E+03  0.7818608E-02  0.1102856E+00
         21   -1    0    0  501  502  0.00000000000E+00  0.00000000000E+00  0.31999836846E+03  0.31999836846E+03  0.00000000000E+00 0. -1.
         21   -1    0    0  502  503 -0.00000000000E+00 -0.00000000000E+00 -0.16795532423E+04  0.16795532423E+04  0.00000000000E+00 0. -1.
          6    1    1    2  501    0 -0.40077520510E+02  0.20059884648E+03  0.25119341564E+03  0.36678091134E+03  0.17200000000E+03 0. -1.
         -6    1    1    2    0  503  0.40077520510E+02 -0.20059884648E+03 -0.16107482895E+04  0.16327706995E+04  0.17200000000E+03 0. -1.
</event>
<event>
 4    1  0.4405880E+000  0.1922156E+03  0.7818608E-02  0.1156478E+00
         21   -1    0    0  501  502  0.00000000000E+00  0.00000000000E+00  0.77551402683E+03  0.77551402683E+03  0.00000000000E+00 0.  1.
         21   -1    0    0  502  503 -0.00000000000E+00 -0.00000000000E+00 -0.47761722682E+02  0.47761722682E+02  0.00000000000E+00 0. -1.
          6    1    1    2  501    0 -0.39845831296E+02 -0.75994472776E+02  0.34324586025E+03  0.39340128462E+03  0.17200000000E+03 0. -1.
         -6    1    1    2    0  503  0.39845831296E+02  0.75994472776E+02  0.38450644389E+03  0.42987446489E+03  0.17200000000E+03 0.  1.
</event>
<event>
 4    1  0.4405880E+000  0.1739137E+03  0.7818608E-02  0.1173827E+00
         21   -1    0    0  501  502  0.00000000000E+00  0.00000000000E+00  0.18821571375E+04  0.18821571375E+04  0.00000000000E+00 0. -1.
         21   -1    0    0  502  503 -0.00000000000E+00 -0.00000000000E+00 -0.31013655236E+02  0.31013655236E+02  0.00000000000E+00 0. -1.
          6    1    1    2  501    0  0.23738683160E+02 -0.99217478790E+01  0.15895869054E+04  0.15990723861E+04  0.17200000000E+03 0. -1.
         -6    1    1    2    0  503 -0.23738683160E+02  0.99217478790E+01  0.26155657693E+03  0.31409840671E+03  0.17200000000E+03 0. -1.
</event>
<event>
 4    1  0.4405880E+000  0.1729403E+03  0.7818608E-02  0.1174816E+00
         21   -1    0    0  503  502  0.00000000000E+00  0.00000000000E+00  0.70028411359E+02  0.70028411359E+02  0.00000000000E+00 0. -1.
         21   -1    0    0  501  503 -0.00000000000E+00 -0.00000000000E+00 -0.45406176599E+03  0.45406176599E+03  0.00000000000E+00 0. -1.
          6    1    1    2  501    0  0.63839388500E+01 -0.16840445047E+02 -0.25588453141E+03  0.30884502373E+03  0.17200000000E+03 0.  1.
         -6    1    1    2    0  502 -0.63839388500E+01  0.16840445047E+02 -0.12814882321E+03  0.21524515362E+03  0.17200000000E+03 0.  1.
</event>
<event>
 4    1  0.4405880E+000  0.2737087E+03  0.7818608E-02  0.1099176E+00
         21   -1    0    0  503  502  0.00000000000E+00  0.00000000000E+00  0.25079871323E+03  0.25079871323E+03  0.00000000000E+00 0.  1.
         21   -1    0    0  501  503 -0.00000000000E+00 -0.00000000000E+00 -0.30375532955E+03  0.30375532955E+03  0.00000000000E+00 0.  1.
          6    1    1    2  501    0  0.28403176656E+02 -0.21101120318E+03  0.92514988899E+01  0.27386503710E+03  0.17200000000E+03 0.  1.
         -6    1    1    2    0  502 -0.28403176656E+02  0.21101120318E+03 -0.62208115206E+02  0.28068900568E+03  0.17200000000E+03 0.  1.
</event>
<event>
 4    1  0.4405880E+000  0.2378311E+03  0.7818608E-02  0.1121246E+00
         21   -1    0    0  501  502  0.00000000000E+00  0.00000000000E+00  0.53892920259E+03  0.53892920259E+03  0.00000000000E+00 0.  1.
         21   -1    0    0  502  503 -0.00000000000E+00 -0.00000000000E+00 -0.23659384490E+03  0.23659384490E+03  0.00000000000E+00 0. -1.
          6    1    1    2  501    0 -0.31801607077E+02 -0.16114676657E+03  0.44040483350E+03  0.50051976980E+03  0.17200000000E+03 0.  1.
         -6    1    1    2    0  503  0.31801607077E+02  0.16114676657E+03 -0.13806947581E+03  0.27500327769E+03  0.17200000000E+03 0. -1.
</event>
<event>
 4    1  0.4405880E+000  0.2027945E+03  0.7818608E-02  0.1147402E+00
         21   -1    0    0  503  502  0.00000000000E+00  0.00000000000E+00  0.14447030707E+03  0.14447030707E+03  0.00000000000E+00 0.  1.
         21   -1    0    0  501  503 -0.00000000000E+00 -0.00000000000E+00 -0.30444909389E+03  0.30444909389E+03  0.00000000000E+00 0.  1.
          6    1    1    2  501    0  0.99304979489E+02 -0.40989584581E+02 -0.13720839234E+03  0.24485050117E+03  0.17200000000E+03 0.  1.
         -6    1    1    2    0  502 -0.99304979489E+02  0.40989584581E+02 -0.22770394478E+02  0.20406889979E+03  0.17200000000E+03 0.  1.
</event>
<event>
 4    1  0.4405880E+000  0.2066575E+03  0.7818608E-02  0.1144241E+00
         21   -1    0    0  503  502  0.00000000000E+00  0.00000000000E+00  0.11977489464E+04  0.11977489464E+04  0.00000000000E+00 0. -1.
         21   -1    0    0  501  503 -0.00000000000E+00 -0.00000000000E+00 -0.45493352499E+02  0.45493352499E+02  0.00000000000E+00 0. -1.
          6    1    1    2  501    0 -0.51844174979E+02  0.10215431644E+03  0.28707058705E+03  0.35371859549E+03  0.17200000000E+03 0. -1.
         -6    1    1    2    0  502  0.51844174979E+02 -0.10215431644E+03  0.86518500686E+03  0.88952370342E+03  0.17200000000E+03 0. -1.
</event>
<event>
 4    1  0.4405880E+000  0.2340793E+03  0.7818608E-02  0.1123801E+00
         21   -1    0    0  503  502  0.00000000000E+00  0.00000000000E+00  0.12905345165E+03  0.12905345165E+03  0.00000000000E+00 0.  1.
         21   -1    0    0  501  503 -0.00000000000E+00 -0.00000000000E+00 -0.56043641304E+03  0.56043641304E+03  0.00000000000E+00 0.  1.
          6    1    1    2  501    0 -0.93060561406E+02 -0.12864236864E+03 -0.38542967917E+03  0.45094252925E+03  0.17200000000E+03 0.  1.
         -6    1    1    2    0  502  0.93060561406E+02  0.12864236864E+03 -0.45953282214E+02  0.23854733544E+03  0.17200000000E+03 0.  1.
</event>
<event>
 4    1  0.4405880E+000  0.2311887E+03  0.7818608E-02  0.1125806E+00
         21   -1    0    0  501  502  0.00000000000E+00  0.00000000000E+00  0.35090266764E+03  0.35090266764E+03  0.00000000000E+00 0. -1.
         21   -1    0    0  502  503 -0.00000000000E+00 -0.00000000000E+00 -0.54727875951E+03  0.54727875951E+03  0.00000000000E+00 0. -1.
          6    1    1    2  501    0  0.14776931589E+03  0.45038315280E+02  0.28332346766E+03  0.36567801122E+03  0.17200000000E+03 0. -1.
         -6    1    1    2    0  503 -0.14776931589E+03 -0.45038315280E+02 -0.47969955953E+03  0.53250341593E+03  0.17200000000E+03 0. -1.
</event>
<event>
 4    1  0.4405880E+000  0.1884880E+03  0.7818608E-02  0.1159832E+00
         21   -1    0    0  501  502  0.00000000000E+00  0.00000000000E+00  0.10996293027E+04  0.10996293027E+04  0.00000000000E+00 0.  1.
         21   -1    0    0  502  503 -0.00000000000E+00 -0.00000000000E+00 -0.56132504084E+02  0.56132504084E+02  0.00000000000E+00 0.  1.
          6    1    1    2  501    0  0.34125542706E+02 -0.69131634204E+02  0.89822285156E+03  0.91778648202E+03  0.17200000000E+03 0.  1.
         -6    1    1    2    0  503 -0.34125542706E+02  0.69131634204E+02  0.14527394711E+03  0.23797532482E+03  0.17200000000E+03 0.  1.
</event>
<event>
 4    1  0.4405880E+000  0.2074693E+03  0.7818608E-02  0.1143586E+00
         21   -1    0    0  501  502  0.00000000000E+00  0.00000000000E+00  0.53404777115E+03  0.53404777115E+03  0.00000000000E+00 0. -1.
         21   -1    0    0  502  503 -0.00000000000E+00 -0.00000000000E+00 -0.19542215593E+03  0.19542215593E+03  0.00000000000E+00 0. -1.
          6    1    1    2  501    0  0.86702182888E+02  0.77085872708E+02  0.44889274376E+03  0.49451814496E+03  0.17200000000E+03 0. -1.
         -6    1    1    2    0  503 -0.86702182888E+02 -0.77085872708E+02 -0.11026712854E+03  0.23495178213E+03  0.17200000000E+03 0. -1.
</event>
<event>
 4    1  0.4405880E+000  0.2738165E+03  0.7818608E-02  0.1099115E+00
         21   -1    0    0  501  502  0.00000000000E+00  0.00000000000E+00  0.37047306593E+03  0.37047306593E+03  0.00000000000E+00 0.  1.
         21   -1    0    0  502  503 -0.00000000000E+00 -0.00000000000E+00 -0.20411712485E+03  0.20411712485E+03  0.00000000000E+00 0.  1.
          6    1    1    2  501    0 -0.11583774057E+03 -0.17881023643E+03  0.10969914439E+03  0.29497353283E+03  0.17200000000E+03 0.  1.
         -6    1    1    2    0  503  0.11583774057E+03  0.17881023643E+03  0.56656796692E+02  0.27961665795E+03  0.17200000000E+03 0.  1.
</event>
