<event>
 4    1 -0.6384999E-004  0.2036125E+03  0.7818608E-02  0.1146726E+00
          5   -1    0    0  501    0  0.00000000000E+00  0.00000000000E+00  0.18954630067E+02  0.19528645652E+02  0.47000000000E+01 0. -1.
         -5   -1    0    0    0  501 -0.00000000000E+00 -0.00000000000E+00 -0.30827635645E+04  0.30827671473E+04  0.47000000000E+01 0.  1.
          6    1    1    2  502    0 -0.19150358556E+02  0.10727221716E+03 -0.68059181213E+03  0.71039656499E+03  0.17200000000E+03 0. -1.
         -6    1    1    2    0  502  0.19150358556E+02 -0.10727221716E+03 -0.23832171223E+04  0.23918992280E+04  0.17200000000E+03 0.  1.
</event>
<event>
 4    1 -0.6384999E-004  0.4674991E+03  0.7818608E-02  0.1022628E+00
          5   -1    0    0  501    0  0.00000000000E+00  0.00000000000E+00  0.94172184007E+03  0.94173356852E+03  0.47000000000E+01 0. -1.
         -5   -1    0    0    0  501 -0.00000000000E+00 -0.00000000000E+00 -0.44115806172E+03  0.44118309738E+03  0.47000000000E+01 0.  1.
          6    1    1    2  502    0  0.12641203130E+03 -0.41592237474E+03  0.72631504477E+03  0.86376441680E+03  0.17200000000E+03 0. -1.
         -6    1    1    2    0  502 -0.12641203130E+03  0.41592237474E+03 -0.22575126641E+03  0.51915224911E+03  0.17200000000E+03 0.  1.
</event>
<event>
 4    1 -0.6384999E-004  0.3139402E+03  0.7818608E-02  0.1078472E+00
          5   -1    0    0  501    0  0.00000000000E+00  0.00000000000E+00  0.10031377944E+03  0.10042382360E+03  0.47000000000E+01 0. -1.
         -5   -1    0    0    0  501 -0.00000000000E+00 -0.00000000000E+00 -0.10637415647E+04  0.10637519478E+04  0.47000000000E+01 0.  1.
          6    1    1    2  502    0  0.17336602789E+03 -0.19727821861E+03 -0.64321362777E+03  0.71573895109E+03  0.17200000000E+03 0.  1.
         -6    1    1    2    0  502 -0.17336602789E+03  0.19727821861E+03 -0.32021415750E+03  0.44843682033E+03  0.17200000000E+03 0.  1.
</event>
<event>
 4    1 -0.6384999E-004  0.2283466E+03  0.7818608E-02  0.1127809E+00
          5   -1    0    0  501    0  0.00000000000E+00  0.00000000000E+00  0.66000993479E+03  0.66002666918E+03  0.47000000000E+01 0. -1.
         -5   -1    0    0    0  501 -0.00000000000E+00 -0.00000000000E+00 -0.79556923000E+02  0.79695633489E+02  0.47000000000E+01 0.  1.
          6    1    1    2  502    0 -0.14183390342E+02 -0.14952252916E+03  0.32343212898E+03  0.39591728599E+03  0.17200000000E+03 0. -1.
         -6    1    1    2    0  502  0.14183390342E+02  0.14952252916E+03  0.25702088281E+03  0.34380501667E+03  0.17200000000E+03 0. -1.
</event>
<event>
 4    1 -0.6384999E-004  0.2648209E+03  0.7818608E-02  0.1104281E+00
         -5   -1    0    0    0  501 -0.00000000000E+00  0.00000000000E+00  0.41878477486E+03  0.41881114796E+03  0.47000000000E+01 0.  1.
          5   -1    0    0  501    0  0.00000000000E+00 -0.00000000000E+00 -0.37449465059E+03  0.37452414250E+03  0.47000000000E+01 0. -1.
          6    1    1    2  502    0 -0.20024672191E+03 -0.21150457038E+02 -0.27280555887E+03  0.38020121569E+03  0.17200000000E+03 0. -1.
         -6    1    1    2    0  502  0.20024672191E+03  0.21150457038E+02  0.31709568314E+03  0.41313407477E+03  0.17200000000E+03 0.  1.
</event>
<event>
 4    1 -0.6384999E-004  0.1887931E+03  0.7818608E-02  0.1159554E+00
          5   -1    0    0  501    0  0.00000000000E+00  0.00000000000E+00  0.59250858460E+03  0.59252722539E+03  0.47000000000E+01 0. -1.
         -5   -1    0    0    0  501 -0.00000000000E+00 -0.00000000000E+00 -0.81472691319E+02  0.81608145616E+02  0.47000000000E+01 0.  1.
          6    1    1    2  502    0 -0.43959893443E+02 -0.64236876603E+02  0.42819324929E+03  0.46796613903E+03  0.17200000000E+03 0. -1.
         -6    1    1    2    0  502  0.43959893443E+02  0.64236876603E+02  0.82842643996E+02  0.20616923197E+03  0.17200000000E+03 0.  1.
</event>
<event>
 4    1 -0.6384999E-004  0.2053295E+03  0.7818608E-02  0.1145319E+00
         -5   -1    0    0    0  501 -0.00000000000E+00  0.00000000000E+00  0.19251941619E+03  0.19257677849E+03  0.47000000000E+01 0.  1.
          5   -1    0    0  501    0  0.00000000000E+00 -0.00000000000E+00 -0.24211836972E+03  0.24216398360E+03  0.47000000000E+01 0. -1.
          6    1    1    2  502    0  0.92131642390E+02 -0.63937132388E+02 -0.92132109430E+02  0.22505226508E+03  0.17200000000E+03 0. -1.
         -6    1    1    2    0  502 -0.92131642390E+02  0.63937132388E+02  0.42533155909E+02  0.20968849701E+03  0.17200000000E+03 0.  1.
</event>
<event>
 4    1 -0.6384999E-004  0.2460616E+03  0.7818608E-02  0.1115819E+00
         -5   -1    0    0    0  501 -0.00000000000E+00  0.00000000000E+00  0.10125772296E+04  0.10125881374E+04  0.47000000000E+01 0.  1.
          5   -1    0    0  501    0  0.00000000000E+00 -0.00000000000E+00 -0.77607682654E+02  0.77749870784E+02  0.47000000000E+01 0. -1.
          6    1    1    2  502    0 -0.16639078352E+03 -0.57239917242E+02  0.20583253627E+03  0.32080108160E+03  0.17200000000E+03 0. -1.
         -6    1    1    2    0  502  0.16639078352E+03  0.57239917242E+02  0.72913701069E+03  0.76953692655E+03  0.17200000000E+03 0.  1.
</event>
<event>
 4    1 -0.6384999E-004  0.2283142E+03  0.7818608E-02  0.1127832E+00
          5   -1    0    0  501    0  0.00000000000E+00  0.00000000000E+00  0.49589639994E+03  0.49591867224E+03  0.47000000000E+01 0. -1.
         -5   -1    0    0    0  501 -0.00000000000E+00 -0.00000000000E+00 -0.12748761888E+03  0.12757422533E+03  0.47000000000E+01 0.  1.
          6    1    1    2  502    0  0.13529297080E+03  0.65109187731E+02  0.53452381816E+02  0.23448784915E+03  0.17200000000E+03 0. -1.
         -6    1    1    2    0  502 -0.13529297080E+03 -0.65109187731E+02  0.31495639924E+03  0.38900504842E+03  0.17200000000E+03 0.  1.
</event>
<event>
 4    1 -0.6384999E-004  0.2193756E+03  0.7818608E-02  0.1134349E+00
          5   -1    0    0  501    0  0.00000000000E+00  0.00000000000E+00  0.83105858606E+03  0.83107187623E+03  0.47000000000E+01 0. -1.
         -5   -1    0    0    0  501 -0.00000000000E+00 -0.00000000000E+00 -0.13776543220E+03  0.13784558139E+03  0.47000000000E+01 0.  1.
          6    1    1    2  502    0  0.93069300557E+02 -0.99396887877E+02  0.71554285517E+03  0.74841647070E+03  0.17200000000E+03 0. -1.
         -6    1    1    2    0  502 -0.93069300557E+02  0.99396887877E+02 -0.22249701315E+02  0.22050098692E+03  0.17200000000E+03 0.  1.
</event>
<event>
 4    1 -0.6384999E-004  0.1779870E+03  0.7818608E-02  0.1169766E+00
          5   -1    0    0  501    0  0.00000000000E+00  0.00000000000E+00  0.62647488908E+02  0.62823545478E+02  0.47000000000E+01 0. -1.
         -5   -1    0    0    0  501 -0.00000000000E+00 -0.00000000000E+00 -0.98233266744E+03  0.98234391102E+03  0.47000000000E+01 0.  1.
          6    1    1    2  502    0  0.44187948401E+02 -0.11950519282E+02 -0.95512969921E+02  0.20199533935E+03  0.17200000000E+03 0. -1.
         -6    1    1    2    0  502 -0.44187948401E+02  0.11950519282E+02 -0.82417220861E+03  0.84317211715E+03  0.17200000000E+03 0.  1.
</event>
<event>
 4    1 -0.6384999E-004  0.1918230E+03  0.7818608E-02  0.1156827E+00
          5   -1    0    0  501    0  0.00000000000E+00  0.00000000000E+00  0.84684831102E+03  0.84686135340E+03  0.47000000000E+01 0. -1.
         -5   -1    0    0    0  501 -0.00000000000E+00 -0.00000000000E+00 -0.43324267222E+02  0.43578459476E+02  0.47000000000E+01 0.  1.
          6    1    1    2  502    0 -0.77452741602E+02 -0.34830065095E+02  0.39372912763E+03  0.43797110242E+03  0.17200000000E+03 0.  1.
         -6    1    1    2    0  502  0.77452741602E+02  0.34830065095E+02  0.40979491617E+03  0.45246871045E+03  0.17200000000E+03 0.  1.
</event>
<event>
 4    1 -0.6384999E-004  0.1843969E+03  0.7818608E-02  0.1163614E+00
          5   -1    0    0  501    0  0.00000000000E+00  0.00000000000E+00  0.47410086729E+03  0.47412416345E+03  0.47000000000E+01 0. -1.
         -5   -1    0    0    0  501 -0.00000000000E+00 -0.00000000000E+00 -0.72491870150E+02  0.72644072283E+02  0.47000000000E+01 0.  1.
          6    1    1    2  502    0  0.20163357287E+02  0.63337507216E+02  0.23079683797E+03  0.29541391506E+03  0.17200000000E+03 0. -1.
         -6    1    1    2    0  502 -0.20163357287E+02 -0.63337507216E+02  0.17081215918E+03  0.25135432067E+03  0.17200000000E+03 0.  1.
</event>
<event>
 4    1 -0.6384999E-004  0.1906315E+03  0.7818608E-02  0.1157893E+00
          5   -1    0    0  501    0  0.00000000000E+00  0.00000000000E+00  0.52676613566E+03  0.52678710281E+03  0.47000000000E+01 0. -1.
         -5   -1    0    0    0  501 -0.00000000000E+00 -0.00000000000E+00 -0.71113751203E+02  0.71268896513E+02  0.47000000000E+01 0.  1.
          6    1    1    2  502    0 -0.60367837581E+02 -0.55786237935E+02  0.17495801676E+03  0.25874830972E+03  0.17200000000E+03 0.  1.
         -6    1    1    2    0  502  0.60367837581E+02  0.55786237935E+02  0.28069436770E+03  0.33930768960E+03  0.17200000000E+03 0.  1.
</event>
<event>
 4    1 -0.6384999E-004  0.2184181E+03  0.7818608E-02  0.1135068E+00
         -5   -1    0    0    0  501 -0.00000000000E+00  0.00000000000E+00  0.75263826296E+02  0.75410433951E+02  0.47000000000E+01 0.  1.
          5   -1    0    0  501    0  0.00000000000E+00 -0.00000000000E+00 -0.67548848789E+03  0.67550483883E+03  0.47000000000E+01 0. -1.
          6    1    1    2  502    0 -0.13001393998E+03 -0.34911780757E+02 -0.39417207309E+03  0.45064185362E+03  0.17200000000E+03 0. -1.
         -6    1    1    2    0  502  0.13001393998E+03  0.34911780757E+02 -0.20605258850E+03  0.30027341916E+03  0.17200000000E+03 0.  1.
</event>
<event>
 4    1 -0.6384999E-004  0.1808653E+03  0.7818608E-02  0.1166968E+00
          5   -1    0    0  501    0  0.00000000000E+00  0.00000000000E+00  0.13516164017E+03  0.13524333246E+03  0.47000000000E+01 0. -1.
         -5   -1    0    0    0  501 -0.00000000000E+00 -0.00000000000E+00 -0.75625891821E+03  0.75627352285E+03  0.47000000000E+01 0.  1.
          6    1    1    2  502    0  0.29693821195E+01  0.55851977540E+02  0.57062189864E+02  0.18965324710E+03  0.17200000000E+03 0. -1.
         -6    1    1    2    0  502 -0.29693821195E+01 -0.55851977540E+02 -0.67815946790E+03  0.70186360821E+03  0.17200000000E+03 0.  1.
</event>
<event>
 4    1 -0.6384999E-004  0.3001666E+03  0.7818608E-02  0.1085157E+00
         -5   -1    0    0    0  501 -0.00000000000E+00  0.00000000000E+00  0.75024960905E+03  0.75026433067E+03  0.47000000000E+01 0.  1.
          5   -1    0    0  501    0  0.00000000000E+00 -0.00000000000E+00 -0.17268448767E+03  0.17274843640E+03  0.47000000000E+01 0. -1.
          6    1    1    2  502    0 -0.80099623053E+02  0.23259411422E+03  0.34013727379E+02  0.30208757874E+03  0.17200000000E+03 0. -1.
         -6    1    1    2    0  502  0.80099623053E+02 -0.23259411422E+03  0.54355139400E+03  0.62092518833E+03  0.17200000000E+03 0.  1.
</event>
<event>
 4    1 -0.6384999E-004  0.2461254E+03  0.7818608E-02  0.1115778E+00
         -5   -1    0    0    0  501 -0.00000000000E+00  0.00000000000E+00  0.27373508776E+03  0.27377543401E+03  0.47000000000E+01 0.  1.
          5   -1    0    0  501    0  0.00000000000E+00 -0.00000000000E+00 -0.22145045487E+03  0.22150032497E+03  0.47000000000E+01 0. -1.
          6    1    1    2  502    0 -0.17004053667E+03 -0.45606011744E+02  0.34149863715E+02  0.24848320992E+03  0.17200000000E+03 0. -1.
         -6    1    1    2    0  502  0.17004053667E+03  0.45606011744E+02  0.18134769173E+02  0.24679254906E+03  0.17200000000E+03 0.  1.
</event>
<event>
 4    1 -0.6384999E-004  0.1854167E+03  0.7818608E-02  0.1162661E+00
         -5   -1    0    0    0  501 -0.00000000000E+00  0.00000000000E+00  0.61713852276E+03  0.61715641962E+03  0.47000000000E+01 0.  1.
          5   -1    0    0  501    0  0.00000000000E+00 -0.00000000000E+00 -0.10463428036E+03  0.10473978531E+03  0.47000000000E+01 0. -1.
          6    1    1    2  502    0 -0.41764698141E+02  0.55236455376E+02  0.93353288591E+01  0.18565156713E+03  0.17200000000E+03 0. -1.
         -6    1    1    2    0  502  0.41764698141E+02 -0.55236455376E+02  0.50316891354E+03  0.53624463780E+03  0.17200000000E+03 0.  1.
</event>
<event>
 4    1 -0.6384999E-004  0.2726654E+03  0.7818608E-02  0.1099764E+00
         -5   -1    0    0    0  501 -0.00000000000E+00  0.00000000000E+00  0.17554422811E+03  0.17560713545E+03  0.47000000000E+01 0.  1.
          5   -1    0    0  501    0  0.00000000000E+00 -0.00000000000E+00 -0.95519703778E+03  0.95520860077E+03  0.47000000000E+01 0. -1.
          6    1    1    2  502    0  0.10730076693E+03  0.18234296331E+03 -0.81170056234E+03  0.85627344567E+03  0.17200000000E+03 0. -1.
         -6    1    1    2    0  502 -0.10730076693E+03 -0.18234296331E+03  0.32047752663E+02  0.27454229056E+03  0.17200000000E+03 0.  1.
</event>
<event>
 4    1 -0.6384999E-004  0.1915394E+03  0.7818608E-02  0.1157080E+00
         -5   -1    0    0    0  501 -0.00000000000E+00  0.00000000000E+00  0.90053858745E+03  0.90055085225E+03  0.47000000000E+01 0.  1.
          5   -1    0    0  501    0  0.00000000000E+00 -0.00000000000E+00 -0.19819649353E+03  0.19825221322E+03  0.47000000000E+01 0. -1.
          6    1    1    2  502    0  0.51509042188E+02 -0.66709545234E+02 -0.13853429313E+03  0.23638759533E+03  0.17200000000E+03 0. -1.
         -6    1    1    2    0  502 -0.51509042188E+02  0.66709545234E+02  0.84087638705E+03  0.86241547014E+03  0.17200000000E+03 0.  1.
</event>
<event>
 4    1 -0.6384999E-004  0.1944131E+03  0.7818608E-02  0.1154540E+00
          5   -1    0    0  501    0  0.00000000000E+00  0.00000000000E+00  0.12443411736E+03  0.12452284755E+03  0.47000000000E+01 0. -1.
         -5   -1    0    0    0  501 -0.00000000000E+00 -0.00000000000E+00 -0.40911483107E+03  0.40914182749E+03  0.47000000000E+01 0.  1.
          6    1    1    2  502    0  0.86538398230E+02 -0.26899119983E+02 -0.27787474925E+03  0.33913247160E+03  0.17200000000E+03 0.  1.
         -6    1    1    2    0  502 -0.86538398230E+02  0.26899119983E+02 -0.68059644656E+01  0.19453220344E+03  0.17200000000E+03 0. -1.
</event>
<event>
 4    1 -0.6384999E-004  0.1980007E+03  0.7818608E-02  0.1151437E+00
          5   -1    0    0  501    0  0.00000000000E+00  0.00000000000E+00  0.33170928456E+03  0.33174258012E+03  0.47000000000E+01 0. -1.
         -5   -1    0    0    0  501 -0.00000000000E+00 -0.00000000000E+00 -0.32937788350E+03  0.32941141471E+03  0.47000000000E+01 0.  1.
          6    1    1    2  502    0 -0.68880743078E+02 -0.69826295707E+02  0.26588516598E+03  0.33151046714E+03  0.17200000000E+03 0. -1.
         -6    1    1    2    0  502  0.68880743078E+02  0.69826295707E+02 -0.26355376492E+03  0.32964352768E+03  0.17200000000E+03 0.  1.
</event>
<event>
 4    1 -0.6384999E-004  0.2149087E+03  0.7818608E-02  0.1137737E+00
         -5   -1    0    0    0  501 -0.00000000000E+00  0.00000000000E+00  0.12813182929E+03  0.12821800059E+03  0.47000000000E+01 0.  1.
          5   -1    0    0  501    0  0.00000000000E+00 -0.00000000000E+00 -0.36090657686E+03  0.36093717905E+03  0.47000000000E+01 0. -1.
          6    1    1    2  502    0  0.80850686438E+02 -0.10032401189E+03 -0.10581667872E+03  0.23954730296E+03  0.17200000000E+03 0.  1.
         -6    1    1    2    0  502 -0.80850686438E+02  0.10032401189E+03 -0.12695806885E+03  0.24960787669E+03  0.17200000000E+03 0.  1.
</event>
<event>
 4    1 -0.6384999E-004  0.2008378E+03  0.7818608E-02  0.1149034E+00
          5   -1    0    0  501    0  0.00000000000E+00  0.00000000000E+00  0.22519646982E+03  0.22524551054E+03  0.47000000000E+01 0. -1.
         -5   -1    0    0    0  501 -0.00000000000E+00 -0.00000000000E+00 -0.21304629793E+03  0.21309813482E+03  0.47000000000E+01 0.  1.
          6    1    1    2  502    0  0.82611104813E+02 -0.62667465148E+02  0.93650584082E+02  0.22159927285E+03  0.17200000000E+03 0. -1.
         -6    1    1    2    0  502 -0.82611104813E+02  0.62667465148E+02 -0.81500412195E+02  0.21674437251E+03  0.17200000000E+03 0.  1.
</event>
<event>
 4    1 -0.6384999E-004  0.2973072E+03  0.7818608E-02  0.1086595E+00
          5   -1    0    0  501    0  0.00000000000E+00  0.00000000000E+00  0.21690849731E+03  0.21695941142E+03  0.47000000000E+01 0. -1.
         -5   -1    0    0    0  501 -0.00000000000E+00 -0.00000000000E+00 -0.54298601710E+03  0.54300635794E+03  0.47000000000E+01 0.  1.
          6    1    1    2  502    0 -0.22321869472E+02  0.24147317869E+03  0.26831540854E+02  0.29851548279E+03  0.17200000000E+03 0.  1.
         -6    1    1    2    0  502  0.22321869472E+02 -0.24147317869E+03 -0.35290906064E+03  0.46145028656E+03  0.17200000000E+03 0.  1.
</event>
<event>
 4    1 -0.6384999E-004  0.1906937E+03  0.7818608E-02  0.1157837E+00
          5   -1    0    0  501    0  0.00000000000E+00  0.00000000000E+00  0.26900376710E+03  0.26904482287E+03  0.47000000000E+01 0. -1.
         -5   -1    0    0    0  501 -0.00000000000E+00 -0.00000000000E+00 -0.15168211913E+03  0.15175491842E+03  0.47000000000E+01 0.  1.
          6    1    1    2  502    0 -0.12493128165E+02  0.81387911262E+02  0.12822446909E+03  0.22979465795E+03  0.17200000000E+03 0. -1.
         -6    1    1    2    0  502  0.12493128165E+02 -0.81387911262E+02 -0.10902821123E+02  0.19100508333E+03  0.17200000000E+03 0.  1.
</event>
<event>
 4    1 -0.6384999E-004  0.2871874E+03  0.7818608E-02  0.1091827E+00
          5   -1    0    0  501    0  0.00000000000E+00  0.00000000000E+00  0.15193878813E+03  0.15201146449E+03  0.47000000000E+01 0. -1.
         -5   -1    0    0    0  501 -0.00000000000E+00 -0.00000000000E+00 -0.54271754429E+03  0.54273789519E+03  0.47000000000E+01 0.  1.
          6    1    1    2  502    0  0.21536869341E+03 -0.80677756550E+02 -0.19061474494E+03  0.34468907075E+03  0.17200000000E+03 0. -1.
         -6    1    1    2    0  502 -0.21536869341E+03  0.80677756550E+02 -0.20016401122E+03  0.35006028894E+03  0.17200000000E+03 0.  1.
</event>
<event>
 4    1 -0.6384999E-004  0.1942296E+03  0.7818608E-02  0.1154701E+00
         -5   -1    0    0    0  501 -0.00000000000E+00  0.00000000000E+00  0.28826229965E+03  0.28830061290E+03  0.47000000000E+01 0.  1.
          5   -1    0    0  501    0  0.00000000000E+00 -0.00000000000E+00 -0.13287679391E+03  0.13295989004E+03  0.47000000000E+01 0. -1.
          6    1    1    2  502    0  0.79273427183E+02  0.43091288246E+02  0.51256177310E+02  0.20087889658E+03  0.17200000000E+03 0.  1.
         -6    1    1    2    0  502 -0.79273427183E+02 -0.43091288246E+02  0.10412932843E+03  0.22038160635E+03  0.17200000000E+03 0.  1.
</event>
<event>
 4    1 -0.6384999E-004  0.1938909E+03  0.7818608E-02  0.1154998E+00
         -5   -1    0    0    0  501 -0.00000000000E+00  0.00000000000E+00  0.80494551019E+03  0.80495923150E+03  0.47000000000E+01 0.  1.
          5   -1    0    0  501    0  0.00000000000E+00 -0.00000000000E+00 -0.54639133825E+02  0.54840905765E+02  0.47000000000E+01 0. -1.
          6    1    1    2  502    0  0.38318584562E+02  0.80878683847E+02  0.21030693772E+03  0.28604664563E+03  0.17200000000E+03 0. -1.
         -6    1    1    2    0  502 -0.38318584562E+02 -0.80878683847E+02  0.53999943865E+03  0.57375349164E+03  0.17200000000E+03 0.  1.
</event>
<event>
 4    1 -0.6384999E-004  0.1883795E+03  0.7818608E-02  0.1159931E+00
         -5   -1    0    0    0  501 -0.00000000000E+00  0.00000000000E+00  0.43429633918E+03  0.43432177037E+03  0.47000000000E+01 0.  1.
          5   -1    0    0  501    0  0.00000000000E+00 -0.00000000000E+00 -0.23992552674E+03  0.23997155744E+03  0.47000000000E+01 0. -1.
          6    1    1    2  502    0  0.67532802027E+02  0.36635551041E+02 -0.17661214870E+03  0.25822217957E+03  0.17200000000E+03 0. -1.
         -6    1    1    2    0  502 -0.67532802027E+02 -0.36635551041E+02  0.37098296114E+03  0.41607114825E+03  0.17200000000E+03 0.  1.
</event>
<event>
 4    1 -0.6384999E-004  0.1793020E+03  0.7818608E-02  0.1168480E+00
         -5   -1    0    0    0  501 -0.00000000000E+00  0.00000000000E+00  0.37580422879E+03  0.37583361794E+03  0.47000000000E+01 0.  1.
          5   -1    0    0  501    0  0.00000000000E+00 -0.00000000000E+00 -0.13570544509E+03  0.13578681021E+03  0.47000000000E+01 0. -1.
          6    1    1    2  502    0  0.49843157358E+02 -0.89919453597E+01  0.27564368805E+03  0.32882919302E+03  0.17200000000E+03 0.  1.
         -6    1    1    2    0  502 -0.49843157358E+02  0.89919453597E+01 -0.35544904362E+02  0.18279123514E+03  0.17200000000E+03 0. -1.
</event>
<event>
 4    1 -0.6384999E-004  0.2676136E+03  0.7818608E-02  0.1102653E+00
          5   -1    0    0  501    0  0.00000000000E+00  0.00000000000E+00  0.15128797812E+04  0.15128870818E+04  0.47000000000E+01 0. -1.
         -5   -1    0    0    0  501 -0.00000000000E+00 -0.00000000000E+00 -0.54532041194E+02  0.54734207921E+02  0.47000000000E+01 0.  1.
          6    1    1    2  502    0  0.16450439946E+03 -0.12235749413E+03  0.10157131658E+04  0.10503762607E+04  0.17200000000E+03 0.  1.
         -6    1    1    2    0  502 -0.16450439946E+03  0.12235749413E+03  0.44263457414E+03  0.51724502901E+03  0.17200000000E+03 0.  1.
</event>
<event>
 4    1 -0.6384999E-004  0.2207756E+03  0.7818608E-02  0.1133306E+00
          5   -1    0    0  501    0  0.00000000000E+00  0.00000000000E+00  0.31289198108E+03  0.31292727882E+03  0.47000000000E+01 0. -1.
         -5   -1    0    0    0  501 -0.00000000000E+00 -0.00000000000E+00 -0.17102641647E+03  0.17109098495E+03  0.47000000000E+01 0.  1.
          6    1    1    2  502    0 -0.66241571797E+02  0.12153159531E+03  0.14336021499E+03  0.26323758420E+03  0.17200000000E+03 0. -1.
         -6    1    1    2    0  502  0.66241571797E+02 -0.12153159531E+03 -0.14946503835E+01  0.22078067957E+03  0.17200000000E+03 0.  1.
</event>
<event>
 4    1 -0.6384999E-004  0.1736939E+03  0.7818608E-02  0.1174050E+00
         -5   -1    0    0    0  501 -0.00000000000E+00  0.00000000000E+00  0.19561697158E+03  0.19567342581E+03  0.47000000000E+01 0.  1.
          5   -1    0    0  501    0  0.00000000000E+00 -0.00000000000E+00 -0.16645204036E+03  0.16651838259E+03  0.47000000000E+01 0. -1.
          6    1    1    2  502    0 -0.58307746501E+01  0.23485886247E+02 -0.34704903080E+02  0.17712711561E+03  0.17200000000E+03 0. -1.
         -6    1    1    2    0  502  0.58307746501E+01 -0.23485886247E+02  0.63869834299E+02  0.18506469279E+03  0.17200000000E+03 0.  1.
</event>
<event>
 4    1 -0.6384999E-004  0.2574881E+03  0.7818608E-02  0.1108662E+00
          5   -1    0    0  501    0  0.00000000000E+00  0.00000000000E+00  0.23118248906E+03  0.23123026024E+03  0.47000000000E+01 0. -1.
         -5   -1    0    0    0  501 -0.00000000000E+00 -0.00000000000E+00 -0.36874568376E+03  0.36877563544E+03  0.47000000000E+01 0.  1.
          6    1    1    2  502    0 -0.18341654448E+03 -0.55448302272E+02  0.72721868852E+02  0.26756048517E+03  0.17200000000E+03 0. -1.
         -6    1    1    2    0  502  0.18341654448E+03  0.55448302272E+02 -0.21028506356E+03  0.33244541051E+03  0.17200000000E+03 0.  1.
</event>
<event>
 4    1 -0.6384999E-004  0.1882210E+03  0.7818608E-02  0.1160076E+00
         -5   -1    0    0    0  501 -0.00000000000E+00  0.00000000000E+00  0.11372181020E+04  0.11372278142E+04  0.47000000000E+01 0.  1.
          5   -1    0    0  501    0  0.00000000000E+00 -0.00000000000E+00 -0.51786787171E+02  0.51999628128E+02  0.47000000000E+01 0. -1.
          6    1    1    2  502    0 -0.59483636596E+02 -0.48008677822E+02  0.16674466560E+03  0.25145759021E+03  0.17200000000E+03 0. -1.
         -6    1    1    2    0  502  0.59483636596E+02  0.48008677822E+02  0.91868664920E+03  0.93776985214E+03  0.17200000000E+03 0.  1.
</event>
<event>
 4    1 -0.6384999E-004  0.1902283E+03  0.7818608E-02  0.1158256E+00
         -5   -1    0    0    0  501 -0.00000000000E+00  0.00000000000E+00  0.50851300422E+03  0.50853472395E+03  0.47000000000E+01 0.  1.
          5   -1    0    0  501    0  0.00000000000E+00 -0.00000000000E+00 -0.82073865548E+02  0.82208329298E+02  0.47000000000E+01 0. -1.
          6    1    1    2  502    0  0.93405282367E+01  0.80718986385E+02  0.10513254900E+03  0.21734684974E+03  0.17200000000E+03 0. -1.
         -6    1    1    2    0  502 -0.93405282367E+01 -0.80718986385E+02  0.32130658967E+03  0.37339620351E+03  0.17200000000E+03 0.  1.
</event>
<event>
 4    1 -0.6384999E-004  0.3013657E+03  0.7818608E-02  0.1084560E+00
         -5   -1    0    0    0  501 -0.00000000000E+00  0.00000000000E+00  0.69850786027E+03  0.69852367237E+03  0.47000000000E+01 0.  1.
          5   -1    0    0  501    0  0.00000000000E+00 -0.00000000000E+00 -0.16203119596E+03  0.16209934751E+03  0.47000000000E+01 0. -1.
          6    1    1    2  502    0 -0.15364913773E+03 -0.19398257241E+03  0.76855391859E+02  0.31101132967E+03  0.17200000000E+03 0. -1.
         -6    1    1    2    0  502  0.15364913773E+03  0.19398257241E+03  0.45962127246E+03  0.54961169021E+03  0.17200000000E+03 0.  1.
</event>
<event>
 4    1 -0.6384999E-004  0.2496853E+03  0.7818608E-02  0.1113504E+00
          5   -1    0    0  501    0  0.00000000000E+00  0.00000000000E+00  0.10653954855E+04  0.10654058524E+04  0.47000000000E+01 0. -1.
         -5   -1    0    0    0  501 -0.00000000000E+00 -0.00000000000E+00 -0.10220833447E+03  0.10231634100E+03  0.47000000000E+01 0.  1.
          6    1    1    2  502    0 -0.15320462160E+03  0.96369636653E+02  0.86349652249E+03  0.89887096254E+03  0.17200000000E+03 0. -1.
         -6    1    1    2    0  502  0.15320462160E+03 -0.96369636653E+02  0.99690628492E+02  0.26885123090E+03  0.17200000000E+03 0.  1.
</event>
<event>
 4    1 -0.6384999E-004  0.1928529E+03  0.7818608E-02  0.1155913E+00
          5   -1    0    0  501    0  0.00000000000E+00  0.00000000000E+00  0.60310814448E+03  0.60312645767E+03  0.47000000000E+01 0. -1.
         -5   -1    0    0    0  501 -0.00000000000E+00 -0.00000000000E+00 -0.68504740276E+02  0.68665780708E+02  0.47000000000E+01 0.  1.
          6    1    1    2  502    0  0.81626716087E+02  0.30746190962E+02  0.16049124238E+03  0.25089776388E+03  0.17200000000E+03 0. -1.
         -6    1    1    2    0  502 -0.81626716087E+02 -0.30746190962E+02  0.37411216183E+03  0.42089447450E+03  0.17200000000E+03 0. -1.
</event>
<event>
 4    1 -0.6384999E-004  0.2585223E+03  0.7818608E-02  0.1108034E+00
         -5   -1    0    0    0  501 -0.00000000000E+00  0.00000000000E+00  0.55180134245E+03  0.55182135835E+03  0.47000000000E+01 0.  1.
          5   -1    0    0  501    0  0.00000000000E+00 -0.00000000000E+00 -0.15307235348E+03  0.15314449190E+03  0.47000000000E+01 0. -1.
          6    1    1    2  502    0  0.18753818812E+03  0.45598237954E+02  0.38202618605E+02  0.26132969861E+03  0.17200000000E+03 0. -1.
         -6    1    1    2    0  502 -0.18753818812E+03 -0.45598237954E+02  0.36052637037E+03  0.44363615164E+03  0.17200000000E+03 0.  1.
</event>
<event>
 4    1 -0.6384999E-004  0.4699654E+03  0.7818608E-02  0.1021930E+00
          5   -1    0    0  501    0  0.00000000000E+00  0.00000000000E+00  0.78626533423E+03  0.78627938152E+03  0.47000000000E+01 0. -1.
         -5   -1    0    0    0  501 -0.00000000000E+00 -0.00000000000E+00 -0.34482454372E+03  0.34485657301E+03  0.47000000000E+01 0.  1.
          6    1    1    2  502    0  0.11601285274E+03 -0.42169242398E+03  0.46426990622E+03  0.66061640024E+03  0.17200000000E+03 0. -1.
         -6    1    1    2    0  502 -0.11601285274E+03  0.42169242398E+03 -0.22829115710E+02  0.47051955429E+03  0.17200000000E+03 0.  1.
</event>
<event>
 4    1 -0.6384999E-004  0.1824718E+03  0.7818608E-02  0.1165432E+00
          5   -1    0    0  501    0  0.00000000000E+00  0.00000000000E+00  0.11672331350E+03  0.11681790066E+03  0.47000000000E+01 0. -1.
         -5   -1    0    0    0  501 -0.00000000000E+00 -0.00000000000E+00 -0.37010308129E+03  0.37013292313E+03  0.47000000000E+01 0.  1.
          6    1    1    2  502    0  0.57792565938E+02 -0.19286359710E+02 -0.99753511410E+01  0.18274422557E+03  0.17200000000E+03 0. -1.
         -6    1    1    2    0  502 -0.57792565938E+02  0.19286359710E+02 -0.24340441666E+03  0.30420659821E+03  0.17200000000E+03 0.  1.
</event>
<event>
 4    1 -0.6384999E-004  0.2491726E+03  0.7818608E-02  0.1113829E+00
         -5   -1    0    0    0  501 -0.00000000000E+00  0.00000000000E+00  0.31961592680E+03  0.31965048204E+03  0.47000000000E+01 0.  1.
          5   -1    0    0  501    0  0.00000000000E+00 -0.00000000000E+00 -0.19966227953E+03  0.19971759028E+03  0.47000000000E+01 0. -1.
          6    1    1    2  502    0 -0.18028341835E+03  0.93448221130E+00  0.16961766568E+02  0.24974924568E+03  0.17200000000E+03 0.  1.
         -6    1    1    2    0  502  0.18028341835E+03 -0.93448221130E+00  0.10299188070E+03  0.26961882664E+03  0.17200000000E+03 0.  1.
</event>
<event>
 4    1 -0.6384999E-004  0.3623926E+03  0.7818608E-02  0.1057640E+00
          5   -1    0    0  501    0  0.00000000000E+00  0.00000000000E+00  0.10242690186E+03  0.10253467815E+03  0.47000000000E+01 0. -1.
         -5   -1    0    0    0  501 -0.00000000000E+00 -0.00000000000E+00 -0.14705088866E+04  0.14705163976E+04  0.47000000000E+01 0.  1.
          6    1    1    2  502    0 -0.26090915216E+03  0.18349611720E+03 -0.40198207789E+03  0.54121899602E+03  0.17200000000E+03 0. -1.
         -6    1    1    2    0  502  0.26090915216E+03 -0.18349611720E+03 -0.96609990689E+03  0.10318320798E+04  0.17200000000E+03 0.  1.
</event>
<event>
 4    1 -0.6384999E-004  0.2431471E+03  0.7818608E-02  0.1117714E+00
          5   -1    0    0  501    0  0.00000000000E+00  0.00000000000E+00  0.55810759050E+02  0.56008310327E+02  0.47000000000E+01 0. -1.
         -5   -1    0    0    0  501 -0.00000000000E+00 -0.00000000000E+00 -0.15700315943E+04  0.15700386291E+04  0.47000000000E+01 0.  1.
          6    1    1    2  502    0 -0.99830501055E+02  0.13989421223E+03 -0.29249303147E+03  0.38035863736E+03  0.17200000000E+03 0. -1.
         -6    1    1    2    0  502  0.99830501055E+02 -0.13989421223E+03 -0.12217278037E+04  0.12456883021E+04  0.17200000000E+03 0.  1.
</event>
<event>
 4    1 -0.6384999E-004  0.2244865E+03  0.7818608E-02  0.1130582E+00
          5   -1    0    0  501    0  0.00000000000E+00  0.00000000000E+00  0.11598304221E+03  0.11607823259E+03  0.47000000000E+01 0. -1.
         -5   -1    0    0    0  501 -0.00000000000E+00 -0.00000000000E+00 -0.43791058195E+03  0.43793580327E+03  0.47000000000E+01 0.  1.
          6    1    1    2  502    0 -0.19277537914E+02  0.14296349525E+03 -0.18642464132E+03  0.29180187000E+03  0.17200000000E+03 0.  1.
         -6    1    1    2    0  502  0.19277537914E+02 -0.14296349525E+03 -0.13550289842E+03  0.26221216586E+03  0.17200000000E+03 0.  1.
</event>
<event>
 4    1 -0.6384999E-004  0.2267117E+03  0.7818608E-02  0.1128976E+00
         -5   -1    0    0    0  501 -0.00000000000E+00  0.00000000000E+00  0.15930027046E+03  0.15936958985E+03  0.47000000000E+01 0.  1.
          5   -1    0    0  501    0  0.00000000000E+00 -0.00000000000E+00 -0.32800692572E+03  0.32804059706E+03  0.47000000000E+01 0. -1.
          6    1    1    2  502    0 -0.13566001621E+03 -0.58399958068E+02 -0.52761127643E+02  0.23277012628E+03  0.17200000000E+03 0. -1.
         -6    1    1    2    0  502  0.13566001621E+03  0.58399958068E+02 -0.11594552762E+03  0.25464006062E+03  0.17200000000E+03 0.  1.
</event>
<event>
 4    1 -0.6384999E-004  0.2856307E+03  0.7818608E-02  0.1092653E+00
         -5   -1    0    0    0  501 -0.00000000000E+00  0.00000000000E+00  0.19160045101E+04  0.19160102747E+04  0.47000000000E+01 0.  1.
          5   -1    0    0  501    0  0.00000000000E+00 -0.00000000000E+00 -0.45617545227E+02  0.45859027819E+02  0.47000000000E+01 0. -1.
          6    1    1    2  502    0  0.10023446625E+03  0.20482659453E+03  0.11931511298E+04  0.12268636846E+04  0.17200000000E+03 0.  1.
         -6    1    1    2    0  502 -0.10023446625E+03 -0.20482659453E+03  0.67723583510E+03  0.73500561794E+03  0.17200000000E+03 0. -1.
</event>
<event>
 4    1 -0.6384999E-004  0.2762678E+03  0.7818608E-02  0.1097745E+00
         -5   -1    0    0    0  501 -0.00000000000E+00  0.00000000000E+00  0.12087090137E+04  0.12087181515E+04  0.47000000000E+01 0.  1.
          5   -1    0    0  501    0  0.00000000000E+00 -0.00000000000E+00 -0.84605128587E+02  0.84735575664E+02  0.47000000000E+01 0. -1.
          6    1    1    2  502    0 -0.21238823223E+03  0.40387012900E+02  0.23591351184E+03  0.36328921959E+03  0.17200000000E+03 0. -1.
         -6    1    1    2    0  502  0.21238823223E+03 -0.40387012900E+02  0.88819037324E+03  0.93016450756E+03  0.17200000000E+03 0.  1.
</event>
<event>
 4    1 -0.6384999E-004  0.2817254E+03  0.7818608E-02  0.1094750E+00
          5   -1    0    0  501    0  0.00000000000E+00  0.00000000000E+00  0.22252294442E+03  0.22257257421E+03  0.47000000000E+01 0. -1.
         -5   -1    0    0    0  501 -0.00000000000E+00 -0.00000000000E+00 -0.36356095573E+03  0.36359133451E+03  0.47000000000E+01 0.  1.
          6    1    1    2  502    0  0.15910808117E+03 -0.15642833661E+03 -0.11114469878E+03  0.30285697954E+03  0.17200000000E+03 0.  1.
         -6    1    1    2    0  502 -0.15910808117E+03  0.15642833661E+03 -0.29893312525E+02  0.28330692918E+03  0.17200000000E+03 0. -1.
</event>
<event>
 4    1 -0.6384999E-004  0.1897678E+03  0.7818608E-02  0.1158671E+00
         -5   -1    0    0    0  501 -0.00000000000E+00  0.00000000000E+00  0.30265927338E+03  0.30269576436E+03  0.47000000000E+01 0.  1.
          5   -1    0    0  501    0  0.00000000000E+00 -0.00000000000E+00 -0.13865185607E+03  0.13873149315E+03  0.47000000000E+01 0. -1.
          6    1    1    2  502    0 -0.87461282793E+01  0.79695257184E+02 -0.12756172479E+01  0.18977211591E+03  0.17200000000E+03 0. -1.
         -6    1    1    2    0  502  0.87461282793E+01 -0.79695257184E+02  0.16528303456E+03  0.25165514159E+03  0.17200000000E+03 0.  1.
</event>
<event>
 4    1 -0.6384999E-004  0.8144588E+03  0.7818608E-02  0.9539321E-01
          5   -1    0    0  501    0  0.00000000000E+00  0.00000000000E+00  0.11660755510E+04  0.11660850229E+04  0.47000000000E+01 0. -1.
         -5   -1    0    0    0  501 -0.00000000000E+00 -0.00000000000E+00 -0.70290574208E+03  0.70292145525E+03  0.47000000000E+01 0.  1.
          6    1    1    2  502    0 -0.78836259795E+03  0.11065061697E+03  0.63969014235E+03  0.10356382685E+04  0.17200000000E+03 0. -1.
         -6    1    1    2    0  502  0.78836259795E+03 -0.11065061697E+03 -0.17652033339E+03  0.83336820973E+03  0.17200000000E+03 0.  1.
</event>
<event>
 4    1 -0.6384999E-004  0.1736700E+03  0.7818608E-02  0.1174074E+00
          5   -1    0    0  501    0  0.00000000000E+00  0.00000000000E+00  0.74093975344E+02  0.74242893143E+02  0.47000000000E+01 0. -1.
         -5   -1    0    0    0  501 -0.00000000000E+00 -0.00000000000E+00 -0.65033356897E+03  0.65035055234E+03  0.47000000000E+01 0.  1.
          6    1    1    2  502    0 -0.16063592308E+02  0.17867170928E+02 -0.66305803435E+02  0.18589710693E+03  0.17200000000E+03 0. -1.
         -6    1    1    2    0  502  0.16063592308E+02 -0.17867170928E+02 -0.50993379019E+03  0.53869633856E+03  0.17200000000E+03 0.  1.
</event>
<event>
 4    1 -0.6384999E-004  0.2026172E+03  0.7818608E-02  0.1147549E+00
         -5   -1    0    0    0  501 -0.00000000000E+00  0.00000000000E+00  0.21302338562E+03  0.21307522808E+03  0.47000000000E+01 0.  1.
          5   -1    0    0  501    0  0.00000000000E+00 -0.00000000000E+00 -0.19446687867E+03  0.19452366668E+03  0.47000000000E+01 0. -1.
          6    1    1    2  502    0 -0.84568912224E+02 -0.65710160220E+02  0.29158440908E+02  0.20470452058E+03  0.17200000000E+03 0.  1.
         -6    1    1    2    0  502  0.84568912224E+02  0.65710160220E+02 -0.10601933952E+02  0.20289437418E+03  0.17200000000E+03 0.  1.
</event>
<event>
 4    1 -0.6384999E-004  0.1820400E+03  0.7818608E-02  0.1165843E+00
          5   -1    0    0  501    0  0.00000000000E+00  0.00000000000E+00  0.42028533733E+03  0.42031161627E+03  0.47000000000E+01 0. -1.
         -5   -1    0    0    0  501 -0.00000000000E+00 -0.00000000000E+00 -0.81880955314E+02  0.82015735338E+02  0.47000000000E+01 0.  1.
          6    1    1    2  502    0 -0.34591353777E+02 -0.48559410925E+02  0.21827483502E+03  0.28422259191E+03  0.17200000000E+03 0. -1.
         -6    1    1    2    0  502  0.34591353777E+02  0.48559410925E+02  0.12012954699E+03  0.21810475971E+03  0.17200000000E+03 0.  1.
</event>
<event>
 4    1 -0.6384999E-004  0.3975052E+03  0.7818608E-02  0.1044647E+00
         -5   -1    0    0    0  501 -0.00000000000E+00  0.00000000000E+00  0.12386398603E+04  0.12386487773E+04  0.47000000000E+01 0.  1.
          5   -1    0    0  501    0  0.00000000000E+00 -0.00000000000E+00 -0.19805385191E+03  0.19810961172E+03  0.47000000000E+01 0. -1.
          6    1    1    2  502    0 -0.24904611424E+03 -0.25768664916E+03  0.91657088140E+02  0.40793553165E+03  0.17200000000E+03 0. -1.
         -6    1    1    2    0  502  0.24904611424E+03  0.25768664916E+03  0.94892892027E+03  0.10288228574E+04  0.17200000000E+03 0.  1.
</event>
<event>
 4    1 -0.6384999E-004  0.2101158E+03  0.7818608E-02  0.1141474E+00
          5   -1    0    0  501    0  0.00000000000E+00  0.00000000000E+00  0.79567143968E+03  0.79568532092E+03  0.47000000000E+01 0. -1.
         -5   -1    0    0    0  501 -0.00000000000E+00 -0.00000000000E+00 -0.62248612376E+02  0.62425793889E+02  0.47000000000E+01 0.  1.
          6    1    1    2  502    0 -0.28171131625E+02 -0.11734997601E+03  0.50908506922E+03  0.55074153396E+03  0.17200000000E+03 0. -1.
         -6    1    1    2    0  502  0.28171131625E+02  0.11734997601E+03  0.22433775809E+03  0.30736958085E+03  0.17200000000E+03 0.  1.
</event>
<event>
 4    1 -0.6384999E-004  0.2627457E+03  0.7818608E-02  0.1105505E+00
         -5   -1    0    0    0  501 -0.00000000000E+00  0.00000000000E+00  0.35550461667E+03  0.35553568382E+03  0.47000000000E+01 0.  1.
          5   -1    0    0  501    0  0.00000000000E+00 -0.00000000000E+00 -0.25917331998E+03  0.25921593274E+03  0.47000000000E+01 0. -1.
          6    1    1    2  502    0  0.19493485936E+03  0.38101156074E+02 -0.10580439477E+03  0.28324877306E+03  0.17200000000E+03 0. -1.
         -6    1    1    2    0  502 -0.19493485936E+03 -0.38101156074E+02  0.20213569146E+03  0.33150284351E+03  0.17200000000E+03 0.  1.
</event>
<event>
 4    1 -0.6384999E-004  0.3929236E+03  0.7818608E-02  0.1046258E+00
         -5   -1    0    0    0  501 -0.00000000000E+00  0.00000000000E+00  0.10569276054E+03  0.10579720994E+03  0.47000000000E+01 0.  1.
          5   -1    0    0  501    0  0.00000000000E+00 -0.00000000000E+00 -0.17294001625E+04  0.17294065491E+04  0.47000000000E+01 0. -1.
          6    1    1    2  502    0 -0.28047384531E+03  0.21480081733E+03 -0.11740707368E+04  0.12380755486E+04  0.17200000000E+03 0. -1.
         -6    1    1    2    0  502  0.28047384531E+03 -0.21480081733E+03 -0.44963666512E+03  0.59712821039E+03  0.17200000000E+03 0.  1.
</event>
<event>
 4    1 -0.6384999E-004  0.1866156E+03  0.7818608E-02  0.1161550E+00
          5   -1    0    0  501    0  0.00000000000E+00  0.00000000000E+00  0.15055955346E+03  0.15063289527E+03  0.47000000000E+01 0. -1.
         -5   -1    0    0    0  501 -0.00000000000E+00 -0.00000000000E+00 -0.26641821496E+03  0.26645966911E+03  0.47000000000E+01 0.  1.
          6    1    1    2  502    0 -0.66580771638E+02 -0.28431841005E+02  0.17928324613E+02  0.18747478113E+03  0.17200000000E+03 0. -1.
         -6    1    1    2    0  502  0.66580771638E+02  0.28431841005E+02 -0.13378698612E+03  0.22961778326E+03  0.17200000000E+03 0.  1.
</event>
<event>
 4    1 -0.6384999E-004  0.2484334E+03  0.7818608E-02  0.1114299E+00
          5   -1    0    0  501    0  0.00000000000E+00  0.00000000000E+00  0.11811743221E+03  0.11821090386E+03  0.47000000000E+01 0. -1.
         -5   -1    0    0    0  501 -0.00000000000E+00 -0.00000000000E+00 -0.70932931873E+03  0.70934488960E+03  0.47000000000E+01 0.  1.
          6    1    1    2  502    0 -0.17924602891E+03  0.24563408244E+01 -0.83103071040E+02  0.26196429701E+03  0.17200000000E+03 0. -1.
         -6    1    1    2    0  502  0.17924602891E+03 -0.24563408244E+01 -0.50810881548E+03  0.56559149645E+03  0.17200000000E+03 0. -1.
</event>
<event>
 4    1 -0.6384999E-004  0.2035679E+03  0.7818608E-02  0.1146763E+00
          5   -1    0    0  501    0  0.00000000000E+00  0.00000000000E+00  0.12836358884E+03  0.12844960467E+03  0.47000000000E+01 0. -1.
         -5   -1    0    0    0  501 -0.00000000000E+00 -0.00000000000E+00 -0.33594576075E+03  0.33597863647E+03  0.47000000000E+01 0.  1.
          6    1    1    2  502    0 -0.24784558964E+02  0.10602640770E+03 -0.15003034694E+03  0.25288135260E+03  0.17200000000E+03 0. -1.
         -6    1    1    2    0  502  0.24784558964E+02 -0.10602640770E+03 -0.57551824969E+02  0.21154688854E+03  0.17200000000E+03 0.  1.
</event>
<event>
 4    1 -0.6384999E-004  0.2390296E+03  0.7818608E-02  0.1120441E+00
         -5   -1    0    0    0  501 -0.00000000000E+00  0.00000000000E+00  0.13257158169E+03  0.13265486901E+03  0.47000000000E+01 0.  1.
          5   -1    0    0  501    0  0.00000000000E+00 -0.00000000000E+00 -0.76146490921E+03  0.76147941400E+03  0.47000000000E+01 0. -1.
          6    1    1    2  502    0 -0.11801173559E+03 -0.11672360145E+03 -0.60905755547E+03  0.65428302343E+03  0.17200000000E+03 0. -1.
         -6    1    1    2    0  502  0.11801173559E+03  0.11672360145E+03 -0.19835772039E+02  0.23985125958E+03  0.17200000000E+03 0.  1.
</event>
<event>
 4    1 -0.6384999E-004  0.4317698E+03  0.7818608E-02  0.1033302E+00
          5   -1    0    0  501    0  0.00000000000E+00  0.00000000000E+00  0.25215740663E+03  0.25220120483E+03  0.47000000000E+01 0. -1.
         -5   -1    0    0    0  501 -0.00000000000E+00 -0.00000000000E+00 -0.11356113493E+04  0.11356210753E+04  0.47000000000E+01 0.  1.
          6    1    1    2  502    0  0.28463790428E+03 -0.27535866447E+03 -0.31760282742E+02  0.43293630734E+03  0.17200000000E+03 0. -1.
         -6    1    1    2    0  502 -0.28463790428E+03  0.27535866447E+03 -0.85169365988E+03  0.95488597274E+03  0.17200000000E+03 0.  1.
</event>
<event>
 4    1 -0.6384999E-004  0.2595000E+03  0.7818608E-02  0.1107444E+00
          5   -1    0    0  501    0  0.00000000000E+00  0.00000000000E+00  0.32778969408E+03  0.32782338774E+03  0.47000000000E+01 0. -1.
         -5   -1    0    0    0  501 -0.00000000000E+00 -0.00000000000E+00 -0.33624756447E+03  0.33628041069E+03  0.47000000000E+01 0.  1.
          6    1    1    2  502    0 -0.99305844432E+02 -0.16701679024E+03  0.20291179105E+03  0.32941380345E+03  0.17200000000E+03 0. -1.
         -6    1    1    2    0  502  0.99305844432E+02  0.16701679024E+03 -0.21136966143E+03  0.33468999497E+03  0.17200000000E+03 0.  1.
</event>
<event>
 4    1 -0.6384999E-004  0.2218736E+03  0.7818608E-02  0.1132494E+00
         -5   -1    0    0    0  501 -0.00000000000E+00  0.00000000000E+00  0.10509945930E+03  0.10520449774E+03  0.47000000000E+01 0.  1.
          5   -1    0    0  501    0  0.00000000000E+00 -0.00000000000E+00 -0.66524822109E+03  0.66526482370E+03  0.47000000000E+01 0. -1.
          6    1    1    2  502    0 -0.11276496754E+03  0.83234301903E+02 -0.48980041378E+03  0.53771026795E+03  0.17200000000E+03 0. -1.
         -6    1    1    2    0  502  0.11276496754E+03 -0.83234301903E+02 -0.70348348004E+02  0.23275905350E+03  0.17200000000E+03 0.  1.
</event>
<event>
 4    1 -0.6384999E-004  0.3326087E+03  0.7818608E-02  0.1069988E+00
         -5   -1    0    0    0  501 -0.00000000000E+00  0.00000000000E+00  0.88175080858E+02  0.88300254158E+02  0.47000000000E+01 0.  1.
          5   -1    0    0  501    0  0.00000000000E+00 -0.00000000000E+00 -0.12716151569E+04  0.12716238427E+04  0.47000000000E+01 0. -1.
          6    1    1    2  502    0  0.66190935607E+02 -0.27688137614E+03 -0.67258865636E+03  0.75033594947E+03  0.17200000000E+03 0. -1.
         -6    1    1    2    0  502 -0.66190935607E+02  0.27688137614E+03 -0.51085141967E+03  0.60958814735E+03  0.17200000000E+03 0. -1.
</event>
<event>
 4    1 -0.6384999E-004  0.1783950E+03  0.7818608E-02  0.1169365E+00
          5   -1    0    0  501    0  0.00000000000E+00  0.00000000000E+00  0.39511936437E+03  0.39514731696E+03  0.47000000000E+01 0. -1.
         -5   -1    0    0    0  501 -0.00000000000E+00 -0.00000000000E+00 -0.80624126000E+02  0.80761003543E+02  0.47000000000E+01 0.  1.
          6    1    1    2  502    0 -0.56956001944E+01 -0.46992882123E+02  0.14605259330E+03  0.23055613382E+03  0.17200000000E+03 0. -1.
         -6    1    1    2    0  502  0.56956001944E+01  0.46992882123E+02  0.16844264507E+03  0.24535218668E+03  0.17200000000E+03 0. -1.
</event>
<event>
 4    1 -0.6384999E-004  0.1767987E+03  0.7818608E-02  0.1170938E+00
          5   -1    0    0  501    0  0.00000000000E+00  0.00000000000E+00  0.41475917896E+02  0.41741367554E+02  0.47000000000E+01 0. -1.
         -5   -1    0    0    0  501 -0.00000000000E+00 -0.00000000000E+00 -0.84533883211E+03  0.84535189778E+03  0.47000000000E+01 0.  1.
          6    1    1    2  502    0  0.39907649027E+02 -0.90093100718E+01 -0.25375170007E+03  0.30926964515E+03  0.17200000000E+03 0. -1.
         -6    1    1    2    0  502 -0.39907649027E+02  0.90093100718E+01 -0.55011121414E+03  0.57782362019E+03  0.17200000000E+03 0.  1.
</event>
<event>
 4    1 -0.6384999E-004  0.2981685E+03  0.7818608E-02  0.1086160E+00
          5   -1    0    0  501    0  0.00000000000E+00  0.00000000000E+00  0.12137136838E+03  0.12146233598E+03  0.47000000000E+01 0. -1.
         -5   -1    0    0    0  501 -0.00000000000E+00 -0.00000000000E+00 -0.81578950855E+03  0.81580304747E+03  0.47000000000E+01 0.  1.
          6    1    1    2  502    0  0.17922528379E+03 -0.16492050721E+03 -0.19714323980E+03  0.35744920345E+03  0.17200000000E+03 0. -1.
         -6    1    1    2    0  502 -0.17922528379E+03  0.16492050721E+03 -0.49727490038E+03  0.57981618000E+03  0.17200000000E+03 0.  1.
</event>
<event>
 4    1 -0.6384999E-004  0.2158112E+03  0.7818608E-02  0.1137045E+00
         -5   -1    0    0    0  501 -0.00000000000E+00  0.00000000000E+00  0.17200038578E+03  0.17206458877E+03  0.47000000000E+01 0.  1.
          5   -1    0    0  501    0  0.00000000000E+00 -0.00000000000E+00 -0.35704764355E+03  0.35707857646E+03  0.47000000000E+01 0. -1.
          6    1    1    2  502    0 -0.16160156449E+02  0.12934192223E+03 -0.22265437270E+03  0.31007975295E+03  0.17200000000E+03 0. -1.
         -6    1    1    2    0  502  0.16160156449E+02 -0.12934192223E+03  0.37607114932E+02  0.21906341227E+03  0.17200000000E+03 0.  1.
</event>
<event>
 4    1 -0.6384999E-004  0.2017405E+03  0.7818608E-02  0.1148279E+00
         -5   -1    0    0    0  501 -0.00000000000E+00  0.00000000000E+00  0.12771576666E+03  0.12780221850E+03  0.47000000000E+01 0.  1.
          5   -1    0    0  501    0  0.00000000000E+00 -0.00000000000E+00 -0.34178343929E+03  0.34181575355E+03  0.47000000000E+01 0. -1.
          6    1    1    2  502    0  0.10374862266E+03  0.18746820538E+02 -0.45704017737E+02  0.20685279119E+03  0.17200000000E+03 0.  1.
         -6    1    1    2    0  502 -0.10374862266E+03 -0.18746820538E+02 -0.16836365490E+03  0.26276518086E+03  0.17200000000E+03 0. -1.
</event>
<event>
 4    1 -0.6384999E-004  0.3570075E+03  0.7818608E-02  0.1059775E+00
          5   -1    0    0  501    0  0.00000000000E+00  0.00000000000E+00  0.31212682356E+03  0.31216220782E+03  0.47000000000E+01 0. -1.
         -5   -1    0    0    0  501 -0.00000000000E+00 -0.00000000000E+00 -0.48472516916E+03  0.48474795473E+03  0.47000000000E+01 0.  1.
          6    1    1    2  502    0 -0.30032124736E+03 -0.87621521720E+02  0.71938229285E+02  0.36418332130E+03  0.17200000000E+03 0. -1.
         -6    1    1    2    0  502  0.30032124736E+03  0.87621521720E+02 -0.24453657488E+03  0.43272684125E+03  0.17200000000E+03 0.  1.
</event>
<event>
 4    1 -0.6384999E-004  0.1753178E+03  0.7818608E-02  0.1172413E+00
         -5   -1    0    0    0  501 -0.00000000000E+00  0.00000000000E+00  0.13652629980E+03  0.13660717601E+03  0.47000000000E+01 0.  1.
          5   -1    0    0  501    0  0.00000000000E+00 -0.00000000000E+00 -0.27106154741E+03  0.27110229155E+03  0.47000000000E+01 0. -1.
          6    1    1    2  502    0 -0.21884203902E+02 -0.25949857219E+02 -0.15131972813E+03  0.23159009822E+03  0.17200000000E+03 0. -1.
         -6    1    1    2    0  502  0.21884203902E+02  0.25949857219E+02  0.16784480526E+02  0.17611936934E+03  0.17200000000E+03 0.  1.
</event>
<event>
 4    1 -0.6384999E-004  0.1920708E+03  0.7818608E-02  0.1156607E+00
         -5   -1    0    0    0  501 -0.00000000000E+00  0.00000000000E+00  0.29963259300E+04  0.29963296162E+04  0.47000000000E+01 0.  1.
          5   -1    0    0  501    0  0.00000000000E+00 -0.00000000000E+00 -0.12557641235E+02  0.13408368782E+02  0.47000000000E+01 0. -1.
          6    1    1    2  502    0 -0.12885888064E+02 -0.84505328710E+02  0.11489126048E+04  0.11648568025E+04  0.17200000000E+03 0. -1.
         -6    1    1    2    0  502  0.12885888064E+02  0.84505328710E+02  0.18348556840E+04  0.18448811825E+04  0.17200000000E+03 0.  1.
</event>
<event>
 4    1 -0.6384999E-004  0.2263000E+03  0.7818608E-02  0.1129271E+00
         -5   -1    0    0    0  501 -0.00000000000E+00  0.00000000000E+00  0.20185401443E+03  0.20190872478E+03  0.47000000000E+01 0.  1.
          5   -1    0    0  501    0  0.00000000000E+00 -0.00000000000E+00 -0.27584977447E+03  0.27588981147E+03  0.47000000000E+01 0. -1.
          6    1    1    2  502    0  0.13460370493E+03  0.59241210519E+02 -0.10484131230E+03  0.24940605279E+03  0.17200000000E+03 0. -1.
         -6    1    1    2    0  502 -0.13460370493E+03 -0.59241210519E+02  0.30845552265E+02  0.22839248346E+03  0.17200000000E+03 0.  1.
</event>
<event>
 4    1 -0.6384999E-004  0.2277747E+03  0.7818608E-02  0.1128216E+00
         -5   -1    0    0    0  501 -0.00000000000E+00  0.00000000000E+00  0.53869127437E+02  0.54073772670E+02  0.47000000000E+01 0.  1.
          5   -1    0    0  501    0  0.00000000000E+00 -0.00000000000E+00 -0.12546587593E+04  0.12546675625E+04  0.47000000000E+01 0. -1.
          6    1    1    2  502    0  0.22432075901E+02  0.14762827744E+03 -0.91691317509E+03  0.94478096773E+03  0.17200000000E+03 0. -1.
         -6    1    1    2    0  502 -0.22432075901E+02 -0.14762827744E+03 -0.28387645678E+03  0.36396036741E+03  0.17200000000E+03 0.  1.
</event>
<event>
 4    1 -0.6384999E-004  0.1769215E+03  0.7818608E-02  0.1170816E+00
         -5   -1    0    0    0  501 -0.00000000000E+00  0.00000000000E+00  0.53411481783E+03  0.53413549651E+03  0.47000000000E+01 0.  1.
          5   -1    0    0  501    0  0.00000000000E+00 -0.00000000000E+00 -0.13052805035E+03  0.13061264077E+03  0.47000000000E+01 0. -1.
          6    1    1    2  502    0  0.30024845461E+02 -0.28560641158E+02 -0.44981729599E+02  0.18255015082E+03  0.17200000000E+03 0. -1.
         -6    1    1    2    0  502 -0.30024845461E+02  0.28560641158E+02  0.44856849708E+03  0.48219798645E+03  0.17200000000E+03 0.  1.
</event>
<event>
 4    1 -0.6384999E-004  0.3186428E+03  0.7818608E-02  0.1076276E+00
          5   -1    0    0  501    0  0.00000000000E+00  0.00000000000E+00  0.17053348167E+03  0.17059823671E+03  0.47000000000E+01 0. -1.
         -5   -1    0    0    0  501 -0.00000000000E+00 -0.00000000000E+00 -0.62235061974E+03  0.62236836672E+03  0.47000000000E+01 0.  1.
          6    1    1    2  502    0  0.21001443986E+03  0.16686266629E+03 -0.14309943038E+03  0.34930024524E+03  0.17200000000E+03 0. -1.
         -6    1    1    2    0  502 -0.21001443986E+03 -0.16686266629E+03 -0.30871770770E+03  0.44366635819E+03  0.17200000000E+03 0.  1.
</event>
<event>
 4    1 -0.6384999E-004  0.1836605E+03  0.7818608E-02  0.1164307E+00
         -5   -1    0    0    0  501 -0.00000000000E+00  0.00000000000E+00  0.18622605463E+03  0.18628535482E+03  0.47000000000E+01 0.  1.
          5   -1    0    0  501    0  0.00000000000E+00 -0.00000000000E+00 -0.18158319984E+03  0.18164401576E+03  0.47000000000E+01 0. -1.
          6    1    1    2  502    0 -0.64349730974E+02 -0.25055683428E+01 -0.79968871050E+01  0.18383447977E+03  0.17200000000E+03 0. -1.
         -6    1    1    2    0  502  0.64349730974E+02  0.25055683428E+01  0.12639741894E+02  0.18409489082E+03  0.17200000000E+03 0.  1.
</event>
<event>
 4    1 -0.6384999E-004  0.2517562E+03  0.7818608E-02  0.1112200E+00
          5   -1    0    0  501    0  0.00000000000E+00  0.00000000000E+00  0.13273359634E+03  0.13281678206E+03  0.47000000000E+01 0. -1.
         -5   -1    0    0    0  501 -0.00000000000E+00 -0.00000000000E+00 -0.67830490400E+03  0.67832118704E+03  0.47000000000E+01 0.  1.
          6    1    1    2  502    0  0.99609307205E+02 -0.15451595495E+03 -0.52003889158E+02  0.25707119423E+03  0.17200000000E+03 0. -1.
         -6    1    1    2    0  502 -0.99609307205E+02  0.15451595495E+03 -0.49356741850E+03  0.55406677488E+03  0.17200000000E+03 0.  1.
</event>
<event>
 4    1 -0.6384999E-004  0.1926340E+03  0.7818608E-02  0.1156107E+00
          5   -1    0    0  501    0  0.00000000000E+00  0.00000000000E+00  0.14542792872E+03  0.14550385718E+03  0.47000000000E+01 0. -1.
         -5   -1    0    0    0  501 -0.00000000000E+00 -0.00000000000E+00 -0.30460599661E+03  0.30464225440E+03  0.47000000000E+01 0.  1.
          6    1    1    2  502    0 -0.69993215098E+02  0.51232941117E+02  0.11222900301E+02  0.19296066414E+03  0.17200000000E+03 0. -1.
         -6    1    1    2    0  502  0.69993215098E+02 -0.51232941117E+02 -0.17040096818E+03  0.25718544744E+03  0.17200000000E+03 0.  1.
</event>
<event>
 4    1 -0.6384999E-004  0.2089028E+03  0.7818608E-02  0.1142438E+00
         -5   -1    0    0    0  501 -0.00000000000E+00  0.00000000000E+00  0.47439669539E+03  0.47441997702E+03  0.47000000000E+01 0.  1.
          5   -1    0    0  501    0  0.00000000000E+00 -0.00000000000E+00 -0.98549233121E+02  0.98661245424E+02  0.47000000000E+01 0. -1.
          6    1    1    2  502    0  0.49171988850E+02  0.10788193043E+03  0.11357901654E+03  0.23778264949E+03  0.17200000000E+03 0. -1.
         -6    1    1    2    0  502 -0.49171988850E+02 -0.10788193043E+03  0.26226844573E+03  0.33529857295E+03  0.17200000000E+03 0.  1.
</event>
<event>
 4    1 -0.6384999E-004  0.2202156E+03  0.7818608E-02  0.1133722E+00
          5   -1    0    0  501    0  0.00000000000E+00  0.00000000000E+00  0.70422092956E+02  0.70578758676E+02  0.47000000000E+01 0. -1.
         -5   -1    0    0    0  501 -0.00000000000E+00 -0.00000000000E+00 -0.76848329528E+03  0.76849766762E+03  0.47000000000E+01 0.  1.
          6    1    1    2  502    0  0.52399020746E+02  0.12714263997E+03 -0.21302378831E+03  0.30638871171E+03  0.17200000000E+03 0. -1.
         -6    1    1    2    0  502 -0.52399020746E+02 -0.12714263997E+03 -0.48503741402E+03  0.53268771458E+03  0.17200000000E+03 0. -1.
</event>
<event>
 4    1 -0.6384999E-004  0.2081497E+03  0.7818608E-02  0.1143040E+00
          5   -1    0    0  501    0  0.00000000000E+00  0.00000000000E+00  0.59957632459E+02  0.60141563748E+02  0.47000000000E+01 0. -1.
         -5   -1    0    0    0  501 -0.00000000000E+00 -0.00000000000E+00 -0.97673324535E+03  0.97674455339E+03  0.47000000000E+01 0.  1.
          6    1    1    2  502    0 -0.66033041154E+00  0.11722571819E+03 -0.19329775184E+03  0.28406042651E+03  0.17200000000E+03 0. -1.
         -6    1    1    2    0  502  0.66033041154E+00 -0.11722571819E+03 -0.72347786106E+03  0.75282569063E+03  0.17200000000E+03 0.  1.
</event>
<event>
 4    1 -0.6384999E-004  0.2436556E+03  0.7818608E-02  0.1117381E+00
          5   -1    0    0  501    0  0.00000000000E+00  0.00000000000E+00  0.94096453535E+02  0.94213759971E+02  0.47000000000E+01 0. -1.
         -5   -1    0    0    0  501 -0.00000000000E+00 -0.00000000000E+00 -0.63467149613E+03  0.63468889859E+03  0.47000000000E+01 0.  1.
          6    1    1    2  502    0  0.14521620884E+03  0.93254057047E+02 -0.24042218163E+03  0.34230233988E+03  0.17200000000E+03 0.  1.
         -6    1    1    2    0  502 -0.14521620884E+03 -0.93254057047E+02 -0.30015286096E+03  0.38660031869E+03  0.17200000000E+03 0.  1.
</event>
<event>
 4    1 -0.6384999E-004  0.2128666E+03  0.7818608E-02  0.1139316E+00
         -5   -1    0    0    0  501 -0.00000000000E+00  0.00000000000E+00  0.52427262126E+03  0.52429368812E+03  0.47000000000E+01 0.  1.
          5   -1    0    0  501    0  0.00000000000E+00 -0.00000000000E+00 -0.91102640269E+02  0.91223796589E+02  0.47000000000E+01 0. -1.
          6    1    1    2  502    0  0.12332774835E+03  0.22769527206E+02  0.28688139720E+03  0.35722978731E+03  0.17200000000E+03 0. -1.
         -6    1    1    2    0  502 -0.12332774835E+03 -0.22769527206E+02  0.14628858380E+03  0.25828769741E+03  0.17200000000E+03 0.  1.
</event>
<event>
 4    1 -0.6384999E-004  0.2238638E+03  0.7818608E-02  0.1131035E+00
         -5   -1    0    0    0  501 -0.00000000000E+00  0.00000000000E+00  0.41951976954E+03  0.41954609643E+03  0.47000000000E+01 0.  1.
          5   -1    0    0  501    0  0.00000000000E+00 -0.00000000000E+00 -0.14858736658E+03  0.14866168137E+03  0.47000000000E+01 0. -1.
          6    1    1    2  502    0 -0.12026984865E+03  0.77885446383E+02  0.95563082191E+01  0.22406762881E+03  0.17200000000E+03 0. -1.
         -6    1    1    2    0  502  0.12026984865E+03 -0.77885446383E+02  0.26137609474E+03  0.34414014900E+03  0.17200000000E+03 0.  1.
</event>
<event>
 4    1 -0.6384999E-004  0.1987888E+03  0.7818608E-02  0.1150765E+00
          5   -1    0    0  501    0  0.00000000000E+00  0.00000000000E+00  0.52509973149E+02  0.52719894538E+02  0.47000000000E+01 0. -1.
         -5   -1    0    0    0  501 -0.00000000000E+00 -0.00000000000E+00 -0.17224322267E+04  0.17224386391E+04  0.47000000000E+01 0.  1.
          6    1    1    2  502    0 -0.67105554860E+02  0.73687511651E+02 -0.16838531232E+03  0.26051989995E+03  0.17200000000E+03 0. -1.
         -6    1    1    2    0  502  0.67105554860E+02 -0.73687511651E+02 -0.15015369412E+04  0.15146386337E+04  0.17200000000E+03 0.  1.
</event>
<event>
 4    1 -0.6384999E-004  0.3163699E+03  0.7818608E-02  0.1077332E+00
         -5   -1    0    0    0  501 -0.00000000000E+00  0.00000000000E+00  0.99109901985E+03  0.99111016398E+03  0.47000000000E+01 0.  1.
          5   -1    0    0  501    0  0.00000000000E+00 -0.00000000000E+00 -0.24578591533E+03  0.24583084870E+03  0.47000000000E+01 0. -1.
          6    1    1    2  502    0 -0.26549515676E+03  0.42684771771E+01 -0.10206835076E+03  0.33242720465E+03  0.17200000000E+03 0. -1.
         -6    1    1    2    0  502  0.26549515676E+03 -0.42684771771E+01  0.84738145528E+03  0.90451380803E+03  0.17200000000E+03 0.  1.
</event>
<event>
 4    1 -0.6384999E-004  0.1996037E+03  0.7818608E-02  0.1150074E+00
          5   -1    0    0  501    0  0.00000000000E+00  0.00000000000E+00  0.21578172340E+03  0.21583290332E+03  0.47000000000E+01 0. -1.
         -5   -1    0    0    0  501 -0.00000000000E+00 -0.00000000000E+00 -0.56055661563E+03  0.56057631891E+03  0.47000000000E+01 0.  1.
          6    1    1    2  502    0  0.10047635206E+03 -0.12734000853E+02  0.14553539350E+03  0.24702672499E+03  0.17200000000E+03 0. -1.
         -6    1    1    2    0  502 -0.10047635206E+03  0.12734000853E+02 -0.49031028572E+03  0.52938249724E+03  0.17200000000E+03 0.  1.
</event>
<event>
 4    1 -0.6384999E-004  0.2123066E+03  0.7818608E-02  0.1139752E+00
         -5   -1    0    0    0  501 -0.00000000000E+00  0.00000000000E+00  0.40782188924E+02  0.41052124591E+02  0.47000000000E+01 0.  1.
          5   -1    0    0  501    0  0.00000000000E+00 -0.00000000000E+00 -0.11186106375E+04  0.11186205113E+04  0.47000000000E+01 0. -1.
          6    1    1    2  502    0  0.70010171848E+02 -0.10290130914E+03 -0.46683229093E+03  0.51284158513E+03  0.17200000000E+03 0. -1.
         -6    1    1    2    0  502 -0.70010171848E+02  0.10290130914E+03 -0.61099615768E+03  0.64683105081E+03  0.17200000000E+03 0.  1.
</event>
<event>
 4    1 -0.6384999E-004  0.3262445E+03  0.7818608E-02  0.1072811E+00
         -5   -1    0    0    0  501 -0.00000000000E+00  0.00000000000E+00  0.60311870915E+03  0.60313702202E+03  0.47000000000E+01 0.  1.
          5   -1    0    0  501    0  0.00000000000E+00 -0.00000000000E+00 -0.18512846023E+03  0.18518811190E+03  0.47000000000E+01 0. -1.
          6    1    1    2  502    0  0.13808506411E+03  0.24038303681E+03  0.12353885026E+03  0.34885145383E+03  0.17200000000E+03 0. -1.
         -6    1    1    2    0  502 -0.13808506411E+03 -0.24038303681E+03  0.29445139866E+03  0.43947368009E+03  0.17200000000E+03 0.  1.
</event>
<event>
 4    1 -0.6384999E-004  0.3034991E+03  0.7818608E-02  0.1083504E+00
          5   -1    0    0  501    0  0.00000000000E+00  0.00000000000E+00  0.25451897078E+03  0.25456236267E+03  0.47000000000E+01 0. -1.
         -5   -1    0    0    0  501 -0.00000000000E+00 -0.00000000000E+00 -0.69967675575E+03  0.69969254144E+03  0.47000000000E+01 0.  1.
          6    1    1    2  502    0  0.11070656615E+03  0.22421360826E+03  0.10895980893E+03  0.32246538710E+03  0.17200000000E+03 0. -1.
         -6    1    1    2    0  502 -0.11070656615E+03 -0.22421360826E+03 -0.55411759390E+03  0.63178951700E+03  0.17200000000E+03 0.  1.
</event>
<event>
 4    1 -0.6384999E-004  0.5596273E+03  0.7818608E-02  0.9992898E-01
          5   -1    0    0  501    0  0.00000000000E+00  0.00000000000E+00  0.26568915896E+03  0.26573072685E+03  0.47000000000E+01 0. -1.
         -5   -1    0    0    0  501 -0.00000000000E+00 -0.00000000000E+00 -0.11791339815E+04  0.11791433485E+04  0.47000000000E+01 0.  1.
          6    1    1    2  502    0  0.38538806846E+03 -0.36752516446E+03 -0.47184016362E+03  0.73199443292E+03  0.17200000000E+03 0. -1.
         -6    1    1    2    0  502 -0.38538806846E+03  0.36752516446E+03 -0.44160465895E+03  0.71287964246E+03  0.17200000000E+03 0.  1.
</event>
<event>
 4    1 -0.6384999E-004  0.3755660E+03  0.7818608E-02  0.1052585E+00
         -5   -1    0    0    0  501 -0.00000000000E+00  0.00000000000E+00  0.80032910662E+03  0.80034290707E+03  0.47000000000E+01 0.  1.
          5   -1    0    0  501    0  0.00000000000E+00 -0.00000000000E+00 -0.19736646250E+03  0.19742241645E+03  0.47000000000E+01 0. -1.
          6    1    1    2  502    0  0.15020383587E+03  0.29816884327E+03  0.13811006051E+03  0.40015527014E+03  0.17200000000E+03 0. -1.
         -6    1    1    2    0  502 -0.15020383587E+03 -0.29816884327E+03  0.46485258361E+03  0.59761005338E+03  0.17200000000E+03 0.  1.
</event>
<event>
 4    1 -0.6384999E-004  0.1825589E+03  0.7818608E-02  0.1165349E+00
         -5   -1    0    0    0  501 -0.00000000000E+00  0.00000000000E+00  0.36829802138E+02  0.37128484018E+02  0.47000000000E+01 0.  1.
          5   -1    0    0  501    0  0.00000000000E+00 -0.00000000000E+00 -0.12329084517E+04  0.12329174101E+04  0.47000000000E+01 0. -1.
          6    1    1    2  502    0  0.37099362791E+02  0.48655774206E+02 -0.26857427518E+03  0.32474588277E+03  0.17200000000E+03 0.  1.
         -6    1    1    2    0  502 -0.37099362791E+02 -0.48655774206E+02 -0.92750437436E+03  0.94530001139E+03  0.17200000000E+03 0. -1.
</event>
<event>
 4    1 -0.6384999E-004  0.2268606E+03  0.7818608E-02  0.1128869E+00
          5   -1    0    0  501    0  0.00000000000E+00  0.00000000000E+00  0.16074795793E+03  0.16081665330E+03  0.47000000000E+01 0. -1.
         -5   -1    0    0    0  501 -0.00000000000E+00 -0.00000000000E+00 -0.89468648053E+03  0.89469882555E+03  0.47000000000E+01 0.  1.
          6    1    1    2  502    0 -0.70460935513E+02  0.13006528114E+03  0.55980350880E+02  0.23366540282E+03  0.17200000000E+03 0. -1.
         -6    1    1    2    0  502  0.70460935513E+02 -0.13006528114E+03 -0.78991887348E+03  0.82185007603E+03  0.17200000000E+03 0.  1.
</event>
<event>
 4    1 -0.6384999E-004  0.1986415E+03  0.7818608E-02  0.1150890E+00
          5   -1    0    0  501    0  0.00000000000E+00  0.00000000000E+00  0.16913206653E+03  0.16919735792E+03  0.47000000000E+01 0. -1.
         -5   -1    0    0    0  501 -0.00000000000E+00 -0.00000000000E+00 -0.48242842337E+03  0.48245131742E+03  0.47000000000E+01 0.  1.
          6    1    1    2  502    0  0.88021195887E+02 -0.46116112812E+02  0.77532316036E+02  0.21323622304E+03  0.17200000000E+03 0. -1.
         -6    1    1    2    0  502 -0.88021195887E+02  0.46116112812E+02 -0.39082867288E+03  0.43841245230E+03  0.17200000000E+03 0.  1.
</event>
<event>
 4    1 -0.6384999E-004  0.3804333E+03  0.7818608E-02  0.1050774E+00
         -5   -1    0    0    0  501 -0.00000000000E+00  0.00000000000E+00  0.61799497242E+03  0.61801284448E+03  0.47000000000E+01 0.  1.
          5   -1    0    0  501    0  0.00000000000E+00 -0.00000000000E+00 -0.23627644168E+03  0.23632318315E+03  0.47000000000E+01 0. -1.
          6    1    1    2  502    0  0.24807296605E+03  0.23152818277E+03  0.15031374877E+03  0.40905222035E+03  0.17200000000E+03 0. -1.
         -6    1    1    2    0  502 -0.24807296605E+03 -0.23152818277E+03  0.23140478198E+03  0.44528380728E+03  0.17200000000E+03 0.  1.
</event>
<event>
 4    1 -0.6384999E-004  0.5067073E+03  0.7818608E-02  0.1012043E+00
          5   -1    0    0  501    0  0.00000000000E+00  0.00000000000E+00  0.25554662361E+04  0.25554705582E+04  0.47000000000E+01 0. -1.
         -5   -1    0    0    0  501 -0.00000000000E+00 -0.00000000000E+00 -0.14772327134E+03  0.14779802061E+03  0.47000000000E+01 0.  1.
          6    1    1    2  502    0  0.44065358422E+02 -0.47458033425E+03  0.19685398591E+04  0.20327079049E+04  0.17200000000E+03 0. -1.
         -6    1    1    2    0  502 -0.44065358422E+02  0.47458033425E+03  0.43920310565E+03  0.67056067398E+03  0.17200000000E+03 0.  1.
</event>
<event>
 4    1 -0.6384999E-004  0.2053638E+03  0.7818608E-02  0.1145291E+00
          5   -1    0    0  501    0  0.00000000000E+00  0.00000000000E+00  0.10828929755E+03  0.10839124487E+03  0.47000000000E+01 0. -1.
         -5   -1    0    0    0  501 -0.00000000000E+00 -0.00000000000E+00 -0.38922996378E+03  0.38925833929E+03  0.47000000000E+01 0.  1.
          6    1    1    2  502    0  0.17107228486E+02  0.11089477594E+03 -0.13714050907E+03  0.24694498948E+03  0.17200000000E+03 0.  1.
         -6    1    1    2    0  502 -0.17107228486E+02 -0.11089477594E+03 -0.14380015715E+03  0.25070459468E+03  0.17200000000E+03 0. -1.
</event>
<event>
 4    1 -0.6384999E-004  0.1813047E+03  0.7818608E-02  0.1166546E+00
         -5   -1    0    0    0  501 -0.00000000000E+00  0.00000000000E+00  0.22865132344E+03  0.22869962332E+03  0.47000000000E+01 0.  1.
          5   -1    0    0  501    0  0.00000000000E+00 -0.00000000000E+00 -0.21036050877E+03  0.21041300733E+03  0.47000000000E+01 0. -1.
          6    1    1    2  502    0  0.53007862637E+02  0.21853117363E+02 -0.11445253127E+03  0.21440796197E+03  0.17200000000E+03 0. -1.
         -6    1    1    2    0  502 -0.53007862637E+02 -0.21853117363E+02  0.13274334593E+03  0.22470466868E+03  0.17200000000E+03 0.  1.
</event>
<event>
 4    1 -0.6384999E-004  0.2682421E+03  0.7818608E-02  0.1102290E+00
         -5   -1    0    0    0  501 -0.00000000000E+00  0.00000000000E+00  0.32489337330E+03  0.32492736729E+03  0.47000000000E+01 0.  1.
          5   -1    0    0  501    0  0.00000000000E+00 -0.00000000000E+00 -0.43379934386E+03  0.43382480420E+03  0.47000000000E+01 0. -1.
          6    1    1    2  502    0  0.18631865541E+03  0.87493761627E+02 -0.31989386550E+03  0.41747560990E+03  0.17200000000E+03 0. -1.
         -6    1    1    2    0  502 -0.18631865541E+03 -0.87493761627E+02  0.21098789494E+03  0.34127656159E+03  0.17200000000E+03 0.  1.
</event>
<event>
 4    1 -0.6384999E-004  0.2442490E+03  0.7818608E-02  0.1116994E+00
          5   -1    0    0  501    0  0.00000000000E+00  0.00000000000E+00  0.27138177324E+03  0.27142246931E+03  0.47000000000E+01 0. -1.
         -5   -1    0    0    0  501 -0.00000000000E+00 -0.00000000000E+00 -0.36573225117E+03  0.36576244961E+03  0.47000000000E+01 0.  1.
          6    1    1    2  502    0 -0.15905324362E+03  0.69105902013E+02 -0.24843682780E+03  0.34839405478E+03  0.17200000000E+03 0. -1.
         -6    1    1    2    0  502  0.15905324362E+03 -0.69105902013E+02  0.15408634986E+03  0.28879086415E+03  0.17200000000E+03 0.  1.
</event>
<event>
 4    1 -0.6384999E-004  0.1809283E+03  0.7818608E-02  0.1166908E+00
         -5   -1    0    0    0  501 -0.00000000000E+00  0.00000000000E+00  0.98952189928E+02  0.99063746605E+02  0.47000000000E+01 0.  1.
          5   -1    0    0  501    0  0.00000000000E+00 -0.00000000000E+00 -0.46411765138E+03  0.46414144862E+03  0.47000000000E+01 0. -1.
          6    1    1    2  502    0 -0.56034179694E+02  0.33475962831E+01 -0.33365530765E+03  0.37955355355E+03  0.17200000000E+03 0. -1.
         -6    1    1    2    0  502  0.56034179694E+02 -0.33475962831E+01 -0.31510153808E+02  0.18365164167E+03  0.17200000000E+03 0.  1.
</event>
<event>
 4    1 -0.6384999E-004  0.1795107E+03  0.7818608E-02  0.1168277E+00
          5   -1    0    0  501    0  0.00000000000E+00  0.00000000000E+00  0.38484364646E+02  0.38770302065E+02  0.47000000000E+01 0. -1.
         -5   -1    0    0    0  501 -0.00000000000E+00 -0.00000000000E+00 -0.11925385489E+04  0.11925478106E+04  0.47000000000E+01 0.  1.
          6    1    1    2  502    0 -0.78930302038E+01  0.50771888016E+02 -0.23946341789E+03  0.29927715089E+03  0.17200000000E+03 0. -1.
         -6    1    1    2    0  502  0.78930302038E+01 -0.50771888016E+02 -0.91459076633E+03  0.93204096176E+03  0.17200000000E+03 0.  1.
</event>
<event>
 4    1 -0.6384999E-004  0.3730597E+03  0.7818608E-02  0.1053529E+00
         -5   -1    0    0    0  501 -0.00000000000E+00  0.00000000000E+00  0.25779949898E+03  0.25784233880E+03  0.47000000000E+01 0.  1.
          5   -1    0    0  501    0  0.00000000000E+00 -0.00000000000E+00 -0.54051206177E+03  0.54053249571E+03  0.47000000000E+01 0. -1.
          6    1    1    2  502    0 -0.24380592210E+03 -0.22393796092E+03 -0.12640700156E+03  0.39389372683E+03  0.17200000000E+03 0. -1.
         -6    1    1    2    0  502  0.24380592210E+03  0.22393796092E+03 -0.15630556123E+03  0.40448110767E+03  0.17200000000E+03 0.  1.
</event>
<event>
 4    1 -0.6384999E-004  0.2225224E+03  0.7818608E-02  0.1132016E+00
          5   -1    0    0  501    0  0.00000000000E+00  0.00000000000E+00  0.14885163590E+03  0.14892581881E+03  0.47000000000E+01 0. -1.
         -5   -1    0    0    0  501 -0.00000000000E+00 -0.00000000000E+00 -0.33259692424E+03  0.33263013095E+03  0.47000000000E+01 0.  1.
          6    1    1    2  502    0  0.14066758874E+03  0.12035929364E+02 -0.96361520643E+02  0.24249077669E+03  0.17200000000E+03 0. -1.
         -6    1    1    2    0  502 -0.14066758874E+03 -0.12035929364E+02 -0.87383767705E+02  0.23906517307E+03  0.17200000000E+03 0.  1.
</event>
<event>
 4    1 -0.6384999E-004  0.3456971E+03  0.7818608E-02  0.1064395E+00
          5   -1    0    0  501    0  0.00000000000E+00  0.00000000000E+00  0.16139408517E+04  0.16139476952E+04  0.47000000000E+01 0. -1.
         -5   -1    0    0    0  501 -0.00000000000E+00 -0.00000000000E+00 -0.99421424496E+02  0.99532455253E+02  0.47000000000E+01 0.  1.
          6    1    1    2  502    0 -0.29243265975E+03 -0.66374817986E+02  0.11904818784E+04  0.12396586545E+04  0.17200000000E+03 0. -1.
         -6    1    1    2    0  502  0.29243265975E+03  0.66374817986E+02  0.32403754883E+03  0.47382149593E+03  0.17200000000E+03 0.  1.
</event>
<event>
 4    1 -0.6384999E-004  0.1778636E+03  0.7818608E-02  0.1169887E+00
          5   -1    0    0  501    0  0.00000000000E+00  0.00000000000E+00  0.62126635120E+02  0.62304163515E+02  0.47000000000E+01 0. -1.
         -5   -1    0    0    0  501 -0.00000000000E+00 -0.00000000000E+00 -0.57717534700E+03  0.57719448298E+03  0.47000000000E+01 0.  1.
          6    1    1    2  502    0  0.10432798270E+02 -0.44075002270E+02 -0.14708307719E+03  0.23080052144E+03  0.17200000000E+03 0. -1.
         -6    1    1    2    0  502 -0.10432798270E+02  0.44075002270E+02 -0.36796563469E+03  0.40869812505E+03  0.17200000000E+03 0.  1.
</event>
<event>
 4    1 -0.6384999E-004  0.2079890E+03  0.7818608E-02  0.1143168E+00
         -5   -1    0    0    0  501 -0.00000000000E+00  0.00000000000E+00  0.11334076374E+04  0.11334173823E+04  0.47000000000E+01 0.  1.
          5   -1    0    0  501    0  0.00000000000E+00 -0.00000000000E+00 -0.40828802955E+02  0.41098432461E+02  0.47000000000E+01 0. -1.
          6    1    1    2  502    0  0.11580403835E+03 -0.16273638260E+02  0.39260876674E+03  0.44429837983E+03  0.17200000000E+03 0. -1.
         -6    1    1    2    0  502 -0.11580403835E+03  0.16273638260E+02  0.69997006772E+03  0.73021743495E+03  0.17200000000E+03 0.  1.
</event>
<event>
 4    1 -0.6384999E-004  0.3178160E+03  0.7818608E-02  0.1076659E+00
         -5   -1    0    0    0  501 -0.00000000000E+00  0.00000000000E+00  0.10206873114E+04  0.10206981325E+04  0.47000000000E+01 0.  1.
          5   -1    0    0  501    0  0.00000000000E+00 -0.00000000000E+00 -0.10272955392E+03  0.10283701303E+03  0.47000000000E+01 0. -1.
          6    1    1    2  502    0 -0.16682889216E+03  0.20878491660E+03  0.35047503645E+03  0.47311708047E+03  0.17200000000E+03 0. -1.
         -6    1    1    2    0  502  0.16682889216E+03 -0.20878491660E+03  0.56748272103E+03  0.65041806504E+03  0.17200000000E+03 0.  1.
</event>
<event>
 4    1 -0.6384999E-004  0.2432391E+03  0.7818608E-02  0.1117654E+00
         -5   -1    0    0    0  501 -0.00000000000E+00  0.00000000000E+00  0.25635258697E+04  0.25635301782E+04  0.47000000000E+01 0.  1.
          5   -1    0    0  501    0  0.00000000000E+00 -0.00000000000E+00 -0.26191919096E+02  0.26610272940E+02  0.47000000000E+01 0. -1.
          6    1    1    2  502    0  0.64058090025E+02  0.15961776369E+03  0.80905266231E+03  0.84482630154E+03  0.17200000000E+03 0. -1.
         -6    1    1    2    0  502 -0.64058090025E+02 -0.15961776369E+03  0.17282812882E+04  0.17453141496E+04  0.17200000000E+03 0.  1.
</event>
<event>
 4    1 -0.6384999E-004  0.2471883E+03  0.7818608E-02  0.1115095E+00
         -5   -1    0    0    0  501 -0.00000000000E+00  0.00000000000E+00  0.20648067609E+03  0.20653416085E+03  0.47000000000E+01 0.  1.
          5   -1    0    0  501    0  0.00000000000E+00 -0.00000000000E+00 -0.29583992813E+03  0.29587726015E+03  0.47000000000E+01 0. -1.
          6    1    1    2  502    0 -0.63863269930E+02  0.16564890625E+03 -0.42198214750E+02  0.25076436493E+03  0.17200000000E+03 0.  1.
         -6    1    1    2    0  502  0.63863269930E+02 -0.16564890625E+03 -0.47161037291E+02  0.25164705607E+03  0.17200000000E+03 0.  1.
</event>
<event>
 4    1 -0.6384999E-004  0.2204783E+03  0.7818608E-02  0.1133527E+00
         -5   -1    0    0    0  501 -0.00000000000E+00  0.00000000000E+00  0.18377337234E+04  0.18377397335E+04  0.47000000000E+01 0.  1.
          5   -1    0    0  501    0  0.00000000000E+00 -0.00000000000E+00 -0.27009262493E+02  0.27415146551E+02  0.47000000000E+01 0. -1.
          6    1    1    2  502    0 -0.13083348386E+03  0.43695325964E+02  0.10618947516E+04  0.10845419058E+04  0.17200000000E+03 0.  1.
         -6    1    1    2    0  502  0.13083348386E+03 -0.43695325964E+02  0.74882970929E+03  0.78061297422E+03  0.17200000000E+03 0. -1.
</event>
<event>
 4    1 -0.6384999E-004  0.2735262E+03  0.7818608E-02  0.1099278E+00
          5   -1    0    0  501    0  0.00000000000E+00  0.00000000000E+00  0.94289139967E+02  0.94406206977E+02  0.47000000000E+01 0. -1.
         -5   -1    0    0    0  501 -0.00000000000E+00 -0.00000000000E+00 -0.98866182214E+03  0.98867299374E+03  0.47000000000E+01 0.  1.
          6    1    1    2  502    0 -0.16953911733E+03  0.12840976211E+03 -0.68816676422E+03  0.74053364183E+03  0.17200000000E+03 0. -1.
         -6    1    1    2    0  502  0.16953911733E+03 -0.12840976211E+03 -0.20620591795E+03  0.34254555888E+03  0.17200000000E+03 0. -1.
</event>
<event>
 4    1 -0.6384999E-004  0.3624930E+03  0.7818608E-02  0.1057601E+00
          5   -1    0    0  501    0  0.00000000000E+00  0.00000000000E+00  0.90465256980E+03  0.90466477882E+03  0.47000000000E+01 0. -1.
         -5   -1    0    0    0  501 -0.00000000000E+00 -0.00000000000E+00 -0.14693321459E+03  0.14700836558E+03  0.47000000000E+01 0.  1.
          6    1    1    2  502    0  0.26344434128E+03 -0.18003963618E+03  0.43596584769E+03  0.56698096256E+03  0.17200000000E+03 0. -1.
         -6    1    1    2    0  502 -0.26344434128E+03  0.18003963618E+03  0.32175350751E+03  0.48469218184E+03  0.17200000000E+03 0.  1.
</event>
<event>
 4    1 -0.6384999E-004  0.5019720E+03  0.7818608E-02  0.1013265E+00
         -5   -1    0    0    0  501 -0.00000000000E+00  0.00000000000E+00  0.12768299333E+04  0.12768385836E+04  0.47000000000E+01 0.  1.
          5   -1    0    0  501    0  0.00000000000E+00 -0.00000000000E+00 -0.24431471286E+03  0.24435991676E+03  0.47000000000E+01 0. -1.
          6    1    1    2  502    0  0.27867031176E+01  0.47157625687E+03  0.18266990022E+03  0.53417621082E+03  0.17200000000E+03 0. -1.
         -6    1    1    2    0  502 -0.27867031176E+01 -0.47157625687E+03  0.84984532023E+03  0.98702228956E+03  0.17200000000E+03 0.  1.
</event>
<event>
 4    1 -0.6384999E-004  0.1740191E+03  0.7818608E-02  0.1173720E+00
         -5   -1    0    0    0  501 -0.00000000000E+00  0.00000000000E+00  0.60744855129E+03  0.60746673363E+03  0.47000000000E+01 0.  1.
          5   -1    0    0  501    0  0.00000000000E+00 -0.00000000000E+00 -0.65424764528E+02  0.65593367145E+02  0.47000000000E+01 0. -1.
          6    1    1    2  502    0  0.50218890983E+01  0.25950333253E+02  0.10641264517E+03  0.20397620013E+03  0.17200000000E+03 0. -1.
         -6    1    1    2    0  502 -0.50218890983E+01 -0.25950333253E+02  0.43561114159E+03  0.46908390065E+03  0.17200000000E+03 0.  1.
</event>
<event>
 4    1 -0.6384999E-004  0.5391583E+03  0.7818608E-02  0.1004035E+00
         -5   -1    0    0    0  501 -0.00000000000E+00  0.00000000000E+00  0.11022899324E+04  0.11022999524E+04  0.47000000000E+01 0.  1.
          5   -1    0    0  501    0  0.00000000000E+00 -0.00000000000E+00 -0.29151434878E+03  0.29155223467E+03  0.47000000000E+01 0. -1.
          6    1    1    2  502    0  0.32262456247E+02  0.50996740359E+03  0.19007032339E+03  0.57168028359E+03  0.17200000000E+03 0. -1.
         -6    1    1    2    0  502 -0.32262456247E+02 -0.50996740359E+03  0.62070526023E+03  0.82217190349E+03  0.17200000000E+03 0.  1.
</event>
<event>
 4    1 -0.6384999E-004  0.3562675E+03  0.7818608E-02  0.1060072E+00
          5   -1    0    0  501    0  0.00000000000E+00  0.00000000000E+00  0.74685204487E+03  0.74686683347E+03  0.47000000000E+01 0. -1.
         -5   -1    0    0    0  501 -0.00000000000E+00 -0.00000000000E+00 -0.17585621280E+03  0.17591900858E+03  0.47000000000E+01 0.  1.
          6    1    1    2  502    0  0.22916813598E+03 -0.21171798203E+03  0.37039438969E+03  0.51392464659E+03  0.17200000000E+03 0. -1.
         -6    1    1    2    0  502 -0.22916813598E+03  0.21171798203E+03  0.20060144238E+03  0.40886119545E+03  0.17200000000E+03 0.  1.
</event>
<event>
 4    1 -0.6384999E-004  0.1969306E+03  0.7818608E-02  0.1152355E+00
         -5   -1    0    0    0  501 -0.00000000000E+00  0.00000000000E+00  0.99913996736E+02  0.10002448072E+03  0.47000000000E+01 0.  1.
          5   -1    0    0  501    0  0.00000000000E+00 -0.00000000000E+00 -0.38954669469E+03  0.38957504712E+03  0.47000000000E+01 0. -1.
          6    1    1    2  502    0 -0.88456618280E+02 -0.37055302853E+02 -0.12848003248E+03  0.23513567899E+03  0.17200000000E+03 0.  1.
         -6    1    1    2    0  502  0.88456618280E+02  0.37055302853E+02 -0.16115266547E+03  0.25446384886E+03  0.17200000000E+03 0.  1.
</event>
<event>
 4    1 -0.6384999E-004  0.2346589E+03  0.7818608E-02  0.1123403E+00
          5   -1    0    0  501    0  0.00000000000E+00  0.00000000000E+00  0.54730565150E+03  0.54732583180E+03  0.47000000000E+01 0. -1.
         -5   -1    0    0    0  501 -0.00000000000E+00 -0.00000000000E+00 -0.12069509268E+03  0.12078656961E+03  0.47000000000E+01 0.  1.
          6    1    1    2  502    0  0.49725204982E+02  0.15168447826E+03  0.34976911993E+03  0.42119260940E+03  0.17200000000E+03 0. -1.
         -6    1    1    2    0  502 -0.49725204982E+02 -0.15168447826E+03  0.76841438885E+02  0.24691979201E+03  0.17200000000E+03 0. -1.
</event>
<event>
 4    1 -0.6384999E-004  0.2314948E+03  0.7818608E-02  0.1125592E+00
          5   -1    0    0  501    0  0.00000000000E+00  0.00000000000E+00  0.23129070044E+03  0.23133844926E+03  0.47000000000E+01 0. -1.
         -5   -1    0    0    0  501 -0.00000000000E+00 -0.00000000000E+00 -0.29145499577E+03  0.29149288938E+03  0.47000000000E+01 0.  1.
          6    1    1    2  502    0  0.12200983372E+02 -0.15445706336E+03  0.88362533149E+02  0.24778576570E+03  0.17200000000E+03 0. -1.
         -6    1    1    2    0  502 -0.12200983372E+02  0.15445706336E+03 -0.14852682849E+03  0.27504557295E+03  0.17200000000E+03 0. -1.
</event>
<event>
 4    1 -0.6384999E-004  0.3099323E+03  0.7818608E-02  0.1080378E+00
          5   -1    0    0  501    0  0.00000000000E+00  0.00000000000E+00  0.24807504531E+03  0.24811956414E+03  0.47000000000E+01 0. -1.
         -5   -1    0    0    0  501 -0.00000000000E+00 -0.00000000000E+00 -0.65541443562E+03  0.65543128734E+03  0.47000000000E+01 0.  1.
          6    1    1    2  502    0  0.16798039012E+02  0.25727779808E+03  0.85363738169E+02  0.32147318285E+03  0.17200000000E+03 0. -1.
         -6    1    1    2    0  502 -0.16798039012E+02 -0.25727779808E+03 -0.49270312848E+03  0.58207766862E+03  0.17200000000E+03 0.  1.
</event>
<event>
 4    1 -0.6384999E-004  0.2443188E+03  0.7818608E-02  0.1116949E+00
         -5   -1    0    0    0  501 -0.00000000000E+00  0.00000000000E+00  0.69723788049E+02  0.69882019289E+02  0.47000000000E+01 0.  1.
          5   -1    0    0  501    0  0.00000000000E+00 -0.00000000000E+00 -0.17425168897E+04  0.17425232282E+04  0.47000000000E+01 0. -1.
          6    1    1    2  502    0  0.13692840442E+03  0.10657525819E+03 -0.14831053759E+04  0.15030945512E+04  0.17200000000E+03 0. -1.
         -6    1    1    2    0  502 -0.13692840442E+03 -0.10657525819E+03 -0.18968772574E+03  0.30931069637E+03  0.17200000000E+03 0.  1.
</event>
<event>
 4    1 -0.6384999E-004  0.2061489E+03  0.7818608E-02  0.1144652E+00
          5   -1    0    0  501    0  0.00000000000E+00  0.00000000000E+00  0.12656189076E+04  0.12656276345E+04  0.47000000000E+01 0. -1.
         -5   -1    0    0    0  501 -0.00000000000E+00 -0.00000000000E+00 -0.51178131849E+02  0.51393493552E+02  0.47000000000E+01 0.  1.
          6    1    1    2  502    0  0.10306691550E+03  0.47860104067E+02  0.99422301692E+03  0.10153702704E+04  0.17200000000E+03 0. -1.
         -6    1    1    2    0  502 -0.10306691550E+03 -0.47860104067E+02  0.22021775882E+03  0.30165085767E+03  0.17200000000E+03 0. -1.
</event>
<event>
 4    1 -0.6384999E-004  0.1852655E+03  0.7818608E-02  0.1162802E+00
          5   -1    0    0  501    0  0.00000000000E+00  0.00000000000E+00  0.27422995505E+03  0.27427022851E+03  0.47000000000E+01 0. -1.
         -5   -1    0    0    0  501 -0.00000000000E+00 -0.00000000000E+00 -0.13008495614E+03  0.13016983450E+03  0.47000000000E+01 0.  1.
          6    1    1    2  502    0 -0.29713389721E+02 -0.62099968075E+02  0.11176265866E+03  0.21636585552E+03  0.17200000000E+03 0.  1.
         -6    1    1    2    0  502  0.29713389721E+02  0.62099968075E+02  0.32382340243E+02  0.18807420749E+03  0.17200000000E+03 0.  1.
</event>
<event>
 4    1 -0.6384999E-004  0.4247212E+03  0.7818608E-02  0.1035541E+00
          5   -1    0    0  501    0  0.00000000000E+00  0.00000000000E+00  0.33649520159E+03  0.33652802364E+03  0.47000000000E+01 0. -1.
         -5   -1    0    0    0  501 -0.00000000000E+00 -0.00000000000E+00 -0.89949328003E+03  0.89950555908E+03  0.47000000000E+01 0.  1.
          6    1    1    2  502    0  0.21965638570E+03  0.32024229548E+03  0.11135545105E+03  0.43907640801E+03  0.17200000000E+03 0. -1.
         -6    1    1    2    0  502 -0.21965638570E+03 -0.32024229548E+03 -0.67435352949E+03  0.79695717471E+03  0.17200000000E+03 0.  1.
</event>
<event>
 4    1 -0.6384999E-004  0.2852101E+03  0.7818608E-02  0.1092877E+00
          5   -1    0    0  501    0  0.00000000000E+00  0.00000000000E+00  0.10634767826E+04  0.10634871683E+04  0.47000000000E+01 0. -1.
         -5   -1    0    0    0  501 -0.00000000000E+00 -0.00000000000E+00 -0.76713218000E+02  0.76857060937E+02  0.47000000000E+01 0.  1.
          6    1    1    2  502    0  0.21328530647E+03  0.79184312061E+02  0.45736526058E+03  0.53900626974E+03  0.17200000000E+03 0. -1.
         -6    1    1    2    0  502 -0.21328530647E+03 -0.79184312061E+02  0.52939830405E+03  0.60133795953E+03  0.17200000000E+03 0.  1.
</event>
<event>
 4    1 -0.6384999E-004  0.2973828E+03  0.7818608E-02  0.1086556E+00
         -5   -1    0    0    0  501 -0.00000000000E+00  0.00000000000E+00  0.13182140951E+03  0.13190517050E+03  0.47000000000E+01 0.  1.
          5   -1    0    0  501    0  0.00000000000E+00 -0.00000000000E+00 -0.10072667676E+04  0.10072777328E+04  0.47000000000E+01 0. -1.
          6    1    1    2  502    0 -0.20409761129E+03 -0.13113608602E+03 -0.76701811056E+03  0.82265016254E+03  0.17200000000E+03 0. -1.
         -6    1    1    2    0  502  0.20409761129E+03  0.13113608602E+03 -0.10842724750E+03  0.31653274079E+03  0.17200000000E+03 0.  1.
</event>
<event>
 4    1 -0.6384999E-004  0.2572276E+03  0.7818608E-02  0.1108820E+00
         -5   -1    0    0    0  501 -0.00000000000E+00  0.00000000000E+00  0.57604262781E+03  0.57606180142E+03  0.47000000000E+01 0.  1.
          5   -1    0    0  501    0  0.00000000000E+00 -0.00000000000E+00 -0.17670374669E+03  0.17676624138E+03  0.47000000000E+01 0. -1.
          6    1    1    2  502    0 -0.18858846111E+03 -0.31881453916E+02 -0.23072346736E+02  0.25826027172E+03  0.17200000000E+03 0. -1.
         -6    1    1    2    0  502  0.18858846111E+03  0.31881453916E+02  0.42241122787E+03  0.49456777108E+03  0.17200000000E+03 0.  1.
</event>
<event>
 4    1 -0.6384999E-004  0.6080191E+03  0.7818608E-02  0.9888907E-01
          5   -1    0    0  501    0  0.00000000000E+00  0.00000000000E+00  0.71280228873E+03  0.71281778374E+03  0.47000000000E+01 0. -1.
         -5   -1    0    0    0  501 -0.00000000000E+00 -0.00000000000E+00 -0.78084469859E+03  0.78085884340E+03  0.47000000000E+01 0.  1.
          6    1    1    2  502    0  0.42968903981E+03  0.39429755194E+03  0.39877377001E+03  0.72712292636E+03  0.17200000000E+03 0. -1.
         -6    1    1    2    0  502 -0.42968903981E+03 -0.39429755194E+03 -0.46681617987E+03  0.76655370078E+03  0.17200000000E+03 0.  1.
</event>
<event>
 4    1 -0.6384999E-004  0.1914371E+03  0.7818608E-02  0.1157172E+00
         -5   -1    0    0    0  501 -0.00000000000E+00  0.00000000000E+00  0.13808577056E+03  0.13816573392E+03  0.47000000000E+01 0.  1.
          5   -1    0    0  501    0  0.00000000000E+00 -0.00000000000E+00 -0.26553634354E+03  0.26557793534E+03  0.47000000000E+01 0. -1.
          6    1    1    2  502    0 -0.28586408417E+01  0.83999855173E+02 -0.56800199994E+02  0.19968577870E+03  0.17200000000E+03 0. -1.
         -6    1    1    2    0  502  0.28586408417E+01 -0.83999855173E+02 -0.70650372986E+02  0.20405789056E+03  0.17200000000E+03 0.  1.
</event>
<event>
 4    1 -0.6384999E-004  0.1806840E+03  0.7818608E-02  0.1167143E+00
          5   -1    0    0  501    0  0.00000000000E+00  0.00000000000E+00  0.40448439685E+02  0.40720587827E+02  0.47000000000E+01 0. -1.
         -5   -1    0    0    0  501 -0.00000000000E+00 -0.00000000000E+00 -0.82114768748E+03  0.82116113806E+03  0.47000000000E+01 0.  1.
          6    1    1    2  502    0  0.10186554013E+02 -0.54396169260E+02 -0.32832964373E+03  0.37476267699E+03  0.17200000000E+03 0. -1.
         -6    1    1    2    0  502 -0.10186554013E+02  0.54396169260E+02 -0.45236960407E+03  0.48711904890E+03  0.17200000000E+03 0.  1.
</event>
<event>
 4    1 -0.6384999E-004  0.1764377E+03  0.7818608E-02  0.1171296E+00
          5   -1    0    0  501    0  0.00000000000E+00  0.00000000000E+00  0.20551747192E+03  0.20557120729E+03  0.47000000000E+01 0. -1.
         -5   -1    0    0    0  501 -0.00000000000E+00 -0.00000000000E+00 -0.20998541532E+03  0.21003800763E+03  0.47000000000E+01 0.  1.
          6    1    1    2  502    0 -0.37166108602E+02 -0.12843185210E+02  0.10753346294E+03  0.20662456942E+03  0.17200000000E+03 0. -1.
         -6    1    1    2    0  502  0.37166108602E+02  0.12843185210E+02 -0.11200140634E+03  0.20898464550E+03  0.17200000000E+03 0.  1.
</event>
<event>
 4    1 -0.6384999E-004  0.1804372E+03  0.7818608E-02  0.1167381E+00
         -5   -1    0    0    0  501 -0.00000000000E+00  0.00000000000E+00  0.34660777004E+03  0.34663963456E+03  0.47000000000E+01 0.  1.
          5   -1    0    0  501    0  0.00000000000E+00 -0.00000000000E+00 -0.12543497665E+03  0.12552299935E+03  0.47000000000E+01 0. -1.
          6    1    1    2  502    0 -0.37787541547E+02 -0.39315404348E+02 -0.78398840306E+01  0.18060748350E+03  0.17200000000E+03 0. -1.
         -6    1    1    2    0  502  0.37787541547E+02  0.39315404348E+02  0.22901267742E+03  0.29155515041E+03  0.17200000000E+03 0.  1.
</event>
<event>
 4    1 -0.6384999E-004  0.1869049E+03  0.7818608E-02  0.1161283E+00
          5   -1    0    0  501    0  0.00000000000E+00  0.00000000000E+00  0.10689509867E+04  0.10689613192E+04  0.47000000000E+01 0. -1.
         -5   -1    0    0    0  501 -0.00000000000E+00 -0.00000000000E+00 -0.34467698314E+02  0.34786667375E+02  0.47000000000E+01 0.  1.
          6    1    1    2  502    0  0.70962215588E+02  0.17714743686E+02  0.64843845200E+03  0.67483766508E+03  0.17200000000E+03 0. -1.
         -6    1    1    2    0  502 -0.70962215588E+02 -0.17714743686E+02  0.38604483634E+03  0.42891032146E+03  0.17200000000E+03 0.  1.
</event>
<event>
 4    1 -0.6384999E-004  0.2224134E+03  0.7818608E-02  0.1132096E+00
         -5   -1    0    0    0  501 -0.00000000000E+00  0.00000000000E+00  0.14195445608E+04  0.14195523415E+04  0.47000000000E+01 0.  1.
          5   -1    0    0  501    0  0.00000000000E+00 -0.00000000000E+00 -0.10070583786E+03  0.10081545407E+03  0.47000000000E+01 0. -1.
          6    1    1    2  502    0  0.33475219057E+02 -0.13697858423E+03  0.44570943091E+02  0.22683538480E+03  0.17200000000E+03 0. -1.
         -6    1    1    2    0  502 -0.33475219057E+02  0.13697858423E+03  0.12742677799E+04  0.12935324107E+04  0.17200000000E+03 0.  1.
</event>
<event>
 4    1 -0.6384999E-004  0.1798611E+03  0.7818608E-02  0.1167938E+00
         -5   -1    0    0    0  501 -0.00000000000E+00  0.00000000000E+00  0.73417389524E+02  0.73567676900E+02  0.47000000000E+01 0.  1.
          5   -1    0    0  501    0  0.00000000000E+00 -0.00000000000E+00 -0.53468532124E+03  0.53470597786E+03  0.47000000000E+01 0. -1.
          6    1    1    2  502    0  0.16544130820E+01  0.52566933715E+02 -0.35858658112E+03  0.40116624455E+03  0.17200000000E+03 0. -1.
         -6    1    1    2    0  502 -0.16544130820E+01 -0.52566933715E+02 -0.10268135060E+03  0.20710741021E+03  0.17200000000E+03 0.  1.
</event>
<event>
 4    1 -0.6384999E-004  0.2750030E+03  0.7818608E-02  0.1098450E+00
         -5   -1    0    0    0  501 -0.00000000000E+00  0.00000000000E+00  0.49738304865E+02  0.49959873607E+02  0.47000000000E+01 0.  1.
          5   -1    0    0  501    0  0.00000000000E+00 -0.00000000000E+00 -0.15620808521E+04  0.15620879227E+04  0.47000000000E+01 0. -1.
          6    1    1    2  502    0  0.11420408967E+03  0.18165917933E+03 -0.61908088345E+03  0.67741255656E+03  0.17200000000E+03 0.  1.
         -6    1    1    2    0  502 -0.11420408967E+03 -0.18165917933E+03 -0.89326166375E+03  0.93463523979E+03  0.17200000000E+03 0. -1.
</event>
<event>
 4    1 -0.6384999E-004  0.3246188E+03  0.7818608E-02  0.1073543E+00
         -5   -1    0    0    0  501 -0.00000000000E+00  0.00000000000E+00  0.13119959650E+03  0.13128375422E+03  0.47000000000E+01 0.  1.
          5   -1    0    0  501    0  0.00000000000E+00 -0.00000000000E+00 -0.81720015227E+03  0.81721366781E+03  0.47000000000E+01 0. -1.
          6    1    1    2  502    0  0.14811559951E+03 -0.23206705174E+03 -0.28012609445E+03  0.42877497141E+03  0.17200000000E+03 0. -1.
         -6    1    1    2    0  502 -0.14811559951E+03  0.23206705174E+03 -0.40587446132E+03  0.51972245062E+03  0.17200000000E+03 0. -1.
</event>
<event>
 4    1 -0.6384999E-004  0.2968186E+03  0.7818608E-02  0.1086842E+00
         -5   -1    0    0    0  501 -0.00000000000E+00  0.00000000000E+00  0.58319160002E+03  0.58321053860E+03  0.47000000000E+01 0.  1.
          5   -1    0    0  501    0  0.00000000000E+00 -0.00000000000E+00 -0.16236055105E+03  0.16242856442E+03  0.47000000000E+01 0. -1.
          6    1    1    2  502    0 -0.36317351576E+02 -0.23916172319E+03  0.11186556425E+03  0.31719896647E+03  0.17200000000E+03 0. -1.
         -6    1    1    2    0  502  0.36317351576E+02  0.23916172319E+03  0.30896548472E+03  0.42844013655E+03  0.17200000000E+03 0.  1.
</event>
<event>
 4    1 -0.6384999E-004  0.4496447E+03  0.7818608E-02  0.1027828E+00
         -5   -1    0    0    0  501 -0.00000000000E+00  0.00000000000E+00  0.62131338059E+03  0.62133115720E+03  0.47000000000E+01 0.  1.
          5   -1    0    0  501    0  0.00000000000E+00 -0.00000000000E+00 -0.32904158494E+03  0.32907515041E+03  0.47000000000E+01 0. -1.
          6    1    1    2  502    0  0.19771811962E+03 -0.36538179586E+03  0.95932527898E+02  0.45976446305E+03  0.17200000000E+03 0. -1.
         -6    1    1    2    0  502 -0.19771811962E+03  0.36538179586E+03  0.19633926776E+03  0.49064184456E+03  0.17200000000E+03 0.  1.
</event>
<event>
 4    1 -0.6384999E-004  0.1834396E+03  0.7818608E-02  0.1164515E+00
          5   -1    0    0  501    0  0.00000000000E+00  0.00000000000E+00  0.28474787903E+03  0.28478666509E+03  0.47000000000E+01 0. -1.
         -5   -1    0    0    0  501 -0.00000000000E+00 -0.00000000000E+00 -0.13385895595E+03  0.13394144276E+03  0.47000000000E+01 0.  1.
          6    1    1    2  502    0  0.84811278783E+01 -0.63199472024E+02  0.14728861309E+03  0.23525313673E+03  0.17200000000E+03 0. -1.
         -6    1    1    2    0  502 -0.84811278783E+01  0.63199472024E+02  0.36003099841E+01  0.18347497112E+03  0.17200000000E+03 0.  1.
</event>
<event>
 4    1 -0.6384999E-004  0.2205189E+03  0.7818608E-02  0.1133497E+00
          5   -1    0    0  501    0  0.00000000000E+00  0.00000000000E+00  0.13131368478E+04  0.13131452590E+04  0.47000000000E+01 0. -1.
         -5   -1    0    0    0  501 -0.00000000000E+00 -0.00000000000E+00 -0.11496106466E+03  0.11505710056E+03  0.47000000000E+01 0.  1.
          6    1    1    2  502    0 -0.12558711149E+03  0.57205386432E+02  0.11870969198E+04  0.12074053486E+04  0.17200000000E+03 0. -1.
         -6    1    1    2    0  502  0.12558711149E+03 -0.57205386432E+02  0.11078863336E+02  0.22079701090E+03  0.17200000000E+03 0.  1.
</event>
<event>
 4    1 -0.6384999E-004  0.3647063E+03  0.7818608E-02  0.1056736E+00
          5   -1    0    0  501    0  0.00000000000E+00  0.00000000000E+00  0.42078198619E+03  0.42080823412E+03  0.47000000000E+01 0. -1.
         -5   -1    0    0    0  501 -0.00000000000E+00 -0.00000000000E+00 -0.44979847129E+03  0.44982302606E+03  0.47000000000E+01 0.  1.
          6    1    1    2  502    0 -0.31368742394E+03  0.70900654669E+02  0.22285453356E+03  0.42740477992E+03  0.17200000000E+03 0. -1.
         -6    1    1    2    0  502  0.31368742394E+03 -0.70900654669E+02 -0.25187101866E+03  0.44322648027E+03  0.17200000000E+03 0.  1.
</event>
<event>
 4    1 -0.6384999E-004  0.1724402E+03  0.7818608E-02  0.1175327E+00
         -5   -1    0    0    0  501 -0.00000000000E+00  0.00000000000E+00  0.53828323505E+03  0.53830375360E+03  0.47000000000E+01 0.  1.
          5   -1    0    0  501    0  0.00000000000E+00 -0.00000000000E+00 -0.63214632689E+02  0.63389114097E+02  0.47000000000E+01 0. -1.
          6    1    1    2  502    0  0.76324000190E+01 -0.96624295441E+01  0.13005568730E+03  0.21598633724E+03  0.17200000000E+03 0. -1.
         -6    1    1    2    0  502 -0.76324000190E+01  0.96624295441E+01  0.34501291507E+03  0.38570653046E+03  0.17200000000E+03 0.  1.
</event>
<event>
 4    1 -0.6384999E-004  0.1940902E+03  0.7818608E-02  0.1154823E+00
         -5   -1    0    0    0  501 -0.00000000000E+00  0.00000000000E+00  0.26018558556E+02  0.26439655621E+02  0.47000000000E+01 0.  1.
          5   -1    0    0  501    0  0.00000000000E+00 -0.00000000000E+00 -0.15474371856E+04  0.15474443231E+04  0.47000000000E+01 0. -1.
          6    1    1    2  502    0  0.19674382088E+01  0.89906346840E+02 -0.54937434507E+03  0.58265186264E+03  0.17200000000E+03 0.  1.
         -6    1    1    2    0  502 -0.19674382088E+01 -0.89906346840E+02 -0.97204428193E+03  0.99123211613E+03  0.17200000000E+03 0.  1.
</event>
<event>
 4    1 -0.6384999E-004  0.1760280E+03  0.7818608E-02  0.1171703E+00
          5   -1    0    0  501    0  0.00000000000E+00  0.00000000000E+00  0.59908142000E+02  0.60092224771E+02  0.47000000000E+01 0. -1.
         -5   -1    0    0    0  501 -0.00000000000E+00 -0.00000000000E+00 -0.12093648163E+04  0.12093739492E+04  0.47000000000E+01 0.  1.
          6    1    1    2  502    0  0.20477778301E+02  0.31345273675E+02 -0.10552180085E+04  0.10697994724E+04  0.17200000000E+03 0.  1.
         -6    1    1    2    0  502 -0.20477778301E+02 -0.31345273675E+02 -0.94238665797E+02  0.19966670157E+03  0.17200000000E+03 0. -1.
</event>
<event>
 4    1 -0.6384999E-004  0.2521667E+03  0.7818608E-02  0.1111943E+00
          5   -1    0    0  501    0  0.00000000000E+00  0.00000000000E+00  0.27588794886E+03  0.27592798032E+03  0.47000000000E+01 0. -1.
         -5   -1    0    0    0  501 -0.00000000000E+00 -0.00000000000E+00 -0.27981595461E+03  0.27985542420E+03  0.47000000000E+01 0.  1.
          6    1    1    2  502    0 -0.16991138404E+03  0.71653032146E+02  0.11479466438E+03  0.27706650901E+03  0.17200000000E+03 0. -1.
         -6    1    1    2    0  502  0.16991138404E+03 -0.71653032146E+02 -0.11872267014E+03  0.27871689552E+03  0.17200000000E+03 0.  1.
</event>
<event>
 4    1 -0.6384999E-004  0.4525536E+03  0.7818608E-02  0.1026963E+00
         -5   -1    0    0    0  501 -0.00000000000E+00  0.00000000000E+00  0.30469568813E+03  0.30473193526E+03  0.47000000000E+01 0.  1.
          5   -1    0    0  501    0  0.00000000000E+00 -0.00000000000E+00 -0.67258737953E+03  0.67260380099E+03  0.47000000000E+01 0. -1.
          6    1    1    2  502    0  0.41110852236E+03  0.78807122427E+02 -0.17048883810E+03  0.48360234038E+03  0.17200000000E+03 0. -1.
         -6    1    1    2    0  502 -0.41110852236E+03 -0.78807122427E+02 -0.19740285331E+03  0.49373339587E+03  0.17200000000E+03 0.  1.
</event>
<event>
 4    1 -0.6384999E-004  0.1998202E+03  0.7818608E-02  0.1149891E+00
         -5   -1    0    0    0  501 -0.00000000000E+00  0.00000000000E+00  0.38230035498E+03  0.38232924478E+03  0.47000000000E+01 0.  1.
          5   -1    0    0  501    0  0.00000000000E+00 -0.00000000000E+00 -0.12792679047E+03  0.12801309980E+03  0.47000000000E+01 0. -1.
          6    1    1    2  502    0 -0.48010031266E+02  0.89661329649E+02  0.23666451171E+03  0.30973893562E+03  0.17200000000E+03 0.  1.
         -6    1    1    2    0  502  0.48010031266E+02 -0.89661329649E+02  0.17709052792E+02  0.20060340896E+03  0.17200000000E+03 0. -1.
</event>
<event>
 4    1 -0.6384999E-004  0.4238528E+03  0.7818608E-02  0.1035820E+00
          5   -1    0    0  501    0  0.00000000000E+00  0.00000000000E+00  0.11468162269E+03  0.11477789240E+03  0.47000000000E+01 0. -1.
         -5   -1    0    0    0  501 -0.00000000000E+00 -0.00000000000E+00 -0.18647232420E+04  0.18647291651E+04  0.47000000000E+01 0.  1.
          6    1    1    2  502    0 -0.10066358864E+03 -0.37407755361E+03 -0.47873010042E+03  0.63940103475E+03  0.17200000000E+03 0. -1.
         -6    1    1    2    0  502  0.10066358864E+03  0.37407755361E+03 -0.12713115188E+04  0.13401060227E+04  0.17200000000E+03 0.  1.
</event>
<event>
 4    1 -0.6384999E-004  0.2283280E+03  0.7818608E-02  0.1127822E+00
          5   -1    0    0  501    0  0.00000000000E+00  0.00000000000E+00  0.58191815570E+03  0.58193713572E+03  0.47000000000E+01 0. -1.
         -5   -1    0    0    0  501 -0.00000000000E+00 -0.00000000000E+00 -0.90382348132E+02  0.90504468696E+02  0.47000000000E+01 0.  1.
          6    1    1    2  502    0 -0.14780534902E+03  0.26519151252E+02  0.27882488604E+03  0.36038452195E+03  0.17200000000E+03 0.  1.
         -6    1    1    2    0  502  0.14780534902E+03 -0.26519151252E+02  0.21271092152E+03  0.31205708247E+03  0.17200000000E+03 0.  1.
</event>
<event>
 4    1 -0.6384999E-004  0.2149562E+03  0.7818608E-02  0.1137700E+00
         -5   -1    0    0    0  501 -0.00000000000E+00  0.00000000000E+00  0.41957271259E+02  0.42219694592E+02  0.47000000000E+01 0.  1.
          5   -1    0    0  501    0  0.00000000000E+00 -0.00000000000E+00 -0.11923931251E+04  0.11924023879E+04  0.47000000000E+01 0. -1.
          6    1    1    2  502    0 -0.12321964552E+03  0.37935059537E+02 -0.74928266877E+03  0.77950668214E+03  0.17200000000E+03 0. -1.
         -6    1    1    2    0  502  0.12321964552E+03 -0.37935059537E+02 -0.40115318503E+03  0.45511540036E+03  0.17200000000E+03 0. -1.
</event>
<event>
 4    1 -0.6384999E-004  0.1988674E+03  0.7818608E-02  0.1150698E+00
         -5   -1    0    0    0  501 -0.00000000000E+00  0.00000000000E+00  0.78071481682E+02  0.78212826647E+02  0.47000000000E+01 0.  1.
          5   -1    0    0  501    0  0.00000000000E+00 -0.00000000000E+00 -0.85289245374E+03  0.85290540370E+03  0.47000000000E+01 0. -1.
          6    1    1    2  502    0 -0.29320696490E+02 -0.95417689946E+02 -0.68431272009E+03  0.71262341925E+03  0.17200000000E+03 0. -1.
         -6    1    1    2    0  502  0.29320696490E+02  0.95417689946E+02 -0.90508251977E+02  0.21849481109E+03  0.17200000000E+03 0.  1.
</event>
<event>
 4    1 -0.6384999E-004  0.1799276E+03  0.7818608E-02  0.1167873E+00
         -5   -1    0    0    0  501 -0.00000000000E+00  0.00000000000E+00  0.13703767723E+03  0.13711825181E+03  0.47000000000E+01 0.  1.
          5   -1    0    0  501    0  0.00000000000E+00 -0.00000000000E+00 -0.23678641057E+03  0.23683305139E+03  0.47000000000E+01 0. -1.
          6    1    1    2  502    0 -0.31595284065E+02  0.42328415047E+02 -0.60171419644E+02  0.18972231402E+03  0.17200000000E+03 0.  1.
         -6    1    1    2    0  502  0.31595284065E+02 -0.42328415047E+02 -0.39577313705E+02  0.18422898918E+03  0.17200000000E+03 0.  1.
</event>
<event>
 4    1 -0.6384999E-004  0.2711159E+03  0.7818608E-02  0.1100643E+00
          5   -1    0    0  501    0  0.00000000000E+00  0.00000000000E+00  0.31261365438E+03  0.31264898354E+03  0.47000000000E+01 0. -1.
         -5   -1    0    0    0  501 -0.00000000000E+00 -0.00000000000E+00 -0.61210196504E+03  0.61212000915E+03  0.47000000000E+01 0.  1.
          6    1    1    2  502    0 -0.17040176008E+03  0.12199616593E+03  0.21313770166E+03  0.34486447223E+03  0.17200000000E+03 0. -1.
         -6    1    1    2    0  502  0.17040176008E+03 -0.12199616593E+03 -0.51262601231E+03  0.57990452045E+03  0.17200000000E+03 0.  1.
</event>
<event>
 4    1 -0.6384999E-004  0.1725105E+03  0.7818608E-02  0.1175255E+00
          5   -1    0    0  501    0  0.00000000000E+00  0.00000000000E+00  0.12341135477E+03  0.12350081978E+03  0.47000000000E+01 0. -1.
         -5   -1    0    0    0  501 -0.00000000000E+00 -0.00000000000E+00 -0.46646731165E+03  0.46649098902E+03  0.47000000000E+01 0.  1.
          6    1    1    2  502    0  0.25767489248E+01 -0.13009251789E+02  0.33561443477E+02  0.17574484560E+03  0.17200000000E+03 0. -1.
         -6    1    1    2    0  502 -0.25767489248E+01  0.13009251789E+02 -0.37661740035E+03  0.41424696319E+03  0.17200000000E+03 0.  1.
</event>
<event>
 4    1 -0.6384999E-004  0.2519701E+03  0.7818608E-02  0.1112066E+00
         -5   -1    0    0    0  501 -0.00000000000E+00  0.00000000000E+00  0.28555992989E+03  0.28559860567E+03  0.47000000000E+01 0.  1.
          5   -1    0    0  501    0  0.00000000000E+00 -0.00000000000E+00 -0.28378982929E+03  0.28382874627E+03  0.47000000000E+01 0. -1.
          6    1    1    2  502    0  0.16738314570E+03 -0.76731975666E+02 -0.13167569132E+03  0.28430160260E+03  0.17200000000E+03 0. -1.
         -6    1    1    2    0  502 -0.16738314570E+03  0.76731975666E+02  0.13344579193E+03  0.28512574934E+03  0.17200000000E+03 0.  1.
</event>
<event>
 4    1 -0.6384999E-004  0.2026156E+03  0.7818608E-02  0.1147551E+00
         -5   -1    0    0    0  501 -0.00000000000E+00  0.00000000000E+00  0.88754305483E+02  0.88878663029E+02  0.47000000000E+01 0.  1.
          5   -1    0    0  501    0  0.00000000000E+00 -0.00000000000E+00 -0.48011401240E+03  0.48013701680E+03  0.47000000000E+01 0. -1.
          6    1    1    2  502    0  0.65252378022E+02 -0.84918791364E+02 -0.14055926854E+03  0.24659680034E+03  0.17200000000E+03 0.  1.
         -6    1    1    2    0  502 -0.65252378022E+02  0.84918791364E+02 -0.25080043838E+03  0.32241887949E+03  0.17200000000E+03 0.  1.
</event>
<event>
 4    1 -0.6384999E-004  0.1957548E+03  0.7818608E-02  0.1153371E+00
         -5   -1    0    0    0  501 -0.00000000000E+00  0.00000000000E+00  0.17733348413E+03  0.17739575698E+03  0.47000000000E+01 0.  1.
          5   -1    0    0  501    0  0.00000000000E+00 -0.00000000000E+00 -0.24134973132E+03  0.24139549045E+03  0.47000000000E+01 0. -1.
          6    1    1    2  502    0 -0.80796564701E+02  0.46987785470E+02  0.35887257697E+02  0.19901716538E+03  0.17200000000E+03 0.  1.
         -6    1    1    2    0  502  0.80796564701E+02 -0.46987785470E+02 -0.99903504890E+02  0.21977408205E+03  0.17200000000E+03 0. -1.
</event>
<event>
 4    1 -0.6384999E-004  0.1867789E+03  0.7818608E-02  0.1161399E+00
         -5   -1    0    0    0  501 -0.00000000000E+00  0.00000000000E+00  0.14249787723E+03  0.14257536609E+03  0.47000000000E+01 0.  1.
          5   -1    0    0  501    0  0.00000000000E+00 -0.00000000000E+00 -0.45965473627E+03  0.45967876455E+03  0.47000000000E+01 0. -1.
          6    1    1    2  502    0  0.73657013439E+01 -0.72443718212E+02 -0.36449981866E+03  0.40956863121E+03  0.17200000000E+03 0. -1.
         -6    1    1    2    0  502 -0.73657013439E+01  0.72443718212E+02  0.47342959619E+02  0.19268549943E+03  0.17200000000E+03 0.  1.
</event>
<event>
 4    1 -0.6384999E-004  0.3104976E+03  0.7818608E-02  0.1080108E+00
          5   -1    0    0  501    0  0.00000000000E+00  0.00000000000E+00  0.16854775839E+03  0.16861327604E+03  0.47000000000E+01 0. -1.
         -5   -1    0    0    0  501 -0.00000000000E+00 -0.00000000000E+00 -0.61336268791E+03  0.61338069494E+03  0.47000000000E+01 0.  1.
          6    1    1    2  502    0  0.11335836298E+03 -0.23232449567E+03 -0.12064639160E+03  0.33311310624E+03  0.17200000000E+03 0. -1.
         -6    1    1    2    0  502 -0.11335836298E+03  0.23232449567E+03 -0.32416853793E+03  0.44888086474E+03  0.17200000000E+03 0.  1.
</event>
<event>
 4    1 -0.6384999E-004  0.1876862E+03  0.7818608E-02  0.1160565E+00
          5   -1    0    0  501    0  0.00000000000E+00  0.00000000000E+00  0.26929850348E+03  0.26933951432E+03  0.47000000000E+01 0. -1.
         -5   -1    0    0    0  501 -0.00000000000E+00 -0.00000000000E+00 -0.13813865811E+03  0.13821859087E+03  0.47000000000E+01 0.  1.
          6    1    1    2  502    0 -0.56446342294E+02 -0.49557094583E+02  0.11280322314E+03  0.21897639675E+03  0.17200000000E+03 0.  1.
         -6    1    1    2    0  502  0.56446342294E+02  0.49557094583E+02  0.18356622233E+02  0.18858170845E+03  0.17200000000E+03 0.  1.
</event>
<event>
 4    1 -0.6384999E-004  0.1772306E+03  0.7818608E-02  0.1170510E+00
          5   -1    0    0  501    0  0.00000000000E+00  0.00000000000E+00  0.90762128632E+03  0.90763345541E+03  0.47000000000E+01 0. -1.
         -5   -1    0    0    0  501 -0.00000000000E+00 -0.00000000000E+00 -0.38078846945E+02  0.38367806618E+02  0.47000000000E+01 0.  1.
          6    1    1    2  502    0  0.41090379998E+02  0.11759361978E+02  0.28907019256E+03  0.33907562306E+03  0.17200000000E+03 0.  1.
         -6    1    1    2    0  502 -0.41090379998E+02 -0.11759361978E+02  0.58047224681E+03  0.60692563897E+03  0.17200000000E+03 0. -1.
</event>
<event>
 4    1 -0.6384999E-004  0.2250105E+03  0.7818608E-02  0.1130202E+00
          5   -1    0    0  501    0  0.00000000000E+00  0.00000000000E+00  0.32894983467E+03  0.32898340950E+03  0.47000000000E+01 0. -1.
         -5   -1    0    0    0  501 -0.00000000000E+00 -0.00000000000E+00 -0.16247703795E+03  0.16254500257E+03  0.47000000000E+01 0.  1.
          6    1    1    2  502    0  0.53144997333E+02  0.13498636719E+03  0.26577085941E+02  0.22657460485E+03  0.17200000000E+03 0. -1.
         -6    1    1    2    0  502 -0.53144997333E+02 -0.13498636719E+03  0.13989571077E+03  0.26495380722E+03  0.17200000000E+03 0. -1.
</event>
<event>
 4    1 -0.6384999E-004  0.1961431E+03  0.7818608E-02  0.1153034E+00
         -5   -1    0    0    0  501 -0.00000000000E+00  0.00000000000E+00  0.48958986287E+02  0.49184065898E+02  0.47000000000E+01 0.  1.
          5   -1    0    0  501    0  0.00000000000E+00 -0.00000000000E+00 -0.95325016110E+03  0.95326174770E+03  0.47000000000E+01 0. -1.
          6    1    1    2  502    0 -0.94276801941E+02 -0.12624476650E+00 -0.24082879232E+03  0.31059722879E+03  0.17200000000E+03 0.  1.
         -6    1    1    2    0  502  0.94276801941E+02  0.12624476650E+00 -0.66346238249E+03  0.69184858481E+03  0.17200000000E+03 0. -1.
</event>
<event>
 4    1 -0.6384999E-004  0.2239215E+03  0.7818608E-02  0.1130993E+00
          5   -1    0    0  501    0  0.00000000000E+00  0.00000000000E+00  0.74040626384E+02  0.74189651268E+02  0.47000000000E+01 0. -1.
         -5   -1    0    0    0  501 -0.00000000000E+00 -0.00000000000E+00 -0.10218879241E+04  0.10218987325E+04  0.47000000000E+01 0.  1.
          6    1    1    2  502    0  0.10770887560E+03  0.94634238659E+02 -0.15527267720E+03  0.27248934895E+03  0.17200000000E+03 0. -1.
         -6    1    1    2    0  502 -0.10770887560E+03 -0.94634238659E+02 -0.79257462054E+03  0.82359903481E+03  0.17200000000E+03 0.  1.
</event>
<event>
 4    1 -0.6384999E-004  0.2285583E+03  0.7818608E-02  0.1127659E+00
          5   -1    0    0  501    0  0.00000000000E+00  0.00000000000E+00  0.16803870190E+03  0.16810441796E+03  0.47000000000E+01 0. -1.
         -5   -1    0    0    0  501 -0.00000000000E+00 -0.00000000000E+00 -0.33298382545E+03  0.33301699358E+03  0.47000000000E+01 0.  1.
          6    1    1    2  502    0 -0.13469103338E+03 -0.67180628374E+02 -0.17707869953E+02  0.22924327680E+03  0.17200000000E+03 0. -1.
         -6    1    1    2    0  502  0.13469103338E+03  0.67180628374E+02 -0.14723725360E+03  0.27187813474E+03  0.17200000000E+03 0.  1.
</event>
<event>
 4    1 -0.6384999E-004  0.1867388E+03  0.7818608E-02  0.1161436E+00
          5   -1    0    0  501    0  0.00000000000E+00  0.00000000000E+00  0.17754825062E+04  0.17754887270E+04  0.47000000000E+01 0. -1.
         -5   -1    0    0    0  501 -0.00000000000E+00 -0.00000000000E+00 -0.19965847605E+02  0.20511583815E+02  0.47000000000E+01 0.  1.
          6    1    1    2  502    0 -0.44803441482E+02  0.57271415582E+02  0.10329277854E+04  0.10496719360E+04  0.17200000000E+03 0.  1.
         -6    1    1    2    0  502  0.44803441482E+02 -0.57271415582E+02  0.72258887320E+03  0.74632837483E+03  0.17200000000E+03 0.  1.
</event>
<event>
 4    1 -0.6384999E-004  0.2897478E+03  0.7818608E-02  0.1090481E+00
         -5   -1    0    0    0  501 -0.00000000000E+00  0.00000000000E+00  0.21812094105E+03  0.21817157222E+03  0.47000000000E+01 0.  1.
          5   -1    0    0  501    0  0.00000000000E+00 -0.00000000000E+00 -0.38481989040E+03  0.38484859107E+03  0.47000000000E+01 0. -1.
          6    1    1    2  502    0  0.21897086266E+03  0.80134520014E+02 -0.80516119847E+02  0.30072682878E+03  0.17200000000E+03 0.  1.
         -6    1    1    2    0  502 -0.21897086266E+03 -0.80134520014E+02 -0.86182829502E+02  0.30229333452E+03  0.17200000000E+03 0.  1.
</event>
<event>
 4    1 -0.6384999E-004  0.1821002E+03  0.7818608E-02  0.1165786E+00
          5   -1    0    0  501    0  0.00000000000E+00  0.00000000000E+00  0.16253665777E+04  0.16253733731E+04  0.47000000000E+01 0. -1.
         -5   -1    0    0    0  501 -0.00000000000E+00 -0.00000000000E+00 -0.28135589491E+02  0.28525451723E+02  0.47000000000E+01 0.  1.
          6    1    1    2  502    0  0.58072546961E+02 -0.14284625231E+02  0.36100551953E+03  0.40433334807E+03  0.17200000000E+03 0.  1.
         -6    1    1    2    0  502 -0.58072546961E+02  0.14284625231E+02  0.12362254687E+04  0.12495654768E+04  0.17200000000E+03 0. -1.
</event>
<event>
 4    1 -0.6384999E-004  0.1743411E+03  0.7818608E-02  0.1173395E+00
          5   -1    0    0  501    0  0.00000000000E+00  0.00000000000E+00  0.26980130374E+03  0.26984223817E+03  0.47000000000E+01 0. -1.
         -5   -1    0    0    0  501 -0.00000000000E+00 -0.00000000000E+00 -0.12516404208E+03  0.12525225519E+03  0.47000000000E+01 0.  1.
          6    1    1    2  502    0 -0.26163210110E+02  0.11238421677E+02  0.13497886049E+03  0.22048607318E+03  0.17200000000E+03 0. -1.
         -6    1    1    2    0  502  0.26163210110E+02 -0.11238421677E+02  0.96584011629E+01  0.17460842018E+03  0.17200000000E+03 0.  1.
</event>
<event>
 4    1 -0.6384999E-004  0.2415703E+03  0.7818608E-02  0.1118751E+00
          5   -1    0    0  501    0  0.00000000000E+00  0.00000000000E+00  0.17093763685E+04  0.17093828299E+04  0.47000000000E+01 0. -1.
         -5   -1    0    0    0  501 -0.00000000000E+00 -0.00000000000E+00 -0.44608532050E+02  0.44855447068E+02  0.47000000000E+01 0.  1.
          6    1    1    2  502    0 -0.13268130566E+03  0.10567820404E+03  0.40544732380E+03  0.47195735406E+03  0.17200000000E+03 0. -1.
         -6    1    1    2    0  502  0.13268130566E+03 -0.10567820404E+03  0.12593205127E+04  0.12822809229E+04  0.17200000000E+03 0.  1.
</event>
<event>
 4    1 -0.6384999E-004  0.1862111E+03  0.7818608E-02  0.1161924E+00
          5   -1    0    0  501    0  0.00000000000E+00  0.00000000000E+00  0.10858042626E+03  0.10868210049E+03  0.47000000000E+01 0. -1.
         -5   -1    0    0    0  501 -0.00000000000E+00 -0.00000000000E+00 -0.36128342200E+03  0.36131399227E+03  0.47000000000E+01 0.  1.
          6    1    1    2  502    0 -0.66338094621E+02  0.26264833975E+02 -0.46044653545E+02  0.19181943181E+03  0.17200000000E+03 0. -1.
         -6    1    1    2    0  502  0.66338094621E+02 -0.26264833975E+02 -0.20665834219E+03  0.27817666095E+03  0.17200000000E+03 0.  1.
</event>
<event>
 4    1 -0.6384999E-004  0.2232332E+03  0.7818608E-02  0.1131495E+00
         -5   -1    0    0    0  501 -0.00000000000E+00  0.00000000000E+00  0.69090822801E+02  0.69250500325E+02  0.47000000000E+01 0.  1.
          5   -1    0    0  501    0  0.00000000000E+00 -0.00000000000E+00 -0.73321375472E+03  0.73322881839E+03  0.47000000000E+01 0. -1.
          6    1    1    2  502    0 -0.12091487383E+03  0.75024364104E+02 -0.38536831482E+03  0.44535581280E+03  0.17200000000E+03 0. -1.
         -6    1    1    2    0  502  0.12091487383E+03 -0.75024364104E+02 -0.27875461710E+03  0.35712350592E+03  0.17200000000E+03 0.  1.
</event>
<event>
 4    1 -0.6384999E-004  0.2103352E+03  0.7818608E-02  0.1141301E+00
         -5   -1    0    0    0  501 -0.00000000000E+00  0.00000000000E+00  0.22912909116E+02  0.23389985125E+02  0.47000000000E+01 0.  1.
          5   -1    0    0  501    0  0.00000000000E+00 -0.00000000000E+00 -0.20646115629E+04  0.20646169125E+04  0.47000000000E+01 0. -1.
          6    1    1    2  502    0  0.36463900518E+02  0.11544378144E+03 -0.13060921292E+04  0.13229200779E+04  0.17200000000E+03 0. -1.
         -6    1    1    2    0  502 -0.36463900518E+02 -0.11544378144E+03 -0.73560652455E+03  0.76508681970E+03  0.17200000000E+03 0.  1.
</event>
<event>
 4    1 -0.6384999E-004  0.2733389E+03  0.7818608E-02  0.1099384E+00
         -5   -1    0    0    0  501 -0.00000000000E+00  0.00000000000E+00  0.66665728540E+02  0.66831200511E+02  0.47000000000E+01 0.  1.
          5   -1    0    0  501    0  0.00000000000E+00 -0.00000000000E+00 -0.11354103119E+04  0.11354200396E+04  0.47000000000E+01 0. -1.
          6    1    1    2  502    0  0.14451844525E+03  0.15570663436E+03 -0.60626351648E+03  0.66503352428E+03  0.17200000000E+03 0. -1.
         -6    1    1    2    0  502 -0.14451844525E+03 -0.15570663436E+03 -0.46248106689E+03  0.53721771586E+03  0.17200000000E+03 0.  1.
</event>
<event>
 4    1 -0.6384999E-004  0.2078535E+03  0.7818608E-02  0.1143277E+00
          5   -1    0    0  501    0  0.00000000000E+00  0.00000000000E+00  0.48538973534E+03  0.48541248972E+03  0.47000000000E+01 0. -1.
         -5   -1    0    0    0  501 -0.00000000000E+00 -0.00000000000E+00 -0.90273604566E+02  0.90395872037E+02  0.47000000000E+01 0.  1.
          6    1    1    2  502    0 -0.22994210500E+02  0.11441312045E+03  0.23278246131E+03  0.31207494315E+03  0.17200000000E+03 0. -1.
         -6    1    1    2    0  502  0.22994210500E+02 -0.11441312045E+03  0.16233366946E+03  0.26373341860E+03  0.17200000000E+03 0.  1.
</event>
<event>
 4    1 -0.6384999E-004  0.1762935E+03  0.7818608E-02  0.1171439E+00
          5   -1    0    0  501    0  0.00000000000E+00  0.00000000000E+00  0.48289176125E+03  0.48291463333E+03  0.47000000000E+01 0. -1.
         -5   -1    0    0    0  501 -0.00000000000E+00 -0.00000000000E+00 -0.65056890819E+02  0.65226444354E+02  0.47000000000E+01 0.  1.
          6    1    1    2  502    0 -0.10651509545E+02 -0.37174695133E+02  0.23937978966E+03  0.29729126511E+03  0.17200000000E+03 0. -1.
         -6    1    1    2    0  502  0.10651509545E+02  0.37174695133E+02  0.17845508077E+03  0.25084981257E+03  0.17200000000E+03 0.  1.
</event>
<event>
 4    1 -0.6384999E-004  0.2377082E+03  0.7818608E-02  0.1121329E+00
         -5   -1    0    0    0  501 -0.00000000000E+00  0.00000000000E+00  0.48661030483E+03  0.48663300213E+03  0.47000000000E+01 0.  1.
          5   -1    0    0  501    0  0.00000000000E+00 -0.00000000000E+00 -0.16769696731E+03  0.16776281723E+03  0.47000000000E+01 0. -1.
          6    1    1    2  502    0 -0.16342070192E+03 -0.14657643865E+02  0.34098707900E+03  0.41566496170E+03  0.17200000000E+03 0.  1.
         -6    1    1    2    0  502  0.16342070192E+03  0.14657643865E+02 -0.22073741481E+02  0.23873085767E+03  0.17200000000E+03 0. -1.
</event>
<event>
 4    1 -0.6384999E-004  0.1890153E+03  0.7818608E-02  0.1159352E+00
         -5   -1    0    0    0  501 -0.00000000000E+00  0.00000000000E+00  0.73174578862E+03  0.73176088250E+03  0.47000000000E+01 0.  1.
          5   -1    0    0  501    0  0.00000000000E+00 -0.00000000000E+00 -0.54852007692E+02  0.55052999445E+02  0.47000000000E+01 0. -1.
          6    1    1    2  502    0 -0.78027972486E+02  0.73778795431E+01  0.20691960542E+03  0.28025438570E+03  0.17200000000E+03 0. -1.
         -6    1    1    2    0  502  0.78027972486E+02 -0.73778795431E+01  0.46997417550E+03  0.50655949624E+03  0.17200000000E+03 0.  1.
</event>
<event>
 4    1 -0.6384999E-004  0.2062682E+03  0.7818608E-02  0.1144556E+00
          5   -1    0    0  501    0  0.00000000000E+00  0.00000000000E+00  0.50058327164E+02  0.50278485642E+02  0.47000000000E+01 0. -1.
         -5   -1    0    0    0  501 -0.00000000000E+00 -0.00000000000E+00 -0.89147192939E+03  0.89148431893E+03  0.47000000000E+01 0.  1.
          6    1    1    2  502    0  0.63896377727E+02 -0.94232888944E+02 -0.31655650703E+03  0.37782880593E+03  0.17200000000E+03 0. -1.
         -6    1    1    2    0  502 -0.63896377727E+02  0.94232888944E+02 -0.52485709520E+03  0.56393399864E+03  0.17200000000E+03 0. -1.
</event>
<event>
 4    1 -0.6384999E-004  0.3418752E+03  0.7818608E-02  0.1066000E+00
         -5   -1    0    0    0  501 -0.00000000000E+00  0.00000000000E+00  0.82488716839E+02  0.82622505444E+02  0.47000000000E+01 0.  1.
          5   -1    0    0  501    0  0.00000000000E+00 -0.00000000000E+00 -0.14583481052E+04  0.14583556788E+04  0.47000000000E+01 0. -1.
          6    1    1    2  502    0 -0.11654411105E+03  0.27149971503E+03 -0.55604973142E+03  0.65274032271E+03  0.17200000000E+03 0. -1.
         -6    1    1    2    0  502  0.11654411105E+03 -0.27149971503E+03 -0.81980965696E+03  0.88823786157E+03  0.17200000000E+03 0.  1.
</event>
<event>
 4    1 -0.6384999E-004  0.1881941E+03  0.7818608E-02  0.1160100E+00
         -5   -1    0    0    0  501 -0.00000000000E+00  0.00000000000E+00  0.25990725647E+03  0.25994974893E+03  0.47000000000E+01 0.  1.
          5   -1    0    0  501    0  0.00000000000E+00 -0.00000000000E+00 -0.14768342151E+03  0.14775819094E+03  0.47000000000E+01 0. -1.
          6    1    1    2  502    0  0.36223438557E+02  0.67237517048E+02  0.11299824309E+03  0.21951224144E+03  0.17200000000E+03 0.  1.
         -6    1    1    2    0  502 -0.36223438557E+02 -0.67237517048E+02 -0.77440812920E+00  0.18819569843E+03  0.17200000000E+03 0. -1.
</event>
<event>
 4    1 -0.6384999E-004  0.2045819E+03  0.7818608E-02  0.1145930E+00
          5   -1    0    0  501    0  0.00000000000E+00  0.00000000000E+00  0.86276930825E+03  0.86278210996E+03  0.47000000000E+01 0. -1.
         -5   -1    0    0    0  501 -0.00000000000E+00 -0.00000000000E+00 -0.93252810558E+02  0.93371176907E+02  0.47000000000E+01 0.  1.
          6    1    1    2  502    0  0.88078866272E+02  0.67170377389E+02  0.71604717903E+03  0.74469947555E+03  0.17200000000E+03 0. -1.
         -6    1    1    2    0  502 -0.88078866272E+02 -0.67170377389E+02  0.53469318664E+02  0.21145381132E+03  0.17200000000E+03 0.  1.
</event>
<event>
 4    1 -0.6384999E-004  0.7531610E+03  0.7818608E-02  0.9630404E-01
          5   -1    0    0  501    0  0.00000000000E+00  0.00000000000E+00  0.18372854497E+04  0.18372914613E+04  0.47000000000E+01 0. -1.
         -5   -1    0    0    0  501 -0.00000000000E+00 -0.00000000000E+00 -0.41036844502E+03  0.41039535897E+03  0.47000000000E+01 0.  1.
          6    1    1    2  502    0  0.47615315181E+03 -0.55762498080E+03  0.12727646736E+04  0.14789122211E+04  0.17200000000E+03 0. -1.
         -6    1    1    2    0  502 -0.47615315181E+03  0.55762498080E+03  0.15415233106E+03  0.76877459919E+03  0.17200000000E+03 0.  1.
</event>
<event>
 4    1 -0.6384999E-004  0.2532470E+03  0.7818608E-02  0.1111270E+00
          5   -1    0    0  501    0  0.00000000000E+00  0.00000000000E+00  0.10965548699E+04  0.10965649423E+04  0.47000000000E+01 0. -1.
         -5   -1    0    0    0  501 -0.00000000000E+00 -0.00000000000E+00 -0.62198719952E+02  0.62376043187E+02  0.47000000000E+01 0.  1.
          6    1    1    2  502    0  0.18587213663E+03  0.12561273128E+01  0.66049879911E+03  0.70738440233E+03  0.17200000000E+03 0. -1.
         -6    1    1    2    0  502 -0.18587213663E+03 -0.12561273128E+01  0.37385735087E+03  0.45155658320E+03  0.17200000000E+03 0.  1.
</event>
<event>
 4    1 -0.6384999E-004  0.3394684E+03  0.7818608E-02  0.1067023E+00
         -5   -1    0    0    0  501 -0.00000000000E+00  0.00000000000E+00  0.57645673927E+03  0.57647589911E+03  0.47000000000E+01 0.  1.
          5   -1    0    0  501    0  0.00000000000E+00 -0.00000000000E+00 -0.39044731920E+03  0.39047560625E+03  0.47000000000E+01 0. -1.
          6    1    1    2  502    0  0.28614935241E+03  0.61427621869E+02 -0.24475514174E+03  0.41850195223E+03  0.17200000000E+03 0. -1.
         -6    1    1    2    0  502 -0.28614935241E+03 -0.61427621869E+02  0.43076456181E+03  0.54844955313E+03  0.17200000000E+03 0.  1.
</event>
<event>
 4    1 -0.6384999E-004  0.3916920E+03  0.7818608E-02  0.1046695E+00
         -5   -1    0    0    0  501 -0.00000000000E+00  0.00000000000E+00  0.31899123923E+03  0.31902586213E+03  0.47000000000E+01 0.  1.
          5   -1    0    0  501    0  0.00000000000E+00 -0.00000000000E+00 -0.55358986789E+03  0.55360981913E+03  0.47000000000E+01 0. -1.
          6    1    1    2  502    0  0.83759995014E+02  0.34179358454E+03 -0.27540774284E+03  0.47882357504E+03  0.17200000000E+03 0. -1.
         -6    1    1    2    0  502 -0.83759995014E+02 -0.34179358454E+03  0.40809114179E+02  0.39381210621E+03  0.17200000000E+03 0.  1.
</event>
<event>
 4    1 -0.6384999E-004  0.2190829E+03  0.7818608E-02  0.1134569E+00
          5   -1    0    0  501    0  0.00000000000E+00  0.00000000000E+00  0.45310525183E+03  0.45312962741E+03  0.47000000000E+01 0. -1.
         -5   -1    0    0    0  501 -0.00000000000E+00 -0.00000000000E+00 -0.31823282132E+03  0.31826752672E+03  0.47000000000E+01 0.  1.
          6    1    1    2  502    0  0.67375436701E+02  0.11778735722E+03  0.38247994698E+03  0.44078137532E+03  0.17200000000E+03 0. -1.
         -6    1    1    2    0  502 -0.67375436701E+02 -0.11778735722E+03 -0.24760751646E+03  0.33061577881E+03  0.17200000000E+03 0.  1.
</event>
<event>
 4    1 -0.6384999E-004  0.5686166E+03  0.7818608E-02  0.9972745E-01
         -5   -1    0    0    0  501 -0.00000000000E+00  0.00000000000E+00  0.85714929025E+03  0.85716217589E+03  0.47000000000E+01 0.  1.
          5   -1    0    0  501    0  0.00000000000E+00 -0.00000000000E+00 -0.38323270390E+03  0.38326152343E+03  0.47000000000E+01 0. -1.
          6    1    1    2  502    0 -0.97766684360E+02 -0.53308773367E+03  0.15901287206E+03  0.59043200273E+03  0.17200000000E+03 0. -1.
         -6    1    1    2    0  502  0.97766684360E+02  0.53308773367E+03  0.31490371429E+03  0.64999169659E+03  0.17200000000E+03 0.  1.
</event>
<event>
 4    1 -0.6384999E-004  0.1735299E+03  0.7818608E-02  0.1174216E+00
         -5   -1    0    0    0  501 -0.00000000000E+00  0.00000000000E+00  0.31393279271E+03  0.31396797343E+03  0.47000000000E+01 0.  1.
          5   -1    0    0  501    0  0.00000000000E+00 -0.00000000000E+00 -0.10680485976E+03  0.10690822264E+03  0.47000000000E+01 0. -1.
          6    1    1    2  502    0  0.16145244810E+02 -0.16369278533E+02  0.17099879013E+03  0.24362513917E+03  0.17200000000E+03 0. -1.
         -6    1    1    2    0  502 -0.16145244810E+02  0.16369278533E+02  0.36129142817E+02  0.17725105689E+03  0.17200000000E+03 0. -1.
</event>
<event>
 4    1 -0.6384999E-004  0.2483530E+03  0.7818608E-02  0.1114350E+00
         -5   -1    0    0    0  501 -0.00000000000E+00  0.00000000000E+00  0.44853505262E+03  0.44855967655E+03  0.47000000000E+01 0.  1.
          5   -1    0    0  501    0  0.00000000000E+00 -0.00000000000E+00 -0.17161296586E+03  0.17167731374E+03  0.47000000000E+01 0. -1.
          6    1    1    2  502    0  0.12744756514E+03 -0.12590594415E+03  0.12156765950E+00  0.24835298148E+03  0.17200000000E+03 0. -1.
         -6    1    1    2    0  502 -0.12744756514E+03  0.12590594415E+03  0.27680051910E+03  0.37188400881E+03  0.17200000000E+03 0. -1.
</event>
<event>
 4    1 -0.6384999E-004  0.4886182E+03  0.7818608E-02  0.1016793E+00
          5   -1    0    0  501    0  0.00000000000E+00  0.00000000000E+00  0.36687498903E+03  0.36690509342E+03  0.47000000000E+01 0. -1.
         -5   -1    0    0    0  501 -0.00000000000E+00 -0.00000000000E+00 -0.65076246119E+03  0.65077943337E+03  0.47000000000E+01 0.  1.
          6    1    1    2  502    0 -0.45429914689E+03  0.52688379753E+02 -0.14711327482E+03  0.51028432844E+03  0.17200000000E+03 0. -1.
         -6    1    1    2    0  502  0.45429914689E+03 -0.52688379753E+02 -0.13677419734E+03  0.50740019835E+03  0.17200000000E+03 0.  1.
</event>
<event>
 4    1 -0.6384999E-004  0.1731269E+03  0.7818608E-02  0.1174626E+00
          5   -1    0    0  501    0  0.00000000000E+00  0.00000000000E+00  0.12393846166E+03  0.12402754645E+03  0.47000000000E+01 0. -1.
         -5   -1    0    0    0  501 -0.00000000000E+00 -0.00000000000E+00 -0.24178527010E+03  0.24183094681E+03  0.47000000000E+01 0.  1.
          6    1    1    2  502    0 -0.10988511038E+02  0.16376035662E+02 -0.54414631793E+02  0.18147692435E+03  0.17200000000E+03 0.  1.
         -6    1    1    2    0  502  0.10988511038E+02 -0.16376035662E+02 -0.63432176645E+02  0.18438156891E+03  0.17200000000E+03 0.  1.
</event>
<event>
 4    1 -0.6384999E-004  0.3351846E+03  0.7818608E-02  0.1068866E+00
         -5   -1    0    0    0  501 -0.00000000000E+00  0.00000000000E+00  0.17033785054E+04  0.17033849896E+04  0.47000000000E+01 0.  1.
          5   -1    0    0  501    0  0.00000000000E+00 -0.00000000000E+00 -0.11290568355E+03  0.11300346622E+03  0.47000000000E+01 0. -1.
          6    1    1    2  502    0 -0.26897806749E+03  0.10205642449E+03  0.20938781704E+03  0.39521130107E+03  0.17200000000E+03 0. -1.
         -6    1    1    2    0  502  0.26897806749E+03 -0.10205642449E+03  0.13810850048E+04  0.14211771547E+04  0.17200000000E+03 0.  1.
</event>
<event>
 4    1 -0.6384999E-004  0.2091322E+03  0.7818608E-02  0.1142255E+00
          5   -1    0    0  501    0  0.00000000000E+00  0.00000000000E+00  0.36153333739E+02  0.36457558071E+02  0.47000000000E+01 0. -1.
         -5   -1    0    0    0  501 -0.00000000000E+00 -0.00000000000E+00 -0.14311913252E+04  0.14311990425E+04  0.47000000000E+01 0.  1.
          6    1    1    2  502    0  0.77638125538E+02  0.90136617657E+02 -0.40541122643E+03  0.45617381654E+03  0.17200000000E+03 0. -1.
         -6    1    1    2    0  502 -0.77638125538E+02 -0.90136617657E+02 -0.98962676498E+03  0.10114827840E+04  0.17200000000E+03 0.  1.
</event>
<event>
 4    1 -0.6384999E-004  0.3496126E+03  0.7818608E-02  0.1062774E+00
          5   -1    0    0  501    0  0.00000000000E+00  0.00000000000E+00  0.23658219437E+03  0.23662887544E+03  0.47000000000E+01 0. -1.
         -5   -1    0    0    0  501 -0.00000000000E+00 -0.00000000000E+00 -0.66266623561E+03  0.66268290291E+03  0.47000000000E+01 0.  1.
          6    1    1    2  502    0 -0.11397794967E+03  0.28223034525E+03 -0.18970143271E+01  0.34961770472E+03  0.17200000000E+03 0. -1.
         -6    1    1    2    0  502  0.11397794967E+03 -0.28223034525E+03 -0.42418702691E+03  0.54969407364E+03  0.17200000000E+03 0.  1.
</event>
<event>
 4    1 -0.6384999E-004  0.1751583E+03  0.7818608E-02  0.1172573E+00
         -5   -1    0    0    0  501 -0.00000000000E+00  0.00000000000E+00  0.13233930093E+04  0.13234013552E+04  0.47000000000E+01 0.  1.
          5   -1    0    0  501    0  0.00000000000E+00 -0.00000000000E+00 -0.30775397659E+02  0.31132219662E+02  0.47000000000E+01 0. -1.
          6    1    1    2  502    0 -0.10739606148E+02 -0.31322529476E+02  0.30683379753E+03  0.35330924033E+03  0.17200000000E+03 0. -1.
         -6    1    1    2    0  502  0.10739606148E+02  0.31322529476E+02  0.98578381408E+03  0.10012243346E+04  0.17200000000E+03 0.  1.
</event>
<event>
 4    1 -0.6384999E-004  0.3524630E+03  0.7818608E-02  0.1061609E+00
         -5   -1    0    0    0  501 -0.00000000000E+00  0.00000000000E+00  0.46353943984E+03  0.46356326676E+03  0.47000000000E+01 0.  1.
          5   -1    0    0  501    0  0.00000000000E+00 -0.00000000000E+00 -0.41902827695E+03  0.41905463472E+03  0.47000000000E+01 0. -1.
          6    1    1    2  502    0 -0.28576227029E+03  0.11395666599E+03 -0.24270976849E+03  0.42794652536E+03  0.17200000000E+03 0. -1.
         -6    1    1    2    0  502  0.28576227029E+03 -0.11395666599E+03  0.28722093138E+03  0.45467137613E+03  0.17200000000E+03 0.  1.
</event>
<event>
 4    1 -0.6384999E-004  0.1849113E+03  0.7818608E-02  0.1163133E+00
         -5   -1    0    0    0  501 -0.00000000000E+00  0.00000000000E+00  0.33263274265E+03  0.33266594578E+03  0.47000000000E+01 0.  1.
          5   -1    0    0  501    0  0.00000000000E+00 -0.00000000000E+00 -0.10683444925E+03  0.10693778353E+03  0.47000000000E+01 0. -1.
          6    1    1    2  502    0 -0.66560975176E+02  0.13335105896E+02  0.69690065679E+02  0.19760792929E+03  0.17200000000E+03 0. -1.
         -6    1    1    2    0  502  0.66560975176E+02 -0.13335105896E+02  0.15610822772E+03  0.24199580002E+03  0.17200000000E+03 0.  1.
</event>
<event>
 4    1 -0.6384999E-004  0.1767240E+03  0.7818608E-02  0.1171012E+00
          5   -1    0    0  501    0  0.00000000000E+00  0.00000000000E+00  0.98778361420E+03  0.98779479573E+03  0.47000000000E+01 0. -1.
         -5   -1    0    0    0  501 -0.00000000000E+00 -0.00000000000E+00 -0.31440863825E+02  0.31790217332E+02  0.47000000000E+01 0.  1.
          6    1    1    2  502    0  0.98555733285E+01  0.39373206291E+02  0.48689785224E+03  0.51797770243E+03  0.17200000000E+03 0.  1.
         -6    1    1    2    0  502 -0.98555733285E+01 -0.39373206291E+02  0.46944489813E+03  0.50160731063E+03  0.17200000000E+03 0.  1.
</event>
<event>
 4    1 -0.6384999E-004  0.2901442E+03  0.7818608E-02  0.1090274E+00
          5   -1    0    0  501    0  0.00000000000E+00  0.00000000000E+00  0.24170990026E+03  0.24175559121E+03  0.47000000000E+01 0. -1.
         -5   -1    0    0    0  501 -0.00000000000E+00 -0.00000000000E+00 -0.36557497920E+03  0.36560519063E+03  0.47000000000E+01 0.  1.
          6    1    1    2  502    0 -0.15954050563E+03  0.17072346384E+03  0.42855714339E+01  0.29017587799E+03  0.17200000000E+03 0. -1.
         -6    1    1    2    0  502  0.15954050563E+03 -0.17072346384E+03 -0.12815065037E+03  0.31718490386E+03  0.17200000000E+03 0.  1.
</event>
<event>
 4    1 -0.6384999E-004  0.1753888E+03  0.7818608E-02  0.1172342E+00
         -5   -1    0    0    0  501 -0.00000000000E+00  0.00000000000E+00  0.12496641233E+03  0.12505476485E+03  0.47000000000E+01 0.  1.
          5   -1    0    0  501    0  0.00000000000E+00 -0.00000000000E+00 -0.43063439884E+03  0.43066004628E+03  0.47000000000E+01 0. -1.
          6    1    1    2  502    0 -0.29493854857E+02 -0.17530722908E+02 -0.33476675557E+03  0.37792855721E+03  0.17200000000E+03 0. -1.
         -6    1    1    2    0  502  0.29493854857E+02  0.17530722908E+02  0.29098769062E+02  0.17778625391E+03  0.17200000000E+03 0.  1.
</event>
<event>
 4    1 -0.6384999E-004  0.4336683E+03  0.7818608E-02  0.1032707E+00
         -5   -1    0    0    0  501 -0.00000000000E+00  0.00000000000E+00  0.46385508659E+03  0.46387889730E+03  0.47000000000E+01 0.  1.
          5   -1    0    0  501    0  0.00000000000E+00 -0.00000000000E+00 -0.72117554389E+03  0.72119085900E+03  0.47000000000E+01 0. -1.
          6    1    1    2  502    0  0.74895010305E+02  0.39099228990E+03 -0.52073625915E+03  0.67766841812E+03  0.17200000000E+03 0. -1.
         -6    1    1    2    0  502 -0.74895010305E+02 -0.39099228990E+03  0.26341580185E+03  0.50740133818E+03  0.17200000000E+03 0.  1.
</event>
<event>
 4    1 -0.6384999E-004  0.1771024E+03  0.7818608E-02  0.1170637E+00
         -5   -1    0    0    0  501 -0.00000000000E+00  0.00000000000E+00  0.11164290106E+03  0.11174178877E+03  0.47000000000E+01 0.  1.
          5   -1    0    0  501    0  0.00000000000E+00 -0.00000000000E+00 -0.28092446610E+03  0.28096377996E+03  0.47000000000E+01 0. -1.
          6    1    1    2  502    0 -0.22889927573E+02 -0.35458454205E+02 -0.79088102186E+02  0.19395921908E+03  0.17200000000E+03 0. -1.
         -6    1    1    2    0  502  0.22889927573E+02  0.35458454205E+02 -0.90193462851E+02  0.19874634965E+03  0.17200000000E+03 0. -1.
</event>
<event>
 4    1 -0.6384999E-004  0.1839588E+03  0.7818608E-02  0.1164026E+00
         -5   -1    0    0    0  501 -0.00000000000E+00  0.00000000000E+00  0.69488584622E+02  0.69647350221E+02  0.47000000000E+01 0.  1.
          5   -1    0    0  501    0  0.00000000000E+00 -0.00000000000E+00 -0.51151312552E+03  0.51153471787E+03  0.47000000000E+01 0. -1.
          6    1    1    2  502    0 -0.44201843407E+02 -0.47989963178E+02 -0.28555173023E+03  0.33967724411E+03  0.17200000000E+03 0. -1.
         -6    1    1    2    0  502  0.44201843407E+02  0.47989963178E+02 -0.15647281067E+03  0.24150482398E+03  0.17200000000E+03 0.  1.
</event>
<event>
 4    1 -0.6384999E-004  0.2069149E+03  0.7818608E-02  0.1144033E+00
         -5   -1    0    0    0  501 -0.00000000000E+00  0.00000000000E+00  0.48257760466E+02  0.48486095380E+02  0.47000000000E+01 0.  1.
          5   -1    0    0  501    0  0.00000000000E+00 -0.00000000000E+00 -0.89053899152E+03  0.89055139404E+03  0.47000000000E+01 0. -1.
          6    1    1    2  502    0 -0.73295284342E+02  0.88642932544E+02 -0.45862708592E+03  0.50314269560E+03  0.17200000000E+03 0.  1.
         -6    1    1    2    0  502  0.73295284342E+02 -0.88642932544E+02 -0.38365414514E+03  0.43589479382E+03  0.17200000000E+03 0.  1.
</event>
<event>
 4    1 -0.6384999E-004  0.2655476E+03  0.7818608E-02  0.1103855E+00
         -5   -1    0    0    0  501 -0.00000000000E+00  0.00000000000E+00  0.47455364857E+03  0.47457692251E+03  0.47000000000E+01 0.  1.
          5   -1    0    0  501    0  0.00000000000E+00 -0.00000000000E+00 -0.15277182088E+03  0.15284410115E+03  0.47000000000E+01 0. -1.
          6    1    1    2  502    0  0.56829488892E+02  0.19416988768E+03  0.10862938234E+03  0.28690743942E+03  0.17200000000E+03 0. -1.
         -6    1    1    2    0  502 -0.56829488892E+02 -0.19416988768E+03  0.21315244535E+03  0.34051358423E+03  0.17200000000E+03 0.  1.
</event>
<event>
 4    1 -0.6384999E-004  0.3779903E+03  0.7818608E-02  0.1051679E+00
          5   -1    0    0  501    0  0.00000000000E+00  0.00000000000E+00  0.66049269829E+03  0.66050942044E+03  0.47000000000E+01 0. -1.
         -5   -1    0    0    0  501 -0.00000000000E+00 -0.00000000000E+00 -0.28617618651E+03  0.28621477902E+03  0.47000000000E+01 0.  1.
          6    1    1    2  502    0 -0.33315096674E+03  0.47990881311E+02  0.42108367156E+03  0.56585170299E+03  0.17200000000E+03 0. -1.
         -6    1    1    2    0  502  0.33315096674E+03 -0.47990881311E+02 -0.46767159786E+02  0.38087249646E+03  0.17200000000E+03 0.  1.
</event>
<event>
 4    1 -0.6384999E-004  0.2885760E+03  0.7818608E-02  0.1091095E+00
          5   -1    0    0  501    0  0.00000000000E+00  0.00000000000E+00  0.21634729622E+03  0.21639834237E+03  0.47000000000E+01 0. -1.
         -5   -1    0    0    0  501 -0.00000000000E+00 -0.00000000000E+00 -0.89730340685E+03  0.89731571587E+03  0.47000000000E+01 0.  1.
          6    1    1    2  502    0  0.21082528402E+03 -0.96149841602E+02  0.80347222365E+02  0.29955261401E+03  0.17200000000E+03 0. -1.
         -6    1    1    2    0  502 -0.21082528402E+03  0.96149841602E+02 -0.76130333300E+03  0.81416144422E+03  0.17200000000E+03 0.  1.
</event>
<event>
 4    1 -0.6384999E-004  0.1783805E+03  0.7818608E-02  0.1169380E+00
         -5   -1    0    0    0  501 -0.00000000000E+00  0.00000000000E+00  0.56280080663E+03  0.56282043135E+03  0.47000000000E+01 0.  1.
          5   -1    0    0  501    0  0.00000000000E+00 -0.00000000000E+00 -0.13137364494E+03  0.13145769124E+03  0.47000000000E+01 0. -1.
          6    1    1    2  502    0 -0.37930935631E+02 -0.28228528894E+02 -0.46336042928E+02  0.18430039228E+03  0.17200000000E+03 0. -1.
         -6    1    1    2    0  502  0.37930935631E+02  0.28228528894E+02  0.47776320462E+03  0.50997773031E+03  0.17200000000E+03 0.  1.
</event>
<event>
 4    1 -0.6384999E-004  0.2381009E+03  0.7818608E-02  0.1121064E+00
          5   -1    0    0  501    0  0.00000000000E+00  0.00000000000E+00  0.54249217795E+02  0.54452434577E+02  0.47000000000E+01 0. -1.
         -5   -1    0    0    0  501 -0.00000000000E+00 -0.00000000000E+00 -0.10887034704E+04  0.10887136155E+04  0.47000000000E+01 0.  1.
          6    1    1    2  502    0  0.13278022760E+03 -0.97352195724E+02 -0.39995749880E+03  0.46546540118E+03  0.17200000000E+03 0.  1.
         -6    1    1    2    0  502 -0.13278022760E+03  0.97352195724E+02 -0.63449675384E+03  0.67770064888E+03  0.17200000000E+03 0. -1.
</event>
<event>
 4    1 -0.6384999E-004  0.2358437E+03  0.7818608E-02  0.1122593E+00
          5   -1    0    0  501    0  0.00000000000E+00  0.00000000000E+00  0.94195902149E+02  0.94313084891E+02  0.47000000000E+01 0. -1.
         -5   -1    0    0    0  501 -0.00000000000E+00 -0.00000000000E+00 -0.78112594007E+03  0.78114007979E+03  0.47000000000E+01 0.  1.
          6    1    1    2  502    0 -0.15121469123E+03 -0.56323656009E+02 -0.12696239761E+03  0.26784638784E+03  0.17200000000E+03 0. -1.
         -6    1    1    2    0  502  0.15121469123E+03  0.56323656009E+02 -0.55996764031E+03  0.60760677684E+03  0.17200000000E+03 0.  1.
</event>
<event>
 4    1 -0.6384999E-004  0.2457794E+03  0.7818608E-02  0.1116002E+00
         -5   -1    0    0    0  501 -0.00000000000E+00  0.00000000000E+00  0.41269943828E+03  0.41272620023E+03  0.47000000000E+01 0.  1.
          5   -1    0    0  501    0  0.00000000000E+00 -0.00000000000E+00 -0.96172291554E+03  0.96173440007E+03  0.47000000000E+01 0. -1.
          6    1    1    2  502    0 -0.11367161278E+03 -0.13379943658E+03 -0.90729102719E+03  0.93999177274E+03  0.17200000000E+03 0. -1.
         -6    1    1    2    0  502  0.11367161278E+03  0.13379943658E+03  0.35826754994E+03  0.43446882756E+03  0.17200000000E+03 0.  1.
</event>
<event>
 4    1 -0.6384999E-004  0.1908473E+03  0.7818608E-02  0.1157699E+00
          5   -1    0    0  501    0  0.00000000000E+00  0.00000000000E+00  0.24023547867E+04  0.24023593843E+04  0.47000000000E+01 0. -1.
         -5   -1    0    0    0  501 -0.00000000000E+00 -0.00000000000E+00 -0.14846193771E+02  0.15572394468E+02  0.47000000000E+01 0.  1.
          6    1    1    2  502    0 -0.44387585152E+02  0.69774236156E+02  0.11226297279E+04  0.11387362327E+04  0.17200000000E+03 0.  1.
         -6    1    1    2    0  502  0.44387585152E+02 -0.69774236156E+02  0.12648788651E+04  0.12791955461E+04  0.17200000000E+03 0.  1.
</event>
<event>
 4    1 -0.6384999E-004  0.1947409E+03  0.7818608E-02  0.1154253E+00
          5   -1    0    0  501    0  0.00000000000E+00  0.00000000000E+00  0.27454463135E+03  0.27458485865E+03  0.47000000000E+01 0. -1.
         -5   -1    0    0    0  501 -0.00000000000E+00 -0.00000000000E+00 -0.14025585357E+03  0.14033458042E+03  0.47000000000E+01 0.  1.
          6    1    1    2  502    0  0.37994335134E+02 -0.83044943241E+02  0.93186131821E+02  0.21588813600E+03  0.17200000000E+03 0. -1.
         -6    1    1    2    0  502 -0.37994335134E+02  0.83044943241E+02  0.41102645953E+02  0.19903130308E+03  0.17200000000E+03 0.  1.
</event>
<event>
 4    1 -0.6384999E-004  0.2049352E+03  0.7818608E-02  0.1145641E+00
         -5   -1    0    0    0  501 -0.00000000000E+00  0.00000000000E+00  0.55896407096E+02  0.56093656738E+02  0.47000000000E+01 0.  1.
          5   -1    0    0  501    0  0.00000000000E+00 -0.00000000000E+00 -0.75202764879E+03  0.75204233561E+03  0.47000000000E+01 0. -1.
          6    1    1    2  502    0  0.68139940993E+02 -0.88155496523E+02 -0.36988532536E+03  0.42286356789E+03  0.17200000000E+03 0. -1.
         -6    1    1    2    0  502 -0.68139940993E+02  0.88155496523E+02 -0.32624591633E+03  0.38527242446E+03  0.17200000000E+03 0.  1.
</event>
<event>
 4    1 -0.6384999E-004  0.2047014E+03  0.7818608E-02  0.1145832E+00
          5   -1    0    0  501    0  0.00000000000E+00  0.00000000000E+00  0.18551729999E+03  0.18557682666E+03  0.47000000000E+01 0. -1.
         -5   -1    0    0    0  501 -0.00000000000E+00 -0.00000000000E+00 -0.23566042061E+03  0.23570728424E+03  0.47000000000E+01 0.  1.
          6    1    1    2  502    0 -0.94296246114E+02  0.58539629595E+02  0.18116942208E+02  0.20550156656E+03  0.17200000000E+03 0. -1.
         -6    1    1    2    0  502  0.94296246114E+02 -0.58539629595E+02 -0.68260062829E+02  0.21578254434E+03  0.17200000000E+03 0. -1.
</event>
<event>
 4    1 -0.6384999E-004  0.1778425E+03  0.7818608E-02  0.1169908E+00
          5   -1    0    0  501    0  0.00000000000E+00  0.00000000000E+00  0.23860474540E+03  0.23865103086E+03  0.47000000000E+01 0. -1.
         -5   -1    0    0    0  501 -0.00000000000E+00 -0.00000000000E+00 -0.13334137452E+03  0.13342418131E+03  0.47000000000E+01 0.  1.
          6    1    1    2  502    0 -0.37993175083E+02 -0.24504374699E+02  0.37453058664E+02  0.18174343822E+03  0.17200000000E+03 0.  1.
         -6    1    1    2    0  502  0.37993175083E+02  0.24504374699E+02  0.67810312219E+02  0.19033177395E+03  0.17200000000E+03 0. -1.
</event>
<event>
 4    1 -0.6384999E-004  0.1773734E+03  0.7818608E-02  0.1170370E+00
          5   -1    0    0  501    0  0.00000000000E+00  0.00000000000E+00  0.13856677215E+03  0.13864645810E+03  0.47000000000E+01 0. -1.
         -5   -1    0    0    0  501 -0.00000000000E+00 -0.00000000000E+00 -0.27944723273E+03  0.27948675439E+03  0.47000000000E+01 0.  1.
          6    1    1    2  502    0  0.63841323012E+01 -0.42855082513E+02  0.20216759668E+02  0.17852179871E+03  0.17200000000E+03 0. -1.
         -6    1    1    2    0  502 -0.63841323012E+01  0.42855082513E+02 -0.16109722025E+03  0.23961141378E+03  0.17200000000E+03 0.  1.
</event>
<event>
 4    1 -0.6384999E-004  0.2028484E+03  0.7818608E-02  0.1147358E+00
         -5   -1    0    0    0  501 -0.00000000000E+00  0.00000000000E+00  0.13111088041E+03  0.13119509504E+03  0.47000000000E+01 0.  1.
          5   -1    0    0  501    0  0.00000000000E+00 -0.00000000000E+00 -0.31774624781E+03  0.31778100635E+03  0.47000000000E+01 0. -1.
          6    1    1    2  502    0 -0.10651120868E+03 -0.14793004446E+02 -0.67786014545E+02  0.21387476318E+03  0.17200000000E+03 0. -1.
         -6    1    1    2    0  502  0.10651120868E+03  0.14793004446E+02 -0.11884935285E+03  0.23510133821E+03  0.17200000000E+03 0.  1.
</event>
<event>
 4    1 -0.6384999E-004  0.1732046E+03  0.7818608E-02  0.1174547E+00
         -5   -1    0    0    0  501 -0.00000000000E+00  0.00000000000E+00  0.63819615127E+03  0.63821345763E+03  0.47000000000E+01 0.  1.
          5   -1    0    0  501    0  0.00000000000E+00 -0.00000000000E+00 -0.73653679676E+02  0.73803485892E+02  0.47000000000E+01 0. -1.
          6    1    1    2  502    0 -0.13799208203E+02  0.15013968327E+02  0.67900071898E+02  0.18603832174E+03  0.17200000000E+03 0. -1.
         -6    1    1    2    0  502  0.13799208203E+02 -0.15013968327E+02  0.49664239970E+03  0.52597862178E+03  0.17200000000E+03 0.  1.
</event>
<event>
 4    1 -0.6384999E-004  0.2058743E+03  0.7818608E-02  0.1144875E+00
         -5   -1    0    0    0  501 -0.00000000000E+00  0.00000000000E+00  0.11833183496E+04  0.11833276835E+04  0.47000000000E+01 0.  1.
          5   -1    0    0  501    0  0.00000000000E+00 -0.00000000000E+00 -0.66087453218E+02  0.66254369462E+02  0.47000000000E+01 0. -1.
          6    1    1    2  502    0 -0.77824292224E+02  0.82119357903E+02  0.13542303893E+03  0.24642160797E+03  0.17200000000E+03 0. -1.
         -6    1    1    2    0  502  0.77824292224E+02 -0.82119357903E+02  0.98180785746E+03  0.10031604450E+04  0.17200000000E+03 0.  1.
</event>
<event>
 4    1 -0.6384999E-004  0.1757082E+03  0.7818608E-02  0.1172023E+00
         -5   -1    0    0    0  501 -0.00000000000E+00  0.00000000000E+00  0.10473297877E+03  0.10483838440E+03  0.47000000000E+01 0.  1.
          5   -1    0    0  501    0  0.00000000000E+00 -0.00000000000E+00 -0.29558825332E+03  0.29562561712E+03  0.47000000000E+01 0. -1.
          6    1    1    2  502    0  0.20227093359E+02 -0.29668681399E+02 -0.83333047109E+02  0.19446789633E+03  0.17200000000E+03 0. -1.
         -6    1    1    2    0  502 -0.20227093359E+02  0.29668681399E+02 -0.10752222743E+03  0.20599610519E+03  0.17200000000E+03 0.  1.
</event>
<event>
 4    1 -0.6384999E-004  0.2527534E+03  0.7818608E-02  0.1111577E+00
          5   -1    0    0  501    0  0.00000000000E+00  0.00000000000E+00  0.62293913106E+02  0.62470966137E+02  0.47000000000E+01 0. -1.
         -5   -1    0    0    0  501 -0.00000000000E+00 -0.00000000000E+00 -0.10323449533E+04  0.10323556522E+04  0.47000000000E+01 0.  1.
          6    1    1    2  502    0 -0.12828759598E+03 -0.13357617992E+03 -0.53455355140E+03  0.59129671269E+03  0.17200000000E+03 0. -1.
         -6    1    1    2    0  502  0.12828759598E+03  0.13357617992E+03 -0.43549748880E+03  0.50352990564E+03  0.17200000000E+03 0.  1.
</event>
<event>
 4    1 -0.6384999E-004  0.1933924E+03  0.7818608E-02  0.1155437E+00
          5   -1    0    0  501    0  0.00000000000E+00  0.00000000000E+00  0.49694530009E+02  0.49916293060E+02  0.47000000000E+01 0. -1.
         -5   -1    0    0    0  501 -0.00000000000E+00 -0.00000000000E+00 -0.75589028962E+03  0.75590490139E+03  0.47000000000E+01 0.  1.
          6    1    1    2  502    0  0.80254547164E+02  0.37092024036E+02 -0.31973409881E+03  0.37367165337E+03  0.17200000000E+03 0. -1.
         -6    1    1    2    0  502 -0.80254547164E+02 -0.37092024036E+02 -0.38646166080E+03  0.43214954108E+03  0.17200000000E+03 0. -1.
</event>
<event>
 4    1 -0.6384999E-004  0.2665518E+03  0.7818608E-02  0.1103269E+00
         -5   -1    0    0    0  501 -0.00000000000E+00  0.00000000000E+00  0.15847827808E+03  0.15854795686E+03  0.47000000000E+01 0.  1.
          5   -1    0    0  501    0  0.00000000000E+00 -0.00000000000E+00 -0.48371226005E+03  0.48373509333E+03  0.47000000000E+01 0. -1.
          6    1    1    2  502    0 -0.94764154015E+02 -0.18023767142E+03 -0.24969050247E+03  0.36523309010E+03  0.17200000000E+03 0. -1.
         -6    1    1    2    0  502  0.94764154015E+02  0.18023767142E+03 -0.75543479502E+02  0.27704996008E+03  0.17200000000E+03 0.  1.
</event>
<event>
 4    1 -0.6384999E-004  0.3575020E+03  0.7818608E-02  0.1059577E+00
          5   -1    0    0  501    0  0.00000000000E+00  0.00000000000E+00  0.11664314997E+03  0.11673780208E+03  0.47000000000E+01 0. -1.
         -5   -1    0    0    0  501 -0.00000000000E+00 -0.00000000000E+00 -0.11548603489E+04  0.11548699128E+04  0.47000000000E+01 0.  1.
          6    1    1    2  502    0 -0.27162939091E+03  0.15633671565E+03 -0.37456925299E+03  0.51779322123E+03  0.17200000000E+03 0. -1.
         -6    1    1    2    0  502  0.27162939091E+03 -0.15633671565E+03 -0.66364794598E+03  0.75381449367E+03  0.17200000000E+03 0.  1.
</event>
<event>
 4    1 -0.6384999E-004  0.1731173E+03  0.7818608E-02  0.1174635E+00
          5   -1    0    0  501    0  0.00000000000E+00  0.00000000000E+00  0.15875864012E+03  0.15882819590E+03  0.47000000000E+01 0. -1.
         -5   -1    0    0    0  501 -0.00000000000E+00 -0.00000000000E+00 -0.20246889132E+03  0.20252343557E+03  0.47000000000E+01 0.  1.
          6    1    1    2  502    0  0.98970920070E+01 -0.16960362386E+02 -0.69068621214E+02  0.18638691145E+03  0.17200000000E+03 0.  1.
         -6    1    1    2    0  502 -0.98970920070E+01  0.16960362386E+02  0.25358370012E+02  0.17496472002E+03  0.17200000000E+03 0.  1.
</event>
<event>
 4    1 -0.6384999E-004  0.2223478E+03  0.7818608E-02  0.1132145E+00
          5   -1    0    0  501    0  0.00000000000E+00  0.00000000000E+00  0.71539039508E+03  0.71540583403E+03  0.47000000000E+01 0. -1.
         -5   -1    0    0    0  501 -0.00000000000E+00 -0.00000000000E+00 -0.13457304733E+03  0.13465509670E+03  0.47000000000E+01 0.  1.
          6    1    1    2  502    0 -0.39524767880E+02  0.13524911100E+03  0.58692421098E+03  0.62762931634E+03  0.17200000000E+03 0. -1.
         -6    1    1    2    0  502  0.39524767880E+02 -0.13524911100E+03 -0.61068632299E+01  0.22243161439E+03  0.17200000000E+03 0.  1.
</event>
<event>
 4    1 -0.6384999E-004  0.3306065E+03  0.7818608E-02  0.1070869E+00
         -5   -1    0    0    0  501 -0.00000000000E+00  0.00000000000E+00  0.39080449553E+03  0.39083275673E+03  0.47000000000E+01 0.  1.
          5   -1    0    0  501    0  0.00000000000E+00 -0.00000000000E+00 -0.30695075786E+03  0.30698673872E+03  0.47000000000E+01 0. -1.
          6    1    1    2  502    0  0.17559926535E+03  0.22109167659E+03 -0.62169177458E+02  0.33640100784E+03  0.17200000000E+03 0. -1.
         -6    1    1    2    0  502 -0.17559926535E+03 -0.22109167659E+03  0.14602291513E+03  0.36141848762E+03  0.17200000000E+03 0.  1.
</event>
<event>
 4    1 -0.6384999E-004  0.2353202E+03  0.7818608E-02  0.1122950E+00
         -5   -1    0    0    0  501 -0.00000000000E+00  0.00000000000E+00  0.10144806844E+04  0.10144915716E+04  0.47000000000E+01 0.  1.
          5   -1    0    0  501    0  0.00000000000E+00 -0.00000000000E+00 -0.82996478708E+02  0.83129450125E+02  0.47000000000E+01 0. -1.
          6    1    1    2  502    0  0.78117332779E+02  0.14031841434E+03  0.14435470031E+03  0.27606856863E+03  0.17200000000E+03 0. -1.
         -6    1    1    2    0  502 -0.78117332779E+02 -0.14031841434E+03  0.78712950533E+03  0.82155245313E+03  0.17200000000E+03 0.  1.
</event>
<event>
 4    1 -0.6384999E-004  0.3429120E+03  0.7818608E-02  0.1065562E+00
         -5   -1    0    0    0  501 -0.00000000000E+00  0.00000000000E+00  0.73030649713E+03  0.73032162076E+03  0.47000000000E+01 0.  1.
          5   -1    0    0  501    0  0.00000000000E+00 -0.00000000000E+00 -0.39954359377E+03  0.39957123686E+03  0.47000000000E+01 0. -1.
          6    1    1    2  502    0  0.14245694709E+03  0.26021274034E+03 -0.27114402611E+03  0.43715870677E+03  0.17200000000E+03 0. -1.
         -6    1    1    2    0  502 -0.14245694709E+03 -0.26021274034E+03  0.60190692947E+03  0.69273415085E+03  0.17200000000E+03 0.  1.
</event>
<event>
 4    1 -0.6384999E-004  0.1992482E+03  0.7818608E-02  0.1150375E+00
          5   -1    0    0  501    0  0.00000000000E+00  0.00000000000E+00  0.17772812009E+02  0.18383765847E+02  0.47000000000E+01 0. -1.
         -5   -1    0    0    0  501 -0.00000000000E+00 -0.00000000000E+00 -0.21953909107E+04  0.21953959417E+04  0.47000000000E+01 0.  1.
          6    1    1    2  502    0  0.69569480640E+02  0.72635711323E+02 -0.10909115907E+04  0.11089580506E+04  0.17200000000E+03 0.  1.
         -6    1    1    2    0  502 -0.69569480640E+02 -0.72635711323E+02 -0.10867065080E+04  0.11048216570E+04  0.17200000000E+03 0.  1.
</event>
<event>
 4    1 -0.6384999E-004  0.2956579E+03  0.7818608E-02  0.1087432E+00
          5   -1    0    0  501    0  0.00000000000E+00  0.00000000000E+00  0.20239264254E+03  0.20244720733E+03  0.47000000000E+01 0. -1.
         -5   -1    0    0    0  501 -0.00000000000E+00 -0.00000000000E+00 -0.49567810691E+03  0.49570038901E+03  0.47000000000E+01 0.  1.
          6    1    1    2  502    0  0.79923959091E+02  0.22680777705E+03 -0.21316453973E+02  0.29642536696E+03  0.17200000000E+03 0. -1.
         -6    1    1    2    0  502 -0.79923959091E+02 -0.22680777705E+03 -0.27196901040E+03  0.40172222938E+03  0.17200000000E+03 0.  1.
</event>
<event>
 4    1 -0.6384999E-004  0.2236710E+03  0.7818608E-02  0.1131175E+00
         -5   -1    0    0    0  501 -0.00000000000E+00  0.00000000000E+00  0.89054062780E+03  0.89055303029E+03  0.47000000000E+01 0.  1.
          5   -1    0    0  501    0  0.00000000000E+00 -0.00000000000E+00 -0.56202973765E+02  0.56399151235E+02  0.47000000000E+01 0. -1.
          6    1    1    2  502    0 -0.96537262081E+02 -0.10547645175E+03  0.39390655539E+03  0.45298024153E+03  0.17200000000E+03 0. -1.
         -6    1    1    2    0  502  0.96537262081E+02  0.10547645175E+03  0.44043109865E+03  0.49397193999E+03  0.17200000000E+03 0.  1.
</event>
<event>
 4    1 -0.6384999E-004  0.2252360E+03  0.7818608E-02  0.1130039E+00
          5   -1    0    0  501    0  0.00000000000E+00  0.00000000000E+00  0.59242780991E+02  0.59428924772E+02  0.47000000000E+01 0. -1.
         -5   -1    0    0    0  501 -0.00000000000E+00 -0.00000000000E+00 -0.98220173199E+03  0.98221297707E+03  0.47000000000E+01 0.  1.
          6    1    1    2  502    0 -0.85526294331E+00 -0.14541848195E+03 -0.27391747551E+03  0.35462945416E+03  0.17200000000E+03 0. -1.
         -6    1    1    2    0  502  0.85526294331E+00  0.14541848195E+03 -0.64904147549E+03  0.68701244769E+03  0.17200000000E+03 0.  1.
</event>
<event>
 4    1 -0.6384999E-004  0.2171689E+03  0.7818608E-02  0.1136011E+00
          5   -1    0    0  501    0  0.00000000000E+00  0.00000000000E+00  0.11386479632E+03  0.11396175605E+03  0.47000000000E+01 0. -1.
         -5   -1    0    0    0  501 -0.00000000000E+00 -0.00000000000E+00 -0.42652537914E+03  0.42655127365E+03  0.47000000000E+01 0.  1.
          6    1    1    2  502    0 -0.37230774968E+02 -0.12724865520E+03 -0.20280321763E+03  0.29713884959E+03  0.17200000000E+03 0. -1.
         -6    1    1    2    0  502  0.37230774968E+02  0.12724865520E+03 -0.10985736519E+03  0.24337418010E+03  0.17200000000E+03 0. -1.
</event>
<event>
 4    1 -0.6384999E-004  0.3291123E+03  0.7818608E-02  0.1071530E+00
          5   -1    0    0  501    0  0.00000000000E+00  0.00000000000E+00  0.10886584939E+04  0.10886686394E+04  0.47000000000E+01 0. -1.
         -5   -1    0    0    0  501 -0.00000000000E+00 -0.00000000000E+00 -0.16795119778E+03  0.16801694806E+03  0.47000000000E+01 0.  1.
          6    1    1    2  502    0 -0.94919698160E+02  0.26404770272E+03  0.86158703502E+03  0.92230534928E+03  0.17200000000E+03 0. -1.
         -6    1    1    2    0  502  0.94919698160E+02 -0.26404770272E+03  0.59120261139E+02  0.33438023818E+03  0.17200000000E+03 0.  1.
</event>
<event>
 4    1 -0.6384999E-004  0.2049290E+03  0.7818608E-02  0.1145646E+00
         -5   -1    0    0    0  501 -0.00000000000E+00  0.00000000000E+00  0.50129390777E+03  0.50131594027E+03  0.47000000000E+01 0.  1.
          5   -1    0    0  501    0  0.00000000000E+00 -0.00000000000E+00 -0.98112010689E+02  0.98224521590E+02  0.47000000000E+01 0. -1.
          6    1    1    2  502    0 -0.10517935820E+03 -0.36731480925E+02  0.31645753656E+03  0.37701627488E+03  0.17200000000E+03 0.  1.
         -6    1    1    2    0  502  0.10517935820E+03  0.36731480925E+02  0.86724360526E+02  0.22252418698E+03  0.17200000000E+03 0. -1.
</event>
<event>
 4    1 -0.6384999E-004  0.1948179E+03  0.7818608E-02  0.1154186E+00
          5   -1    0    0  501    0  0.00000000000E+00  0.00000000000E+00  0.14894044114E+02  0.15618020044E+02  0.47000000000E+01 0. -1.
         -5   -1    0    0    0  501 -0.00000000000E+00 -0.00000000000E+00 -0.27040450974E+04  0.27040491820E+04  0.47000000000E+01 0.  1.
          6    1    1    2  502    0  0.20455271240E+02 -0.89171709196E+02 -0.95943617911E+03  0.97901572696E+03  0.17200000000E+03 0. -1.
         -6    1    1    2    0  502 -0.20455271240E+02  0.89171709196E+02 -0.17297148742E+04  0.17406514751E+04  0.17200000000E+03 0. -1.
</event>
<event>
 4    1 -0.6384999E-004  0.1879936E+03  0.7818608E-02  0.1160284E+00
          5   -1    0    0  501    0  0.00000000000E+00  0.00000000000E+00  0.26525937483E+03  0.26530101006E+03  0.47000000000E+01 0. -1.
         -5   -1    0    0    0  501 -0.00000000000E+00 -0.00000000000E+00 -0.13603536820E+03  0.13611653610E+03  0.47000000000E+01 0.  1.
          6    1    1    2  502    0  0.67105527418E+02  0.35417942193E+02  0.93877623375E+02  0.21012993744E+03  0.17200000000E+03 0.  1.
         -6    1    1    2    0  502 -0.67105527418E+02 -0.35417942193E+02  0.35346383262E+02  0.19128760872E+03  0.17200000000E+03 0.  1.
</event>
<event>
 4    1 -0.6384999E-004  0.2100423E+03  0.7818608E-02  0.1141532E+00
          5   -1    0    0  501    0  0.00000000000E+00  0.00000000000E+00  0.66944107423E+03  0.66945757286E+03  0.47000000000E+01 0. -1.
         -5   -1    0    0    0  501 -0.00000000000E+00 -0.00000000000E+00 -0.99132944923E+02  0.99244298421E+02  0.47000000000E+01 0.  1.
          6    1    1    2  502    0 -0.72043625386E+02  0.96661777895E+02  0.62461377390E+02  0.21913285224E+03  0.17200000000E+03 0.  1.
         -6    1    1    2    0  502  0.72043625386E+02 -0.96661777895E+02  0.50784675192E+03  0.54956901905E+03  0.17200000000E+03 0. -1.
</event>
<event>
 4    1 -0.6384999E-004  0.2518450E+03  0.7818608E-02  0.1112144E+00
         -5   -1    0    0    0  501 -0.00000000000E+00  0.00000000000E+00  0.96657996595E+02  0.96772198000E+02  0.47000000000E+01 0.  1.
          5   -1    0    0  501    0  0.00000000000E+00 -0.00000000000E+00 -0.70183873688E+03  0.70185447394E+03  0.47000000000E+01 0. -1.
          6    1    1    2  502    0 -0.77264302195E+02  0.16694943915E+03 -0.20019320583E+03  0.32171914349E+03  0.17200000000E+03 0. -1.
         -6    1    1    2    0  502  0.77264302195E+02 -0.16694943915E+03 -0.40498753446E+03  0.47690752845E+03  0.17200000000E+03 0.  1.
</event>
<event>
 4    1 -0.6384999E-004  0.1725748E+03  0.7818608E-02  0.1175189E+00
         -5   -1    0    0    0  501 -0.00000000000E+00  0.00000000000E+00  0.87910180877E+02  0.88035730825E+02  0.47000000000E+01 0.  1.
          5   -1    0    0  501    0  0.00000000000E+00 -0.00000000000E+00 -0.35095743439E+03  0.35098890403E+03  0.47000000000E+01 0. -1.
          6    1    1    2  502    0 -0.56043659709E+01 -0.12909037393E+02 -0.17304565002E+03  0.24439077142E+03  0.17200000000E+03 0. -1.
         -6    1    1    2    0  502  0.56043659709E+01  0.12909037393E+02 -0.90001603488E+02  0.19463386343E+03  0.17200000000E+03 0.  1.
</event>
<event>
 4    1 -0.6384999E-004  0.1768376E+03  0.7818608E-02  0.1170899E+00
          5   -1    0    0  501    0  0.00000000000E+00  0.00000000000E+00  0.28021122002E+03  0.28025063394E+03  0.47000000000E+01 0. -1.
         -5   -1    0    0    0  501 -0.00000000000E+00 -0.00000000000E+00 -0.15719569781E+03  0.15726594485E+03  0.47000000000E+01 0.  1.
          6    1    1    2  502    0  0.21544055857E+02 -0.34976887771E+02  0.17940290779E+03  0.25190659449E+03  0.17200000000E+03 0. -1.
         -6    1    1    2    0  502 -0.21544055857E+02  0.34976887771E+02 -0.56387385590E+02  0.18560998431E+03  0.17200000000E+03 0.  1.
</event>
<event>
 4    1 -0.6384999E-004  0.1755674E+03  0.7818608E-02  0.1172163E+00
          5   -1    0    0  501    0  0.00000000000E+00  0.00000000000E+00  0.16410858272E+03  0.16417587193E+03  0.47000000000E+01 0. -1.
         -5   -1    0    0    0  501 -0.00000000000E+00 -0.00000000000E+00 -0.19013626469E+03  0.19019434574E+03  0.47000000000E+01 0.  1.
          6    1    1    2  502    0 -0.32029930282E+02 -0.14628250341E+02 -0.33100582314E+02  0.17866043404E+03  0.17200000000E+03 0.  1.
         -6    1    1    2    0  502  0.32029930282E+02  0.14628250341E+02  0.70729003452E+01  0.17570978362E+03  0.17200000000E+03 0. -1.
</event>
<event>
 4    1 -0.6384999E-004  0.7788723E+03  0.7818608E-02  0.9591112E-01
         -5   -1    0    0    0  501 -0.00000000000E+00  0.00000000000E+00  0.12530954790E+04  0.12531042932E+04  0.47000000000E+01 0.  1.
          5   -1    0    0  501    0  0.00000000000E+00 -0.00000000000E+00 -0.50554215987E+03  0.50556400723E+03  0.47000000000E+01 0. -1.
          6    1    1    2  502    0  0.75796337724E+03 -0.50492741447E+02  0.19265564878E+03  0.80234543507E+03  0.17200000000E+03 0. -1.
         -6    1    1    2    0  502 -0.75796337724E+03  0.50492741447E+02  0.55489767040E+03  0.95632286535E+03  0.17200000000E+03 0.  1.
</event>
<event>
 4    1 -0.6384999E-004  0.2003537E+03  0.7818608E-02  0.1149441E+00
         -5   -1    0    0    0  501 -0.00000000000E+00  0.00000000000E+00  0.15318718359E+03  0.15325926796E+03  0.47000000000E+01 0.  1.
          5   -1    0    0  501    0  0.00000000000E+00 -0.00000000000E+00 -0.26759819536E+03  0.26763946674E+03  0.47000000000E+01 0. -1.
          6    1    1    2  502    0  0.29944553805E+02 -0.98290024820E+02 -0.26470164589E+02  0.20209471763E+03  0.17200000000E+03 0.  1.
         -6    1    1    2    0  502 -0.29944553805E+02  0.98290024820E+02 -0.87940847184E+02  0.21880401707E+03  0.17200000000E+03 0.  1.
</event>
<event>
 4    1 -0.6384999E-004  0.3271089E+03  0.7818608E-02  0.1072423E+00
         -5   -1    0    0    0  501 -0.00000000000E+00  0.00000000000E+00  0.25928245510E+03  0.25932504993E+03  0.47000000000E+01 0.  1.
          5   -1    0    0  501    0  0.00000000000E+00 -0.00000000000E+00 -0.56769990195E+03  0.56771935732E+03  0.47000000000E+01 0. -1.
          6    1    1    2  502    0 -0.14755529106E+03  0.23588905403E+03 -0.37034936495E+03  0.49412433845E+03  0.17200000000E+03 0. -1.
         -6    1    1    2    0  502  0.14755529106E+03 -0.23588905403E+03  0.61931918099E+02  0.33292006880E+03  0.17200000000E+03 0.  1.
</event>
<event>
 4    1 -0.6384999E-004  0.2636402E+03  0.7818608E-02  0.1104976E+00
         -5   -1    0    0    0  501 -0.00000000000E+00  0.00000000000E+00  0.25664340817E+03  0.25668644092E+03  0.47000000000E+01 0.  1.
          5   -1    0    0  501    0  0.00000000000E+00 -0.00000000000E+00 -0.37408174707E+03  0.37411127153E+03  0.47000000000E+01 0. -1.
          6    1    1    2  502    0 -0.16543160496E+03  0.11204701811E+03  0.10703559744E+03  0.28453957424E+03  0.17200000000E+03 0. -1.
         -6    1    1    2    0  502  0.16543160496E+03 -0.11204701811E+03 -0.22447393634E+03  0.34625813822E+03  0.17200000000E+03 0.  1.
</event>
<event>
 4    1 -0.6384999E-004  0.1857816E+03  0.7818608E-02  0.1162322E+00
          5   -1    0    0  501    0  0.00000000000E+00  0.00000000000E+00  0.47036024127E+03  0.47038372268E+03  0.47000000000E+01 0. -1.
         -5   -1    0    0    0  501 -0.00000000000E+00 -0.00000000000E+00 -0.82938242749E+02  0.83071307383E+02  0.47000000000E+01 0.  1.
          6    1    1    2  502    0 -0.54111065809E+02  0.44752476707E+02  0.99366480163E+02  0.21068575888E+03  0.17200000000E+03 0.  1.
         -6    1    1    2    0  502  0.54111065809E+02 -0.44752476707E+02  0.28805551835E+03  0.34276927118E+03  0.17200000000E+03 0. -1.
</event>
<event>
 4    1 -0.6384999E-004  0.4537665E+03  0.7818608E-02  0.1026605E+00
          5   -1    0    0  501    0  0.00000000000E+00  0.00000000000E+00  0.64961571468E+03  0.64963271682E+03  0.47000000000E+01 0. -1.
         -5   -1    0    0    0  501 -0.00000000000E+00 -0.00000000000E+00 -0.31985559721E+03  0.31989012655E+03  0.47000000000E+01 0.  1.
          6    1    1    2  502    0 -0.11429370877E+03  0.40405071787E+03  0.11847671180E+03  0.46897842777E+03  0.17200000000E+03 0. -1.
         -6    1    1    2    0  502  0.11429370877E+03 -0.40405071787E+03  0.21128340567E+03  0.50054441560E+03  0.17200000000E+03 0.  1.
</event>
<event>
 4    1 -0.6384999E-004  0.4123695E+03  0.7818608E-02  0.1039579E+00
         -5   -1    0    0    0  501 -0.00000000000E+00  0.00000000000E+00  0.57989047148E+03  0.57990951787E+03  0.47000000000E+01 0.  1.
          5   -1    0    0  501    0  0.00000000000E+00 -0.00000000000E+00 -0.32984101803E+03  0.32987450216E+03  0.47000000000E+01 0. -1.
          6    1    1    2  502    0  0.17404774650E+03  0.33192167296E+03 -0.26576982006E+02  0.41322506097E+03  0.17200000000E+03 0. -1.
         -6    1    1    2    0  502 -0.17404774650E+03 -0.33192167296E+03  0.27662643545E+03  0.49655895907E+03  0.17200000000E+03 0.  1.
</event>
<event>
 4    1 -0.6384999E-004  0.2164060E+03  0.7818608E-02  0.1136591E+00
          5   -1    0    0  501    0  0.00000000000E+00  0.00000000000E+00  0.37282068817E+03  0.37285031250E+03  0.47000000000E+01 0. -1.
         -5   -1    0    0    0  501 -0.00000000000E+00 -0.00000000000E+00 -0.15800652491E+03  0.15807641163E+03  0.47000000000E+01 0.  1.
          6    1    1    2  502    0 -0.16621197611E+02  0.13027383177E+03  0.22770715412E+03  0.31413704571E+03  0.17200000000E+03 0. -1.
         -6    1    1    2    0  502  0.16621197611E+02 -0.13027383177E+03 -0.12892990855E+02  0.21678967841E+03  0.17200000000E+03 0.  1.
</event>
<event>
 4    1 -0.6384999E-004  0.1733664E+03  0.7818608E-02  0.1174382E+00
          5   -1    0    0  501    0  0.00000000000E+00  0.00000000000E+00  0.18442000210E+03  0.18447988284E+03  0.47000000000E+01 0. -1.
         -5   -1    0    0    0  501 -0.00000000000E+00 -0.00000000000E+00 -0.18866680010E+03  0.18872533338E+03  0.47000000000E+01 0.  1.
          6    1    1    2  502    0 -0.66663904276E+01 -0.20675155881E+02  0.66874703539E+02  0.18581746098E+03  0.17200000000E+03 0. -1.
         -6    1    1    2    0  502  0.66663904276E+01  0.20675155881E+02 -0.71121501543E+02  0.18738775524E+03  0.17200000000E+03 0.  1.
</event>
<event>
 4    1 -0.6384999E-004  0.1738110E+03  0.7818608E-02  0.1173931E+00
         -5   -1    0    0    0  501 -0.00000000000E+00  0.00000000000E+00  0.71522582233E+03  0.71524126484E+03  0.47000000000E+01 0.  1.
          5   -1    0    0  501    0  0.00000000000E+00 -0.00000000000E+00 -0.45001632420E+02  0.45246402293E+02  0.47000000000E+01 0. -1.
          6    1    1    2  502    0 -0.18303090907E+02  0.17065871759E+02  0.23871362979E+03  0.29528705383E+03  0.17200000000E+03 0. -1.
         -6    1    1    2    0  502  0.18303090907E+02 -0.17065871759E+02  0.43151056012E+03  0.46520061330E+03  0.17200000000E+03 0.  1.
</event>
<event>
 4    1 -0.6384999E-004  0.1857225E+03  0.7818608E-02  0.1162377E+00
         -5   -1    0    0    0  501 -0.00000000000E+00  0.00000000000E+00  0.13365894887E+03  0.13374155904E+03  0.47000000000E+01 0.  1.
          5   -1    0    0  501    0  0.00000000000E+00 -0.00000000000E+00 -0.28554571772E+03  0.28558439542E+03  0.47000000000E+01 0. -1.
          6    1    1    2  502    0 -0.14825674124E+02 -0.68476654890E+02 -0.10699148557E+02  0.18603044014E+03  0.17200000000E+03 0.  1.
         -6    1    1    2    0  502  0.14825674124E+02  0.68476654890E+02 -0.14118762029E+03  0.23329551432E+03  0.17200000000E+03 0.  1.
</event>
<event>
 4    1 -0.6384999E-004  0.1845641E+03  0.7818608E-02  0.1163458E+00
         -5   -1    0    0    0  501 -0.00000000000E+00  0.00000000000E+00  0.20297795861E+04  0.20297850276E+04  0.47000000000E+01 0.  1.
          5   -1    0    0  501    0  0.00000000000E+00 -0.00000000000E+00 -0.20474688463E+02  0.21007209897E+02  0.47000000000E+01 0. -1.
          6    1    1    2  502    0  0.33888565852E+01  0.66846351955E+02  0.14528872750E+04  0.14645631953E+04  0.17200000000E+03 0.  1.
         -6    1    1    2    0  502 -0.33888565852E+01 -0.66846351955E+02  0.55641762261E+03  0.58622904216E+03  0.17200000000E+03 0.  1.
</event>
<event>
 4    1 -0.6384999E-004  0.2300489E+03  0.7818608E-02  0.1126605E+00
          5   -1    0    0  501    0  0.00000000000E+00  0.00000000000E+00  0.12897067444E+03  0.12905628565E+03  0.47000000000E+01 0. -1.
         -5   -1    0    0    0  501 -0.00000000000E+00 -0.00000000000E+00 -0.42885368382E+03  0.42887943775E+03  0.47000000000E+01 0.  1.
          6    1    1    2  502    0 -0.12042202036E+03  0.94005606527E+02 -0.91628024793E+02  0.24762514407E+03  0.17200000000E+03 0. -1.
         -6    1    1    2    0  502  0.12042202036E+03 -0.94005606527E+02 -0.20825498458E+03  0.31031057934E+03  0.17200000000E+03 0.  1.
</event>
<event>
 4    1 -0.6384999E-004  0.2340266E+03  0.7818608E-02  0.1123837E+00
          5   -1    0    0  501    0  0.00000000000E+00  0.00000000000E+00  0.65722701693E+03  0.65724382217E+03  0.47000000000E+01 0. -1.
         -5   -1    0    0    0  501 -0.00000000000E+00 -0.00000000000E+00 -0.86413675468E+02  0.86541396498E+02  0.47000000000E+01 0.  1.
          6    1    1    2  502    0  0.40551783889E+02 -0.15342746594E+03  0.35652151176E+03  0.42646925191E+03  0.17200000000E+03 0. -1.
         -6    1    1    2    0  502 -0.40551783889E+02  0.15342746594E+03  0.21429182971E+03  0.31731596676E+03  0.17200000000E+03 0. -1.
</event>
<event>
 4    1 -0.6384999E-004  0.1868415E+03  0.7818608E-02  0.1161341E+00
         -5   -1    0    0    0  501 -0.00000000000E+00  0.00000000000E+00  0.56543397701E+02  0.56738398141E+02  0.47000000000E+01 0.  1.
          5   -1    0    0  501    0  0.00000000000E+00 -0.00000000000E+00 -0.83028154768E+03  0.83029485029E+03  0.47000000000E+01 0. -1.
          6    1    1    2  502    0 -0.22146242077E+02 -0.69536312573E+02 -0.61208647092E+03  0.63996843882E+03  0.17200000000E+03 0. -1.
         -6    1    1    2    0  502  0.22146242077E+02  0.69536312573E+02 -0.16165167906E+03  0.24706480961E+03  0.17200000000E+03 0.  1.
</event>
<event>
 4    1 -0.6384999E-004  0.2293708E+03  0.7818608E-02  0.1127083E+00
         -5   -1    0    0    0  501 -0.00000000000E+00  0.00000000000E+00  0.55722280340E+02  0.55920144191E+02  0.47000000000E+01 0.  1.
          5   -1    0    0  501    0  0.00000000000E+00 -0.00000000000E+00 -0.94508872156E+03  0.94510040822E+03  0.47000000000E+01 0. -1.
          6    1    1    2  502    0  0.12991960509E+03 -0.78408327622E+02 -0.41743431771E+03  0.47630072352E+03  0.17200000000E+03 0. -1.
         -6    1    1    2    0  502 -0.12991960509E+03  0.78408327622E+02 -0.47193212352E+03  0.52471982889E+03  0.17200000000E+03 0.  1.
</event>
<event>
 4    1 -0.6384999E-004  0.1724854E+03  0.7818608E-02  0.1175281E+00
          5   -1    0    0  501    0  0.00000000000E+00  0.00000000000E+00  0.85477953468E+03  0.85479245604E+03  0.47000000000E+01 0. -1.
         -5   -1    0    0    0  501 -0.00000000000E+00 -0.00000000000E+00 -0.37454553947E+02  0.37748292827E+02  0.47000000000E+01 0.  1.
          6    1    1    2  502    0 -0.85674624917E+01 -0.96853891488E+01  0.28671035900E+03  0.33459533489E+03  0.17200000000E+03 0.  1.
         -6    1    1    2    0  502  0.85674624917E+01  0.96853891488E+01  0.53061462173E+03  0.55794541397E+03  0.17200000000E+03 0. -1.
</event>
<event>
 4    1 -0.6384999E-004  0.2216675E+03  0.7818608E-02  0.1132646E+00
         -5   -1    0    0    0  501 -0.00000000000E+00  0.00000000000E+00  0.78016642098E+03  0.78018057808E+03  0.47000000000E+01 0.  1.
          5   -1    0    0  501    0  0.00000000000E+00 -0.00000000000E+00 -0.65590556317E+02  0.65758733853E+02  0.47000000000E+01 0. -1.
          6    1    1    2  502    0  0.50249155908E+02  0.13048944592E+03  0.27141932012E+03  0.35043532998E+03  0.17200000000E+03 0. -1.
         -6    1    1    2    0  502 -0.50249155908E+02 -0.13048944592E+03  0.44315654454E+03  0.49550398195E+03  0.17200000000E+03 0.  1.
</event>
<event>
 4    1 -0.6384999E-004  0.2087500E+03  0.7818608E-02  0.1142560E+00
          5   -1    0    0  501    0  0.00000000000E+00  0.00000000000E+00  0.13505222633E+03  0.13513398476E+03  0.47000000000E+01 0. -1.
         -5   -1    0    0    0  501 -0.00000000000E+00 -0.00000000000E+00 -0.16212195371E+04  0.16212263498E+04  0.47000000000E+01 0.  1.
          6    1    1    2  502    0 -0.11131906059E+03 -0.40008087638E+02  0.42897302961E+02  0.21311208067E+03  0.17200000000E+03 0. -1.
         -6    1    1    2    0  502  0.11131906059E+03  0.40008087638E+02 -0.15290646137E+04  0.15432482539E+04  0.17200000000E+03 0.  1.
</event>
<event>
 4    1 -0.6384999E-004  0.3778327E+03  0.7818608E-02  0.1051738E+00
         -5   -1    0    0    0  501 -0.00000000000E+00  0.00000000000E+00  0.10763614686E+04  0.10763717300E+04  0.47000000000E+01 0.  1.
          5   -1    0    0  501    0  0.00000000000E+00 -0.00000000000E+00 -0.55362369980E+03  0.55364364982E+03  0.47000000000E+01 0. -1.
          6    1    1    2  502    0 -0.33641265228E+03  0.28269081473E+00 -0.44934552983E+03  0.58708513668E+03  0.17200000000E+03 0. -1.
         -6    1    1    2    0  502  0.33641265228E+03 -0.28269081473E+00  0.97208329865E+03  0.10429302431E+04  0.17200000000E+03 0.  1.
</event>
<event>
 4    1 -0.6384999E-004  0.2721850E+03  0.7818608E-02  0.1100036E+00
         -5   -1    0    0    0  501 -0.00000000000E+00  0.00000000000E+00  0.61285799197E+03  0.61287601383E+03  0.47000000000E+01 0.  1.
          5   -1    0    0  501    0  0.00000000000E+00 -0.00000000000E+00 -0.12101149491E+03  0.12110273284E+03  0.47000000000E+01 0. -1.
          6    1    1    2  502    0  0.20663275461E+03 -0.42468345050E+02  0.23126993238E+03  0.35717003967E+03  0.17200000000E+03 0.  1.
         -6    1    1    2    0  502 -0.20663275461E+03  0.42468345050E+02  0.26057656468E+03  0.37680870700E+03  0.17200000000E+03 0.  1.
</event>
<event>
 4    1 -0.6384999E-004  0.2018687E+03  0.7818608E-02  0.1148172E+00
          5   -1    0    0  501    0  0.00000000000E+00  0.00000000000E+00  0.39939930617E+03  0.39942695924E+03  0.47000000000E+01 0. -1.
         -5   -1    0    0    0  501 -0.00000000000E+00 -0.00000000000E+00 -0.19718406834E+03  0.19724007404E+03  0.47000000000E+01 0.  1.
          6    1    1    2  502    0 -0.99692229495E+01  0.10520265449E+03  0.30838504501E+03  0.36858149697E+03  0.17200000000E+03 0. -1.
         -6    1    1    2    0  502  0.99692229495E+01 -0.10520265449E+03 -0.10616980718E+03  0.22808553631E+03  0.17200000000E+03 0. -1.
</event>
<event>
 4    1 -0.6384999E-004  0.2440274E+03  0.7818608E-02  0.1117139E+00
          5   -1    0    0  501    0  0.00000000000E+00  0.00000000000E+00  0.15627173029E+03  0.15634239249E+03  0.47000000000E+01 0. -1.
         -5   -1    0    0    0  501 -0.00000000000E+00 -0.00000000000E+00 -0.11164880532E+04  0.11164979458E+04  0.47000000000E+01 0.  1.
          6    1    1    2  502    0  0.36491763921E+02 -0.16921508755E+03  0.36449864731E+02  0.24673464963E+03  0.17200000000E+03 0. -1.
         -6    1    1    2    0  502 -0.36491763921E+02  0.16921508755E+03 -0.99666618768E+03  0.10261056887E+04  0.17200000000E+03 0.  1.
</event>
<event>
 4    1 -0.6384999E-004  0.1761962E+03  0.7818608E-02  0.1171536E+00
          5   -1    0    0  501    0  0.00000000000E+00  0.00000000000E+00  0.17391501545E+03  0.17397851189E+03  0.47000000000E+01 0. -1.
         -5   -1    0    0    0  501 -0.00000000000E+00 -0.00000000000E+00 -0.19425621694E+03  0.19431306652E+03  0.47000000000E+01 0.  1.
          6    1    1    2  502    0 -0.22311572291E+02  0.31036983609E+02  0.42456184487E+02  0.18123914646E+03  0.17200000000E+03 0. -1.
         -6    1    1    2    0  502  0.22311572291E+02 -0.31036983609E+02 -0.62797385976E+02  0.18705243194E+03  0.17200000000E+03 0.  1.
</event>
<event>
 4    1 -0.6384999E-004  0.2034026E+03  0.7818608E-02  0.1146900E+00
          5   -1    0    0  501    0  0.00000000000E+00  0.00000000000E+00  0.72749806073E+02  0.72901469695E+02  0.47000000000E+01 0. -1.
         -5   -1    0    0    0  501 -0.00000000000E+00 -0.00000000000E+00 -0.74191935770E+03  0.74193424462E+03  0.47000000000E+01 0.  1.
          6    1    1    2  502    0 -0.49876114086E+01 -0.10846069265E+03 -0.13731668270E+03  0.24541489251E+03  0.17200000000E+03 0. -1.
         -6    1    1    2    0  502  0.49876114086E+01  0.10846069265E+03 -0.53185286893E+03  0.56942082180E+03  0.17200000000E+03 0.  1.
</event>
<event>
 4    1 -0.6384999E-004  0.2831207E+03  0.7818608E-02  0.1093997E+00
          5   -1    0    0  501    0  0.00000000000E+00  0.00000000000E+00  0.69787307271E+02  0.69945394817E+02  0.47000000000E+01 0. -1.
         -5   -1    0    0    0  501 -0.00000000000E+00 -0.00000000000E+00 -0.13792508722E+04  0.13792588801E+04  0.47000000000E+01 0.  1.
          6    1    1    2  502    0  0.22829387053E+02  0.22372334175E+03 -0.35749205965E+03  0.45602399857E+03  0.17200000000E+03 0. -1.
         -6    1    1    2    0  502 -0.22829387053E+02 -0.22372334175E+03 -0.95197150528E+03  0.99318027640E+03  0.17200000000E+03 0.  1.
</event>
<event>
 4    1 -0.6384999E-004  0.1899269E+03  0.7818608E-02  0.1158527E+00
          5   -1    0    0  501    0  0.00000000000E+00  0.00000000000E+00  0.65559968883E+02  0.65728224682E+02  0.47000000000E+01 0. -1.
         -5   -1    0    0    0  501 -0.00000000000E+00 -0.00000000000E+00 -0.92860598457E+03  0.92861787867E+03  0.47000000000E+01 0.  1.
          6    1    1    2  502    0  0.48587441657E+02  0.64245407525E+02 -0.11381776535E+03  0.22141972718E+03  0.17200000000E+03 0. -1.
         -6    1    1    2    0  502 -0.48587441657E+02 -0.64245407525E+02 -0.74922825034E+03  0.77292637617E+03  0.17200000000E+03 0.  1.
</event>
<event>
 4    1 -0.6384999E-004  0.1934445E+03  0.7818608E-02  0.1155391E+00
         -5   -1    0    0    0  501 -0.00000000000E+00  0.00000000000E+00  0.11377363399E+03  0.11387067134E+03  0.47000000000E+01 0.  1.
          5   -1    0    0  501    0  0.00000000000E+00 -0.00000000000E+00 -0.40694628888E+03  0.40697342915E+03  0.47000000000E+01 0. -1.
          6    1    1    2  502    0 -0.72773457832E+02  0.50406420207E+02 -0.26079722862E+03  0.32470906642E+03  0.17200000000E+03 0. -1.
         -6    1    1    2    0  502  0.72773457832E+02 -0.50406420207E+02 -0.32375426276E+02  0.19613503407E+03  0.17200000000E+03 0.  1.
</event>
<event>
 4    1 -0.6384999E-004  0.1744113E+03  0.7818608E-02  0.1173324E+00
          5   -1    0    0  501    0  0.00000000000E+00  0.00000000000E+00  0.24029427205E+03  0.24034023213E+03  0.47000000000E+01 0. -1.
         -5   -1    0    0    0  501 -0.00000000000E+00 -0.00000000000E+00 -0.13505461478E+03  0.13513637176E+03  0.47000000000E+01 0.  1.
          6    1    1    2  502    0 -0.73291252090E+01  0.27956996382E+02  0.99873711884E+02  0.20098275560E+03  0.17200000000E+03 0. -1.
         -6    1    1    2    0  502  0.73291252090E+01 -0.27956996382E+02  0.53659453924E+01  0.17449384830E+03  0.17200000000E+03 0.  1.
</event>
<event>
 4    1 -0.6384999E-004  0.3356378E+03  0.7818608E-02  0.1068669E+00
          5   -1    0    0  501    0  0.00000000000E+00  0.00000000000E+00  0.22808504467E+03  0.22813346445E+03  0.47000000000E+01 0. -1.
         -5   -1    0    0    0  501 -0.00000000000E+00 -0.00000000000E+00 -0.53225774730E+03  0.53227849812E+03  0.47000000000E+01 0.  1.
          6    1    1    2  502    0 -0.26100928219E+03  0.12224098264E+03 -0.49886071024E+02  0.33932480503E+03  0.17200000000E+03 0. -1.
         -6    1    1    2    0  502  0.26100928219E+03 -0.12224098264E+03 -0.25428663161E+03  0.42108715754E+03  0.17200000000E+03 0.  1.
</event>
<event>
 4    1 -0.6384999E-004  0.2836538E+03  0.7818608E-02  0.1093710E+00
         -5   -1    0    0    0  501 -0.00000000000E+00  0.00000000000E+00  0.16066656203E+03  0.16073529219E+03  0.47000000000E+01 0.  1.
          5   -1    0    0  501    0  0.00000000000E+00 -0.00000000000E+00 -0.55160348054E+03  0.55162350362E+03  0.47000000000E+01 0. -1.
          6    1    1    2  502    0 -0.19240652126E+03 -0.11770824561E+03 -0.30376764933E+03  0.41561314378E+03  0.17200000000E+03 0. -1.
         -6    1    1    2    0  502  0.19240652126E+03  0.11770824561E+03 -0.87169269182E+02  0.29674565203E+03  0.17200000000E+03 0.  1.
</event>
<event>
 4    1 -0.6384999E-004  0.1776947E+03  0.7818608E-02  0.1170053E+00
          5   -1    0    0  501    0  0.00000000000E+00  0.00000000000E+00  0.15465900840E+03  0.15473040709E+03  0.47000000000E+01 0. -1.
         -5   -1    0    0    0  501 -0.00000000000E+00 -0.00000000000E+00 -0.23855229151E+03  0.23859858714E+03  0.47000000000E+01 0.  1.
          6    1    1    2  502    0 -0.40161405261E+02  0.19454336052E+02 -0.11675706098E+03  0.21262083847E+03  0.17200000000E+03 0.  1.
         -6    1    1    2    0  502  0.40161405261E+02 -0.19454336052E+02  0.32863777864E+02  0.18070815576E+03  0.17200000000E+03 0. -1.
</event>
<event>
 4    1 -0.6384999E-004  0.3532872E+03  0.7818608E-02  0.1061274E+00
          5   -1    0    0  501    0  0.00000000000E+00  0.00000000000E+00  0.82597856281E+02  0.82731468392E+02  0.47000000000E+01 0. -1.
         -5   -1    0    0    0  501 -0.00000000000E+00 -0.00000000000E+00 -0.15726830300E+04  0.15726900530E+04  0.47000000000E+01 0.  1.
          6    1    1    2  502    0 -0.29443873172E+03  0.92378059480E+02 -0.57943505644E+03  0.67864339475E+03  0.17200000000E+03 0. -1.
         -6    1    1    2    0  502  0.29443873172E+03 -0.92378059480E+02 -0.91065011730E+03  0.97677812668E+03  0.17200000000E+03 0.  1.
</event>
<event>
 4    1 -0.6384999E-004  0.1764845E+03  0.7818608E-02  0.1171249E+00
         -5   -1    0    0    0  501 -0.00000000000E+00  0.00000000000E+00  0.47602646659E+03  0.47604966852E+03  0.47000000000E+01 0.  1.
          5   -1    0    0  501    0  0.00000000000E+00 -0.00000000000E+00 -0.65392660445E+02  0.65561345624E+02  0.47000000000E+01 0. -1.
          6    1    1    2  502    0  0.24315633685E+02  0.31169520956E+02  0.19640044734E+03  0.26404530822E+03  0.17200000000E+03 0. -1.
         -6    1    1    2    0  502 -0.24315633685E+02 -0.31169520956E+02  0.21423335881E+03  0.27756570592E+03  0.17200000000E+03 0.  1.
</event>
<event>
 4    1 -0.6384999E-004  0.4169307E+03  0.7818608E-02  0.1038070E+00
         -5   -1    0    0    0  501 -0.00000000000E+00  0.00000000000E+00  0.39635832642E+03  0.39638619164E+03  0.47000000000E+01 0.  1.
          5   -1    0    0  501    0  0.00000000000E+00 -0.00000000000E+00 -0.48378175168E+03  0.48380458168E+03  0.47000000000E+01 0. -1.
          6    1    1    2  502    0 -0.37979886730E+03  0.13129740728E+00 -0.17832524258E+03  0.45346564255E+03  0.17200000000E+03 0. -1.
         -6    1    1    2    0  502  0.37979886730E+03 -0.13129740728E+00  0.90901817320E+02  0.42672513077E+03  0.17200000000E+03 0.  1.
</event>
<event>
 4    1 -0.6384999E-004  0.1823645E+03  0.7818608E-02  0.1165534E+00
         -5   -1    0    0    0  501 -0.00000000000E+00  0.00000000000E+00  0.58440277872E+03  0.58442167805E+03  0.47000000000E+01 0.  1.
          5   -1    0    0  501    0  0.00000000000E+00 -0.00000000000E+00 -0.72631209022E+02  0.72783119774E+02  0.47000000000E+01 0. -1.
          6    1    1    2  502    0  0.29926219712E+02  0.52699335461E+02  0.10262739248E+03  0.20925864444E+03  0.17200000000E+03 0. -1.
         -6    1    1    2    0  502 -0.29926219712E+02 -0.52699335461E+02  0.40914417722E+03  0.44794615339E+03  0.17200000000E+03 0.  1.
</event>
<event>
 4    1 -0.6384999E-004  0.3976556E+03  0.7818608E-02  0.1044594E+00
          5   -1    0    0  501    0  0.00000000000E+00  0.00000000000E+00  0.11755816476E+03  0.11765208074E+03  0.47000000000E+01 0. -1.
         -5   -1    0    0    0  501 -0.00000000000E+00 -0.00000000000E+00 -0.15921182810E+04  0.15921252183E+04  0.47000000000E+01 0.  1.
          6    1    1    2  502    0 -0.35703416847E+03  0.32750566065E+02 -0.40013913905E+03  0.56412882184E+03  0.17200000000E+03 0. -1.
         -6    1    1    2    0  502  0.35703416847E+03 -0.32750566065E+02 -0.10744209772E+04  0.11456484772E+04  0.17200000000E+03 0.  1.
</event>
<event>
 4    1 -0.6384999E-004  0.2108646E+03  0.7818608E-02  0.1140883E+00
          5   -1    0    0  501    0  0.00000000000E+00  0.00000000000E+00  0.76562805819E+02  0.76706930814E+02  0.47000000000E+01 0. -1.
         -5   -1    0    0    0  501 -0.00000000000E+00 -0.00000000000E+00 -0.11224525947E+04  0.11224624347E+04  0.47000000000E+01 0.  1.
          6    1    1    2  502    0 -0.10335383191E+03  0.64790907568E+02 -0.93971493290E+03  0.96308256728E+03  0.17200000000E+03 0.  1.
         -6    1    1    2    0  502  0.10335383191E+03 -0.64790907568E+02 -0.10617485601E+03  0.23608679828E+03  0.17200000000E+03 0. -1.
</event>
<event>
 4    1 -0.6384999E-004  0.3540551E+03  0.7818608E-02  0.1060963E+00
          5   -1    0    0  501    0  0.00000000000E+00  0.00000000000E+00  0.81840409081E+03  0.81841758647E+03  0.47000000000E+01 0. -1.
         -5   -1    0    0    0  501 -0.00000000000E+00 -0.00000000000E+00 -0.16312866029E+03  0.16319635353E+03  0.47000000000E+01 0.  1.
          6    1    1    2  502    0  0.21173548207E+03  0.22569688827E+03  0.44918327433E+03  0.57194458969E+03  0.17200000000E+03 0. -1.
         -6    1    1    2    0  502 -0.21173548207E+03 -0.22569688827E+03  0.20609215619E+03  0.40966935031E+03  0.17200000000E+03 0. -1.
</event>
<event>
 4    1 -0.6384999E-004  0.2607546E+03  0.7818608E-02  0.1106691E+00
         -5   -1    0    0    0  501 -0.00000000000E+00  0.00000000000E+00  0.16818876974E+03  0.16825442718E+03  0.47000000000E+01 0.  1.
          5   -1    0    0  501    0  0.00000000000E+00 -0.00000000000E+00 -0.60883487993E+03  0.60885302087E+03  0.47000000000E+01 0. -1.
          6    1    1    2  502    0 -0.61946221785E+02  0.18593449822E+03 -0.44562121089E+03  0.51630537051E+03  0.17200000000E+03 0. -1.
         -6    1    1    2    0  502  0.61946221785E+02 -0.18593449822E+03  0.49751006913E+01  0.26080207754E+03  0.17200000000E+03 0.  1.
</event>
<event>
 4    1 -0.6384999E-004  0.2049705E+03  0.7818608E-02  0.1145612E+00
         -5   -1    0    0    0  501 -0.00000000000E+00  0.00000000000E+00  0.87592398255E+03  0.87593659200E+03  0.47000000000E+01 0.  1.
          5   -1    0    0  501    0  0.00000000000E+00 -0.00000000000E+00 -0.93311591170E+02  0.93429883050E+02  0.47000000000E+01 0. -1.
          6    1    1    2  502    0  0.98538194191E+02 -0.52145441193E+02  0.53284322933E+02  0.21178324254E+03  0.17200000000E+03 0. -1.
         -6    1    1    2    0  502 -0.98538194191E+02  0.52145441193E+02  0.72932806845E+03  0.75758323251E+03  0.17200000000E+03 0.  1.
</event>
<event>
 4    1 -0.6384999E-004  0.3060167E+03  0.7818608E-02  0.1082271E+00
          5   -1    0    0  501    0  0.00000000000E+00  0.00000000000E+00  0.37497429170E+03  0.37500374590E+03  0.47000000000E+01 0. -1.
         -5   -1    0    0    0  501 -0.00000000000E+00 -0.00000000000E+00 -0.45388664491E+03  0.45391097853E+03  0.47000000000E+01 0.  1.
          6    1    1    2  502    0  0.19178384570E+03 -0.16517020771E+03  0.23852258040E+03  0.38799389473E+03  0.17200000000E+03 0. -1.
         -6    1    1    2    0  502 -0.19178384570E+03  0.16517020771E+03 -0.31743493361E+03  0.44092082970E+03  0.17200000000E+03 0.  1.
</event>
<event>
 4    1 -0.6384999E-004  0.1752687E+03  0.7818608E-02  0.1172462E+00
          5   -1    0    0  501    0  0.00000000000E+00  0.00000000000E+00  0.78000398930E+02  0.78141872471E+02  0.47000000000E+01 0. -1.
         -5   -1    0    0    0  501 -0.00000000000E+00 -0.00000000000E+00 -0.44130019576E+03  0.44132522337E+03  0.47000000000E+01 0.  1.
          6    1    1    2  502    0  0.32691761394E+02  0.81473698001E+01 -0.96023744413E+02  0.19984916910E+03  0.17200000000E+03 0. -1.
         -6    1    1    2    0  502 -0.32691761394E+02 -0.81473698001E+01 -0.26727605242E+03  0.31961792674E+03  0.17200000000E+03 0.  1.
</event>
<event>
 4    1 -0.6384999E-004  0.1793132E+03  0.7818608E-02  0.1168469E+00
          5   -1    0    0  501    0  0.00000000000E+00  0.00000000000E+00  0.15268599038E+03  0.15275831126E+03  0.47000000000E+01 0. -1.
         -5   -1    0    0    0  501 -0.00000000000E+00 -0.00000000000E+00 -0.23444929393E+03  0.23449639959E+03  0.47000000000E+01 0.  1.
          6    1    1    2  502    0 -0.49341230108E+02 -0.11605240620E+02 -0.10283405851E+03  0.20670772165E+03  0.17200000000E+03 0.  1.
         -6    1    1    2    0  502  0.49341230108E+02  0.11605240620E+02  0.21070754966E+02  0.18054698921E+03  0.17200000000E+03 0. -1.
</event>
<event>
 4    1 -0.6384999E-004  0.1785996E+03  0.7818608E-02  0.1169165E+00
          5   -1    0    0  501    0  0.00000000000E+00  0.00000000000E+00  0.42039865233E+03  0.42042492419E+03  0.47000000000E+01 0. -1.
         -5   -1    0    0    0  501 -0.00000000000E+00 -0.00000000000E+00 -0.75981225057E+02  0.76126451127E+02  0.47000000000E+01 0.  1.
          6    1    1    2  502    0  0.24967889397E+00  0.48101622369E+02  0.15924919310E+03  0.23928671906E+03  0.17200000000E+03 0.  1.
         -6    1    1    2    0  502 -0.24967889397E+00 -0.48101622369E+02  0.18516823417E+03  0.25726465626E+03  0.17200000000E+03 0.  1.
</event>
<event>
 4    1 -0.6384999E-004  0.2417681E+03  0.7818608E-02  0.1118621E+00
          5   -1    0    0  501    0  0.00000000000E+00  0.00000000000E+00  0.48277863748E+03  0.48280151492E+03  0.47000000000E+01 0. -1.
         -5   -1    0    0    0  501 -0.00000000000E+00 -0.00000000000E+00 -0.15381338761E+03  0.15388517865E+03  0.47000000000E+01 0.  1.
          6    1    1    2  502    0 -0.15649407347E+03  0.66161979441E+02  0.31146368877E+03  0.39428597741E+03  0.17200000000E+03 0. -1.
         -6    1    1    2    0  502  0.15649407347E+03 -0.66161979441E+02  0.17501561102E+02  0.24240071616E+03  0.17200000000E+03 0.  1.
</event>
<event>
 4    1 -0.6384999E-004  0.1986481E+03  0.7818608E-02  0.1150885E+00
          5   -1    0    0  501    0  0.00000000000E+00  0.00000000000E+00  0.12811926799E+03  0.12820544774E+03  0.47000000000E+01 0. -1.
         -5   -1    0    0    0  501 -0.00000000000E+00 -0.00000000000E+00 -0.44616527964E+03  0.44619003436E+03  0.47000000000E+01 0.  1.
          6    1    1    2  502    0 -0.27466958984E+02 -0.95512397089E+02  0.89529496378E+00  0.19865007774E+03  0.17200000000E+03 0. -1.
         -6    1    1    2    0  502  0.27466958984E+02  0.95512397089E+02 -0.31894130661E+03  0.37574540436E+03  0.17200000000E+03 0.  1.
</event>
<event>
 4    1 -0.6384999E-004  0.2384749E+03  0.7818608E-02  0.1120813E+00
          5   -1    0    0  501    0  0.00000000000E+00  0.00000000000E+00  0.89503677012E+03  0.89504911031E+03  0.47000000000E+01 0. -1.
         -5   -1    0    0    0  501 -0.00000000000E+00 -0.00000000000E+00 -0.63621517290E+02  0.63794885863E+02  0.47000000000E+01 0.  1.
          6    1    1    2  502    0  0.13157952912E+03  0.99865511189E+02  0.39013036437E+03  0.45724391085E+03  0.17200000000E+03 0. -1.
         -6    1    1    2    0  502 -0.13157952912E+03 -0.99865511189E+02  0.44128488846E+03  0.50160008532E+03  0.17200000000E+03 0.  1.
</event>
<event>
 4    1 -0.6384999E-004  0.2756999E+03  0.7818608E-02  0.1098061E+00
         -5   -1    0    0    0  501 -0.00000000000E+00  0.00000000000E+00  0.12015195244E+04  0.12015287169E+04  0.47000000000E+01 0.  1.
          5   -1    0    0  501    0  0.00000000000E+00 -0.00000000000E+00 -0.72437682851E+02  0.72589998600E+02  0.47000000000E+01 0. -1.
          6    1    1    2  502    0 -0.79189895463E+02 -0.20038816485E+03  0.79219672400E+03  0.83880039680E+03  0.17200000000E+03 0.  1.
         -6    1    1    2    0  502  0.79189895463E+02  0.20038816485E+03  0.33688511751E+03  0.43531831865E+03  0.17200000000E+03 0. -1.
</event>
<event>
 4    1 -0.6384999E-004  0.2178499E+03  0.7818608E-02  0.1135496E+00
         -5   -1    0    0    0  501 -0.00000000000E+00  0.00000000000E+00  0.23705378053E+03  0.23710036875E+03  0.47000000000E+01 0.  1.
          5   -1    0    0  501    0  0.00000000000E+00 -0.00000000000E+00 -0.24676962680E+03  0.24681438109E+03  0.47000000000E+01 0. -1.
          6    1    1    2  502    0 -0.49707956376E+02 -0.12411163698E+03 -0.11005133156E+03  0.24406940599E+03  0.17200000000E+03 0. -1.
         -6    1    1    2    0  502  0.49707956376E+02  0.12411163698E+03  0.10033548528E+03  0.23984534385E+03  0.17200000000E+03 0.  1.
</event>
<event>
 4    1 -0.6384999E-004  0.2340512E+03  0.7818608E-02  0.1123820E+00
          5   -1    0    0  501    0  0.00000000000E+00  0.00000000000E+00  0.10412669659E+04  0.10412775731E+04  0.47000000000E+01 0. -1.
         -5   -1    0    0    0  501 -0.00000000000E+00 -0.00000000000E+00 -0.73396730335E+02  0.73547059927E+02  0.47000000000E+01 0.  1.
          6    1    1    2  502    0  0.12958081713E+03  0.91677570795E+02  0.78102340568E+03  0.81533890216E+03  0.17200000000E+03 0. -1.
         -6    1    1    2    0  502 -0.12958081713E+03 -0.91677570795E+02  0.18684682985E+03  0.29948573084E+03  0.17200000000E+03 0.  1.
</event>
<event>
 4    1 -0.6384999E-004  0.1793242E+03  0.7818608E-02  0.1168459E+00
         -5   -1    0    0    0  501 -0.00000000000E+00  0.00000000000E+00  0.43907212749E+03  0.43909728209E+03  0.47000000000E+01 0.  1.
          5   -1    0    0  501    0  0.00000000000E+00 -0.00000000000E+00 -0.20089286267E+03  0.20094783470E+03  0.47000000000E+01 0. -1.
          6    1    1    2  502    0 -0.24911398605E+02 -0.44188090651E+02 -0.13603457587E+03  0.22508347555E+03  0.17200000000E+03 0. -1.
         -6    1    1    2    0  502  0.24911398605E+02  0.44188090651E+02  0.37421384069E+03  0.41496164124E+03  0.17200000000E+03 0.  1.
</event>
<event>
 4    1 -0.6384999E-004  0.1890613E+03  0.7818608E-02  0.1159311E+00
         -5   -1    0    0    0  501 -0.00000000000E+00  0.00000000000E+00  0.12119078121E+03  0.12128188426E+03  0.47000000000E+01 0.  1.
          5   -1    0    0  501    0  0.00000000000E+00 -0.00000000000E+00 -0.29709053065E+03  0.29712770555E+03  0.47000000000E+01 0. -1.
          6    1    1    2  502    0 -0.29914800387E+02 -0.72562279331E+02 -0.10663035185E+03  0.21705808347E+03  0.17200000000E+03 0. -1.
         -6    1    1    2    0  502  0.29914800387E+02  0.72562279331E+02 -0.69269397594E+02  0.20135150634E+03  0.17200000000E+03 0.  1.
</event>
<event>
 4    1 -0.6384999E-004  0.2415581E+03  0.7818608E-02  0.1118759E+00
          5   -1    0    0  501    0  0.00000000000E+00  0.00000000000E+00  0.38709779897E+03  0.38712633076E+03  0.47000000000E+01 0. -1.
         -5   -1    0    0    0  501 -0.00000000000E+00 -0.00000000000E+00 -0.19560642665E+03  0.19566288393E+03  0.47000000000E+01 0.  1.
          6    1    1    2  502    0 -0.95382181599E+02  0.14024454540E+03  0.23538234034E+03  0.33727605789E+03  0.17200000000E+03 0. -1.
         -6    1    1    2    0  502  0.95382181599E+02 -0.14024454540E+03 -0.43890968025E+02  0.24551315679E+03  0.17200000000E+03 0.  1.
</event>
<event>
 4    1 -0.6384999E-004  0.2186918E+03  0.7818608E-02  0.1134862E+00
         -5   -1    0    0    0  501 -0.00000000000E+00  0.00000000000E+00  0.35992773515E+03  0.35995842056E+03  0.47000000000E+01 0.  1.
          5   -1    0    0  501    0  0.00000000000E+00 -0.00000000000E+00 -0.19597279348E+03  0.19602914524E+03  0.47000000000E+01 0. -1.
          6    1    1    2  502    0  0.60972688115E+02 -0.12051731178E+03 -0.75817948909E+02  0.23146155731E+03  0.17200000000E+03 0. -1.
         -6    1    1    2    0  502 -0.60972688115E+02  0.12051731178E+03  0.23977289058E+03  0.32452600850E+03  0.17200000000E+03 0.  1.
</event>
<event>
 4    1 -0.6384999E-004  0.2145487E+03  0.7818608E-02  0.1138014E+00
         -5   -1    0    0    0  501 -0.00000000000E+00  0.00000000000E+00  0.57616591211E+03  0.57618508162E+03  0.47000000000E+01 0.  1.
          5   -1    0    0  501    0  0.00000000000E+00 -0.00000000000E+00 -0.81172116003E+02  0.81308071041E+02  0.47000000000E+01 0. -1.
          6    1    1    2  502    0  0.12289488881E+03 -0.36660275318E+02  0.20483508777E+03  0.29662862752E+03  0.17200000000E+03 0. -1.
         -6    1    1    2    0  502 -0.12289488881E+03  0.36660275318E+02  0.29015870834E+03  0.36086452514E+03  0.17200000000E+03 0.  1.
</event>
<event>
 4    1 -0.6384999E-004  0.2802912E+03  0.7818608E-02  0.1095530E+00
          5   -1    0    0  501    0  0.00000000000E+00  0.00000000000E+00  0.63733015533E+03  0.63734748520E+03  0.47000000000E+01 0. -1.
         -5   -1    0    0    0  501 -0.00000000000E+00 -0.00000000000E+00 -0.20074693022E+03  0.20080194220E+03  0.47000000000E+01 0.  1.
          6    1    1    2  502    0 -0.22099036115E+03  0.11934961675E+02  0.47868937714E+03  0.55471317166E+03  0.17200000000E+03 0. -1.
         -6    1    1    2    0  502  0.22099036115E+03 -0.11934961675E+02 -0.42106152027E+02  0.28343625574E+03  0.17200000000E+03 0.  1.
</event>
<event>
 4    1 -0.6384999E-004  0.2482594E+03  0.7818608E-02  0.1114410E+00
         -5   -1    0    0    0  501 -0.00000000000E+00  0.00000000000E+00  0.14739095662E+03  0.14746587434E+03  0.47000000000E+01 0.  1.
          5   -1    0    0  501    0  0.00000000000E+00 -0.00000000000E+00 -0.52924565470E+03  0.52926652361E+03  0.47000000000E+01 0. -1.
          6    1    1    2  502    0 -0.16923677816E+03 -0.58375101196E+02 -0.34606956438E+03  0.42590712945E+03  0.17200000000E+03 0. -1.
         -6    1    1    2    0  502  0.16923677816E+03  0.58375101196E+02 -0.35785133688E+02  0.25082526850E+03  0.17200000000E+03 0.  1.
</event>
<event>
 4    1 -0.6384999E-004  0.2283019E+03  0.7818608E-02  0.1127841E+00
         -5   -1    0    0    0  501 -0.00000000000E+00  0.00000000000E+00  0.86823833160E+03  0.86825105267E+03  0.47000000000E+01 0.  1.
          5   -1    0    0  501    0  0.00000000000E+00 -0.00000000000E+00 -0.67803809208E+02  0.67966510453E+02  0.47000000000E+01 0. -1.
          6    1    1    2  502    0  0.77964001601E+02 -0.12829414979E+03  0.24088110221E+03  0.33188172565E+03  0.17200000000E+03 0. -1.
         -6    1    1    2    0  502 -0.77964001601E+02  0.12829414979E+03  0.55955342018E+03  0.60433583747E+03  0.17200000000E+03 0.  1.
</event>
<event>
 4    1 -0.6384999E-004  0.3423708E+03  0.7818608E-02  0.1065791E+00
          5   -1    0    0  501    0  0.00000000000E+00  0.00000000000E+00  0.20020905568E+04  0.20020960736E+04  0.47000000000E+01 0. -1.
         -5   -1    0    0    0  501 -0.00000000000E+00 -0.00000000000E+00 -0.61554087925E+02  0.61733262835E+02  0.47000000000E+01 0.  1.
          6    1    1    2  502    0 -0.17549232091E+03 -0.23840350241E+03  0.73881059032E+03  0.81428427040E+03  0.17200000000E+03 0. -1.
         -6    1    1    2    0  502  0.17549232091E+03  0.23840350241E+03  0.12017258786E+04  0.12495450660E+04  0.17200000000E+03 0.  1.
</event>
<event>
 4    1 -0.6384999E-004  0.2529488E+03  0.7818608E-02  0.1111455E+00
         -5   -1    0    0    0  501 -0.00000000000E+00  0.00000000000E+00  0.56121012856E+03  0.56122980890E+03  0.47000000000E+01 0.  1.
          5   -1    0    0  501    0  0.00000000000E+00 -0.00000000000E+00 -0.20444777516E+03  0.20450179160E+03  0.47000000000E+01 0. -1.
          6    1    1    2  502    0  0.15355168193E+03  0.10402388736E+03 -0.76301643122E+02  0.26420641345E+03  0.17200000000E+03 0. -1.
         -6    1    1    2    0  502 -0.15355168193E+03 -0.10402388736E+03  0.43306399652E+03  0.50152518705E+03  0.17200000000E+03 0.  1.
</event>
<event>
 4    1 -0.6384999E-004  0.1726151E+03  0.7818608E-02  0.1175148E+00
         -5   -1    0    0    0  501 -0.00000000000E+00  0.00000000000E+00  0.56787272775E+03  0.56789217720E+03  0.47000000000E+01 0.  1.
          5   -1    0    0  501    0  0.00000000000E+00 -0.00000000000E+00 -0.55738305018E+02  0.55936112184E+02  0.47000000000E+01 0. -1.
          6    1    1    2  502    0  0.64645371535E+01 -0.13045407222E+02  0.33288748817E+03  0.37498006970E+03  0.17200000000E+03 0.  1.
         -6    1    1    2    0  502 -0.64645371535E+01  0.13045407222E+02  0.17924693456E+03  0.24884821968E+03  0.17200000000E+03 0. -1.
</event>
<event>
 4    1 -0.6384999E-004  0.3867946E+03  0.7818608E-02  0.1048451E+00
         -5   -1    0    0    0  501 -0.00000000000E+00  0.00000000000E+00  0.31697057313E+03  0.31700541672E+03  0.47000000000E+01 0.  1.
          5   -1    0    0  501    0  0.00000000000E+00 -0.00000000000E+00 -0.47195691160E+03  0.47198031358E+03  0.47000000000E+01 0. -1.
          6    1    1    2  502    0  0.12994306754E+03  0.32115550961E+03 -0.74371760741E+02  0.39387970365E+03  0.17200000000E+03 0. -1.
         -6    1    1    2    0  502 -0.12994306754E+03 -0.32115550961E+03 -0.80614577727E+02  0.39510602665E+03  0.17200000000E+03 0. -1.
</event>
<event>
 4    1 -0.6384999E-004  0.3258970E+03  0.7818608E-02  0.1072967E+00
          5   -1    0    0  501    0  0.00000000000E+00  0.00000000000E+00  0.21688220292E+03  0.21693312321E+03  0.47000000000E+01 0. -1.
         -5   -1    0    0    0  501 -0.00000000000E+00 -0.00000000000E+00 -0.10180928368E+04  0.10181036855E+04  0.47000000000E+01 0.  1.
          6    1    1    2  502    0 -0.19459550470E+03 -0.19686902862E+03  0.44298754883E+02  0.32889391080E+03  0.17200000000E+03 0. -1.
         -6    1    1    2    0  502  0.19459550470E+03  0.19686902862E+03 -0.84550938877E+03  0.90614289788E+03  0.17200000000E+03 0.  1.
</event>
<event>
 4    1 -0.6384999E-004  0.2083940E+03  0.7818608E-02  0.1142844E+00
          5   -1    0    0  501    0  0.00000000000E+00  0.00000000000E+00  0.99252231210E+02  0.99363451028E+02  0.47000000000E+01 0. -1.
         -5   -1    0    0    0  501 -0.00000000000E+00 -0.00000000000E+00 -0.55244499304E+03  0.55246498562E+03  0.47000000000E+01 0.  1.
          6    1    1    2  502    0 -0.62554038562E+02  0.99654665171E+02 -0.77746634189E+02  0.22242436728E+03  0.17200000000E+03 0. -1.
         -6    1    1    2    0  502  0.62554038562E+02 -0.99654665171E+02 -0.37544612764E+03  0.42940406937E+03  0.17200000000E+03 0.  1.
</event>
<event>
 4    1 -0.6384999E-004  0.8012720E+03  0.7818608E-02  0.9558178E-01
         -5   -1    0    0    0  501 -0.00000000000E+00  0.00000000000E+00  0.12390830694E+04  0.12390919832E+04  0.47000000000E+01 0.  1.
          5   -1    0    0  501    0  0.00000000000E+00 -0.00000000000E+00 -0.66051672534E+03  0.66053344688E+03  0.47000000000E+01 0. -1.
          6    1    1    2  502    0  0.15266562733E+03  0.76755846604E+03 -0.15169446459E+03  0.81550475360E+03  0.17200000000E+03 0. -1.
         -6    1    1    2    0  502 -0.15266562733E+03 -0.76755846604E+03  0.73026080865E+03  0.10841206765E+04  0.17200000000E+03 0.  1.
</event>
<event>
 4    1 -0.6384999E-004  0.2169992E+03  0.7818608E-02  0.1136140E+00
          5   -1    0    0  501    0  0.00000000000E+00  0.00000000000E+00  0.28328949748E+02  0.28716186965E+02  0.47000000000E+01 0. -1.
         -5   -1    0    0    0  501 -0.00000000000E+00 -0.00000000000E+00 -0.17411820223E+04  0.17411883657E+04  0.47000000000E+01 0.  1.
          6    1    1    2  502    0  0.31636797407E+02 -0.12846693114E+03 -0.65453163439E+03  0.68956529768E+03  0.17200000000E+03 0. -1.
         -6    1    1    2    0  502 -0.31636797407E+02  0.12846693114E+03 -0.10583214382E+04  0.10803392550E+04  0.17200000000E+03 0.  1.
</event>
<event>
 4    1 -0.6384999E-004  0.1976416E+03  0.7818608E-02  0.1151744E+00
         -5   -1    0    0    0  501 -0.00000000000E+00  0.00000000000E+00  0.12015514835E+04  0.12015606758E+04  0.47000000000E+01 0.  1.
          5   -1    0    0  501    0  0.00000000000E+00 -0.00000000000E+00 -0.34374984714E+02  0.34694806155E+02  0.47000000000E+01 0. -1.
          6    1    1    2  502    0  0.50589063711E+02 -0.83180195912E+02  0.43358146685E+03  0.47650297665E+03  0.17200000000E+03 0. -1.
         -6    1    1    2    0  502 -0.50589063711E+02  0.83180195912E+02  0.73359503197E+03  0.75975250529E+03  0.17200000000E+03 0.  1.
</event>
<event>
 4    1 -0.6384999E-004  0.2056435E+03  0.7818608E-02  0.1145063E+00
          5   -1    0    0  501    0  0.00000000000E+00  0.00000000000E+00  0.11215259269E+04  0.11215357750E+04  0.47000000000E+01 0. -1.
         -5   -1    0    0    0  501 -0.00000000000E+00 -0.00000000000E+00 -0.42498005347E+02  0.42757110034E+02  0.47000000000E+01 0.  1.
          6    1    1    2  502    0  0.11080055022E+03  0.20699454685E+02  0.73748029944E+03  0.76561506086E+03  0.17200000000E+03 0. -1.
         -6    1    1    2    0  502 -0.11080055022E+03 -0.20699454685E+02  0.34154762209E+03  0.39867782420E+03  0.17200000000E+03 0.  1.
</event>
<event>
 4    1 -0.6384999E-004  0.2794114E+03  0.7818608E-02  0.1096011E+00
          5   -1    0    0  501    0  0.00000000000E+00  0.00000000000E+00  0.75822116463E+03  0.75823573148E+03  0.47000000000E+01 0. -1.
         -5   -1    0    0    0  501 -0.00000000000E+00 -0.00000000000E+00 -0.22613573118E+03  0.22618456826E+03  0.47000000000E+01 0.  1.
          6    1    1    2  502    0  0.14752435035E+03  0.16347262905E+03  0.62933118820E+03  0.68856987941E+03  0.17200000000E+03 0. -1.
         -6    1    1    2    0  502 -0.14752435035E+03 -0.16347262905E+03 -0.97245754746E+02  0.29585042033E+03  0.17200000000E+03 0.  1.
</event>
<event>
 4    1 -0.6384999E-004  0.5266070E+03  0.7818608E-02  0.1007058E+00
         -5   -1    0    0    0  501 -0.00000000000E+00  0.00000000000E+00  0.90073410902E+03  0.90074637115E+03  0.47000000000E+01 0.  1.
          5   -1    0    0  501    0  0.00000000000E+00 -0.00000000000E+00 -0.31148783955E+03  0.31152329638E+03  0.47000000000E+01 0. -1.
          6    1    1    2  502    0  0.79093822119E+02  0.49140112783E+03  0.22907197810E+03  0.57427247216E+03  0.17200000000E+03 0. -1.
         -6    1    1    2    0  502 -0.79093822119E+02 -0.49140112783E+03  0.36017429137E+03  0.63799719537E+03  0.17200000000E+03 0.  1.
</event>
<event>
 4    1 -0.6384999E-004  0.8686694E+03  0.7818608E-02  0.9465616E-01
          5   -1    0    0  501    0  0.00000000000E+00  0.00000000000E+00  0.74404636143E+03  0.74406120578E+03  0.47000000000E+01 0. -1.
         -5   -1    0    0    0  501 -0.00000000000E+00 -0.00000000000E+00 -0.13099538444E+04  0.13099622759E+04  0.47000000000E+01 0.  1.
          6    1    1    2  502    0  0.51597626349E+03 -0.67732638916E+03 -0.77099418412E+03  0.11614725885E+04  0.17200000000E+03 0. -1.
         -6    1    1    2    0  502 -0.51597626349E+03  0.67732638916E+03  0.20508670119E+03  0.89255089319E+03  0.17200000000E+03 0.  1.
</event>
<event>
 4    1 -0.6384999E-004  0.1872077E+03  0.7818608E-02  0.1161004E+00
         -5   -1    0    0    0  501 -0.00000000000E+00  0.00000000000E+00  0.33215291045E+02  0.33546170559E+02  0.47000000000E+01 0.  1.
          5   -1    0    0  501    0  0.00000000000E+00 -0.00000000000E+00 -0.17739999419E+04  0.17740061679E+04  0.47000000000E+01 0. -1.
          6    1    1    2  502    0 -0.24737266686E+02  0.69647589386E+02 -0.14478763834E+04  0.14599290191E+04  0.17200000000E+03 0. -1.
         -6    1    1    2    0  502  0.24737266686E+02 -0.69647589386E+02 -0.29290826744E+03  0.34762331942E+03  0.17200000000E+03 0. -1.
</event>
<event>
 4    1 -0.6384999E-004  0.2665010E+03  0.7818608E-02  0.1103299E+00
         -5   -1    0    0    0  501 -0.00000000000E+00  0.00000000000E+00  0.46280749227E+03  0.46283135687E+03  0.47000000000E+01 0.  1.
          5   -1    0    0  501    0  0.00000000000E+00 -0.00000000000E+00 -0.39482408923E+03  0.39485206273E+03  0.47000000000E+01 0. -1.
          6    1    1    2  502    0 -0.17612197928E+03  0.10207763962E+03 -0.30131916054E+03  0.40226363570E+03  0.17200000000E+03 0. -1.
         -6    1    1    2    0  502  0.17612197928E+03 -0.10207763962E+03  0.36930256359E+03  0.45541978390E+03  0.17200000000E+03 0.  1.
</event>
<event>
 4    1 -0.6384999E-004  0.1934598E+03  0.7818608E-02  0.1155377E+00
          5   -1    0    0  501    0  0.00000000000E+00  0.00000000000E+00  0.12031488195E+03  0.12040664773E+03  0.47000000000E+01 0. -1.
         -5   -1    0    0    0  501 -0.00000000000E+00 -0.00000000000E+00 -0.46937029733E+03  0.46939382826E+03  0.47000000000E+01 0.  1.
          6    1    1    2  502    0  0.46928986253E+02  0.75102463742E+02 -0.31672244585E+01  0.19348576465E+03  0.17200000000E+03 0. -1.
         -6    1    1    2    0  502 -0.46928986253E+02 -0.75102463742E+02 -0.34588819092E+03  0.39631471135E+03  0.17200000000E+03 0.  1.
</event>
<event>
 4    1 -0.6384999E-004  0.1833071E+03  0.7818608E-02  0.1164640E+00
          5   -1    0    0  501    0  0.00000000000E+00  0.00000000000E+00  0.39715358180E+02  0.39992495238E+02  0.47000000000E+01 0. -1.
         -5   -1    0    0    0  501 -0.00000000000E+00 -0.00000000000E+00 -0.10057306636E+04  0.10057416456E+04  0.47000000000E+01 0.  1.
          6    1    1    2  502    0 -0.82148114990E+01  0.62849144882E+02 -0.27260757893E+03  0.32850630166E+03  0.17200000000E+03 0.  1.
         -6    1    1    2    0  502  0.82148114990E+01 -0.62849144882E+02 -0.69340772644E+03  0.71722783914E+03  0.17200000000E+03 0.  1.
</event>
<event>
 4    1 -0.6384999E-004  0.2132709E+03  0.7818608E-02  0.1139002E+00
          5   -1    0    0  501    0  0.00000000000E+00  0.00000000000E+00  0.12671526011E+03  0.12680239408E+03  0.47000000000E+01 0. -1.
         -5   -1    0    0    0  501 -0.00000000000E+00 -0.00000000000E+00 -0.46164382767E+03  0.46166775243E+03  0.47000000000E+01 0.  1.
          6    1    1    2  502    0 -0.92701592384E+02 -0.85480308082E+02 -0.28553498457E+02  0.21517381480E+03  0.17200000000E+03 0. -1.
         -6    1    1    2    0  502  0.92701592384E+02  0.85480308082E+02 -0.30637506910E+03  0.37329633171E+03  0.17200000000E+03 0.  1.
</event>
<event>
 4    1 -0.6384999E-004  0.2204295E+03  0.7818608E-02  0.1133563E+00
          5   -1    0    0  501    0  0.00000000000E+00  0.00000000000E+00  0.19339226249E+03  0.19344936596E+03  0.47000000000E+01 0. -1.
         -5   -1    0    0    0  501 -0.00000000000E+00 -0.00000000000E+00 -0.26171242111E+03  0.26175462052E+03  0.47000000000E+01 0.  1.
          6    1    1    2  502    0  0.11059467681E+03  0.82304238782E+02  0.11597434036E+02  0.22073438956E+03  0.17200000000E+03 0. -1.
         -6    1    1    2    0  502 -0.11059467681E+03 -0.82304238782E+02 -0.79917592661E+02  0.23446959691E+03  0.17200000000E+03 0.  1.
</event>
<event>
 4    1 -0.6384999E-004  0.2236031E+03  0.7818608E-02  0.1131225E+00
          5   -1    0    0  501    0  0.00000000000E+00  0.00000000000E+00  0.83031721187E+02  0.83164636255E+02  0.47000000000E+01 0. -1.
         -5   -1    0    0    0  501 -0.00000000000E+00 -0.00000000000E+00 -0.10794886318E+04  0.10794988635E+04  0.47000000000E+01 0.  1.
          6    1    1    2  502    0  0.72362733745E+01 -0.14269542913E+03 -0.11143612732E+03  0.24983266323E+03  0.17200000000E+03 0. -1.
         -6    1    1    2    0  502 -0.72362733745E+01  0.14269542913E+03 -0.88502078333E+03  0.91283083651E+03  0.17200000000E+03 0.  1.
</event>
<event>
 4    1 -0.6384999E-004  0.2268149E+03  0.7818608E-02  0.1128902E+00
         -5   -1    0    0    0  501 -0.00000000000E+00  0.00000000000E+00  0.10224551707E+03  0.10235348436E+03  0.47000000000E+01 0.  1.
          5   -1    0    0  501    0  0.00000000000E+00 -0.00000000000E+00 -0.55700942871E+03  0.55702925746E+03  0.47000000000E+01 0. -1.
          6    1    1    2  502    0  0.40451274983E+01 -0.14779931054E+03 -0.12451047982E+03  0.25874284307E+03  0.17200000000E+03 0. -1.
         -6    1    1    2    0  502 -0.40451274983E+01  0.14779931054E+03 -0.33025343181E+03  0.40063989876E+03  0.17200000000E+03 0. -1.
</event>
<event>
 4    1 -0.6384999E-004  0.2280530E+03  0.7818608E-02  0.1128018E+00
         -5   -1    0    0    0  501 -0.00000000000E+00  0.00000000000E+00  0.41949462080E+02  0.42211933962E+02  0.47000000000E+01 0.  1.
          5   -1    0    0  501    0  0.00000000000E+00 -0.00000000000E+00 -0.14120883542E+04  0.14120961759E+04  0.47000000000E+01 0. -1.
          6    1    1    2  502    0 -0.13292319526E+03 -0.68960983634E+02 -0.94208058901E+03  0.96929047725E+03  0.17200000000E+03 0. -1.
         -6    1    1    2    0  502  0.13292319526E+03  0.68960983634E+02 -0.42805830308E+03  0.48501763261E+03  0.17200000000E+03 0.  1.
</event>
<event>
 4    1 -0.6384999E-004  0.2335897E+03  0.7818608E-02  0.1124138E+00
          5   -1    0    0  501    0  0.00000000000E+00  0.00000000000E+00  0.64207594000E+03  0.64209314178E+03  0.47000000000E+01 0. -1.
         -5   -1    0    0    0  501 -0.00000000000E+00 -0.00000000000E+00 -0.17351208420E+03  0.17357572804E+03  0.47000000000E+01 0.  1.
          6    1    1    2  502    0 -0.10470131506E+03  0.11839673346E+03  0.52564128770E+03  0.57520684558E+03  0.17200000000E+03 0. -1.
         -6    1    1    2    0  502  0.10470131506E+03 -0.11839673346E+03 -0.57077431904E+02  0.24046202424E+03  0.17200000000E+03 0.  1.
</event>
<event>
 4    1 -0.6384999E-004  0.2392493E+03  0.7818608E-02  0.1120294E+00
          5   -1    0    0  501    0  0.00000000000E+00  0.00000000000E+00  0.16479502770E+04  0.16479569792E+04  0.47000000000E+01 0. -1.
         -5   -1    0    0    0  501 -0.00000000000E+00 -0.00000000000E+00 -0.36079937184E+02  0.36384775212E+02  0.47000000000E+01 0.  1.
          6    1    1    2  502    0 -0.12103564583E+03 -0.11404650992E+03  0.97755595032E+03  0.10064074076E+04  0.17200000000E+03 0. -1.
         -6    1    1    2    0  502  0.12103564583E+03  0.11404650992E+03  0.63431438947E+03  0.67793434687E+03  0.17200000000E+03 0.  1.
</event>
<event>
 4    1 -0.6384999E-004  0.2628084E+03  0.7818608E-02  0.1105468E+00
         -5   -1    0    0    0  501 -0.00000000000E+00  0.00000000000E+00  0.15009495107E+03  0.15016851979E+03  0.47000000000E+01 0.  1.
          5   -1    0    0  501    0  0.00000000000E+00 -0.00000000000E+00 -0.45996947629E+03  0.45999348813E+03  0.47000000000E+01 0. -1.
          6    1    1    2  502    0  0.35916279245E+02  0.19543355979E+03 -0.15403193460E+03  0.30462122756E+03  0.17200000000E+03 0. -1.
         -6    1    1    2    0  502 -0.35916279245E+02 -0.19543355979E+03 -0.15584259062E+03  0.30554078035E+03  0.17200000000E+03 0.  1.
</event>
<event>
 4    1 -0.6384999E-004  0.2216665E+03  0.7818608E-02  0.1132647E+00
         -5   -1    0    0    0  501 -0.00000000000E+00  0.00000000000E+00  0.11638528530E+04  0.11638623430E+04  0.47000000000E+01 0.  1.
          5   -1    0    0  501    0  0.00000000000E+00 -0.00000000000E+00 -0.53064614213E+02  0.53272350066E+02  0.47000000000E+01 0. -1.
          6    1    1    2  502    0 -0.41545795514E+02  0.13351392540E+03  0.27911841022E+03  0.35643107093E+03  0.17200000000E+03 0. -1.
         -6    1    1    2    0  502  0.41545795514E+02 -0.13351392540E+03  0.83166982853E+03  0.86070362210E+03  0.17200000000E+03 0.  1.
</event>
<event>
 4    1 -0.6384999E-004  0.1981546E+03  0.7818608E-02  0.1151305E+00
          5   -1    0    0  501    0  0.00000000000E+00  0.00000000000E+00  0.73663831021E+02  0.73813616635E+02  0.47000000000E+01 0. -1.
         -5   -1    0    0    0  501 -0.00000000000E+00 -0.00000000000E+00 -0.54595028376E+03  0.54597051416E+03  0.47000000000E+01 0.  1.
          6    1    1    2  502    0 -0.27696683821E+01  0.98354310101E+02 -0.28508036271E+03  0.34718302750E+03  0.17200000000E+03 0. -1.
         -6    1    1    2    0  502  0.27696683821E+01 -0.98354310101E+02 -0.18720609002E+03  0.27260110330E+03  0.17200000000E+03 0. -1.
</event>
<event>
 4    1 -0.6384999E-004  0.3360004E+03  0.7818608E-02  0.1068512E+00
         -5   -1    0    0    0  501 -0.00000000000E+00  0.00000000000E+00  0.18716180671E+03  0.18722081052E+03  0.47000000000E+01 0.  1.
          5   -1    0    0  501    0  0.00000000000E+00 -0.00000000000E+00 -0.10857417070E+04  0.10857518797E+04  0.47000000000E+01 0. -1.
          6    1    1    2  502    0 -0.27705042780E+03  0.80965117376E+02 -0.87366648154E+03  0.93604989757E+03  0.17200000000E+03 0. -1.
         -6    1    1    2    0  502  0.27705042780E+03 -0.80965117376E+02 -0.24913418732E+02  0.33692279265E+03  0.17200000000E+03 0.  1.
</event>
<event>
 4    1 -0.6384999E-004  0.1916401E+03  0.7818608E-02  0.1156990E+00
         -5   -1    0    0    0  501 -0.00000000000E+00  0.00000000000E+00  0.39843318100E+03  0.39846090112E+03  0.47000000000E+01 0.  1.
          5   -1    0    0  501    0  0.00000000000E+00 -0.00000000000E+00 -0.93501359281E+02  0.93619411382E+02  0.47000000000E+01 0. -1.
          6    1    1    2  502    0 -0.29724279436E+02 -0.79110030876E+02  0.12220791319E+03  0.22728991139E+03  0.17200000000E+03 0. -1.
         -6    1    1    2    0  502  0.29724279436E+02  0.79110030876E+02  0.18272390853E+03  0.26479040111E+03  0.17200000000E+03 0.  1.
</event>
<event>
 4    1 -0.6384999E-004  0.1929456E+03  0.7818608E-02  0.1155831E+00
          5   -1    0    0  501    0  0.00000000000E+00  0.00000000000E+00  0.54925016319E+02  0.55125741879E+02  0.47000000000E+01 0. -1.
         -5   -1    0    0    0  501 -0.00000000000E+00 -0.00000000000E+00 -0.68002349948E+03  0.68003974137E+03  0.47000000000E+01 0.  1.
          6    1    1    2  502    0 -0.86017982988E+02 -0.15649355785E+02 -0.28554251150E+03  0.34461938658E+03  0.17200000000E+03 0.  1.
         -6    1    1    2    0  502  0.86017982988E+02  0.15649355785E+02 -0.33955597166E+03  0.39054609667E+03  0.17200000000E+03 0. -1.
</event>
<event>
 4    1 -0.6384999E-004  0.2288156E+03  0.7818608E-02  0.1127476E+00
          5   -1    0    0  501    0  0.00000000000E+00  0.00000000000E+00  0.17245665777E+03  0.17252069096E+03  0.47000000000E+01 0. -1.
         -5   -1    0    0    0  501 -0.00000000000E+00 -0.00000000000E+00 -0.35597099378E+03  0.35600202023E+03  0.47000000000E+01 0.  1.
          6    1    1    2  502    0 -0.86650346274E+02 -0.12354868419E+03  0.97313068532E+01  0.22902239674E+03  0.17200000000E+03 0. -1.
         -6    1    1    2    0  502  0.86650346274E+02  0.12354868419E+03 -0.19324564286E+03  0.29950031445E+03  0.17200000000E+03 0.  1.
</event>
<event>
 4    1 -0.6384999E-004  0.1759317E+03  0.7818608E-02  0.1171799E+00
         -5   -1    0    0    0  501 -0.00000000000E+00  0.00000000000E+00  0.16848441252E+03  0.16854995480E+03  0.47000000000E+01 0.  1.
          5   -1    0    0  501    0  0.00000000000E+00 -0.00000000000E+00 -0.19602772796E+03  0.19608406394E+03  0.47000000000E+01 0. -1.
          6    1    1    2  502    0  0.11766289685E+02  0.35064366026E+02 -0.59705488565E+02  0.18578670755E+03  0.17200000000E+03 0. -1.
         -6    1    1    2    0  502 -0.11766289685E+02 -0.35064366026E+02  0.32162173122E+02  0.17884731118E+03  0.17200000000E+03 0.  1.
</event>
<event>
 4    1 -0.6384999E-004  0.2049019E+03  0.7818608E-02  0.1145668E+00
          5   -1    0    0  501    0  0.00000000000E+00  0.00000000000E+00  0.19358774598E+03  0.19364479181E+03  0.47000000000E+01 0. -1.
         -5   -1    0    0    0  501 -0.00000000000E+00 -0.00000000000E+00 -0.21758752167E+03  0.21763827693E+03  0.47000000000E+01 0.  1.
          6    1    1    2  502    0  0.95103703226E+02  0.57931790243E+02  0.65641893088E+00  0.20490299552E+03  0.17200000000E+03 0. -1.
         -6    1    1    2    0  502 -0.95103703226E+02 -0.57931790243E+02 -0.24656194620E+02  0.20638007322E+03  0.17200000000E+03 0.  1.
</event>
<event>
 4    1 -0.6384999E-004  0.2685112E+03  0.7818608E-02  0.1102135E+00
         -5   -1    0    0    0  501 -0.00000000000E+00  0.00000000000E+00  0.10157390436E+04  0.10157499174E+04  0.47000000000E+01 0.  1.
          5   -1    0    0  501    0  0.00000000000E+00 -0.00000000000E+00 -0.77444133290E+02  0.77586621147E+02  0.47000000000E+01 0. -1.
          6    1    1    2  502    0 -0.19554266977E+03  0.65401421773E+02  0.31030313257E+03  0.41034901701E+03  0.17200000000E+03 0. -1.
         -6    1    1    2    0  502  0.19554266977E+03 -0.65401421773E+02  0.62799177770E+03  0.68298752150E+03  0.17200000000E+03 0.  1.
</event>
<event>
 4    1 -0.6384999E-004  0.1876330E+03  0.7818608E-02  0.1160614E+00
         -5   -1    0    0    0  501 -0.00000000000E+00  0.00000000000E+00  0.78748144782E+03  0.78749547342E+03  0.47000000000E+01 0.  1.
          5   -1    0    0  501    0  0.00000000000E+00 -0.00000000000E+00 -0.10450596129E+03  0.10461159565E+03  0.47000000000E+01 0. -1.
          6    1    1    2  502    0 -0.71187903058E+02  0.23546417116E+02  0.39926539893E+01  0.18767549810E+03  0.17200000000E+03 0. -1.
         -6    1    1    2    0  502  0.71187903058E+02 -0.23546417116E+02  0.67898283254E+03  0.70443157097E+03  0.17200000000E+03 0.  1.
</event>
<event>
 4    1 -0.6384999E-004  0.1767958E+03  0.7818608E-02  0.1170941E+00
         -5   -1    0    0    0  501 -0.00000000000E+00  0.00000000000E+00  0.11465579437E+03  0.11475208574E+03  0.47000000000E+01 0.  1.
          5   -1    0    0  501    0  0.00000000000E+00 -0.00000000000E+00 -0.32221628584E+03  0.32225056223E+03  0.47000000000E+01 0. -1.
          6    1    1    2  502    0 -0.40888201555E+02 -0.95130106931E+00 -0.18969167199E+03  0.25930615192E+03  0.17200000000E+03 0. -1.
         -6    1    1    2    0  502  0.40888201555E+02  0.95130106931E+00 -0.17868819474E+02  0.17769649605E+03  0.17200000000E+03 0.  1.
</event>
<event>
 4    1 -0.6384999E-004  0.2681817E+03  0.7818608E-02  0.1102325E+00
          5   -1    0    0  501    0  0.00000000000E+00  0.00000000000E+00  0.18597741300E+03  0.18603679245E+03  0.47000000000E+01 0. -1.
         -5   -1    0    0    0  501 -0.00000000000E+00 -0.00000000000E+00 -0.42157283176E+03  0.42159903045E+03  0.47000000000E+01 0.  1.
          6    1    1    2  502    0 -0.19965273318E+03  0.49761675854E+02 -0.20531319103E+03  0.33774982555E+03  0.17200000000E+03 0.  1.
         -6    1    1    2    0  502  0.19965273318E+03 -0.49761675854E+02 -0.30282227736E+02  0.26988599735E+03  0.17200000000E+03 0.  1.
</event>
<event>
 4    1 -0.6384999E-004  0.1784767E+03  0.7818608E-02  0.1169285E+00
          5   -1    0    0  501    0  0.00000000000E+00  0.00000000000E+00  0.97923173474E+02  0.98035901093E+02  0.47000000000E+01 0. -1.
         -5   -1    0    0    0  501 -0.00000000000E+00 -0.00000000000E+00 -0.32579029425E+03  0.32582419467E+03  0.47000000000E+01 0.  1.
          6    1    1    2  502    0 -0.38540592482E+02 -0.28009998675E+02 -0.12451133059E+03  0.21761665548E+03  0.17200000000E+03 0.  1.
         -6    1    1    2    0  502  0.38540592482E+02  0.28009998675E+02 -0.10335579019E+03  0.20624344028E+03  0.17200000000E+03 0.  1.
</event>
<event>
 4    1 -0.6384999E-004  0.1912251E+03  0.7818608E-02  0.1157361E+00
          5   -1    0    0  501    0  0.00000000000E+00  0.00000000000E+00  0.22752156292E+03  0.22757010259E+03  0.47000000000E+01 0. -1.
         -5   -1    0    0    0  501 -0.00000000000E+00 -0.00000000000E+00 -0.31792806033E+03  0.31796279899E+03  0.47000000000E+01 0.  1.
          6    1    1    2  502    0  0.54156488938E+02 -0.63640467333E+02  0.14663491372E+03  0.24097475448E+03  0.17200000000E+03 0. -1.
         -6    1    1    2    0  502 -0.54156488938E+02  0.63640467333E+02 -0.23704141113E+03  0.30455814710E+03  0.17200000000E+03 0.  1.
</event>
<event>
 4    1 -0.6384999E-004  0.1876487E+03  0.7818608E-02  0.1160599E+00
         -5   -1    0    0    0  501 -0.00000000000E+00  0.00000000000E+00  0.10653140786E+04  0.10653244464E+04  0.47000000000E+01 0.  1.
          5   -1    0    0  501    0  0.00000000000E+00 -0.00000000000E+00 -0.44745215369E+02  0.44991380268E+02  0.47000000000E+01 0. -1.
          6    1    1    2  502    0 -0.45874393821E+02 -0.59359845269E+02  0.22530832592E+03  0.29321646094E+03  0.17200000000E+03 0. -1.
         -6    1    1    2    0  502  0.45874393821E+02  0.59359845269E+02  0.79526053730E+03  0.81709936570E+03  0.17200000000E+03 0.  1.
</event>
<event>
 4    1 -0.6384999E-004  0.2053362E+03  0.7818608E-02  0.1145313E+00
         -5   -1    0    0    0  501 -0.00000000000E+00  0.00000000000E+00  0.16042001925E+04  0.16042070775E+04  0.47000000000E+01 0.  1.
          5   -1    0    0  501    0  0.00000000000E+00 -0.00000000000E+00 -0.45549681223E+02  0.45791521699E+02  0.47000000000E+01 0. -1.
          6    1    1    2  502    0 -0.10800107704E+03 -0.30244119749E+02  0.24174410667E+03  0.31718000021E+03  0.17200000000E+03 0.  1.
         -6    1    1    2    0  502  0.10800107704E+03  0.30244119749E+02  0.13169064046E+04  0.13328185990E+04  0.17200000000E+03 0.  1.
</event>
<event>
 4    1 -0.6384999E-004  0.3415556E+03  0.7818608E-02  0.1066135E+00
          5   -1    0    0  501    0  0.00000000000E+00  0.00000000000E+00  0.14593541367E+03  0.14601107822E+03  0.47000000000E+01 0. -1.
         -5   -1    0    0    0  501 -0.00000000000E+00 -0.00000000000E+00 -0.80609728366E+03  0.80611098536E+03  0.47000000000E+01 0.  1.
          6    1    1    2  502    0  0.37007364484E+02 -0.29275708130E+03 -0.37441130634E+03  0.50679786897E+03  0.17200000000E+03 0. -1.
         -6    1    1    2    0  502 -0.37007364484E+02  0.29275708130E+03 -0.28575056365E+03  0.44532419461E+03  0.17200000000E+03 0.  1.
</event>
<event>
 4    1 -0.6384999E-004  0.2309799E+03  0.7818608E-02  0.1125952E+00
         -5   -1    0    0    0  501 -0.00000000000E+00  0.00000000000E+00  0.10440793954E+03  0.10451367298E+03  0.47000000000E+01 0.  1.
          5   -1    0    0  501    0  0.00000000000E+00 -0.00000000000E+00 -0.90063030666E+03  0.90064257021E+03  0.47000000000E+01 0. -1.
          6    1    1    2  502    0 -0.90246289841E+02  0.12499324445E+03 -0.72881566950E+03  0.76454168238E+03  0.17200000000E+03 0. -1.
         -6    1    1    2    0  502  0.90246289841E+02 -0.12499324445E+03 -0.67406697617E+02  0.24061456081E+03  0.17200000000E+03 0.  1.
</event>
<event>
 4    1 -0.6384999E-004  0.3009534E+03  0.7818608E-02  0.1084765E+00
          5   -1    0    0  501    0  0.00000000000E+00  0.00000000000E+00  0.11593400323E+03  0.11602923384E+03  0.47000000000E+01 0. -1.
         -5   -1    0    0    0  501 -0.00000000000E+00 -0.00000000000E+00 -0.83675281155E+03  0.83676601128E+03  0.47000000000E+01 0.  1.
          6    1    1    2  502    0  0.13113601254E+03  0.20926615840E+03 -0.23725087803E+03  0.38322442245E+03  0.17200000000E+03 0. -1.
         -6    1    1    2    0  502 -0.13113601254E+03 -0.20926615840E+03 -0.48356793029E+03  0.56957082267E+03  0.17200000000E+03 0.  1.
</event>
<event>
 4    1 -0.6384999E-004  0.2240593E+03  0.7818608E-02  0.1130892E+00
          5   -1    0    0  501    0  0.00000000000E+00  0.00000000000E+00  0.35108248673E+02  0.35421450068E+02  0.47000000000E+01 0. -1.
         -5   -1    0    0    0  501 -0.00000000000E+00 -0.00000000000E+00 -0.17270017578E+04  0.17270081532E+04  0.47000000000E+01 0.  1.
          6    1    1    2  502    0  0.33420677878E+02 -0.13964818533E+03 -0.47642434925E+03  0.52648145070E+03  0.17200000000E+03 0. -1.
         -6    1    1    2    0  502 -0.33420677878E+02  0.13964818533E+03 -0.12154691599E+04  0.12359481526E+04  0.17200000000E+03 0.  1.
</event>
<event>
 4    1 -0.6384999E-004  0.3877811E+03  0.7818608E-02  0.1048095E+00
         -5   -1    0    0    0  501 -0.00000000000E+00  0.00000000000E+00  0.97431879169E+02  0.97545174552E+02  0.47000000000E+01 0.  1.
          5   -1    0    0  501    0  0.00000000000E+00 -0.00000000000E+00 -0.18740332472E+04  0.18740391408E+04  0.47000000000E+01 0. -1.
          6    1    1    2  502    0  0.35041124486E+01 -0.34753111585E+03 -0.13030022302E+04  0.13594811390E+04  0.17200000000E+03 0. -1.
         -6    1    1    2    0  502 -0.35041124486E+01  0.34753111585E+03 -0.47359913776E+03  0.61210317642E+03  0.17200000000E+03 0.  1.
</event>
<event>
 4    1 -0.6384999E-004  0.4297243E+03  0.7818608E-02  0.1033947E+00
         -5   -1    0    0    0  501 -0.00000000000E+00  0.00000000000E+00  0.71436589295E+03  0.71438135405E+03  0.47000000000E+01 0.  1.
          5   -1    0    0  501    0  0.00000000000E+00 -0.00000000000E+00 -0.26407738865E+03  0.26411921019E+03  0.47000000000E+01 0. -1.
          6    1    1    2  502    0 -0.34193624947E+02  0.39231335126E+03  0.29649588427E+03  0.52208503039E+03  0.17200000000E+03 0. -1.
         -6    1    1    2    0  502  0.34193624947E+02 -0.39231335126E+03  0.15379262004E+03  0.45641553386E+03  0.17200000000E+03 0.  1.
</event>
<event>
 4    1 -0.6384999E-004  0.1840553E+03  0.7818608E-02  0.1163935E+00
          5   -1    0    0  501    0  0.00000000000E+00  0.00000000000E+00  0.98377977316E+03  0.98379100021E+03  0.47000000000E+01 0. -1.
         -5   -1    0    0    0  501 -0.00000000000E+00 -0.00000000000E+00 -0.38993841169E+02  0.39276069675E+02  0.47000000000E+01 0.  1.
          6    1    1    2  502    0 -0.60309506489E+02 -0.25594965093E+02  0.64985643500E+03  0.67541818522E+03  0.17200000000E+03 0. -1.
         -6    1    1    2    0  502  0.60309506489E+02  0.25594965093E+02  0.29492949700E+03  0.34764888467E+03  0.17200000000E+03 0.  1.
</event>
<event>
 4    1 -0.6384999E-004  0.2110968E+03  0.7818608E-02  0.1140700E+00
         -5   -1    0    0    0  501 -0.00000000000E+00  0.00000000000E+00  0.53534114329E+03  0.53536177460E+03  0.47000000000E+01 0.  1.
          5   -1    0    0  501    0  0.00000000000E+00 -0.00000000000E+00 -0.11864011943E+03  0.11873317960E+03  0.47000000000E+01 0. -1.
          6    1    1    2  502    0 -0.10569326333E+03 -0.61699117545E+02  0.38712079205E+03  0.44093577158E+03  0.17200000000E+03 0.  1.
         -6    1    1    2    0  502  0.10569326333E+03  0.61699117545E+02  0.29580231811E+02  0.21315918262E+03  0.17200000000E+03 0.  1.
</event>
<event>
 4    1 -0.6384999E-004  0.2306336E+03  0.7818608E-02  0.1126195E+00
         -5   -1    0    0    0  501 -0.00000000000E+00  0.00000000000E+00  0.61932280510E+03  0.61934063883E+03  0.47000000000E+01 0.  1.
          5   -1    0    0  501    0  0.00000000000E+00 -0.00000000000E+00 -0.10968185812E+03  0.10978251227E+03  0.47000000000E+01 0. -1.
          6    1    1    2  502    0  0.58482395392E+02 -0.14208335013E+03  0.84823495562E+02  0.24573745005E+03  0.17200000000E+03 0. -1.
         -6    1    1    2    0  502 -0.58482395392E+02  0.14208335013E+03  0.42481745142E+03  0.48338570106E+03  0.17200000000E+03 0.  1.
</event>
<event>
 4    1 -0.6384999E-004  0.1857977E+03  0.7818608E-02  0.1162307E+00
          5   -1    0    0  501    0  0.00000000000E+00  0.00000000000E+00  0.67609060298E+03  0.67610693935E+03  0.47000000000E+01 0. -1.
         -5   -1    0    0    0  501 -0.00000000000E+00 -0.00000000000E+00 -0.55341677625E+02  0.55540897385E+02  0.47000000000E+01 0.  1.
          6    1    1    2  502    0  0.30675726131E+02 -0.63212144654E+02  0.41340382617E+03  0.45323669191E+03  0.17200000000E+03 0. -1.
         -6    1    1    2    0  502 -0.30675726131E+02  0.63212144654E+02  0.20734509919E+03  0.27841114483E+03  0.17200000000E+03 0.  1.
</event>
<event>
 4    1 -0.6384999E-004  0.2023678E+03  0.7818608E-02  0.1147757E+00
         -5   -1    0    0    0  501 -0.00000000000E+00  0.00000000000E+00  0.59234052605E+03  0.59235917212E+03  0.47000000000E+01 0.  1.
          5   -1    0    0  501    0  0.00000000000E+00 -0.00000000000E+00 -0.88581168389E+02  0.88705768657E+02  0.47000000000E+01 0. -1.
          6    1    1    2  502    0 -0.75776197079E+02 -0.75011233923E+02  0.92072210218E+02  0.22232860624E+03  0.17200000000E+03 0. -1.
         -6    1    1    2    0  502  0.75776197079E+02  0.75011233923E+02  0.41168714744E+03  0.45873633454E+03  0.17200000000E+03 0. -1.
</event>
<event>
 4    1 -0.6384999E-004  0.2725359E+03  0.7818608E-02  0.1099837E+00
          5   -1    0    0  501    0  0.00000000000E+00  0.00000000000E+00  0.25364323006E+03  0.25368677174E+03  0.47000000000E+01 0. -1.
         -5   -1    0    0    0  501 -0.00000000000E+00 -0.00000000000E+00 -0.29309517315E+03  0.29313285474E+03  0.47000000000E+01 0.  1.
          6    1    1    2  502    0  0.85026559593E+02 -0.19355185935E+03 -0.10322022491E+02  0.27273133711E+03  0.17200000000E+03 0. -1.
         -6    1    1    2    0  502 -0.85026559593E+02  0.19355185935E+03 -0.29129920601E+02  0.27408828937E+03  0.17200000000E+03 0.  1.
</event>
<event>
 4    1 -0.6384999E-004  0.2638309E+03  0.7818608E-02  0.1104863E+00
         -5   -1    0    0    0  501 -0.00000000000E+00  0.00000000000E+00  0.44953093983E+03  0.44955550922E+03  0.47000000000E+01 0.  1.
          5   -1    0    0  501    0  0.00000000000E+00 -0.00000000000E+00 -0.18521221414E+03  0.18527183884E+03  0.47000000000E+01 0. -1.
          6    1    1    2  502    0  0.12800287900E+03 -0.15374648581E+03  0.35233550743E+01  0.26385437833E+03  0.17200000000E+03 0. -1.
         -6    1    1    2    0  502 -0.12800287900E+03  0.15374648581E+03  0.26079537062E+03  0.37097296973E+03  0.17200000000E+03 0.  1.
</event>
<event>
 4    1 -0.6384999E-004  0.1737438E+03  0.7818608E-02  0.1173999E+00
         -5   -1    0    0    0  501 -0.00000000000E+00  0.00000000000E+00  0.67049783903E+02  0.67214310391E+02  0.47000000000E+01 0.  1.
          5   -1    0    0  501    0  0.00000000000E+00 -0.00000000000E+00 -0.80490399954E+03  0.80491772156E+03  0.47000000000E+01 0. -1.
          6    1    1    2  502    0  0.20098244184E+02 -0.14105864656E+02 -0.65866092237E+03  0.68119096110E+03  0.17200000000E+03 0. -1.
         -6    1    1    2    0  502 -0.20098244184E+02  0.14105864656E+02 -0.79193293276E+02  0.19094107085E+03  0.17200000000E+03 0.  1.
</event>
<event>
 4    1 -0.6384999E-004  0.1943886E+03  0.7818608E-02  0.1154562E+00
          5   -1    0    0  501    0  0.00000000000E+00  0.00000000000E+00  0.53216412426E+02  0.53423558020E+02  0.47000000000E+01 0. -1.
         -5   -1    0    0    0  501 -0.00000000000E+00 -0.00000000000E+00 -0.82211900273E+03  0.82213243741E+03  0.47000000000E+01 0.  1.
          6    1    1    2  502    0  0.54497100914E+02 -0.72339314196E+02 -0.22170293423E+03  0.29485437327E+03  0.17200000000E+03 0. -1.
         -6    1    1    2    0  502 -0.54497100914E+02  0.72339314196E+02 -0.54719965607E+03  0.58070162217E+03  0.17200000000E+03 0.  1.
</event>
<event>
 4    1 -0.6384999E-004  0.2221695E+03  0.7818608E-02  0.1132276E+00
          5   -1    0    0  501    0  0.00000000000E+00  0.00000000000E+00  0.23754985464E+03  0.23759634559E+03  0.47000000000E+01 0. -1.
         -5   -1    0    0    0  501 -0.00000000000E+00 -0.00000000000E+00 -0.20769409997E+03  0.20774727233E+03  0.47000000000E+01 0.  1.
          6    1    1    2  502    0 -0.14052107896E+03  0.53960458291E+01  0.14150214355E+02  0.22261967458E+03  0.17200000000E+03 0. -1.
         -6    1    1    2    0  502  0.14052107896E+03 -0.53960458291E+01  0.15705540312E+02  0.22272394335E+03  0.17200000000E+03 0.  1.
</event>
<event>
 4    1 -0.6384999E-004  0.2109017E+03  0.7818608E-02  0.1140854E+00
         -5   -1    0    0    0  501 -0.00000000000E+00  0.00000000000E+00  0.90402396534E+03  0.90403618285E+03  0.47000000000E+01 0.  1.
          5   -1    0    0  501    0  0.00000000000E+00 -0.00000000000E+00 -0.50429937431E+02  0.50648480621E+02  0.47000000000E+01 0. -1.
          6    1    1    2  502    0 -0.21011081135E+02  0.12022502630E+03  0.34878911710E+03  0.40759461563E+03  0.17200000000E+03 0.  1.
         -6    1    1    2    0  502  0.21011081135E+02 -0.12022502630E+03  0.50480491080E+03  0.54709004784E+03  0.17200000000E+03 0.  1.
</event>
<event>
 4    1 -0.6384999E-004  0.2070973E+03  0.7818608E-02  0.1143885E+00
          5   -1    0    0  501    0  0.00000000000E+00  0.00000000000E+00  0.11984194847E+03  0.11993407611E+03  0.47000000000E+01 0. -1.
         -5   -1    0    0    0  501 -0.00000000000E+00 -0.00000000000E+00 -0.41182829265E+03  0.41185511121E+03  0.47000000000E+01 0.  1.
          6    1    1    2  502    0  0.76185026873E+02  0.86609049570E+02 -0.49554240342E+02  0.21294343973E+03  0.17200000000E+03 0. -1.
         -6    1    1    2    0  502 -0.76185026873E+02 -0.86609049570E+02 -0.24243210384E+03  0.31884574760E+03  0.17200000000E+03 0.  1.
</event>
<event>
 4    1 -0.6384999E-004  0.3472018E+03  0.7818608E-02  0.1063769E+00
          5   -1    0    0  501    0  0.00000000000E+00  0.00000000000E+00  0.69344368177E+02  0.69503463208E+02  0.47000000000E+01 0. -1.
         -5   -1    0    0    0  501 -0.00000000000E+00 -0.00000000000E+00 -0.17709893947E+04  0.17709956313E+04  0.47000000000E+01 0.  1.
          6    1    1    2  502    0  0.30157546014E+03 -0.41630974694E+01 -0.97968869587E+03  0.10393935878E+04  0.17200000000E+03 0.  1.
         -6    1    1    2    0  502 -0.30157546014E+03  0.41630974694E+01 -0.72195633067E+03  0.80110550674E+03  0.17200000000E+03 0. -1.
</event>
<event>
 4    1 -0.6384999E-004  0.2229286E+03  0.7818608E-02  0.1131718E+00
         -5   -1    0    0    0  501 -0.00000000000E+00  0.00000000000E+00  0.31101190880E+03  0.31104741988E+03  0.47000000000E+01 0.  1.
          5   -1    0    0  501    0  0.00000000000E+00 -0.00000000000E+00 -0.23461215086E+03  0.23465922384E+03  0.47000000000E+01 0. -1.
          6    1    1    2  502    0  0.10648293026E+03 -0.93672598123E+02  0.19233684837E+03  0.29443273139E+03  0.17200000000E+03 0.  1.
         -6    1    1    2    0  502 -0.10648293026E+03  0.93672598123E+02 -0.11593709044E+03  0.25127391232E+03  0.17200000000E+03 0. -1.
</event>
<event>
 4    1 -0.6384999E-004  0.1845890E+03  0.7818608E-02  0.1163434E+00
         -5   -1    0    0    0  501 -0.00000000000E+00  0.00000000000E+00  0.11768702906E+03  0.11778084229E+03  0.47000000000E+01 0.  1.
          5   -1    0    0  501    0  0.00000000000E+00 -0.00000000000E+00 -0.51208152059E+03  0.51210308897E+03  0.47000000000E+01 0. -1.
          6    1    1    2  502    0  0.39385652520E+02 -0.54202116556E+02 -0.40490526409E+03  0.44499592352E+03  0.17200000000E+03 0. -1.
         -6    1    1    2    0  502 -0.39385652520E+02  0.54202116556E+02  0.10510772562E+02  0.18488800773E+03  0.17200000000E+03 0.  1.
</event>
<event>
 4    1 -0.6384999E-004  0.2318203E+03  0.7818608E-02  0.1125365E+00
         -5   -1    0    0    0  501 -0.00000000000E+00  0.00000000000E+00  0.87448002821E+02  0.87574215368E+02  0.47000000000E+01 0.  1.
          5   -1    0    0  501    0  0.00000000000E+00 -0.00000000000E+00 -0.15811708791E+04  0.15811778645E+04  0.47000000000E+01 0. -1.
          6    1    1    2  502    0 -0.11509684473E+03 -0.10444802266E+03 -0.13994096814E+04  0.14184809232E+04  0.17200000000E+03 0. -1.
         -6    1    1    2    0  502  0.11509684473E+03  0.10444802266E+03 -0.94313194942E+02  0.25027115664E+03  0.17200000000E+03 0.  1.
</event>
<event>
 4    1 -0.6384999E-004  0.2095234E+03  0.7818608E-02  0.1141944E+00
         -5   -1    0    0    0  501 -0.00000000000E+00  0.00000000000E+00  0.45214251243E+02  0.45457876275E+02  0.47000000000E+01 0.  1.
          5   -1    0    0  501    0  0.00000000000E+00 -0.00000000000E+00 -0.24369112461E+04  0.24369157784E+04  0.47000000000E+01 0. -1.
          6    1    1    2  502    0 -0.92920044853E+01 -0.11928829771E+03 -0.21594145490E+04  0.21695555383E+04  0.17200000000E+03 0. -1.
         -6    1    1    2    0  502  0.92920044853E+01  0.11928829771E+03 -0.23228244579E+03  0.31281811639E+03  0.17200000000E+03 0.  1.
</event>
<event>
 4    1 -0.6384999E-004  0.1874537E+03  0.7818608E-02  0.1160778E+00
          5   -1    0    0  501    0  0.00000000000E+00  0.00000000000E+00  0.19785046278E+04  0.19785102102E+04  0.47000000000E+01 0. -1.
         -5   -1    0    0    0  501 -0.00000000000E+00 -0.00000000000E+00 -0.18831691912E+02  0.19409343633E+02  0.47000000000E+01 0.  1.
          6    1    1    2  502    0 -0.42864623685E+02 -0.60971445266E+02  0.71288776312E+03  0.73712133052E+03  0.17200000000E+03 0.  1.
         -6    1    1    2    0  502  0.42864623685E+02  0.60971445266E+02  0.12467851727E+04  0.12607982234E+04  0.17200000000E+03 0. -1.
</event>
<event>
 4    1 -0.6384999E-004  0.1836623E+03  0.7818608E-02  0.1164305E+00
          5   -1    0    0  501    0  0.00000000000E+00  0.00000000000E+00  0.11423238092E+03  0.11432902891E+03  0.47000000000E+01 0. -1.
         -5   -1    0    0    0  501 -0.00000000000E+00 -0.00000000000E+00 -0.29677640503E+03  0.29681361926E+03  0.47000000000E+01 0.  1.
          6    1    1    2  502    0  0.86436803594E+01 -0.63820935999E+02 -0.10694280263E+03  0.21252902888E+03  0.17200000000E+03 0.  1.
         -6    1    1    2    0  502 -0.86436803594E+01  0.63820935999E+02 -0.75601221472E+02  0.19861361930E+03  0.17200000000E+03 0.  1.
</event>
<event>
 4    1 -0.6384999E-004  0.2243092E+03  0.7818608E-02  0.1130711E+00
         -5   -1    0    0    0  501 -0.00000000000E+00  0.00000000000E+00  0.19658250012E+02  0.20212293129E+02  0.47000000000E+01 0.  1.
          5   -1    0    0  501    0  0.00000000000E+00 -0.00000000000E+00 -0.26066991007E+04  0.26067033379E+04  0.47000000000E+01 0. -1.
          6    1    1    2  502    0 -0.48941644489E+01 -0.14389805086E+03 -0.15283727495E+04  0.15447452422E+04  0.17200000000E+03 0. -1.
         -6    1    1    2    0  502  0.48941644489E+01  0.14389805086E+03 -0.10586681012E+04  0.10821703888E+04  0.17200000000E+03 0.  1.
</event>
<event>
 4    1 -0.6384999E-004  0.2345096E+03  0.7818608E-02  0.1123505E+00
          5   -1    0    0  501    0  0.00000000000E+00  0.00000000000E+00  0.72751743267E+03  0.72753261428E+03  0.47000000000E+01 0. -1.
         -5   -1    0    0    0  501 -0.00000000000E+00 -0.00000000000E+00 -0.76998806104E+02  0.77142116521E+02  0.47000000000E+01 0.  1.
          6    1    1    2  502    0 -0.15775880004E+03  0.22867559553E+02  0.26924635409E+03  0.35705512664E+03  0.17200000000E+03 0. -1.
         -6    1    1    2    0  502  0.15775880004E+03 -0.22867559553E+02  0.38127227247E+03  0.44761960415E+03  0.17200000000E+03 0.  1.
</event>
<event>
 4    1 -0.6384999E-004  0.1871687E+03  0.7818608E-02  0.1161040E+00
         -5   -1    0    0    0  501 -0.00000000000E+00  0.00000000000E+00  0.52342015829E+03  0.52344125946E+03  0.47000000000E+01 0.  1.
          5   -1    0    0  501    0  0.00000000000E+00 -0.00000000000E+00 -0.68258487416E+02  0.68420107456E+02  0.47000000000E+01 0. -1.
          6    1    1    2  502    0  0.12952263536E+02 -0.72666089177E+02  0.27041931360E+03  0.32887494099E+03  0.17200000000E+03 0.  1.
         -6    1    1    2    0  502 -0.12952263536E+02  0.72666089177E+02  0.18474235727E+03  0.26298642592E+03  0.17200000000E+03 0.  1.
</event>
<event>
 4    1 -0.6384999E-004  0.1907014E+03  0.7818608E-02  0.1157830E+00
         -5   -1    0    0    0  501 -0.00000000000E+00  0.00000000000E+00  0.17134562390E+03  0.17141007213E+03  0.47000000000E+01 0.  1.
          5   -1    0    0  501    0  0.00000000000E+00 -0.00000000000E+00 -0.21496571249E+03  0.21501708664E+03  0.47000000000E+01 0. -1.
          6    1    1    2  502    0  0.65502153069E+02  0.49925033605E+02  0.44026934645E+00  0.19070195299E+03  0.17200000000E+03 0. -1.
         -6    1    1    2    0  502 -0.65502153069E+02 -0.49925033605E+02 -0.44060357938E+02  0.19572520578E+03  0.17200000000E+03 0.  1.
</event>
<event>
 4    1 -0.6384999E-004  0.2489863E+03  0.7818608E-02  0.1113947E+00
         -5   -1    0    0    0  501 -0.00000000000E+00  0.00000000000E+00  0.53945064543E+03  0.53947111958E+03  0.47000000000E+01 0.  1.
          5   -1    0    0  501    0  0.00000000000E+00 -0.00000000000E+00 -0.19862421475E+03  0.19867981449E+03  0.47000000000E+01 0. -1.
          6    1    1    2  502    0  0.64938699421E+02 -0.16790815287E+03 -0.69220739681E+02  0.25842928102E+03  0.17200000000E+03 0. -1.
         -6    1    1    2    0  502 -0.64938699421E+02  0.16790815287E+03  0.41004717036E+03  0.47972165305E+03  0.17200000000E+03 0.  1.
</event>
<event>
 4    1 -0.6384999E-004  0.2321871E+03  0.7818608E-02  0.1125110E+00
          5   -1    0    0  501    0  0.00000000000E+00  0.00000000000E+00  0.39401441051E+03  0.39404244149E+03  0.47000000000E+01 0. -1.
         -5   -1    0    0    0  501 -0.00000000000E+00 -0.00000000000E+00 -0.13800280825E+03  0.13808281966E+03  0.47000000000E+01 0.  1.
          6    1    1    2  502    0 -0.94793901426E+00  0.15596772575E+03  0.15333352609E+03  0.27824809126E+03  0.17200000000E+03 0. -1.
         -6    1    1    2    0  502  0.94793901426E+00 -0.15596772575E+03  0.10267807617E+03  0.25387716989E+03  0.17200000000E+03 0.  1.
</event>
<event>
 4    1 -0.6384999E-004  0.2166845E+03  0.7818608E-02  0.1136379E+00
         -5   -1    0    0    0  501 -0.00000000000E+00  0.00000000000E+00  0.31738175628E+03  0.31741655473E+03  0.47000000000E+01 0.  1.
          5   -1    0    0  501    0  0.00000000000E+00 -0.00000000000E+00 -0.45514796841E+03  0.45517223460E+03  0.47000000000E+01 0. -1.
          6    1    1    2  502    0 -0.13167691546E+03  0.54187974983E+01 -0.38626175782E+03  0.44288860787E+03  0.17200000000E+03 0. -1.
         -6    1    1    2    0  502  0.13167691546E+03 -0.54187974983E+01  0.24849554568E+03  0.32970018146E+03  0.17200000000E+03 0.  1.
</event>
<event>
 4    1 -0.6384999E-004  0.2076975E+03  0.7818608E-02  0.1143402E+00
         -5   -1    0    0    0  501 -0.00000000000E+00  0.00000000000E+00  0.20576224606E+03  0.20581591752E+03  0.47000000000E+01 0.  1.
          5   -1    0    0  501    0  0.00000000000E+00 -0.00000000000E+00 -0.23368539971E+03  0.23373265933E+03  0.47000000000E+01 0. -1.
          6    1    1    2  502    0 -0.48432276169E+02  0.10587047893E+03 -0.84585207556E+02  0.22426078797E+03  0.17200000000E+03 0.  1.
         -6    1    1    2    0  502  0.48432276169E+02 -0.10587047893E+03  0.56662053913E+02  0.21528778887E+03  0.17200000000E+03 0.  1.
</event>
<event>
 4    1 -0.6384999E-004  0.2582443E+03  0.7818608E-02  0.1108203E+00
          5   -1    0    0  501    0  0.00000000000E+00  0.00000000000E+00  0.13513832892E+03  0.13522003529E+03  0.47000000000E+01 0. -1.
         -5   -1    0    0    0  501 -0.00000000000E+00 -0.00000000000E+00 -0.51475783102E+03  0.51477928726E+03  0.47000000000E+01 0.  1.
          6    1    1    2  502    0 -0.22496544850E+02  0.19131131073E+03 -0.25623061564E+03  0.36379147947E+03  0.17200000000E+03 0.  1.
         -6    1    1    2    0  502  0.22496544850E+02 -0.19131131073E+03 -0.12338888646E+03  0.28620784308E+03  0.17200000000E+03 0.  1.
</event>
<event>
 4    1 -0.6384999E-004  0.2134773E+03  0.7818608E-02  0.1138842E+00
         -5   -1    0    0    0  501 -0.00000000000E+00  0.00000000000E+00  0.40640457115E+03  0.40643174759E+03  0.47000000000E+01 0.  1.
          5   -1    0    0  501    0  0.00000000000E+00 -0.00000000000E+00 -0.11213102733E+03  0.11222948494E+03  0.47000000000E+01 0. -1.
          6    1    1    2  502    0  0.80593755706E+02  0.97433093968E+02  0.14042158195E+03  0.25552060961E+03  0.17200000000E+03 0.  1.
         -6    1    1    2    0  502 -0.80593755706E+02 -0.97433093968E+02  0.15385196187E+03  0.26314062292E+03  0.17200000000E+03 0. -1.
</event>
<event>
 4    1 -0.6384999E-004  0.2350058E+03  0.7818608E-02  0.1123165E+00
          5   -1    0    0  501    0  0.00000000000E+00  0.00000000000E+00  0.34821647857E+03  0.34824819590E+03  0.47000000000E+01 0. -1.
         -5   -1    0    0    0  501 -0.00000000000E+00 -0.00000000000E+00 -0.16531261146E+03  0.16537941077E+03  0.47000000000E+01 0.  1.
          6    1    1    2  502    0 -0.15995581128E+03 -0.76056650949E+01  0.14346356577E+03  0.27533525457E+03  0.17200000000E+03 0. -1.
         -6    1    1    2    0  502  0.15995581128E+03  0.76056650949E+01  0.39440301347E+02  0.23829235211E+03  0.17200000000E+03 0.  1.
</event>
<event>
 4    1 -0.6384999E-004  0.2574478E+03  0.7818608E-02  0.1108686E+00
          5   -1    0    0  501    0  0.00000000000E+00  0.00000000000E+00  0.25403850492E+03  0.25408197886E+03  0.47000000000E+01 0. -1.
         -5   -1    0    0    0  501 -0.00000000000E+00 -0.00000000000E+00 -0.32985061799E+03  0.32988410114E+03  0.47000000000E+01 0.  1.
          6    1    1    2  502    0  0.11935070998E+03 -0.14983586483E+03  0.95654781626E+02  0.27464379769E+03  0.17200000000E+03 0. -1.
         -6    1    1    2    0  502 -0.11935070998E+03  0.14983586483E+03 -0.17146689469E+03  0.30932228232E+03  0.17200000000E+03 0.  1.
</event>
<event>
 4    1 -0.6384999E-004  0.2041584E+03  0.7818608E-02  0.1146277E+00
          5   -1    0    0  501    0  0.00000000000E+00  0.00000000000E+00  0.10239272888E+03  0.10250054111E+03  0.47000000000E+01 0. -1.
         -5   -1    0    0    0  501 -0.00000000000E+00 -0.00000000000E+00 -0.79985668872E+03  0.79987049732E+03  0.47000000000E+01 0.  1.
          6    1    1    2  502    0  0.38758571941E+02  0.10292923597E+03 -0.32445980696E+02  0.20672057512E+03  0.17200000000E+03 0. -1.
         -6    1    1    2    0  502 -0.38758571941E+02 -0.10292923597E+03 -0.66501797914E+03  0.69565046331E+03  0.17200000000E+03 0.  1.
</event>
<event>
 4    1 -0.6384999E-004  0.2068791E+03  0.7818608E-02  0.1144062E+00
          5   -1    0    0  501    0  0.00000000000E+00  0.00000000000E+00  0.99673846289E+02  0.99784596176E+02  0.47000000000E+01 0. -1.
         -5   -1    0    0    0  501 -0.00000000000E+00 -0.00000000000E+00 -0.57211660663E+03  0.57213591181E+03  0.47000000000E+01 0.  1.
          6    1    1    2  502    0 -0.11021615784E+03 -0.32670240356E+02 -0.40421691732E+03  0.45408177931E+03  0.17200000000E+03 0.  1.
         -6    1    1    2    0  502  0.11021615784E+03  0.32670240356E+02 -0.68225843020E+02  0.21783872867E+03  0.17200000000E+03 0. -1.
</event>
<event>
 4    1 -0.6384999E-004  0.2061541E+03  0.7818608E-02  0.1144648E+00
         -5   -1    0    0    0  501 -0.00000000000E+00  0.00000000000E+00  0.19537247086E+03  0.19542899573E+03  0.47000000000E+01 0.  1.
          5   -1    0    0  501    0  0.00000000000E+00 -0.00000000000E+00 -0.24453568085E+03  0.24458084392E+03  0.47000000000E+01 0. -1.
          6    1    1    2  502    0  0.95853466368E+02  0.61054231121E+02 -0.97830393744E+02  0.22818915858E+03  0.17200000000E+03 0. -1.
         -6    1    1    2    0  502 -0.95853466368E+02 -0.61054231121E+02  0.48667183755E+02  0.21182068107E+03  0.17200000000E+03 0.  1.
</event>
<event>
 4    1 -0.6384999E-004  0.2877945E+03  0.7818608E-02  0.1091506E+00
         -5   -1    0    0    0  501 -0.00000000000E+00  0.00000000000E+00  0.49217092871E+03  0.49219336959E+03  0.47000000000E+01 0.  1.
          5   -1    0    0  501    0  0.00000000000E+00 -0.00000000000E+00 -0.36842006125E+03  0.36845003940E+03  0.47000000000E+01 0. -1.
          6    1    1    2  502    0 -0.18367081277E+02  0.23000935302E+03 -0.25530357985E+03  0.38471492048E+03  0.17200000000E+03 0. -1.
         -6    1    1    2    0  502  0.18367081277E+02 -0.23000935302E+03  0.37905444731E+03  0.47592848851E+03  0.17200000000E+03 0.  1.
</event>
<event>
 4    1 -0.6384999E-004  0.2219826E+03  0.7818608E-02  0.1132414E+00
         -5   -1    0    0    0  501 -0.00000000000E+00  0.00000000000E+00  0.11365289607E+04  0.11365386789E+04  0.47000000000E+01 0.  1.
          5   -1    0    0  501    0  0.00000000000E+00 -0.00000000000E+00 -0.66493180682E+02  0.66659080981E+02  0.47000000000E+01 0. -1.
          6    1    1    2  502    0 -0.13788639468E+03 -0.26069546639E+02  0.17968669909E+03  0.28559339791E+03  0.17200000000E+03 0. -1.
         -6    1    1    2    0  502  0.13788639468E+03  0.26069546639E+02  0.89034908096E+03  0.91760436195E+03  0.17200000000E+03 0.  1.
</event>
<event>
 4    1 -0.6384999E-004  0.4882498E+03  0.7818608E-02  0.1016892E+00
          5   -1    0    0  501    0  0.00000000000E+00  0.00000000000E+00  0.91973732069E+03  0.91974932947E+03  0.47000000000E+01 0. -1.
         -5   -1    0    0    0  501 -0.00000000000E+00 -0.00000000000E+00 -0.38074683047E+03  0.38077583814E+03  0.47000000000E+01 0.  1.
          6    1    1    2  502    0  0.40929898976E+03 -0.20317031105E+03  0.63694112352E+03  0.80254709092E+03  0.17200000000E+03 0. -1.
         -6    1    1    2    0  502 -0.40929898976E+03  0.20317031105E+03 -0.97950633299E+02  0.49797807670E+03  0.17200000000E+03 0.  1.
</event>
<event>
 4    1 -0.6384999E-004  0.2807167E+03  0.7818608E-02  0.1095298E+00
         -5   -1    0    0    0  501 -0.00000000000E+00  0.00000000000E+00  0.34317022273E+03  0.34320240641E+03  0.47000000000E+01 0.  1.
          5   -1    0    0  501    0  0.00000000000E+00 -0.00000000000E+00 -0.24861924996E+03  0.24866367135E+03  0.47000000000E+01 0. -1.
          6    1    1    2  502    0 -0.13627327297E+03  0.17506411839E+03 -0.34644003674E+02  0.28284634957E+03  0.17200000000E+03 0. -1.
         -6    1    1    2    0  502  0.13627327297E+03 -0.17506411839E+03  0.12919497644E+03  0.30901972819E+03  0.17200000000E+03 0. -1.
</event>
<event>
 4    1 -0.6384999E-004  0.2186008E+03  0.7818608E-02  0.1134931E+00
          5   -1    0    0  501    0  0.00000000000E+00  0.00000000000E+00  0.14082061970E+03  0.14089903099E+03  0.47000000000E+01 0. -1.
         -5   -1    0    0    0  501 -0.00000000000E+00 -0.00000000000E+00 -0.33952542287E+03  0.33955795201E+03  0.47000000000E+01 0.  1.
          6    1    1    2  502    0 -0.18967186732E+01 -0.13490252858E+03 -0.91391288777E+02  0.23693597748E+03  0.17200000000E+03 0. -1.
         -6    1    1    2    0  502  0.18967186732E+01  0.13490252858E+03 -0.10731351439E+03  0.24352100552E+03  0.17200000000E+03 0.  1.
</event>
<event>
 4    1 -0.6384999E-004  0.1813786E+03  0.7818608E-02  0.1166475E+00
          5   -1    0    0  501    0  0.00000000000E+00  0.00000000000E+00  0.38417328739E+02  0.38703761412E+02  0.47000000000E+01 0. -1.
         -5   -1    0    0    0  501 -0.00000000000E+00 -0.00000000000E+00 -0.86292371900E+03  0.86293651842E+03  0.47000000000E+01 0.  1.
          6    1    1    2  502    0  0.26703894309E+01  0.57507018279E+02 -0.46092072487E+03  0.49532424001E+03  0.17200000000E+03 0. -1.
         -6    1    1    2    0  502 -0.26703894309E+01 -0.57507018279E+02 -0.36358566540E+03  0.40631603982E+03  0.17200000000E+03 0.  1.
</event>
<event>
 4    1 -0.6384999E-004  0.1884079E+03  0.7818608E-02  0.1159905E+00
         -5   -1    0    0    0  501 -0.00000000000E+00  0.00000000000E+00  0.15826424077E+03  0.15833401374E+03  0.47000000000E+01 0.  1.
          5   -1    0    0  501    0  0.00000000000E+00 -0.00000000000E+00 -0.29551956977E+03  0.29555694226E+03  0.47000000000E+01 0. -1.
          6    1    1    2  502    0  0.76858269371E+02 -0.25219425652E+01 -0.18013528962E+03  0.26066506542E+03  0.17200000000E+03 0. -1.
         -6    1    1    2    0  502 -0.76858269371E+02  0.25219425652E+01  0.42879960617E+02  0.19322589057E+03  0.17200000000E+03 0.  1.
</event>
<event>
 4    1 -0.6384999E-004  0.1822013E+03  0.7818608E-02  0.1165689E+00
          5   -1    0    0  501    0  0.00000000000E+00  0.00000000000E+00  0.54397485158E+02  0.54600150106E+02  0.47000000000E+01 0. -1.
         -5   -1    0    0    0  501 -0.00000000000E+00 -0.00000000000E+00 -0.66253785218E+03  0.66255452272E+03  0.47000000000E+01 0.  1.
          6    1    1    2  502    0  0.47604762356E+02 -0.36703002272E+02 -0.20208594695E+03  0.27209567018E+03  0.17200000000E+03 0. -1.
         -6    1    1    2    0  502 -0.47604762356E+02  0.36703002272E+02 -0.40605442007E+03  0.44505900265E+03  0.17200000000E+03 0.  1.
</event>
<event>
 4    1 -0.6384999E-004  0.2477934E+03  0.7818608E-02  0.1114707E+00
          5   -1    0    0  501    0  0.00000000000E+00  0.00000000000E+00  0.38488701590E+03  0.38491571157E+03  0.47000000000E+01 0. -1.
         -5   -1    0    0    0  501 -0.00000000000E+00 -0.00000000000E+00 -0.18128942573E+03  0.18135034017E+03  0.47000000000E+01 0.  1.
          6    1    1    2  502    0  0.16993688792E+03  0.54212692150E+02  0.20001700266E+03  0.31844679810E+03  0.17200000000E+03 0. -1.
         -6    1    1    2    0  502 -0.16993688792E+03 -0.54212692150E+02  0.35805875168E+01  0.24781925364E+03  0.17200000000E+03 0.  1.
</event>
<event>
 4    1 -0.6384999E-004  0.3127379E+03  0.7818608E-02  0.1079041E+00
         -5   -1    0    0    0  501 -0.00000000000E+00  0.00000000000E+00  0.12873949160E+03  0.12882525644E+03  0.47000000000E+01 0.  1.
          5   -1    0    0  501    0  0.00000000000E+00 -0.00000000000E+00 -0.84179059878E+03  0.84180371952E+03  0.47000000000E+01 0. -1.
          6    1    1    2  502    0  0.26016526550E+03 -0.23130871841E+02 -0.50837829276E+03  0.59686974387E+03  0.17200000000E+03 0. -1.
         -6    1    1    2    0  502 -0.26016526550E+03  0.23130871841E+02 -0.20467281443E+03  0.37375923209E+03  0.17200000000E+03 0.  1.
</event>
<event>
 4    1 -0.6384999E-004  0.1761755E+03  0.7818608E-02  0.1171557E+00
          5   -1    0    0  501    0  0.00000000000E+00  0.00000000000E+00  0.53094207297E+03  0.53096287521E+03  0.47000000000E+01 0. -1.
         -5   -1    0    0    0  501 -0.00000000000E+00 -0.00000000000E+00 -0.58702168931E+02  0.58890021542E+02  0.47000000000E+01 0.  1.
          6    1    1    2  502    0  0.37524870153E+02 -0.67604929709E+01  0.21304551329E+03  0.27645290897E+03  0.17200000000E+03 0.  1.
         -6    1    1    2    0  502 -0.37524870153E+02  0.67604929709E+01  0.25919439075E+03  0.31339998778E+03  0.17200000000E+03 0. -1.
</event>
<event>
 4    1 -0.6384999E-004  0.2484322E+03  0.7818608E-02  0.1114300E+00
         -5   -1    0    0    0  501 -0.00000000000E+00  0.00000000000E+00  0.13133650405E+04  0.13133734502E+04  0.47000000000E+01 0.  1.
          5   -1    0    0  501    0  0.00000000000E+00 -0.00000000000E+00 -0.21984841799E+03  0.21989865141E+03  0.47000000000E+01 0. -1.
          6    1    1    2  502    0 -0.25816198199E+02 -0.17739239069E+03 -0.13303777858E+03  0.28181126112E+03  0.17200000000E+03 0. -1.
         -6    1    1    2    0  502  0.25816198199E+02  0.17739239069E+03  0.12265544011E+04  0.12514608404E+04  0.17200000000E+03 0.  1.
</event>
<event>
 4    1 -0.6384999E-004  0.1993155E+03  0.7818608E-02  0.1150318E+00
         -5   -1    0    0    0  501 -0.00000000000E+00  0.00000000000E+00  0.42219086273E+03  0.42221702307E+03  0.47000000000E+01 0.  1.
          5   -1    0    0  501    0  0.00000000000E+00 -0.00000000000E+00 -0.94039543618E+02  0.94156920956E+02  0.47000000000E+01 0. -1.
          6    1    1    2  502    0  0.99586440434E+02  0.15007553802E+02  0.16874624958E+03  0.26115509288E+03  0.17200000000E+03 0. -1.
         -6    1    1    2    0  502 -0.99586440434E+02 -0.15007553802E+02  0.15940506953E+03  0.25521885115E+03  0.17200000000E+03 0. -1.
</event>
<event>
 4    1 -0.6384999E-004  0.2970951E+03  0.7818608E-02  0.1086702E+00
         -5   -1    0    0    0  501 -0.00000000000E+00  0.00000000000E+00  0.97943249258E+03  0.97944376945E+03  0.47000000000E+01 0.  1.
          5   -1    0    0  501    0  0.00000000000E+00 -0.00000000000E+00 -0.97221244563E+02  0.97334785120E+02  0.47000000000E+01 0. -1.
          6    1    1    2  502    0 -0.19917224967E+03 -0.13788368228E+03  0.58727199161E+03  0.65814427522E+03  0.17200000000E+03 0. -1.
         -6    1    1    2    0  502  0.19917224967E+03  0.13788368228E+03  0.29493925641E+03  0.41863427935E+03  0.17200000000E+03 0. -1.
</event>
<event>
 4    1 -0.6384999E-004  0.1873083E+03  0.7818608E-02  0.1160912E+00
          5   -1    0    0  501    0  0.00000000000E+00  0.00000000000E+00  0.46582567487E+03  0.46584938485E+03  0.47000000000E+01 0. -1.
         -5   -1    0    0    0  501 -0.00000000000E+00 -0.00000000000E+00 -0.10894357414E+03  0.10904490977E+03  0.47000000000E+01 0.  1.
          6    1    1    2  502    0 -0.55549260811E+02  0.49139497053E+02  0.33826613674E+03  0.38666314773E+03  0.17200000000E+03 0. -1.
         -6    1    1    2    0  502  0.55549260811E+02 -0.49139497053E+02  0.18615963990E+02  0.18823114690E+03  0.17200000000E+03 0.  1.
</event>
<event>
 4    1 -0.6384999E-004  0.1818274E+03  0.7818608E-02  0.1166046E+00
         -5   -1    0    0    0  501 -0.00000000000E+00  0.00000000000E+00  0.44899293901E+03  0.44901753783E+03  0.47000000000E+01 0.  1.
          5   -1    0    0  501    0  0.00000000000E+00 -0.00000000000E+00 -0.75427418666E+02  0.75573708964E+02  0.47000000000E+01 0. -1.
          6    1    1    2  502    0 -0.35631627374E+02  0.46985065806E+02  0.14525627231E+03  0.23272428736E+03  0.17200000000E+03 0. -1.
         -6    1    1    2    0  502  0.35631627374E+02 -0.46985065806E+02  0.22830924803E+03  0.29186695944E+03  0.17200000000E+03 0. -1.
</event>
<event>
 4    1 -0.6384999E-004  0.1816304E+03  0.7818608E-02  0.1166234E+00
          5   -1    0    0  501    0  0.00000000000E+00  0.00000000000E+00  0.17625145665E+04  0.17625208331E+04  0.47000000000E+01 0. -1.
         -5   -1    0    0    0  501 -0.00000000000E+00 -0.00000000000E+00 -0.20835540153E+02  0.21359066774E+02  0.47000000000E+01 0.  1.
          6    1    1    2  502    0  0.58334256847E+02  0.16475888538E+01  0.11707668589E+04  0.11847719772E+04  0.17200000000E+03 0. -1.
         -6    1    1    2    0  502 -0.58334256847E+02 -0.16475888538E+01  0.57091216745E+03  0.59910792267E+03  0.17200000000E+03 0.  1.
</event>
<event>
 4    1 -0.6384999E-004  0.2370647E+03  0.7818608E-02  0.1121764E+00
         -5   -1    0    0    0  501 -0.00000000000E+00  0.00000000000E+00  0.26315224627E+03  0.26319421482E+03  0.47000000000E+01 0.  1.
          5   -1    0    0  501    0  0.00000000000E+00 -0.00000000000E+00 -0.23910124398E+03  0.23914743334E+03  0.47000000000E+01 0. -1.
          6    1    1    2  502    0  0.59569597701E+02  0.15187864690E+03 -0.70181561079E+02  0.24723493255E+03  0.17200000000E+03 0.  1.
         -6    1    1    2    0  502 -0.59569597701E+02 -0.15187864690E+03  0.94232563364E+02  0.25510671562E+03  0.17200000000E+03 0.  1.
</event>
<event>
 4    1 -0.6384999E-004  0.4251456E+03  0.7818608E-02  0.1035405E+00
          5   -1    0    0  501    0  0.00000000000E+00  0.00000000000E+00  0.15823747395E+03  0.15830725871E+03  0.47000000000E+01 0. -1.
         -5   -1    0    0    0  501 -0.00000000000E+00 -0.00000000000E+00 -0.12343040042E+04  0.12343129525E+04  0.47000000000E+01 0.  1.
          6    1    1    2  502    0 -0.36519918105E+03  0.13339531030E+03 -0.34755821739E+03  0.54913155539E+03  0.17200000000E+03 0. -1.
         -6    1    1    2    0  502  0.36519918105E+03 -0.13339531030E+03 -0.72850831286E+03  0.84348865585E+03  0.17200000000E+03 0.  1.
</event>
<event>
 4    1 -0.6384999E-004  0.2358331E+03  0.7818608E-02  0.1122600E+00
          5   -1    0    0  501    0  0.00000000000E+00  0.00000000000E+00  0.12521397749E+03  0.12530215545E+03  0.47000000000E+01 0. -1.
         -5   -1    0    0    0  501 -0.00000000000E+00 -0.00000000000E+00 -0.63882685847E+03  0.63884414774E+03  0.47000000000E+01 0.  1.
          6    1    1    2  502    0  0.16118591140E+03  0.72364256585E+01 -0.45783109027E+02  0.24023604426E+03  0.17200000000E+03 0. -1.
         -6    1    1    2    0  502 -0.16118591140E+03 -0.72364256585E+01 -0.46782977195E+03  0.52391025893E+03  0.17200000000E+03 0.  1.
</event>
<event>
 4    1 -0.6384999E-004  0.2669474E+03  0.7818608E-02  0.1103040E+00
          5   -1    0    0  501    0  0.00000000000E+00  0.00000000000E+00  0.16309082164E+03  0.16315853059E+03  0.47000000000E+01 0. -1.
         -5   -1    0    0    0  501 -0.00000000000E+00 -0.00000000000E+00 -0.44036358069E+03  0.44038866152E+03  0.47000000000E+01 0.  1.
          6    1    1    2  502    0 -0.19339825985E+03 -0.65376004190E+02 -0.11137460457E+03  0.28924939305E+03  0.17200000000E+03 0.  1.
         -6    1    1    2    0  502  0.19339825985E+03  0.65376004190E+02 -0.16589815448E+03  0.31429779906E+03  0.17200000000E+03 0.  1.
</event>
<event>
 4    1 -0.6384999E-004  0.1759813E+03  0.7818608E-02  0.1171750E+00
         -5   -1    0    0    0  501 -0.00000000000E+00  0.00000000000E+00  0.43086388008E+03  0.43088951386E+03  0.47000000000E+01 0.  1.
          5   -1    0    0  501    0  0.00000000000E+00 -0.00000000000E+00 -0.80061638206E+02  0.80199475760E+02  0.47000000000E+01 0. -1.
          6    1    1    2  502    0 -0.10929879797E+02  0.35580333000E+02  0.93264900689E+02  0.19916767827E+03  0.17200000000E+03 0. -1.
         -6    1    1    2    0  502  0.10929879797E+02 -0.35580333000E+02  0.25753734118E+03  0.31192131135E+03  0.17200000000E+03 0.  1.
</event>
<event>
 4    1 -0.6384999E-004  0.2381016E+03  0.7818608E-02  0.1121064E+00
          5   -1    0    0  501    0  0.00000000000E+00  0.00000000000E+00  0.18607817433E+03  0.18613752164E+03  0.47000000000E+01 0. -1.
         -5   -1    0    0    0  501 -0.00000000000E+00 -0.00000000000E+00 -0.34561895305E+03  0.34565090873E+03  0.47000000000E+01 0.  1.
          6    1    1    2  502    0 -0.12110680399E+03  0.11154161573E+03  0.11881537671E+02  0.23839790467E+03  0.17200000000E+03 0. -1.
         -6    1    1    2    0  502  0.12110680399E+03 -0.11154161573E+03 -0.17142231639E+03  0.29339052570E+03  0.17200000000E+03 0.  1.
</event>
<event>
 4    1 -0.6384999E-004  0.2095896E+03  0.7818608E-02  0.1141891E+00
          5   -1    0    0  501    0  0.00000000000E+00  0.00000000000E+00  0.46311380103E+03  0.46313764985E+03  0.47000000000E+01 0. -1.
         -5   -1    0    0    0  501 -0.00000000000E+00 -0.00000000000E+00 -0.11077560727E+03  0.11087526850E+03  0.47000000000E+01 0.  1.
          6    1    1    2  502    0 -0.10139822182E+03 -0.63735338723E+02  0.28520417349E+03  0.35393391102E+03  0.17200000000E+03 0. -1.
         -6    1    1    2    0  502  0.10139822182E+03  0.63735338723E+02  0.67134020275E+02  0.22007900733E+03  0.17200000000E+03 0. -1.
</event>
<event>
 4    1 -0.6384999E-004  0.2043797E+03  0.7818608E-02  0.1146096E+00
         -5   -1    0    0    0  501 -0.00000000000E+00  0.00000000000E+00  0.18763894767E+03  0.18769780149E+03  0.47000000000E+01 0.  1.
          5   -1    0    0  501    0  0.00000000000E+00 -0.00000000000E+00 -0.22741142730E+03  0.22745999047E+03  0.47000000000E+01 0. -1.
          6    1    1    2  502    0 -0.11034770680E+03 -0.32314830452E+01  0.10626403114E+02  0.20465575810E+03  0.17200000000E+03 0. -1.
         -6    1    1    2    0  502  0.11034770680E+03  0.32314830452E+01 -0.50398882745E+02  0.21050203386E+03  0.17200000000E+03 0.  1.
</event>
<event>
 4    1 -0.6384999E-004  0.2190550E+03  0.7818608E-02  0.1134590E+00
          5   -1    0    0  501    0  0.00000000000E+00  0.00000000000E+00  0.58553936941E+03  0.58555823206E+03  0.47000000000E+01 0. -1.
         -5   -1    0    0    0  501 -0.00000000000E+00 -0.00000000000E+00 -0.14301550324E+03  0.14309271178E+03  0.47000000000E+01 0.  1.
          6    1    1    2  502    0  0.49874837924E+01 -0.13555888536E+03 -0.16869560281E+02  0.21970359228E+03  0.17200000000E+03 0.  1.
         -6    1    1    2    0  502 -0.49874837924E+01  0.13555888536E+03  0.45939342646E+03  0.50894735157E+03  0.17200000000E+03 0.  1.
</event>
<event>
 4    1 -0.6384999E-004  0.4382537E+03  0.7818608E-02  0.1031284E+00
         -5   -1    0    0    0  501 -0.00000000000E+00  0.00000000000E+00  0.69311416776E+03  0.69313010291E+03  0.47000000000E+01 0.  1.
          5   -1    0    0  501    0  0.00000000000E+00 -0.00000000000E+00 -0.30562703901E+03  0.30566317569E+03  0.47000000000E+01 0. -1.
          6    1    1    2  502    0  0.40004275261E+03 -0.49478314577E+02  0.41096357152E+02  0.44017634887E+03  0.17200000000E+03 0.  1.
         -6    1    1    2    0  502 -0.40004275261E+03  0.49478314577E+02  0.34639077160E+03  0.55861692973E+03  0.17200000000E+03 0.  1.
</event>
<event>
 4    1 -0.6384999E-004  0.3951815E+03  0.7818608E-02  0.1045461E+00
         -5   -1    0    0    0  501 -0.00000000000E+00  0.00000000000E+00  0.21060941888E+03  0.21066185540E+03  0.47000000000E+01 0.  1.
          5   -1    0    0  501    0  0.00000000000E+00 -0.00000000000E+00 -0.85894362010E+03  0.85895647882E+03  0.47000000000E+01 0. -1.
          6    1    1    2  502    0 -0.20610660511E+03  0.29000774825E+03 -0.52203809464E+03  0.65474590412E+03  0.17200000000E+03 0. -1.
         -6    1    1    2    0  502  0.20610660511E+03 -0.29000774825E+03 -0.12629610658E+03  0.41487243010E+03  0.17200000000E+03 0.  1.
</event>
<event>
 4    1 -0.6384999E-004  0.1997924E+03  0.7818608E-02  0.1149914E+00
          5   -1    0    0  501    0  0.00000000000E+00  0.00000000000E+00  0.92782772690E+02  0.92901737917E+02  0.47000000000E+01 0. -1.
         -5   -1    0    0    0  501 -0.00000000000E+00 -0.00000000000E+00 -0.50219802934E+03  0.50222002217E+03  0.47000000000E+01 0.  1.
          6    1    1    2  502    0  0.46171076901E+02  0.90560591643E+02 -0.91753312797E+02  0.21985372298E+03  0.17200000000E+03 0. -1.
         -6    1    1    2    0  502 -0.46171076901E+02 -0.90560591643E+02 -0.31766194385E+03  0.37526803711E+03  0.17200000000E+03 0.  1.
</event>
<event>
 4    1 -0.6384999E-004  0.2295453E+03  0.7818608E-02  0.1126960E+00
          5   -1    0    0  501    0  0.00000000000E+00  0.00000000000E+00  0.11013279250E+03  0.11023303490E+03  0.47000000000E+01 0. -1.
         -5   -1    0    0    0  501 -0.00000000000E+00 -0.00000000000E+00 -0.11377401054E+04  0.11377498132E+04  0.47000000000E+01 0.  1.
          6    1    1    2  502    0 -0.80383538777E+02  0.12901764928E+03 -0.38700998444E+02  0.23278495315E+03  0.17200000000E+03 0. -1.
         -6    1    1    2    0  502  0.80383538777E+02 -0.12901764928E+03 -0.98890631450E+03  0.10151978950E+04  0.17200000000E+03 0.  1.
</event>
<event>
 4    1 -0.6384999E-004  0.2111872E+03  0.7818608E-02  0.1140629E+00
         -5   -1    0    0    0  501 -0.00000000000E+00  0.00000000000E+00  0.61723011764E+03  0.61724801184E+03  0.47000000000E+01 0.  1.
          5   -1    0    0  501    0  0.00000000000E+00 -0.00000000000E+00 -0.72846755346E+02  0.72998217543E+02  0.47000000000E+01 0. -1.
          6    1    1    2  502    0  0.11838398379E+03 -0.31642599878E+02  0.23879296815E+03  0.31878221937E+03  0.17200000000E+03 0. -1.
         -6    1    1    2    0  502 -0.11838398379E+03  0.31642599878E+02  0.30559039414E+03  0.37146401001E+03  0.17200000000E+03 0. -1.
</event>
<event>
 4    1 -0.6384999E-004  0.1732882E+03  0.7818608E-02  0.1174462E+00
          5   -1    0    0  501    0  0.00000000000E+00  0.00000000000E+00  0.40479628575E+03  0.40482357016E+03  0.47000000000E+01 0. -1.
         -5   -1    0    0    0  501 -0.00000000000E+00 -0.00000000000E+00 -0.85560093860E+02  0.85689087178E+02  0.47000000000E+01 0.  1.
          6    1    1    2  502    0  0.20583188790E+02  0.45972842301E+01  0.24937521800E+03  0.30367219503E+03  0.17200000000E+03 0. -1.
         -6    1    1    2    0  502 -0.20583188790E+02 -0.45972842301E+01  0.69860973896E+02  0.18684046231E+03  0.17200000000E+03 0.  1.
</event>
<event>
 4    1 -0.6384999E-004  0.4451106E+03  0.7818608E-02  0.1029190E+00
         -5   -1    0    0    0  501 -0.00000000000E+00  0.00000000000E+00  0.19174491489E+03  0.19180250881E+03  0.47000000000E+01 0.  1.
          5   -1    0    0  501    0  0.00000000000E+00 -0.00000000000E+00 -0.10996003771E+04  0.10996104216E+04  0.47000000000E+01 0. -1.
          6    1    1    2  502    0  0.35267102157E+03 -0.21014903083E+03 -0.61277765060E+03  0.75737699575E+03  0.17200000000E+03 0. -1.
         -6    1    1    2    0  502 -0.35267102157E+03  0.21014903083E+03 -0.29507781159E+03  0.53403593466E+03  0.17200000000E+03 0.  1.
</event>
<event>
 4    1 -0.6384999E-004  0.1848408E+03  0.7818608E-02  0.1163199E+00
          5   -1    0    0  501    0  0.00000000000E+00  0.00000000000E+00  0.81032482301E+03  0.81033845323E+03  0.47000000000E+01 0. -1.
         -5   -1    0    0    0  501 -0.00000000000E+00 -0.00000000000E+00 -0.59379246680E+02  0.59564963999E+02  0.47000000000E+01 0.  1.
          6    1    1    2  502    0 -0.56437227997E+02  0.37375790420E+02  0.61018806582E+03  0.63757006367E+03  0.17200000000E+03 0. -1.
         -6    1    1    2    0  502  0.56437227997E+02 -0.37375790420E+02  0.14075751051E+03  0.23233335356E+03  0.17200000000E+03 0.  1.
</event>
<event>
 4    1 -0.6384999E-004  0.2213007E+03  0.7818608E-02  0.1132917E+00
         -5   -1    0    0    0  501 -0.00000000000E+00  0.00000000000E+00  0.74058496193E+03  0.74059987567E+03  0.47000000000E+01 0.  1.
          5   -1    0    0  501    0  0.00000000000E+00 -0.00000000000E+00 -0.76285507209E+02  0.76430155110E+02  0.47000000000E+01 0. -1.
          6    1    1    2  502    0 -0.95735099315E+02 -0.10111770671E+03  0.18253083876E+03  0.28686496292E+03  0.17200000000E+03 0. -1.
         -6    1    1    2    0  502  0.95735099315E+02  0.10111770671E+03  0.48176861596E+03  0.53016506786E+03  0.17200000000E+03 0.  1.
</event>
<event>
 4    1 -0.6384999E-004  0.1922392E+03  0.7818608E-02  0.1156457E+00
         -5   -1    0    0    0  501 -0.00000000000E+00  0.00000000000E+00  0.52089575301E+03  0.52091695643E+03  0.47000000000E+01 0.  1.
          5   -1    0    0  501    0  0.00000000000E+00 -0.00000000000E+00 -0.72118926668E+02  0.72271914211E+02  0.47000000000E+01 0. -1.
          6    1    1    2  502    0 -0.85641090060E+02 -0.61254503165E+01  0.18503765116E+03  0.26682363050E+03  0.17200000000E+03 0. -1.
         -6    1    1    2    0  502  0.85641090060E+02  0.61254503165E+01  0.26373917518E+03  0.32636524014E+03  0.17200000000E+03 0.  1.
</event>
<event>
 4    1 -0.6384999E-004  0.1915983E+03  0.7818608E-02  0.1157028E+00
          5   -1    0    0  501    0  0.00000000000E+00  0.00000000000E+00  0.59997004817E+02  0.60180815772E+02  0.47000000000E+01 0. -1.
         -5   -1    0    0    0  501 -0.00000000000E+00 -0.00000000000E+00 -0.10818520782E+04  0.10818622875E+04  0.47000000000E+01 0.  1.
          6    1    1    2  502    0 -0.78059211422E+02 -0.32134905883E+02 -0.13414220070E+03  0.23388891096E+03  0.17200000000E+03 0. -1.
         -6    1    1    2    0  502  0.78059211422E+02  0.32134905883E+02 -0.88771287267E+03  0.90815419229E+03  0.17200000000E+03 0.  1.
</event>
<event>
 4    1 -0.6384999E-004  0.3092079E+03  0.7818608E-02  0.1080726E+00
         -5   -1    0    0    0  501 -0.00000000000E+00  0.00000000000E+00  0.76138649057E+03  0.76140099686E+03  0.47000000000E+01 0.  1.
          5   -1    0    0  501    0  0.00000000000E+00 -0.00000000000E+00 -0.18558368964E+03  0.18564319503E+03  0.47000000000E+01 0. -1.
          6    1    1    2  502    0  0.13240800544E+02  0.25661292021E+03  0.18563386013E+02  0.30976460243E+03  0.17200000000E+03 0. -1.
         -6    1    1    2    0  502 -0.13240800544E+02 -0.25661292021E+03  0.55723941491E+03  0.63727958947E+03  0.17200000000E+03 0.  1.
</event>
<event>
 4    1 -0.6384999E-004  0.4042133E+03  0.7818608E-02  0.1042330E+00
          5   -1    0    0  501    0  0.00000000000E+00  0.00000000000E+00  0.56444243977E+03  0.56446200742E+03  0.47000000000E+01 0. -1.
         -5   -1    0    0    0  501 -0.00000000000E+00 -0.00000000000E+00 -0.41259718755E+03  0.41262395613E+03  0.47000000000E+01 0.  1.
          6    1    1    2  502    0 -0.35093939794E+03 -0.10317902170E+03  0.34283498224E+03  0.53002282649E+03  0.17200000000E+03 0. -1.
         -6    1    1    2    0  502  0.35093939794E+03  0.10317902170E+03 -0.19098973002E+03  0.44706313706E+03  0.17200000000E+03 0.  1.
</event>
<event>
 4    1 -0.6384999E-004  0.1827676E+03  0.7818608E-02  0.1165151E+00
         -5   -1    0    0    0  501 -0.00000000000E+00  0.00000000000E+00  0.50413750659E+03  0.50415941482E+03  0.47000000000E+01 0.  1.
          5   -1    0    0  501    0  0.00000000000E+00 -0.00000000000E+00 -0.66732838180E+02  0.66898144157E+02  0.47000000000E+01 0. -1.
          6    1    1    2  502    0 -0.29515106471E+01  0.61735538983E+02  0.19212319166E+03  0.26517033952E+03  0.17200000000E+03 0. -1.
         -6    1    1    2    0  502  0.29515106471E+01 -0.61735538983E+02  0.24528147675E+03  0.30588721945E+03  0.17200000000E+03 0.  1.
</event>
<event>
 4    1 -0.6384999E-004  0.2918459E+03  0.7818608E-02  0.1089389E+00
         -5   -1    0    0    0  501 -0.00000000000E+00  0.00000000000E+00  0.90365502097E+03  0.90366724347E+03  0.47000000000E+01 0.  1.
          5   -1    0    0  501    0  0.00000000000E+00 -0.00000000000E+00 -0.13351498936E+03  0.13359768854E+03  0.47000000000E+01 0. -1.
          6    1    1    2  502    0 -0.85337203059E+02 -0.21978991439E+03  0.10369726073E+03  0.30972111097E+03  0.17200000000E+03 0. -1.
         -6    1    1    2    0  502  0.85337203059E+02  0.21978991439E+03  0.66644277087E+03  0.72754382104E+03  0.17200000000E+03 0.  1.
</event>
<event>
 4    1 -0.6384999E-004  0.1925610E+03  0.7818608E-02  0.1156172E+00
         -5   -1    0    0    0  501 -0.00000000000E+00  0.00000000000E+00  0.13398905640E+03  0.13407146316E+03  0.47000000000E+01 0.  1.
          5   -1    0    0  501    0  0.00000000000E+00 -0.00000000000E+00 -0.27912718555E+03  0.27916675252E+03  0.47000000000E+01 0. -1.
          6    1    1    2  502    0 -0.79946975224E+02  0.33229744319E+02 -0.52718071039E+02  0.19964701292E+03  0.17200000000E+03 0. -1.
         -6    1    1    2    0  502  0.79946975224E+02 -0.33229744319E+02 -0.92420058112E+02  0.21359120276E+03  0.17200000000E+03 0. -1.
</event>
<event>
 4    1 -0.6384999E-004  0.1726459E+03  0.7818608E-02  0.1175116E+00
          5   -1    0    0  501    0  0.00000000000E+00  0.00000000000E+00  0.30730440589E+02  0.31087778608E+02  0.47000000000E+01 0. -1.
         -5   -1    0    0    0  501 -0.00000000000E+00 -0.00000000000E+00 -0.96911660978E+03  0.96912800669E+03  0.47000000000E+01 0.  1.
          6    1    1    2  502    0  0.13325074542E+02  0.67130413537E+01 -0.50563730537E+03  0.53429926738E+03  0.17200000000E+03 0. -1.
         -6    1    1    2    0  502 -0.13325074542E+02 -0.67130413537E+01 -0.43274886382E+03  0.46591651792E+03  0.17200000000E+03 0. -1.
</event>
<event>
 4    1 -0.6384999E-004  0.2137071E+03  0.7818608E-02  0.1138664E+00
         -5   -1    0    0    0  501 -0.00000000000E+00  0.00000000000E+00  0.92069443375E+03  0.92070643005E+03  0.47000000000E+01 0.  1.
          5   -1    0    0  501    0  0.00000000000E+00 -0.00000000000E+00 -0.57294851599E+02  0.57487303118E+02  0.47000000000E+01 0. -1.
          6    1    1    2  502    0  0.11780726899E+03  0.46991309628E+02  0.25142316969E+03  0.32997628106E+03  0.17200000000E+03 0. -1.
         -6    1    1    2    0  502 -0.11780726899E+03 -0.46991309628E+02  0.61197641246E+03  0.64821745210E+03  0.17200000000E+03 0.  1.
</event>
<event>
 4    1 -0.6384999E-004  0.2059832E+03  0.7818608E-02  0.1144787E+00
         -5   -1    0    0    0  501 -0.00000000000E+00  0.00000000000E+00  0.11542861021E+04  0.11542956708E+04  0.47000000000E+01 0.  1.
          5   -1    0    0  501    0  0.00000000000E+00 -0.00000000000E+00 -0.56886477963E+02  0.57080306367E+02  0.47000000000E+01 0. -1.
          6    1    1    2  502    0  0.10362546054E+03  0.45900411373E+02  0.18779497372E+03  0.27874008681E+03  0.17200000000E+03 0.  1.
         -6    1    1    2    0  502 -0.10362546054E+03 -0.45900411373E+02  0.90960465045E+03  0.93263589034E+03  0.17200000000E+03 0.  1.
</event>
<event>
 4    1 -0.6384999E-004  0.4495726E+03  0.7818608E-02  0.1027850E+00
         -5   -1    0    0    0  501 -0.00000000000E+00  0.00000000000E+00  0.22245686595E+04  0.22245736245E+04  0.47000000000E+01 0.  1.
          5   -1    0    0  501    0  0.00000000000E+00 -0.00000000000E+00 -0.15309137992E+03  0.15316350938E+03  0.47000000000E+01 0. -1.
          6    1    1    2  502    0 -0.38758578818E+03 -0.14936122507E+03  0.27757622105E+03  0.52835979905E+03  0.17200000000E+03 0. -1.
         -6    1    1    2    0  502  0.38758578818E+03  0.14936122507E+03  0.17939010585E+04  0.18493773348E+04  0.17200000000E+03 0.  1.
</event>
<event>
 4    1 -0.6384999E-004  0.1923368E+03  0.7818608E-02  0.1156370E+00
          5   -1    0    0  501    0  0.00000000000E+00  0.00000000000E+00  0.33598099459E+03  0.33601386686E+03  0.47000000000E+01 0. -1.
         -5   -1    0    0    0  501 -0.00000000000E+00 -0.00000000000E+00 -0.12470664161E+03  0.12479517804E+03  0.47000000000E+01 0.  1.
          6    1    1    2  502    0 -0.62994522727E+02  0.58661204808E+02  0.26601129382E+02  0.19416762585E+03  0.17200000000E+03 0.  1.
         -6    1    1    2    0  502  0.62994522727E+02 -0.58661204808E+02  0.18467322359E+03  0.26664141905E+03  0.17200000000E+03 0. -1.
</event>
<event>
 4    1 -0.6384999E-004  0.3163797E+03  0.7818608E-02  0.1077328E+00
         -5   -1    0    0    0  501 -0.00000000000E+00  0.00000000000E+00  0.10632349141E+03  0.10642732180E+03  0.47000000000E+01 0.  1.
          5   -1    0    0  501    0  0.00000000000E+00 -0.00000000000E+00 -0.11326438058E+04  0.11326535573E+04  0.47000000000E+01 0. -1.
          6    1    1    2  502    0 -0.84880632635E+02 -0.25160962526E+03 -0.76808139496E+03  0.83068956573E+03  0.17200000000E+03 0. -1.
         -6    1    1    2    0  502  0.84880632635E+02  0.25160962526E+03 -0.25823891944E+03  0.40839131337E+03  0.17200000000E+03 0.  1.
</event>
<event>
 4    1 -0.6384999E-004  0.1823483E+03  0.7818608E-02  0.1165550E+00
          5   -1    0    0  501    0  0.00000000000E+00  0.00000000000E+00  0.74770111518E+03  0.74771588698E+03  0.47000000000E+01 0. -1.
         -5   -1    0    0    0  501 -0.00000000000E+00 -0.00000000000E+00 -0.46448130110E+02  0.46685316650E+02  0.47000000000E+01 0.  1.
          6    1    1    2  502    0  0.25675152600E+02 -0.54842299675E+02  0.43518510975E+03  0.47184422328E+03  0.17200000000E+03 0. -1.
         -6    1    1    2    0  502 -0.25675152600E+02  0.54842299675E+02  0.26606787532E+03  0.32255698035E+03  0.17200000000E+03 0.  1.
</event>
<event>
 4    1 -0.6384999E-004  0.1740012E+03  0.7818608E-02  0.1173738E+00
          5   -1    0    0  501    0  0.00000000000E+00  0.00000000000E+00  0.68718802814E+02  0.68879342769E+02  0.47000000000E+01 0. -1.
         -5   -1    0    0    0  501 -0.00000000000E+00 -0.00000000000E+00 -0.44392205499E+03  0.44394693478E+03  0.47000000000E+01 0.  1.
          6    1    1    2  502    0 -0.34892355941E+01  0.26081750647E+02 -0.16319157508E+03  0.23855381502E+03  0.17200000000E+03 0. -1.
         -6    1    1    2    0  502  0.34892355941E+01 -0.26081750647E+02 -0.21201167709E+03  0.27427246254E+03  0.17200000000E+03 0.  1.
</event>
<event>
 4    1 -0.6384999E-004  0.1775414E+03  0.7818608E-02  0.1170204E+00
          5   -1    0    0  501    0  0.00000000000E+00  0.00000000000E+00  0.11208726724E+03  0.11218576325E+03  0.47000000000E+01 0. -1.
         -5   -1    0    0    0  501 -0.00000000000E+00 -0.00000000000E+00 -0.61541956998E+03  0.61543751682E+03  0.47000000000E+01 0.  1.
          6    1    1    2  502    0 -0.11261323260E+02 -0.42545537910E+02  0.16502117138E+02  0.17830664617E+03  0.17200000000E+03 0. -1.
         -6    1    1    2    0  502  0.11261323260E+02  0.42545537910E+02 -0.51983441988E+03  0.54931663391E+03  0.17200000000E+03 0.  1.
</event>
<event>
 4    1 -0.6384999E-004  0.2445243E+03  0.7818608E-02  0.1116815E+00
          5   -1    0    0  501    0  0.00000000000E+00  0.00000000000E+00  0.35927231501E+03  0.35930305640E+03  0.47000000000E+01 0. -1.
         -5   -1    0    0    0  501 -0.00000000000E+00 -0.00000000000E+00 -0.16636303095E+03  0.16642940866E+03  0.47000000000E+01 0.  1.
          6    1    1    2  502    0  0.12657781779E+03  0.11910583652E+03  0.98320903292E+02  0.26355102783E+03  0.17200000000E+03 0.  1.
         -6    1    1    2    0  502 -0.12657781779E+03 -0.11910583652E+03  0.94588380767E+02  0.26218143722E+03  0.17200000000E+03 0.  1.
</event>
<event>
 4    1 -0.6384999E-004  0.1746018E+03  0.7818608E-02  0.1173132E+00
         -5   -1    0    0    0  501 -0.00000000000E+00  0.00000000000E+00  0.60254234614E+02  0.60437263249E+02  0.47000000000E+01 0.  1.
          5   -1    0    0  501    0  0.00000000000E+00 -0.00000000000E+00 -0.53371394050E+03  0.53373463470E+03  0.47000000000E+01 0. -1.
          6    1    1    2  502    0 -0.36780752472E+01 -0.29803507741E+02 -0.30563596527E+03  0.35199306893E+03  0.17200000000E+03 0. -1.
         -6    1    1    2    0  502  0.36780752472E+01  0.29803507741E+02 -0.16782374062E+03  0.24217882902E+03  0.17200000000E+03 0.  1.
</event>
<event>
 4    1 -0.6384999E-004  0.1785500E+03  0.7818608E-02  0.1169214E+00
         -5   -1    0    0    0  501 -0.00000000000E+00  0.00000000000E+00  0.27615924459E+02  0.28013019896E+02  0.47000000000E+01 0.  1.
          5   -1    0    0  501    0  0.00000000000E+00 -0.00000000000E+00 -0.11467582886E+04  0.11467679200E+04  0.47000000000E+01 0. -1.
          6    1    1    2  502    0  0.13962852618E+02  0.45838035757E+02 -0.57683731138E+03  0.60383886143E+03  0.17200000000E+03 0.  1.
         -6    1    1    2    0  502 -0.13962852618E+02 -0.45838035757E+02 -0.54230505274E+03  0.57094207850E+03  0.17200000000E+03 0.  1.
</event>
<event>
 4    1 -0.6384999E-004  0.1754980E+03  0.7818608E-02  0.1172233E+00
          5   -1    0    0  501    0  0.00000000000E+00  0.00000000000E+00  0.11186298385E+04  0.11186397121E+04  0.47000000000E+01 0. -1.
         -5   -1    0    0    0  501 -0.00000000000E+00 -0.00000000000E+00 -0.28352739931E+02  0.28739656601E+02  0.47000000000E+01 0.  1.
          6    1    1    2  502    0  0.34370298876E+02 -0.58503079929E+01  0.65371818272E+03  0.67686557452E+03  0.17200000000E+03 0. -1.
         -6    1    1    2    0  502 -0.34370298876E+02  0.58503079929E+01  0.43655891583E+03  0.47051379421E+03  0.17200000000E+03 0.  1.
</event>
<event>
 4    1 -0.6384999E-004  0.2034646E+03  0.7818608E-02  0.1146848E+00
         -5   -1    0    0    0  501 -0.00000000000E+00  0.00000000000E+00  0.12336932671E+04  0.12337022198E+04  0.47000000000E+01 0.  1.
          5   -1    0    0  501    0  0.00000000000E+00 -0.00000000000E+00 -0.37802243547E+02  0.38093301474E+02  0.47000000000E+01 0. -1.
          6    1    1    2  502    0  0.54612421209E+02  0.93975240434E+02  0.38142001523E+03  0.43229514268E+03  0.17200000000E+03 0. -1.
         -6    1    1    2    0  502 -0.54612421209E+02 -0.93975240434E+02  0.81447100828E+03  0.83950037862E+03  0.17200000000E+03 0. -1.
</event>
<event>
 4    1 -0.6384999E-004  0.2085096E+03  0.7818608E-02  0.1142752E+00
          5   -1    0    0  501    0  0.00000000000E+00  0.00000000000E+00  0.58363807661E+02  0.58552745834E+02  0.47000000000E+01 0. -1.
         -5   -1    0    0    0  501 -0.00000000000E+00 -0.00000000000E+00 -0.91731062000E+03  0.91732266056E+03  0.47000000000E+01 0.  1.
          6    1    1    2  502    0 -0.11518606104E+03  0.24988659389E+02 -0.64183398705E+03  0.67485341274E+03  0.17200000000E+03 0.  1.
         -6    1    1    2    0  502  0.11518606104E+03 -0.24988659389E+02 -0.21711282529E+03  0.30102199365E+03  0.17200000000E+03 0. -1.
</event>
<event>
 4    1 -0.6384999E-004  0.3945078E+03  0.7818608E-02  0.1045698E+00
         -5   -1    0    0    0  501 -0.00000000000E+00  0.00000000000E+00  0.13899344206E+03  0.13907288354E+03  0.47000000000E+01 0.  1.
          5   -1    0    0  501    0  0.00000000000E+00 -0.00000000000E+00 -0.12070251152E+04  0.12070342657E+04  0.47000000000E+01 0. -1.
          6    1    1    2  502    0  0.34245417487E+03  0.93688665954E+02 -0.71542139629E+03  0.81698482378E+03  0.17200000000E+03 0. -1.
         -6    1    1    2    0  502 -0.34245417487E+03 -0.93688665954E+02 -0.35261027683E+03  0.52912232550E+03  0.17200000000E+03 0.  1.
</event>
<event>
 4    1 -0.6384999E-004  0.2271099E+03  0.7818608E-02  0.1128691E+00
          5   -1    0    0  501    0  0.00000000000E+00  0.00000000000E+00  0.14611816415E+03  0.14619373412E+03  0.47000000000E+01 0. -1.
         -5   -1    0    0    0  501 -0.00000000000E+00 -0.00000000000E+00 -0.43256088684E+03  0.43258642007E+03  0.47000000000E+01 0.  1.
          6    1    1    2  502    0  0.12082427650E+03  0.86002229066E+02 -0.18978788060E+02  0.22790147782E+03  0.17200000000E+03 0. -1.
         -6    1    1    2    0  502 -0.12082427650E+03 -0.86002229066E+02 -0.26746393463E+03  0.35087867636E+03  0.17200000000E+03 0.  1.
</event>
<event>
 4    1 -0.6384999E-004  0.2027630E+03  0.7818608E-02  0.1147429E+00
         -5   -1    0    0    0  501 -0.00000000000E+00  0.00000000000E+00  0.35893139592E+03  0.35896216650E+03  0.47000000000E+01 0.  1.
          5   -1    0    0  501    0  0.00000000000E+00 -0.00000000000E+00 -0.12001108596E+03  0.12010308387E+03  0.47000000000E+01 0. -1.
          6    1    1    2  502    0 -0.94220385159E+02 -0.51491320731E+02  0.67963519209E+02  0.21385012750E+03  0.17200000000E+03 0. -1.
         -6    1    1    2    0  502  0.94220385159E+02  0.51491320731E+02  0.17095679075E+03  0.26521512286E+03  0.17200000000E+03 0.  1.
</event>
<event>
 4    1 -0.6384999E-004  0.1809657E+03  0.7818608E-02  0.1166872E+00
          5   -1    0    0  501    0  0.00000000000E+00  0.00000000000E+00  0.16467585563E+03  0.16474291314E+03  0.47000000000E+01 0. -1.
         -5   -1    0    0    0  501 -0.00000000000E+00 -0.00000000000E+00 -0.28820451673E+03  0.28824283767E+03  0.47000000000E+01 0.  1.
          6    1    1    2  502    0 -0.32748492120E+02 -0.45739844620E+02  0.64407916065E+02  0.19208585782E+03  0.17200000000E+03 0. -1.
         -6    1    1    2    0  502  0.32748492120E+02  0.45739844620E+02 -0.18793657717E+03  0.26089989298E+03  0.17200000000E+03 0.  1.
</event>
<event>
 4    1 -0.6384999E-004  0.2887600E+03  0.7818608E-02  0.1090998E+00
          5   -1    0    0  501    0  0.00000000000E+00  0.00000000000E+00  0.44493019796E+03  0.44495502139E+03  0.47000000000E+01 0. -1.
         -5   -1    0    0    0  501 -0.00000000000E+00 -0.00000000000E+00 -0.28772219938E+03  0.28776058455E+03  0.47000000000E+01 0.  1.
          6    1    1    2  502    0  0.10921064124E+03  0.20462497129E+03  0.29496493036E+03  0.41277918211E+03  0.17200000000E+03 0. -1.
         -6    1    1    2    0  502 -0.10921064124E+03 -0.20462497129E+03 -0.13775693179E+03  0.31993642383E+03  0.17200000000E+03 0.  1.
</event>
<event>
 4    1 -0.6384999E-004  0.1795547E+03  0.7818608E-02  0.1168235E+00
          5   -1    0    0  501    0  0.00000000000E+00  0.00000000000E+00  0.39596681844E+03  0.39599471121E+03  0.47000000000E+01 0. -1.
         -5   -1    0    0    0  501 -0.00000000000E+00 -0.00000000000E+00 -0.81346214396E+02  0.81481878946E+02  0.47000000000E+01 0.  1.
          6    1    1    2  502    0 -0.18284377457E+02  0.48182847547E+02  0.16141584373E+03  0.24144353349E+03  0.17200000000E+03 0.  1.
         -6    1    1    2    0  502  0.18284377457E+02 -0.48182847547E+02  0.15320476032E+03  0.23603305667E+03  0.17200000000E+03 0. -1.
</event>
<event>
 4    1 -0.6384999E-004  0.1848721E+03  0.7818608E-02  0.1163169E+00
         -5   -1    0    0    0  501 -0.00000000000E+00  0.00000000000E+00  0.14975119469E+04  0.14975193225E+04  0.47000000000E+01 0.  1.
          5   -1    0    0  501    0  0.00000000000E+00 -0.00000000000E+00 -0.42457631157E+02  0.42716980739E+02  0.47000000000E+01 0. -1.
          6    1    1    2  502    0  0.42998053455E+02  0.52391427110E+02  0.20283780951E+03  0.27444648149E+03  0.17200000000E+03 0. -1.
         -6    1    1    2    0  502 -0.42998053455E+02 -0.52391427110E+02  0.12522165063E+04  0.12657898217E+04  0.17200000000E+03 0.  1.
</event>
<event>
 4    1 -0.6384999E-004  0.3083101E+03  0.7818608E-02  0.1081159E+00
         -5   -1    0    0    0  501 -0.00000000000E+00  0.00000000000E+00  0.12800651833E+04  0.12800738117E+04  0.47000000000E+01 0.  1.
          5   -1    0    0  501    0  0.00000000000E+00 -0.00000000000E+00 -0.90812285855E+02  0.90933829030E+02  0.47000000000E+01 0. -1.
          6    1    1    2  502    0  0.58141479250E+02  0.24917997861E+03  0.30144364543E+03  0.43118831700E+03  0.17200000000E+03 0. -1.
         -6    1    1    2    0  502 -0.58141479250E+02 -0.24917997861E+03  0.88780925197E+03  0.93981932372E+03  0.17200000000E+03 0.  1.
</event>
<event>
 4    1 -0.6384999E-004  0.3373291E+03  0.7818608E-02  0.1067939E+00
         -5   -1    0    0    0  501 -0.00000000000E+00  0.00000000000E+00  0.62025171560E+03  0.62026952263E+03  0.47000000000E+01 0.  1.
          5   -1    0    0  501    0  0.00000000000E+00 -0.00000000000E+00 -0.18742429515E+03  0.18748321635E+03  0.47000000000E+01 0. -1.
          6    1    1    2  502    0  0.23569372225E+03 -0.16927897145E+03  0.15730903630E+03  0.37220563374E+03  0.17200000000E+03 0. -1.
         -6    1    1    2    0  502 -0.23569372225E+03  0.16927897145E+03  0.27551838415E+03  0.43554710524E+03  0.17200000000E+03 0.  1.
</event>
<event>
 4    1 -0.6384999E-004  0.2164058E+03  0.7818608E-02  0.1136591E+00
          5   -1    0    0  501    0  0.00000000000E+00  0.00000000000E+00  0.36325651607E+03  0.36328692031E+03  0.47000000000E+01 0. -1.
         -5   -1    0    0    0  501 -0.00000000000E+00 -0.00000000000E+00 -0.17775132963E+03  0.17781345615E+03  0.47000000000E+01 0.  1.
          6    1    1    2  502    0  0.11744769553E+03 -0.58766512501E+02  0.23462810204E+03  0.31918930189E+03  0.17200000000E+03 0. -1.
         -6    1    1    2    0  502 -0.11744769553E+03  0.58766512501E+02 -0.49122915598E+02  0.22191107456E+03  0.17200000000E+03 0. -1.
</event>
<event>
 4    1 -0.6384999E-004  0.2552995E+03  0.7818608E-02  0.1110001E+00
          5   -1    0    0  501    0  0.00000000000E+00  0.00000000000E+00  0.70159634386E+02  0.70316884865E+02  0.47000000000E+01 0. -1.
         -5   -1    0    0    0  501 -0.00000000000E+00 -0.00000000000E+00 -0.13764473304E+04  0.13764553546E+04  0.47000000000E+01 0.  1.
          6    1    1    2  502    0  0.89753339304E+02 -0.16594626965E+03 -0.24017116801E+03  0.35051393163E+03  0.17200000000E+03 0. -1.
         -6    1    1    2    0  502 -0.89753339304E+02  0.16594626965E+03 -0.10661165280E+04  0.10962583079E+04  0.17200000000E+03 0.  1.
</event>
<event>
 4    1 -0.6384999E-004  0.1724862E+03  0.7818608E-02  0.1175280E+00
          5   -1    0    0  501    0  0.00000000000E+00  0.00000000000E+00  0.13111475483E+03  0.13119896697E+03  0.47000000000E+01 0. -1.
         -5   -1    0    0    0  501 -0.00000000000E+00 -0.00000000000E+00 -0.22932504020E+03  0.22937319822E+03  0.47000000000E+01 0.  1.
          6    1    1    2  502    0 -0.11948406537E+02 -0.49711633483E+01 -0.29933628101E+02  0.17506427098E+03  0.17200000000E+03 0. -1.
         -6    1    1    2    0  502  0.11948406537E+02  0.49711633483E+01 -0.68276657274E+02  0.18550789421E+03  0.17200000000E+03 0.  1.
</event>
<event>
 4    1 -0.6384999E-004  0.3743980E+03  0.7818608E-02  0.1053024E+00
          5   -1    0    0  501    0  0.00000000000E+00  0.00000000000E+00  0.19489799938E+03  0.19495466181E+03  0.47000000000E+01 0. -1.
         -5   -1    0    0    0  501 -0.00000000000E+00 -0.00000000000E+00 -0.11289671055E+04  0.11289768888E+04  0.47000000000E+01 0.  1.
          6    1    1    2  502    0  0.30772101678E+03  0.12608585538E+03 -0.68165053823E+02  0.38055267921E+03  0.17200000000E+03 0. -1.
         -6    1    1    2    0  502 -0.30772101678E+03 -0.12608585538E+03 -0.86590405232E+03  0.94337887135E+03  0.17200000000E+03 0.  1.
</event>
<event>
 4    1 -0.6384999E-004  0.1809971E+03  0.7818608E-02  0.1166841E+00
         -5   -1    0    0    0  501 -0.00000000000E+00  0.00000000000E+00  0.82971033878E+03  0.82972365054E+03  0.47000000000E+01 0.  1.
          5   -1    0    0  501    0  0.00000000000E+00 -0.00000000000E+00 -0.66418440162E+02  0.66584526682E+02  0.47000000000E+01 0. -1.
          6    1    1    2  502    0  0.32495357184E+02  0.46043612348E+02  0.95950517724E+02  0.20485718032E+03  0.17200000000E+03 0. -1.
         -6    1    1    2    0  502 -0.32495357184E+02 -0.46043612348E+02  0.66734138089E+03  0.69145099691E+03  0.17200000000E+03 0.  1.
</event>
<event>
 4    1 -0.6384999E-004  0.2083715E+03  0.7818608E-02  0.1142862E+00
         -5   -1    0    0    0  501 -0.00000000000E+00  0.00000000000E+00  0.59742353285E+03  0.59744202029E+03  0.47000000000E+01 0.  1.
          5   -1    0    0  501    0  0.00000000000E+00 -0.00000000000E+00 -0.75826221792E+02  0.75971744163E+02  0.47000000000E+01 0. -1.
          6    1    1    2  502    0  0.31394762078E+01 -0.11757903390E+03  0.33037958648E+03  0.39060127584E+03  0.17200000000E+03 0. -1.
         -6    1    1    2    0  502 -0.31394762078E+01  0.11757903390E+03  0.19121772458E+03  0.28281248862E+03  0.17200000000E+03 0. -1.
</event>
<event>
 4    1 -0.6384999E-004  0.1828844E+03  0.7818608E-02  0.1165040E+00
          5   -1    0    0  501    0  0.00000000000E+00  0.00000000000E+00  0.52743624163E+02  0.52952619292E+02  0.47000000000E+01 0. -1.
         -5   -1    0    0    0  501 -0.00000000000E+00 -0.00000000000E+00 -0.93137914087E+03  0.93139099955E+03  0.47000000000E+01 0.  1.
          6    1    1    2  502    0 -0.59600039234E+02 -0.17622620224E+02 -0.71801228491E+03  0.74093748907E+03  0.17200000000E+03 0.  1.
         -6    1    1    2    0  502  0.59600039234E+02  0.17622620224E+02 -0.16062323179E+03  0.24340612977E+03  0.17200000000E+03 0. -1.
</event>
<event>
 4    1 -0.6384999E-004  0.1723784E+03  0.7818608E-02  0.1175390E+00
         -5   -1    0    0    0  501 -0.00000000000E+00  0.00000000000E+00  0.34805152352E+02  0.35121056793E+02  0.47000000000E+01 0.  1.
          5   -1    0    0  501    0  0.00000000000E+00 -0.00000000000E+00 -0.11066741378E+04  0.11066841181E+04  0.47000000000E+01 0. -1.
          6    1    1    2  502    0  0.53582496626E+01 -0.10079503029E+02 -0.26079292236E+03  0.31261358827E+03  0.17200000000E+03 0.  1.
         -6    1    1    2    0  502 -0.53582496626E+01  0.10079503029E+02 -0.81107606310E+03  0.82919158664E+03  0.17200000000E+03 0. -1.
</event>
<event>
 4    1 -0.6384999E-004  0.2118987E+03  0.7818608E-02  0.1140071E+00
          5   -1    0    0  501    0  0.00000000000E+00  0.00000000000E+00  0.59745649831E+02  0.59930231717E+02  0.47000000000E+01 0. -1.
         -5   -1    0    0    0  501 -0.00000000000E+00 -0.00000000000E+00 -0.76692398143E+03  0.76693838298E+03  0.47000000000E+01 0.  1.
          6    1    1    2  502    0  0.79380427781E+02  0.94951507339E+02 -0.41465975807E+03  0.46566485376E+03  0.17200000000E+03 0. -1.
         -6    1    1    2    0  502 -0.79380427781E+02 -0.94951507339E+02 -0.29251857353E+03  0.36120376094E+03  0.17200000000E+03 0. -1.
</event>
<event>
 4    1 -0.6384999E-004  0.2564248E+03  0.7818608E-02  0.1109311E+00
          5   -1    0    0  501    0  0.00000000000E+00  0.00000000000E+00  0.10913160092E+03  0.10923276212E+03  0.47000000000E+01 0. -1.
         -5   -1    0    0    0  501 -0.00000000000E+00 -0.00000000000E+00 -0.10713718642E+04  0.10713821734E+04  0.47000000000E+01 0.  1.
          6    1    1    2  502    0 -0.13415226412E+03 -0.13480661262E+03 -0.90473365496E+02  0.27191741879E+03  0.17200000000E+03 0. -1.
         -6    1    1    2    0  502  0.13415226412E+03  0.13480661262E+03 -0.87176689779E+03  0.90869751670E+03  0.17200000000E+03 0.  1.
</event>
<event>
 4    1 -0.6384999E-004  0.3780112E+03  0.7818608E-02  0.1051671E+00
          5   -1    0    0  501    0  0.00000000000E+00  0.00000000000E+00  0.29950836336E+03  0.29954523819E+03  0.47000000000E+01 0. -1.
         -5   -1    0    0    0  501 -0.00000000000E+00 -0.00000000000E+00 -0.61445211276E+03  0.61447008786E+03  0.47000000000E+01 0.  1.
          6    1    1    2  502    0  0.67969000901E+02 -0.32967972162E+03  0.58658257416E+02  0.38253535143E+03  0.17200000000E+03 0. -1.
         -6    1    1    2    0  502 -0.67969000901E+02  0.32967972162E+03 -0.37360200682E+03  0.53147997462E+03  0.17200000000E+03 0.  1.
</event>
<event>
 4    1 -0.6384999E-004  0.1854229E+03  0.7818608E-02  0.1162656E+00
         -5   -1    0    0    0  501 -0.00000000000E+00  0.00000000000E+00  0.17152321577E+03  0.17158759731E+03  0.47000000000E+01 0.  1.
          5   -1    0    0  501    0  0.00000000000E+00 -0.00000000000E+00 -0.21587473357E+03  0.21592589144E+03  0.47000000000E+01 0. -1.
          6    1    1    2  502    0 -0.39856636692E+02 -0.56649073724E+02  0.29820955496E+02  0.18780564003E+03  0.17200000000E+03 0. -1.
         -6    1    1    2    0  502  0.39856636692E+02  0.56649073724E+02 -0.74172473292E+02  0.19970784871E+03  0.17200000000E+03 0. -1.
</event>
<event>
 4    1 -0.6384999E-004  0.1906537E+03  0.7818608E-02  0.1157873E+00
         -5   -1    0    0    0  501 -0.00000000000E+00  0.00000000000E+00  0.10147342340E+03  0.10158221132E+03  0.47000000000E+01 0.  1.
          5   -1    0    0  501    0  0.00000000000E+00 -0.00000000000E+00 -0.44863647422E+03  0.44866109258E+03  0.47000000000E+01 0. -1.
          6    1    1    2  502    0 -0.52142089011E+02 -0.63608592100E+02 -0.29729463812E+03  0.35317552617E+03  0.17200000000E+03 0. -1.
         -6    1    1    2    0  502  0.52142089011E+02  0.63608592100E+02 -0.49868412695E+02  0.19706777773E+03  0.17200000000E+03 0.  1.
</event>
<event>
 4    1 -0.6384999E-004  0.2698123E+03  0.7818608E-02  0.1101387E+00
         -5   -1    0    0    0  501 -0.00000000000E+00  0.00000000000E+00  0.10421033215E+03  0.10431626588E+03  0.47000000000E+01 0.  1.
          5   -1    0    0  501    0  0.00000000000E+00 -0.00000000000E+00 -0.70268439738E+03  0.70270011550E+03  0.47000000000E+01 0. -1.
          6    1    1    2  502    0 -0.20760513787E+03  0.10712655254E+02 -0.26666728903E+03  0.37935484351E+03  0.17200000000E+03 0. -1.
         -6    1    1    2    0  502  0.20760513787E+03 -0.10712655254E+02 -0.33180677619E+03  0.42766153788E+03  0.17200000000E+03 0.  1.
</event>
<event>
 4    1 -0.6384999E-004  0.3837947E+03  0.7818608E-02  0.1049540E+00
          5   -1    0    0  501    0  0.00000000000E+00  0.00000000000E+00  0.20763480533E+03  0.20768799288E+03  0.47000000000E+01 0. -1.
         -5   -1    0    0    0  501 -0.00000000000E+00 -0.00000000000E+00 -0.15929035772E+04  0.15929105111E+04  0.47000000000E+01 0.  1.
          6    1    1    2  502    0  0.29671120742E+03  0.17226957090E+03 -0.22098218536E+02  0.38443032780E+03  0.17200000000E+03 0. -1.
         -6    1    1    2    0  502 -0.29671120742E+03 -0.17226957090E+03 -0.13631705533E+04  0.14161681761E+04  0.17200000000E+03 0.  1.
</event>
<event>
 4    1 -0.6384999E-004  0.1750210E+03  0.7818608E-02  0.1172711E+00
         -5   -1    0    0    0  501 -0.00000000000E+00  0.00000000000E+00  0.84127027569E+02  0.84258214838E+02  0.47000000000E+01 0.  1.
          5   -1    0    0  501    0  0.00000000000E+00 -0.00000000000E+00 -0.36492864085E+03  0.36495890579E+03  0.47000000000E+01 0. -1.
          6    1    1    2  502    0  0.20548251884E+02  0.25022104408E+02 -0.15348370498E+03  0.23278656331E+03  0.17200000000E+03 0. -1.
         -6    1    1    2    0  502 -0.20548251884E+02 -0.25022104408E+02 -0.12731790831E+03  0.21643055732E+03  0.17200000000E+03 0. -1.
</event>
<event>
 4    1 -0.6384999E-004  0.3037973E+03  0.7818608E-02  0.1083358E+00
         -5   -1    0    0    0  501 -0.00000000000E+00  0.00000000000E+00  0.12352325499E+04  0.12352414915E+04  0.47000000000E+01 0.  1.
          5   -1    0    0  501    0  0.00000000000E+00 -0.00000000000E+00 -0.78045924558E+02  0.78187315724E+02  0.47000000000E+01 0. -1.
          6    1    1    2  502    0  0.31820713564E+00  0.25041701111E+03  0.71577224479E+03  0.77757487557E+03  0.17200000000E+03 0.  1.
         -6    1    1    2    0  502 -0.31820713564E+00 -0.25041701111E+03  0.44141438054E+03  0.53585393164E+03  0.17200000000E+03 0. -1.
</event>
<event>
 4    1 -0.6384999E-004  0.2626590E+03  0.7818608E-02  0.1105556E+00
         -5   -1    0    0    0  501 -0.00000000000E+00  0.00000000000E+00  0.19505939231E+03  0.19511600787E+03  0.47000000000E+01 0.  1.
          5   -1    0    0  501    0  0.00000000000E+00 -0.00000000000E+00 -0.35379708404E+03  0.35382830112E+03  0.47000000000E+01 0. -1.
          6    1    1    2  502    0  0.16895052313E+03 -0.10421839404E+03 -0.72299482638E+02  0.27242791361E+03  0.17200000000E+03 0. -1.
         -6    1    1    2    0  502 -0.16895052313E+03  0.10421839404E+03 -0.86438209092E+02  0.27651639538E+03  0.17200000000E+03 0.  1.
</event>
<event>
 4    1 -0.6384999E-004  0.1834287E+03  0.7818608E-02  0.1164525E+00
         -5   -1    0    0    0  501 -0.00000000000E+00  0.00000000000E+00  0.16509644582E+02  0.17165615754E+02  0.47000000000E+01 0.  1.
          5   -1    0    0  501    0  0.00000000000E+00 -0.00000000000E+00 -0.20216841700E+04  0.20216896333E+04  0.47000000000E+01 0. -1.
          6    1    1    2  502    0 -0.58669773398E+02 -0.24898954941E+02 -0.11138142128E+04  0.11288171690E+04  0.17200000000E+03 0. -1.
         -6    1    1    2    0  502  0.58669773398E+02  0.24898954941E+02 -0.89136031261E+03  0.91003808006E+03  0.17200000000E+03 0. -1.
</event>
<event>
 4    1 -0.6384999E-004  0.2613456E+03  0.7818608E-02  0.1106337E+00
         -5   -1    0    0    0  501 -0.00000000000E+00  0.00000000000E+00  0.35713651479E+03  0.35716744000E+03  0.47000000000E+01 0.  1.
          5   -1    0    0  501    0  0.00000000000E+00 -0.00000000000E+00 -0.19505663243E+03  0.19511324879E+03  0.47000000000E+01 0. -1.
          6    1    1    2  502    0 -0.18980634158E+03 -0.51875460010E+02  0.11996279091E+03  0.28756317890E+03  0.17200000000E+03 0.  1.
         -6    1    1    2    0  502  0.18980634158E+03  0.51875460010E+02  0.42117091449E+02  0.26471750990E+03  0.17200000000E+03 0.  1.
</event>
<event>
 4    1 -0.6384999E-004  0.2369009E+03  0.7818608E-02  0.1121875E+00
         -5   -1    0    0    0  501 -0.00000000000E+00  0.00000000000E+00  0.45857151568E+03  0.45859560071E+03  0.47000000000E+01 0.  1.
          5   -1    0    0  501    0  0.00000000000E+00 -0.00000000000E+00 -0.23888982058E+03  0.23893605081E+03  0.47000000000E+01 0. -1.
          6    1    1    2  502    0  0.15142800811E+03 -0.60063097735E+02 -0.13374897546E+03  0.27204927088E+03  0.17200000000E+03 0. -1.
         -6    1    1    2    0  502 -0.15142800811E+03  0.60063097735E+02  0.35343067056E+03  0.42548238065E+03  0.17200000000E+03 0.  1.
</event>
<event>
 4    1 -0.6384999E-004  0.2293084E+03  0.7818608E-02  0.1127128E+00
         -5   -1    0    0    0  501 -0.00000000000E+00  0.00000000000E+00  0.40509267694E+03  0.40511994139E+03  0.47000000000E+01 0.  1.
          5   -1    0    0  501    0  0.00000000000E+00 -0.00000000000E+00 -0.21845544067E+03  0.21850599433E+03  0.47000000000E+01 0. -1.
          6    1    1    2  502    0 -0.11574770844E+03  0.97983667041E+02 -0.10535705732E+03  0.25235380034E+03  0.17200000000E+03 0. -1.
         -6    1    1    2    0  502  0.11574770844E+03 -0.97983667041E+02  0.29199429360E+03  0.37127213538E+03  0.17200000000E+03 0. -1.
</event>
<event>
 4    1 -0.6384999E-004  0.1729853E+03  0.7818608E-02  0.1174770E+00
         -5   -1    0    0    0  501 -0.00000000000E+00  0.00000000000E+00  0.27585383752E+03  0.27589387394E+03  0.47000000000E+01 0.  1.
          5   -1    0    0  501    0  0.00000000000E+00 -0.00000000000E+00 -0.29163002518E+03  0.29166789605E+03  0.47000000000E+01 0. -1.
          6    1    1    2  502    0 -0.16858665480E+02 -0.74626286705E+01 -0.23279818017E+03  0.29003258113E+03  0.17200000000E+03 0. -1.
         -6    1    1    2    0  502  0.16858665480E+02  0.74626286705E+01  0.21702199252E+03  0.27752918885E+03  0.17200000000E+03 0.  1.
</event>
<event>
 4    1 -0.6384999E-004  0.1890211E+03  0.7818608E-02  0.1159347E+00
          5   -1    0    0  501    0  0.00000000000E+00  0.00000000000E+00  0.40566744466E+03  0.40569467048E+03  0.47000000000E+01 0. -1.
         -5   -1    0    0    0  501 -0.00000000000E+00 -0.00000000000E+00 -0.23174553608E+03  0.23179319122E+03  0.47000000000E+01 0.  1.
          6    1    1    2  502    0  0.10577437640E+02 -0.77673019197E+02  0.33794987183E+03  0.38721969987E+03  0.17200000000E+03 0. -1.
         -6    1    1    2    0  502 -0.10577437640E+02  0.77673019197E+02 -0.16402796325E+03  0.25026816183E+03  0.17200000000E+03 0.  1.
</event>
<event>
 4    1 -0.6384999E-004  0.2386998E+03  0.7818608E-02  0.1120662E+00
          5   -1    0    0  501    0  0.00000000000E+00  0.00000000000E+00  0.32896289500E+03  0.32899646851E+03  0.47000000000E+01 0. -1.
         -5   -1    0    0    0  501 -0.00000000000E+00 -0.00000000000E+00 -0.18908033183E+03  0.18913873713E+03  0.47000000000E+01 0.  1.
          6    1    1    2  502    0  0.15560355927E+03 -0.56401404663E+02  0.14516841493E+03  0.27937690456E+03  0.17200000000E+03 0.  1.
         -6    1    1    2    0  502 -0.15560355927E+03  0.56401404663E+02 -0.52858517532E+01  0.23875830108E+03  0.17200000000E+03 0.  1.
</event>
<event>
 4    1 -0.6384999E-004  0.1843481E+03  0.7818608E-02  0.1163660E+00
         -5   -1    0    0    0  501 -0.00000000000E+00  0.00000000000E+00  0.54244704377E+03  0.54246740483E+03  0.47000000000E+01 0.  1.
          5   -1    0    0  501    0  0.00000000000E+00 -0.00000000000E+00 -0.62607073655E+02  0.62783243558E+02  0.47000000000E+01 0. -1.
          6    1    1    2  502    0  0.66325087753E+02  0.10927019253E+01  0.24980202907E+03  0.31045976388E+03  0.17200000000E+03 0.  1.
         -6    1    1    2    0  502 -0.66325087753E+02 -0.10927019253E+01  0.23003794105E+03  0.29479088450E+03  0.17200000000E+03 0. -1.
</event>
<event>
 4    1 -0.6384999E-004  0.1815505E+03  0.7818608E-02  0.1166311E+00
          5   -1    0    0  501    0  0.00000000000E+00  0.00000000000E+00  0.19158670422E+03  0.19164434569E+03  0.47000000000E+01 0. -1.
         -5   -1    0    0    0  501 -0.00000000000E+00 -0.00000000000E+00 -0.20831411741E+03  0.20836713155E+03  0.47000000000E+01 0.  1.
          6    1    1    2  502    0 -0.55192355892E+02 -0.18176526245E+02  0.75206470144E+02  0.19651105670E+03  0.17200000000E+03 0. -1.
         -6    1    1    2    0  502  0.55192355892E+02  0.18176526245E+02 -0.91933883328E+02  0.20350042054E+03  0.17200000000E+03 0.  1.
</event>
<event>
 4    1 -0.6384999E-004  0.3091927E+03  0.7818608E-02  0.1080733E+00
         -5   -1    0    0    0  501 -0.00000000000E+00  0.00000000000E+00  0.10535592030E+03  0.10546070330E+03  0.47000000000E+01 0.  1.
          5   -1    0    0  501    0  0.00000000000E+00 -0.00000000000E+00 -0.90721774617E+03  0.90722992068E+03  0.47000000000E+01 0. -1.
          6    1    1    2  502    0 -0.72267232054E+02  0.24656353440E+03 -0.41126647562E+03  0.51452914718E+03  0.17200000000E+03 0. -1.
         -6    1    1    2    0  502  0.72267232054E+02 -0.24656353440E+03 -0.39059535025E+03  0.49816147680E+03  0.17200000000E+03 0.  1.
</event>
<event>
 4    1 -0.6384999E-004  0.1924710E+03  0.7818608E-02  0.1156251E+00
         -5   -1    0    0    0  501 -0.00000000000E+00  0.00000000000E+00  0.47217111341E+03  0.47219450477E+03  0.47000000000E+01 0.  1.
          5   -1    0    0  501    0  0.00000000000E+00 -0.00000000000E+00 -0.12492270471E+03  0.12501108811E+03  0.47000000000E+01 0. -1.
          6    1    1    2  502    0 -0.21955191252E+02 -0.83540693687E+02 -0.85752963767E+01  0.19266191537E+03  0.17200000000E+03 0. -1.
         -6    1    1    2    0  502  0.21955191252E+02  0.83540693687E+02  0.35582370508E+03  0.40454367752E+03  0.17200000000E+03 0.  1.
</event>
<event>
 4    1 -0.6384999E-004  0.2262343E+03  0.7818608E-02  0.1129319E+00
         -5   -1    0    0    0  501 -0.00000000000E+00  0.00000000000E+00  0.21470740010E+04  0.21470791452E+04  0.47000000000E+01 0.  1.
          5   -1    0    0  501    0  0.00000000000E+00 -0.00000000000E+00 -0.28978339602E+03  0.28982150819E+03  0.47000000000E+01 0. -1.
          6    1    1    2  502    0 -0.79200162612E+02 -0.12379535537E+03 -0.23861835622E+03  0.32881708546E+03  0.17200000000E+03 0. -1.
         -6    1    1    2    0  502  0.79200162612E+02  0.12379535537E+03  0.20959089612E+04  0.21080835679E+04  0.17200000000E+03 0.  1.
</event>
<event>
 4    1 -0.6384999E-004  0.1740185E+03  0.7818608E-02  0.1173721E+00
         -5   -1    0    0    0  501 -0.00000000000E+00  0.00000000000E+00  0.25912266804E+02  0.26335063526E+02  0.47000000000E+01 0.  1.
          5   -1    0    0  501    0  0.00000000000E+00 -0.00000000000E+00 -0.15135938053E+04  0.15136011025E+04  0.47000000000E+01 0. -1.
          6    1    1    2  502    0 -0.10910666995E+02  0.24070994501E+02 -0.11165870955E+04  0.11300660145E+04  0.17200000000E+03 0. -1.
         -6    1    1    2    0  502  0.10910666995E+02 -0.24070994501E+02 -0.37109444307E+03  0.40987015152E+03  0.17200000000E+03 0.  1.
</event>
<event>
 4    1 -0.6384999E-004  0.2011113E+03  0.7818608E-02  0.1148805E+00
          5   -1    0    0  501    0  0.00000000000E+00  0.00000000000E+00  0.29338097297E+03  0.29341861785E+03  0.47000000000E+01 0. -1.
         -5   -1    0    0    0  501 -0.00000000000E+00 -0.00000000000E+00 -0.21013397343E+03  0.21018652856E+03  0.47000000000E+01 0.  1.
          6    1    1    2  502    0 -0.85921646591E+02  0.58984792402E+02  0.18934818483E+03  0.27622177717E+03  0.17200000000E+03 0. -1.
         -6    1    1    2    0  502  0.85921646591E+02 -0.58984792402E+02 -0.10610118528E+03  0.22738336924E+03  0.17200000000E+03 0.  1.
</event>
<event>
 4    1 -0.6384999E-004  0.1898240E+03  0.7818608E-02  0.1158620E+00
         -5   -1    0    0    0  501 -0.00000000000E+00  0.00000000000E+00  0.39848637287E+03  0.39851408929E+03  0.47000000000E+01 0.  1.
          5   -1    0    0  501    0  0.00000000000E+00 -0.00000000000E+00 -0.90481605746E+02  0.90603592524E+02  0.47000000000E+01 0. -1.
          6    1    1    2  502    0  0.73922829455E+02 -0.31378063086E+02  0.14410406144E+03  0.23832571846E+03  0.17200000000E+03 0.  1.
         -6    1    1    2    0  502 -0.73922829455E+02  0.31378063086E+02  0.16390070569E+03  0.25079196335E+03  0.17200000000E+03 0.  1.
</event>
<event>
 4    1 -0.6384999E-004  0.1803137E+03  0.7818608E-02  0.1167500E+00
         -5   -1    0    0    0  501 -0.00000000000E+00  0.00000000000E+00  0.20460190003E+03  0.20465587579E+03  0.47000000000E+01 0.  1.
          5   -1    0    0  501    0  0.00000000000E+00 -0.00000000000E+00 -0.17413138552E+03  0.17419480309E+03  0.47000000000E+01 0. -1.
          6    1    1    2  502    0  0.20936361498E+02 -0.49906806613E+02  0.71424661753E+02  0.19394458715E+03  0.17200000000E+03 0.  1.
         -6    1    1    2    0  502 -0.20936361498E+02  0.49906806613E+02 -0.40954147244E+02  0.18490609172E+03  0.17200000000E+03 0.  1.
</event>
<event>
 4    1 -0.6384999E-004  0.2090611E+03  0.7818608E-02  0.1142312E+00
         -5   -1    0    0    0  501 -0.00000000000E+00  0.00000000000E+00  0.12150973624E+04  0.12151064522E+04  0.47000000000E+01 0.  1.
          5   -1    0    0  501    0  0.00000000000E+00 -0.00000000000E+00 -0.38244174770E+02  0.38531894630E+02  0.47000000000E+01 0. -1.
          6    1    1    2  502    0  0.10349312757E+03 -0.58410047117E+02  0.74603783154E+03  0.77477674665E+03  0.17200000000E+03 0. -1.
         -6    1    1    2    0  502 -0.10349312757E+03  0.58410047117E+02  0.43081535609E+03  0.47886160015E+03  0.17200000000E+03 0.  1.
</event>
<event>
 4    1 -0.6384999E-004  0.2328505E+03  0.7818608E-02  0.1124649E+00
          5   -1    0    0  501    0  0.00000000000E+00  0.00000000000E+00  0.55257472913E+02  0.55456995165E+02  0.47000000000E+01 0. -1.
         -5   -1    0    0    0  501 -0.00000000000E+00 -0.00000000000E+00 -0.22212447383E+04  0.22212497107E+04  0.47000000000E+01 0.  1.
          6    1    1    2  502    0 -0.86349215476E+02 -0.13106938430E+03 -0.23181595146E+03  0.32856963625E+03  0.17200000000E+03 0. -1.
         -6    1    1    2    0  502  0.86349215476E+02  0.13106938430E+03 -0.19341713139E+04  0.19481370696E+04  0.17200000000E+03 0.  1.
</event>
<event>
 4    1 -0.6384999E-004  0.2639540E+03  0.7818608E-02  0.1104791E+00
         -5   -1    0    0    0  501 -0.00000000000E+00  0.00000000000E+00  0.96154895459E+03  0.96156044120E+03  0.47000000000E+01 0.  1.
          5   -1    0    0  501    0  0.00000000000E+00 -0.00000000000E+00 -0.10505191798E+03  0.10515700391E+03  0.47000000000E+01 0. -1.
          6    1    1    2  502    0 -0.79387293064E+02  0.18380790819E+03  0.13095600409E+03  0.29465431342E+03  0.17200000000E+03 0. -1.
         -6    1    1    2    0  502  0.79387293064E+02 -0.18380790819E+03  0.72554103253E+03  0.77206313168E+03  0.17200000000E+03 0.  1.
</event>
<event>
 4    1 -0.6384999E-004  0.2393301E+03  0.7818608E-02  0.1120240E+00
          5   -1    0    0  501    0  0.00000000000E+00  0.00000000000E+00  0.93378622135E+03  0.93379804946E+03  0.47000000000E+01 0. -1.
         -5   -1    0    0    0  501 -0.00000000000E+00 -0.00000000000E+00 -0.61832627272E+02  0.62010997374E+02  0.47000000000E+01 0.  1.
          6    1    1    2  502    0  0.11734091630E+03 -0.11800858541E+03  0.38723487159E+03  0.45522495828E+03  0.17200000000E+03 0. -1.
         -6    1    1    2    0  502 -0.11734091630E+03  0.11800858541E+03  0.48471872249E+03  0.54058408856E+03  0.17200000000E+03 0.  1.
</event>
<event>
 4    1 -0.6384999E-004  0.1815392E+03  0.7818608E-02  0.1166322E+00
          5   -1    0    0  501    0  0.00000000000E+00  0.00000000000E+00  0.78111953392E+02  0.78253225255E+02  0.47000000000E+01 0. -1.
         -5   -1    0    0    0  501 -0.00000000000E+00 -0.00000000000E+00 -0.46205021502E+03  0.46207411873E+03  0.47000000000E+01 0.  1.
          6    1    1    2  502    0  0.55675491548E+02  0.16513949016E+02 -0.11182814806E+03  0.21321821116E+03  0.17200000000E+03 0. -1.
         -6    1    1    2    0  502 -0.55675491548E+02 -0.16513949016E+02 -0.27211011357E+03  0.32710913283E+03  0.17200000000E+03 0.  1.
</event>
<event>
 4    1 -0.6384999E-004  0.2194002E+03  0.7818608E-02  0.1134331E+00
         -5   -1    0    0    0  501 -0.00000000000E+00  0.00000000000E+00  0.83860288779E+03  0.83861605840E+03  0.47000000000E+01 0.  1.
          5   -1    0    0  501    0  0.00000000000E+00 -0.00000000000E+00 -0.80788843191E+02  0.80925442131E+02  0.47000000000E+01 0. -1.
          6    1    1    2  502    0  0.10865649345E+03  0.82135426589E+02  0.13122005564E+03  0.25564656241E+03  0.17200000000E+03 0. -1.
         -6    1    1    2    0  502 -0.10865649345E+03 -0.82135426589E+02  0.62659398895E+03  0.66389493812E+03  0.17200000000E+03 0.  1.
</event>
<event>
 4    1 -0.6384999E-004  0.1911306E+03  0.7818608E-02  0.1157446E+00
          5   -1    0    0  501    0  0.00000000000E+00  0.00000000000E+00  0.11009063564E+04  0.11009163890E+04  0.47000000000E+01 0. -1.
         -5   -1    0    0    0  501 -0.00000000000E+00 -0.00000000000E+00 -0.40652651777E+02  0.40923441894E+02  0.47000000000E+01 0.  1.
          6    1    1    2  502    0 -0.36847942630E+02 -0.74760596112E+02  0.77679253957E+03  0.79996097851E+03  0.17200000000E+03 0. -1.
         -6    1    1    2    0  502  0.36847942630E+02  0.74760596112E+02  0.28346116501E+03  0.34187885234E+03  0.17200000000E+03 0.  1.
</event>
<event>
 4    1 -0.6384999E-004  0.3785151E+03  0.7818608E-02  0.1051484E+00
         -5   -1    0    0    0  501 -0.00000000000E+00  0.00000000000E+00  0.11436414320E+03  0.11446067993E+03  0.47000000000E+01 0.  1.
          5   -1    0    0  501    0  0.00000000000E+00 -0.00000000000E+00 -0.12714792002E+04  0.12714878869E+04  0.47000000000E+01 0. -1.
          6    1    1    2  502    0 -0.32640558745E+03  0.84552187096E+02 -0.66398345304E+03  0.76429556179E+03  0.17200000000E+03 0.  1.
         -6    1    1    2    0  502  0.32640558745E+03 -0.84552187096E+02 -0.49313160400E+03  0.62165300508E+03  0.17200000000E+03 0. -1.
</event>
<event>
 4    1 -0.6384999E-004  0.1722703E+03  0.7818608E-02  0.1175501E+00
          5   -1    0    0  501    0  0.00000000000E+00  0.00000000000E+00  0.17494539001E+03  0.17500851261E+03  0.47000000000E+01 0. -1.
         -5   -1    0    0    0  501 -0.00000000000E+00 -0.00000000000E+00 -0.26016167723E+03  0.26020412813E+03  0.47000000000E+01 0.  1.
          6    1    1    2  502    0 -0.66685531724E+01 -0.69706665381E+01  0.85814195734E+02  0.19246073881E+03  0.17200000000E+03 0. -1.
         -6    1    1    2    0  502  0.66685531724E+01  0.69706665381E+01 -0.17103048295E+03  0.24275190193E+03  0.17200000000E+03 0.  1.
</event>
<event>
 4    1 -0.6384999E-004  0.2249637E+03  0.7818608E-02  0.1130236E+00
          5   -1    0    0  501    0  0.00000000000E+00  0.00000000000E+00  0.49199227737E+03  0.49201472640E+03  0.47000000000E+01 0. -1.
         -5   -1    0    0    0  501 -0.00000000000E+00 -0.00000000000E+00 -0.10501700127E+03  0.10512212210E+03  0.47000000000E+01 0.  1.
          6    1    1    2  502    0  0.10029189754E+03  0.10471962319E+03  0.14999927800E+03  0.27038573852E+03  0.17200000000E+03 0. -1.
         -6    1    1    2    0  502 -0.10029189754E+03 -0.10471962319E+03  0.23697599810E+03  0.32675110998E+03  0.17200000000E+03 0. -1.
</event>
<event>
 4    1 -0.6384999E-004  0.1877074E+03  0.7818608E-02  0.1160545E+00
          5   -1    0    0  501    0  0.00000000000E+00  0.00000000000E+00  0.37664061240E+03  0.37666993630E+03  0.47000000000E+01 0. -1.
         -5   -1    0    0    0  501 -0.00000000000E+00 -0.00000000000E+00 -0.93729576320E+02  0.93847341343E+02  0.47000000000E+01 0.  1.
          6    1    1    2  502    0 -0.46528897614E+02  0.59035074214E+02  0.12876125380E+03  0.22762587459E+03  0.17200000000E+03 0. -1.
         -6    1    1    2    0  502  0.46528897614E+02 -0.59035074214E+02  0.15414978227E+03  0.24289140305E+03  0.17200000000E+03 0.  1.
</event>
<event>
 4    1 -0.6384999E-004  0.2101415E+03  0.7818608E-02  0.1141454E+00
         -5   -1    0    0    0  501 -0.00000000000E+00  0.00000000000E+00  0.61396258171E+02  0.61575892340E+02  0.47000000000E+01 0.  1.
          5   -1    0    0  501    0  0.00000000000E+00 -0.00000000000E+00 -0.87883043255E+03  0.87884300030E+03  0.47000000000E+01 0. -1.
          6    1    1    2  502    0 -0.76245351629E+02  0.93606115597E+02 -0.60983672883E+03  0.64502735938E+03  0.17200000000E+03 0. -1.
         -6    1    1    2    0  502  0.76245351629E+02 -0.93606115597E+02 -0.20759744555E+03  0.29539153326E+03  0.17200000000E+03 0.  1.
</event>
<event>
 4    1 -0.6384999E-004  0.2701648E+03  0.7818608E-02  0.1101185E+00
         -5   -1    0    0    0  501 -0.00000000000E+00  0.00000000000E+00  0.68496782358E+03  0.68498394823E+03  0.47000000000E+01 0.  1.
          5   -1    0    0  501    0  0.00000000000E+00 -0.00000000000E+00 -0.16405956126E+03  0.16412687056E+03  0.47000000000E+01 0. -1.
          6    1    1    2  502    0  0.19726833415E+03 -0.67009033313E+02  0.90345749509E+01  0.27031579634E+03  0.17200000000E+03 0. -1.
         -6    1    1    2    0  502 -0.19726833415E+03  0.67009033313E+02  0.51187368736E+03  0.57879502246E+03  0.17200000000E+03 0.  1.
</event>
<event>
 4    1 -0.6384999E-004  0.4656143E+03  0.7818608E-02  0.1023165E+00
         -5   -1    0    0    0  501 -0.00000000000E+00  0.00000000000E+00  0.17049320219E+04  0.17049385002E+04  0.47000000000E+01 0.  1.
          5   -1    0    0  501    0  0.00000000000E+00 -0.00000000000E+00 -0.19473459660E+03  0.19479130656E+03  0.47000000000E+01 0. -1.
          6    1    1    2  502    0  0.15984128574E+02  0.43238549990E+03  0.19545650691E+03  0.50497520631E+03  0.17200000000E+03 0. -1.
         -6    1    1    2    0  502 -0.15984128574E+02 -0.43238549990E+03  0.13147409184E+04  0.13947546004E+04  0.17200000000E+03 0.  1.
</event>
<event>
 4    1 -0.6384999E-004  0.1728210E+03  0.7818608E-02  0.1174938E+00
          5   -1    0    0  501    0  0.00000000000E+00  0.00000000000E+00  0.29898907502E+02  0.30266064657E+02  0.47000000000E+01 0. -1.
         -5   -1    0    0    0  501 -0.00000000000E+00 -0.00000000000E+00 -0.10104024474E+04  0.10104133787E+04  0.47000000000E+01 0.  1.
          6    1    1    2  502    0 -0.12879181775E+02 -0.10826399865E+02 -0.55956500563E+03  0.58564501175E+03  0.17200000000E+03 0.  1.
         -6    1    1    2    0  502  0.12879181775E+02  0.10826399865E+02 -0.42093853429E+03  0.45503443157E+03  0.17200000000E+03 0. -1.
</event>
<event>
 4    1 -0.6384999E-004  0.1766009E+03  0.7818608E-02  0.1171134E+00
         -5   -1    0    0    0  501 -0.00000000000E+00  0.00000000000E+00  0.97029050584E+02  0.97142815778E+02  0.47000000000E+01 0.  1.
          5   -1    0    0  501    0  0.00000000000E+00 -0.00000000000E+00 -0.32139785076E+03  0.32143221443E+03  0.47000000000E+01 0. -1.
          6    1    1    2  502    0  0.21351607226E+02  0.33881709466E+02 -0.11845952207E+03  0.21265116914E+03  0.17200000000E+03 0.  1.
         -6    1    1    2    0  502 -0.21351607226E+02 -0.33881709466E+02 -0.10590927811E+03  0.20592386107E+03  0.17200000000E+03 0.  1.
</event>
<event>
 4    1 -0.6384999E-004  0.3515599E+03  0.7818608E-02  0.1061977E+00
         -5   -1    0    0    0  501 -0.00000000000E+00  0.00000000000E+00  0.40719338748E+03  0.40722051128E+03  0.47000000000E+01 0.  1.
          5   -1    0    0  501    0  0.00000000000E+00 -0.00000000000E+00 -0.30354680722E+03  0.30358319152E+03  0.47000000000E+01 0. -1.
          6    1    1    2  502    0 -0.11790859527E+03 -0.28303337887E+03  0.46241659296E+02  0.35458796010E+03  0.17200000000E+03 0.  1.
         -6    1    1    2    0  502  0.11790859527E+03  0.28303337887E+03  0.57404920961E+02  0.35621574270E+03  0.17200000000E+03 0.  1.
</event>
<event>
 4    1 -0.6384999E-004  0.5170951E+03  0.7818608E-02  0.1009411E+00
         -5   -1    0    0    0  501 -0.00000000000E+00  0.00000000000E+00  0.41502630504E+03  0.41505291696E+03  0.47000000000E+01 0.  1.
          5   -1    0    0  501    0  0.00000000000E+00 -0.00000000000E+00 -0.17123420086E+04  0.17123484588E+04  0.47000000000E+01 0. -1.
          6    1    1    2  502    0  0.48764584405E+03 -0.22038214937E+01 -0.14887593349E+04  0.15760049757E+04  0.17200000000E+03 0. -1.
         -6    1    1    2    0  502 -0.48764584405E+03  0.22038214937E+01  0.19144363136E+03  0.55139640010E+03  0.17200000000E+03 0.  1.
</event>
<event>
 4    1 -0.6384999E-004  0.1729503E+03  0.7818608E-02  0.1174806E+00
         -5   -1    0    0    0  501 -0.00000000000E+00  0.00000000000E+00  0.53835129076E+02  0.54039903059E+02  0.47000000000E+01 0.  1.
          5   -1    0    0  501    0  0.00000000000E+00 -0.00000000000E+00 -0.61963329203E+03  0.61965111683E+03  0.47000000000E+01 0. -1.
          6    1    1    2  502    0  0.11648786028E+02 -0.13860871505E+02 -0.17358207569E+03  0.24503582386E+03  0.17200000000E+03 0.  1.
         -6    1    1    2    0  502 -0.11648786028E+02  0.13860871505E+02 -0.39221608726E+03  0.42865519602E+03  0.17200000000E+03 0. -1.
</event>
<event>
 4    1 -0.6384999E-004  0.2068422E+03  0.7818608E-02  0.1144091E+00
         -5   -1    0    0    0  501 -0.00000000000E+00  0.00000000000E+00  0.11560784657E+03  0.11570334562E+03  0.47000000000E+01 0.  1.
          5   -1    0    0  501    0  0.00000000000E+00 -0.00000000000E+00 -0.36983040724E+03  0.36986027107E+03  0.47000000000E+01 0. -1.
          6    1    1    2  502    0 -0.10993860786E+03  0.33364411643E+02 -0.12879073989E+03  0.24366110921E+03  0.17200000000E+03 0. -1.
         -6    1    1    2    0  502  0.10993860786E+03 -0.33364411643E+02 -0.12543182078E+03  0.24190250749E+03  0.17200000000E+03 0. -1.
</event>
<event>
 4    1 -0.6384999E-004  0.1989349E+03  0.7818608E-02  0.1150641E+00
         -5   -1    0    0    0  501 -0.00000000000E+00  0.00000000000E+00  0.29758166184E+02  0.30127038598E+02  0.47000000000E+01 0.  1.
          5   -1    0    0  501    0  0.00000000000E+00 -0.00000000000E+00 -0.13236074018E+04  0.13236157464E+04  0.47000000000E+01 0. -1.
          6    1    1    2  502    0  0.60710229862E+02 -0.79406261421E+02 -0.61882240133E+03  0.65001250046E+03  0.17200000000E+03 0. -1.
         -6    1    1    2    0  502 -0.60710229862E+02  0.79406261421E+02 -0.67502683426E+03  0.70373028451E+03  0.17200000000E+03 0.  1.
</event>
<event>
 4    1 -0.6384999E-004  0.2051273E+03  0.7818608E-02  0.1145484E+00
          5   -1    0    0  501    0  0.00000000000E+00  0.00000000000E+00  0.42530469646E+02  0.42789377751E+02  0.47000000000E+01 0. -1.
         -5   -1    0    0    0  501 -0.00000000000E+00 -0.00000000000E+00 -0.11155945943E+04  0.11156044948E+04  0.47000000000E+01 0.  1.
          6    1    1    2  502    0  0.10971579692E+03  0.21345686846E+02 -0.33920468678E+03  0.39640511345E+03  0.17200000000E+03 0.  1.
         -6    1    1    2    0  502 -0.10971579692E+03 -0.21345686846E+02 -0.73385943791E+03  0.76198875913E+03  0.17200000000E+03 0.  1.
</event>
<event>
 4    1 -0.6384999E-004  0.1977859E+03  0.7818608E-02  0.1151621E+00
         -5   -1    0    0    0  501 -0.00000000000E+00  0.00000000000E+00  0.64119811482E+03  0.64121534015E+03  0.47000000000E+01 0.  1.
          5   -1    0    0  501    0  0.00000000000E+00 -0.00000000000E+00 -0.63312968490E+02  0.63487179643E+02  0.47000000000E+01 0. -1.
          6    1    1    2  502    0 -0.93642298733E+02  0.27683890902E+02  0.35760858497E+03  0.40866022314E+03  0.17200000000E+03 0. -1.
         -6    1    1    2    0  502  0.93642298733E+02 -0.27683890902E+02  0.22027656135E+03  0.29604229665E+03  0.17200000000E+03 0.  1.
</event>
<event>
 4    1 -0.6384999E-004  0.2762408E+03  0.7818608E-02  0.1097760E+00
         -5   -1    0    0    0  501 -0.00000000000E+00  0.00000000000E+00  0.48487835268E+03  0.48490113106E+03  0.47000000000E+01 0.  1.
          5   -1    0    0  501    0  0.00000000000E+00 -0.00000000000E+00 -0.36686145989E+03  0.36689156539E+03  0.47000000000E+01 0. -1.
          6    1    1    2  502    0 -0.16468143863E+03 -0.14001788284E+03 -0.26283807753E+03  0.38130412893E+03  0.17200000000E+03 0. -1.
         -6    1    1    2    0  502  0.16468143863E+03  0.14001788284E+03  0.38085497032E+03  0.47048856751E+03  0.17200000000E+03 0.  1.
</event>
<event>
 4    1 -0.6384999E-004  0.1893018E+03  0.7818608E-02  0.1159093E+00
          5   -1    0    0  501    0  0.00000000000E+00  0.00000000000E+00  0.46753227858E+03  0.46755590202E+03  0.47000000000E+01 0. -1.
         -5   -1    0    0    0  501 -0.00000000000E+00 -0.00000000000E+00 -0.84817051921E+02  0.84947173564E+02  0.47000000000E+01 0.  1.
          6    1    1    2  502    0  0.53887970511E+02 -0.57855573553E+02  0.27752258762E+03  0.33593744566E+03  0.17200000000E+03 0. -1.
         -6    1    1    2    0  502 -0.53887970511E+02  0.57855573553E+02  0.10519263904E+03  0.21656562993E+03  0.17200000000E+03 0. -1.
</event>
<event>
 4    1 -0.6384999E-004  0.2526044E+03  0.7818608E-02  0.1111670E+00
          5   -1    0    0  501    0  0.00000000000E+00  0.00000000000E+00  0.61214861009E+02  0.61395025925E+02  0.47000000000E+01 0. -1.
         -5   -1    0    0    0  501 -0.00000000000E+00 -0.00000000000E+00 -0.12854525994E+04  0.12854611917E+04  0.47000000000E+01 0.  1.
          6    1    1    2  502    0 -0.18067809846E+03 -0.39754124402E+02 -0.90597205361E+03  0.94052874894E+03  0.17200000000E+03 0.  1.
         -6    1    1    2    0  502  0.18067809846E+03  0.39754124402E+02 -0.31826568476E+03  0.40632746863E+03  0.17200000000E+03 0. -1.
</event>
<event>
 4    1 -0.6384999E-004  0.2123083E+03  0.7818608E-02  0.1139751E+00
          5   -1    0    0  501    0  0.00000000000E+00  0.00000000000E+00  0.69276921998E+03  0.69278516306E+03  0.47000000000E+01 0. -1.
         -5   -1    0    0    0  501 -0.00000000000E+00 -0.00000000000E+00 -0.67741938699E+02  0.67904788187E+02  0.47000000000E+01 0.  1.
          6    1    1    2  502    0  0.11447738222E+03 -0.48844147547E+02  0.38944374189E+03  0.44355523883E+03  0.17200000000E+03 0. -1.
         -6    1    1    2    0  502 -0.11447738222E+03  0.48844147547E+02  0.23558353939E+03  0.31713471242E+03  0.17200000000E+03 0.  1.
</event>
<event>
 4    1 -0.6384999E-004  0.5421647E+03  0.7818608E-02  0.1003324E+00
         -5   -1    0    0    0  501 -0.00000000000E+00  0.00000000000E+00  0.10540854396E+04  0.10540959178E+04  0.47000000000E+01 0.  1.
          5   -1    0    0  501    0  0.00000000000E+00 -0.00000000000E+00 -0.37431975384E+03  0.37434925953E+03  0.47000000000E+01 0. -1.
          6    1    1    2  502    0  0.49262435871E+02  0.51179269526E+03 -0.20835021718E+02  0.54256487966E+03  0.17200000000E+03 0. -1.
         -6    1    1    2    0  502 -0.49262435871E+02 -0.51179269526E+03  0.70060070745E+03  0.88588029767E+03  0.17200000000E+03 0.  1.
</event>
<event>
 4    1 -0.6384999E-004  0.3136173E+03  0.7818608E-02  0.1078625E+00
          5   -1    0    0  501    0  0.00000000000E+00  0.00000000000E+00  0.31950151739E+03  0.31953608500E+03  0.47000000000E+01 0. -1.
         -5   -1    0    0    0  501 -0.00000000000E+00 -0.00000000000E+00 -0.32546022429E+03  0.32549415908E+03  0.47000000000E+01 0.  1.
          6    1    1    2  502    0 -0.17129729497E+03 -0.19856748040E+03  0.72199115380E+02  0.32182063296E+03  0.17200000000E+03 0. -1.
         -6    1    1    2    0  502  0.17129729497E+03  0.19856748040E+03 -0.78157822276E+02  0.32320961112E+03  0.17200000000E+03 0.  1.
</event>
<event>
 4    1 -0.6384999E-004  0.1904229E+03  0.7818608E-02  0.1158080E+00
         -5   -1    0    0    0  501 -0.00000000000E+00  0.00000000000E+00  0.34836532547E+03  0.34839702925E+03  0.47000000000E+01 0.  1.
          5   -1    0    0  501    0  0.00000000000E+00 -0.00000000000E+00 -0.15886739952E+03  0.15893690771E+03  0.47000000000E+01 0. -1.
          6    1    1    2  502    0  0.51532766000E+01  0.81549480448E+02 -0.54270787181E+02  0.19800553619E+03  0.17200000000E+03 0. -1.
         -6    1    1    2    0  502 -0.51532766000E+01 -0.81549480448E+02  0.24376871313E+03  0.30932840077E+03  0.17200000000E+03 0.  1.
</event>
<event>
 4    1 -0.6384999E-004  0.1895851E+03  0.7818608E-02  0.1158836E+00
          5   -1    0    0  501    0  0.00000000000E+00  0.00000000000E+00  0.32817968842E+02  0.33152814042E+02  0.47000000000E+01 0. -1.
         -5   -1    0    0    0  501 -0.00000000000E+00 -0.00000000000E+00 -0.16627691924E+04  0.16627758350E+04  0.47000000000E+01 0.  1.
          6    1    1    2  502    0 -0.78008584151E+00  0.79736343791E+02 -0.31704542921E+03  0.36940532920E+03  0.17200000000E+03 0. -1.
         -6    1    1    2    0  502  0.78008584151E+00 -0.79736343791E+02 -0.13129057944E+04  0.13265233198E+04  0.17200000000E+03 0.  1.
</event>
<event>
 4    1 -0.6384999E-004  0.1900142E+03  0.7818608E-02  0.1158448E+00
          5   -1    0    0  501    0  0.00000000000E+00  0.00000000000E+00  0.29066735931E+03  0.29070535559E+03  0.47000000000E+01 0. -1.
         -5   -1    0    0    0  501 -0.00000000000E+00 -0.00000000000E+00 -0.12901520895E+03  0.12910079063E+03  0.47000000000E+01 0.  1.
          6    1    1    2  502    0  0.71448312919E+02 -0.37637107088E+02  0.12167231421E+03  0.22563148117E+03  0.17200000000E+03 0. -1.
         -6    1    1    2    0  502 -0.71448312919E+02  0.37637107088E+02  0.39979836155E+02  0.19417466505E+03  0.17200000000E+03 0.  1.
</event>
<event>
 4    1 -0.6384999E-004  0.2182582E+03  0.7818608E-02  0.1135188E+00
         -5   -1    0    0    0  501 -0.00000000000E+00  0.00000000000E+00  0.14020828240E+04  0.14020907015E+04  0.47000000000E+01 0.  1.
          5   -1    0    0  501    0  0.00000000000E+00 -0.00000000000E+00 -0.33838336398E+02  0.34163182086E+02  0.47000000000E+01 0. -1.
          6    1    1    2  502    0  0.23072704667E+01  0.13434032369E+03  0.70652718479E+03  0.73947096556E+03  0.17200000000E+03 0.  1.
         -6    1    1    2    0  502 -0.23072704667E+01 -0.13434032369E+03  0.66171730278E+03  0.69678291803E+03  0.17200000000E+03 0. -1.
</event>
<event>
 4    1 -0.6384999E-004  0.2587408E+03  0.7818608E-02  0.1107902E+00
         -5   -1    0    0    0  501 -0.00000000000E+00  0.00000000000E+00  0.88560093126E+03  0.88561340293E+03  0.47000000000E+01 0.  1.
          5   -1    0    0  501    0  0.00000000000E+00 -0.00000000000E+00 -0.14055316366E+03  0.14063172407E+03  0.47000000000E+01 0. -1.
          6    1    1    2  502    0  0.60851683798E+02 -0.18346632880E+03  0.23614119838E+02  0.25981618094E+03  0.17200000000E+03 0. -1.
         -6    1    1    2    0  502 -0.60851683798E+02  0.18346632880E+03  0.72143364777E+03  0.76642894606E+03  0.17200000000E+03 0.  1.
</event>
<event>
 4    1 -0.6384999E-004  0.2859755E+03  0.7818608E-02  0.1092469E+00
          5   -1    0    0  501    0  0.00000000000E+00  0.00000000000E+00  0.35328662700E+03  0.35331788918E+03  0.47000000000E+01 0. -1.
         -5   -1    0    0    0  501 -0.00000000000E+00 -0.00000000000E+00 -0.25689241032E+03  0.25693540137E+03  0.47000000000E+01 0.  1.
          6    1    1    2  502    0  0.54812805233E+01  0.22840307420E+03  0.14425715473E+03  0.32030007092E+03  0.17200000000E+03 0.  1.
         -6    1    1    2    0  502 -0.54812805233E+01 -0.22840307420E+03 -0.47862938048E+02  0.28995321964E+03  0.17200000000E+03 0.  1.
</event>
<event>
 4    1 -0.6384999E-004  0.1788410E+03  0.7818608E-02  0.1168929E+00
          5   -1    0    0  501    0  0.00000000000E+00  0.00000000000E+00  0.10095034361E+03  0.10105969461E+03  0.47000000000E+01 0. -1.
         -5   -1    0    0    0  501 -0.00000000000E+00 -0.00000000000E+00 -0.33540400386E+03  0.33543693268E+03  0.47000000000E+01 0.  1.
          6    1    1    2  502    0 -0.48919653080E+02  0.26396626908E+01 -0.65467781409E+02  0.19044718606E+03  0.17200000000E+03 0.  1.
         -6    1    1    2    0  502  0.48919653080E+02 -0.26396626908E+01 -0.16898587885E+03  0.24604944122E+03  0.17200000000E+03 0.  1.
</event>
<event>
 4    1 -0.6384999E-004  0.2172704E+03  0.7818608E-02  0.1135935E+00
          5   -1    0    0  501    0  0.00000000000E+00  0.00000000000E+00  0.25674755933E+03  0.25679057463E+03  0.47000000000E+01 0. -1.
         -5   -1    0    0    0  501 -0.00000000000E+00 -0.00000000000E+00 -0.21915445126E+03  0.21920484371E+03  0.47000000000E+01 0.  1.
          6    1    1    2  502    0  0.12112629966E+03  0.54321706787E+02 -0.76807749046E+02  0.23044708419E+03  0.17200000000E+03 0.  1.
         -6    1    1    2    0  502 -0.12112629966E+03 -0.54321706787E+02  0.11440085712E+03  0.24554833416E+03  0.17200000000E+03 0. -1.
</event>
<event>
 4    1 -0.6384999E-004  0.2011695E+03  0.7818608E-02  0.1148756E+00
          5   -1    0    0  501    0  0.00000000000E+00  0.00000000000E+00  0.44207964885E+02  0.44457104711E+02  0.47000000000E+01 0. -1.
         -5   -1    0    0    0  501 -0.00000000000E+00 -0.00000000000E+00 -0.93566827361E+03  0.93568007793E+03  0.47000000000E+01 0.  1.
          6    1    1    2  502    0  0.43748144557E+02 -0.94716749844E+02 -0.52266934851E+03  0.56004679333E+03  0.17200000000E+03 0. -1.
         -6    1    1    2    0  502 -0.43748144557E+02  0.94716749844E+02 -0.36879096021E+03  0.42009038931E+03  0.17200000000E+03 0. -1.
</event>
<event>
 4    1 -0.6384999E-004  0.2212737E+03  0.7818608E-02  0.1132937E+00
         -5   -1    0    0    0  501 -0.00000000000E+00  0.00000000000E+00  0.31446383479E+03  0.31449895610E+03  0.47000000000E+01 0.  1.
          5   -1    0    0  501    0  0.00000000000E+00 -0.00000000000E+00 -0.19774575195E+03  0.19780159862E+03  0.47000000000E+01 0. -1.
          6    1    1    2  502    0  0.97077909433E+02  0.99769417704E+02 -0.59836925157E+02  0.22922154092E+03  0.17200000000E+03 0. -1.
         -6    1    1    2    0  502 -0.97077909433E+02 -0.99769417704E+02  0.17655500799E+03  0.28307901380E+03  0.17200000000E+03 0.  1.
</event>
<event>
 4    1 -0.6384999E-004  0.1781887E+03  0.7818608E-02  0.1169568E+00
          5   -1    0    0  501    0  0.00000000000E+00  0.00000000000E+00  0.26812562983E+03  0.26816682004E+03  0.47000000000E+01 0. -1.
         -5   -1    0    0    0  501 -0.00000000000E+00 -0.00000000000E+00 -0.16020803069E+03  0.16027695747E+03  0.47000000000E+01 0.  1.
          6    1    1    2  502    0 -0.11997058183E+01 -0.46537789797E+02 -0.55535012606E+02  0.18664228567E+03  0.17200000000E+03 0.  1.
         -6    1    1    2    0  502  0.11997058183E+01  0.46537789797E+02  0.16345261175E+03  0.24180149185E+03  0.17200000000E+03 0. -1.
</event>
<event>
 4    1 -0.6384999E-004  0.1922444E+03  0.7818608E-02  0.1156453E+00
          5   -1    0    0  501    0  0.00000000000E+00  0.00000000000E+00  0.66938103091E+03  0.66939753103E+03  0.47000000000E+01 0. -1.
         -5   -1    0    0    0  501 -0.00000000000E+00 -0.00000000000E+00 -0.56937460510E+02  0.57131115947E+02  0.47000000000E+01 0.  1.
          6    1    1    2  502    0  0.76462988953E+02  0.39080774668E+02  0.37144961914E+03  0.41824958481E+03  0.17200000000E+03 0. -1.
         -6    1    1    2    0  502 -0.76462988953E+02 -0.39080774668E+02  0.24099395126E+03  0.30827906217E+03  0.17200000000E+03 0.  1.
</event>
<event>
 4    1 -0.6384999E-004  0.1754901E+03  0.7818608E-02  0.1172241E+00
         -5   -1    0    0    0  501 -0.00000000000E+00  0.00000000000E+00  0.20602640452E+03  0.20608000718E+03  0.47000000000E+01 0.  1.
          5   -1    0    0  501    0  0.00000000000E+00 -0.00000000000E+00 -0.18503451807E+03  0.18509420001E+03  0.47000000000E+01 0. -1.
          6    1    1    2  502    0 -0.34678315938E+02 -0.31894726687E+01 -0.75344676961E+02  0.19098057147E+03  0.17200000000E+03 0. -1.
         -6    1    1    2    0  502  0.34678315938E+02  0.31894726687E+01  0.96336563414E+02  0.20019363572E+03  0.17200000000E+03 0.  1.
</event>
<event>
 4    1 -0.6384999E-004  0.2750537E+03  0.7818608E-02  0.1098422E+00
          5   -1    0    0  501    0  0.00000000000E+00  0.00000000000E+00  0.14810563689E+03  0.14818019327E+03  0.47000000000E+01 0. -1.
         -5   -1    0    0    0  501 -0.00000000000E+00 -0.00000000000E+00 -0.72860293396E+03  0.72861809295E+03  0.47000000000E+01 0.  1.
          6    1    1    2  502    0 -0.18886653489E+02 -0.21380795897E+03 -0.50460983496E+02  0.27964416649E+03  0.17200000000E+03 0. -1.
         -6    1    1    2    0  502  0.18886653489E+02  0.21380795897E+03 -0.53003631357E+03  0.59715411972E+03  0.17200000000E+03 0.  1.
</event>
<event>
 4    1 -0.6384999E-004  0.2221214E+03  0.7818608E-02  0.1132311E+00
          5   -1    0    0  501    0  0.00000000000E+00  0.00000000000E+00  0.13303751954E+04  0.13303834975E+04  0.47000000000E+01 0. -1.
         -5   -1    0    0    0  501 -0.00000000000E+00 -0.00000000000E+00 -0.19937529132E+03  0.19943068166E+03  0.47000000000E+01 0.  1.
          6    1    1    2  502    0  0.18072245492E+02  0.13938180733E+03  0.12556244836E+04  0.12751198917E+04  0.17200000000E+03 0. -1.
         -6    1    1    2    0  502 -0.18072245492E+02 -0.13938180733E+03 -0.12462457955E+03  0.25469428753E+03  0.17200000000E+03 0.  1.
</event>
<event>
 4    1 -0.6384999E-004  0.1895400E+03  0.7818608E-02  0.1158877E+00
         -5   -1    0    0    0  501 -0.00000000000E+00  0.00000000000E+00  0.35798636711E+03  0.35801721891E+03  0.47000000000E+01 0.  1.
          5   -1    0    0  501    0  0.00000000000E+00 -0.00000000000E+00 -0.10128984339E+03  0.10139882827E+03  0.47000000000E+01 0. -1.
          6    1    1    2  502    0  0.28690466663E+01 -0.79581360188E+02  0.10524648421E+03  0.21680001558E+03  0.17200000000E+03 0. -1.
         -6    1    1    2    0  502 -0.28690466663E+01  0.79581360188E+02  0.15145003951E+03  0.24261603159E+03  0.17200000000E+03 0.  1.
</event>
<event>
 4    1 -0.6384999E-004  0.1984120E+03  0.7818608E-02  0.1151086E+00
         -5   -1    0    0    0  501 -0.00000000000E+00  0.00000000000E+00  0.17571682475E+03  0.17577967033E+03  0.47000000000E+01 0.  1.
          5   -1    0    0  501    0  0.00000000000E+00 -0.00000000000E+00 -0.22391913321E+03  0.22396845362E+03  0.47000000000E+01 0. -1.
          6    1    1    2  502    0  0.56188896487E+02 -0.81401034488E+02 -0.22886258785E+02  0.19972756782E+03  0.17200000000E+03 0.  1.
         -6    1    1    2    0  502 -0.56188896487E+02  0.81401034488E+02 -0.25316049672E+02  0.20002055613E+03  0.17200000000E+03 0.  1.
</event>
<event>
 4    1 -0.6384999E-004  0.2047529E+03  0.7818608E-02  0.1145790E+00
         -5   -1    0    0    0  501 -0.00000000000E+00  0.00000000000E+00  0.46350085753E+02  0.46587771457E+02  0.47000000000E+01 0.  1.
          5   -1    0    0  501    0  0.00000000000E+00 -0.00000000000E+00 -0.13574374558E+04  0.13574455924E+04  0.47000000000E+01 0. -1.
          6    1    1    2  502    0 -0.79014468307E+02 -0.78079787080E+02 -0.10621635093E+04  0.10817185678E+04  0.17200000000E+03 0. -1.
         -6    1    1    2    0  502  0.79014468307E+02  0.78079787080E+02 -0.24892386075E+03  0.32231479613E+03  0.17200000000E+03 0.  1.
</event>
<event>
 4    1 -0.6384999E-004  0.1880372E+03  0.7818608E-02  0.1160244E+00
          5   -1    0    0  501    0  0.00000000000E+00  0.00000000000E+00  0.31506220167E+03  0.31509725629E+03  0.47000000000E+01 0. -1.
         -5   -1    0    0    0  501 -0.00000000000E+00 -0.00000000000E+00 -0.14306862037E+03  0.14314580027E+03  0.47000000000E+01 0.  1.
          6    1    1    2  502    0 -0.53335721063E+02  0.54122993337E+02  0.19249030985E+03  0.26909202317E+03  0.17200000000E+03 0. -1.
         -6    1    1    2    0  502  0.53335721063E+02 -0.54122993337E+02 -0.20496728553E+02  0.18915103338E+03  0.17200000000E+03 0.  1.
</event>
<event>
 4    1 -0.6384999E-004  0.3295083E+03  0.7818608E-02  0.1071355E+00
          5   -1    0    0  501    0  0.00000000000E+00  0.00000000000E+00  0.11812403131E+03  0.11821749774E+03  0.47000000000E+01 0. -1.
         -5   -1    0    0    0  501 -0.00000000000E+00 -0.00000000000E+00 -0.13765562782E+04  0.13765643018E+04  0.47000000000E+01 0.  1.
          6    1    1    2  502    0  0.24405457243E+03  0.13938822728E+03 -0.19819636999E+03  0.38452244838E+03  0.17200000000E+03 0. -1.
         -6    1    1    2    0  502 -0.24405457243E+03 -0.13938822728E+03 -0.10602358769E+04  0.11102593512E+04  0.17200000000E+03 0.  1.
</event>
<event>
 4    1 -0.6384999E-004  0.4870822E+03  0.7818608E-02  0.1017207E+00
         -5   -1    0    0    0  501 -0.00000000000E+00  0.00000000000E+00  0.20719223474E+04  0.20719276782E+04  0.47000000000E+01 0.  1.
          5   -1    0    0  501    0  0.00000000000E+00 -0.00000000000E+00 -0.31071507467E+03  0.31075061967E+03  0.47000000000E+01 0. -1.
          6    1    1    2  502    0 -0.45488013781E+03 -0.27369519405E+02 -0.66118616224E+02  0.49154928724E+03  0.17200000000E+03 0. -1.
         -6    1    1    2    0  502  0.45488013781E+03  0.27369519405E+02  0.18273258890E+04  0.18911290107E+04  0.17200000000E+03 0.  1.
</event>
<event>
 4    1 -0.6384999E-004  0.2267450E+03  0.7818608E-02  0.1128952E+00
         -5   -1    0    0    0  501 -0.00000000000E+00  0.00000000000E+00  0.18250152309E+02  0.18845637673E+02  0.47000000000E+01 0.  1.
          5   -1    0    0  501    0  0.00000000000E+00 -0.00000000000E+00 -0.27740408421E+04  0.27740448236E+04  0.47000000000E+01 0. -1.
          6    1    1    2  502    0 -0.28684757964E+02 -0.14493618349E+03 -0.13341997630E+04  0.13533300855E+04  0.17200000000E+03 0.  1.
         -6    1    1    2    0  502  0.28684757964E+02  0.14493618349E+03 -0.14215909267E+04  0.14395603758E+04  0.17200000000E+03 0.  1.
</event>
<event>
 4    1 -0.6384999E-004  0.1931694E+03  0.7818608E-02  0.1155633E+00
         -5   -1    0    0    0  501 -0.00000000000E+00  0.00000000000E+00  0.95740870991E+02  0.95856165050E+02  0.47000000000E+01 0.  1.
          5   -1    0    0  501    0  0.00000000000E+00 -0.00000000000E+00 -0.58624831991E+03  0.58626715974E+03  0.47000000000E+01 0. -1.
          6    1    1    2  502    0  0.48798957871E+02 -0.73137303833E+02 -0.44287281223E+03  0.48316739472E+03  0.17200000000E+03 0. -1.
         -6    1    1    2    0  502 -0.48798957871E+02  0.73137303833E+02 -0.47634636683E+02  0.19895593008E+03  0.17200000000E+03 0.  1.
</event>
<event>
 4    1 -0.6384999E-004  0.2453541E+03  0.7818608E-02  0.1116277E+00
          5   -1    0    0  501    0  0.00000000000E+00  0.00000000000E+00  0.18820297998E+04  0.18820356684E+04  0.47000000000E+01 0. -1.
         -5   -1    0    0    0  501 -0.00000000000E+00 -0.00000000000E+00 -0.32649721871E+02  0.32986274998E+02  0.47000000000E+01 0.  1.
          6    1    1    2  502    0 -0.66574788338E+02  0.16180993826E+03  0.10776726579E+04  0.11052497529E+04  0.17200000000E+03 0. -1.
         -6    1    1    2    0  502  0.66574788338E+02 -0.16180993826E+03  0.77170742000E+03  0.80977219058E+03  0.17200000000E+03 0.  1.
</event>
<event>
 4    1 -0.6384999E-004  0.1878926E+03  0.7818608E-02  0.1160376E+00
          5   -1    0    0  501    0  0.00000000000E+00  0.00000000000E+00  0.22382837215E+03  0.22387771256E+03  0.47000000000E+01 0. -1.
         -5   -1    0    0    0  501 -0.00000000000E+00 -0.00000000000E+00 -0.15835136597E+03  0.15842110057E+03  0.47000000000E+01 0.  1.
          6    1    1    2  502    0  0.60050642190E+02  0.45973213335E+02  0.45684006044E+02  0.19336660617E+03  0.17200000000E+03 0. -1.
         -6    1    1    2    0  502 -0.60050642190E+02 -0.45973213335E+02  0.19793000136E+02  0.18893220696E+03  0.17200000000E+03 0. -1.
</event>
<event>
 4    1 -0.6384999E-004  0.3485819E+03  0.7818608E-02  0.1063199E+00
          5   -1    0    0  501    0  0.00000000000E+00  0.00000000000E+00  0.10288699368E+04  0.10288806718E+04  0.47000000000E+01 0. -1.
         -5   -1    0    0    0  501 -0.00000000000E+00 -0.00000000000E+00 -0.15605147525E+03  0.15612223713E+03  0.47000000000E+01 0.  1.
          6    1    1    2  502    0 -0.25224642246E+03 -0.16821733528E+03  0.14407879008E+03  0.37718434125E+03  0.17200000000E+03 0. -1.
         -6    1    1    2    0  502  0.25224642246E+03  0.16821733528E+03  0.72873967145E+03  0.80781856767E+03  0.17200000000E+03 0. -1.
</event>
<event>
 4    1 -0.6384999E-004  0.1807131E+03  0.7818608E-02  0.1167115E+00
         -5   -1    0    0    0  501 -0.00000000000E+00  0.00000000000E+00  0.29465685071E+03  0.29469433261E+03  0.47000000000E+01 0.  1.
          5   -1    0    0  501    0  0.00000000000E+00 -0.00000000000E+00 -0.11165945034E+03  0.11175832341E+03  0.47000000000E+01 0. -1.
          6    1    1    2  502    0  0.91134503603E+01 -0.54682517477E+02  0.73038668272E+02  0.19491505780E+03  0.17200000000E+03 0. -1.
         -6    1    1    2    0  502 -0.91134503603E+01  0.54682517477E+02  0.10995873210E+03  0.21153759822E+03  0.17200000000E+03 0.  1.
</event>
<event>
 4    1 -0.6384999E-004  0.3794190E+03  0.7818608E-02  0.1051149E+00
         -5   -1    0    0    0  501 -0.00000000000E+00  0.00000000000E+00  0.85314389883E+03  0.85315684497E+03  0.47000000000E+01 0.  1.
          5   -1    0    0  501    0  0.00000000000E+00 -0.00000000000E+00 -0.95851658545E+03  0.95852810839E+03  0.47000000000E+01 0. -1.
          6    1    1    2  502    0  0.18524966854E+03  0.28294411179E+03 -0.87494124865E+03  0.95366713201E+03  0.17200000000E+03 0. -1.
         -6    1    1    2    0  502 -0.18524966854E+03 -0.28294411179E+03  0.76956856203E+03  0.85801782135E+03  0.17200000000E+03 0.  1.
</event>
<event>
 4    1 -0.6384999E-004  0.1897901E+03  0.7818608E-02  0.1158651E+00
         -5   -1    0    0    0  501 -0.00000000000E+00  0.00000000000E+00  0.21862550255E+03  0.21867601690E+03  0.47000000000E+01 0.  1.
          5   -1    0    0  501    0  0.00000000000E+00 -0.00000000000E+00 -0.27550413645E+03  0.27554422367E+03  0.47000000000E+01 0. -1.
          6    1    1    2  502    0  0.60630371347E+00  0.80224140122E+02  0.12827581583E+03  0.22907414780E+03  0.17200000000E+03 0.  1.
         -6    1    1    2    0  502 -0.60630371347E+00 -0.80224140122E+02 -0.18515444972E+03  0.26514609278E+03  0.17200000000E+03 0. -1.
</event>
<event>
 4    1 -0.6384999E-004  0.4126471E+03  0.7818608E-02  0.1039486E+00
          5   -1    0    0  501    0  0.00000000000E+00  0.00000000000E+00  0.72165670228E+03  0.72167200717E+03  0.47000000000E+01 0. -1.
         -5   -1    0    0    0  501 -0.00000000000E+00 -0.00000000000E+00 -0.27954226689E+03  0.27958177512E+03  0.47000000000E+01 0.  1.
          6    1    1    2  502    0  0.69065990428E+02 -0.36867812064E+03  0.41881603472E+03  0.58794943542E+03  0.17200000000E+03 0. -1.
         -6    1    1    2    0  502 -0.69065990428E+02  0.36867812064E+03  0.23298400664E+02  0.41330434688E+03  0.17200000000E+03 0. -1.
</event>
<event>
 4    1 -0.6384999E-004  0.2769254E+03  0.7818608E-02  0.1097380E+00
          5   -1    0    0  501    0  0.00000000000E+00  0.00000000000E+00  0.19697757437E+03  0.19703363876E+03  0.47000000000E+01 0. -1.
         -5   -1    0    0    0  501 -0.00000000000E+00 -0.00000000000E+00 -0.39270883268E+03  0.39273695683E+03  0.47000000000E+01 0.  1.
          6    1    1    2  502    0  0.13639666228E+03  0.16881832057E+03 -0.69979558682E+02  0.28563055417E+03  0.17200000000E+03 0. -1.
         -6    1    1    2    0  502 -0.13639666228E+03 -0.16881832057E+03 -0.12575169963E+03  0.30414004143E+03  0.17200000000E+03 0.  1.
</event>
<event>
 4    1 -0.6384999E-004  0.1800743E+03  0.7818608E-02  0.1167731E+00
          5   -1    0    0  501    0  0.00000000000E+00  0.00000000000E+00  0.45661641644E+02  0.45902892258E+02  0.47000000000E+01 0. -1.
         -5   -1    0    0    0  501 -0.00000000000E+00 -0.00000000000E+00 -0.78260885141E+03  0.78262296434E+03  0.47000000000E+01 0.  1.
          6    1    1    2  502    0 -0.29755636719E+02  0.44241833517E+02 -0.24061408068E+03  0.30053597716E+03  0.17200000000E+03 0.  1.
         -6    1    1    2    0  502  0.29755636719E+02 -0.44241833517E+02 -0.49633312909E+03  0.52798987943E+03  0.17200000000E+03 0.  1.
</event>
<event>
 4    1 -0.6384999E-004  0.1805966E+03  0.7818608E-02  0.1167227E+00
         -5   -1    0    0    0  501 -0.00000000000E+00  0.00000000000E+00  0.26629770988E+02  0.27041351720E+02  0.47000000000E+01 0.  1.
          5   -1    0    0  501    0  0.00000000000E+00 -0.00000000000E+00 -0.12153424401E+04  0.12153515280E+04  0.47000000000E+01 0. -1.
          6    1    1    2  502    0 -0.50382290430E+02 -0.22197726682E+02 -0.60547398269E+03  0.63183372652E+03  0.17200000000E+03 0.  1.
         -6    1    1    2    0  502  0.50382290430E+02  0.22197726682E+02 -0.58323868640E+03  0.61055915321E+03  0.17200000000E+03 0.  1.
</event>
<event>
 4    1 -0.6384999E-004  0.3399400E+03  0.7818608E-02  0.1066821E+00
          5   -1    0    0  501    0  0.00000000000E+00  0.00000000000E+00  0.22349273650E+03  0.22354215098E+03  0.47000000000E+01 0. -1.
         -5   -1    0    0    0  501 -0.00000000000E+00 -0.00000000000E+00 -0.56512899155E+03  0.56514853543E+03  0.47000000000E+01 0.  1.
          6    1    1    2  502    0  0.22067136907E+03  0.19307860560E+03 -0.55675356706E+02  0.34446907904E+03  0.17200000000E+03 0. -1.
         -6    1    1    2    0  502 -0.22067136907E+03 -0.19307860560E+03 -0.28596089835E+03  0.44422160737E+03  0.17200000000E+03 0.  1.
</event>
<event>
 4    1 -0.6384999E-004  0.1771649E+03  0.7818608E-02  0.1170575E+00
         -5   -1    0    0    0  501 -0.00000000000E+00  0.00000000000E+00  0.10572453442E+03  0.10582895246E+03  0.47000000000E+01 0.  1.
          5   -1    0    0  501    0  0.00000000000E+00 -0.00000000000E+00 -0.29913680510E+03  0.29917372573E+03  0.47000000000E+01 0. -1.
          6    1    1    2  502    0  0.38060440227E+02  0.18836589971E+02 -0.78097720406E+02  0.19361474160E+03  0.17200000000E+03 0.  1.
         -6    1    1    2    0  502 -0.38060440227E+02 -0.18836589971E+02 -0.11531455027E+03  0.21138793659E+03  0.17200000000E+03 0.  1.
</event>
<event>
 4    1 -0.6384999E-004  0.2257092E+03  0.7818608E-02  0.1129697E+00
         -5   -1    0    0    0  501 -0.00000000000E+00  0.00000000000E+00  0.18132254938E+03  0.18138345270E+03  0.47000000000E+01 0.  1.
          5   -1    0    0  501    0  0.00000000000E+00 -0.00000000000E+00 -0.36161201354E+03  0.36164255604E+03  0.47000000000E+01 0. -1.
          6    1    1    2  502    0  0.27437191675E+02  0.14355433287E+03 -0.21845430267E+03  0.31411292289E+03  0.17200000000E+03 0. -1.
         -6    1    1    2    0  502 -0.27437191675E+02 -0.14355433287E+03  0.38164838503E+02  0.22891308584E+03  0.17200000000E+03 0.  1.
</event>
<event>
 4    1 -0.6384999E-004  0.1974445E+03  0.7818608E-02  0.1151913E+00
          5   -1    0    0  501    0  0.00000000000E+00  0.00000000000E+00  0.16537220376E+03  0.16543897901E+03  0.47000000000E+01 0. -1.
         -5   -1    0    0    0  501 -0.00000000000E+00 -0.00000000000E+00 -0.28685726475E+03  0.28689576563E+03  0.47000000000E+01 0.  1.
          6    1    1    2  502    0 -0.82979843786E+02 -0.50146374057E+02 -0.15632893991E+03  0.25183933521E+03  0.17200000000E+03 0.  1.
         -6    1    1    2    0  502  0.82979843786E+02  0.50146374057E+02  0.34843878917E+02  0.20049540943E+03  0.17200000000E+03 0. -1.
</event>
<event>
 4    1 -0.6384999E-004  0.1892306E+03  0.7818608E-02  0.1159157E+00
         -5   -1    0    0    0  501 -0.00000000000E+00  0.00000000000E+00  0.45811604881E+03  0.45814015779E+03  0.47000000000E+01 0.  1.
          5   -1    0    0  501    0  0.00000000000E+00 -0.00000000000E+00 -0.84516126323E+02  0.84646710560E+02  0.47000000000E+01 0. -1.
          6    1    1    2  502    0 -0.11674084348E+02  0.78025164734E+02  0.11190342523E+03  0.21984218693E+03  0.17200000000E+03 0. -1.
         -6    1    1    2    0  502  0.11674084348E+02 -0.78025164734E+02  0.26169649726E+03  0.32294468141E+03  0.17200000000E+03 0.  1.
</event>
<event>
 4    1 -0.6384999E-004  0.8939190E+03  0.7818608E-02  0.9433215E-01
         -5   -1    0    0    0  501 -0.00000000000E+00  0.00000000000E+00  0.75026075660E+03  0.75027547801E+03  0.47000000000E+01 0.  1.
          5   -1    0    0  501    0  0.00000000000E+00 -0.00000000000E+00 -0.10650626141E+04  0.10650729843E+04  0.47000000000E+01 0. -1.
          6    1    1    2  502    0 -0.59646308324E+03 -0.64322540068E+03 -0.15995594110E+03  0.90811729906E+03  0.17200000000E+03 0. -1.
         -6    1    1    2    0  502  0.59646308324E+03  0.64322540068E+03 -0.15484591636E+03  0.90723116325E+03  0.17200000000E+03 0.  1.
</event>
<event>
 4    1 -0.6384999E-004  0.2254267E+03  0.7818608E-02  0.1129901E+00
         -5   -1    0    0    0  501 -0.00000000000E+00  0.00000000000E+00  0.11449497277E+03  0.11459139928E+03  0.47000000000E+01 0.  1.
          5   -1    0    0  501    0  0.00000000000E+00 -0.00000000000E+00 -0.59995557970E+03  0.59997398912E+03  0.47000000000E+01 0. -1.
          6    1    1    2  502    0 -0.11057834769E+03 -0.94897995960E+02 -0.42513950368E+03  0.48120764562E+03  0.17200000000E+03 0. -1.
         -6    1    1    2    0  502  0.11057834769E+03  0.94897995960E+02 -0.60321103254E+02  0.23335774278E+03  0.17200000000E+03 0.  1.
</event>
<event>
 4    1 -0.6384999E-004  0.2545200E+03  0.7818608E-02  0.1110481E+00
          5   -1    0    0  501    0  0.00000000000E+00  0.00000000000E+00  0.27602761133E+04  0.27602801147E+04  0.47000000000E+01 0. -1.
         -5   -1    0    0    0  501 -0.00000000000E+00 -0.00000000000E+00 -0.24604501962E+02  0.25049381565E+02  0.47000000000E+01 0.  1.
          6    1    1    2  502    0 -0.10126024225E+03 -0.15793289702E+03  0.16940179092E+04  0.17130315564E+04  0.17200000000E+03 0.  1.
         -6    1    1    2    0  502  0.10126024225E+03  0.15793289702E+03  0.10416537021E+04  0.10722979399E+04  0.17200000000E+03 0.  1.
</event>
<event>
 4    1 -0.6384999E-004  0.2916157E+03  0.7818608E-02  0.1089509E+00
          5   -1    0    0  501    0  0.00000000000E+00  0.00000000000E+00  0.10641513948E+03  0.10651888053E+03  0.47000000000E+01 0. -1.
         -5   -1    0    0    0  501 -0.00000000000E+00 -0.00000000000E+00 -0.82630425157E+03  0.82631761821E+03  0.47000000000E+01 0.  1.
          6    1    1    2  502    0 -0.98638340818E+02  0.21383677970E+03 -0.27459509336E+03  0.40055231360E+03  0.17200000000E+03 0. -1.
         -6    1    1    2    0  502  0.98638340818E+02 -0.21383677970E+03 -0.44529401873E+03  0.53228418514E+03  0.17200000000E+03 0.  1.
</event>
<event>
 4    1 -0.6384999E-004  0.2784606E+03  0.7818608E-02  0.1096533E+00
          5   -1    0    0  501    0  0.00000000000E+00  0.00000000000E+00  0.18316856522E+03  0.18322885495E+03  0.47000000000E+01 0. -1.
         -5   -1    0    0    0  501 -0.00000000000E+00 -0.00000000000E+00 -0.10039618438E+04  0.10039728452E+04  0.47000000000E+01 0.  1.
          6    1    1    2  502    0 -0.18639166480E+03  0.11495416635E+03  0.41067901264E+02  0.28147270842E+03  0.17200000000E+03 0. -1.
         -6    1    1    2    0  502  0.18639166480E+03 -0.11495416635E+03 -0.86186117989E+03  0.90572899174E+03  0.17200000000E+03 0.  1.
</event>
<event>
 4    1 -0.6384999E-004  0.1838983E+03  0.7818608E-02  0.1164083E+00
          5   -1    0    0  501    0  0.00000000000E+00  0.00000000000E+00  0.21671256355E+03  0.21676352368E+03  0.47000000000E+01 0. -1.
         -5   -1    0    0    0  501 -0.00000000000E+00 -0.00000000000E+00 -0.16936755715E+03  0.16943275780E+03  0.47000000000E+01 0.  1.
          6    1    1    2  502    0  0.15351766089E+02 -0.63236948522E+02  0.78007448631E+02  0.19975923113E+03  0.17200000000E+03 0. -1.
         -6    1    1    2    0  502 -0.15351766089E+02  0.63236948522E+02 -0.30662442233E+02  0.18643705035E+03  0.17200000000E+03 0. -1.
</event>
<event>
 4    1 -0.6384999E-004  0.2256677E+03  0.7818608E-02  0.1129727E+00
         -5   -1    0    0    0  501 -0.00000000000E+00  0.00000000000E+00  0.42568344038E+03  0.42570938610E+03  0.47000000000E+01 0.  1.
          5   -1    0    0  501    0  0.00000000000E+00 -0.00000000000E+00 -0.30032411973E+03  0.30036089441E+03  0.47000000000E+01 0. -1.
          6    1    1    2  502    0  0.14602183785E+01  0.14608137574E+03 -0.21892980103E+03  0.31441399198E+03  0.17200000000E+03 0. -1.
         -6    1    1    2    0  502 -0.14602183785E+01 -0.14608137574E+03  0.34428912168E+03  0.41165628853E+03  0.17200000000E+03 0.  1.
</event>
<event>
 4    1 -0.6384999E-004  0.2276412E+03  0.7818608E-02  0.1128311E+00
         -5   -1    0    0    0  501 -0.00000000000E+00  0.00000000000E+00  0.16675469219E+03  0.16682091405E+03  0.47000000000E+01 0.  1.
          5   -1    0    0  501    0  0.00000000000E+00 -0.00000000000E+00 -0.36020100848E+03  0.36023167061E+03  0.47000000000E+01 0. -1.
          6    1    1    2  502    0 -0.89136506574E+02  0.11954586015E+03 -0.19448703150E+03  0.29940897599E+03  0.17200000000E+03 0. -1.
         -6    1    1    2    0  502  0.89136506574E+02 -0.11954586015E+03  0.10407152049E+01  0.22764360867E+03  0.17200000000E+03 0.  1.
</event>
<event>
 4    1 -0.6384999E-004  0.2696314E+03  0.7818608E-02  0.1101491E+00
          5   -1    0    0  501    0  0.00000000000E+00  0.00000000000E+00  0.65848739849E+03  0.65850417157E+03  0.47000000000E+01 0. -1.
         -5   -1    0    0    0  501 -0.00000000000E+00 -0.00000000000E+00 -0.11910644655E+03  0.11919914265E+03  0.47000000000E+01 0.  1.
          6    1    1    2  502    0  0.20422806232E+03 -0.37523511818E+02  0.37514634146E+03  0.46199122599E+03  0.17200000000E+03 0. -1.
         -6    1    1    2    0  502 -0.20422806232E+03  0.37523511818E+02  0.16423461049E+03  0.31571208824E+03  0.17200000000E+03 0.  1.
</event>
<event>
 4    1 -0.6384999E-004  0.2581412E+03  0.7818608E-02  0.1108265E+00
         -5   -1    0    0    0  501 -0.00000000000E+00  0.00000000000E+00  0.23270106360E+03  0.23274852309E+03  0.47000000000E+01 0.  1.
          5   -1    0    0  501    0  0.00000000000E+00 -0.00000000000E+00 -0.30589230332E+03  0.30592840867E+03  0.47000000000E+01 0. -1.
          6    1    1    2  502    0  0.17500894786E+03 -0.80154604736E+02 -0.10480835446E+03  0.27860668272E+03  0.17200000000E+03 0. -1.
         -6    1    1    2    0  502 -0.17500894786E+03  0.80154604736E+02  0.31617114739E+02  0.26007024904E+03  0.17200000000E+03 0.  1.
</event>
<event>
 4    1 -0.6384999E-004  0.2184293E+03  0.7818608E-02  0.1135060E+00
          5   -1    0    0  501    0  0.00000000000E+00  0.00000000000E+00  0.37943786470E+03  0.37946697244E+03  0.47000000000E+01 0. -1.
         -5   -1    0    0    0  501 -0.00000000000E+00 -0.00000000000E+00 -0.20800400698E+03  0.20805710014E+03  0.47000000000E+01 0.  1.
          6    1    1    2  502    0  0.12139746726E+03 -0.58223762755E+02  0.27049925750E+03  0.34767973756E+03  0.17200000000E+03 0. -1.
         -6    1    1    2    0  502 -0.12139746726E+03  0.58223762755E+02 -0.99065399769E+02  0.23984433501E+03  0.17200000000E+03 0.  1.
</event>
<event>
 4    1 -0.6384999E-004  0.3656687E+03  0.7818608E-02  0.1056362E+00
          5   -1    0    0  501    0  0.00000000000E+00  0.00000000000E+00  0.22810807029E+03  0.22815648518E+03  0.47000000000E+01 0. -1.
         -5   -1    0    0    0  501 -0.00000000000E+00 -0.00000000000E+00 -0.84663785086E+03  0.84665089648E+03  0.47000000000E+01 0.  1.
          6    1    1    2  502    0  0.94610694479E+02  0.30850993786E+03 -0.11138940008E+02  0.36583827199E+03  0.17200000000E+03 0. -1.
         -6    1    1    2    0  502 -0.94610694479E+02 -0.30850993786E+03 -0.60739084057E+03  0.70896910967E+03  0.17200000000E+03 0.  1.
</event>
<event>
 4    1 -0.6384999E-004  0.2555492E+03  0.7818608E-02  0.1109847E+00
          5   -1    0    0  501    0  0.00000000000E+00  0.00000000000E+00  0.17594586211E+04  0.17594648986E+04  0.47000000000E+01 0. -1.
         -5   -1    0    0    0  501 -0.00000000000E+00 -0.00000000000E+00 -0.11545810604E+03  0.11555372884E+03  0.47000000000E+01 0.  1.
          6    1    1    2  502    0  0.69105174428E+02 -0.17591433657E+03  0.15943380414E+04  0.16146885673E+04  0.17200000000E+03 0. -1.
         -6    1    1    2    0  502 -0.69105174428E+02  0.17591433657E+03  0.49662473656E+02  0.26033006018E+03  0.17200000000E+03 0.  1.
</event>
<event>
 4    1 -0.6384999E-004  0.2179944E+03  0.7818608E-02  0.1135387E+00
          5   -1    0    0  501    0  0.00000000000E+00  0.00000000000E+00  0.29224442860E+03  0.29228221987E+03  0.47000000000E+01 0. -1.
         -5   -1    0    0    0  501 -0.00000000000E+00 -0.00000000000E+00 -0.23077827615E+03  0.23082613098E+03  0.47000000000E+01 0.  1.
          6    1    1    2  502    0 -0.13175648673E+03  0.24037268260E+02  0.17294321939E+03  0.27826411769E+03  0.17200000000E+03 0. -1.
         -6    1    1    2    0  502  0.13175648673E+03 -0.24037268260E+02 -0.11147706694E+03  0.24484423316E+03  0.17200000000E+03 0.  1.
</event>
<event>
 4    1 -0.6384999E-004  0.2448965E+03  0.7818608E-02  0.1116573E+00
         -5   -1    0    0    0  501 -0.00000000000E+00  0.00000000000E+00  0.18974260580E+04  0.18974318791E+04  0.47000000000E+01 0.  1.
          5   -1    0    0  501    0  0.00000000000E+00 -0.00000000000E+00 -0.57395851023E+02  0.57587965016E+02  0.47000000000E+01 0. -1.
          6    1    1    2  502    0 -0.16928109747E+03  0.41643888473E+02  0.15759457952E+04  0.15948603239E+04  0.17200000000E+03 0.  1.
         -6    1    1    2    0  502  0.16928109747E+03 -0.41643888473E+02  0.26408441182E+03  0.36015952018E+03  0.17200000000E+03 0. -1.
</event>
<event>
 4    1 -0.6384999E-004  0.2170821E+03  0.7818608E-02  0.1136077E+00
          5   -1    0    0  501    0  0.00000000000E+00  0.00000000000E+00  0.38066691186E+03  0.38069592562E+03  0.47000000000E+01 0. -1.
         -5   -1    0    0    0  501 -0.00000000000E+00 -0.00000000000E+00 -0.12426344187E+03  0.12435229385E+03  0.47000000000E+01 0.  1.
          6    1    1    2  502    0 -0.51261557897E+02 -0.12211836500E+03  0.11145782963E+03  0.24402354430E+03  0.17200000000E+03 0. -1.
         -6    1    1    2    0  502  0.51261557897E+02  0.12211836500E+03  0.14494564036E+03  0.26102467517E+03  0.17200000000E+03 0.  1.
</event>
<event>
 4    1 -0.6384999E-004  0.1764376E+03  0.7818608E-02  0.1171296E+00
         -5   -1    0    0    0  501 -0.00000000000E+00  0.00000000000E+00  0.63560855598E+03  0.63562593279E+03  0.47000000000E+01 0.  1.
          5   -1    0    0  501    0  0.00000000000E+00 -0.00000000000E+00 -0.49153563166E+02  0.49377755841E+02  0.47000000000E+01 0. -1.
          6    1    1    2  502    0 -0.36834016781E+02  0.13765133195E+02  0.32024530646E+03  0.36563271188E+03  0.17200000000E+03 0. -1.
         -6    1    1    2    0  502  0.36834016781E+02 -0.13765133195E+02  0.26620968635E+03  0.31937097675E+03  0.17200000000E+03 0. -1.
</event>
<event>
 4    1 -0.6384999E-004  0.7222539E+03  0.7818608E-02  0.9679914E-01
          5   -1    0    0  501    0  0.00000000000E+00  0.00000000000E+00  0.13151849012E+04  0.13151932993E+04  0.47000000000E+01 0. -1.
         -5   -1    0    0    0  501 -0.00000000000E+00 -0.00000000000E+00 -0.40737965915E+03  0.40740677055E+03  0.47000000000E+01 0.  1.
          6    1    1    2  502    0  0.60941064483E+03  0.34739794922E+03  0.59391705926E+03  0.93508723788E+03  0.17200000000E+03 0. -1.
         -6    1    1    2    0  502 -0.60941064483E+03 -0.34739794922E+03  0.31388818282E+03  0.78751283194E+03  0.17200000000E+03 0.  1.
</event>
<event>
 4    1 -0.6384999E-004  0.3261167E+03  0.7818608E-02  0.1072868E+00
         -5   -1    0    0    0  501 -0.00000000000E+00  0.00000000000E+00  0.46337427487E+03  0.46339811028E+03  0.47000000000E+01 0.  1.
          5   -1    0    0  501    0  0.00000000000E+00 -0.00000000000E+00 -0.36951701716E+03  0.36954690632E+03  0.47000000000E+01 0. -1.
          6    1    1    2  502    0 -0.12962538076E+03 -0.24487832128E+03 -0.20944900958E+03  0.38758356413E+03  0.17200000000E+03 0. -1.
         -6    1    1    2    0  502  0.12962538076E+03  0.24487832128E+03  0.30330626729E+03  0.44536145247E+03  0.17200000000E+03 0.  1.
</event>
<event>
 4    1 -0.6384999E-004  0.1972974E+03  0.7818608E-02  0.1152039E+00
         -5   -1    0    0    0  501 -0.00000000000E+00  0.00000000000E+00  0.12296078117E+03  0.12305057377E+03  0.47000000000E+01 0.  1.
          5   -1    0    0  501    0  0.00000000000E+00 -0.00000000000E+00 -0.36526174668E+03  0.36529198402E+03  0.47000000000E+01 0. -1.
          6    1    1    2  502    0  0.18163694483E+02 -0.94933468863E+02 -0.21048463217E+03  0.28849621087E+03  0.17200000000E+03 0. -1.
         -6    1    1    2    0  502 -0.18163694483E+02  0.94933468863E+02 -0.31816333344E+02  0.19984634691E+03  0.17200000000E+03 0.  1.
</event>
<event>
 4    1 -0.6384999E-004  0.1729633E+03  0.7818608E-02  0.1174792E+00
          5   -1    0    0  501    0  0.00000000000E+00  0.00000000000E+00  0.38626528287E+02  0.38911421042E+02  0.47000000000E+01 0. -1.
         -5   -1    0    0    0  501 -0.00000000000E+00 -0.00000000000E+00 -0.10953782805E+04  0.10953883637E+04  0.47000000000E+01 0.  1.
          6    1    1    2  502    0  0.12124779569E+02  0.13612043961E+02 -0.21995819832E+03  0.27981763173E+03  0.17200000000E+03 0. -1.
         -6    1    1    2    0  502 -0.12124779569E+02 -0.13612043961E+02 -0.83679355390E+03  0.85448215304E+03  0.17200000000E+03 0.  1.
</event>
<event>
 4    1 -0.6384999E-004  0.1742003E+03  0.7818608E-02  0.1173537E+00
          5   -1    0    0  501    0  0.00000000000E+00  0.00000000000E+00  0.63352657833E+02  0.63526760145E+02  0.47000000000E+01 0. -1.
         -5   -1    0    0    0  501 -0.00000000000E+00 -0.00000000000E+00 -0.56130694173E+03  0.56132661867E+03  0.47000000000E+01 0.  1.
          6    1    1    2  502    0 -0.26508542905E+02 -0.76849776675E+01 -0.12874799446E+03  0.21661442197E+03  0.17200000000E+03 0. -1.
         -6    1    1    2    0  502  0.26508542905E+02  0.76849776675E+01 -0.36920628944E+03  0.40823895685E+03  0.17200000000E+03 0.  1.
</event>
<event>
 4    1 -0.6384999E-004  0.2828942E+03  0.7818608E-02  0.1094119E+00
         -5   -1    0    0    0  501 -0.00000000000E+00  0.00000000000E+00  0.12450935428E+04  0.12451024136E+04  0.47000000000E+01 0.  1.
          5   -1    0    0  501    0  0.00000000000E+00 -0.00000000000E+00 -0.64192379267E+02  0.64364210210E+02  0.47000000000E+01 0. -1.
          6    1    1    2  502    0 -0.20252969092E+03 -0.97092063483E+02  0.58158514780E+03  0.64673829996E+03  0.17200000000E+03 0.  1.
         -6    1    1    2    0  502  0.20252969092E+03  0.97092063483E+02  0.59931601570E+03  0.66272832381E+03  0.17200000000E+03 0.  1.
</event>
<event>
 4    1 -0.6384999E-004  0.1936437E+03  0.7818608E-02  0.1155215E+00
          5   -1    0    0  501    0  0.00000000000E+00  0.00000000000E+00  0.10255626639E+03  0.10266390688E+03  0.47000000000E+01 0. -1.
         -5   -1    0    0    0  501 -0.00000000000E+00 -0.00000000000E+00 -0.38805981839E+03  0.38808827945E+03  0.47000000000E+01 0.  1.
          6    1    1    2  502    0  0.63539783530E+02  0.62262281081E+02 -0.83360857490E+02  0.21082440157E+03  0.17200000000E+03 0. -1.
         -6    1    1    2    0  502 -0.63539783530E+02 -0.62262281081E+02 -0.20214269451E+03  0.27992778476E+03  0.17200000000E+03 0.  1.
</event>
<event>
 4    1 -0.6384999E-004  0.3352584E+03  0.7818608E-02  0.1068834E+00
          5   -1    0    0  501    0  0.00000000000E+00  0.00000000000E+00  0.14444693358E+04  0.14444769822E+04  0.47000000000E+01 0. -1.
         -5   -1    0    0    0  501 -0.00000000000E+00 -0.00000000000E+00 -0.98614779494E+02  0.98726717431E+02  0.47000000000E+01 0.  1.
          6    1    1    2  502    0 -0.23105383167E+03 -0.17154680400E+03  0.10277406083E+04  0.10810406732E+04  0.17200000000E+03 0. -1.
         -6    1    1    2    0  502  0.23105383167E+03  0.17154680400E+03  0.31811394798E+03  0.46216302642E+03  0.17200000000E+03 0.  1.
</event>
<event>
 4    1 -0.6384999E-004  0.3765321E+03  0.7818608E-02  0.1052223E+00
          5   -1    0    0  501    0  0.00000000000E+00  0.00000000000E+00  0.44336668758E+03  0.44339159854E+03  0.47000000000E+01 0. -1.
         -5   -1    0    0    0  501 -0.00000000000E+00 -0.00000000000E+00 -0.40873724456E+03  0.40876426592E+03  0.47000000000E+01 0.  1.
          6    1    1    2  502    0  0.75589115667E+02 -0.32631071381E+03  0.21613999859E+03  0.43415768488E+03  0.17200000000E+03 0. -1.
         -6    1    1    2    0  502 -0.75589115667E+02  0.32631071381E+03 -0.18151055556E+03  0.41799817958E+03  0.17200000000E+03 0.  1.
</event>
<event>
 4    1 -0.6384999E-004  0.2812704E+03  0.7818608E-02  0.1094997E+00
         -5   -1    0    0    0  501 -0.00000000000E+00  0.00000000000E+00  0.17266420682E+04  0.17266484650E+04  0.47000000000E+01 0.  1.
          5   -1    0    0  501    0  0.00000000000E+00 -0.00000000000E+00 -0.53866621650E+02  0.54071276367E+02  0.47000000000E+01 0. -1.
          6    1    1    2  502    0 -0.19704761321E+03 -0.10344698386E+03  0.49027503760E+03  0.56522796537E+03  0.17200000000E+03 0. -1.
         -6    1    1    2    0  502  0.19704761321E+03  0.10344698386E+03  0.11825004089E+04  0.12154917760E+04  0.17200000000E+03 0.  1.
</event>
<event>
 4    1 -0.6384999E-004  0.1933019E+03  0.7818608E-02  0.1155517E+00
          5   -1    0    0  501    0  0.00000000000E+00  0.00000000000E+00  0.43240325572E+03  0.43242879825E+03  0.47000000000E+01 0. -1.
         -5   -1    0    0    0  501 -0.00000000000E+00 -0.00000000000E+00 -0.13041762525E+03  0.13050228725E+03  0.47000000000E+01 0.  1.
          6    1    1    2  502    0  0.34384117088E+02 -0.81236368475E+02  0.31457519040E+03  0.36921967105E+03  0.17200000000E+03 0. -1.
         -6    1    1    2    0  502 -0.34384117088E+02  0.81236368475E+02 -0.12589559931E+02  0.19371141445E+03  0.17200000000E+03 0.  1.
</event>
<event>
 4    1 -0.6384999E-004  0.2321725E+03  0.7818608E-02  0.1125120E+00
         -5   -1    0    0    0  501 -0.00000000000E+00  0.00000000000E+00  0.55639574539E+03  0.55641559602E+03  0.47000000000E+01 0.  1.
          5   -1    0    0  501    0  0.00000000000E+00 -0.00000000000E+00 -0.11421998445E+03  0.11431664291E+03  0.47000000000E+01 0. -1.
          6    1    1    2  502    0  0.13500892006E+03 -0.78055498670E+02  0.90197860794E+02  0.24907774582E+03  0.17200000000E+03 0. -1.
         -6    1    1    2    0  502 -0.13500892006E+03  0.78055498670E+02  0.35197790015E+03  0.42165449312E+03  0.17200000000E+03 0.  1.
</event>
<event>
 4    1 -0.6384999E-004  0.2242854E+03  0.7818608E-02  0.1130728E+00
          5   -1    0    0  501    0  0.00000000000E+00  0.00000000000E+00  0.20430443334E+03  0.20435848766E+03  0.47000000000E+01 0. -1.
         -5   -1    0    0    0  501 -0.00000000000E+00 -0.00000000000E+00 -0.34033676994E+03  0.34036922154E+03  0.47000000000E+01 0.  1.
          6    1    1    2  502    0 -0.12655233640E+03  0.68588920557E+02  0.75275119413E+02  0.23658038269E+03  0.17200000000E+03 0. -1.
         -6    1    1    2    0  502  0.12655233640E+03 -0.68588920557E+02 -0.21130745602E+03  0.30814732652E+03  0.17200000000E+03 0.  1.
</event>
<event>
 4    1 -0.6384999E-004  0.2198435E+03  0.7818608E-02  0.1134000E+00
         -5   -1    0    0    0  501 -0.00000000000E+00  0.00000000000E+00  0.21885108417E+03  0.21890154646E+03  0.47000000000E+01 0.  1.
          5   -1    0    0  501    0  0.00000000000E+00 -0.00000000000E+00 -0.38934051680E+03  0.38936888425E+03  0.47000000000E+01 0. -1.
          6    1    1    2  502    0  0.16363084644E+02  0.13593907233E+03 -0.28536076717E+03  0.36022485945E+03  0.17200000000E+03 0. -1.
         -6    1    1    2    0  502 -0.16363084644E+02 -0.13593907233E+03  0.11487133454E+03  0.24804557126E+03  0.17200000000E+03 0.  1.
</event>
<event>
 4    1 -0.6384999E-004  0.1921168E+03  0.7818608E-02  0.1156566E+00
          5   -1    0    0  501    0  0.00000000000E+00  0.00000000000E+00  0.30792331765E+02  0.31148959782E+02  0.47000000000E+01 0. -1.
         -5   -1    0    0    0  501 -0.00000000000E+00 -0.00000000000E+00 -0.11955471550E+04  0.11955563934E+04  0.47000000000E+01 0.  1.
          6    1    1    2  502    0 -0.54020680532E+02 -0.66382535934E+02 -0.54615427629E+03  0.57895886599E+03  0.17200000000E+03 0. -1.
         -6    1    1    2    0  502  0.54020680532E+02  0.66382535934E+02 -0.61860054698E+03  0.64774648723E+03  0.17200000000E+03 0.  1.
</event>
<event>
 4    1 -0.6384999E-004  0.1737886E+03  0.7818608E-02  0.1173954E+00
         -5   -1    0    0    0  501 -0.00000000000E+00  0.00000000000E+00  0.98800063263E+03  0.98801181171E+03  0.47000000000E+01 0.  1.
          5   -1    0    0  501    0  0.00000000000E+00 -0.00000000000E+00 -0.38650850266E+02  0.38935565057E+02  0.47000000000E+01 0. -1.
          6    1    1    2  502    0 -0.22372328661E+02  0.10860009957E+02  0.23812804390E+03  0.29480065501E+03  0.17200000000E+03 0. -1.
         -6    1    1    2    0  502  0.22372328661E+02 -0.10860009957E+02  0.71122173846E+03  0.73214672175E+03  0.17200000000E+03 0.  1.
</event>
<event>
 4    1 -0.6384999E-004  0.3229683E+03  0.7818608E-02  0.1074291E+00
          5   -1    0    0  501    0  0.00000000000E+00  0.00000000000E+00  0.90579038678E+03  0.90580258047E+03  0.47000000000E+01 0. -1.
         -5   -1    0    0    0  501 -0.00000000000E+00 -0.00000000000E+00 -0.12909163365E+03  0.12917716470E+03  0.47000000000E+01 0.  1.
          6    1    1    2  502    0 -0.14505825056E+03  0.23169508780E+03  0.55867029514E+03  0.64530691027E+03  0.17200000000E+03 0. -1.
         -6    1    1    2    0  502  0.14505825056E+03 -0.23169508780E+03  0.21802845799E+03  0.38967283490E+03  0.17200000000E+03 0.  1.
</event>
<event>
 4    1 -0.6384999E-004  0.1869177E+03  0.7818608E-02  0.1161271E+00
          5   -1    0    0  501    0  0.00000000000E+00  0.00000000000E+00  0.57104232415E+03  0.57106166565E+03  0.47000000000E+01 0. -1.
         -5   -1    0    0    0  501 -0.00000000000E+00 -0.00000000000E+00 -0.74902327907E+02  0.75049641744E+02  0.47000000000E+01 0.  1.
          6    1    1    2  502    0  0.55703241605E+02 -0.47448800311E+02  0.38671545302E+03  0.42951959371E+03  0.17200000000E+03 0.  1.
         -6    1    1    2    0  502 -0.55703241605E+02  0.47448800311E+02  0.10942454323E+03  0.21659171368E+03  0.17200000000E+03 0.  1.
</event>
<event>
 4    1 -0.6384999E-004  0.1801079E+03  0.7818608E-02  0.1167699E+00
         -5   -1    0    0    0  501 -0.00000000000E+00  0.00000000000E+00  0.54936296129E+02  0.55136980625E+02  0.47000000000E+01 0.  1.
          5   -1    0    0  501    0  0.00000000000E+00 -0.00000000000E+00 -0.62879292962E+03  0.62881049477E+03  0.47000000000E+01 0. -1.
          6    1    1    2  502    0 -0.52548262086E+02 -0.96715359477E+01 -0.20112558022E+03  0.26998214288E+03  0.17200000000E+03 0.  1.
         -6    1    1    2    0  502  0.52548262086E+02  0.96715359477E+01 -0.37273105327E+03  0.41396533252E+03  0.17200000000E+03 0. -1.
</event>
<event>
 4    1 -0.6384999E-004  0.2330347E+03  0.7818608E-02  0.1124522E+00
         -5   -1    0    0    0  501 -0.00000000000E+00  0.00000000000E+00  0.88786169099E+02  0.88910482077E+02  0.47000000000E+01 0.  1.
          5   -1    0    0  501    0  0.00000000000E+00 -0.00000000000E+00 -0.16868563587E+04  0.16868629063E+04  0.47000000000E+01 0. -1.
          6    1    1    2  502    0 -0.42734772639E+02  0.15131058570E+03 -0.15080611582E+04  0.15259598983E+04  0.17200000000E+03 0. -1.
         -6    1    1    2    0  502  0.42734772639E+02 -0.15131058570E+03 -0.90009031334E+02  0.24981349015E+03  0.17200000000E+03 0.  1.
</event>
<event>
 4    1 -0.6384999E-004  0.2368094E+03  0.7818608E-02  0.1121937E+00
          5   -1    0    0  501    0  0.00000000000E+00  0.00000000000E+00  0.15040866531E+03  0.15048208067E+03  0.47000000000E+01 0. -1.
         -5   -1    0    0    0  501 -0.00000000000E+00 -0.00000000000E+00 -0.42699693325E+03  0.42702279916E+03  0.47000000000E+01 0.  1.
          6    1    1    2  502    0  0.15722113190E+03  0.42144993486E+02 -0.35303486933E+02  0.23942644169E+03  0.17200000000E+03 0.  1.
         -6    1    1    2    0  502 -0.15722113190E+03 -0.42144993486E+02 -0.24128478100E+03  0.33807843814E+03  0.17200000000E+03 0.  1.
</event>
<event>
 4    1 -0.6384999E-004  0.2392018E+03  0.7818608E-02  0.1120326E+00
         -5   -1    0    0    0  501 -0.00000000000E+00  0.00000000000E+00  0.56531617103E+03  0.56533570843E+03  0.47000000000E+01 0.  1.
          5   -1    0    0  501    0  0.00000000000E+00 -0.00000000000E+00 -0.13645259397E+03  0.13653351384E+03  0.47000000000E+01 0. -1.
          6    1    1    2  502    0 -0.16504747613E+03 -0.19819398696E+02  0.39288896116E+03  0.45997740569E+03  0.17200000000E+03 0.  1.
         -6    1    1    2    0  502  0.16504747613E+03  0.19819398696E+02  0.35974615901E+02  0.24189181658E+03  0.17200000000E+03 0. -1.
</event>
<event>
 4    1 -0.6384999E-004  0.2679303E+03  0.7818608E-02  0.1102470E+00
          5   -1    0    0  501    0  0.00000000000E+00  0.00000000000E+00  0.17215485007E+03  0.17221899548E+03  0.47000000000E+01 0. -1.
         -5   -1    0    0    0  501 -0.00000000000E+00 -0.00000000000E+00 -0.42019490543E+03  0.42022119003E+03  0.47000000000E+01 0.  1.
          6    1    1    2  502    0  0.69536002379E+02  0.19330641744E+03 -0.15051078609E+03  0.30731111822E+03  0.17200000000E+03 0. -1.
         -6    1    1    2    0  502 -0.69536002379E+02 -0.19330641744E+03 -0.97529269267E+02  0.28512906729E+03  0.17200000000E+03 0.  1.
</event>
<event>
 4    1 -0.6384999E-004  0.1770414E+03  0.7818608E-02  0.1170697E+00
         -5   -1    0    0    0  501 -0.00000000000E+00  0.00000000000E+00  0.85193746129E+03  0.85195042575E+03  0.47000000000E+01 0.  1.
          5   -1    0    0  501    0  0.00000000000E+00 -0.00000000000E+00 -0.37931834986E+02  0.38221906093E+02  0.47000000000E+01 0. -1.
          6    1    1    2  502    0 -0.41880289204E+02 -0.23905830886E+01  0.48919966861E+03  0.52024992962E+03  0.17200000000E+03 0. -1.
         -6    1    1    2    0  502  0.41880289204E+02  0.23905830886E+01  0.32480595769E+03  0.36992240222E+03  0.17200000000E+03 0. -1.
</event>
<event>
 4    1 -0.6384999E-004  0.1877491E+03  0.7818608E-02  0.1160507E+00
          5   -1    0    0  501    0  0.00000000000E+00  0.00000000000E+00  0.45438719193E+02  0.45681147116E+02  0.47000000000E+01 0. -1.
         -5   -1    0    0    0  501 -0.00000000000E+00 -0.00000000000E+00 -0.83450645643E+03  0.83451969169E+03  0.47000000000E+01 0.  1.
          6    1    1    2  502    0  0.48235467370E+02 -0.57784630019E+02 -0.27550992778E+03  0.33339982616E+03  0.17200000000E+03 0. -1.
         -6    1    1    2    0  502 -0.48235467370E+02  0.57784630019E+02 -0.51355780945E+03  0.54680101264E+03  0.17200000000E+03 0.  1.
</event>
<event>
 4    1 -0.6384999E-004  0.1793986E+03  0.7818608E-02  0.1168386E+00
         -5   -1    0    0    0  501 -0.00000000000E+00  0.00000000000E+00  0.11977818182E+04  0.11977910394E+04  0.47000000000E+01 0.  1.
          5   -1    0    0  501    0  0.00000000000E+00 -0.00000000000E+00 -0.27279959719E+02  0.27681874977E+02  0.47000000000E+01 0. -1.
          6    1    1    2  502    0 -0.26806164198E+02 -0.43373994645E+02  0.49318073032E+03  0.52479625248E+03  0.17200000000E+03 0.  1.
         -6    1    1    2    0  502  0.26806164198E+02  0.43373994645E+02  0.67732112814E+03  0.70067666186E+03  0.17200000000E+03 0. -1.
</event>
<event>
 4    1 -0.6384999E-004  0.1821137E+03  0.7818608E-02  0.1165773E+00
          5   -1    0    0  501    0  0.00000000000E+00  0.00000000000E+00  0.44287705118E+03  0.44290198967E+03  0.47000000000E+01 0. -1.
         -5   -1    0    0    0  501 -0.00000000000E+00 -0.00000000000E+00 -0.75494403410E+02  0.75640564159E+02  0.47000000000E+01 0.  1.
          6    1    1    2  502    0 -0.11174391133E+02 -0.58792338070E+02  0.20878795941E+03  0.27705201322E+03  0.17200000000E+03 0. -1.
         -6    1    1    2    0  502  0.11174391133E+02  0.58792338070E+02  0.15859468836E+03  0.24149054062E+03  0.17200000000E+03 0. -1.
</event>
<event>
 4    1 -0.6384999E-004  0.2288875E+03  0.7818608E-02  0.1127425E+00
          5   -1    0    0  501    0  0.00000000000E+00  0.00000000000E+00  0.63099461761E+03  0.63101212148E+03  0.47000000000E+01 0. -1.
         -5   -1    0    0    0  501 -0.00000000000E+00 -0.00000000000E+00 -0.86098581502E+02  0.86226769258E+02  0.47000000000E+01 0.  1.
          6    1    1    2  502    0  0.88890643340E+02 -0.12208169066E+03  0.34105924909E+03  0.41074432078E+03  0.17200000000E+03 0.  1.
         -6    1    1    2    0  502 -0.88890643340E+02  0.12208169066E+03  0.20383678702E+03  0.30649456996E+03  0.17200000000E+03 0.  1.
</event>
<event>
 4    1 -0.6384999E-004  0.3778405E+03  0.7818608E-02  0.1051735E+00
         -5   -1    0    0    0  501 -0.00000000000E+00  0.00000000000E+00  0.16405576442E+04  0.16405643767E+04  0.47000000000E+01 0.  1.
          5   -1    0    0  501    0  0.00000000000E+00 -0.00000000000E+00 -0.15949876396E+03  0.15956799712E+03  0.47000000000E+01 0. -1.
          6    1    1    2  502    0 -0.32721907369E+03 -0.78148130839E+02  0.13370175130E+03  0.40079871612E+03  0.17200000000E+03 0. -1.
         -6    1    1    2    0  502  0.32721907369E+03  0.78148130839E+02  0.13473571290E+04  0.13993336577E+04  0.17200000000E+03 0.  1.
</event>
<event>
 4    1 -0.6384999E-004  0.2593551E+03  0.7818608E-02  0.1107531E+00
          5   -1    0    0  501    0  0.00000000000E+00  0.00000000000E+00  0.86530238820E+02  0.86657788053E+02  0.47000000000E+01 0. -1.
         -5   -1    0    0    0  501 -0.00000000000E+00 -0.00000000000E+00 -0.10317836732E+04  0.10317943779E+04  0.47000000000E+01 0.  1.
          6    1    1    2  502    0 -0.17443293192E+03  0.85171717120E+02 -0.19456200889E+03  0.32422128931E+03  0.17200000000E+03 0. -1.
         -6    1    1    2    0  502  0.17443293192E+03 -0.85171717120E+02 -0.75069142549E+03  0.79423087666E+03  0.17200000000E+03 0.  1.
</event>
<event>
 4    1 -0.6384999E-004  0.2014051E+03  0.7818608E-02  0.1148559E+00
          5   -1    0    0  501    0  0.00000000000E+00  0.00000000000E+00  0.23266032805E+03  0.23270779584E+03  0.47000000000E+01 0. -1.
         -5   -1    0    0    0  501 -0.00000000000E+00 -0.00000000000E+00 -0.19473309222E+03  0.19478980263E+03  0.47000000000E+01 0.  1.
          6    1    1    2  502    0 -0.10050464235E+03  0.29645030965E+02  0.88265292107E+02  0.21989718685E+03  0.17200000000E+03 0. -1.
         -6    1    1    2    0  502  0.10050464235E+03 -0.29645030965E+02 -0.50338056285E+02  0.20760041162E+03  0.17200000000E+03 0.  1.
</event>
<event>
 4    1 -0.6384999E-004  0.2322201E+03  0.7818608E-02  0.1125087E+00
          5   -1    0    0  501    0  0.00000000000E+00  0.00000000000E+00  0.21235994590E+03  0.21241195029E+03  0.47000000000E+01 0. -1.
         -5   -1    0    0    0  501 -0.00000000000E+00 -0.00000000000E+00 -0.25504322631E+03  0.25508652901E+03  0.47000000000E+01 0.  1.
          6    1    1    2  502    0 -0.90636335124E+02  0.12699304359E+03 -0.52412071393E+01  0.23227924706E+03  0.17200000000E+03 0.  1.
         -6    1    1    2    0  502  0.90636335124E+02 -0.12699304359E+03 -0.37442073264E+02  0.23521923224E+03  0.17200000000E+03 0. -1.
</event>
<event>
 4    1 -0.6384999E-004  0.1863202E+03  0.7818608E-02  0.1161823E+00
         -5   -1    0    0    0  501 -0.00000000000E+00  0.00000000000E+00  0.55733994290E+02  0.55931816701E+02  0.47000000000E+01 0.  1.
          5   -1    0    0  501    0  0.00000000000E+00 -0.00000000000E+00 -0.80657473381E+03  0.80658842740E+03  0.47000000000E+01 0. -1.
          6    1    1    2  502    0  0.63413579736E+02  0.33315619209E+02 -0.58193892922E+03  0.61103856664E+03  0.17200000000E+03 0. -1.
         -6    1    1    2    0  502 -0.63413579736E+02 -0.33315619209E+02 -0.16890181030E+03  0.25148167746E+03  0.17200000000E+03 0.  1.
</event>
<event>
 4    1 -0.6384999E-004  0.1769145E+03  0.7818608E-02  0.1170823E+00
          5   -1    0    0  501    0  0.00000000000E+00  0.00000000000E+00  0.64893451050E+02  0.65063430506E+02  0.47000000000E+01 0. -1.
         -5   -1    0    0    0  501 -0.00000000000E+00 -0.00000000000E+00 -0.73440515582E+03  0.73442019505E+03  0.47000000000E+01 0.  1.
          6    1    1    2  502    0 -0.16001998205E+01 -0.41378386609E+02 -0.56930672360E+03  0.59616178765E+03  0.17200000000E+03 0.  1.
         -6    1    1    2    0  502  0.16001998205E+01  0.41378386609E+02 -0.10020498117E+03  0.20332183791E+03  0.17200000000E+03 0. -1.
</event>
<event>
 4    1 -0.6384999E-004  0.1898443E+03  0.7818608E-02  0.1158602E+00
          5   -1    0    0  501    0  0.00000000000E+00  0.00000000000E+00  0.23551507048E+03  0.23556196302E+03  0.47000000000E+01 0. -1.
         -5   -1    0    0    0  501 -0.00000000000E+00 -0.00000000000E+00 -0.16293905463E+03  0.16300682661E+03  0.47000000000E+01 0.  1.
          6    1    1    2  502    0 -0.31260390782E+02 -0.74024728189E+02  0.85657995131E+02  0.20827425320E+03  0.17200000000E+03 0. -1.
         -6    1    1    2    0  502  0.31260390782E+02  0.74024728189E+02 -0.13081979282E+02  0.19029453644E+03  0.17200000000E+03 0.  1.
</event>
<event>
 4    1 -0.6384999E-004  0.1942381E+03  0.7818608E-02  0.1154693E+00
          5   -1    0    0  501    0  0.00000000000E+00  0.00000000000E+00  0.21062964805E+03  0.21068207954E+03  0.47000000000E+01 0. -1.
         -5   -1    0    0    0  501 -0.00000000000E+00 -0.00000000000E+00 -0.18630816525E+03  0.18636743932E+03  0.47000000000E+01 0.  1.
          6    1    1    2  502    0 -0.25121133702E+02 -0.86679622710E+02 -0.27101866759E+02  0.19611970715E+03  0.17200000000E+03 0.  1.
         -6    1    1    2    0  502  0.25121133702E+02  0.86679622710E+02  0.51423349563E+02  0.20092981171E+03  0.17200000000E+03 0. -1.
</event>
<event>
 4    1 -0.6384999E-004  0.1803961E+03  0.7818608E-02  0.1167420E+00
         -5   -1    0    0    0  501 -0.00000000000E+00  0.00000000000E+00  0.15830210771E+04  0.15830280542E+04  0.47000000000E+01 0.  1.
          5   -1    0    0  501    0  0.00000000000E+00 -0.00000000000E+00 -0.75997059011E+02  0.76142254881E+02  0.47000000000E+01 0. -1.
          6    1    1    2  502    0 -0.49728009809E+01 -0.54166699778E+02  0.44820336251E+02  0.18588066778E+03  0.17200000000E+03 0. -1.
         -6    1    1    2    0  502  0.49728009809E+01  0.54166699778E+02  0.14622036818E+04  0.14732896413E+04  0.17200000000E+03 0.  1.
</event>
<event>
 4    1 -0.6384999E-004  0.1819197E+03  0.7818608E-02  0.1165958E+00
          5   -1    0    0  501    0  0.00000000000E+00  0.00000000000E+00  0.27175443556E+03  0.27179507584E+03  0.47000000000E+01 0. -1.
         -5   -1    0    0    0  501 -0.00000000000E+00 -0.00000000000E+00 -0.12214719279E+03  0.12223758304E+03  0.47000000000E+01 0.  1.
          6    1    1    2  502    0  0.56417875891E+02 -0.18105257281E+02  0.86892583947E+02  0.20160629506E+03  0.17200000000E+03 0. -1.
         -6    1    1    2    0  502 -0.56417875891E+02  0.18105257281E+02  0.62714658824E+02  0.19242636382E+03  0.17200000000E+03 0. -1.
</event>
<event>
 4    1 -0.6384999E-004  0.1805648E+03  0.7818608E-02  0.1167258E+00
         -5   -1    0    0    0  501 -0.00000000000E+00  0.00000000000E+00  0.92136944579E+03  0.92138143330E+03  0.47000000000E+01 0.  1.
          5   -1    0    0  501    0  0.00000000000E+00 -0.00000000000E+00 -0.36740712545E+02  0.37040112828E+02  0.47000000000E+01 0. -1.
          6    1    1    2  502    0  0.19923481633E+02 -0.51212192433E+02  0.34516705262E+03  0.38954322994E+03  0.17200000000E+03 0.  1.
         -6    1    1    2    0  502 -0.19923481633E+02  0.51212192433E+02  0.53946168062E+03  0.56887831619E+03  0.17200000000E+03 0.  1.
</event>
<event>
 4    1 -0.6384999E-004  0.2059706E+03  0.7818608E-02  0.1144797E+00
         -5   -1    0    0    0  501 -0.00000000000E+00  0.00000000000E+00  0.25364949913E+03  0.25369303974E+03  0.47000000000E+01 0.  1.
          5   -1    0    0  501    0  0.00000000000E+00 -0.00000000000E+00 -0.17504606959E+03  0.17510915590E+03  0.47000000000E+01 0. -1.
          6    1    1    2  502    0  0.67156311100E+02  0.91268303976E+02 -0.61829053583E+01  0.20606334402E+03  0.17200000000E+03 0. -1.
         -6    1    1    2    0  502 -0.67156311100E+02 -0.91268303976E+02  0.84786334901E+02  0.22273885161E+03  0.17200000000E+03 0.  1.
</event>
<event>
 4    1 -0.6384999E-004  0.2581832E+03  0.7818608E-02  0.1108240E+00
         -5   -1    0    0    0  501 -0.00000000000E+00  0.00000000000E+00  0.35730942037E+03  0.35734033062E+03  0.47000000000E+01 0.  1.
          5   -1    0    0  501    0  0.00000000000E+00 -0.00000000000E+00 -0.18942601685E+03  0.18948431561E+03  0.47000000000E+01 0. -1.
          6    1    1    2  502    0  0.17412689224E+03  0.82185207973E+02  0.11798176003E+03  0.28386313376E+03  0.17200000000E+03 0.  1.
         -6    1    1    2    0  502 -0.17412689224E+03 -0.82185207973E+02  0.49901643495E+02  0.26296151246E+03  0.17200000000E+03 0. -1.
</event>
<event>
 4    1 -0.6384999E-004  0.2287486E+03  0.7818608E-02  0.1127524E+00
          5   -1    0    0  501    0  0.00000000000E+00  0.00000000000E+00  0.24882363671E+03  0.24886802162E+03  0.47000000000E+01 0. -1.
         -5   -1    0    0    0  501 -0.00000000000E+00 -0.00000000000E+00 -0.25891675581E+03  0.25895941080E+03  0.47000000000E+01 0.  1.
          6    1    1    2  502    0  0.13997708919E+03 -0.56110079501E+02  0.10506961017E+03  0.25172514674E+03  0.17200000000E+03 0. -1.
         -6    1    1    2    0  502 -0.13997708919E+03  0.56110079501E+02 -0.11516272927E+03  0.25610228568E+03  0.17200000000E+03 0.  1.
</event>
<event>
 4    1 -0.6384999E-004  0.1986740E+03  0.7818608E-02  0.1150863E+00
         -5   -1    0    0    0  501 -0.00000000000E+00  0.00000000000E+00  0.89902080449E+03  0.89903309000E+03  0.47000000000E+01 0.  1.
          5   -1    0    0  501    0  0.00000000000E+00 -0.00000000000E+00 -0.10220151300E+03  0.10230952673E+03  0.47000000000E+01 0. -1.
          6    1    1    2  502    0 -0.12764020569E+02 -0.98612645543E+02  0.20182244709E+02  0.19969651245E+03  0.17200000000E+03 0. -1.
         -6    1    1    2    0  502  0.12764020569E+02  0.98612645543E+02  0.77663704678E+03  0.80164610428E+03  0.17200000000E+03 0.  1.
</event>
<event>
 4    1 -0.6384999E-004  0.3020880E+03  0.7818608E-02  0.1084201E+00
          5   -1    0    0  501    0  0.00000000000E+00  0.00000000000E+00  0.42922934126E+03  0.42925507265E+03  0.47000000000E+01 0. -1.
         -5   -1    0    0    0  501 -0.00000000000E+00 -0.00000000000E+00 -0.26363721913E+03  0.26367911049E+03  0.47000000000E+01 0.  1.
          6    1    1    2  502    0  0.16856150194E+03 -0.18237368874E+03  0.23529250944E+03  0.38290952884E+03  0.17200000000E+03 0. -1.
         -6    1    1    2    0  502 -0.16856150194E+03  0.18237368874E+03 -0.69700387307E+02  0.31002465430E+03  0.17200000000E+03 0.  1.
</event>
<event>
 4    1 -0.6384999E-004  0.1861439E+03  0.7818608E-02  0.1161986E+00
         -5   -1    0    0    0  501 -0.00000000000E+00  0.00000000000E+00  0.12500884164E+03  0.12509716419E+03  0.47000000000E+01 0.  1.
          5   -1    0    0  501    0  0.00000000000E+00 -0.00000000000E+00 -0.27750079344E+03  0.27754059227E+03  0.47000000000E+01 0. -1.
          6    1    1    2  502    0 -0.48177532352E+02  0.52387587495E+02 -0.85044370471E+02  0.20465111506E+03  0.17200000000E+03 0. -1.
         -6    1    1    2    0  502  0.48177532352E+02 -0.52387587495E+02 -0.67447581320E+02  0.19798664140E+03  0.17200000000E+03 0. -1.
</event>
<event>
 4    1 -0.6384999E-004  0.6188221E+03  0.7818608E-02  0.9867108E-01
         -5   -1    0    0    0  501 -0.00000000000E+00  0.00000000000E+00  0.13369523369E+04  0.13369605982E+04  0.47000000000E+01 0.  1.
          5   -1    0    0  501    0  0.00000000000E+00 -0.00000000000E+00 -0.51810084961E+03  0.51812216742E+03  0.47000000000E+01 0. -1.
          6    1    1    2  502    0 -0.35652985561E+03  0.47565033954E+03 -0.21083487237E+03  0.65375234367E+03  0.17200000000E+03 0. -1.
         -6    1    1    2    0  502  0.35652985561E+03 -0.47565033954E+03  0.10296863596E+04  0.12013304219E+04  0.17200000000E+03 0.  1.
</event>
<event>
 4    1 -0.6384999E-004  0.2592735E+03  0.7818608E-02  0.1107581E+00
          5   -1    0    0  501    0  0.00000000000E+00  0.00000000000E+00  0.78576798241E+03  0.78578203859E+03  0.47000000000E+01 0. -1.
         -5   -1    0    0    0  501 -0.00000000000E+00 -0.00000000000E+00 -0.96790014098E+02  0.96904059921E+02  0.47000000000E+01 0.  1.
          6    1    1    2  502    0 -0.16553240654E+03  0.10118188451E+03  0.49530978952E+03  0.55906577338E+03  0.17200000000E+03 0. -1.
         -6    1    1    2    0  502  0.16553240654E+03 -0.10118188451E+03  0.19366817879E+03  0.32362032514E+03  0.17200000000E+03 0.  1.
</event>
<event>
 4    1 -0.6384999E-004  0.2660693E+03  0.7818608E-02  0.1103551E+00
         -5   -1    0    0    0  501 -0.00000000000E+00  0.00000000000E+00  0.39422323549E+02  0.39701506193E+02  0.47000000000E+01 0.  1.
          5   -1    0    0  501    0  0.00000000000E+00 -0.00000000000E+00 -0.18216452917E+04  0.18216513549E+04  0.47000000000E+01 0. -1.
          6    1    1    2  502    0  0.95784063219E+02 -0.17898120227E+03 -0.10154280907E+04  0.10497080856E+04  0.17200000000E+03 0. -1.
         -6    1    1    2    0  502 -0.95784063219E+02  0.17898120227E+03 -0.76679487747E+03  0.81164477553E+03  0.17200000000E+03 0.  1.
</event>
<event>
 4    1 -0.6384999E-004  0.5096965E+03  0.7818608E-02  0.1011279E+00
          5   -1    0    0  501    0  0.00000000000E+00  0.00000000000E+00  0.49972426465E+03  0.49974636635E+03  0.47000000000E+01 0. -1.
         -5   -1    0    0    0  501 -0.00000000000E+00 -0.00000000000E+00 -0.23540524049E+04  0.23540570968E+04  0.47000000000E+01 0.  1.
          6    1    1    2  502    0 -0.13941279609E+01 -0.47979639075E+03  0.33236887535E+03  0.60848959685E+03  0.17200000000E+03 0. -1.
         -6    1    1    2    0  502  0.13941279609E+01  0.47979639075E+03 -0.21866970156E+04  0.22453138663E+04  0.17200000000E+03 0.  1.
</event>
<event>
 4    1 -0.6384999E-004  0.1989369E+03  0.7818608E-02  0.1150639E+00
          5   -1    0    0  501    0  0.00000000000E+00  0.00000000000E+00  0.41050538226E+03  0.41053228723E+03  0.47000000000E+01 0. -1.
         -5   -1    0    0    0  501 -0.00000000000E+00 -0.00000000000E+00 -0.97101494810E+02  0.97215175227E+02  0.47000000000E+01 0.  1.
          6    1    1    2  502    0  0.15487646083E+02 -0.98752393891E+02  0.17945525410E+03  0.26791806715E+03  0.17200000000E+03 0. -1.
         -6    1    1    2    0  502 -0.15487646083E+02  0.98752393891E+02  0.13394863334E+03  0.23982939531E+03  0.17200000000E+03 0. -1.
</event>
<event>
 4    1 -0.6384999E-004  0.1846579E+03  0.7818608E-02  0.1163370E+00
          5   -1    0    0  501    0  0.00000000000E+00  0.00000000000E+00  0.30321162966E+03  0.30324805417E+03  0.47000000000E+01 0. -1.
         -5   -1    0    0    0  501 -0.00000000000E+00 -0.00000000000E+00 -0.12309170974E+03  0.12318140690E+03  0.47000000000E+01 0.  1.
          6    1    1    2  502    0 -0.50407592534E+02  0.44425234216E+02  0.15296641598E+03  0.23978584453E+03  0.17200000000E+03 0. -1.
         -6    1    1    2    0  502  0.50407592534E+02 -0.44425234216E+02  0.27153503936E+02  0.18664361654E+03  0.17200000000E+03 0.  1.
</event>
<event>
 4    1 -0.6384999E-004  0.1919070E+03  0.7818608E-02  0.1156752E+00
          5   -1    0    0  501    0  0.00000000000E+00  0.00000000000E+00  0.35598628082E+03  0.35601730595E+03  0.47000000000E+01 0. -1.
         -5   -1    0    0    0  501 -0.00000000000E+00 -0.00000000000E+00 -0.12831384264E+03  0.12839989179E+03  0.47000000000E+01 0.  1.
          6    1    1    2  502    0  0.29213668451E+02 -0.79942962821E+02  0.22058406396E+03  0.29237928279E+03  0.17200000000E+03 0. -1.
         -6    1    1    2    0  502 -0.29213668451E+02  0.79942962821E+02  0.70883742189E+01  0.19203791495E+03  0.17200000000E+03 0.  1.
</event>
<event>
 4    1 -0.6384999E-004  0.2562433E+03  0.7818608E-02  0.1109422E+00
          5   -1    0    0  501    0  0.00000000000E+00  0.00000000000E+00  0.57315368703E+03  0.57317295728E+03  0.47000000000E+01 0. -1.
         -5   -1    0    0    0  501 -0.00000000000E+00 -0.00000000000E+00 -0.14012787198E+03  0.14020667068E+03  0.47000000000E+01 0.  1.
          6    1    1    2  502    0 -0.11623553057E+03  0.15021966553E+03  0.36902226880E+03  0.44926393284E+03  0.17200000000E+03 0. -1.
         -6    1    1    2    0  502  0.11623553057E+03 -0.15021966553E+03  0.64003546261E+02  0.26411569513E+03  0.17200000000E+03 0. -1.
</event>
<event>
 4    1 -0.6384999E-004  0.2355144E+03  0.7818608E-02  0.1122818E+00
         -5   -1    0    0    0  501 -0.00000000000E+00  0.00000000000E+00  0.38702595658E+03  0.38705449367E+03  0.47000000000E+01 0.  1.
          5   -1    0    0  501    0  0.00000000000E+00 -0.00000000000E+00 -0.19586356083E+03  0.19591994401E+03  0.47000000000E+01 0. -1.
          6    1    1    2  502    0 -0.12286500849E+03 -0.10386144257E+03 -0.55465844874E+02  0.24195757792E+03  0.17200000000E+03 0. -1.
         -6    1    1    2    0  502  0.12286500849E+03  0.10386144257E+03  0.24662824063E+03  0.34101685976E+03  0.17200000000E+03 0.  1.
</event>
<event>
 4    1 -0.6384999E-004  0.2077702E+03  0.7818608E-02  0.1143344E+00
          5   -1    0    0  501    0  0.00000000000E+00  0.00000000000E+00  0.19974731846E+03  0.19980260567E+03  0.47000000000E+01 0. -1.
         -5   -1    0    0    0  501 -0.00000000000E+00 -0.00000000000E+00 -0.30271748299E+03  0.30275396695E+03  0.47000000000E+01 0.  1.
          6    1    1    2  502    0 -0.82106234911E+02 -0.82722567227E+02  0.82979227257E+02  0.22372753316E+03  0.17200000000E+03 0. -1.
         -6    1    1    2    0  502  0.82106234911E+02  0.82722567227E+02 -0.18594939178E+03  0.27882903946E+03  0.17200000000E+03 0.  1.
</event>
<event>
 4    1 -0.6384999E-004  0.2403091E+03  0.7818608E-02  0.1119587E+00
         -5   -1    0    0    0  501 -0.00000000000E+00  0.00000000000E+00  0.13690755548E+04  0.13690836223E+04  0.47000000000E+01 0.  1.
          5   -1    0    0  501    0  0.00000000000E+00 -0.00000000000E+00 -0.56801554328E+02  0.56995671538E+02  0.47000000000E+01 0. -1.
          6    1    1    2  502    0 -0.16369920346E+03 -0.36973399701E+02  0.29341231327E+03  0.37926144950E+03  0.17200000000E+03 0. -1.
         -6    1    1    2    0  502  0.16369920346E+03  0.36973399701E+02  0.10188616872E+04  0.10468178443E+04  0.17200000000E+03 0.  1.
</event>
<event>
 4    1 -0.6384999E-004  0.2131280E+03  0.7818608E-02  0.1139113E+00
         -5   -1    0    0    0  501 -0.00000000000E+00  0.00000000000E+00  0.41677138997E+03  0.41679789046E+03  0.47000000000E+01 0.  1.
          5   -1    0    0  501    0  0.00000000000E+00 -0.00000000000E+00 -0.15863431483E+03  0.15870392510E+03  0.47000000000E+01 0. -1.
          6    1    1    2  502    0  0.22006855459E+02  0.12391629365E+03 -0.31979686196E+02  0.21551392031E+03  0.17200000000E+03 0. -1.
         -6    1    1    2    0  502 -0.22006855459E+02 -0.12391629365E+03  0.29011676133E+03  0.35998789525E+03  0.17200000000E+03 0.  1.
</event>
<event>
 4    1 -0.6384999E-004  0.5543995E+03  0.7818608E-02  0.1000481E+00
          5   -1    0    0  501    0  0.00000000000E+00  0.00000000000E+00  0.17987965095E+03  0.17994104264E+03  0.47000000000E+01 0. -1.
         -5   -1    0    0    0  501 -0.00000000000E+00 -0.00000000000E+00 -0.17094192034E+04  0.17094256646E+04  0.47000000000E+01 0.  1.
          6    1    1    2  502    0  0.15999675731E+03 -0.50217109036E+03 -0.78856071981E+03  0.96394334645E+03  0.17200000000E+03 0. -1.
         -6    1    1    2    0  502 -0.15999675731E+03  0.50217109036E+03 -0.74097883261E+03  0.92542336080E+03  0.17200000000E+03 0.  1.
</event>
<event>
 4    1 -0.6384999E-004  0.1778729E+03  0.7818608E-02  0.1169878E+00
          5   -1    0    0  501    0  0.00000000000E+00  0.00000000000E+00  0.93650928683E+03  0.93652108055E+03  0.47000000000E+01 0. -1.
         -5   -1    0    0    0  501 -0.00000000000E+00 -0.00000000000E+00 -0.34801375283E+02  0.35117313701E+02  0.47000000000E+01 0.  1.
          6    1    1    2  502    0  0.44498010626E+02  0.86431603456E+01  0.36132596634E+03  0.40273469073E+03  0.17200000000E+03 0. -1.
         -6    1    1    2    0  502 -0.44498010626E+02 -0.86431603456E+01  0.54038194521E+03  0.56890370352E+03  0.17200000000E+03 0. -1.
</event>
<event>
 4    1 -0.6384999E-004  0.2402621E+03  0.7818608E-02  0.1119618E+00
          5   -1    0    0  501    0  0.00000000000E+00  0.00000000000E+00  0.80921290218E+03  0.80922655113E+03  0.47000000000E+01 0. -1.
         -5   -1    0    0    0  501 -0.00000000000E+00 -0.00000000000E+00 -0.16125780829E+03  0.16132628655E+03  0.47000000000E+01 0.  1.
          6    1    1    2  502    0  0.10429594868E+03  0.13139340523E+03  0.68639936311E+03  0.72723445843E+03  0.17200000000E+03 0. -1.
         -6    1    1    2    0  502 -0.10429594868E+03 -0.13139340523E+03 -0.38444269218E+02  0.24331837926E+03  0.17200000000E+03 0.  1.
</event>
<event>
 4    1 -0.6384999E-004  0.1807941E+03  0.7818608E-02  0.1167037E+00
          5   -1    0    0  501    0  0.00000000000E+00  0.00000000000E+00  0.27000146351E+03  0.27004236760E+03  0.47000000000E+01 0. -1.
         -5   -1    0    0    0  501 -0.00000000000E+00 -0.00000000000E+00 -0.12184774929E+03  0.12193836151E+03  0.47000000000E+01 0.  1.
          6    1    1    2  502    0  0.53134212477E+02 -0.16711537624E+02  0.57402268346E+02  0.18968800815E+03  0.17200000000E+03 0. -1.
         -6    1    1    2    0  502 -0.53134212477E+02  0.16711537624E+02  0.90751445873E+02  0.20229272096E+03  0.17200000000E+03 0. -1.
</event>
<event>
 4    1 -0.6384999E-004  0.1736233E+03  0.7818608E-02  0.1174121E+00
         -5   -1    0    0    0  501 -0.00000000000E+00  0.00000000000E+00  0.33452316696E+03  0.33455618247E+03  0.47000000000E+01 0.  1.
          5   -1    0    0  501    0  0.00000000000E+00 -0.00000000000E+00 -0.95731819097E+02  0.95847124045E+02  0.47000000000E+01 0. -1.
          6    1    1    2  502    0 -0.11836413038E+01  0.23656863469E+02  0.66847071035E+02  0.18604724965E+03  0.17200000000E+03 0. -1.
         -6    1    1    2    0  502  0.11836413038E+01 -0.23656863469E+02  0.17194427683E+03  0.24435605687E+03  0.17200000000E+03 0.  1.
</event>
<event>
 4    1 -0.6384999E-004  0.1951982E+03  0.7818608E-02  0.1153855E+00
          5   -1    0    0  501    0  0.00000000000E+00  0.00000000000E+00  0.39071995583E+03  0.39074822313E+03  0.47000000000E+01 0. -1.
         -5   -1    0    0    0  501 -0.00000000000E+00 -0.00000000000E+00 -0.97622006970E+02  0.97735081955E+02  0.47000000000E+01 0.  1.
          6    1    1    2  502    0 -0.13655536501E+02  0.91279111009E+02  0.13572109936E+03  0.23774475093E+03  0.17200000000E+03 0. -1.
         -6    1    1    2    0  502  0.13655536501E+02 -0.91279111009E+02  0.15737684950E+03  0.25073855416E+03  0.17200000000E+03 0.  1.
</event>
<event>
 4    1 -0.6384999E-004  0.1999864E+03  0.7818608E-02  0.1149750E+00
          5   -1    0    0  501    0  0.00000000000E+00  0.00000000000E+00  0.85501157721E+03  0.85502449507E+03  0.47000000000E+01 0. -1.
         -5   -1    0    0    0  501 -0.00000000000E+00 -0.00000000000E+00 -0.46652367506E+02  0.46888520919E+02  0.47000000000E+01 0.  1.
          6    1    1    2  502    0  0.66106312300E+02 -0.77720768802E+02  0.40972866088E+03  0.45592997047E+03  0.17200000000E+03 0. -1.
         -6    1    1    2    0  502 -0.66106312300E+02  0.77720768802E+02  0.39863054883E+03  0.44598304552E+03  0.17200000000E+03 0. -1.
</event>
<event>
 4    1 -0.6384999E-004  0.2321643E+03  0.7818608E-02  0.1125126E+00
         -5   -1    0    0    0  501 -0.00000000000E+00  0.00000000000E+00  0.85908685543E+03  0.85909971201E+03  0.47000000000E+01 0.  1.
          5   -1    0    0  501    0  0.00000000000E+00 -0.00000000000E+00 -0.85127719882E+02  0.85257367379E+02  0.47000000000E+01 0. -1.
          6    1    1    2  502    0  0.39454739929E+02 -0.15086287913E+03  0.14453018685E+03  0.27347625073E+03  0.17200000000E+03 0.  1.
         -6    1    1    2    0  502 -0.39454739929E+02  0.15086287913E+03  0.62942894870E+03  0.67088082866E+03  0.17200000000E+03 0.  1.
</event>
<event>
 4    1 -0.6384999E-004  0.2398519E+03  0.7818608E-02  0.1119892E+00
         -5   -1    0    0    0  501 -0.00000000000E+00  0.00000000000E+00  0.18199724081E+03  0.18205791843E+03  0.47000000000E+01 0.  1.
          5   -1    0    0  501    0  0.00000000000E+00 -0.00000000000E+00 -0.40634509188E+03  0.40637227230E+03  0.47000000000E+01 0. -1.
          6    1    1    2  502    0 -0.10004955749E+03 -0.13392170646E+03  0.26565524725E+02  0.24131859547E+03  0.17200000000E+03 0. -1.
         -6    1    1    2    0  502  0.10004955749E+03  0.13392170646E+03 -0.25091337579E+03  0.34711159526E+03  0.17200000000E+03 0. -1.
</event>
<event>
 4    1 -0.6384999E-004  0.3086320E+03  0.7818608E-02  0.1081003E+00
         -5   -1    0    0    0  501 -0.00000000000E+00  0.00000000000E+00  0.80305973128E+03  0.80307348481E+03  0.47000000000E+01 0.  1.
          5   -1    0    0  501    0  0.00000000000E+00 -0.00000000000E+00 -0.17736713056E+03  0.17742939160E+03  0.47000000000E+01 0. -1.
          6    1    1    2  502    0  0.14902672066E+03 -0.20847236866E+03  0.30608976416E+02  0.31014609687E+03  0.17200000000E+03 0. -1.
         -6    1    1    2    0  502 -0.14902672066E+03  0.20847236866E+03  0.59508362430E+03  0.67035677954E+03  0.17200000000E+03 0.  1.
</event>
<event>
 4    1 -0.6384999E-004  0.2337587E+03  0.7818608E-02  0.1124022E+00
         -5   -1    0    0    0  501 -0.00000000000E+00  0.00000000000E+00  0.14592147903E+03  0.14599715080E+03  0.47000000000E+01 0.  1.
          5   -1    0    0  501    0  0.00000000000E+00 -0.00000000000E+00 -0.38415649127E+03  0.38418524150E+03  0.47000000000E+01 0. -1.
          6    1    1    2  502    0  0.10582479595E+03  0.11772955608E+03 -0.76622246465E+02  0.24599614726E+03  0.17200000000E+03 0. -1.
         -6    1    1    2    0  502 -0.10582479595E+03 -0.11772955608E+03 -0.16161276578E+03  0.28418624505E+03  0.17200000000E+03 0. -1.
</event>
<event>
 4    1 -0.6384999E-004  0.1949013E+03  0.7818608E-02  0.1154114E+00
         -5   -1    0    0    0  501 -0.00000000000E+00  0.00000000000E+00  0.31888991298E+03  0.31892454688E+03  0.47000000000E+01 0.  1.
          5   -1    0    0  501    0  0.00000000000E+00 -0.00000000000E+00 -0.11918076307E+03  0.11927340142E+03  0.47000000000E+01 0. -1.
          6    1    1    2  502    0  0.91361258451E+02 -0.74589118200E+01  0.10754920371E+03  0.22260580884E+03  0.17200000000E+03 0. -1.
         -6    1    1    2    0  502 -0.91361258451E+02  0.74589118200E+01  0.92159946203E+02  0.21559213946E+03  0.17200000000E+03 0.  1.
</event>
<event>
 4    1 -0.6384999E-004  0.1733729E+03  0.7818608E-02  0.1174375E+00
          5   -1    0    0  501    0  0.00000000000E+00  0.00000000000E+00  0.81207227381E+03  0.81208587470E+03  0.47000000000E+01 0. -1.
         -5   -1    0    0    0  501 -0.00000000000E+00 -0.00000000000E+00 -0.46161684439E+02  0.46400335239E+02  0.47000000000E+01 0.  1.
          6    1    1    2  502    0  0.55020164006E+01  0.21068813872E+02  0.57514498515E+03  0.60070785000E+03  0.17200000000E+03 0. -1.
         -6    1    1    2    0  502 -0.55020164006E+01 -0.21068813872E+02  0.19076560422E+03  0.25777835994E+03  0.17200000000E+03 0.  1.
</event>
<event>
 4    1 -0.6384999E-004  0.1742278E+03  0.7818608E-02  0.1173509E+00
          5   -1    0    0  501    0  0.00000000000E+00  0.00000000000E+00  0.20097878693E+04  0.20097933649E+04  0.47000000000E+01 0. -1.
         -5   -1    0    0    0  501 -0.00000000000E+00 -0.00000000000E+00 -0.21312997482E+02  0.21825074150E+02  0.47000000000E+01 0.  1.
          6    1    1    2  502    0 -0.27764779685E+02  0.67060296914E+00  0.15505521463E+04  0.15603099984E+04  0.17200000000E+03 0. -1.
         -6    1    1    2    0  502  0.27764779685E+02 -0.67060296914E+00  0.43792272545E+03  0.47130844058E+03  0.17200000000E+03 0.  1.
</event>
<event>
 4    1 -0.6384999E-004  0.3638250E+03  0.7818608E-02  0.1057080E+00
         -5   -1    0    0    0  501 -0.00000000000E+00  0.00000000000E+00  0.64862041996E+03  0.64863744819E+03  0.47000000000E+01 0.  1.
          5   -1    0    0  501    0  0.00000000000E+00 -0.00000000000E+00 -0.21193576319E+03  0.21198787163E+03  0.47000000000E+01 0. -1.
          6    1    1    2  502    0 -0.30591502696E+03 -0.95920003901E+02  0.30143634527E+03  0.47247488940E+03  0.17200000000E+03 0. -1.
         -6    1    1    2    0  502  0.30591502696E+03  0.95920003901E+02  0.13524831150E+03  0.38815043042E+03  0.17200000000E+03 0.  1.
</event>
<event>
 4    1 -0.6384999E-004  0.2205132E+03  0.7818608E-02  0.1133501E+00
          5   -1    0    0  501    0  0.00000000000E+00  0.00000000000E+00  0.68255858237E+02  0.68417484488E+02  0.47000000000E+01 0. -1.
         -5   -1    0    0    0  501 -0.00000000000E+00 -0.00000000000E+00 -0.71895435612E+03  0.71896971854E+03  0.47000000000E+01 0.  1.
          6    1    1    2  502    0 -0.13788297425E+03 -0.55093083951E+01 -0.36570860452E+03  0.42704666078E+03  0.17200000000E+03 0. -1.
         -6    1    1    2    0  502  0.13788297425E+03  0.55093083951E+01 -0.28498989337E+03  0.36034054225E+03  0.17200000000E+03 0.  1.
</event>
<event>
 4    1 -0.6384999E-004  0.2490647E+03  0.7818608E-02  0.1113897E+00
          5   -1    0    0  501    0  0.00000000000E+00  0.00000000000E+00  0.26337520399E+03  0.26341713702E+03  0.47000000000E+01 0. -1.
         -5   -1    0    0    0  501 -0.00000000000E+00 -0.00000000000E+00 -0.54089380094E+03  0.54091422046E+03  0.47000000000E+01 0.  1.
          6    1    1    2  502    0  0.18005516188E+03 -0.54201730603E+01  0.16343478895E+03  0.29789959690E+03  0.17200000000E+03 0. -1.
         -6    1    1    2    0  502 -0.18005516188E+03  0.54201730603E+01 -0.44095338590E+03  0.50643176058E+03  0.17200000000E+03 0.  1.
</event>
<event>
 4    1 -0.6384999E-004  0.1866559E+03  0.7818608E-02  0.1161513E+00
         -5   -1    0    0    0  501 -0.00000000000E+00  0.00000000000E+00  0.45928611643E+02  0.46168467241E+02  0.47000000000E+01 0.  1.
          5   -1    0    0  501    0  0.00000000000E+00 -0.00000000000E+00 -0.13723824056E+04  0.13723904536E+04  0.47000000000E+01 0. -1.
          6    1    1    2  502    0  0.27522886943E+01  0.72448939862E+02 -0.11383871376E+04  0.11535881844E+04  0.17200000000E+03 0. -1.
         -6    1    1    2    0  502 -0.27522886943E+01 -0.72448939862E+02 -0.18806665632E+03  0.26497073650E+03  0.17200000000E+03 0.  1.
</event>
<event>
 4    1 -0.6384999E-004  0.1721771E+03  0.7818608E-02  0.1175596E+00
          5   -1    0    0  501    0  0.00000000000E+00  0.00000000000E+00  0.48113499524E+03  0.48115795082E+03  0.47000000000E+01 0. -1.
         -5   -1    0    0    0  501 -0.00000000000E+00 -0.00000000000E+00 -0.23586023474E+03  0.23590705867E+03  0.47000000000E+01 0.  1.
          6    1    1    2  502    0 -0.77706114843E+01  0.76591437468E+00 -0.18553873328E+03  0.25311971590E+03  0.17200000000E+03 0.  1.
         -6    1    1    2    0  502  0.77706114843E+01 -0.76591437468E+00  0.43081349378E+03  0.46394529360E+03  0.17200000000E+03 0. -1.
</event>
<event>
 4    1 -0.6384999E-004  0.3171065E+03  0.7818608E-02  0.1076989E+00
          5   -1    0    0  501    0  0.00000000000E+00  0.00000000000E+00  0.64825546203E+02  0.64995703246E+02  0.47000000000E+01 0. -1.
         -5   -1    0    0    0  501 -0.00000000000E+00 -0.00000000000E+00 -0.16771534826E+04  0.16771600681E+04  0.47000000000E+01 0.  1.
          6    1    1    2  502    0  0.23578839961E+03 -0.12400140911E+03 -0.56536910905E+03  0.64822738936E+03  0.17200000000E+03 0. -1.
         -6    1    1    2    0  502 -0.23578839961E+03  0.12400140911E+03 -0.10469588273E+04  0.10939283820E+04  0.17200000000E+03 0.  1.
</event>
<event>
 4    1 -0.6384999E-004  0.1919098E+03  0.7818608E-02  0.1156750E+00
         -5   -1    0    0    0  501 -0.00000000000E+00  0.00000000000E+00  0.23219053633E+03  0.23223810015E+03  0.47000000000E+01 0.  1.
          5   -1    0    0  501    0  0.00000000000E+00 -0.00000000000E+00 -0.20907162371E+03  0.20912444583E+03  0.47000000000E+01 0. -1.
          6    1    1    2  502    0 -0.78014831666E+02  0.34044655687E+02 -0.96928069752E+02  0.21499861220E+03  0.17200000000E+03 0. -1.
         -6    1    1    2    0  502  0.78014831666E+02 -0.34044655687E+02  0.12004698237E+03  0.22636393378E+03  0.17200000000E+03 0.  1.
</event>
<event>
 4    1 -0.6384999E-004  0.2463026E+03  0.7818608E-02  0.1115664E+00
         -5   -1    0    0    0  501 -0.00000000000E+00  0.00000000000E+00  0.27023479243E+03  0.27027566121E+03  0.47000000000E+01 0.  1.
          5   -1    0    0  501    0  0.00000000000E+00 -0.00000000000E+00 -0.39981696328E+03  0.39984458746E+03  0.47000000000E+01 0. -1.
          6    1    1    2  502    0 -0.17182058655E+03 -0.39479830545E+02 -0.28670048469E+03  0.37797108210E+03  0.17200000000E+03 0. -1.
         -6    1    1    2    0  502  0.17182058655E+03  0.39479830545E+02  0.15711831384E+03  0.29214916657E+03  0.17200000000E+03 0.  1.
</event>
<event>
 4    1 -0.6384999E-004  0.1761277E+03  0.7818608E-02  0.1171604E+00
         -5   -1    0    0    0  501 -0.00000000000E+00  0.00000000000E+00  0.54667232339E+02  0.54868900951E+02  0.47000000000E+01 0.  1.
          5   -1    0    0  501    0  0.00000000000E+00 -0.00000000000E+00 -0.58979148476E+03  0.58981021142E+03  0.47000000000E+01 0. -1.
          6    1    1    2  502    0 -0.81708563111E+01 -0.37016302264E+02 -0.20309928645E+03  0.26883134059E+03  0.17200000000E+03 0.  1.
         -6    1    1    2    0  502  0.81708563111E+01  0.37016302264E+02 -0.33202496598E+03  0.37584777179E+03  0.17200000000E+03 0. -1.
</event>
<event>
 4    1 -0.6384999E-004  0.2574428E+03  0.7818608E-02  0.1108689E+00
         -5   -1    0    0    0  501 -0.00000000000E+00  0.00000000000E+00  0.30873174235E+03  0.30876751567E+03  0.47000000000E+01 0.  1.
          5   -1    0    0  501    0  0.00000000000E+00 -0.00000000000E+00 -0.21935276162E+03  0.21940310853E+03  0.47000000000E+01 0. -1.
          6    1    1    2  502    0 -0.65401016759E+02  0.18004300686E+03  0.58259298581E+01  0.25750867708E+03  0.17200000000E+03 0. -1.
         -6    1    1    2    0  502  0.65401016759E+02 -0.18004300686E+03  0.83553050870E+02  0.27066194712E+03  0.17200000000E+03 0.  1.
</event>
<event>
 4    1 -0.6384999E-004  0.1894042E+03  0.7818608E-02  0.1159000E+00
         -5   -1    0    0    0  501 -0.00000000000E+00  0.00000000000E+00  0.58750091383E+02  0.58937791251E+02  0.47000000000E+01 0.  1.
          5   -1    0    0  501    0  0.00000000000E+00 -0.00000000000E+00 -0.61566143345E+03  0.61567937324E+03  0.47000000000E+01 0. -1.
          6    1    1    2  502    0  0.75813051195E+02  0.23288042965E+02 -0.31233383146E+03  0.36527575057E+03  0.17200000000E+03 0.  1.
         -6    1    1    2    0  502 -0.75813051195E+02 -0.23288042965E+02 -0.24457751060E+03  0.30934141393E+03  0.17200000000E+03 0.  1.
</event>
<event>
 4    1 -0.6384999E-004  0.1765613E+03  0.7818608E-02  0.1171173E+00
          5   -1    0    0  501    0  0.00000000000E+00  0.00000000000E+00  0.70327790118E+02  0.70484665445E+02  0.47000000000E+01 0. -1.
         -5   -1    0    0    0  501 -0.00000000000E+00 -0.00000000000E+00 -0.68590953625E+03  0.68592563877E+03  0.47000000000E+01 0.  1.
          6    1    1    2  502    0 -0.18307492425E+02  0.35422285046E+02 -0.82566639023E+02  0.19491319205E+03  0.17200000000E+03 0. -1.
         -6    1    1    2    0  502  0.18307492425E+02 -0.35422285046E+02 -0.53301510711E+03  0.56149711216E+03  0.17200000000E+03 0.  1.
</event>
<event>
 4    1 -0.6384999E-004  0.2190087E+03  0.7818608E-02  0.1134624E+00
         -5   -1    0    0    0  501 -0.00000000000E+00  0.00000000000E+00  0.16502059186E+03  0.16508750933E+03  0.47000000000E+01 0.  1.
          5   -1    0    0  501    0  0.00000000000E+00 -0.00000000000E+00 -0.43519393583E+03  0.43521931458E+03  0.47000000000E+01 0. -1.
          6    1    1    2  502    0 -0.11520588023E+03 -0.71473070861E+02 -0.30813042022E+03  0.37803326648E+03  0.17200000000E+03 0. -1.
         -6    1    1    2    0  502  0.11520588023E+03  0.71473070861E+02  0.37957076242E+02  0.22227355744E+03  0.17200000000E+03 0.  1.
</event>
<event>
 4    1 -0.6384999E-004  0.2460032E+03  0.7818608E-02  0.1115857E+00
         -5   -1    0    0    0  501 -0.00000000000E+00  0.00000000000E+00  0.29392507731E+03  0.29396265251E+03  0.47000000000E+01 0.  1.
          5   -1    0    0  501    0  0.00000000000E+00 -0.00000000000E+00 -0.56172026752E+03  0.56173992998E+03  0.47000000000E+01 0. -1.
          6    1    1    2  502    0  0.16788379325E+03  0.52427328101E+02 -0.47443910384E+03  0.53442497698E+03  0.17200000000E+03 0. -1.
         -6    1    1    2    0  502 -0.16788379325E+03 -0.52427328101E+02  0.20664391363E+03  0.32127760552E+03  0.17200000000E+03 0.  1.
</event>
<event>
 4    1 -0.6384999E-004  0.2099656E+03  0.7818608E-02  0.1141593E+00
         -5   -1    0    0    0  501 -0.00000000000E+00  0.00000000000E+00  0.11858174652E+04  0.11858267794E+04  0.47000000000E+01 0.  1.
          5   -1    0    0  501    0  0.00000000000E+00 -0.00000000000E+00 -0.46225173141E+02  0.46463497844E+02  0.47000000000E+01 0. -1.
          6    1    1    2  502    0 -0.99854271370E+02  0.67310205902E+02  0.29565226962E+03  0.36262350153E+03  0.17200000000E+03 0. -1.
         -6    1    1    2    0  502  0.99854271370E+02 -0.67310205902E+02  0.84394002242E+03  0.86966677571E+03  0.17200000000E+03 0.  1.
</event>
<event>
 4    1 -0.6384999E-004  0.1816534E+03  0.7818608E-02  0.1166212E+00
          5   -1    0    0  501    0  0.00000000000E+00  0.00000000000E+00  0.27594669757E+03  0.27598672051E+03  0.47000000000E+01 0. -1.
         -5   -1    0    0    0  501 -0.00000000000E+00 -0.00000000000E+00 -0.12014056452E+03  0.12023246335E+03  0.47000000000E+01 0.  1.
          6    1    1    2  502    0 -0.32629153011E+02 -0.48469492986E+02  0.63288063919E+02  0.19236250261E+03  0.17200000000E+03 0. -1.
         -6    1    1    2    0  502  0.32629153011E+02  0.48469492986E+02  0.92518069125E+02  0.20385668125E+03  0.17200000000E+03 0. -1.
</event>
<event>
 4    1 -0.6384999E-004  0.1844925E+03  0.7818608E-02  0.1163525E+00
          5   -1    0    0  501    0  0.00000000000E+00  0.00000000000E+00  0.97133616076E+02  0.97247258944E+02  0.47000000000E+01 0. -1.
         -5   -1    0    0    0  501 -0.00000000000E+00 -0.00000000000E+00 -0.49733101634E+03  0.49735322439E+03  0.47000000000E+01 0.  1.
          6    1    1    2  502    0  0.65559184433E+02  0.12468996236E+02 -0.38352876665E+02  0.18843679492E+03  0.17200000000E+03 0. -1.
         -6    1    1    2    0  502 -0.65559184433E+02 -0.12468996236E+02 -0.36184452360E+03  0.40616368841E+03  0.17200000000E+03 0.  1.
</event>
<event>
 4    1 -0.6384999E-004  0.2287067E+03  0.7818608E-02  0.1127553E+00
         -5   -1    0    0    0  501 -0.00000000000E+00  0.00000000000E+00  0.35175955466E+03  0.35179095255E+03  0.47000000000E+01 0.  1.
          5   -1    0    0  501    0  0.00000000000E+00 -0.00000000000E+00 -0.17271013337E+03  0.17277407261E+03  0.47000000000E+01 0. -1.
          6    1    1    2  502    0  0.16439383491E+02  0.14984154710E+03 -0.83922164296E+01  0.22886059483E+03  0.17200000000E+03 0. -1.
         -6    1    1    2    0  502 -0.16439383491E+02 -0.14984154710E+03  0.18744163773E+03  0.29570443034E+03  0.17200000000E+03 0.  1.
</event>
<event>
 4    1 -0.6384999E-004  0.2019457E+03  0.7818608E-02  0.1148108E+00
          5   -1    0    0  501    0  0.00000000000E+00  0.00000000000E+00  0.66393359441E+03  0.66395022991E+03  0.47000000000E+01 0. -1.
         -5   -1    0    0    0  501 -0.00000000000E+00 -0.00000000000E+00 -0.62757900195E+02  0.62933647892E+02  0.47000000000E+01 0.  1.
          6    1    1    2  502    0 -0.64822565930E+02 -0.83642639060E+02  0.24561339206E+03  0.31797483310E+03  0.17200000000E+03 0. -1.
         -6    1    1    2    0  502  0.64822565930E+02  0.83642639060E+02  0.35556230216E+03  0.40890904470E+03  0.17200000000E+03 0.  1.
</event>
<event>
 4    1 -0.6384999E-004  0.1872664E+03  0.7818608E-02  0.1160950E+00
          5   -1    0    0  501    0  0.00000000000E+00  0.00000000000E+00  0.16699235630E+03  0.16705848396E+03  0.47000000000E+01 0. -1.
         -5   -1    0    0    0  501 -0.00000000000E+00 -0.00000000000E+00 -0.40297355986E+03  0.40300096767E+03  0.47000000000E+01 0.  1.
          6    1    1    2  502    0 -0.36974841530E+02 -0.64168347082E+02 -0.31527474419E+03  0.36669725933E+03  0.17200000000E+03 0.  1.
         -6    1    1    2    0  502  0.36974841530E+02  0.64168347082E+02  0.79293540634E+02  0.20336219231E+03  0.17200000000E+03 0. -1.
</event>
<event>
 4    1 -0.6384999E-004  0.4389163E+03  0.7818608E-02  0.1031080E+00
          5   -1    0    0  501    0  0.00000000000E+00  0.00000000000E+00  0.55827282012E+03  0.55829260400E+03  0.47000000000E+01 0. -1.
         -5   -1    0    0    0  501 -0.00000000000E+00 -0.00000000000E+00 -0.51539616828E+03  0.51541759795E+03  0.47000000000E+01 0.  1.
          6    1    1    2  502    0 -0.38045374045E+03  0.13534570887E+03 -0.28720093331E+03  0.52453015702E+03  0.17200000000E+03 0. -1.
         -6    1    1    2    0  502  0.38045374045E+03 -0.13534570887E+03  0.33007758514E+03  0.54918004493E+03  0.17200000000E+03 0.  1.
</event>
<event>
 4    1 -0.6384999E-004  0.1866867E+03  0.7818608E-02  0.1161484E+00
         -5   -1    0    0    0  501 -0.00000000000E+00  0.00000000000E+00  0.48175956292E+02  0.48404677095E+02  0.47000000000E+01 0.  1.
          5   -1    0    0  501    0  0.00000000000E+00 -0.00000000000E+00 -0.76784421622E+03  0.76785860052E+03  0.47000000000E+01 0. -1.
          6    1    1    2  502    0  0.72441642648E+02  0.44875327384E+01 -0.25956097042E+03  0.31972461104E+03  0.17200000000E+03 0.  1.
         -6    1    1    2    0  502 -0.72441642648E+02 -0.44875327384E+01 -0.46010728951E+03  0.49653866657E+03  0.17200000000E+03 0. -1.
</event>
<event>
 4    1 -0.6384999E-004  0.2251277E+03  0.7818608E-02  0.1130117E+00
          5   -1    0    0  501    0  0.00000000000E+00  0.00000000000E+00  0.86676416261E+02  0.86803750702E+02  0.47000000000E+01 0. -1.
         -5   -1    0    0    0  501 -0.00000000000E+00 -0.00000000000E+00 -0.13643733255E+04  0.13643814208E+04  0.47000000000E+01 0.  1.
          6    1    1    2  502    0 -0.72007745305E+02 -0.12614825410E+03 -0.90181574318E+02  0.24251848124E+03  0.17200000000E+03 0. -1.
         -6    1    1    2    0  502  0.72007745305E+02  0.12614825410E+03 -0.11875153350E+04  0.12086666903E+04  0.17200000000E+03 0.  1.
</event>
<event>
 4    1 -0.6384999E-004  0.3146964E+03  0.7818608E-02  0.1078116E+00
          5   -1    0    0  501    0  0.00000000000E+00  0.00000000000E+00  0.76373294458E+03  0.76374740630E+03  0.47000000000E+01 0. -1.
         -5   -1    0    0    0  501 -0.00000000000E+00 -0.00000000000E+00 -0.13008041862E+03  0.13016529994E+03  0.47000000000E+01 0.  1.
          6    1    1    2  502    0  0.24177578781E+03  0.10485353401E+03  0.29002771739E+03  0.42796012901E+03  0.17200000000E+03 0. -1.
         -6    1    1    2    0  502 -0.24177578781E+03 -0.10485353401E+03  0.34362480857E+03  0.46595257723E+03  0.17200000000E+03 0.  1.
</event>
<event>
 4    1 -0.6384999E-004  0.2049671E+03  0.7818608E-02  0.1145615E+00
         -5   -1    0    0    0  501 -0.00000000000E+00  0.00000000000E+00  0.18030468522E+03  0.18036593224E+03  0.47000000000E+01 0.  1.
          5   -1    0    0  501    0  0.00000000000E+00 -0.00000000000E+00 -0.23291287718E+03  0.23296029352E+03  0.47000000000E+01 0. -1.
          6    1    1    2  502    0 -0.88067317416E+02 -0.68349500787E+02 -0.28820580742E+02  0.20698341124E+03  0.17200000000E+03 0. -1.
         -6    1    1    2    0  502  0.88067317416E+02  0.68349500787E+02 -0.23787611217E+02  0.20634281452E+03  0.17200000000E+03 0.  1.
</event>
<event>
 4    1 -0.6384999E-004  0.1938119E+03  0.7818608E-02  0.1155067E+00
         -5   -1    0    0    0  501 -0.00000000000E+00  0.00000000000E+00  0.11316428932E+03  0.11326184873E+03  0.47000000000E+01 0.  1.
          5   -1    0    0  501    0  0.00000000000E+00 -0.00000000000E+00 -0.33422825788E+03  0.33426130253E+03  0.47000000000E+01 0. -1.
          6    1    1    2  502    0  0.83935134938E+02 -0.30560731872E+02 -0.13007914635E+03  0.23341732910E+03  0.17200000000E+03 0. -1.
         -6    1    1    2    0  502 -0.83935134938E+02  0.30560731872E+02 -0.90984822211E+02  0.21410582216E+03  0.17200000000E+03 0.  1.
</event>
<event>
 4    1 -0.6384999E-004  0.1854125E+03  0.7818608E-02  0.1162665E+00
          5   -1    0    0  501    0  0.00000000000E+00  0.00000000000E+00  0.56761246014E+03  0.56763191851E+03  0.47000000000E+01 0. -1.
         -5   -1    0    0    0  501 -0.00000000000E+00 -0.00000000000E+00 -0.68656775350E+02  0.68817460004E+02  0.47000000000E+01 0.  1.
          6    1    1    2  502    0 -0.69041736850E+02  0.52001395853E+01  0.35932061620E+03  0.40433786380E+03  0.17200000000E+03 0. -1.
         -6    1    1    2    0  502  0.69041736850E+02 -0.52001395853E+01  0.13963506859E+03  0.23211151471E+03  0.17200000000E+03 0.  1.
</event>
<event>
 4    1 -0.6384999E-004  0.2226447E+03  0.7818608E-02  0.1131927E+00
          5   -1    0    0  501    0  0.00000000000E+00  0.00000000000E+00  0.39330587633E+03  0.39333395779E+03  0.47000000000E+01 0. -1.
         -5   -1    0    0    0  501 -0.00000000000E+00 -0.00000000000E+00 -0.13109777324E+03  0.13118199629E+03  0.47000000000E+01 0.  1.
          6    1    1    2  502    0 -0.46292849868E+01 -0.14129843316E+03  0.18300190789E+03  0.28820197047E+03  0.17200000000E+03 0. -1.
         -6    1    1    2    0  502  0.46292849868E+01  0.14129843316E+03  0.79206195191E+02  0.23631398361E+03  0.17200000000E+03 0. -1.
</event>
<event>
 4    1 -0.6384999E-004  0.2589586E+03  0.7818608E-02  0.1107771E+00
         -5   -1    0    0    0  501 -0.00000000000E+00  0.00000000000E+00  0.80156758061E+03  0.80158135974E+03  0.47000000000E+01 0.  1.
          5   -1    0    0  501    0  0.00000000000E+00 -0.00000000000E+00 -0.84837790769E+02  0.84967880653E+02  0.47000000000E+01 0. -1.
          6    1    1    2  502    0  0.12031126787E+02 -0.19321177789E+03  0.30443659318E+03  0.39967634205E+03  0.17200000000E+03 0.  1.
         -6    1    1    2    0  502 -0.12031126787E+02  0.19321177789E+03  0.41229319666E+03  0.48687289835E+03  0.17200000000E+03 0. -1.
</event>
<event>
 4    1 -0.6384999E-004  0.2327175E+03  0.7818608E-02  0.1124742E+00
         -5   -1    0    0    0  501 -0.00000000000E+00  0.00000000000E+00  0.20436062510E+03  0.20441466457E+03  0.47000000000E+01 0.  1.
          5   -1    0    0  501    0  0.00000000000E+00 -0.00000000000E+00 -0.30612230677E+03  0.30615838500E+03  0.47000000000E+01 0. -1.
          6    1    1    2  502    0  0.11066705575E+03  0.11102353532E+03 -0.14454750113E+03  0.27395511075E+03  0.17200000000E+03 0. -1.
         -6    1    1    2    0  502 -0.11066705575E+03 -0.11102353532E+03  0.42785819456E+02  0.23661793882E+03  0.17200000000E+03 0. -1.
</event>
<event>
 4    1 -0.6384999E-004  0.2096466E+03  0.7818608E-02  0.1141846E+00
          5   -1    0    0  501    0  0.00000000000E+00  0.00000000000E+00  0.98738865091E+02  0.98850662514E+02  0.47000000000E+01 0. -1.
         -5   -1    0    0    0  501 -0.00000000000E+00 -0.00000000000E+00 -0.44590754833E+03  0.44593231735E+03  0.47000000000E+01 0.  1.
          6    1    1    2  502    0  0.64713363955E+02 -0.10089533681E+03 -0.15973504255E+03  0.26356587845E+03  0.17200000000E+03 0.  1.
         -6    1    1    2    0  502 -0.64713363955E+02  0.10089533681E+03 -0.18743364068E+03  0.28121710141E+03  0.17200000000E+03 0.  1.
</event>
<event>
 4    1 -0.6384999E-004  0.1884880E+03  0.7818608E-02  0.1159832E+00
         -5   -1    0    0    0  501 -0.00000000000E+00  0.00000000000E+00  0.17762679458E+03  0.17768896463E+03  0.47000000000E+01 0.  1.
          5   -1    0    0  501    0  0.00000000000E+00 -0.00000000000E+00 -0.25447062495E+03  0.25451402508E+03  0.47000000000E+01 0. -1.
          6    1    1    2  502    0  0.28625425458E+02 -0.71584240491E+02  0.61640061020E+02  0.19831090639E+03  0.17200000000E+03 0.  1.
         -6    1    1    2    0  502 -0.28625425458E+02  0.71584240491E+02 -0.13848389139E+03  0.23389208333E+03  0.17200000000E+03 0. -1.
</event>
<event>
 4    1 -0.6384999E-004  0.1763811E+03  0.7818608E-02  0.1171352E+00
         -5   -1    0    0    0  501 -0.00000000000E+00  0.00000000000E+00  0.58157838884E+03  0.58159737995E+03  0.47000000000E+01 0.  1.
          5   -1    0    0  501    0  0.00000000000E+00 -0.00000000000E+00 -0.53369898353E+02  0.53576450519E+02  0.47000000000E+01 0. -1.
          6    1    1    2  502    0 -0.23043808031E+02  0.31547918901E+02  0.26351225133E+03  0.31709461502E+03  0.17200000000E+03 0. -1.
         -6    1    1    2    0  502  0.23043808031E+02 -0.31547918901E+02  0.26469623916E+03  0.31807921545E+03  0.17200000000E+03 0.  1.
</event>
<event>
 4    1 -0.6384999E-004  0.2073080E+03  0.7818608E-02  0.1143716E+00
         -5   -1    0    0    0  501 -0.00000000000E+00  0.00000000000E+00  0.96019308960E+02  0.96134269089E+02  0.47000000000E+01 0.  1.
          5   -1    0    0  501    0  0.00000000000E+00 -0.00000000000E+00 -0.48191734472E+03  0.48194026304E+03  0.47000000000E+01 0. -1.
          6    1    1    2  502    0 -0.10853095697E+03 -0.40170268505E+02 -0.27052965529E+03  0.34082680864E+03  0.17200000000E+03 0. -1.
         -6    1    1    2    0  502  0.10853095697E+03  0.40170268505E+02 -0.11536838046E+03  0.23724772349E+03  0.17200000000E+03 0. -1.
</event>
<event>
 4    1 -0.6384999E-004  0.2003260E+03  0.7818608E-02  0.1149464E+00
         -5   -1    0    0    0  501 -0.00000000000E+00  0.00000000000E+00  0.44511725525E+03  0.44514206825E+03  0.47000000000E+01 0.  1.
          5   -1    0    0  501    0  0.00000000000E+00 -0.00000000000E+00 -0.18512196079E+03  0.18518161455E+03  0.47000000000E+01 0. -1.
          6    1    1    2  502    0  0.10242315017E+03 -0.74834853498E+01 -0.95765250646E+02  0.22203938271E+03  0.17200000000E+03 0. -1.
         -6    1    1    2    0  502 -0.10242315017E+03  0.74834853498E+01  0.35576054510E+03  0.40828430009E+03  0.17200000000E+03 0.  1.
</event>
<event>
 4    1 -0.6384999E-004  0.1934966E+03  0.7818608E-02  0.1155345E+00
         -5   -1    0    0    0  501 -0.00000000000E+00  0.00000000000E+00  0.21096441016E+04  0.21096493371E+04  0.47000000000E+01 0.  1.
          5   -1    0    0  501    0  0.00000000000E+00 -0.00000000000E+00 -0.17859040003E+02  0.18467141355E+02  0.47000000000E+01 0. -1.
          6    1    1    2  502    0  0.57912741977E+02  0.67104858092E+02  0.88394985056E+03  0.90488026057E+03  0.17200000000E+03 0. -1.
         -6    1    1    2    0  502 -0.57912741977E+02 -0.67104858092E+02  0.12078352110E+04  0.12232362178E+04  0.17200000000E+03 0.  1.
</event>
<event>
 4    1 -0.6384999E-004  0.2603672E+03  0.7818608E-02  0.1106923E+00
          5   -1    0    0  501    0  0.00000000000E+00  0.00000000000E+00  0.42918014080E+03  0.42920587514E+03  0.47000000000E+01 0. -1.
         -5   -1    0    0    0  501 -0.00000000000E+00 -0.00000000000E+00 -0.17192741571E+03  0.17199164594E+03  0.47000000000E+01 0.  1.
          6    1    1    2  502    0 -0.18962708724E+03 -0.47419784969E+02  0.21449819180E+03  0.33734335996E+03  0.17200000000E+03 0.  1.
         -6    1    1    2    0  502  0.18962708724E+03  0.47419784969E+02  0.42754533289E+02  0.26385416112E+03  0.17200000000E+03 0.  1.
</event>
<event>
 4    1 -0.6384999E-004  0.2579330E+03  0.7818608E-02  0.1108392E+00
          5   -1    0    0  501    0  0.00000000000E+00  0.00000000000E+00  0.24885599626E+03  0.24890037540E+03  0.47000000000E+01 0. -1.
         -5   -1    0    0    0  501 -0.00000000000E+00 -0.00000000000E+00 -0.31928165559E+03  0.31931624700E+03  0.47000000000E+01 0.  1.
          6    1    1    2  502    0 -0.81622022135E+02  0.17402093104E+03  0.79461302001E+02  0.26989541947E+03  0.17200000000E+03 0.  1.
         -6    1    1    2    0  502  0.81622022135E+02 -0.17402093104E+03 -0.14988696133E+03  0.29832120293E+03  0.17200000000E+03 0.  1.
</event>
<event>
 4    1 -0.6384999E-004  0.2145516E+03  0.7818608E-02  0.1138011E+00
         -5   -1    0    0    0  501 -0.00000000000E+00  0.00000000000E+00  0.87873545347E+02  0.87999147563E+02  0.47000000000E+01 0.  1.
          5   -1    0    0  501    0  0.00000000000E+00 -0.00000000000E+00 -0.52501561674E+03  0.52503665379E+03  0.47000000000E+01 0. -1.
          6    1    1    2  502    0 -0.37488328412E+02 -0.12264997638E+03 -0.20124593560E+03  0.29416376063E+03  0.17200000000E+03 0. -1.
         -6    1    1    2    0  502  0.37488328412E+02  0.12264997638E+03 -0.23589613579E+03  0.31887204072E+03  0.17200000000E+03 0.  1.
</event>
<event>
 4    1 -0.6384999E-004  0.2208983E+03  0.7818608E-02  0.1133215E+00
         -5   -1    0    0    0  501 -0.00000000000E+00  0.00000000000E+00  0.76445419866E+03  0.76446864674E+03  0.47000000000E+01 0.  1.
          5   -1    0    0  501    0  0.00000000000E+00 -0.00000000000E+00 -0.64561983817E+02  0.64732833666E+02  0.47000000000E+01 0. -1.
          6    1    1    2  502    0 -0.11277760263E+03 -0.80580965599E+02  0.30293967708E+03  0.37492469593E+03  0.17200000000E+03 0. -1.
         -6    1    1    2    0  502  0.11277760263E+03  0.80580965599E+02  0.39695253776E+03  0.45427678447E+03  0.17200000000E+03 0. -1.
</event>
<event>
 4    1 -0.6384999E-004  0.4377912E+03  0.7818608E-02  0.1031427E+00
          5   -1    0    0  501    0  0.00000000000E+00  0.00000000000E+00  0.11790203278E+03  0.11799567507E+03  0.47000000000E+01 0. -1.
         -5   -1    0    0    0  501 -0.00000000000E+00 -0.00000000000E+00 -0.16639431701E+04  0.16639498080E+04  0.47000000000E+01 0.  1.
          6    1    1    2  502    0 -0.31175442106E+03 -0.25472788674E+03 -0.90957638328E+03  0.10094505002E+04  0.17200000000E+03 0.  1.
         -6    1    1    2    0  502  0.31175442106E+03  0.25472788674E+03 -0.63646475409E+03  0.77249498285E+03  0.17200000000E+03 0.  1.
</event>
<event>
 4    1 -0.6384999E-004  0.2525097E+03  0.7818608E-02  0.1111729E+00
         -5   -1    0    0    0  501 -0.00000000000E+00  0.00000000000E+00  0.90185928596E+03  0.90187153279E+03  0.47000000000E+01 0.  1.
          5   -1    0    0  501    0  0.00000000000E+00 -0.00000000000E+00 -0.75058006408E+02  0.75205015297E+02  0.47000000000E+01 0. -1.
          6    1    1    2  502    0 -0.16164991551E+03 -0.89701918132E+02  0.53221481538E+03  0.58907872056E+03  0.17200000000E+03 0. -1.
         -6    1    1    2    0  502  0.16164991551E+03  0.89701918132E+02  0.29458646417E+03  0.38799782754E+03  0.17200000000E+03 0.  1.
</event>
<event>
 4    1 -0.6384999E-004  0.2433955E+03  0.7818608E-02  0.1117551E+00
         -5   -1    0    0    0  501 -0.00000000000E+00  0.00000000000E+00  0.89328600420E+02  0.89452159577E+02  0.47000000000E+01 0.  1.
          5   -1    0    0  501    0  0.00000000000E+00 -0.00000000000E+00 -0.83645658664E+03  0.83646979105E+03  0.47000000000E+01 0. -1.
          6    1    1    2  502    0 -0.16692389057E+03 -0.42352803589E+02 -0.58461597917E+03  0.63325917942E+03  0.17200000000E+03 0.  1.
         -6    1    1    2    0  502  0.16692389057E+03  0.42352803589E+02 -0.16251200705E+03  0.29266277120E+03  0.17200000000E+03 0. -1.
</event>
<event>
 4    1 -0.6384999E-004  0.1919109E+03  0.7818608E-02  0.1156749E+00
          5   -1    0    0  501    0  0.00000000000E+00  0.00000000000E+00  0.14940146358E+03  0.14947537363E+03  0.47000000000E+01 0. -1.
         -5   -1    0    0    0  501 -0.00000000000E+00 -0.00000000000E+00 -0.29076750849E+03  0.29080549168E+03  0.47000000000E+01 0.  1.
          6    1    1    2  502    0  0.11088598812E+02  0.84396857615E+02  0.15332612162E+02  0.19252240284E+03  0.17200000000E+03 0. -1.
         -6    1    1    2    0  502 -0.11088598812E+02 -0.84396857615E+02 -0.15669865707E+03  0.24775846247E+03  0.17200000000E+03 0.  1.
</event>
<event>
 4    1 -0.6384999E-004  0.2104544E+03  0.7818608E-02  0.1141207E+00
          5   -1    0    0  501    0  0.00000000000E+00  0.00000000000E+00  0.70924138202E+02  0.71079697381E+02  0.47000000000E+01 0. -1.
         -5   -1    0    0    0  501 -0.00000000000E+00 -0.00000000000E+00 -0.62685196999E+03  0.62686958953E+03  0.47000000000E+01 0.  1.
          6    1    1    2  502    0  0.12013272332E+03 -0.16589227582E+02 -0.30295369513E+03  0.36887940452E+03  0.17200000000E+03 0.  1.
         -6    1    1    2    0  502 -0.12013272332E+03  0.16589227582E+02 -0.25297413665E+03  0.32906988239E+03  0.17200000000E+03 0.  1.
</event>
<event>
 4    1 -0.6384999E-004  0.2127527E+03  0.7818608E-02  0.1139405E+00
          5   -1    0    0  501    0  0.00000000000E+00  0.00000000000E+00  0.89310951415E+03  0.89312188097E+03  0.47000000000E+01 0. -1.
         -5   -1    0    0    0  501 -0.00000000000E+00 -0.00000000000E+00 -0.64143264992E+02  0.64315227154E+02  0.47000000000E+01 0.  1.
          6    1    1    2  502    0 -0.63511186845E+02  0.10791673169E+03  0.63442968477E+03  0.66915223735E+03  0.17200000000E+03 0. -1.
         -6    1    1    2    0  502  0.63511186845E+02 -0.10791673169E+03  0.19453656439E+03  0.28828487077E+03  0.17200000000E+03 0.  1.
</event>
<event>
 4    1 -0.6384999E-004  0.1769487E+03  0.7818608E-02  0.1170789E+00
          5   -1    0    0  501    0  0.00000000000E+00  0.00000000000E+00  0.12011814924E+03  0.12021006520E+03  0.47000000000E+01 0. -1.
         -5   -1    0    0    0  501 -0.00000000000E+00 -0.00000000000E+00 -0.26363671744E+03  0.26367860889E+03  0.47000000000E+01 0.  1.
          6    1    1    2  502    0  0.12985228300E+02 -0.39474523435E+02 -0.92842620392E+02  0.19982644048E+03  0.17200000000E+03 0. -1.
         -6    1    1    2    0  502 -0.12985228300E+02  0.39474523435E+02 -0.50675947812E+02  0.18406223361E+03  0.17200000000E+03 0.  1.
</event>
<event>
 4    1 -0.6384999E-004  0.1935925E+03  0.7818608E-02  0.1155260E+00
         -5   -1    0    0    0  501 -0.00000000000E+00  0.00000000000E+00  0.13432990927E+03  0.13441210706E+03  0.47000000000E+01 0.  1.
          5   -1    0    0  501    0  0.00000000000E+00 -0.00000000000E+00 -0.37490056733E+03  0.37493002732E+03  0.47000000000E+01 0. -1.
          6    1    1    2  502    0 -0.59790824806E+00  0.88846425843E+02 -0.24919583803E+03  0.31555761846E+03  0.17200000000E+03 0. -1.
         -6    1    1    2    0  502  0.59790824806E+00 -0.88846425843E+02  0.86251799618E+01  0.19378451592E+03  0.17200000000E+03 0.  1.
</event>
<event>
 4    1 -0.6384999E-004  0.2587569E+03  0.7818608E-02  0.1107892E+00
         -5   -1    0    0    0  501 -0.00000000000E+00  0.00000000000E+00  0.89253364357E+03  0.89254601837E+03  0.47000000000E+01 0.  1.
          5   -1    0    0  501    0  0.00000000000E+00 -0.00000000000E+00 -0.78539217469E+02  0.78679722169E+02  0.47000000000E+01 0. -1.
          6    1    1    2  502    0  0.11924727523E+03 -0.15215530900E+03  0.51098833886E+03  0.57276891776E+03  0.17200000000E+03 0. -1.
         -6    1    1    2    0  502 -0.11924727523E+03  0.15215530900E+03  0.30300608724E+03  0.39845682277E+03  0.17200000000E+03 0. -1.
</event>
<event>
 4    1 -0.6384999E-004  0.2060540E+03  0.7818608E-02  0.1144729E+00
         -5   -1    0    0    0  501 -0.00000000000E+00  0.00000000000E+00  0.28024724654E+03  0.28028665539E+03  0.47000000000E+01 0.  1.
          5   -1    0    0  501    0  0.00000000000E+00 -0.00000000000E+00 -0.15900008109E+03  0.15906953130E+03  0.47000000000E+01 0. -1.
          6    1    1    2  502    0 -0.76590289584E+02  0.83714790419E+02  0.10858379797E+03  0.23291345984E+03  0.17200000000E+03 0.  1.
         -6    1    1    2    0  502  0.76590289584E+02 -0.83714790419E+02  0.12663367474E+02  0.20644272685E+03  0.17200000000E+03 0. -1.
</event>
<event>
 4    1 -0.6384999E-004  0.1846292E+03  0.7818608E-02  0.1163397E+00
          5   -1    0    0  501    0  0.00000000000E+00  0.00000000000E+00  0.10267415783E+04  0.10267523356E+04  0.47000000000E+01 0. -1.
         -5   -1    0    0    0  501 -0.00000000000E+00 -0.00000000000E+00 -0.34320025301E+02  0.34640354164E+02  0.47000000000E+01 0.  1.
          6    1    1    2  502    0  0.67070068620E+02  0.23567136945E+01  0.39353778940E+03  0.43469522644E+03  0.17200000000E+03 0.  1.
         -6    1    1    2    0  502 -0.67070068620E+02 -0.23567136945E+01  0.59888376362E+03  0.62669746332E+03  0.17200000000E+03 0. -1.
</event>
<event>
 4    1 -0.6384999E-004  0.2126697E+03  0.7818608E-02  0.1139469E+00
          5   -1    0    0  501    0  0.00000000000E+00  0.00000000000E+00  0.63718586412E+03  0.63720319792E+03  0.47000000000E+01 0. -1.
         -5   -1    0    0    0  501 -0.00000000000E+00 -0.00000000000E+00 -0.14320231785E+03  0.14327942573E+03  0.47000000000E+01 0.  1.
          6    1    1    2  502    0  0.12492250230E+03  0.62274208388E+01  0.52418048911E+03  0.56567976587E+03  0.17200000000E+03 0. -1.
         -6    1    1    2    0  502 -0.12492250230E+03 -0.62274208388E+01 -0.30196942843E+02  0.21480285778E+03  0.17200000000E+03 0.  1.
</event>
<event>
 4    1 -0.6384999E-004  0.1946776E+03  0.7818608E-02  0.1154309E+00
          5   -1    0    0  501    0  0.00000000000E+00  0.00000000000E+00  0.37930903981E+03  0.37933815742E+03  0.47000000000E+01 0. -1.
         -5   -1    0    0    0  501 -0.00000000000E+00 -0.00000000000E+00 -0.12440592709E+03  0.12449467737E+03  0.47000000000E+01 0.  1.
          6    1    1    2  502    0 -0.78456152884E+02  0.46475771961E+02  0.23936402786E+03  0.30853606457E+03  0.17200000000E+03 0. -1.
         -6    1    1    2    0  502  0.78456152884E+02 -0.46475771961E+02  0.15539084857E+02  0.19529677023E+03  0.17200000000E+03 0.  1.
</event>
<event>
 4    1 -0.6384999E-004  0.2099416E+03  0.7818608E-02  0.1141612E+00
          5   -1    0    0  501    0  0.00000000000E+00  0.00000000000E+00  0.21113840100E+04  0.21113892412E+04  0.47000000000E+01 0. -1.
         -5   -1    0    0    0  501 -0.00000000000E+00 -0.00000000000E+00 -0.22017735627E+02  0.22513788712E+02  0.47000000000E+01 0.  1.
          6    1    1    2  502    0  0.10005268308E+03 -0.66939725715E+02  0.13117971553E+04  0.13284905882E+04  0.17200000000E+03 0.  1.
         -6    1    1    2    0  502 -0.10005268308E+03  0.66939725715E+02  0.77756911908E+03  0.80541244168E+03  0.17200000000E+03 0.  1.
</event>
<event>
 4    1 -0.6384999E-004  0.2357917E+03  0.7818608E-02  0.1122628E+00
          5   -1    0    0  501    0  0.00000000000E+00  0.00000000000E+00  0.18718449456E+03  0.18724349122E+03  0.47000000000E+01 0. -1.
         -5   -1    0    0    0  501 -0.00000000000E+00 -0.00000000000E+00 -0.66980334585E+03  0.66981983556E+03  0.47000000000E+01 0.  1.
          6    1    1    2  502    0  0.15554704285E+03 -0.42648146953E+02  0.78419173113E+02  0.24849006759E+03  0.17200000000E+03 0. -1.
         -6    1    1    2    0  502 -0.15554704285E+03  0.42648146953E+02 -0.56103802440E+03  0.60857325919E+03  0.17200000000E+03 0.  1.
</event>
<event>
 4    1 -0.6384999E-004  0.1915230E+03  0.7818608E-02  0.1157095E+00
         -5   -1    0    0    0  501 -0.00000000000E+00  0.00000000000E+00  0.23870721680E+03  0.23875348238E+03  0.47000000000E+01 0.  1.
          5   -1    0    0  501    0  0.00000000000E+00 -0.00000000000E+00 -0.27332347040E+03  0.27336387740E+03  0.47000000000E+01 0. -1.
          6    1    1    2  502    0  0.84057384562E+02 -0.56054098663E+01 -0.18676790963E+03  0.26751320825E+03  0.17200000000E+03 0. -1.
         -6    1    1    2    0  502 -0.84057384562E+02  0.56054098663E+01  0.15215165603E+03  0.24460415154E+03  0.17200000000E+03 0.  1.
</event>
<event>
 4    1 -0.6384999E-004  0.4491913E+03  0.7818608E-02  0.1027963E+00
          5   -1    0    0  501    0  0.00000000000E+00  0.00000000000E+00  0.49525363579E+03  0.49527593699E+03  0.47000000000E+01 0. -1.
         -5   -1    0    0    0  501 -0.00000000000E+00 -0.00000000000E+00 -0.40937082443E+03  0.40939780397E+03  0.47000000000E+01 0.  1.
          6    1    1    2  502    0  0.42236852833E+01  0.41493494147E+03  0.11305116973E+02  0.44933356300E+03  0.17200000000E+03 0. -1.
         -6    1    1    2    0  502 -0.42236852833E+01 -0.41493494147E+03  0.74577694384E+02  0.45534017796E+03  0.17200000000E+03 0.  1.
</event>
<event>
 4    1 -0.6384999E-004  0.2050976E+03  0.7818608E-02  0.1145508E+00
          5   -1    0    0  501    0  0.00000000000E+00  0.00000000000E+00  0.14994192218E+03  0.15001556595E+03  0.47000000000E+01 0. -1.
         -5   -1    0    0    0  501 -0.00000000000E+00 -0.00000000000E+00 -0.36248451174E+03  0.36251498072E+03  0.47000000000E+01 0.  1.
          6    1    1    2  502    0 -0.42051677849E+02  0.10350204949E+03  0.15673675251E+02  0.20569560509E+03  0.17200000000E+03 0. -1.
         -6    1    1    2    0  502  0.42051677849E+02 -0.10350204949E+03 -0.22821626480E+03  0.30683494159E+03  0.17200000000E+03 0.  1.
</event>
<event>
 4    1 -0.6384999E-004  0.3064235E+03  0.7818608E-02  0.1082073E+00
          5   -1    0    0  501    0  0.00000000000E+00  0.00000000000E+00  0.28450610467E+03  0.28454492369E+03  0.47000000000E+01 0. -1.
         -5   -1    0    0    0  501 -0.00000000000E+00 -0.00000000000E+00 -0.36036488651E+03  0.36039553469E+03  0.47000000000E+01 0.  1.
          6    1    1    2  502    0  0.38097656022E+02 -0.25071883399E+03  0.55742575978E+02  0.31145240389E+03  0.17200000000E+03 0. -1.
         -6    1    1    2    0  502 -0.38097656022E+02  0.25071883399E+03 -0.13160135781E+03  0.33348805449E+03  0.17200000000E+03 0.  1.
</event>
<event>
 4    1 -0.6384999E-004  0.3063638E+03  0.7818608E-02  0.1082102E+00
          5   -1    0    0  501    0  0.00000000000E+00  0.00000000000E+00  0.24048944626E+03  0.24053536905E+03  0.47000000000E+01 0. -1.
         -5   -1    0    0    0  501 -0.00000000000E+00 -0.00000000000E+00 -0.50490949301E+03  0.50493136774E+03  0.47000000000E+01 0.  1.
          6    1    1    2  502    0 -0.11298749736E+03 -0.22695503476E+03  0.45449790374E+02  0.30971671864E+03  0.17200000000E+03 0. -1.
         -6    1    1    2    0  502  0.11298749736E+03  0.22695503476E+03 -0.30986983712E+03  0.43575001815E+03  0.17200000000E+03 0.  1.
</event>
<event>
 4    1 -0.6384999E-004  0.1769234E+03  0.7818608E-02  0.1170814E+00
         -5   -1    0    0    0  501 -0.00000000000E+00  0.00000000000E+00  0.57343281309E+03  0.57345207396E+03  0.47000000000E+01 0.  1.
          5   -1    0    0  501    0  0.00000000000E+00 -0.00000000000E+00 -0.61828951257E+02  0.62007331934E+02  0.47000000000E+01 0. -1.
          6    1    1    2  502    0 -0.27892218888E+02 -0.30657928601E+02  0.14633857282E+03  0.22960152951E+03  0.17200000000E+03 0. -1.
         -6    1    1    2    0  502  0.27892218888E+02  0.30657928601E+02  0.36526528901E+03  0.40585787638E+03  0.17200000000E+03 0.  1.
</event>
<event>
 4    1 -0.6384999E-004  0.1838666E+03  0.7818608E-02  0.1164112E+00
          5   -1    0    0  501    0  0.00000000000E+00  0.00000000000E+00  0.23782737085E+03  0.23787380756E+03  0.47000000000E+01 0. -1.
         -5   -1    0    0    0  501 -0.00000000000E+00 -0.00000000000E+00 -0.25134323407E+03  0.25138717412E+03  0.47000000000E+01 0.  1.
          6    1    1    2  502    0  0.58585405204E+02 -0.28119235504E+02  0.15452231107E+03  0.24017511471E+03  0.17200000000E+03 0. -1.
         -6    1    1    2    0  502 -0.58585405204E+02  0.28119235504E+02 -0.16803817429E+03  0.24908586697E+03  0.17200000000E+03 0.  1.
</event>
<event>
 4    1 -0.6384999E-004  0.1877977E+03  0.7818608E-02  0.1160463E+00
          5   -1    0    0  501    0  0.00000000000E+00  0.00000000000E+00  0.34933109361E+03  0.34936270975E+03  0.47000000000E+01 0. -1.
         -5   -1    0    0    0  501 -0.00000000000E+00 -0.00000000000E+00 -0.22785699626E+03  0.22790546449E+03  0.47000000000E+01 0.  1.
          6    1    1    2  502    0 -0.21071878069E+02 -0.72387478639E+02  0.27616134436E+03  0.33396565576E+03  0.17200000000E+03 0. -1.
         -6    1    1    2    0  502  0.21071878069E+02  0.72387478639E+02 -0.15468724701E+03  0.24330251847E+03  0.17200000000E+03 0.  1.
</event>
<event>
 4    1 -0.6384999E-004  0.2356713E+03  0.7818608E-02  0.1122711E+00
          5   -1    0    0  501    0  0.00000000000E+00  0.00000000000E+00  0.13359174269E+04  0.13359256946E+04  0.47000000000E+01 0. -1.
         -5   -1    0    0    0  501 -0.00000000000E+00 -0.00000000000E+00 -0.22311553863E+03  0.22316503664E+03  0.47000000000E+01 0.  1.
          6    1    1    2  502    0  0.15883861623E+03  0.26967304021E+02  0.12595876485E+04  0.12814452722E+04  0.17200000000E+03 0. -1.
         -6    1    1    2    0  502 -0.15883861623E+03 -0.26967304021E+02 -0.14678576024E+03  0.27764545900E+03  0.17200000000E+03 0.  1.
</event>
<event>
 4    1 -0.6384999E-004  0.2299435E+03  0.7818608E-02  0.1126680E+00
          5   -1    0    0  501    0  0.00000000000E+00  0.00000000000E+00  0.24981437425E+03  0.24985858316E+03  0.47000000000E+01 0. -1.
         -5   -1    0    0    0  501 -0.00000000000E+00 -0.00000000000E+00 -0.23223895877E+03  0.23228651268E+03  0.47000000000E+01 0.  1.
          6    1    1    2  502    0 -0.93678083955E+02 -0.12047578459E+03 -0.63126292705E+02  0.23845109963E+03  0.17200000000E+03 0. -1.
         -6    1    1    2    0  502  0.93678083955E+02  0.12047578459E+03  0.80701708179E+02  0.24369399621E+03  0.17200000000E+03 0. -1.
</event>
<event>
 4    1 -0.6384999E-004  0.1734072E+03  0.7818608E-02  0.1174341E+00
          5   -1    0    0  501    0  0.00000000000E+00  0.00000000000E+00  0.81279548739E+02  0.81415324376E+02  0.47000000000E+01 0. -1.
         -5   -1    0    0    0  501 -0.00000000000E+00 -0.00000000000E+00 -0.39682983767E+03  0.39685766978E+03  0.47000000000E+01 0.  1.
          6    1    1    2  502    0 -0.16492573242E+01  0.21984541707E+02 -0.22052053933E+03  0.28053404141E+03  0.17200000000E+03 0.  1.
         -6    1    1    2    0  502  0.16492573242E+01 -0.21984541707E+02 -0.95029749598E+02  0.19773895274E+03  0.17200000000E+03 0. -1.
</event>
<event>
 4    1 -0.6384999E-004  0.4176111E+03  0.7818608E-02  0.1037847E+00
         -5   -1    0    0    0  501 -0.00000000000E+00  0.00000000000E+00  0.19256156994E+03  0.19261891968E+03  0.47000000000E+01 0.  1.
          5   -1    0    0  501    0  0.00000000000E+00 -0.00000000000E+00 -0.16451041151E+04  0.16451108289E+04  0.47000000000E+01 0. -1.
          6    1    1    2  502    0  0.37947498235E+03  0.28526625490E+02 -0.13423715014E+04  0.14058308143E+04  0.17200000000E+03 0. -1.
         -6    1    1    2    0  502 -0.37947498235E+03 -0.28526625490E+02 -0.11017104373E+03  0.43189893432E+03  0.17200000000E+03 0.  1.
</event>
<event>
 4    1 -0.6384999E-004  0.2016520E+03  0.7818608E-02  0.1148353E+00
         -5   -1    0    0    0  501 -0.00000000000E+00  0.00000000000E+00  0.74271638780E+03  0.74273125874E+03  0.47000000000E+01 0.  1.
          5   -1    0    0  501    0  0.00000000000E+00 -0.00000000000E+00 -0.19181147664E+03  0.19186905058E+03  0.47000000000E+01 0. -1.
          6    1    1    2  502    0 -0.81321306688E+02 -0.66830941944E+02 -0.11958415820E+03  0.23444381121E+03  0.17200000000E+03 0. -1.
         -6    1    1    2    0  502  0.81321306688E+02  0.66830941944E+02  0.67048906935E+03  0.70015649811E+03  0.17200000000E+03 0.  1.
</event>
<event>
 4    1 -0.6384999E-004  0.2294486E+03  0.7818608E-02  0.1127028E+00
         -5   -1    0    0    0  501 -0.00000000000E+00  0.00000000000E+00  0.14649950821E+03  0.14657488156E+03  0.47000000000E+01 0.  1.
          5   -1    0    0  501    0  0.00000000000E+00 -0.00000000000E+00 -0.40834253009E+03  0.40836957757E+03  0.47000000000E+01 0. -1.
          6    1    1    2  502    0 -0.99975299910E+02 -0.11431356072E+03 -0.34657226555E+02  0.23205123165E+03  0.17200000000E+03 0.  1.
         -6    1    1    2    0  502  0.99975299910E+02  0.11431356072E+03 -0.22718579533E+03  0.32289322748E+03  0.17200000000E+03 0. -1.
</event>
<event>
 4    1 -0.6384999E-004  0.1906015E+03  0.7818608E-02  0.1157920E+00
         -5   -1    0    0    0  501 -0.00000000000E+00  0.00000000000E+00  0.16465818149E+03  0.16472524619E+03  0.47000000000E+01 0.  1.
          5   -1    0    0  501    0  0.00000000000E+00 -0.00000000000E+00 -0.25610520077E+03  0.25614832394E+03  0.47000000000E+01 0. -1.
          6    1    1    2  502    0  0.80584502830E+02  0.15845460350E+02 -0.12417490442E+03  0.22748263142E+03  0.17200000000E+03 0. -1.
         -6    1    1    2    0  502 -0.80584502830E+02 -0.15845460350E+02  0.32727885149E+02  0.19339093871E+03  0.17200000000E+03 0. -1.
</event>
<event>
 4    1 -0.6384999E-004  0.2117872E+03  0.7818608E-02  0.1140158E+00
          5   -1    0    0  501    0  0.00000000000E+00  0.00000000000E+00  0.27667932213E+03  0.27671923911E+03  0.47000000000E+01 0. -1.
         -5   -1    0    0    0  501 -0.00000000000E+00 -0.00000000000E+00 -0.22488875924E+03  0.22493786705E+03  0.47000000000E+01 0.  1.
          6    1    1    2  502    0  0.11937505331E+03 -0.31928232781E+02  0.15847707753E+03  0.26451616114E+03  0.17200000000E+03 0. -1.
         -6    1    1    2    0  502 -0.11937505331E+03  0.31928232781E+02 -0.10668651464E+03  0.23714094503E+03  0.17200000000E+03 0.  1.
</event>
<event>
 4    1 -0.6384999E-004  0.1990848E+03  0.7818608E-02  0.1150513E+00
          5   -1    0    0  501    0  0.00000000000E+00  0.00000000000E+00  0.34357745916E+03  0.34360960471E+03  0.47000000000E+01 0. -1.
         -5   -1    0    0    0  501 -0.00000000000E+00 -0.00000000000E+00 -0.28097406442E+03  0.28101337134E+03  0.47000000000E+01 0.  1.
          6    1    1    2  502    0 -0.44687313073E+02  0.89742996126E+02  0.27109645125E+03  0.33634513106E+03  0.17200000000E+03 0. -1.
         -6    1    1    2    0  502  0.44687313073E+02 -0.89742996126E+02 -0.20849305650E+03  0.28827784499E+03  0.17200000000E+03 0.  1.
</event>
<event>
 4    1 -0.6384999E-004  0.2052858E+03  0.7818608E-02  0.1145354E+00
          5   -1    0    0  501    0  0.00000000000E+00  0.00000000000E+00  0.50187661229E+03  0.50189861921E+03  0.47000000000E+01 0. -1.
         -5   -1    0    0    0  501 -0.00000000000E+00 -0.00000000000E+00 -0.10415949656E+03  0.10426548194E+03  0.47000000000E+01 0.  1.
          6    1    1    2  502    0 -0.57659725041E+02  0.96091602989E+02  0.33250252579E+03  0.39076869081E+03  0.17200000000E+03 0. -1.
         -6    1    1    2    0  502  0.57659725041E+02 -0.96091602989E+02  0.65214589933E+02  0.21539541034E+03  0.17200000000E+03 0. -1.
</event>
<event>
 4    1 -0.6384999E-004  0.2117048E+03  0.7818608E-02  0.1140223E+00
          5   -1    0    0  501    0  0.00000000000E+00  0.00000000000E+00  0.30779827684E+03  0.30783415864E+03  0.47000000000E+01 0. -1.
         -5   -1    0    0    0  501 -0.00000000000E+00 -0.00000000000E+00 -0.18268132694E+03  0.18274177741E+03  0.47000000000E+01 0.  1.
          6    1    1    2  502    0 -0.12340924335E+03  0.22564045969E+01  0.17314395076E+03  0.27349179218E+03  0.17200000000E+03 0. -1.
         -6    1    1    2    0  502  0.12340924335E+03 -0.22564045969E+01 -0.48027000860E+02  0.21708414387E+03  0.17200000000E+03 0.  1.
</event>
<event>
 4    1 -0.6384999E-004  0.2040720E+03  0.7818608E-02  0.1146348E+00
          5   -1    0    0  501    0  0.00000000000E+00  0.00000000000E+00  0.12879810305E+03  0.12888382889E+03  0.47000000000E+01 0. -1.
         -5   -1    0    0    0  501 -0.00000000000E+00 -0.00000000000E+00 -0.32419926819E+03  0.32423333496E+03  0.47000000000E+01 0.  1.
          6    1    1    2  502    0 -0.77678090657E+02  0.77637060020E+02 -0.11072025049E+03  0.23217315247E+03  0.17200000000E+03 0.  1.
         -6    1    1    2    0  502  0.77678090657E+02 -0.77637060020E+02 -0.84680914653E+02  0.22094401138E+03  0.17200000000E+03 0.  1.
</event>
<event>
 4    1 -0.6384999E-004  0.3664932E+03  0.7818608E-02  0.1056042E+00
         -5   -1    0    0    0  501 -0.00000000000E+00  0.00000000000E+00  0.37392232738E+03  0.37395186443E+03  0.47000000000E+01 0.  1.
          5   -1    0    0  501    0  0.00000000000E+00 -0.00000000000E+00 -0.37967128374E+03  0.37970037358E+03  0.47000000000E+01 0. -1.
          6    1    1    2  502    0 -0.15880690616E+03 -0.28198164245E+03  0.84720200219E+02  0.37615793552E+03  0.17200000000E+03 0. -1.
         -6    1    1    2    0  502  0.15880690616E+03  0.28198164245E+03 -0.90469156576E+02  0.37749430250E+03  0.17200000000E+03 0.  1.
</event>
<event>
 4    1 -0.6384999E-004  0.1919811E+03  0.7818608E-02  0.1156687E+00
          5   -1    0    0  501    0  0.00000000000E+00  0.00000000000E+00  0.45413905242E+03  0.45416337252E+03  0.47000000000E+01 0. -1.
         -5   -1    0    0    0  501 -0.00000000000E+00 -0.00000000000E+00 -0.89140777136E+02  0.89264596276E+02  0.47000000000E+01 0.  1.
          6    1    1    2  502    0  0.76839976095E+02 -0.36991494244E+02  0.26422284467E+03  0.32660444611E+03  0.17200000000E+03 0. -1.
         -6    1    1    2    0  502 -0.76839976095E+02  0.36991494244E+02  0.10077543062E+03  0.21682352268E+03  0.17200000000E+03 0. -1.
</event>
<event>
 4    1 -0.6384999E-004  0.2915377E+03  0.7818608E-02  0.1089549E+00
         -5   -1    0    0    0  501 -0.00000000000E+00  0.00000000000E+00  0.24255217852E+03  0.24259771084E+03  0.47000000000E+01 0.  1.
          5   -1    0    0  501    0  0.00000000000E+00 -0.00000000000E+00 -0.35042575074E+03  0.35045726812E+03  0.47000000000E+01 0. -1.
          6    1    1    2  502    0  0.32343202925E+02 -0.23316120550E+03 -0.59036294685E+02  0.29745506319E+03  0.17200000000E+03 0. -1.
         -6    1    1    2    0  502 -0.32343202925E+02  0.23316120550E+03 -0.48837277531E+02  0.29559991577E+03  0.17200000000E+03 0. -1.
</event>
<event>
 4    1 -0.6384999E-004  0.3425919E+03  0.7818608E-02  0.1065697E+00
          5   -1    0    0  501    0  0.00000000000E+00  0.00000000000E+00  0.26260578658E+03  0.26264784245E+03  0.47000000000E+01 0. -1.
         -5   -1    0    0    0  501 -0.00000000000E+00 -0.00000000000E+00 -0.44765837597E+03  0.44768304812E+03  0.47000000000E+01 0.  1.
          6    1    1    2  502    0  0.12440198221E+03  0.26890397247E+03 -0.10761362348E+03  0.35909593641E+03  0.17200000000E+03 0. -1.
         -6    1    1    2    0  502 -0.12440198221E+03 -0.26890397247E+03 -0.77438965910E+02  0.35123495417E+03  0.17200000000E+03 0.  1.
</event>
<event>
 4    1 -0.6384999E-004  0.3323409E+03  0.7818608E-02  0.1070106E+00
          5   -1    0    0  501    0  0.00000000000E+00  0.00000000000E+00  0.25274168434E+03  0.25278538130E+03  0.47000000000E+01 0. -1.
         -5   -1    0    0    0  501 -0.00000000000E+00 -0.00000000000E+00 -0.45911377258E+03  0.45913782917E+03  0.47000000000E+01 0.  1.
          6    1    1    2  502    0  0.90835983232E+02 -0.26947231339E+03 -0.24920272435E+02  0.33327394665E+03  0.17200000000E+03 0. -1.
         -6    1    1    2    0  502 -0.90835983232E+02  0.26947231339E+03 -0.18145181581E+03  0.37864926383E+03  0.17200000000E+03 0. -1.
</event>
<event>
 4    1 -0.6384999E-004  0.2521283E+03  0.7818608E-02  0.1111967E+00
         -5   -1    0    0    0  501 -0.00000000000E+00  0.00000000000E+00  0.13316794452E+03  0.13325085909E+03  0.47000000000E+01 0.  1.
          5   -1    0    0  501    0  0.00000000000E+00 -0.00000000000E+00 -0.51831445318E+03  0.51833576220E+03  0.47000000000E+01 0. -1.
          6    1    1    2  502    0  0.29808786561E+02 -0.18192339379E+03 -0.10072912997E+03  0.27150514284E+03  0.17200000000E+03 0.  1.
         -6    1    1    2    0  502 -0.29808786561E+02  0.18192339379E+03 -0.28441737869E+03  0.38008147846E+03  0.17200000000E+03 0.  1.
</event>
<event>
 4    1 -0.6384999E-004  0.1768829E+03  0.7818608E-02  0.1170854E+00
          5   -1    0    0  501    0  0.00000000000E+00  0.00000000000E+00  0.13588338499E+03  0.13596464362E+03  0.47000000000E+01 0. -1.
         -5   -1    0    0    0  501 -0.00000000000E+00 -0.00000000000E+00 -0.27235119835E+03  0.27239174959E+03  0.47000000000E+01 0.  1.
          6    1    1    2  502    0 -0.18522739359E+02  0.36884703883E+02 -0.14865535853E+03  0.23105408214E+03  0.17200000000E+03 0.  1.
         -6    1    1    2    0  502  0.18522739359E+02 -0.36884703883E+02  0.12187545165E+02  0.17730231107E+03  0.17200000000E+03 0. -1.
</event>
<event>
 4    1 -0.6384999E-004  0.1775506E+03  0.7818608E-02  0.1170195E+00
          5   -1    0    0  501    0  0.00000000000E+00  0.00000000000E+00  0.17894025233E+03  0.17900196620E+03  0.47000000000E+01 0. -1.
         -5   -1    0    0    0  501 -0.00000000000E+00 -0.00000000000E+00 -0.27047616527E+03  0.27051699758E+03  0.47000000000E+01 0.  1.
          6    1    1    2  502    0  0.39445485342E+00 -0.44046064890E+02  0.87005906495E+02  0.19772263197E+03  0.17200000000E+03 0. -1.
         -6    1    1    2    0  502 -0.39445485342E+00  0.44046064890E+02 -0.17854181943E+03  0.25179633181E+03  0.17200000000E+03 0.  1.
</event>
<event>
 4    1 -0.6384999E-004  0.1842842E+03  0.7818608E-02  0.1163720E+00
         -5   -1    0    0    0  501 -0.00000000000E+00  0.00000000000E+00  0.26584663185E+02  0.26996931616E+02  0.47000000000E+01 0.  1.
          5   -1    0    0  501    0  0.00000000000E+00 -0.00000000000E+00 -0.13068562932E+04  0.13068647448E+04  0.47000000000E+01 0. -1.
          6    1    1    2  502    0 -0.62374344934E+02  0.22047713772E+02 -0.52398768044E+03  0.55544914245E+03  0.17200000000E+03 0.  1.
         -6    1    1    2    0  502  0.62374344934E+02 -0.22047713772E+02 -0.75628394961E+03  0.77841253396E+03  0.17200000000E+03 0.  1.
</event>
<event>
 4    1 -0.6384999E-004  0.2189537E+03  0.7818608E-02  0.1134666E+00
          5   -1    0    0  501    0  0.00000000000E+00  0.00000000000E+00  0.25513425810E+03  0.25517754536E+03  0.47000000000E+01 0. -1.
         -5   -1    0    0    0  501 -0.00000000000E+00 -0.00000000000E+00 -0.35441133026E+03  0.35444249324E+03  0.47000000000E+01 0.  1.
          6    1    1    2  502    0 -0.54169927609E+01  0.13537864500E+03  0.15931692455E+03  0.27078146868E+03  0.17200000000E+03 0. -1.
         -6    1    1    2    0  502  0.54169927609E+01 -0.13537864500E+03 -0.25859399671E+03  0.33883856992E+03  0.17200000000E+03 0.  1.
</event>
<event>
 4    1 -0.6384999E-004  0.5745462E+03  0.7818608E-02  0.9959669E-01
          5   -1    0    0  501    0  0.00000000000E+00  0.00000000000E+00  0.62215816421E+03  0.62217591667E+03  0.47000000000E+01 0. -1.
         -5   -1    0    0    0  501 -0.00000000000E+00 -0.00000000000E+00 -0.56497409326E+03  0.56499364249E+03  0.47000000000E+01 0.  1.
          6    1    1    2  502    0 -0.18620008597E+03  0.51560532572E+03  0.17512490245E+03  0.60064303491E+03  0.17200000000E+03 0. -1.
         -6    1    1    2    0  502  0.18620008597E+03 -0.51560532572E+03 -0.11794083150E+03  0.58652652426E+03  0.17200000000E+03 0.  1.
</event>
<event>
 4    1 -0.6384999E-004  0.1775100E+03  0.7818608E-02  0.1170235E+00
          5   -1    0    0  501    0  0.00000000000E+00  0.00000000000E+00  0.54514855566E+03  0.54516881582E+03  0.47000000000E+01 0. -1.
         -5   -1    0    0    0  501 -0.00000000000E+00 -0.00000000000E+00 -0.62187124176E+02  0.62364480382E+02  0.47000000000E+01 0.  1.
          6    1    1    2  502    0 -0.41607018170E+02 -0.13951351695E+02  0.15986751884E+03  0.23888785602E+03  0.17200000000E+03 0.  1.
         -6    1    1    2    0  502  0.41607018170E+02  0.13951351695E+02  0.32309391264E+03  0.36864544018E+03  0.17200000000E+03 0. -1.
</event>
<event>
 4    1 -0.6384999E-004  0.2316288E+03  0.7818608E-02  0.1125499E+00
         -5   -1    0    0    0  501 -0.00000000000E+00  0.00000000000E+00  0.10295587887E+03  0.10306310200E+03  0.47000000000E+01 0.  1.
          5   -1    0    0  501    0  0.00000000000E+00 -0.00000000000E+00 -0.61926246194E+03  0.61928029742E+03  0.47000000000E+01 0. -1.
          6    1    1    2  502    0  0.58380178626E+01 -0.15502843952E+03 -0.40220867209E+03  0.46413760397E+03  0.17200000000E+03 0. -1.
         -6    1    1    2    0  502 -0.58380178626E+01  0.15502843952E+03 -0.11409791098E+03  0.25820579545E+03  0.17200000000E+03 0.  1.
</event>
<event>
 4    1 -0.6384999E-004  0.3534233E+03  0.7818608E-02  0.1061219E+00
          5   -1    0    0  501    0  0.00000000000E+00  0.00000000000E+00  0.30846925128E+03  0.30850505504E+03  0.47000000000E+01 0. -1.
         -5   -1    0    0    0  501 -0.00000000000E+00 -0.00000000000E+00 -0.40487306760E+03  0.40490034683E+03  0.47000000000E+01 0.  1.
          6    1    1    2  502    0 -0.20133414082E+03 -0.23406966935E+03 -0.50535570469E+02  0.35701805312E+03  0.17200000000E+03 0.  1.
         -6    1    1    2    0  502  0.20133414082E+03  0.23406966935E+03 -0.45868245844E+02  0.35638734875E+03  0.17200000000E+03 0.  1.
</event>
<event>
 4    1 -0.6384999E-004  0.1806313E+03  0.7818608E-02  0.1167193E+00
         -5   -1    0    0    0  501 -0.00000000000E+00  0.00000000000E+00  0.22962241619E+03  0.22967051185E+03  0.47000000000E+01 0.  1.
          5   -1    0    0  501    0  0.00000000000E+00 -0.00000000000E+00 -0.18843039349E+03  0.18848900018E+03  0.47000000000E+01 0. -1.
          6    1    1    2  502    0 -0.93593359163E+01  0.54369781427E+02 -0.83167946333E+02  0.19885818464E+03  0.17200000000E+03 0. -1.
         -6    1    1    2    0  502  0.93593359163E+01 -0.54369781427E+02  0.12435996903E+03  0.21930132740E+03  0.17200000000E+03 0.  1.
</event>
<event>
 4    1 -0.6384999E-004  0.2437117E+03  0.7818608E-02  0.1117345E+00
          5   -1    0    0  501    0  0.00000000000E+00  0.00000000000E+00  0.87812841536E+02  0.87938530456E+02  0.47000000000E+01 0. -1.
         -5   -1    0    0    0  501 -0.00000000000E+00 -0.00000000000E+00 -0.72540645061E+03  0.72542167640E+03  0.47000000000E+01 0.  1.
          6    1    1    2  502    0  0.70864074587E+02  0.15744742120E+03 -0.21242522015E+03  0.32329534742E+03  0.17200000000E+03 0. -1.
         -6    1    1    2    0  502 -0.70864074587E+02 -0.15744742120E+03 -0.42516838893E+03  0.49006485943E+03  0.17200000000E+03 0.  1.
</event>
<event>
 4    1 -0.6384999E-004  0.2291634E+03  0.7818608E-02  0.1127230E+00
         -5   -1    0    0    0  501 -0.00000000000E+00  0.00000000000E+00  0.87269164939E+02  0.87395635755E+02  0.47000000000E+01 0.  1.
          5   -1    0    0  501    0  0.00000000000E+00 -0.00000000000E+00 -0.69768655666E+03  0.69770238737E+03  0.47000000000E+01 0. -1.
          6    1    1    2  502    0 -0.61956756655E+02  0.13817817454E+03 -0.45117701110E+03  0.50604006063E+03  0.17200000000E+03 0. -1.
         -6    1    1    2    0  502  0.61956756655E+02 -0.13817817454E+03 -0.15924038062E+03  0.27905796250E+03  0.17200000000E+03 0.  1.
</event>
<event>
 4    1 -0.6384999E-004  0.7886949E+03  0.7818608E-02  0.9576526E-01
         -5   -1    0    0    0  501 -0.00000000000E+00  0.00000000000E+00  0.28121447665E+04  0.28121486941E+04  0.47000000000E+01 0.  1.
          5   -1    0    0  501    0  0.00000000000E+00 -0.00000000000E+00 -0.22467862123E+03  0.22472777496E+03  0.47000000000E+01 0. -1.
          6    1    1    2  502    0 -0.76862624147E+03  0.40857948661E+02  0.11039652704E+04  0.13567531055E+04  0.17200000000E+03 0. -1.
         -6    1    1    2    0  502  0.76862624147E+03 -0.40857948661E+02  0.14835008749E+04  0.16801233636E+04  0.17200000000E+03 0.  1.
</event>
<event>
 4    1 -0.6384999E-004  0.1920489E+03  0.7818608E-02  0.1156626E+00
          5   -1    0    0  501    0  0.00000000000E+00  0.00000000000E+00  0.32228459214E+03  0.32231886127E+03  0.47000000000E+01 0. -1.
         -5   -1    0    0    0  501 -0.00000000000E+00 -0.00000000000E+00 -0.14366596714E+03  0.14374282631E+03  0.47000000000E+01 0.  1.
          6    1    1    2  502    0  0.23197167370E+02 -0.82223244187E+02  0.19452575867E+03  0.27335515588E+03  0.17200000000E+03 0.  1.
         -6    1    1    2    0  502 -0.23197167370E+02  0.82223244187E+02 -0.15907133670E+02  0.19270653170E+03  0.17200000000E+03 0.  1.
</event>
<event>
 4    1 -0.6384999E-004  0.2713227E+03  0.7818608E-02  0.1100525E+00
         -5   -1    0    0    0  501 -0.00000000000E+00  0.00000000000E+00  0.66418959442E+03  0.66420622350E+03  0.47000000000E+01 0.  1.
          5   -1    0    0  501    0  0.00000000000E+00 -0.00000000000E+00 -0.11192645487E+03  0.11202509228E+03  0.47000000000E+01 0. -1.
          6    1    1    2  502    0  0.13534320403E+03  0.16035662855E+03  0.23666708885E+03  0.36003797320E+03  0.17200000000E+03 0. -1.
         -6    1    1    2    0  502 -0.13534320403E+03 -0.16035662855E+03  0.31559605070E+03  0.41619334259E+03  0.17200000000E+03 0.  1.
</event>
<event>
 4    1 -0.6384999E-004  0.2050512E+03  0.7818608E-02  0.1145546E+00
         -5   -1    0    0    0  501 -0.00000000000E+00  0.00000000000E+00  0.84975284349E+03  0.84976584129E+03  0.47000000000E+01 0.  1.
          5   -1    0    0  501    0  0.00000000000E+00 -0.00000000000E+00 -0.99381955368E+02  0.99493030171E+02  0.47000000000E+01 0. -1.
          6    1    1    2  502    0 -0.86320090447E+02 -0.70787355038E+02  0.38744808919E+02  0.20867958181E+03  0.17200000000E+03 0. -1.
         -6    1    1    2    0  502  0.86320090447E+02  0.70787355038E+02  0.71162607921E+03  0.74057928965E+03  0.17200000000E+03 0.  1.
</event>
<event>
 4    1 -0.6384999E-004  0.2606881E+03  0.7818608E-02  0.1106730E+00
          5   -1    0    0  501    0  0.00000000000E+00  0.00000000000E+00  0.80515209243E+03  0.80516581021E+03  0.47000000000E+01 0. -1.
         -5   -1    0    0    0  501 -0.00000000000E+00 -0.00000000000E+00 -0.13962779954E+03  0.13970688031E+03  0.47000000000E+01 0.  1.
          6    1    1    2  502    0 -0.74891086136E+02  0.18101276857E+03  0.62996204539E+03  0.68177010480E+03  0.17200000000E+03 0. -1.
         -6    1    1    2    0  502  0.74891086136E+02 -0.18101276857E+03  0.35562247494E+02  0.26310258572E+03  0.17200000000E+03 0.  1.
</event>
<event>
 4    1 -0.6384999E-004  0.1976763E+03  0.7818608E-02  0.1151714E+00
          5   -1    0    0  501    0  0.00000000000E+00  0.00000000000E+00  0.29819896972E+02  0.30188015096E+02  0.47000000000E+01 0. -1.
         -5   -1    0    0    0  501 -0.00000000000E+00 -0.00000000000E+00 -0.14506555150E+04  0.14506631287E+04  0.47000000000E+01 0.  1.
          6    1    1    2  502    0 -0.26460291774E+02  0.93764534882E+02 -0.94742001760E+03  0.96782262052E+03  0.17200000000E+03 0. -1.
         -6    1    1    2    0  502  0.26460291774E+02 -0.93764534882E+02 -0.47341560038E+03  0.51302852331E+03  0.17200000000E+03 0. -1.
</event>
<event>
 4    1 -0.6384999E-004  0.2186229E+03  0.7818608E-02  0.1134914E+00
         -5   -1    0    0    0  501 -0.00000000000E+00  0.00000000000E+00  0.47342125242E+02  0.47574854939E+02  0.47000000000E+01 0.  1.
          5   -1    0    0  501    0  0.00000000000E+00 -0.00000000000E+00 -0.11052485653E+04  0.11052585585E+04  0.47000000000E+01 0. -1.
          6    1    1    2  502    0 -0.56154669918E+01  0.13483492398E+03 -0.35700334660E+03  0.41862558412E+03  0.17200000000E+03 0.  1.
         -6    1    1    2    0  502  0.56154669918E+01 -0.13483492398E+03 -0.70090309350E+03  0.73420782935E+03  0.17200000000E+03 0. -1.
</event>
<event>
 4    1 -0.6384999E-004  0.1879225E+03  0.7818608E-02  0.1160349E+00
          5   -1    0    0  501    0  0.00000000000E+00  0.00000000000E+00  0.18909208533E+03  0.18915048700E+03  0.47000000000E+01 0. -1.
         -5   -1    0    0    0  501 -0.00000000000E+00 -0.00000000000E+00 -0.18670410307E+03  0.18676325148E+03  0.47000000000E+01 0.  1.
          6    1    1    2  502    0  0.75601199068E+02 -0.39144107939E+01 -0.21965298624E+01  0.18793533105E+03  0.17200000000E+03 0. -1.
         -6    1    1    2    0  502 -0.75601199068E+02  0.39144107939E+01  0.45845121189E+01  0.18797840744E+03  0.17200000000E+03 0.  1.
</event>
<event>
 4    1 -0.6384999E-004  0.2042995E+03  0.7818608E-02  0.1146161E+00
         -5   -1    0    0    0  501 -0.00000000000E+00  0.00000000000E+00  0.29535784914E+03  0.29539524209E+03  0.47000000000E+01 0.  1.
          5   -1    0    0  501    0  0.00000000000E+00 -0.00000000000E+00 -0.16694950557E+03  0.16701565019E+03  0.47000000000E+01 0. -1.
          6    1    1    2  502    0 -0.17037739974E+02  0.10892190944E+03 -0.26516129743E+02  0.20601303860E+03  0.17200000000E+03 0. -1.
         -6    1    1    2    0  502  0.17037739974E+02 -0.10892190944E+03  0.15492447332E+03  0.25639785368E+03  0.17200000000E+03 0.  1.
</event>
<event>
 4    1 -0.6384999E-004  0.1823204E+03  0.7818608E-02  0.1165576E+00
         -5   -1    0    0    0  501 -0.00000000000E+00  0.00000000000E+00  0.11329144214E+03  0.11338889214E+03  0.47000000000E+01 0.  1.
          5   -1    0    0  501    0  0.00000000000E+00 -0.00000000000E+00 -0.30896759148E+03  0.30900333750E+03  0.47000000000E+01 0. -1.
          6    1    1    2  502    0  0.13209339652E+02 -0.59010393843E+02 -0.50087384483E+02  0.18907527422E+03  0.17200000000E+03 0. -1.
         -6    1    1    2    0  502 -0.13209339652E+02  0.59010393843E+02 -0.14558876486E+03  0.23331695543E+03  0.17200000000E+03 0. -1.
</event>
<event>
 4    1 -0.6384999E-004  0.2067223E+03  0.7818608E-02  0.1144188E+00
         -5   -1    0    0    0  501 -0.00000000000E+00  0.00000000000E+00  0.37248996599E+03  0.37251961662E+03  0.47000000000E+01 0.  1.
          5   -1    0    0  501    0  0.00000000000E+00 -0.00000000000E+00 -0.16273314829E+03  0.16280100600E+03  0.47000000000E+01 0. -1.
          6    1    1    2  502    0  0.15267046729E+02  0.11365317569E+03 -0.40575039462E+02  0.21066670569E+03  0.17200000000E+03 0. -1.
         -6    1    1    2    0  502 -0.15267046729E+02 -0.11365317569E+03  0.25033185716E+03  0.32465391692E+03  0.17200000000E+03 0.  1.
</event>
<event>
 4    1 -0.6384999E-004  0.1864096E+03  0.7818608E-02  0.1161740E+00
          5   -1    0    0  501    0  0.00000000000E+00  0.00000000000E+00  0.25997398592E+03  0.26001646747E+03  0.47000000000E+01 0. -1.
         -5   -1    0    0    0  501 -0.00000000000E+00 -0.00000000000E+00 -0.13537989255E+03  0.13546145321E+03  0.47000000000E+01 0.  1.
          6    1    1    2  502    0  0.50690310551E+02 -0.50941389973E+02  0.85169922874E+02  0.20494498910E+03  0.17200000000E+03 0. -1.
         -6    1    1    2    0  502 -0.50690310551E+02  0.50941389973E+02  0.39424170501E+02  0.19053293158E+03  0.17200000000E+03 0. -1.
</event>
<event>
 4    1 -0.6384999E-004  0.3508825E+03  0.7818608E-02  0.1062253E+00
         -5   -1    0    0    0  501 -0.00000000000E+00  0.00000000000E+00  0.28203360531E+03  0.28207276459E+03  0.47000000000E+01 0.  1.
          5   -1    0    0  501    0  0.00000000000E+00 -0.00000000000E+00 -0.54681812091E+03  0.54683831921E+03  0.47000000000E+01 0. -1.
          6    1    1    2  502    0 -0.27501661544E+03  0.13379222765E+03 -0.31857583804E+03  0.47392938665E+03  0.17200000000E+03 0. -1.
         -6    1    1    2    0  502  0.27501661544E+03 -0.13379222765E+03  0.53791322428E+02  0.35498169715E+03  0.17200000000E+03 0.  1.
</event>
<event>
 4    1 -0.6384999E-004  0.6801848E+03  0.7818608E-02  0.9751732E-01
          5   -1    0    0  501    0  0.00000000000E+00  0.00000000000E+00  0.10436904290E+04  0.10437010115E+04  0.47000000000E+01 0. -1.
         -5   -1    0    0    0  501 -0.00000000000E+00 -0.00000000000E+00 -0.87694238530E+03  0.87695498011E+03  0.47000000000E+01 0.  1.
          6    1    1    2  502    0 -0.57302373986E+03  0.32359106613E+03  0.75869971831E+03  0.10189586091E+04  0.17200000000E+03 0. -1.
         -6    1    1    2    0  502  0.57302373986E+03 -0.32359106613E+03 -0.59195167467E+03  0.90169738253E+03  0.17200000000E+03 0.  1.
</event>
<event>
 4    1 -0.6384999E-004  0.1823524E+03  0.7818608E-02  0.1165546E+00
         -5   -1    0    0    0  501 -0.00000000000E+00  0.00000000000E+00  0.31557612068E+03  0.31561111822E+03  0.47000000000E+01 0.  1.
          5   -1    0    0  501    0  0.00000000000E+00 -0.00000000000E+00 -0.10815899899E+03  0.10826106900E+03  0.47000000000E+01 0. -1.
          6    1    1    2  502    0 -0.24960467505E+02 -0.55184776656E+02  0.13828120089E+03  0.22885382897E+03  0.17200000000E+03 0.  1.
         -6    1    1    2    0  502  0.24960467505E+02  0.55184776656E+02  0.69135920801E+02  0.19501835826E+03  0.17200000000E+03 0. -1.
</event>
<event>
 4    1 -0.6384999E-004  0.1955700E+03  0.7818608E-02  0.1153531E+00
         -5   -1    0    0    0  501 -0.00000000000E+00  0.00000000000E+00  0.21025639558E+03  0.21030892012E+03  0.47000000000E+01 0.  1.
          5   -1    0    0  501    0  0.00000000000E+00 -0.00000000000E+00 -0.21056294245E+03  0.21061539054E+03  0.47000000000E+01 0. -1.
          6    1    1    2  502    0  0.85830660290E+02  0.36010116861E+02 -0.77913596088E+02  0.21051878590E+03  0.17200000000E+03 0. -1.
         -6    1    1    2    0  502 -0.85830660290E+02 -0.36010116861E+02  0.77607049219E+02  0.21040552476E+03  0.17200000000E+03 0.  1.
</event>
<event>
 4    1 -0.6384999E-004  0.2637792E+03  0.7818608E-02  0.1104894E+00
          5   -1    0    0  501    0  0.00000000000E+00  0.00000000000E+00  0.49495330992E+03  0.49497562465E+03  0.47000000000E+01 0. -1.
         -5   -1    0    0    0  501 -0.00000000000E+00 -0.00000000000E+00 -0.14598139393E+03  0.14605703466E+03  0.47000000000E+01 0.  1.
          6    1    1    2  502    0 -0.13496205610E+03 -0.14758294470E+03  0.11247339214E+03  0.28675729475E+03  0.17200000000E+03 0.  1.
         -6    1    1    2    0  502  0.13496205610E+03  0.14758294470E+03  0.23649852385E+03  0.35427536456E+03  0.17200000000E+03 0.  1.
</event>
<event>
 4    1 -0.6384999E-004  0.4674656E+03  0.7818608E-02  0.1022638E+00
         -5   -1    0    0    0  501 -0.00000000000E+00  0.00000000000E+00  0.39012361566E+03  0.39015192617E+03  0.47000000000E+01 0.  1.
          5   -1    0    0  501    0  0.00000000000E+00 -0.00000000000E+00 -0.84549542160E+03  0.84550848485E+03  0.47000000000E+01 0. -1.
          6    1    1    2  502    0 -0.29364959243E+03  0.32048396130E+03 -0.58664022569E+03  0.75011386268E+03  0.17200000000E+03 0. -1.
         -6    1    1    2    0  502  0.29364959243E+03 -0.32048396130E+03  0.13126841975E+03  0.48554654834E+03  0.17200000000E+03 0.  1.
</event>
<event>
 4    1 -0.6384999E-004  0.2413475E+03  0.7818608E-02  0.1118898E+00
          5   -1    0    0  501    0  0.00000000000E+00  0.00000000000E+00  0.57758051877E+02  0.57948965104E+02  0.47000000000E+01 0. -1.
         -5   -1    0    0    0  501 -0.00000000000E+00 -0.00000000000E+00 -0.10963899284E+04  0.10964000023E+04  0.47000000000E+01 0.  1.
          6    1    1    2  502    0  0.13911469890E+03  0.96497214291E+02 -0.35418867636E+03  0.42860031530E+03  0.17200000000E+03 0. -1.
         -6    1    1    2    0  502 -0.13911469890E+03 -0.96497214291E+02 -0.68444320019E+03  0.72574865215E+03  0.17200000000E+03 0.  1.
</event>
<event>
 4    1 -0.6384999E-004  0.1948617E+03  0.7818608E-02  0.1154148E+00
         -5   -1    0    0    0  501 -0.00000000000E+00  0.00000000000E+00  0.70723657440E+02  0.70879656614E+02  0.47000000000E+01 0.  1.
          5   -1    0    0  501    0  0.00000000000E+00 -0.00000000000E+00 -0.60232133613E+03  0.60233967324E+03  0.47000000000E+01 0. -1.
          6    1    1    2  502    0 -0.84487095435E+02  0.35341419093E+02 -0.15423321082E+03  0.24851351778E+03  0.17200000000E+03 0. -1.
         -6    1    1    2    0  502  0.84487095435E+02 -0.35341419093E+02 -0.37736446788E+03  0.42470581208E+03  0.17200000000E+03 0.  1.
</event>
<event>
 4    1 -0.6384999E-004  0.2670106E+03  0.7818608E-02  0.1103003E+00
          5   -1    0    0  501    0  0.00000000000E+00  0.00000000000E+00  0.35842287489E+03  0.35845368912E+03  0.47000000000E+01 0. -1.
         -5   -1    0    0    0  501 -0.00000000000E+00 -0.00000000000E+00 -0.33640526005E+03  0.33643809088E+03  0.47000000000E+01 0.  1.
          6    1    1    2  502    0  0.16882347809E+03  0.11493179961E+03  0.23316261429E+03  0.35448482339E+03  0.17200000000E+03 0. -1.
         -6    1    1    2    0  502 -0.16882347809E+03 -0.11493179961E+03 -0.21114499945E+03  0.34040695661E+03  0.17200000000E+03 0.  1.
</event>
<event>
 4    1 -0.6384999E-004  0.1949719E+03  0.7818608E-02  0.1154052E+00
         -5   -1    0    0    0  501 -0.00000000000E+00  0.00000000000E+00  0.28187565945E+02  0.28576719089E+02  0.47000000000E+01 0.  1.
          5   -1    0    0  501    0  0.00000000000E+00 -0.00000000000E+00 -0.18791669806E+04  0.18791728582E+04  0.47000000000E+01 0. -1.
          6    1    1    2  502    0 -0.91214717487E+02 -0.10483909092E+02 -0.14368634835E+04  0.14500312780E+04  0.17200000000E+03 0. -1.
         -6    1    1    2    0  502  0.91214717487E+02  0.10483909092E+02 -0.41411593110E+03  0.45771829921E+03  0.17200000000E+03 0. -1.
</event>
<event>
 4    1 -0.6384999E-004  0.3109971E+03  0.7818608E-02  0.1079869E+00
         -5   -1    0    0    0  501 -0.00000000000E+00  0.00000000000E+00  0.51403133244E+03  0.51405281901E+03  0.47000000000E+01 0.  1.
          5   -1    0    0  501    0  0.00000000000E+00 -0.00000000000E+00 -0.18989842591E+03  0.18995657968E+03  0.47000000000E+01 0. -1.
          6    1    1    2  502    0  0.49933475475E+02 -0.25424757896E+03  0.19628290215E+03  0.36775829162E+03  0.17200000000E+03 0.  1.
         -6    1    1    2    0  502 -0.49933475475E+02  0.25424757896E+03  0.12785000438E+03  0.33625110706E+03  0.17200000000E+03 0.  1.
</event>
<event>
 4    1 -0.6384999E-004  0.2125182E+03  0.7818608E-02  0.1139587E+00
         -5   -1    0    0    0  501 -0.00000000000E+00  0.00000000000E+00  0.14701831529E+03  0.14709342280E+03  0.47000000000E+01 0.  1.
          5   -1    0    0  501    0  0.00000000000E+00 -0.00000000000E+00 -0.33229729000E+03  0.33233052665E+03  0.47000000000E+01 0. -1.
          6    1    1    2  502    0 -0.95485574897E+02  0.80389522041E+02 -0.15873174050E+03  0.26525409650E+03  0.17200000000E+03 0. -1.
         -6    1    1    2    0  502  0.95485574897E+02 -0.80389522041E+02 -0.26547234215E+02  0.21416985295E+03  0.17200000000E+03 0.  1.
</event>
<event>
 4    1 -0.6384999E-004  0.2877994E+03  0.7818608E-02  0.1091504E+00
          5   -1    0    0  501    0  0.00000000000E+00  0.00000000000E+00  0.89822460175E+03  0.89823689815E+03  0.47000000000E+01 0. -1.
         -5   -1    0    0    0  501 -0.00000000000E+00 -0.00000000000E+00 -0.93290389087E+02  0.93408707817E+02  0.47000000000E+01 0.  1.
          6    1    1    2  502    0  0.15787586622E+03  0.16828463964E+03  0.34746470973E+03  0.45117649936E+03  0.17200000000E+03 0.  1.
         -6    1    1    2    0  502 -0.15787586622E+03 -0.16828463964E+03  0.45746950294E+03  0.54046910660E+03  0.17200000000E+03 0.  1.
</event>
<event>
 4    1 -0.6384999E-004  0.2733068E+03  0.7818608E-02  0.1099402E+00
          5   -1    0    0  501    0  0.00000000000E+00  0.00000000000E+00  0.40887731999E+03  0.40890433209E+03  0.47000000000E+01 0. -1.
         -5   -1    0    0    0  501 -0.00000000000E+00 -0.00000000000E+00 -0.20907196923E+03  0.20912479125E+03  0.47000000000E+01 0.  1.
          6    1    1    2  502    0  0.13582318017E+03 -0.16329327466E+03  0.20978844714E+03  0.34454001564E+03  0.17200000000E+03 0. -1.
         -6    1    1    2    0  502 -0.13582318017E+03  0.16329327466E+03 -0.99830963780E+01  0.27348910771E+03  0.17200000000E+03 0.  1.
</event>
<event>
 4    1 -0.6384999E-004  0.1872941E+03  0.7818608E-02  0.1160925E+00
          5   -1    0    0  501    0  0.00000000000E+00  0.00000000000E+00  0.15214252024E+03  0.15221509933E+03  0.47000000000E+01 0. -1.
         -5   -1    0    0    0  501 -0.00000000000E+00 -0.00000000000E+00 -0.24119960285E+03  0.24124539045E+03  0.47000000000E+01 0.  1.
          6    1    1    2  502    0 -0.74059791709E+02 -0.31999990492E+01 -0.86115924577E+02  0.20614326379E+03  0.17200000000E+03 0.  1.
         -6    1    1    2    0  502  0.74059791709E+02  0.31999990492E+01 -0.29411580361E+01  0.18731722599E+03  0.17200000000E+03 0.  1.
</event>
<event>
 4    1 -0.6384999E-004  0.1831489E+03  0.7818608E-02  0.1164790E+00
          5   -1    0    0  501    0  0.00000000000E+00  0.00000000000E+00  0.11020367329E+04  0.11020467552E+04  0.47000000000E+01 0. -1.
         -5   -1    0    0    0  501 -0.00000000000E+00 -0.00000000000E+00 -0.30414371531E+02  0.30775379699E+02  0.47000000000E+01 0.  1.
          6    1    1    2  502    0 -0.56475989679E+01  0.62670836532E+02  0.49393615296E+03  0.52679830327E+03  0.17200000000E+03 0.  1.
         -6    1    1    2    0  502  0.56475989679E+01 -0.62670836532E+02  0.57768620842E+03  0.60602383165E+03  0.17200000000E+03 0. -1.
</event>
<event>
 4    1 -0.6384999E-004  0.2764537E+03  0.7818608E-02  0.1097642E+00
         -5   -1    0    0    0  501 -0.00000000000E+00  0.00000000000E+00  0.11654032378E+03  0.11663505934E+03  0.47000000000E+01 0.  1.
          5   -1    0    0  501    0  0.00000000000E+00 -0.00000000000E+00 -0.72459421949E+03  0.72460946234E+03  0.47000000000E+01 0. -1.
          6    1    1    2  502    0  0.12020121441E+03 -0.17998423964E+03 -0.43397333480E+03  0.51454787317E+03  0.17200000000E+03 0. -1.
         -6    1    1    2    0  502 -0.12020121441E+03  0.17998423964E+03 -0.17408056091E+03  0.32669664852E+03  0.17200000000E+03 0.  1.
</event>
<event>
 4    1 -0.6384999E-004  0.3603327E+03  0.7818608E-02  0.1058452E+00
         -5   -1    0    0    0  501 -0.00000000000E+00  0.00000000000E+00  0.33079259401E+03  0.33082598182E+03  0.47000000000E+01 0.  1.
          5   -1    0    0  501    0  0.00000000000E+00 -0.00000000000E+00 -0.39246878380E+03  0.39249692516E+03  0.47000000000E+01 0. -1.
          6    1    1    2  502    0 -0.29971990010E+03  0.10209620062E+03 -0.27935093313E+02  0.36141392078E+03  0.17200000000E+03 0.  1.
         -6    1    1    2    0  502  0.29971990010E+03 -0.10209620062E+03 -0.33741096481E+02  0.36190898620E+03  0.17200000000E+03 0.  1.
</event>
<event>
 4    1 -0.6384999E-004  0.1968805E+03  0.7818608E-02  0.1152398E+00
         -5   -1    0    0    0  501 -0.00000000000E+00  0.00000000000E+00  0.72798660655E+02  0.72950222708E+02  0.47000000000E+01 0.  1.
          5   -1    0    0  501    0  0.00000000000E+00 -0.00000000000E+00 -0.82211954691E+03  0.82213298158E+03  0.47000000000E+01 0. -1.
          6    1    1    2  502    0 -0.27840502281E+02 -0.91666952226E+02 -0.64061397810E+03  0.67018519279E+03  0.17200000000E+03 0.  1.
         -6    1    1    2    0  502  0.27840502281E+02  0.91666952226E+02 -0.10870690815E+03  0.22489801150E+03  0.17200000000E+03 0.  1.
</event>
<event>
 4    1 -0.6384999E-004  0.1910929E+03  0.7818608E-02  0.1157479E+00
         -5   -1    0    0    0  501 -0.00000000000E+00  0.00000000000E+00  0.45406573085E+02  0.45649171726E+02  0.47000000000E+01 0.  1.
          5   -1    0    0  501    0  0.00000000000E+00 -0.00000000000E+00 -0.80217543622E+03  0.80218920491E+03  0.47000000000E+01 0. -1.
          6    1    1    2  502    0  0.11150853981E+02 -0.82511533071E+02 -0.38731283707E+03  0.43188856015E+03  0.17200000000E+03 0.  1.
         -6    1    1    2    0  502 -0.11150853981E+02  0.82511533071E+02 -0.36945602607E+03  0.41594981648E+03  0.17200000000E+03 0.  1.
</event>
<event>
 4    1 -0.6384999E-004  0.1815954E+03  0.7818608E-02  0.1166268E+00
          5   -1    0    0  501    0  0.00000000000E+00  0.00000000000E+00  0.38155774480E+03  0.38158669083E+03  0.47000000000E+01 0. -1.
         -5   -1    0    0    0  501 -0.00000000000E+00 -0.00000000000E+00 -0.13488761671E+03  0.13496947486E+03  0.47000000000E+01 0.  1.
          6    1    1    2  502    0 -0.34470678000E+01  0.58146511490E+02  0.27822064209E+03  0.33224031176E+03  0.17200000000E+03 0. -1.
         -6    1    1    2    0  502  0.34470678000E+01 -0.58146511490E+02 -0.31550513999E+02  0.18431585393E+03  0.17200000000E+03 0.  1.
</event>
<event>
 4    1 -0.6384999E-004  0.2036267E+03  0.7818608E-02  0.1146715E+00
         -5   -1    0    0    0  501 -0.00000000000E+00  0.00000000000E+00  0.12528287608E+04  0.12528375768E+04  0.47000000000E+01 0.  1.
          5   -1    0    0  501    0  0.00000000000E+00 -0.00000000000E+00 -0.59381736182E+02  0.59567445740E+02  0.47000000000E+01 0. -1.
          6    1    1    2  502    0 -0.93981404921E+02 -0.55202597002E+02  0.15966668871E+03  0.25876105324E+03  0.17200000000E+03 0. -1.
         -6    1    1    2    0  502  0.93981404921E+02  0.55202597002E+02  0.10337803359E+04  0.10536439693E+04  0.17200000000E+03 0.  1.
</event>
<event>
 4    1 -0.6384999E-004  0.1884397E+03  0.7818608E-02  0.1159876E+00
          5   -1    0    0  501    0  0.00000000000E+00  0.00000000000E+00  0.12394491545E+04  0.12394580656E+04  0.47000000000E+01 0. -1.
         -5   -1    0    0    0  501 -0.00000000000E+00 -0.00000000000E+00 -0.31074323488E+02  0.31427751753E+02  0.47000000000E+01 0.  1.
          6    1    1    2  502    0  0.56578536396E+02 -0.52195769676E+02  0.78782148938E+03  0.81004458414E+03  0.17200000000E+03 0. -1.
         -6    1    1    2    0  502 -0.56578536396E+02  0.52195769676E+02  0.42055334158E+03  0.46084123325E+03  0.17200000000E+03 0.  1.
</event>
<event>
 4    1 -0.6384999E-004  0.1787585E+03  0.7818608E-02  0.1169010E+00
         -5   -1    0    0    0  501 -0.00000000000E+00  0.00000000000E+00  0.15259871654E+03  0.15267107876E+03  0.47000000000E+01 0.  1.
          5   -1    0    0  501    0  0.00000000000E+00 -0.00000000000E+00 -0.60147091718E+03  0.60148928021E+03  0.47000000000E+01 0. -1.
          6    1    1    2  502    0  0.47704053398E+02  0.97425177261E+01 -0.52891021519E+03  0.55830153957E+03  0.17200000000E+03 0. -1.
         -6    1    1    2    0  502 -0.47704053398E+02 -0.97425177261E+01  0.80038014544E+02  0.19585881939E+03  0.17200000000E+03 0.  1.
</event>
<event>
 4    1 -0.6384999E-004  0.3069751E+03  0.7818608E-02  0.1081805E+00
         -5   -1    0    0    0  501 -0.00000000000E+00  0.00000000000E+00  0.96173369033E+02  0.96288145227E+02  0.47000000000E+01 0.  1.
          5   -1    0    0  501    0  0.00000000000E+00 -0.00000000000E+00 -0.10879336682E+04  0.10879438205E+04  0.47000000000E+01 0. -1.
          6    1    1    2  502    0 -0.19046116303E+03  0.16844659772E+03 -0.68312439752E+03  0.74892766900E+03  0.17200000000E+03 0. -1.
         -6    1    1    2    0  502  0.19046116303E+03 -0.16844659772E+03 -0.30863590169E+03  0.43530429670E+03  0.17200000000E+03 0.  1.
</event>
<event>
 4    1 -0.6384999E-004  0.3101709E+03  0.7818608E-02  0.1080264E+00
          5   -1    0    0  501    0  0.00000000000E+00  0.00000000000E+00  0.17183780082E+03  0.17190206453E+03  0.47000000000E+01 0. -1.
         -5   -1    0    0    0  501 -0.00000000000E+00 -0.00000000000E+00 -0.10193431558E+04  0.10193539911E+04  0.47000000000E+01 0.  1.
          6    1    1    2  502    0 -0.11073309145E+03  0.23315266131E+03 -0.23794239265E+02  0.31108221878E+03  0.17200000000E+03 0. -1.
         -6    1    1    2    0  502  0.11073309145E+03 -0.23315266131E+03 -0.82371111570E+03  0.88017383689E+03  0.17200000000E+03 0.  1.
</event>
<event>
 4    1 -0.6384999E-004  0.2564574E+03  0.7818608E-02  0.1109291E+00
          5   -1    0    0  501    0  0.00000000000E+00  0.00000000000E+00  0.33489068703E+03  0.33492366632E+03  0.47000000000E+01 0. -1.
         -5   -1    0    0    0  501 -0.00000000000E+00 -0.00000000000E+00 -0.27095150855E+03  0.27099226924E+03  0.47000000000E+01 0.  1.
          6    1    1    2  502    0 -0.17549132376E+03  0.73411248198E+02  0.19094279768E+03  0.31973358920E+03  0.17200000000E+03 0. -1.
         -6    1    1    2    0  502  0.17549132376E+03 -0.73411248198E+02 -0.12700361920E+03  0.28618234636E+03  0.17200000000E+03 0.  1.
</event>
<event>
 4    1 -0.6384999E-004  0.2877987E+03  0.7818608E-02  0.1091504E+00
         -5   -1    0    0    0  501 -0.00000000000E+00  0.00000000000E+00  0.14175964458E+03  0.14183753675E+03  0.47000000000E+01 0.  1.
          5   -1    0    0  501    0  0.00000000000E+00 -0.00000000000E+00 -0.99178577678E+03  0.99179691319E+03  0.47000000000E+01 0. -1.
          6    1    1    2  502    0 -0.15600703792E+03 -0.17001740943E+03 -0.78843379431E+03  0.83931874958E+03  0.17200000000E+03 0. -1.
         -6    1    1    2    0  502  0.15600703792E+03  0.17001740943E+03 -0.61592337893E+02  0.29431570036E+03  0.17200000000E+03 0.  1.
</event>
<event>
 4    1 -0.6384999E-004  0.3122360E+03  0.7818608E-02  0.1079279E+00
         -5   -1    0    0    0  501 -0.00000000000E+00  0.00000000000E+00  0.15883386181E+03  0.15890338466E+03  0.47000000000E+01 0.  1.
          5   -1    0    0  501    0  0.00000000000E+00 -0.00000000000E+00 -0.63159907028E+03  0.63161655740E+03  0.47000000000E+01 0. -1.
          6    1    1    2  502    0 -0.25478650064E+03  0.54691318135E+02 -0.30313730957E+03  0.43518217983E+03  0.17200000000E+03 0. -1.
         -6    1    1    2    0  502  0.25478650064E+03 -0.54691318135E+02 -0.16962789890E+03  0.35533776224E+03  0.17200000000E+03 0.  1.
</event>
<event>
 4    1 -0.6384999E-004  0.1884518E+03  0.7818608E-02  0.1159865E+00
         -5   -1    0    0    0  501 -0.00000000000E+00  0.00000000000E+00  0.13289068348E+03  0.13297377093E+03  0.47000000000E+01 0.  1.
          5   -1    0    0  501    0  0.00000000000E+00 -0.00000000000E+00 -0.29020519825E+03  0.29024325503E+03  0.47000000000E+01 0. -1.
          6    1    1    2  502    0 -0.75203616992E+02  0.16567400503E+02 -0.13841061819E+03  0.23381950730E+03  0.17200000000E+03 0. -1.
         -6    1    1    2    0  502  0.75203616992E+02 -0.16567400503E+02 -0.18903896573E+02  0.18939751866E+03  0.17200000000E+03 0.  1.
</event>
<event>
 4    1 -0.6384999E-004  0.3096489E+03  0.7818608E-02  0.1080514E+00
         -5   -1    0    0    0  501 -0.00000000000E+00  0.00000000000E+00  0.12630318411E+03  0.12639060217E+03  0.47000000000E+01 0.  1.
          5   -1    0    0  501    0  0.00000000000E+00 -0.00000000000E+00 -0.77687191909E+03  0.77688613623E+03  0.47000000000E+01 0. -1.
          6    1    1    2  502    0  0.33985389657E+02  0.25523213551E+03 -0.39418702696E+03  0.50126426357E+03  0.17200000000E+03 0.  1.
         -6    1    1    2    0  502 -0.33985389657E+02 -0.25523213551E+03 -0.25638170802E+03  0.40201247483E+03  0.17200000000E+03 0.  1.
</event>
<event>
 4    1 -0.6384999E-004  0.1809535E+03  0.7818608E-02  0.1166883E+00
         -5   -1    0    0    0  501 -0.00000000000E+00  0.00000000000E+00  0.57222490973E+03  0.57224421126E+03  0.47000000000E+01 0.  1.
          5   -1    0    0  501    0  0.00000000000E+00 -0.00000000000E+00 -0.86452859250E+02  0.86580522478E+02  0.47000000000E+01 0. -1.
          6    1    1    2  502    0 -0.30838549546E+02  0.47001626630E+02  0.51159558634E+02  0.18804645565E+03  0.17200000000E+03 0. -1.
         -6    1    1    2    0  502  0.30838549546E+02 -0.47001626630E+02  0.43461249185E+03  0.47077827808E+03  0.17200000000E+03 0.  1.
</event>
<event>
 4    1 -0.6384999E-004  0.2702961E+03  0.7818608E-02  0.1101110E+00
         -5   -1    0    0    0  501 -0.00000000000E+00  0.00000000000E+00  0.13114594551E+03  0.13123013763E+03  0.47000000000E+01 0.  1.
          5   -1    0    0  501    0  0.00000000000E+00 -0.00000000000E+00 -0.58855626812E+03  0.58857503408E+03  0.47000000000E+01 0. -1.
          6    1    1    2  502    0  0.17887748213E+03 -0.10713921516E+03 -0.31227645938E+03  0.41300914290E+03  0.17200000000E+03 0. -1.
         -6    1    1    2    0  502 -0.17887748213E+03  0.10713921516E+03 -0.14513386324E+03  0.30679602881E+03  0.17200000000E+03 0. -1.
</event>
<event>
 4    1 -0.6384999E-004  0.2069967E+03  0.7818608E-02  0.1143967E+00
         -5   -1    0    0    0  501 -0.00000000000E+00  0.00000000000E+00  0.21455774463E+03  0.21460921644E+03  0.47000000000E+01 0.  1.
          5   -1    0    0  501    0  0.00000000000E+00 -0.00000000000E+00 -0.28330601219E+03  0.28334499562E+03  0.47000000000E+01 0. -1.
          6    1    1    2  502    0  0.94155484171E+02 -0.66320271631E+02 -0.16968628736E+03  0.26765849463E+03  0.17200000000E+03 0. -1.
         -6    1    1    2    0  502 -0.94155484171E+02  0.66320271631E+02  0.10093801980E+03  0.23029571744E+03  0.17200000000E+03 0.  1.
</event>
<event>
 4    1 -0.6384999E-004  0.1910820E+03  0.7818608E-02  0.1157489E+00
          5   -1    0    0  501    0  0.00000000000E+00  0.00000000000E+00  0.44905016932E+02  0.45150310582E+02  0.47000000000E+01 0. -1.
         -5   -1    0    0    0  501 -0.00000000000E+00 -0.00000000000E+00 -0.81063675163E+03  0.81065037661E+03  0.47000000000E+01 0.  1.
          6    1    1    2  502    0  0.57300216544E+02  0.60373959632E+02 -0.38215120269E+03  0.42726089400E+03  0.17200000000E+03 0.  1.
         -6    1    1    2    0  502 -0.57300216544E+02 -0.60373959632E+02 -0.38358053201E+03  0.42853979320E+03  0.17200000000E+03 0.  1.
</event>
<event>
 4    1 -0.6384999E-004  0.3688798E+03  0.7818608E-02  0.1055122E+00
         -5   -1    0    0    0  501 -0.00000000000E+00  0.00000000000E+00  0.30195571249E+03  0.30199228848E+03  0.47000000000E+01 0.  1.
          5   -1    0    0  501    0  0.00000000000E+00 -0.00000000000E+00 -0.45058595267E+03  0.45061046453E+03  0.47000000000E+01 0. -1.
          6    1    1    2  502    0  0.22175174134E+03  0.23940445683E+03 -0.77138421445E+02  0.37685894550E+03  0.17200000000E+03 0. -1.
         -6    1    1    2    0  502 -0.22175174134E+03 -0.23940445683E+03 -0.71491818737E+02  0.37574380751E+03  0.17200000000E+03 0.  1.
</event>
<event>
 4    1 -0.6384999E-004  0.1815399E+03  0.7818608E-02  0.1166321E+00
          5   -1    0    0  501    0  0.00000000000E+00  0.00000000000E+00  0.41197084060E+03  0.41199764988E+03  0.47000000000E+01 0. -1.
         -5   -1    0    0    0  501 -0.00000000000E+00 -0.00000000000E+00 -0.85722376889E+02  0.85851126373E+02  0.47000000000E+01 0.  1.
          6    1    1    2  502    0  0.56367475874E+02 -0.13980287649E+02  0.22794166353E+03  0.29140031358E+03  0.17200000000E+03 0. -1.
         -6    1    1    2    0  502 -0.56367475874E+02  0.13980287649E+02  0.98306800180E+02  0.20644846267E+03  0.17200000000E+03 0.  1.
</event>
<event>
 4    1 -0.6384999E-004  0.1796871E+03  0.7818608E-02  0.1168106E+00
         -5   -1    0    0    0  501 -0.00000000000E+00  0.00000000000E+00  0.83253344942E+02  0.83385906747E+02  0.47000000000E+01 0.  1.
          5   -1    0    0  501    0  0.00000000000E+00 -0.00000000000E+00 -0.39109272722E+03  0.39112096759E+03  0.47000000000E+01 0. -1.
          6    1    1    2  502    0  0.51984065672E+02 -0.10534115008E+01 -0.17707373930E+03  0.25227477462E+03  0.17200000000E+03 0. -1.
         -6    1    1    2    0  502 -0.51984065672E+02  0.10534115008E+01 -0.13076564298E+03  0.22223209971E+03  0.17200000000E+03 0.  1.
</event>
<event>
 4    1 -0.6384999E-004  0.2157499E+03  0.7818608E-02  0.1137092E+00
          5   -1    0    0  501    0  0.00000000000E+00  0.00000000000E+00  0.57438783307E+03  0.57440706192E+03  0.47000000000E+01 0. -1.
         -5   -1    0    0    0  501 -0.00000000000E+00 -0.00000000000E+00 -0.11134302254E+03  0.11144217635E+03  0.47000000000E+01 0.  1.
          6    1    1    2  502    0  0.52863794966E+02  0.11903550066E+03  0.41057583735E+03  0.46381089838E+03  0.17200000000E+03 0. -1.
         -6    1    1    2    0  502 -0.52863794966E+02 -0.11903550066E+03  0.52468973177E+02  0.22203833989E+03  0.17200000000E+03 0.  1.
</event>
<event>
 4    1 -0.6384999E-004  0.2325640E+03  0.7818608E-02  0.1124848E+00
         -5   -1    0    0    0  501 -0.00000000000E+00  0.00000000000E+00  0.10230638454E+03  0.10241428767E+03  0.47000000000E+01 0.  1.
          5   -1    0    0  501    0  0.00000000000E+00 -0.00000000000E+00 -0.89445756676E+03  0.89446991494E+03  0.47000000000E+01 0. -1.
          6    1    1    2  502    0 -0.14535840372E+03  0.58077202567E+02 -0.71497690995E+03  0.75184972484E+03  0.17200000000E+03 0. -1.
         -6    1    1    2    0  502  0.14535840372E+03 -0.58077202567E+02 -0.77174272268E+02  0.24503447776E+03  0.17200000000E+03 0.  1.
</event>
<event>
 4    1 -0.6384999E-004  0.1912368E+03  0.7818608E-02  0.1157351E+00
          5   -1    0    0  501    0  0.00000000000E+00  0.00000000000E+00  0.21115856554E+02  0.21632600353E+02  0.47000000000E+01 0. -1.
         -5   -1    0    0    0  501 -0.00000000000E+00 -0.00000000000E+00 -0.25370804962E+04  0.25370848496E+04  0.47000000000E+01 0.  1.
          6    1    1    2  502    0 -0.10994719007E+02 -0.82865109107E+02 -0.52780921619E+03  0.56138585558E+03  0.17200000000E+03 0. -1.
         -6    1    1    2    0  502  0.10994719007E+02  0.82865109107E+02 -0.19881554234E+04  0.19973315944E+04  0.17200000000E+03 0.  1.
</event>
<event>
 4    1 -0.6384999E-004  0.2479668E+03  0.7818608E-02  0.1114597E+00
          5   -1    0    0  501    0  0.00000000000E+00  0.00000000000E+00  0.15122060547E+03  0.15129362683E+03  0.47000000000E+01 0. -1.
         -5   -1    0    0    0  501 -0.00000000000E+00 -0.00000000000E+00 -0.40859918428E+03  0.40862621477E+03  0.47000000000E+01 0.  1.
          6    1    1    2  502    0 -0.16338113870E+03 -0.72181331125E+02 -0.14911588281E+03  0.28934942121E+03  0.17200000000E+03 0. -1.
         -6    1    1    2    0  502  0.16338113870E+03  0.72181331125E+02 -0.10826269599E+03  0.27057042039E+03  0.17200000000E+03 0.  1.
</event>
<event>
 4    1 -0.6384999E-004  0.2723714E+03  0.7818608E-02  0.1099930E+00
         -5   -1    0    0    0  501 -0.00000000000E+00  0.00000000000E+00  0.37807872518E+03  0.37810793754E+03  0.47000000000E+01 0.  1.
          5   -1    0    0  501    0  0.00000000000E+00 -0.00000000000E+00 -0.21709089461E+03  0.21714176596E+03  0.47000000000E+01 0. -1.
          6    1    1    2  502    0 -0.15128311188E+03  0.14736215519E+03 -0.11916804025E+02  0.27263197711E+03  0.17200000000E+03 0. -1.
         -6    1    1    2    0  502  0.15128311188E+03 -0.14736215519E+03  0.17290463459E+03  0.32261772640E+03  0.17200000000E+03 0.  1.
</event>
<event>
 4    1 -0.6384999E-004  0.2028971E+03  0.7818608E-02  0.1147317E+00
          5   -1    0    0  501    0  0.00000000000E+00  0.00000000000E+00  0.76106621697E+02  0.76251608941E+02  0.47000000000E+01 0. -1.
         -5   -1    0    0    0  501 -0.00000000000E+00 -0.00000000000E+00 -0.15756096814E+04  0.15756166913E+04  0.47000000000E+01 0.  1.
          6    1    1    2  502    0 -0.56805859498E+02  0.91412938588E+02 -0.80258830620E+02  0.21819420457E+03  0.17200000000E+03 0. -1.
         -6    1    1    2    0  502  0.56805859498E+02 -0.91412938588E+02 -0.14192442291E+04  0.14336740957E+04  0.17200000000E+03 0.  1.
</event>
<event>
 4    1 -0.6384999E-004  0.1969820E+03  0.7818608E-02  0.1152311E+00
          5   -1    0    0  501    0  0.00000000000E+00  0.00000000000E+00  0.12749083625E+03  0.12757744052E+03  0.47000000000E+01 0. -1.
         -5   -1    0    0    0  501 -0.00000000000E+00 -0.00000000000E+00 -0.42134290220E+03  0.42136911519E+03  0.47000000000E+01 0.  1.
          6    1    1    2  502    0  0.37023657134E+02  0.88584208572E+02 -0.21868781116E+01  0.19699415126E+03  0.17200000000E+03 0. -1.
         -6    1    1    2    0  502 -0.37023657134E+02 -0.88584208572E+02 -0.29166518784E+03  0.35195240444E+03  0.17200000000E+03 0.  1.
</event>
<event>
 4    1 -0.6384999E-004  0.2821821E+03  0.7818608E-02  0.1094503E+00
         -5   -1    0    0    0  501 -0.00000000000E+00  0.00000000000E+00  0.16798762661E+03  0.16805336264E+03  0.47000000000E+01 0.  1.
          5   -1    0    0  501    0  0.00000000000E+00 -0.00000000000E+00 -0.49085076624E+03  0.49087326748E+03  0.47000000000E+01 0. -1.
          6    1    1    2  502    0  0.48234589870E+02  0.21844028602E+03 -0.10009229302E+03  0.29940808496E+03  0.17200000000E+03 0. -1.
         -6    1    1    2    0  502 -0.48234589870E+02 -0.21844028602E+03 -0.22277084661E+03  0.35951854516E+03  0.17200000000E+03 0. -1.
</event>
<event>
 4    1 -0.6384999E-004  0.1847913E+03  0.7818608E-02  0.1163245E+00
         -5   -1    0    0    0  501 -0.00000000000E+00  0.00000000000E+00  0.11860057249E+04  0.11860150376E+04  0.47000000000E+01 0.  1.
          5   -1    0    0  501    0  0.00000000000E+00 -0.00000000000E+00 -0.33940406571E+02  0.34264284587E+02  0.47000000000E+01 0. -1.
          6    1    1    2  502    0  0.64705566709E+02 -0.19417254918E+02  0.81697428718E+03  0.83761257516E+03  0.17200000000E+03 0.  1.
         -6    1    1    2    0  502 -0.64705566709E+02  0.19417254918E+02  0.33509103116E+03  0.38266674707E+03  0.17200000000E+03 0. -1.
</event>
<event>
 4    1 -0.6384999E-004  0.6069348E+03  0.7818608E-02  0.9891122E-01
         -5   -1    0    0    0  501 -0.00000000000E+00  0.00000000000E+00  0.92438966942E+03  0.92440161776E+03  0.47000000000E+01 0.  1.
          5   -1    0    0  501    0  0.00000000000E+00 -0.00000000000E+00 -0.75411030050E+03  0.75412494675E+03  0.47000000000E+01 0. -1.
          6    1    1    2  502    0  0.57360758410E+03 -0.98793400653E+02 -0.49119585977E+03  0.78079649667E+03  0.17200000000E+03 0. -1.
         -6    1    1    2    0  502 -0.57360758410E+03  0.98793400653E+02  0.66147522869E+03  0.89773006785E+03  0.17200000000E+03 0.  1.
</event>
<event>
 4    1 -0.6384999E-004  0.2031776E+03  0.7818608E-02  0.1147085E+00
          5   -1    0    0  501    0  0.00000000000E+00  0.00000000000E+00  0.27015366997E+03  0.27019455102E+03  0.47000000000E+01 0. -1.
         -5   -1    0    0    0  501 -0.00000000000E+00 -0.00000000000E+00 -0.16387833504E+03  0.16394571875E+03  0.47000000000E+01 0.  1.
          6    1    1    2  502    0 -0.57684957760E+02  0.91485498996E+02  0.10976672302E+03  0.23093264031E+03  0.17200000000E+03 0.  1.
         -6    1    1    2    0  502  0.57684957760E+02 -0.91485498996E+02 -0.34913880934E+01  0.20320762946E+03  0.17200000000E+03 0.  1.
</event>
<event>
 4    1 -0.6384999E-004  0.2606057E+03  0.7818608E-02  0.1106780E+00
          5   -1    0    0  501    0  0.00000000000E+00  0.00000000000E+00  0.13096358870E+03  0.13104789799E+03  0.47000000000E+01 0. -1.
         -5   -1    0    0    0  501 -0.00000000000E+00 -0.00000000000E+00 -0.52184665349E+03  0.52186781829E+03  0.47000000000E+01 0.  1.
          6    1    1    2  502    0  0.14639121360E+03 -0.13000363545E+03 -0.16860689525E+03  0.31039268319E+03  0.17200000000E+03 0. -1.
         -6    1    1    2    0  502 -0.14639121360E+03  0.13000363545E+03 -0.22227616954E+03  0.34252303309E+03  0.17200000000E+03 0.  1.
</event>
<event>
 4    1 -0.6384999E-004  0.2064142E+03  0.7818608E-02  0.1144437E+00
         -5   -1    0    0    0  501 -0.00000000000E+00  0.00000000000E+00  0.16635982295E+03  0.16642620194E+03  0.47000000000E+01 0.  1.
          5   -1    0    0  501    0  0.00000000000E+00 -0.00000000000E+00 -0.25697084857E+03  0.25701382651E+03  0.47000000000E+01 0. -1.
          6    1    1    2  502    0  0.67513944774E+02 -0.92003812790E+02 -0.58492772575E+02  0.21454192772E+03  0.17200000000E+03 0. -1.
         -6    1    1    2    0  502 -0.67513944774E+02  0.92003812790E+02 -0.32118253048E+02  0.20889810072E+03  0.17200000000E+03 0.  1.
</event>
<event>
 4    1 -0.6384999E-004  0.2446191E+03  0.7818608E-02  0.1116753E+00
          5   -1    0    0  501    0  0.00000000000E+00  0.00000000000E+00  0.10804644711E+03  0.10814862335E+03  0.47000000000E+01 0. -1.
         -5   -1    0    0    0  501 -0.00000000000E+00 -0.00000000000E+00 -0.55348251963E+03  0.55350247474E+03  0.47000000000E+01 0.  1.
          6    1    1    2  502    0 -0.13732310864E+03  0.10675619562E+03 -0.22011713987E+03  0.32907457625E+03  0.17200000000E+03 0. -1.
         -6    1    1    2    0  502  0.13732310864E+03 -0.10675619562E+03 -0.22531893266E+03  0.33257652185E+03  0.17200000000E+03 0.  1.
</event>
<event>
 4    1 -0.6384999E-004  0.2175217E+03  0.7818608E-02  0.1135744E+00
         -5   -1    0    0    0  501 -0.00000000000E+00  0.00000000000E+00  0.10965183019E+04  0.10965283746E+04  0.47000000000E+01 0.  1.
          5   -1    0    0  501    0  0.00000000000E+00 -0.00000000000E+00 -0.58199746926E+02  0.58389215976E+02  0.47000000000E+01 0. -1.
          6    1    1    2  502    0  0.34867946702E+02  0.12851433784E+03  0.22476331339E+03  0.31278467958E+03  0.17200000000E+03 0. -1.
         -6    1    1    2    0  502 -0.34867946702E+02 -0.12851433784E+03  0.81355524156E+03  0.84213291101E+03  0.17200000000E+03 0.  1.
</event>
<event>
 4    1 -0.6384999E-004  0.2221951E+03  0.7818608E-02  0.1132257E+00
         -5   -1    0    0    0  501 -0.00000000000E+00  0.00000000000E+00  0.54224613086E+03  0.54226649945E+03  0.47000000000E+01 0.  1.
          5   -1    0    0  501    0  0.00000000000E+00 -0.00000000000E+00 -0.29226424761E+03  0.29230203631E+03  0.47000000000E+01 0. -1.
          6    1    1    2  502    0  0.98376640017E+02  0.10054206820E+03 -0.22125942649E+03  0.31357041409E+03  0.17200000000E+03 0. -1.
         -6    1    1    2    0  502 -0.98376640017E+02 -0.10054206820E+03  0.47124130974E+03  0.52099812167E+03  0.17200000000E+03 0.  1.
</event>
<event>
 4    1 -0.6384999E-004  0.2830336E+03  0.7818608E-02  0.1094043E+00
         -5   -1    0    0    0  501 -0.00000000000E+00  0.00000000000E+00  0.13458573864E+03  0.13466778028E+03  0.47000000000E+01 0.  1.
          5   -1    0    0  501    0  0.00000000000E+00 -0.00000000000E+00 -0.66126306892E+03  0.66127977159E+03  0.47000000000E+01 0. -1.
          6    1    1    2  502    0  0.22399670151E+03 -0.18695037288E+02 -0.38936035947E+03  0.48136214666E+03  0.17200000000E+03 0. -1.
         -6    1    1    2    0  502 -0.22399670151E+03  0.18695037288E+02 -0.13731697080E+03  0.31458540522E+03  0.17200000000E+03 0.  1.
</event>
<event>
 4    1 -0.6384999E-004  0.4783711E+03  0.7818608E-02  0.1019584E+00
          5   -1    0    0  501    0  0.00000000000E+00  0.00000000000E+00  0.32819445621E+03  0.32822810831E+03  0.47000000000E+01 0. -1.
         -5   -1    0    0    0  501 -0.00000000000E+00 -0.00000000000E+00 -0.12056608470E+04  0.12056700079E+04  0.47000000000E+01 0.  1.
          6    1    1    2  502    0  0.39327883733E+03  0.21115548850E+03  0.59323928447E+02  0.48203548905E+03  0.17200000000E+03 0. -1.
         -6    1    1    2    0  502 -0.39327883733E+03 -0.21115548850E+03 -0.93679031920E+03  0.10518626271E+04  0.17200000000E+03 0.  1.
</event>
<event>
 4    1 -0.6384999E-004  0.2124499E+03  0.7818608E-02  0.1139641E+00
         -5   -1    0    0    0  501 -0.00000000000E+00  0.00000000000E+00  0.36589060053E+03  0.36592078590E+03  0.47000000000E+01 0.  1.
          5   -1    0    0  501    0  0.00000000000E+00 -0.00000000000E+00 -0.13013551263E+03  0.13022035804E+03  0.47000000000E+01 0. -1.
          6    1    1    2  502    0 -0.55374071314E+02 -0.11173476089E+03  0.60950645769E+02  0.22102019316E+03  0.17200000000E+03 0. -1.
         -6    1    1    2    0  502  0.55374071314E+02  0.11173476089E+03  0.17480444213E+03  0.27512095077E+03  0.17200000000E+03 0.  1.
</event>
<event>
 4    1 -0.6384999E-004  0.2354624E+03  0.7818608E-02  0.1122853E+00
          5   -1    0    0  501    0  0.00000000000E+00  0.00000000000E+00  0.48400163770E+03  0.48402445734E+03  0.47000000000E+01 0. -1.
         -5   -1    0    0    0  501 -0.00000000000E+00 -0.00000000000E+00 -0.11488476069E+03  0.11498086031E+03  0.47000000000E+01 0.  1.
          6    1    1    2  502    0 -0.51002867895E+01 -0.16072504082E+03  0.20240118498E+03  0.31049765113E+03  0.17200000000E+03 0.  1.
         -6    1    1    2    0  502  0.51002867895E+01  0.16072504082E+03  0.16671569203E+03  0.28850766652E+03  0.17200000000E+03 0.  1.
</event>
<event>
 4    1 -0.6384999E-004  0.2026076E+03  0.7818608E-02  0.1147557E+00
         -5   -1    0    0    0  501 -0.00000000000E+00  0.00000000000E+00  0.47458696502E+03  0.47461023732E+03  0.47000000000E+01 0.  1.
          5   -1    0    0  501    0  0.00000000000E+00 -0.00000000000E+00 -0.16886296526E+03  0.16892836067E+03  0.47000000000E+01 0. -1.
          6    1    1    2  502    0 -0.99253030379E+02 -0.40183009218E+02 -0.71906404298E+02  0.21498923054E+03  0.17200000000E+03 0. -1.
         -6    1    1    2    0  502  0.99253030379E+02  0.40183009218E+02  0.37763040406E+03  0.42854936745E+03  0.17200000000E+03 0.  1.
</event>
<event>
 4    1 -0.6384999E-004  0.1792204E+03  0.7818608E-02  0.1168560E+00
          5   -1    0    0  501    0  0.00000000000E+00  0.00000000000E+00  0.16702567542E+03  0.16709178990E+03  0.47000000000E+01 0. -1.
         -5   -1    0    0    0  501 -0.00000000000E+00 -0.00000000000E+00 -0.20103426957E+03  0.20108920295E+03  0.47000000000E+01 0.  1.
          6    1    1    2  502    0 -0.22936294514E+02 -0.44831511124E+02  0.21634606191E+02  0.18052145075E+03  0.17200000000E+03 0. -1.
         -6    1    1    2    0  502  0.22936294514E+02  0.44831511124E+02 -0.55643200341E+02  0.18765954210E+03  0.17200000000E+03 0.  1.
</event>
<event>
 4    1 -0.6384999E-004  0.3710503E+03  0.7818608E-02  0.1054292E+00
          5   -1    0    0  501    0  0.00000000000E+00  0.00000000000E+00  0.32881708438E+03  0.32885067277E+03  0.47000000000E+01 0. -1.
         -5   -1    0    0    0  501 -0.00000000000E+00 -0.00000000000E+00 -0.93925716762E+03  0.93926892684E+03  0.47000000000E+01 0.  1.
          6    1    1    2  502    0  0.19009731920E+03  0.26824870286E+03  0.16682678229E+03  0.40682862810E+03  0.17200000000E+03 0. -1.
         -6    1    1    2    0  502 -0.19009731920E+03 -0.26824870286E+03 -0.77726686553E+03  0.86129097151E+03  0.17200000000E+03 0.  1.
</event>
<event>
 4    1 -0.6384999E-004  0.6509924E+03  0.7818608E-02  0.9804919E-01
         -5   -1    0    0    0  501 -0.00000000000E+00  0.00000000000E+00  0.31293390092E+03  0.31296919392E+03  0.47000000000E+01 0.  1.
          5   -1    0    0  501    0  0.00000000000E+00 -0.00000000000E+00 -0.14220490054E+04  0.14220567723E+04  0.47000000000E+01 0. -1.
          6    1    1    2  502    0  0.24413214954E+03 -0.57845184709E+03 -0.74413686447E+03  0.98870153176E+03  0.17200000000E+03 0. -1.
         -6    1    1    2    0  502 -0.24413214954E+03  0.57845184709E+03 -0.36497823999E+03  0.74632443448E+03  0.17200000000E+03 0.  1.
</event>
<event>
 4    1 -0.6384999E-004  0.2093622E+03  0.7818608E-02  0.1142072E+00
          5   -1    0    0  501    0  0.00000000000E+00  0.00000000000E+00  0.16922712915E+03  0.16929238389E+03  0.47000000000E+01 0. -1.
         -5   -1    0    0    0  501 -0.00000000000E+00 -0.00000000000E+00 -0.26098390663E+03  0.26102622381E+03  0.47000000000E+01 0.  1.
          6    1    1    2  502    0  0.65949449847E+02 -0.99494800815E+02 -0.65194670363E+02  0.21927811192E+03  0.17200000000E+03 0.  1.
         -6    1    1    2    0  502 -0.65949449847E+02  0.99494800815E+02 -0.26562107109E+02  0.21104049578E+03  0.17200000000E+03 0.  1.
</event>
<event>
 4    1 -0.6384999E-004  0.1785419E+03  0.7818608E-02  0.1169222E+00
          5   -1    0    0  501    0  0.00000000000E+00  0.00000000000E+00  0.63781534135E+03  0.63783265804E+03  0.47000000000E+01 0. -1.
         -5   -1    0    0    0  501 -0.00000000000E+00 -0.00000000000E+00 -0.64575229815E+02  0.64746044711E+02  0.47000000000E+01 0.  1.
          6    1    1    2  502    0 -0.45659980655E+02  0.14434664327E+02  0.11914726465E+03  0.21464683562E+03  0.17200000000E+03 0.  1.
         -6    1    1    2    0  502  0.45659980655E+02 -0.14434664327E+02  0.45409284689E+03  0.48793186713E+03  0.17200000000E+03 0. -1.
</event>
<event>
 4    1 -0.6384999E-004  0.2089028E+03  0.7818608E-02  0.1142438E+00
          5   -1    0    0  501    0  0.00000000000E+00  0.00000000000E+00  0.31926719574E+03  0.31930178872E+03  0.47000000000E+01 0. -1.
         -5   -1    0    0    0  501 -0.00000000000E+00 -0.00000000000E+00 -0.16428686776E+03  0.16435408398E+03  0.47000000000E+01 0.  1.
          6    1    1    2  502    0 -0.98126645426E+02  0.66539787882E+02  0.17672064409E+03  0.27362486722E+03  0.17200000000E+03 0. -1.
         -6    1    1    2    0  502  0.98126645426E+02 -0.66539787882E+02 -0.21740316113E+02  0.21003100547E+03  0.17200000000E+03 0.  1.
</event>
<event>
 4    1 -0.6384999E-004  0.2398520E+03  0.7818608E-02  0.1119891E+00
         -5   -1    0    0    0  501 -0.00000000000E+00  0.00000000000E+00  0.74963185856E+03  0.74964659231E+03  0.47000000000E+01 0.  1.
          5   -1    0    0  501    0  0.00000000000E+00 -0.00000000000E+00 -0.83049921824E+02  0.83182807808E+02  0.47000000000E+01 0. -1.
          6    1    1    2  502    0 -0.15132892300E+03  0.71024829727E+02  0.21785077719E+03  0.32401841073E+03  0.17200000000E+03 0. -1.
         -6    1    1    2    0  502  0.15132892300E+03 -0.71024829727E+02  0.44873115954E+03  0.50881098939E+03  0.17200000000E+03 0. -1.
</event>
<event>
 4    1 -0.6384999E-004  0.1983773E+03  0.7818608E-02  0.1151115E+00
         -5   -1    0    0    0  501 -0.00000000000E+00  0.00000000000E+00  0.40315741816E+02  0.40588779708E+02  0.47000000000E+01 0.  1.
          5   -1    0    0  501    0  0.00000000000E+00 -0.00000000000E+00 -0.97837363229E+03  0.97838492137E+03  0.47000000000E+01 0. -1.
          6    1    1    2  502    0 -0.83297760938E+02  0.53207383631E+02 -0.50829579746E+03  0.54563555636E+03  0.17200000000E+03 0. -1.
         -6    1    1    2    0  502  0.83297760938E+02 -0.53207383631E+02 -0.42976209301E+03  0.47333814471E+03  0.17200000000E+03 0.  1.
</event>
<event>
 4    1 -0.6384999E-004  0.2109777E+03  0.7818608E-02  0.1140794E+00
          5   -1    0    0  501    0  0.00000000000E+00  0.00000000000E+00  0.35346701376E+03  0.35349825999E+03  0.47000000000E+01 0. -1.
         -5   -1    0    0    0  501 -0.00000000000E+00 -0.00000000000E+00 -0.15144611549E+03  0.15151902817E+03  0.47000000000E+01 0.  1.
          6    1    1    2  502    0 -0.59475676386E+01  0.12203362837E+03  0.20478540619E+03  0.29402150024E+03  0.17200000000E+03 0. -1.
         -6    1    1    2    0  502  0.59475676386E+01 -0.12203362837E+03 -0.27645079172E+01  0.21099578792E+03  0.17200000000E+03 0.  1.
</event>
<event>
 4    1 -0.6384999E-004  0.2902740E+03  0.7818608E-02  0.1090206E+00
         -5   -1    0    0    0  501 -0.00000000000E+00  0.00000000000E+00  0.50149654702E+03  0.50151857062E+03  0.47000000000E+01 0.  1.
          5   -1    0    0  501    0  0.00000000000E+00 -0.00000000000E+00 -0.18591259237E+03  0.18597199252E+03  0.47000000000E+01 0. -1.
          6    1    1    2  502    0 -0.24631823507E+02  0.23252578903E+03  0.50987398261E+02  0.29471797379E+03  0.17200000000E+03 0. -1.
         -6    1    1    2    0  502  0.24631823507E+02 -0.23252578903E+03  0.26459655639E+03  0.39277258935E+03  0.17200000000E+03 0. -1.
</event>
<event>
 4    1 -0.6384999E-004  0.2976608E+03  0.7818608E-02  0.1086416E+00
         -5   -1    0    0    0  501 -0.00000000000E+00  0.00000000000E+00  0.33854954220E+03  0.33858216510E+03  0.47000000000E+01 0.  1.
          5   -1    0    0  501    0  0.00000000000E+00 -0.00000000000E+00 -0.42654411688E+03  0.42657001025E+03  0.47000000000E+01 0. -1.
          6    1    1    2  502    0 -0.24292239633E+03  0.25831350780E+01 -0.28185223830E+03  0.40993005192E+03  0.17200000000E+03 0. -1.
         -6    1    1    2    0  502  0.24292239633E+03 -0.25831350780E+01  0.19385766363E+03  0.35522212343E+03  0.17200000000E+03 0.  1.
</event>
<event>
 4    1 -0.6384999E-004  0.3784776E+03  0.7818608E-02  0.1051498E+00
         -5   -1    0    0    0  501 -0.00000000000E+00  0.00000000000E+00  0.16860802256E+03  0.16867351680E+03  0.47000000000E+01 0.  1.
          5   -1    0    0  501    0  0.00000000000E+00 -0.00000000000E+00 -0.98139191619E+03  0.98140317055E+03  0.47000000000E+01 0. -1.
          6    1    1    2  502    0  0.27066961293E+03 -0.20099567202E+03 -0.61731916831E+03  0.72410514091E+03  0.17200000000E+03 0. -1.
         -6    1    1    2    0  502 -0.27066961293E+03  0.20099567202E+03 -0.19546472532E+03  0.42597154644E+03  0.17200000000E+03 0.  1.
</event>
<event>
 4    1 -0.6384999E-004  0.2256971E+03  0.7818608E-02  0.1129705E+00
         -5   -1    0    0    0  501 -0.00000000000E+00  0.00000000000E+00  0.46529670730E+03  0.46532044424E+03  0.47000000000E+01 0.  1.
          5   -1    0    0  501    0  0.00000000000E+00 -0.00000000000E+00 -0.11120299522E+03  0.11130227377E+03  0.47000000000E+01 0. -1.
          6    1    1    2  502    0 -0.89689766548E+02  0.11537307511E+03  0.14035412213E+03  0.26577900647E+03  0.17200000000E+03 0. -1.
         -6    1    1    2    0  502  0.89689766548E+02 -0.11537307511E+03  0.21373958996E+03  0.31084371153E+03  0.17200000000E+03 0.  1.
</event>
<event>
 4    1 -0.6384999E-004  0.1819478E+03  0.7818608E-02  0.1165931E+00
         -5   -1    0    0    0  501 -0.00000000000E+00  0.00000000000E+00  0.97154329992E+03  0.97155466836E+03  0.47000000000E+01 0.  1.
          5   -1    0    0  501    0  0.00000000000E+00 -0.00000000000E+00 -0.14246116450E+03  0.14253867331E+03  0.47000000000E+01 0. -1.
          6    1    1    2  502    0  0.59199980860E+02  0.40452668328E+01 -0.71368402332E+02  0.19544423954E+03  0.17200000000E+03 0. -1.
         -6    1    1    2    0  502 -0.59199980860E+02 -0.40452668328E+01  0.90045053775E+03  0.91864910214E+03  0.17200000000E+03 0.  1.
</event>
<event>
 4    1 -0.6384999E-004  0.1850099E+03  0.7818608E-02  0.1163041E+00
         -5   -1    0    0    0  501 -0.00000000000E+00  0.00000000000E+00  0.25534516932E+03  0.25538842084E+03  0.47000000000E+01 0.  1.
          5   -1    0    0  501    0  0.00000000000E+00 -0.00000000000E+00 -0.14999721990E+03  0.15007083653E+03  0.47000000000E+01 0. -1.
          6    1    1    2  502    0 -0.53916754267E+02  0.41685118654E+02 -0.13602932960E+02  0.18550931322E+03  0.17200000000E+03 0. -1.
         -6    1    1    2    0  502  0.53916754267E+02 -0.41685118654E+02  0.11895088239E+03  0.21994994414E+03  0.17200000000E+03 0.  1.
</event>
<event>
 4    1 -0.6384999E-004  0.2097568E+03  0.7818608E-02  0.1141759E+00
          5   -1    0    0  501    0  0.00000000000E+00  0.00000000000E+00  0.79227938151E+03  0.79229332217E+03  0.47000000000E+01 0. -1.
         -5   -1    0    0    0  501 -0.00000000000E+00 -0.00000000000E+00 -0.74253467069E+02  0.74402065641E+02  0.47000000000E+01 0.  1.
          6    1    1    2  502    0 -0.53616287223E+02  0.10742067176E+03  0.14104050475E+03  0.25276536740E+03  0.17200000000E+03 0.  1.
         -6    1    1    2    0  502  0.53616287223E+02 -0.10742067176E+03  0.57698540969E+03  0.61393002042E+03  0.17200000000E+03 0. -1.
</event>
<event>
 4    1 -0.6384999E-004  0.2002813E+03  0.7818608E-02  0.1149502E+00
          5   -1    0    0  501    0  0.00000000000E+00  0.00000000000E+00  0.18920503548E+04  0.18920561924E+04  0.47000000000E+01 0. -1.
         -5   -1    0    0    0  501 -0.00000000000E+00 -0.00000000000E+00 -0.37446796967E+02  0.37740596221E+02  0.47000000000E+01 0.  1.
          6    1    1    2  502    0  0.90818213443E+02  0.47756141782E+02  0.15645353360E+04  0.15773025755E+04  0.17200000000E+03 0. -1.
         -6    1    1    2    0  502 -0.90818213443E+02 -0.47756141782E+02  0.29006822181E+03  0.35249421311E+03  0.17200000000E+03 0.  1.
</event>
<event>
 4    1 -0.6384999E-004  0.2339674E+03  0.7818608E-02  0.1123878E+00
          5   -1    0    0  501    0  0.00000000000E+00  0.00000000000E+00  0.11554264574E+03  0.11563819864E+03  0.47000000000E+01 0. -1.
         -5   -1    0    0    0  501 -0.00000000000E+00 -0.00000000000E+00 -0.51481963232E+03  0.51484108598E+03  0.47000000000E+01 0.  1.
          6    1    1    2  502    0  0.15860853475E+03  0.26893079347E+00 -0.11030572885E+03  0.25866598818E+03  0.17200000000E+03 0. -1.
         -6    1    1    2    0  502 -0.15860853475E+03 -0.26893079347E+00 -0.28897125773E+03  0.37181329644E+03  0.17200000000E+03 0.  1.
</event>
<event>
 4    1 -0.6384999E-004  0.1724728E+03  0.7818608E-02  0.1175293E+00
         -5   -1    0    0    0  501 -0.00000000000E+00  0.00000000000E+00  0.77541809304E+03  0.77543233683E+03  0.47000000000E+01 0.  1.
          5   -1    0    0  501    0  0.00000000000E+00 -0.00000000000E+00 -0.39485353101E+02  0.39764093219E+02  0.47000000000E+01 0. -1.
          6    1    1    2  502    0 -0.32629677915E+01 -0.12337910690E+02  0.29480881243E+03  0.34155395896E+03  0.17200000000E+03 0. -1.
         -6    1    1    2    0  502  0.32629677915E+01  0.12337910690E+02  0.44112392751E+03  0.47364247109E+03  0.17200000000E+03 0.  1.
</event>
<event>
 4    1 -0.6384999E-004  0.2862676E+03  0.7818608E-02  0.1092314E+00
         -5   -1    0    0    0  501 -0.00000000000E+00  0.00000000000E+00  0.26483941864E+03  0.26488111987E+03  0.47000000000E+01 0.  1.
          5   -1    0    0  501    0  0.00000000000E+00 -0.00000000000E+00 -0.39980836621E+03  0.39983599099E+03  0.47000000000E+01 0. -1.
          6    1    1    2  502    0 -0.17944104172E+03 -0.14200727989E+03 -0.22556406535E+03  0.36445617374E+03  0.17200000000E+03 0. -1.
         -6    1    1    2    0  502  0.17944104172E+03  0.14200727989E+03  0.90595117784E+02  0.30026093713E+03  0.17200000000E+03 0.  1.
</event>
<event>
 4    1 -0.6384999E-004  0.2140994E+03  0.7818608E-02  0.1138360E+00
          5   -1    0    0  501    0  0.00000000000E+00  0.00000000000E+00  0.66674904297E+02  0.66840353552E+02  0.47000000000E+01 0. -1.
         -5   -1    0    0    0  501 -0.00000000000E+00 -0.00000000000E+00 -0.71750507534E+03  0.71752046880E+03  0.47000000000E+01 0.  1.
          6    1    1    2  502    0  0.99735625672E+02  0.79418874270E+02 -0.24385839235E+03  0.32450804018E+03  0.17200000000E+03 0. -1.
         -6    1    1    2    0  502 -0.99735625672E+02 -0.79418874270E+02 -0.40697177869E+03  0.45985278217E+03  0.17200000000E+03 0.  1.
</event>
<event>
 4    1 -0.6384999E-004  0.2584472E+03  0.7818608E-02  0.1108080E+00
         -5   -1    0    0    0  501 -0.00000000000E+00  0.00000000000E+00  0.41989990836E+03  0.41992621142E+03  0.47000000000E+01 0.  1.
          5   -1    0    0  501    0  0.00000000000E+00 -0.00000000000E+00 -0.19377893083E+03  0.19383592039E+03  0.47000000000E+01 0. -1.
          6    1    1    2  502    0 -0.17058780380E+03  0.90059873419E+02 -0.16904803553E+02  0.25899952121E+03  0.17200000000E+03 0.  1.
         -6    1    1    2    0  502  0.17058780380E+03 -0.90059873419E+02  0.24302578108E+03  0.35476261060E+03  0.17200000000E+03 0.  1.
</event>
<event>
 4    1 -0.6384999E-004  0.1836661E+03  0.7818608E-02  0.1164301E+00
         -5   -1    0    0    0  501 -0.00000000000E+00  0.00000000000E+00  0.20372837591E+02  0.20907953307E+02  0.47000000000E+01 0.  1.
          5   -1    0    0  501    0  0.00000000000E+00 -0.00000000000E+00 -0.18517636395E+04  0.18517696041E+04  0.47000000000E+01 0. -1.
          6    1    1    2  502    0 -0.16384762427E+02  0.62295945739E+02 -0.12368956907E+04  0.12504575942E+04  0.17200000000E+03 0. -1.
         -6    1    1    2    0  502  0.16384762427E+02 -0.62295945739E+02 -0.59449511126E+03  0.62221996320E+03  0.17200000000E+03 0. -1.
</event>
<event>
 4    1 -0.6384999E-004  0.1722382E+03  0.7818608E-02  0.1175534E+00
          5   -1    0    0  501    0  0.00000000000E+00  0.00000000000E+00  0.12120788093E+03  0.12129897114E+03  0.47000000000E+01 0. -1.
         -5   -1    0    0    0  501 -0.00000000000E+00 -0.00000000000E+00 -0.54992046961E+03  0.54994055397E+03  0.47000000000E+01 0.  1.
          6    1    1    2  502    0 -0.22090576567E+01  0.87814862873E+01 -0.46442773539E+03  0.49533737577E+03  0.17200000000E+03 0.  1.
         -6    1    1    2    0  502  0.22090576567E+01 -0.87814862873E+01  0.35715146705E+02  0.17590214934E+03  0.17200000000E+03 0. -1.
</event>
<event>
 4    1 -0.6384999E-004  0.2891672E+03  0.7818608E-02  0.1090785E+00
          5   -1    0    0  501    0  0.00000000000E+00  0.00000000000E+00  0.58613966162E+03  0.58615850494E+03  0.47000000000E+01 0. -1.
         -5   -1    0    0    0  501 -0.00000000000E+00 -0.00000000000E+00 -0.14698800862E+03  0.14706313161E+03  0.47000000000E+01 0.  1.
          6    1    1    2  502    0 -0.18221063430E+03 -0.14433618644E+03  0.28290993330E+03  0.40454379284E+03  0.17200000000E+03 0. -1.
         -6    1    1    2    0  502  0.18221063430E+03  0.14433618644E+03  0.15624171970E+03  0.32867784370E+03  0.17200000000E+03 0.  1.
</event>
<event>
 4    1 -0.6384999E-004  0.1788617E+03  0.7818608E-02  0.1168909E+00
          5   -1    0    0  501    0  0.00000000000E+00  0.00000000000E+00  0.15858524841E+03  0.15865488021E+03  0.47000000000E+01 0. -1.
         -5   -1    0    0    0  501 -0.00000000000E+00 -0.00000000000E+00 -0.27655909859E+03  0.27659903292E+03  0.47000000000E+01 0.  1.
          6    1    1    2  502    0  0.36807502249E+02  0.32445699910E+02  0.54297373291E+02  0.18692169593E+03  0.17200000000E+03 0. -1.
         -6    1    1    2    0  502 -0.36807502249E+02 -0.32445699910E+02 -0.17227122347E+03  0.24833221720E+03  0.17200000000E+03 0.  1.
</event>
<event>
 4    1 -0.6384999E-004  0.3329741E+03  0.7818608E-02  0.1069828E+00
         -5   -1    0    0    0  501 -0.00000000000E+00  0.00000000000E+00  0.23096237847E+03  0.23101019516E+03  0.47000000000E+01 0.  1.
          5   -1    0    0  501    0  0.00000000000E+00 -0.00000000000E+00 -0.81686147668E+03  0.81687499784E+03  0.47000000000E+01 0. -1.
          6    1    1    2  502    0 -0.16993708243E+03 -0.22893044378E+03 -0.62943049071E+03  0.71207759599E+03  0.17200000000E+03 0. -1.
         -6    1    1    2    0  502  0.16993708243E+03  0.22893044378E+03  0.43531392494E+02  0.33580759700E+03  0.17200000000E+03 0.  1.
</event>
<event>
 4    1 -0.6384999E-004  0.6250009E+03  0.7818608E-02  0.9854853E-01
         -5   -1    0    0    0  501 -0.00000000000E+00  0.00000000000E+00  0.13098882405E+04  0.13098966725E+04  0.47000000000E+01 0.  1.
          5   -1    0    0  501    0  0.00000000000E+00 -0.00000000000E+00 -0.37498640539E+03  0.37501585864E+03  0.47000000000E+01 0. -1.
          6    1    1    2  502    0 -0.30560522577E+02 -0.60009013173E+03  0.86210517415E+02  0.63091866755E+03  0.17200000000E+03 0. -1.
         -6    1    1    2    0  502  0.30560522577E+02  0.60009013173E+03  0.84869131771E+03  0.10539938636E+04  0.17200000000E+03 0.  1.
</event>
<event>
 4    1 -0.6384999E-004  0.2752651E+03  0.7818608E-02  0.1098304E+00
         -5   -1    0    0    0  501 -0.00000000000E+00  0.00000000000E+00  0.73364055226E+03  0.73365560716E+03  0.47000000000E+01 0.  1.
          5   -1    0    0  501    0  0.00000000000E+00 -0.00000000000E+00 -0.10417441563E+03  0.10428038585E+03  0.47000000000E+01 0. -1.
          6    1    1    2  502    0 -0.19411483688E+03 -0.92229604988E+02  0.27446670531E+03  0.38871949045E+03  0.17200000000E+03 0. -1.
         -6    1    1    2    0  502  0.19411483688E+03  0.92229604988E+02  0.35499943132E+03  0.44921650255E+03  0.17200000000E+03 0.  1.
</event>
<event>
 4    1 -0.6384999E-004  0.2071572E+03  0.7818608E-02  0.1143837E+00
          5   -1    0    0  501    0  0.00000000000E+00  0.00000000000E+00  0.18326615576E+03  0.18332641339E+03  0.47000000000E+01 0. -1.
         -5   -1    0    0    0  501 -0.00000000000E+00 -0.00000000000E+00 -0.45848909466E+03  0.45851318402E+03  0.47000000000E+01 0.  1.
          6    1    1    2  502    0  0.10955211026E+03 -0.36447686013E+02  0.86903431432E+02  0.22464706780E+03  0.17200000000E+03 0. -1.
         -6    1    1    2    0  502 -0.10955211026E+03  0.36447686013E+02 -0.36212637033E+03  0.41719252962E+03  0.17200000000E+03 0.  1.
</event>
<event>
 4    1 -0.6384999E-004  0.1179247E+04  0.7818608E-02  0.9131218E-01
         -5   -1    0    0    0  501 -0.00000000000E+00  0.00000000000E+00  0.13131199666E+04  0.13131283778E+04  0.47000000000E+01 0.  1.
          5   -1    0    0  501    0  0.00000000000E+00 -0.00000000000E+00 -0.13018639164E+04  0.13018724004E+04  0.47000000000E+01 0. -1.
          6    1    1    2  502    0  0.10180279110E+04  0.56978769770E+03 -0.55909195290E+03  0.13050695996E+04  0.17200000000E+03 0. -1.
         -6    1    1    2    0  502 -0.10180279110E+04 -0.56978769770E+03  0.57034800302E+03  0.13099311786E+04  0.17200000000E+03 0.  1.
</event>
<event>
 4    1 -0.6384999E-004  0.2072882E+03  0.7818608E-02  0.1143732E+00
         -5   -1    0    0    0  501 -0.00000000000E+00  0.00000000000E+00  0.17007665436E+03  0.17014158327E+03  0.47000000000E+01 0.  1.
          5   -1    0    0  501    0  0.00000000000E+00 -0.00000000000E+00 -0.27821428483E+03  0.27825398161E+03  0.47000000000E+01 0. -1.
          6    1    1    2  502    0 -0.62803025144E+02 -0.97160608967E+02  0.14069547628E+02  0.20776514643E+03  0.17200000000E+03 0.  1.
         -6    1    1    2    0  502  0.62803025144E+02  0.97160608967E+02 -0.12220717810E+03  0.24063041844E+03  0.17200000000E+03 0. -1.
</event>
<event>
 4    1 -0.6384999E-004  0.2848350E+03  0.7818608E-02  0.1093077E+00
         -5   -1    0    0    0  501 -0.00000000000E+00  0.00000000000E+00  0.39845044291E+03  0.39847816183E+03  0.47000000000E+01 0.  1.
          5   -1    0    0  501    0  0.00000000000E+00 -0.00000000000E+00 -0.33091837559E+03  0.33095175072E+03  0.47000000000E+01 0. -1.
          6    1    1    2  502    0 -0.21112718125E+03  0.83500330842E+02 -0.19247407586E+03  0.34376919844E+03  0.17200000000E+03 0. -1.
         -6    1    1    2    0  502  0.21112718125E+03 -0.83500330842E+02  0.26000614318E+03  0.38566071411E+03  0.17200000000E+03 0.  1.
</event>
<event>
 4    1 -0.6384999E-004  0.1768026E+03  0.7818608E-02  0.1170934E+00
         -5   -1    0    0    0  501 -0.00000000000E+00  0.00000000000E+00  0.11951391664E+04  0.11951484080E+04  0.47000000000E+01 0.  1.
          5   -1    0    0  501    0  0.00000000000E+00 -0.00000000000E+00 -0.25948089360E+02  0.26370311743E+02  0.47000000000E+01 0. -1.
          6    1    1    2  502    0  0.25960897636E+01  0.40846208921E+02  0.57082461050E+03  0.59757835337E+03  0.17200000000E+03 0. -1.
         -6    1    1    2    0  502 -0.25960897636E+01 -0.40846208921E+02  0.59836646652E+03  0.62394036632E+03  0.17200000000E+03 0. -1.
</event>
<event>
 4    1 -0.6384999E-004  0.1743206E+03  0.7818608E-02  0.1173416E+00
         -5   -1    0    0    0  501 -0.00000000000E+00  0.00000000000E+00  0.38363135645E+03  0.38366014603E+03  0.47000000000E+01 0.  1.
          5   -1    0    0  501    0  0.00000000000E+00 -0.00000000000E+00 -0.79805902881E+02  0.79944181368E+02  0.47000000000E+01 0. -1.
          6    1    1    2  502    0 -0.28327163051E+02 -0.11178604587E+01  0.13027576474E+03  0.21762227059E+03  0.17200000000E+03 0. -1.
         -6    1    1    2    0  502  0.28327163051E+02  0.11178604587E+01  0.17354968883E+03  0.24598205681E+03  0.17200000000E+03 0.  1.
</event>
<event>
 4    1 -0.6384999E-004  0.1938551E+03  0.7818608E-02  0.1155030E+00
          5   -1    0    0  501    0  0.00000000000E+00  0.00000000000E+00  0.14707931489E+03  0.14715439127E+03  0.47000000000E+01 0. -1.
         -5   -1    0    0    0  501 -0.00000000000E+00 -0.00000000000E+00 -0.25547584423E+03  0.25551907362E+03  0.47000000000E+01 0.  1.
          6    1    1    2  502    0  0.70883010398E+02  0.54510542206E+02 -0.58751256098E+02  0.20256236192E+03  0.17200000000E+03 0. -1.
         -6    1    1    2    0  502 -0.70883010398E+02 -0.54510542206E+02 -0.49645273235E+02  0.20011110296E+03  0.17200000000E+03 0.  1.
</event>
<event>
 4    1 -0.6384999E-004  0.2055082E+03  0.7818608E-02  0.1145173E+00
          5   -1    0    0  501    0  0.00000000000E+00  0.00000000000E+00  0.11235466082E+03  0.11245292263E+03  0.47000000000E+01 0. -1.
         -5   -1    0    0    0  501 -0.00000000000E+00 -0.00000000000E+00 -0.53429967645E+03  0.53432034797E+03  0.47000000000E+01 0.  1.
          6    1    1    2  502    0  0.11214241230E+03 -0.85851301926E+01 -0.34757695293E+02  0.20842677966E+03  0.17200000000E+03 0. -1.
         -6    1    1    2    0  502 -0.11214241230E+03  0.85851301926E+01 -0.38718732033E+03  0.43834649094E+03  0.17200000000E+03 0.  1.
</event>
<event>
 4    1 -0.6384999E-004  0.3854582E+03  0.7818608E-02  0.1048935E+00
         -5   -1    0    0    0  501 -0.00000000000E+00  0.00000000000E+00  0.53972275161E+03  0.53974321544E+03  0.47000000000E+01 0.  1.
          5   -1    0    0  501    0  0.00000000000E+00 -0.00000000000E+00 -0.77093752073E+03  0.77095184731E+03  0.47000000000E+01 0. -1.
          6    1    1    2  502    0 -0.34282375647E+03 -0.38286519945E+02 -0.64108837864E+03  0.74804565024E+03  0.17200000000E+03 0. -1.
         -6    1    1    2    0  502  0.34282375647E+03  0.38286519945E+02  0.40987360952E+03  0.56264941251E+03  0.17200000000E+03 0.  1.
</event>
<event>
 4    1 -0.6384999E-004  0.2630023E+03  0.7818608E-02  0.1105353E+00
          5   -1    0    0  501    0  0.00000000000E+00  0.00000000000E+00  0.57712108969E+03  0.57714022747E+03  0.47000000000E+01 0. -1.
         -5   -1    0    0    0  501 -0.00000000000E+00 -0.00000000000E+00 -0.11998482550E+03  0.12007684353E+03  0.47000000000E+01 0.  1.
          6    1    1    2  502    0 -0.16580793766E+03 -0.10997235515E+03  0.24272926421E+03  0.35789340144E+03  0.17200000000E+03 0. -1.
         -6    1    1    2    0  502  0.16580793766E+03  0.10997235515E+03  0.21440699997E+03  0.33932366956E+03  0.17200000000E+03 0.  1.
</event>
<event>
 4    1 -0.6384999E-004  0.3106884E+03  0.7818608E-02  0.1080016E+00
         -5   -1    0    0    0  501 -0.00000000000E+00  0.00000000000E+00  0.79303997100E+03  0.79305389829E+03  0.47000000000E+01 0.  1.
          5   -1    0    0  501    0  0.00000000000E+00 -0.00000000000E+00 -0.20142928439E+03  0.20148411007E+03  0.47000000000E+01 0. -1.
          6    1    1    2  502    0  0.25267713671E+03  0.55655558563E+02  0.60867309201E+03  0.68338145244E+03  0.17200000000E+03 0.  1.
         -6    1    1    2    0  502 -0.25267713671E+03 -0.55655558563E+02 -0.17062405402E+02  0.31115655592E+03  0.17200000000E+03 0. -1.
</event>
<event>
 4    1 -0.6384999E-004  0.2565155E+03  0.7818608E-02  0.1109255E+00
          5   -1    0    0  501    0  0.00000000000E+00  0.00000000000E+00  0.39580602137E+03  0.39583392547E+03  0.47000000000E+01 0. -1.
         -5   -1    0    0    0  501 -0.00000000000E+00 -0.00000000000E+00 -0.17834766532E+03  0.17840958417E+03  0.47000000000E+01 0.  1.
          6    1    1    2  502    0  0.78484055530E+02  0.17336792010E+03  0.33742173103E+02  0.25872517647E+03  0.17200000000E+03 0. -1.
         -6    1    1    2    0  502 -0.78484055530E+02 -0.17336792010E+03  0.18371618294E+03  0.31551833317E+03  0.17200000000E+03 0. -1.
</event>
<event>
 4    1 -0.6384999E-004  0.2134950E+03  0.7818608E-02  0.1138828E+00
         -5   -1    0    0    0  501 -0.00000000000E+00  0.00000000000E+00  0.75123541497E+03  0.75125011728E+03  0.47000000000E+01 0.  1.
          5   -1    0    0  501    0  0.00000000000E+00 -0.00000000000E+00 -0.14402403480E+03  0.14410070298E+03  0.47000000000E+01 0. -1.
          6    1    1    2  502    0  0.82670110848E+02  0.95717163119E+02 -0.37005987465E+02  0.21667848451E+03  0.17200000000E+03 0. -1.
         -6    1    1    2    0  502 -0.82670110848E+02 -0.95717163119E+02  0.64421736764E+03  0.67867233575E+03  0.17200000000E+03 0.  1.
</event>
<event>
 4    1 -0.6384999E-004  0.2356299E+03  0.7818608E-02  0.1122739E+00
          5   -1    0    0  501    0  0.00000000000E+00  0.00000000000E+00  0.30696365441E+03  0.30699963376E+03  0.47000000000E+01 0. -1.
         -5   -1    0    0    0  501 -0.00000000000E+00 -0.00000000000E+00 -0.22324890444E+03  0.22329837289E+03  0.47000000000E+01 0.  1.
          6    1    1    2  502    0 -0.11877810573E+03  0.10876223573E+03  0.15745808008E+03  0.28339814626E+03  0.17200000000E+03 0. -1.
         -6    1    1    2    0  502  0.11877810573E+03 -0.10876223573E+03 -0.73743330110E+02  0.24689986039E+03  0.17200000000E+03 0.  1.
</event>
<event>
 4    1 -0.6384999E-004  0.2941919E+03  0.7818608E-02  0.1088181E+00
         -5   -1    0    0    0  501 -0.00000000000E+00  0.00000000000E+00  0.21824615365E+03  0.21829675578E+03  0.47000000000E+01 0.  1.
          5   -1    0    0  501    0  0.00000000000E+00 -0.00000000000E+00 -0.95597246777E+03  0.95598402138E+03  0.47000000000E+01 0. -1.
          6    1    1    2  502    0 -0.20624573743E+03  0.12011492076E+03 -0.81803250572E+03  0.86932507086E+03  0.17200000000E+03 0. -1.
         -6    1    1    2    0  502  0.20624573743E+03 -0.12011492076E+03  0.80306191603E+02  0.30495570630E+03  0.17200000000E+03 0.  1.
</event>
<event>
 4    1 -0.6384999E-004  0.2294184E+03  0.7818608E-02  0.1127050E+00
         -5   -1    0    0    0  501 -0.00000000000E+00  0.00000000000E+00  0.11010431760E+04  0.11010532074E+04  0.47000000000E+01 0.  1.
          5   -1    0    0  501    0  0.00000000000E+00 -0.00000000000E+00 -0.73699559579E+02  0.73849272725E+02  0.47000000000E+01 0. -1.
          6    1    1    2  502    0  0.20938799271E+02 -0.15036747869E+03  0.16507324078E+03  0.28263401562E+03  0.17200000000E+03 0. -1.
         -6    1    1    2    0  502 -0.20938799271E+02  0.15036747869E+03  0.86227037565E+03  0.89226846447E+03  0.17200000000E+03 0.  1.
</event>
<event>
 4    1 -0.6384999E-004  0.3406426E+03  0.7818608E-02  0.1066523E+00
          5   -1    0    0  501    0  0.00000000000E+00  0.00000000000E+00  0.36763291154E+03  0.36766295387E+03  0.47000000000E+01 0. -1.
         -5   -1    0    0    0  501 -0.00000000000E+00 -0.00000000000E+00 -0.37938614682E+03  0.37941525852E+03  0.47000000000E+01 0.  1.
          6    1    1    2  502    0 -0.89931706790E+02  0.27993868588E+03  0.14730744571E+03  0.37112917333E+03  0.17200000000E+03 0. -1.
         -6    1    1    2    0  502  0.89931706790E+02 -0.27993868588E+03 -0.15906068099E+03  0.37594903906E+03  0.17200000000E+03 0.  1.
</event>
<event>
 4    1 -0.6384999E-004  0.3045263E+03  0.7818608E-02  0.1083000E+00
         -5   -1    0    0    0  501 -0.00000000000E+00  0.00000000000E+00  0.10350034698E+04  0.10350141412E+04  0.47000000000E+01 0.  1.
          5   -1    0    0  501    0  0.00000000000E+00 -0.00000000000E+00 -0.15704703920E+03  0.15711735271E+03  0.47000000000E+01 0. -1.
          6    1    1    2  502    0  0.24631819289E+03 -0.49795947188E+02  0.48275501431E+02  0.30832906535E+03  0.17200000000E+03 0. -1.
         -6    1    1    2    0  502 -0.24631819289E+03  0.49795947188E+02  0.82968092919E+03  0.88380242858E+03  0.17200000000E+03 0.  1.
</event>
<event>
 4    1 -0.6384999E-004  0.2700314E+03  0.7818608E-02  0.1101262E+00
         -5   -1    0    0    0  501 -0.00000000000E+00  0.00000000000E+00  0.32056654417E+03  0.32060099694E+03  0.47000000000E+01 0.  1.
          5   -1    0    0  501    0  0.00000000000E+00 -0.00000000000E+00 -0.22767681751E+03  0.22772532409E+03  0.47000000000E+01 0. -1.
          6    1    1    2  502    0  0.44011224737E+02 -0.20346004686E+03  0.36747787283E+02  0.27252041839E+03  0.17200000000E+03 0. -1.
         -6    1    1    2    0  502 -0.44011224737E+02  0.20346004686E+03  0.56141939380E+02  0.27580590263E+03  0.17200000000E+03 0. -1.
</event>
<event>
 4    1 -0.6384999E-004  0.1836117E+03  0.7818608E-02  0.1164353E+00
         -5   -1    0    0    0  501 -0.00000000000E+00  0.00000000000E+00  0.26367239216E+03  0.26371427793E+03  0.47000000000E+01 0.  1.
          5   -1    0    0  501    0  0.00000000000E+00 -0.00000000000E+00 -0.17612134112E+03  0.17618404240E+03  0.47000000000E+01 0. -1.
          6    1    1    2  502    0 -0.51541663688E+02  0.38375802472E+02 -0.71436825407E+02  0.19701894664E+03  0.17200000000E+03 0. -1.
         -6    1    1    2    0  502  0.51541663688E+02 -0.38375802472E+02  0.15898787644E+03  0.24287937370E+03  0.17200000000E+03 0.  1.
</event>
<event>
 4    1 -0.6384999E-004  0.2127960E+03  0.7818608E-02  0.1139371E+00
         -5   -1    0    0    0  501 -0.00000000000E+00  0.00000000000E+00  0.34310142240E+03  0.34313361254E+03  0.47000000000E+01 0.  1.
          5   -1    0    0  501    0  0.00000000000E+00 -0.00000000000E+00 -0.13914442978E+03  0.13922378511E+03  0.47000000000E+01 0. -1.
          6    1    1    2  502    0 -0.53995014038E+01 -0.12517587805E+03  0.46964872085E+02  0.21791708118E+03  0.17200000000E+03 0. -1.
         -6    1    1    2    0  502  0.53995014038E+01  0.12517587805E+03  0.15699212053E+03  0.26444031646E+03  0.17200000000E+03 0.  1.
</event>
<event>
 4    1 -0.6384999E-004  0.1980143E+03  0.7818608E-02  0.1151425E+00
         -5   -1    0    0    0  501 -0.00000000000E+00  0.00000000000E+00  0.20398600257E+03  0.20404014126E+03  0.47000000000E+01 0.  1.
          5   -1    0    0  501    0  0.00000000000E+00 -0.00000000000E+00 -0.20768885532E+03  0.20774202902E+03  0.47000000000E+01 0. -1.
          6    1    1    2  502    0 -0.47699866668E+02  0.85734421052E+02 -0.58227839235E+02  0.20639803656E+03  0.17200000000E+03 0. -1.
         -6    1    1    2    0  502  0.47699866668E+02 -0.85734421052E+02  0.54524986490E+02  0.20538413372E+03  0.17200000000E+03 0. -1.
</event>
<event>
 4    1 -0.6384999E-004  0.1794180E+03  0.7818608E-02  0.1168367E+00
         -5   -1    0    0    0  501 -0.00000000000E+00  0.00000000000E+00  0.18536057246E+04  0.18536116833E+04  0.47000000000E+01 0.  1.
          5   -1    0    0  501    0  0.00000000000E+00 -0.00000000000E+00 -0.17586545970E+02  0.18203752337E+02  0.47000000000E+01 0. -1.
          6    1    1    2  502    0  0.41900308076E+02 -0.29175054836E+02  0.10797370337E+04  0.10945423160E+04  0.17200000000E+03 0.  1.
         -6    1    1    2    0  502 -0.41900308076E+02  0.29175054836E+02  0.75628214501E+03  0.77727311963E+03  0.17200000000E+03 0. -1.
</event>
<event>
 4    1 -0.6384999E-004  0.3814353E+03  0.7818608E-02  0.1050405E+00
         -5   -1    0    0    0  501 -0.00000000000E+00  0.00000000000E+00  0.73868904700E+03  0.73870399902E+03  0.47000000000E+01 0.  1.
          5   -1    0    0  501    0  0.00000000000E+00 -0.00000000000E+00 -0.24727877707E+03  0.24732343923E+03  0.47000000000E+01 0. -1.
          6    1    1    2  502    0 -0.15584585871E+03  0.30268958394E+03  0.23239413130E+02  0.38214262550E+03  0.17200000000E+03 0. -1.
         -6    1    1    2    0  502  0.15584585871E+03 -0.30268958394E+03  0.46817085680E+03  0.60388481274E+03  0.17200000000E+03 0.  1.
</event>
<event>
 4    1 -0.6384999E-004  0.3130096E+03  0.7818608E-02  0.1078912E+00
         -5   -1    0    0    0  501 -0.00000000000E+00  0.00000000000E+00  0.17628072305E+03  0.17634336766E+03  0.47000000000E+01 0.  1.
          5   -1    0    0  501    0  0.00000000000E+00 -0.00000000000E+00 -0.63580162591E+03  0.63581899744E+03  0.47000000000E+01 0. -1.
          6    1    1    2  502    0 -0.70797035829E+02  0.25175148457E+03 -0.37396063341E+03  0.48766954550E+03  0.17200000000E+03 0. -1.
         -6    1    1    2    0  502  0.70797035829E+02 -0.25175148457E+03 -0.85560269451E+02  0.32449281961E+03  0.17200000000E+03 0.  1.
</event>
<event>
 4    1 -0.6384999E-004  0.2951157E+03  0.7818608E-02  0.1087708E+00
          5   -1    0    0  501    0  0.00000000000E+00  0.00000000000E+00  0.56520733355E+02  0.56715811720E+02  0.47000000000E+01 0. -1.
         -5   -1    0    0    0  501 -0.00000000000E+00 -0.00000000000E+00 -0.16521589478E+04  0.16521656329E+04  0.47000000000E+01 0.  1.
          6    1    1    2  502    0 -0.10517428687E+03  0.21551720312E+03 -0.57328681354E+03  0.64478761312E+03  0.17200000000E+03 0. -1.
         -6    1    1    2    0  502  0.10517428687E+03 -0.21551720312E+03 -0.10223514009E+04  0.10640938315E+04  0.17200000000E+03 0.  1.
</event>
<event>
 4    1 -0.6384999E-004  0.1900290E+03  0.7818608E-02  0.1158435E+00
         -5   -1    0    0    0  501 -0.00000000000E+00  0.00000000000E+00  0.15445392239E+03  0.15452541584E+03  0.47000000000E+01 0.  1.
          5   -1    0    0  501    0  0.00000000000E+00 -0.00000000000E+00 -0.24511697521E+03  0.24516203118E+03  0.47000000000E+01 0. -1.
          6    1    1    2  502    0  0.37271701573E+01 -0.80703998110E+02 -0.88547691650E+02  0.20964665703E+03  0.17200000000E+03 0. -1.
         -6    1    1    2    0  502 -0.37271701573E+01  0.80703998110E+02 -0.21153611676E+01  0.19004078999E+03  0.17200000000E+03 0. -1.
</event>
<event>
 4    1 -0.6384999E-004  0.1871003E+03  0.7818608E-02  0.1161103E+00
         -5   -1    0    0    0  501 -0.00000000000E+00  0.00000000000E+00  0.19107035418E+03  0.19112815137E+03  0.47000000000E+01 0.  1.
          5   -1    0    0  501    0  0.00000000000E+00 -0.00000000000E+00 -0.18763651414E+03  0.18769536872E+03  0.47000000000E+01 0. -1.
          6    1    1    2  502    0 -0.52484892541E+02  0.51651300582E+02  0.31168872482E+02  0.18967872682E+03  0.17200000000E+03 0. -1.
         -6    1    1    2    0  502  0.52484892541E+02 -0.51651300582E+02 -0.27735032445E+02  0.18914479327E+03  0.17200000000E+03 0.  1.
</event>
<event>
 4    1 -0.6384999E-004  0.1924245E+03  0.7818608E-02  0.1156293E+00
          5   -1    0    0  501    0  0.00000000000E+00  0.00000000000E+00  0.54479656344E+02  0.54682016746E+02  0.47000000000E+01 0. -1.
         -5   -1    0    0    0  501 -0.00000000000E+00 -0.00000000000E+00 -0.15811334978E+04  0.15811404833E+04  0.47000000000E+01 0.  1.
          6    1    1    2  502    0  0.63572195811E+02 -0.58324532104E+02 -0.14527497270E+03  0.24110577102E+03  0.17200000000E+03 0. -1.
         -6    1    1    2    0  502 -0.63572195811E+02  0.58324532104E+02 -0.13813788688E+04  0.13947167290E+04  0.17200000000E+03 0.  1.
</event>
<event>
 4    1 -0.6384999E-004  0.1940222E+03  0.7818608E-02  0.1154883E+00
          5   -1    0    0  501    0  0.00000000000E+00  0.00000000000E+00  0.65764460882E+02  0.65932194830E+02  0.47000000000E+01 0. -1.
         -5   -1    0    0    0  501 -0.00000000000E+00 -0.00000000000E+00 -0.65000863011E+03  0.65002562197E+03  0.47000000000E+01 0.  1.
          6    1    1    2  502    0 -0.19482400315E+02 -0.87641575644E+02 -0.16773682210E+03  0.25647660945E+03  0.17200000000E+03 0. -1.
         -6    1    1    2    0  502  0.19482400315E+02  0.87641575644E+02 -0.41650734712E+03  0.45948120735E+03  0.17200000000E+03 0.  1.
</event>
<event>
 4    1 -0.6384999E-004  0.1792122E+03  0.7818608E-02  0.1168568E+00
          5   -1    0    0  501    0  0.00000000000E+00  0.00000000000E+00  0.12408047443E+03  0.12416945733E+03  0.47000000000E+01 0. -1.
         -5   -1    0    0    0  501 -0.00000000000E+00 -0.00000000000E+00 -0.25906080328E+03  0.25910343455E+03  0.47000000000E+01 0.  1.
          6    1    1    2  502    0 -0.35078700511E+02 -0.36090227743E+02 -0.59742199702E+02  0.18890778225E+03  0.17200000000E+03 0. -1.
         -6    1    1    2    0  502  0.35078700511E+02  0.36090227743E+02 -0.75238129152E+02  0.19436510964E+03  0.17200000000E+03 0. -1.
</event>
<event>
 4    1 -0.6384999E-004  0.2452134E+03  0.7818608E-02  0.1116368E+00
          5   -1    0    0  501    0  0.00000000000E+00  0.00000000000E+00  0.30823956874E+03  0.30827539918E+03  0.47000000000E+01 0. -1.
         -5   -1    0    0    0  501 -0.00000000000E+00 -0.00000000000E+00 -0.23991663247E+03  0.23996266488E+03  0.47000000000E+01 0.  1.
          6    1    1    2  502    0  0.17469891800E+03 -0.50883319787E+01  0.15274918047E+03  0.28889775909E+03  0.17200000000E+03 0. -1.
         -6    1    1    2    0  502 -0.17469891800E+03  0.50883319787E+01 -0.84426244203E+02  0.25934030497E+03  0.17200000000E+03 0.  1.
</event>
<event>
 4    1 -0.6384999E-004  0.2118767E+03  0.7818608E-02  0.1140088E+00
          5   -1    0    0  501    0  0.00000000000E+00  0.00000000000E+00  0.19351650750E+03  0.19357357432E+03  0.47000000000E+01 0. -1.
         -5   -1    0    0    0  501 -0.00000000000E+00 -0.00000000000E+00 -0.24829009280E+03  0.24833457307E+03  0.47000000000E+01 0.  1.
          6    1    1    2  502    0 -0.11503858131E+03 -0.45539871356E+02 -0.84206780990E+02  0.22799679173E+03  0.17200000000E+03 0.  1.
         -6    1    1    2    0  502  0.11503858131E+03  0.45539871356E+02  0.29433195688E+02  0.21391135566E+03  0.17200000000E+03 0.  1.
</event>
<event>
 4    1 -0.6384999E-004  0.1940942E+03  0.7818608E-02  0.1154820E+00
          5   -1    0    0  501    0  0.00000000000E+00  0.00000000000E+00  0.52525721194E+03  0.52527823931E+03  0.47000000000E+01 0. -1.
         -5   -1    0    0    0  501 -0.00000000000E+00 -0.00000000000E+00 -0.10823050981E+03  0.10833251245E+03  0.47000000000E+01 0.  1.
          6    1    1    2  502    0  0.64146333059E+02  0.63038123262E+02  0.24391162922E+02  0.19562077052E+03  0.17200000000E+03 0.  1.
         -6    1    1    2    0  502 -0.64146333059E+02 -0.63038123262E+02  0.39263553920E+03  0.43798998125E+03  0.17200000000E+03 0. -1.
</event>
<event>
 4    1 -0.6384999E-004  0.1819445E+03  0.7818608E-02  0.1165934E+00
         -5   -1    0    0    0  501 -0.00000000000E+00  0.00000000000E+00  0.44772757595E+03  0.44775224429E+03  0.47000000000E+01 0.  1.
          5   -1    0    0  501    0  0.00000000000E+00 -0.00000000000E+00 -0.74667178413E+02  0.74814955271E+02  0.47000000000E+01 0. -1.
          6    1    1    2  502    0 -0.81600832075E+01 -0.58763986112E+02  0.15899366250E+03  0.24162528373E+03  0.17200000000E+03 0. -1.
         -6    1    1    2    0  502  0.81600832075E+01  0.58763986112E+02  0.21406673504E+03  0.28094191584E+03  0.17200000000E+03 0.  1.
</event>
<event>
 4    1 -0.6384999E-004  0.3078249E+03  0.7818608E-02  0.1081393E+00
         -5   -1    0    0    0  501 -0.00000000000E+00  0.00000000000E+00  0.31541079013E+03  0.31544580602E+03  0.47000000000E+01 0.  1.
          5   -1    0    0  501    0  0.00000000000E+00 -0.00000000000E+00 -0.35228580206E+03  0.35231715305E+03  0.47000000000E+01 0. -1.
          6    1    1    2  502    0 -0.23622958659E+03  0.96787279437E+02 -0.14662022878E+03  0.34095994857E+03  0.17200000000E+03 0. -1.
         -6    1    1    2    0  502  0.23622958659E+03 -0.96787279437E+02  0.10974521686E+03  0.32680301049E+03  0.17200000000E+03 0.  1.
</event>
<event>
 4    1 -0.6384999E-004  0.1915357E+03  0.7818608E-02  0.1157083E+00
          5   -1    0    0  501    0  0.00000000000E+00  0.00000000000E+00  0.95063819180E+02  0.95179933374E+02  0.47000000000E+01 0. -1.
         -5   -1    0    0    0  501 -0.00000000000E+00 -0.00000000000E+00 -0.71617423225E+03  0.71618965431E+03  0.47000000000E+01 0.  1.
          6    1    1    2  502    0 -0.42733562558E+02  0.72634574854E+02 -0.34935839685E+02  0.19469579278E+03  0.17200000000E+03 0. -1.
         -6    1    1    2    0  502  0.42733562558E+02 -0.72634574854E+02 -0.58617457339E+03  0.61667379490E+03  0.17200000000E+03 0.  1.
</event>
<event>
 4    1 -0.6384999E-004  0.1971739E+03  0.7818608E-02  0.1152146E+00
         -5   -1    0    0    0  501 -0.00000000000E+00  0.00000000000E+00  0.49596703795E+02  0.49818902310E+02  0.47000000000E+01 0.  1.
          5   -1    0    0  501    0  0.00000000000E+00 -0.00000000000E+00 -0.94427607785E+03  0.94428777456E+03  0.47000000000E+01 0. -1.
          6    1    1    2  502    0  0.45770233638E+02  0.84844653747E+02 -0.65343645419E+03  0.68253698011E+03  0.17200000000E+03 0. -1.
         -6    1    1    2    0  502 -0.45770233638E+02 -0.84844653747E+02 -0.24124291986E+03  0.31156969676E+03  0.17200000000E+03 0.  1.
</event>
<event>
 4    1 -0.6384999E-004  0.2300533E+03  0.7818608E-02  0.1126602E+00
          5   -1    0    0  501    0  0.00000000000E+00  0.00000000000E+00  0.31995181427E+03  0.31998633323E+03  0.47000000000E+01 0. -1.
         -5   -1    0    0    0  501 -0.00000000000E+00 -0.00000000000E+00 -0.16769919953E+03  0.16776504857E+03  0.47000000000E+01 0.  1.
          6    1    1    2  502    0  0.14229054169E+03  0.55622900287E+02  0.47191735688E+02  0.23484370379E+03  0.17200000000E+03 0. -1.
         -6    1    1    2    0  502 -0.14229054169E+03 -0.55622900287E+02  0.10506087906E+03  0.25290767802E+03  0.17200000000E+03 0. -1.
</event>
<event>
 4    1 -0.6384999E-004  0.6656369E+03  0.7818608E-02  0.9777872E-01
          5   -1    0    0  501    0  0.00000000000E+00  0.00000000000E+00  0.45623892158E+03  0.45626312974E+03  0.47000000000E+01 0. -1.
         -5   -1    0    0    0  501 -0.00000000000E+00 -0.00000000000E+00 -0.10580728946E+04  0.10580833333E+04  0.47000000000E+01 0.  1.
          6    1    1    2  502    0  0.14227985097E+03  0.62709241324E+03 -0.83817843979E+02  0.67089334600E+03  0.17200000000E+03 0. -1.
         -6    1    1    2    0  502 -0.14227985097E+03 -0.62709241324E+03 -0.51801612899E+03  0.84345311703E+03  0.17200000000E+03 0.  1.
</event>
<event>
 4    1 -0.6384999E-004  0.1831551E+03  0.7818608E-02  0.1164784E+00
          5   -1    0    0  501    0  0.00000000000E+00  0.00000000000E+00  0.72525098775E+02  0.72677231320E+02  0.47000000000E+01 0. -1.
         -5   -1    0    0    0  501 -0.00000000000E+00 -0.00000000000E+00 -0.54323925713E+03  0.54325958849E+03  0.47000000000E+01 0.  1.
          6    1    1    2  502    0  0.32935993842E+02 -0.53637749953E+02 -0.11620180808E+03  0.21690700337E+03  0.17200000000E+03 0. -1.
         -6    1    1    2    0  502 -0.32935993842E+02  0.53637749953E+02 -0.35451235028E+03  0.39902981644E+03  0.17200000000E+03 0.  1.
</event>
<event>
 4    1 -0.6384999E-004  0.2050270E+03  0.7818608E-02  0.1145566E+00
         -5   -1    0    0    0  501 -0.00000000000E+00  0.00000000000E+00  0.86265445998E+02  0.86393386166E+02  0.47000000000E+01 0.  1.
          5   -1    0    0  501    0  0.00000000000E+00 -0.00000000000E+00 -0.49660483325E+03  0.49662707377E+03  0.47000000000E+01 0. -1.
          6    1    1    2  502    0 -0.10811828172E+03  0.27613180578E+02 -0.24615172277E+03  0.32035405601E+03  0.17200000000E+03 0. -1.
         -6    1    1    2    0  502  0.10811828172E+03 -0.27613180578E+02 -0.16418766448E+03  0.26266640392E+03  0.17200000000E+03 0.  1.
</event>
<event>
 4    1 -0.6384999E-004  0.2091338E+03  0.7818608E-02  0.1142254E+00
         -5   -1    0    0    0  501 -0.00000000000E+00  0.00000000000E+00  0.39578432011E+03  0.39581222574E+03  0.47000000000E+01 0.  1.
          5   -1    0    0  501    0  0.00000000000E+00 -0.00000000000E+00 -0.11044012841E+03  0.11054009211E+03  0.47000000000E+01 0. -1.
          6    1    1    2  502    0 -0.86030688141E+02  0.82168590226E+02  0.13973576279E+03  0.25152145023E+03  0.17200000000E+03 0. -1.
         -6    1    1    2    0  502  0.86030688141E+02 -0.82168590226E+02  0.14560842890E+03  0.25483086762E+03  0.17200000000E+03 0. -1.
</event>
<event>
 4    1 -0.6384999E-004  0.2541265E+03  0.7818608E-02  0.1110724E+00
          5   -1    0    0  501    0  0.00000000000E+00  0.00000000000E+00  0.21090547414E+03  0.21095783707E+03  0.47000000000E+01 0. -1.
         -5   -1    0    0    0  501 -0.00000000000E+00 -0.00000000000E+00 -0.30971386356E+03  0.30974952345E+03  0.47000000000E+01 0.  1.
          6    1    1    2  502    0  0.14269495159E+03 -0.12097285343E+03 -0.21270874269E+02  0.25501515753E+03  0.17200000000E+03 0. -1.
         -6    1    1    2    0  502 -0.14269495159E+03  0.12097285343E+03 -0.77537515148E+02  0.26569220300E+03  0.17200000000E+03 0.  1.
</event>
<event>
 4    1 -0.6384999E-004  0.1823614E+03  0.7818608E-02  0.1165537E+00
          5   -1    0    0  501    0  0.00000000000E+00  0.00000000000E+00  0.73756551914E+03  0.73758049393E+03  0.47000000000E+01 0. -1.
         -5   -1    0    0    0  501 -0.00000000000E+00 -0.00000000000E+00 -0.58388859766E+02  0.58577717135E+02  0.47000000000E+01 0.  1.
          6    1    1    2  502    0  0.22059774763E+02  0.56436085954E+02  0.53018580190E+03  0.56067160619E+03  0.17200000000E+03 0. -1.
         -6    1    1    2    0  502 -0.22059774763E+02 -0.56436085954E+02  0.14899085747E+03  0.23548660487E+03  0.17200000000E+03 0.  1.
</event>
<event>
 4    1 -0.6384999E-004  0.1730168E+03  0.7818608E-02  0.1174738E+00
          5   -1    0    0  501    0  0.00000000000E+00  0.00000000000E+00  0.45171604605E+02  0.45415458410E+02  0.47000000000E+01 0. -1.
         -5   -1    0    0    0  501 -0.00000000000E+00 -0.00000000000E+00 -0.12149317518E+04  0.12149408428E+04  0.47000000000E+01 0.  1.
          6    1    1    2  502    0 -0.18168371729E+02  0.45534020516E+01 -0.10104832246E+04  0.10251883585E+04  0.17200000000E+03 0.  1.
         -6    1    1    2    0  502  0.18168371729E+02 -0.45534020516E+01 -0.15927692251E+03  0.23516794264E+03  0.17200000000E+03 0. -1.
</event>
<event>
 4    1 -0.6384999E-004  0.2359775E+03  0.7818608E-02  0.1122502E+00
          5   -1    0    0  501    0  0.00000000000E+00  0.00000000000E+00  0.27515050695E+03  0.27519064569E+03  0.47000000000E+01 0. -1.
         -5   -1    0    0    0  501 -0.00000000000E+00 -0.00000000000E+00 -0.20448037010E+03  0.20453437793E+03  0.47000000000E+01 0.  1.
          6    1    1    2  502    0 -0.72145533505E+02 -0.14455588410E+03  0.60101723900E+02  0.24351098301E+03  0.17200000000E+03 0. -1.
         -6    1    1    2    0  502  0.72145533505E+02  0.14455588410E+03  0.10568412954E+02  0.23621404062E+03  0.17200000000E+03 0.  1.
</event>
<event>
 4    1 -0.6384999E-004  0.2078018E+03  0.7818608E-02  0.1143319E+00
          5   -1    0    0  501    0  0.00000000000E+00  0.00000000000E+00  0.51347331732E+03  0.51349482723E+03  0.47000000000E+01 0. -1.
         -5   -1    0    0    0  501 -0.00000000000E+00 -0.00000000000E+00 -0.15223240424E+03  0.15230494050E+03  0.47000000000E+01 0.  1.
          6    1    1    2  502    0  0.11577127397E+03 -0.13949860211E+02 -0.42147976317E+02  0.21203310681E+03  0.17200000000E+03 0.  1.
         -6    1    1    2    0  502 -0.11577127397E+03  0.13949860211E+02  0.40338888939E+03  0.45376666092E+03  0.17200000000E+03 0. -1.
</event>
<event>
 4    1 -0.6384999E-004  0.2361766E+03  0.7818608E-02  0.1122366E+00
          5   -1    0    0  501    0  0.00000000000E+00  0.00000000000E+00  0.62076671187E+02  0.62254342063E+02  0.47000000000E+01 0. -1.
         -5   -1    0    0    0  501 -0.00000000000E+00 -0.00000000000E+00 -0.92709268604E+03  0.92710459956E+03  0.47000000000E+01 0.  1.
          6    1    1    2  502    0 -0.16111812268E+03 -0.15372755298E+02 -0.52149179957E+03  0.57247975342E+03  0.17200000000E+03 0.  1.
         -6    1    1    2    0  502  0.16111812268E+03  0.15372755298E+02 -0.34352421529E+03  0.41687918819E+03  0.17200000000E+03 0.  1.
</event>
<event>
 4    1 -0.6384999E-004  0.2340097E+03  0.7818608E-02  0.1123849E+00
          5   -1    0    0  501    0  0.00000000000E+00  0.00000000000E+00  0.24970638353E+03  0.24975061157E+03  0.47000000000E+01 0. -1.
         -5   -1    0    0    0  501 -0.00000000000E+00 -0.00000000000E+00 -0.29469310963E+03  0.29473058691E+03  0.47000000000E+01 0.  1.
          6    1    1    2  502    0 -0.15007698801E+03  0.51511376200E+02  0.11526738326E+03  0.26085837892E+03  0.17200000000E+03 0. -1.
         -6    1    1    2    0  502  0.15007698801E+03 -0.51511376200E+02 -0.16025410935E+03  0.28362281956E+03  0.17200000000E+03 0.  1.
</event>
<event>
 4    1 -0.6384999E-004  0.2331332E+03  0.7818608E-02  0.1124454E+00
         -5   -1    0    0    0  501 -0.00000000000E+00  0.00000000000E+00  0.10943581024E+04  0.10943681950E+04  0.47000000000E+01 0.  1.
          5   -1    0    0  501    0  0.00000000000E+00 -0.00000000000E+00 -0.58282475385E+02  0.58471676365E+02  0.47000000000E+01 0. -1.
          6    1    1    2  502    0  0.11734421692E+03 -0.10486863009E+03  0.29524417322E+03  0.37619172857E+03  0.17200000000E+03 0. -1.
         -6    1    1    2    0  502 -0.11734421692E+03  0.10486863009E+03  0.74083145377E+03  0.77664814280E+03  0.17200000000E+03 0.  1.
</event>
<event>
 4    1 -0.6384999E-004  0.1943823E+03  0.7818608E-02  0.1154567E+00
         -5   -1    0    0    0  501 -0.00000000000E+00  0.00000000000E+00  0.97897526382E+02  0.98010283499E+02  0.47000000000E+01 0.  1.
          5   -1    0    0  501    0  0.00000000000E+00 -0.00000000000E+00 -0.39367685259E+03  0.39370490759E+03  0.47000000000E+01 0. -1.
          6    1    1    2  502    0  0.21266303210E+02 -0.88023911950E+02 -0.18307688184E+03  0.26702361205E+03  0.17200000000E+03 0.  1.
         -6    1    1    2    0  502 -0.21266303210E+02  0.88023911950E+02 -0.11270244436E+03  0.22469157904E+03  0.17200000000E+03 0. -1.
</event>
<event>
 4    1 -0.6384999E-004  0.2909629E+03  0.7818608E-02  0.1089847E+00
         -5   -1    0    0    0  501 -0.00000000000E+00  0.00000000000E+00  0.17602541376E+03  0.17608814920E+03  0.47000000000E+01 0.  1.
          5   -1    0    0  501    0  0.00000000000E+00 -0.00000000000E+00 -0.10570723359E+04  0.10570827845E+04  0.47000000000E+01 0. -1.
          6    1    1    2  502    0  0.23452617158E+03  0.85357049645E+01  0.14718531726E+02  0.29133489079E+03  0.17200000000E+03 0.  1.
         -6    1    1    2    0  502 -0.23452617158E+03 -0.85357049645E+01 -0.89576545389E+03  0.94183604295E+03  0.17200000000E+03 0.  1.
</event>
<event>
 4    1 -0.6384999E-004  0.2633957E+03  0.7818608E-02  0.1105120E+00
          5   -1    0    0  501    0  0.00000000000E+00  0.00000000000E+00  0.66012204224E+03  0.66013877378E+03  0.47000000000E+01 0. -1.
         -5   -1    0    0    0  501 -0.00000000000E+00 -0.00000000000E+00 -0.10910336360E+03  0.10920455095E+03  0.47000000000E+01 0.  1.
          6    1    1    2  502    0 -0.17233116805E+03  0.10047521309E+03  0.34982245810E+03  0.43789616591E+03  0.17200000000E+03 0. -1.
         -6    1    1    2    0  502  0.17233116805E+03 -0.10047521309E+03  0.20119622054E+03  0.33144715882E+03  0.17200000000E+03 0. -1.
</event>
<event>
 4    1 -0.6384999E-004  0.4564582E+03  0.7818608E-02  0.1025813E+00
          5   -1    0    0  501    0  0.00000000000E+00  0.00000000000E+00  0.62265495053E+03  0.62267268883E+03  0.47000000000E+01 0. -1.
         -5   -1    0    0    0  501 -0.00000000000E+00 -0.00000000000E+00 -0.37870613151E+03  0.37873529548E+03  0.47000000000E+01 0.  1.
          6    1    1    2  502    0  0.23205421973E+03  0.35344154152E+03  0.29287154824E+03  0.54233553077E+03  0.17200000000E+03 0. -1.
         -6    1    1    2    0  502 -0.23205421973E+03 -0.35344154152E+03 -0.48922729225E+02  0.45907245354E+03  0.17200000000E+03 0. -1.
</event>
<event>
 4    1 -0.6384999E-004  0.1833215E+03  0.7818608E-02  0.1164627E+00
         -5   -1    0    0    0  501 -0.00000000000E+00  0.00000000000E+00  0.93987351082E+02  0.94104793520E+02  0.47000000000E+01 0.  1.
          5   -1    0    0  501    0  0.00000000000E+00 -0.00000000000E+00 -0.45457397556E+03  0.45459827238E+03  0.47000000000E+01 0. -1.
          6    1    1    2  502    0  0.12287626109E+02  0.62223822150E+02 -0.53343292239E+02  0.19092484549E+03  0.17200000000E+03 0.  1.
         -6    1    1    2    0  502 -0.12287626109E+02 -0.62223822150E+02 -0.30724333224E+03  0.35777822041E+03  0.17200000000E+03 0. -1.
</event>
<event>
 4    1 -0.6384999E-004  0.1800715E+03  0.7818608E-02  0.1167734E+00
          5   -1    0    0  501    0  0.00000000000E+00  0.00000000000E+00  0.30687715240E+02  0.31045545038E+02  0.47000000000E+01 0. -1.
         -5   -1    0    0    0  501 -0.00000000000E+00 -0.00000000000E+00 -0.10503032892E+04  0.10503138051E+04  0.47000000000E+01 0.  1.
          6    1    1    2  502    0  0.20700986904E+02  0.49124638403E+02 -0.50325022725E+03  0.53449654085E+03  0.17200000000E+03 0.  1.
         -6    1    1    2    0  502 -0.20700986904E+02 -0.49124638403E+02 -0.51636534668E+03  0.54686280932E+03  0.17200000000E+03 0.  1.
</event>
<event>
 4    1 -0.6384999E-004  0.1726765E+03  0.7818608E-02  0.1175085E+00
         -5   -1    0    0    0  501 -0.00000000000E+00  0.00000000000E+00  0.37029748147E+03  0.37032730764E+03  0.47000000000E+01 0.  1.
          5   -1    0    0  501    0  0.00000000000E+00 -0.00000000000E+00 -0.11442892007E+03  0.11452540220E+03  0.47000000000E+01 0. -1.
          6    1    1    2  502    0  0.15051303192E+02  0.25727519342E+01 -0.41426491509E+01  0.17272614835E+03  0.17200000000E+03 0. -1.
         -6    1    1    2    0  502 -0.15051303192E+02 -0.25727519342E+01  0.26001121055E+03  0.31212656150E+03  0.17200000000E+03 0.  1.
</event>
<event>
 4    1 -0.6384999E-004  0.1838052E+03  0.7818608E-02  0.1164170E+00
         -5   -1    0    0    0  501 -0.00000000000E+00  0.00000000000E+00  0.61202955895E+03  0.61204760520E+03  0.47000000000E+01 0.  1.
          5   -1    0    0  501    0  0.00000000000E+00 -0.00000000000E+00 -0.55112866647E+02  0.55312910518E+02  0.47000000000E+01 0. -1.
          6    1    1    2  502    0 -0.11709600303E+02 -0.63743388700E+02  0.28639619569E+03  0.34030444494E+03  0.17200000000E+03 0. -1.
         -6    1    1    2    0  502  0.11709600303E+02  0.63743388700E+02  0.27052049661E+03  0.32705607077E+03  0.17200000000E+03 0.  1.
</event>
<event>
 4    1 -0.6384999E-004  0.2025291E+03  0.7818608E-02  0.1147623E+00
         -5   -1    0    0    0  501 -0.00000000000E+00  0.00000000000E+00  0.60390939497E+02  0.60573555066E+02  0.47000000000E+01 0.  1.
          5   -1    0    0  501    0  0.00000000000E+00 -0.00000000000E+00 -0.17591927569E+04  0.17591990354E+04  0.47000000000E+01 0. -1.
          6    1    1    2  502    0  0.96005420737E+02 -0.47085168282E+02 -0.15626800542E+04  0.15757496646E+04  0.17200000000E+03 0. -1.
         -6    1    1    2    0  502 -0.96005420737E+02  0.47085168282E+02 -0.13612176326E+03  0.24402292580E+03  0.17200000000E+03 0.  1.
</event>
<event>
 4    1 -0.6384999E-004  0.2797354E+03  0.7818608E-02  0.1095834E+00
         -5   -1    0    0    0  501 -0.00000000000E+00  0.00000000000E+00  0.58034346827E+02  0.58224354111E+02  0.47000000000E+01 0.  1.
          5   -1    0    0  501    0  0.00000000000E+00 -0.00000000000E+00 -0.14509992843E+04  0.14510068963E+04  0.47000000000E+01 0. -1.
          6    1    1    2  502    0  0.10124529126E+03 -0.19600328585E+03 -0.89948845268E+03  0.94198268221E+03  0.17200000000E+03 0. -1.
         -6    1    1    2    0  502 -0.10124529126E+03  0.19600328585E+03 -0.49347648481E+03  0.56724856820E+03  0.17200000000E+03 0.  1.
</event>
<event>
 4    1 -0.6384999E-004  0.2305894E+03  0.7818608E-02  0.1126226E+00
          5   -1    0    0  501    0  0.00000000000E+00  0.00000000000E+00  0.67135659400E+03  0.67137304557E+03  0.47000000000E+01 0. -1.
         -5   -1    0    0    0  501 -0.00000000000E+00 -0.00000000000E+00 -0.41937845207E+03  0.41940478784E+03  0.47000000000E+01 0.  1.
          6    1    1    2  502    0 -0.12905510985E+03 -0.83260103366E+02  0.61719185443E+03  0.65886057051E+03  0.17200000000E+03 0. -1.
         -6    1    1    2    0  502  0.12905510985E+03  0.83260103366E+02 -0.36521371250E+03  0.43191726290E+03  0.17200000000E+03 0.  1.
</event>
<event>
 4    1 -0.6384999E-004  0.1855820E+03  0.7818608E-02  0.1162508E+00
         -5   -1    0    0    0  501 -0.00000000000E+00  0.00000000000E+00  0.18164953087E+04  0.18165013891E+04  0.47000000000E+01 0.  1.
          5   -1    0    0  501    0  0.00000000000E+00 -0.00000000000E+00 -0.41325224021E+02  0.41591635461E+02  0.47000000000E+01 0. -1.
          6    1    1    2  502    0  0.69688507216E+02 -0.43428920412E+00  0.20314616209E+03  0.27515275724E+03  0.17200000000E+03 0. -1.
         -6    1    1    2    0  502 -0.69688507216E+02  0.43428920412E+00  0.15720239226E+04  0.15829402673E+04  0.17200000000E+03 0.  1.
</event>
<event>
 4    1 -0.6384999E-004  0.2040277E+03  0.7818608E-02  0.1146385E+00
          5   -1    0    0  501    0  0.00000000000E+00  0.00000000000E+00  0.48653548542E+03  0.48655818622E+03  0.47000000000E+01 0. -1.
         -5   -1    0    0    0  501 -0.00000000000E+00 -0.00000000000E+00 -0.10941743209E+03  0.10951832926E+03  0.47000000000E+01 0.  1.
          6    1    1    2  502    0 -0.10974021687E+03  0.62122015949E+00  0.49214162224E+02  0.20987933408E+03  0.17200000000E+03 0.  1.
         -6    1    1    2    0  502  0.10974021687E+03 -0.62122015949E+00  0.32790389111E+03  0.38619718140E+03  0.17200000000E+03 0. -1.
</event>
<event>
 4    1 -0.6384999E-004  0.3661438E+03  0.7818608E-02  0.1056177E+00
         -5   -1    0    0    0  501 -0.00000000000E+00  0.00000000000E+00  0.52034140386E+03  0.52036262987E+03  0.47000000000E+01 0.  1.
          5   -1    0    0  501    0  0.00000000000E+00 -0.00000000000E+00 -0.33234703087E+03  0.33238026254E+03  0.47000000000E+01 0. -1.
          6    1    1    2  502    0  0.22100556544E+03  0.23586819342E+03 -0.10819791783E+03  0.38179582770E+03  0.17200000000E+03 0. -1.
         -6    1    1    2    0  502 -0.22100556544E+03 -0.23586819342E+03  0.29619229082E+03  0.47094706472E+03  0.17200000000E+03 0.  1.
</event>
<event>
 4    1 -0.6384999E-004  0.3393592E+03  0.7818608E-02  0.1067069E+00
          5   -1    0    0  501    0  0.00000000000E+00  0.00000000000E+00  0.12509893500E+04  0.12509981790E+04  0.47000000000E+01 0. -1.
         -5   -1    0    0    0  501 -0.00000000000E+00 -0.00000000000E+00 -0.30569237881E+03  0.30572850777E+03  0.47000000000E+01 0.  1.
          6    1    1    2  502    0 -0.96855335378E+02  0.27604290962E+03  0.11233522740E+04  0.11734926397E+04  0.17200000000E+03 0. -1.
         -6    1    1    2    0  502  0.96855335378E+02 -0.27604290962E+03 -0.17805530283E+03  0.38323404703E+03  0.17200000000E+03 0.  1.
</event>
<event>
 4    1 -0.6384999E-004  0.1976920E+03  0.7818608E-02  0.1151701E+00
         -5   -1    0    0    0  501 -0.00000000000E+00  0.00000000000E+00  0.12765785183E+03  0.12774434287E+03  0.47000000000E+01 0.  1.
          5   -1    0    0  501    0  0.00000000000E+00 -0.00000000000E+00 -0.31458693444E+03  0.31462204202E+03  0.47000000000E+01 0. -1.
          6    1    1    2  502    0  0.17421756853E+02  0.95888583299E+02 -0.56800055624E+02  0.20569002003E+03  0.17200000000E+03 0.  1.
         -6    1    1    2    0  502 -0.17421756853E+02 -0.95888583299E+02 -0.13012902699E+03  0.23667636486E+03  0.17200000000E+03 0.  1.
</event>
<event>
 4    1 -0.6384999E-004  0.2720036E+03  0.7818608E-02  0.1100138E+00
         -5   -1    0    0    0  501 -0.00000000000E+00  0.00000000000E+00  0.54803165906E+03  0.54805181264E+03  0.47000000000E+01 0.  1.
          5   -1    0    0  501    0  0.00000000000E+00 -0.00000000000E+00 -0.23873968131E+03  0.23878594061E+03  0.47000000000E+01 0. -1.
          6    1    1    2  502    0  0.21069621730E+03  0.30145129307E+01 -0.10472131553E+03  0.29146618534E+03  0.17200000000E+03 0. -1.
         -6    1    1    2    0  502 -0.21069621730E+03 -0.30145129307E+01  0.41401329328E+03  0.49537156790E+03  0.17200000000E+03 0.  1.
</event>
<event>
 4    1 -0.6384999E-004  0.1762691E+03  0.7818608E-02  0.1171463E+00
          5   -1    0    0  501    0  0.00000000000E+00  0.00000000000E+00  0.14144489533E+03  0.14152296074E+03  0.47000000000E+01 0. -1.
         -5   -1    0    0    0  501 -0.00000000000E+00 -0.00000000000E+00 -0.24117331147E+03  0.24121910406E+03  0.47000000000E+01 0.  1.
          6    1    1    2  502    0  0.29271760679E+02 -0.25099105195E+02 -0.10721337634E+03  0.20631410306E+03  0.17200000000E+03 0.  1.
         -6    1    1    2    0  502 -0.29271760679E+02  0.25099105195E+02  0.74849602057E+01  0.17642796174E+03  0.17200000000E+03 0. -1.
</event>
<event>
 4    1 -0.6384999E-004  0.1979155E+03  0.7818608E-02  0.1151510E+00
         -5   -1    0    0    0  501 -0.00000000000E+00  0.00000000000E+00  0.85251219920E+03  0.85252515493E+03  0.47000000000E+01 0.  1.
          5   -1    0    0  501    0  0.00000000000E+00 -0.00000000000E+00 -0.70391782634E+02  0.70548515664E+02  0.47000000000E+01 0. -1.
          6    1    1    2  502    0 -0.89656556443E+02 -0.39347804765E+02  0.66337296965E+03  0.69226746616E+03  0.17200000000E+03 0. -1.
         -6    1    1    2    0  502  0.89656556443E+02  0.39347804765E+02  0.11874744692E+03  0.23080620443E+03  0.17200000000E+03 0. -1.
</event>
<event>
 4    1 -0.6384999E-004  0.2540112E+03  0.7818608E-02  0.1110796E+00
         -5   -1    0    0    0  501 -0.00000000000E+00  0.00000000000E+00  0.54124116276E+03  0.54126156917E+03  0.47000000000E+01 0.  1.
          5   -1    0    0  501    0  0.00000000000E+00 -0.00000000000E+00 -0.16228653696E+03  0.16235458132E+03  0.47000000000E+01 0. -1.
          6    1    1    2  502    0  0.15396437123E+03 -0.10598416749E+03  0.81368405792E+01  0.25414145577E+03  0.17200000000E+03 0. -1.
         -6    1    1    2    0  502 -0.15396437123E+03  0.10598416749E+03  0.37081778522E+03  0.44947469473E+03  0.17200000000E+03 0.  1.
</event>
<event>
 4    1 -0.6384999E-004  0.2635447E+03  0.7818608E-02  0.1105032E+00
          5   -1    0    0  501    0  0.00000000000E+00  0.00000000000E+00  0.47966772455E+03  0.47969075036E+03  0.47000000000E+01 0. -1.
         -5   -1    0    0    0  501 -0.00000000000E+00 -0.00000000000E+00 -0.15183645126E+03  0.15190917658E+03  0.47000000000E+01 0.  1.
          6    1    1    2  502    0  0.18182139220E+03 -0.82539566414E+02  0.23218926570E+03  0.35123731834E+03  0.17200000000E+03 0. -1.
         -6    1    1    2    0  502 -0.18182139220E+03  0.82539566414E+02  0.95642007595E+02  0.28036260860E+03  0.17200000000E+03 0. -1.
</event>
<event>
 4    1 -0.6384999E-004  0.1972873E+03  0.7818608E-02  0.1152048E+00
          5   -1    0    0  501    0  0.00000000000E+00  0.00000000000E+00  0.67641743267E+03  0.67643376115E+03  0.47000000000E+01 0. -1.
         -5   -1    0    0    0  501 -0.00000000000E+00 -0.00000000000E+00 -0.10676193294E+03  0.10686533734E+03  0.47000000000E+01 0.  1.
          6    1    1    2  502    0  0.49666252961E+01  0.96507137280E+02  0.55085452614E+03  0.58511794015E+03  0.17200000000E+03 0. -1.
         -6    1    1    2    0  502 -0.49666252961E+01 -0.96507137280E+02  0.18800973582E+02  0.19818115834E+03  0.17200000000E+03 0.  1.
</event>
<event>
 4    1 -0.6384999E-004  0.1926568E+03  0.7818608E-02  0.1156087E+00
          5   -1    0    0  501    0  0.00000000000E+00  0.00000000000E+00  0.27157663803E+03  0.27161730490E+03  0.47000000000E+01 0. -1.
         -5   -1    0    0    0  501 -0.00000000000E+00 -0.00000000000E+00 -0.14226073050E+03  0.14233834846E+03  0.47000000000E+01 0.  1.
          6    1    1    2  502    0 -0.56233910069E+02  0.66109014039E+02  0.10600193658E+03  0.21989330353E+03  0.17200000000E+03 0. -1.
         -6    1    1    2    0  502  0.56233910069E+02 -0.66109014039E+02  0.23313970953E+02  0.19406234983E+03  0.17200000000E+03 0.  1.
</event>
<event>
 4    1 -0.6384999E-004  0.2529310E+03  0.7818608E-02  0.1111466E+00
         -5   -1    0    0    0  501 -0.00000000000E+00  0.00000000000E+00  0.53232329315E+02  0.53439413211E+02  0.47000000000E+01 0.  1.
          5   -1    0    0  501    0  0.00000000000E+00 -0.00000000000E+00 -0.12433067763E+04  0.12433156599E+04  0.47000000000E+01 0. -1.
          6    1    1    2  502    0 -0.69083883641E+02  0.17209742171E+03 -0.71708464144E+03  0.76038443470E+03  0.17200000000E+03 0. -1.
         -6    1    1    2    0  502  0.69083883641E+02 -0.17209742171E+03 -0.47298980557E+03  0.53637063837E+03  0.17200000000E+03 0.  1.
</event>
<event>
 4    1 -0.6384999E-004  0.2431794E+03  0.7818608E-02  0.1117693E+00
          5   -1    0    0  501    0  0.00000000000E+00  0.00000000000E+00  0.10324497624E+04  0.10324604602E+04  0.47000000000E+01 0. -1.
         -5   -1    0    0    0  501 -0.00000000000E+00 -0.00000000000E+00 -0.68820190726E+02  0.68980494718E+02  0.47000000000E+01 0.  1.
          6    1    1    2  502    0 -0.16107745143E+03 -0.60052112752E+02  0.70809533768E+03  0.74868899341E+03  0.17200000000E+03 0. -1.
         -6    1    1    2    0  502  0.16107745143E+03  0.60052112752E+02  0.25553423398E+03  0.35275196150E+03  0.17200000000E+03 0.  1.
</event>
<event>
 4    1 -0.6384999E-004  0.2724024E+03  0.7818608E-02  0.1099912E+00
          5   -1    0    0  501    0  0.00000000000E+00  0.00000000000E+00  0.14672516269E+03  0.14680042018E+03  0.47000000000E+01 0. -1.
         -5   -1    0    0    0  501 -0.00000000000E+00 -0.00000000000E+00 -0.53757380196E+03  0.53759434758E+03  0.47000000000E+01 0.  1.
          6    1    1    2  502    0  0.12966931572E+03  0.16674814867E+03 -0.11186225718E+03  0.29447621484E+03  0.17200000000E+03 0. -1.
         -6    1    1    2    0  502 -0.12966931572E+03 -0.16674814867E+03 -0.27898638208E+03  0.38991855292E+03  0.17200000000E+03 0.  1.
</event>
<event>
 4    1 -0.6384999E-004  0.2614849E+03  0.7818608E-02  0.1106254E+00
         -5   -1    0    0    0  501 -0.00000000000E+00  0.00000000000E+00  0.21388432703E+03  0.21393596086E+03  0.47000000000E+01 0.  1.
          5   -1    0    0  501    0  0.00000000000E+00 -0.00000000000E+00 -0.34976721802E+03  0.34979879474E+03  0.47000000000E+01 0. -1.
          6    1    1    2  502    0 -0.14546290464E+03  0.13278135177E+03 -0.15074992340E+03  0.30182757232E+03  0.17200000000E+03 0. -1.
         -6    1    1    2    0  502  0.14546290464E+03 -0.13278135177E+03  0.14867032413E+02  0.26190718329E+03  0.17200000000E+03 0.  1.
</event>
<event>
 4    1 -0.6384999E-004  0.2302775E+03  0.7818608E-02  0.1126445E+00
          5   -1    0    0  501    0  0.00000000000E+00  0.00000000000E+00  0.83978475222E+03  0.83979790430E+03  0.47000000000E+01 0. -1.
         -5   -1    0    0    0  501 -0.00000000000E+00 -0.00000000000E+00 -0.66191167115E+02  0.66357822478E+02  0.47000000000E+01 0.  1.
          6    1    1    2  502    0 -0.52934454674E+02  0.14367209173E+03  0.28812837388E+03  0.36884371523E+03  0.17200000000E+03 0. -1.
         -6    1    1    2    0  502  0.52934454674E+02 -0.14367209173E+03  0.48546521123E+03  0.53731201154E+03  0.17200000000E+03 0.  1.
</event>
<event>
 4    1 -0.6384999E-004  0.2566575E+03  0.7818608E-02  0.1109168E+00
         -5   -1    0    0    0  501 -0.00000000000E+00  0.00000000000E+00  0.23784588771E+03  0.23789232081E+03  0.47000000000E+01 0.  1.
          5   -1    0    0  501    0  0.00000000000E+00 -0.00000000000E+00 -0.28614234490E+03  0.28618094197E+03  0.47000000000E+01 0. -1.
          6    1    1    2  502    0 -0.14524047179E+03  0.12326503559E+03 -0.71327668280E+02  0.26638449637E+03  0.17200000000E+03 0. -1.
         -6    1    1    2    0  502  0.14524047179E+03 -0.12326503559E+03  0.23031211087E+02  0.25768876640E+03  0.17200000000E+03 0.  1.
</event>
<event>
 4    1 -0.6384999E-004  0.1825009E+03  0.7818608E-02  0.1165404E+00
          5   -1    0    0  501    0  0.00000000000E+00  0.00000000000E+00  0.55299239798E+02  0.55498611895E+02  0.47000000000E+01 0. -1.
         -5   -1    0    0    0  501 -0.00000000000E+00 -0.00000000000E+00 -0.63605594192E+03  0.63607330651E+03  0.47000000000E+01 0.  1.
          6    1    1    2  502    0 -0.60255375885E+02  0.95850061672E+01 -0.20921951786E+03  0.27763175128E+03  0.17200000000E+03 0. -1.
         -6    1    1    2    0  502  0.60255375885E+02 -0.95850061672E+01 -0.37153718427E+03  0.41394016713E+03  0.17200000000E+03 0. -1.
</event>
<event>
 4    1 -0.6384999E-004  0.1899243E+03  0.7818608E-02  0.1158530E+00
          5   -1    0    0  501    0  0.00000000000E+00  0.00000000000E+00  0.55343059466E+03  0.55345055164E+03  0.47000000000E+01 0. -1.
         -5   -1    0    0    0  501 -0.00000000000E+00 -0.00000000000E+00 -0.70237911927E+02  0.70394987548E+02  0.47000000000E+01 0.  1.
          6    1    1    2  502    0 -0.73369409969E+02 -0.33228965287E+02  0.15711040189E+03  0.24648511686E+03  0.17200000000E+03 0. -1.
         -6    1    1    2    0  502  0.73369409969E+02  0.33228965287E+02  0.32608228085E+03  0.37736042232E+03  0.17200000000E+03 0.  1.
</event>
<event>
 4    1 -0.6384999E-004  0.3467700E+03  0.7818608E-02  0.1063949E+00
         -5   -1    0    0    0  501 -0.00000000000E+00  0.00000000000E+00  0.34896445626E+03  0.34899610562E+03  0.47000000000E+01 0.  1.
          5   -1    0    0  501    0  0.00000000000E+00 -0.00000000000E+00 -0.12101607230E+04  0.12101698499E+04  0.47000000000E+01 0. -1.
          6    1    1    2  502    0 -0.28384945950E+03 -0.10047334702E+03 -0.10899219875E+04  0.11437566821E+04  0.17200000000E+03 0. -1.
         -6    1    1    2    0  502  0.28384945950E+03  0.10047334702E+03  0.22872572069E+03  0.41540927340E+03  0.17200000000E+03 0.  1.
</event>
<event>
 4    1 -0.6384999E-004  0.1996826E+03  0.7818608E-02  0.1150007E+00
         -5   -1    0    0    0  501 -0.00000000000E+00  0.00000000000E+00  0.51789560508E+03  0.51791693133E+03  0.47000000000E+01 0.  1.
          5   -1    0    0  501    0  0.00000000000E+00 -0.00000000000E+00 -0.77303561785E+02  0.77446308270E+02  0.47000000000E+01 0. -1.
          6    1    1    2  502    0 -0.58426972585E+02 -0.82918119905E+02  0.19870425725E+03  0.28170287110E+03  0.17200000000E+03 0. -1.
         -6    1    1    2    0  502  0.58426972585E+02  0.82918119905E+02  0.24188778604E+03  0.31366036850E+03  0.17200000000E+03 0. -1.
</event>
<event>
 4    1 -0.6384999E-004  0.3744149E+03  0.7818608E-02  0.1053018E+00
         -5   -1    0    0    0  501 -0.00000000000E+00  0.00000000000E+00  0.39773234092E+03  0.39776010989E+03  0.47000000000E+01 0.  1.
          5   -1    0    0  501    0  0.00000000000E+00 -0.00000000000E+00 -0.37388084370E+03  0.37391038403E+03  0.47000000000E+01 0. -1.
          6    1    1    2  502    0  0.18132421196E+03 -0.27879026630E+03 -0.80531260834E+02  0.38297750117E+03  0.17200000000E+03 0. -1.
         -6    1    1    2    0  502 -0.18132421196E+03  0.27879026630E+03  0.10438275806E+03  0.38869299275E+03  0.17200000000E+03 0.  1.
</event>
<event>
 4    1 -0.6384999E-004  0.2115543E+03  0.7818608E-02  0.1140341E+00
          5   -1    0    0  501    0  0.00000000000E+00  0.00000000000E+00  0.50124604644E+02  0.50344473289E+02  0.47000000000E+01 0. -1.
         -5   -1    0    0    0  501 -0.00000000000E+00 -0.00000000000E+00 -0.15182309063E+04  0.15182381812E+04  0.47000000000E+01 0.  1.
          6    1    1    2  502    0  0.12043641688E+03  0.25812343702E+02 -0.22986391255E+03  0.31239818484E+03  0.17200000000E+03 0.  1.
         -6    1    1    2    0  502 -0.12043641688E+03 -0.25812343702E+02 -0.12382423891E+04  0.12561844696E+04  0.17200000000E+03 0.  1.
</event>
<event>
 4    1 -0.6384999E-004  0.1815010E+03  0.7818608E-02  0.1166358E+00
         -5   -1    0    0    0  501 -0.00000000000E+00  0.00000000000E+00  0.30322973145E+03  0.30326615379E+03  0.47000000000E+01 0.  1.
          5   -1    0    0  501    0  0.00000000000E+00 -0.00000000000E+00 -0.11377960154E+03  0.11387663380E+03  0.47000000000E+01 0. -1.
          6    1    1    2  502    0 -0.53983482073E+02  0.21080525016E+02  0.13943386626E+03  0.22887640318E+03  0.17200000000E+03 0. -1.
         -6    1    1    2    0  502  0.53983482073E+02 -0.21080525016E+02  0.50016263653E+02  0.18826638442E+03  0.17200000000E+03 0.  1.
</event>
<event>
 4    1 -0.6384999E-004  0.1806281E+03  0.7818608E-02  0.1167197E+00
          5   -1    0    0  501    0  0.00000000000E+00  0.00000000000E+00  0.12211310741E+04  0.12211401190E+04  0.47000000000E+01 0. -1.
         -5   -1    0    0    0  501 -0.00000000000E+00 -0.00000000000E+00 -0.27756788208E+02  0.28151896768E+02  0.47000000000E+01 0.  1.
          6    1    1    2  502    0 -0.47860818648E+02  0.27420163866E+02  0.72850057155E+03  0.75055952868E+03  0.17200000000E+03 0. -1.
         -6    1    1    2    0  502  0.47860818648E+02 -0.27420163866E+02  0.46487371434E+03  0.49873248704E+03  0.17200000000E+03 0. -1.
</event>
<event>
 4    1 -0.6384999E-004  0.1778646E+03  0.7818608E-02  0.1169886E+00
          5   -1    0    0  501    0  0.00000000000E+00  0.00000000000E+00  0.79339102663E+03  0.79340494776E+03  0.47000000000E+01 0. -1.
         -5   -1    0    0    0  501 -0.00000000000E+00 -0.00000000000E+00 -0.70612511302E+02  0.70768755481E+02  0.47000000000E+01 0.  1.
          6    1    1    2  502    0 -0.10251081541E+02 -0.44121895117E+02  0.64671380477E+03  0.67072689791E+03  0.17200000000E+03 0. -1.
         -6    1    1    2    0  502  0.10251081541E+02  0.44121895117E+02  0.76064710557E+02  0.19344680533E+03  0.17200000000E+03 0.  1.
</event>
<event>
 4    1 -0.6384999E-004  0.1750449E+03  0.7818608E-02  0.1172687E+00
          5   -1    0    0  501    0  0.00000000000E+00  0.00000000000E+00  0.12545366074E+03  0.12554167034E+03  0.47000000000E+01 0. -1.
         -5   -1    0    0    0  501 -0.00000000000E+00 -0.00000000000E+00 -0.24650427850E+03  0.24654908095E+03  0.47000000000E+01 0.  1.
          6    1    1    2  502    0 -0.25928416033E+02  0.19607082591E+02 -0.41940238354E+02  0.17999917788E+03  0.17200000000E+03 0. -1.
         -6    1    1    2    0  502  0.25928416033E+02 -0.19607082591E+02 -0.79110379405E+02  0.19209157341E+03  0.17200000000E+03 0.  1.
</event>
<event>
 4    1 -0.6384999E-004  0.1897504E+03  0.7818608E-02  0.1158687E+00
          5   -1    0    0  501    0  0.00000000000E+00  0.00000000000E+00  0.50061283319E+03  0.50063489566E+03  0.47000000000E+01 0. -1.
         -5   -1    0    0    0  501 -0.00000000000E+00 -0.00000000000E+00 -0.11931189643E+03  0.11940443304E+03  0.47000000000E+01 0.  1.
          6    1    1    2  502    0 -0.51148879583E+02  0.61684798475E+02  0.38612254011E+03  0.43022765860E+03  0.17200000000E+03 0. -1.
         -6    1    1    2    0  502  0.51148879583E+02 -0.61684798475E+02 -0.48216033516E+01  0.18981167010E+03  0.17200000000E+03 0.  1.
</event>
<event>
 4    1 -0.6384999E-004  0.2141106E+03  0.7818608E-02  0.1138352E+00
          5   -1    0    0  501    0  0.00000000000E+00  0.00000000000E+00  0.20333729944E+02  0.20869848428E+02  0.47000000000E+01 0. -1.
         -5   -1    0    0    0  501 -0.00000000000E+00 -0.00000000000E+00 -0.25760322550E+04  0.25760365426E+04  0.47000000000E+01 0.  1.
          6    1    1    2  502    0 -0.18338418480E+01  0.12749896106E+03 -0.79835815770E+03  0.82657068422E+03  0.17200000000E+03 0.  1.
         -6    1    1    2    0  502  0.18338418480E+01 -0.12749896106E+03 -0.17573403673E+04  0.17703357068E+04  0.17200000000E+03 0.  1.
</event>
<event>
 4    1 -0.6384999E-004  0.2782330E+03  0.7818608E-02  0.1096658E+00
         -5   -1    0    0    0  501 -0.00000000000E+00  0.00000000000E+00  0.32862589165E+02  0.33196984300E+02  0.47000000000E+01 0.  1.
          5   -1    0    0  501    0  0.00000000000E+00 -0.00000000000E+00 -0.28513731611E+04  0.28513770347E+04  0.47000000000E+01 0. -1.
          6    1    1    2  502    0  0.19895179773E+03  0.90817338237E+02 -0.20179689135E+04  0.20370596807E+04  0.17200000000E+03 0. -1.
         -6    1    1    2    0  502 -0.19895179773E+03 -0.90817338237E+02 -0.80054165846E+03  0.84751433833E+03  0.17200000000E+03 0.  1.
</event>
<event>
 4    1 -0.6384999E-004  0.1815530E+03  0.7818608E-02  0.1166308E+00
         -5   -1    0    0    0  501 -0.00000000000E+00  0.00000000000E+00  0.45386665984E+03  0.45389099453E+03  0.47000000000E+01 0.  1.
          5   -1    0    0  501    0  0.00000000000E+00 -0.00000000000E+00 -0.74135363759E+02  0.74284198586E+02  0.47000000000E+01 0. -1.
          6    1    1    2  502    0  0.11525923911E+02 -0.56961651688E+02  0.15094521084E+03  0.23610576731E+03  0.17200000000E+03 0. -1.
         -6    1    1    2    0  502 -0.11525923911E+02  0.56961651688E+02  0.22878608524E+03  0.29206942580E+03  0.17200000000E+03 0.  1.
</event>
<event>
 4    1 -0.6384999E-004  0.1882642E+03  0.7818608E-02  0.1160036E+00
          5   -1    0    0  501    0  0.00000000000E+00  0.00000000000E+00  0.12183799483E+03  0.12192861430E+03  0.47000000000E+01 0. -1.
         -5   -1    0    0    0  501 -0.00000000000E+00 -0.00000000000E+00 -0.29938123557E+03  0.29941812606E+03  0.47000000000E+01 0.  1.
          6    1    1    2  502    0 -0.69597729250E+02 -0.31868007013E+02 -0.52880475801E+02  0.19554988752E+03  0.17200000000E+03 0. -1.
         -6    1    1    2    0  502  0.69597729250E+02  0.31868007013E+02 -0.12466276494E+03  0.22579685283E+03  0.17200000000E+03 0. -1.
</event>
<event>
 4    1 -0.6384999E-004  0.1965916E+03  0.7818608E-02  0.1152647E+00
         -5   -1    0    0    0  501 -0.00000000000E+00  0.00000000000E+00  0.31173931426E+03  0.31177474250E+03  0.47000000000E+01 0.  1.
          5   -1    0    0  501    0  0.00000000000E+00 -0.00000000000E+00 -0.13819808052E+03  0.13827797894E+03  0.47000000000E+01 0. -1.
          6    1    1    2  502    0  0.17011284247E+01  0.95191238859E+02  0.15914699695E+03  0.25293483831E+03  0.17200000000E+03 0.  1.
         -6    1    1    2    0  502 -0.17011284247E+01 -0.95191238859E+02  0.14394236793E+02  0.19711788312E+03  0.17200000000E+03 0.  1.
</event>
<event>
 4    1 -0.6384999E-004  0.1017827E+04  0.7818608E-02  0.9289206E-01
          5   -1    0    0  501    0  0.00000000000E+00  0.00000000000E+00  0.13118359370E+04  0.13118443565E+04  0.47000000000E+01 0. -1.
         -5   -1    0    0    0  501 -0.00000000000E+00 -0.00000000000E+00 -0.83250873377E+03  0.83252200079E+03  0.47000000000E+01 0.  1.
          6    1    1    2  502    0  0.46175280762E+03 -0.89060187050E+03  0.48281119006E+03  0.11265336179E+04  0.17200000000E+03 0. -1.
         -6    1    1    2    0  502 -0.46175280762E+03  0.89060187050E+03 -0.34839868322E+01  0.10178327393E+04  0.17200000000E+03 0.  1.
</event>
<event>
 4    1 -0.6384999E-004  0.2662856E+03  0.7818608E-02  0.1103424E+00
          5   -1    0    0  501    0  0.00000000000E+00  0.00000000000E+00  0.67766615559E+03  0.67768245398E+03  0.47000000000E+01 0. -1.
         -5   -1    0    0    0  501 -0.00000000000E+00 -0.00000000000E+00 -0.10885999838E+03  0.10896141173E+03  0.47000000000E+01 0.  1.
          6    1    1    2  502    0  0.18587810028E+03 -0.82300466741E+02  0.36248338233E+03  0.44978021017E+03  0.17200000000E+03 0. -1.
         -6    1    1    2    0  502 -0.18587810028E+03  0.82300466741E+02  0.20632277489E+03  0.33686365555E+03  0.17200000000E+03 0.  1.
</event>
<event>
 4    1 -0.6384999E-004  0.1877843E+03  0.7818608E-02  0.1160475E+00
          5   -1    0    0  501    0  0.00000000000E+00  0.00000000000E+00  0.75103830472E+02  0.75250749840E+02  0.47000000000E+01 0. -1.
         -5   -1    0    0    0  501 -0.00000000000E+00 -0.00000000000E+00 -0.49502679860E+03  0.49504911003E+03  0.47000000000E+01 0.  1.
          6    1    1    2  502    0 -0.32950782770E+02 -0.67773141270E+02 -0.14447007004E+03  0.23692731776E+03  0.17200000000E+03 0. -1.
         -6    1    1    2    0  502  0.32950782770E+02  0.67773141270E+02 -0.27545289809E+03  0.33337254211E+03  0.17200000000E+03 0. -1.
</event>
<event>
 4    1 -0.6384999E-004  0.2107507E+03  0.7818608E-02  0.1140973E+00
          5   -1    0    0  501    0  0.00000000000E+00  0.00000000000E+00  0.78779992461E+02  0.78920068501E+02  0.47000000000E+01 0. -1.
         -5   -1    0    0    0  501 -0.00000000000E+00 -0.00000000000E+00 -0.63218057842E+03  0.63219804945E+03  0.47000000000E+01 0.  1.
          6    1    1    2  502    0 -0.11978350337E+03 -0.21995029966E+02 -0.15921833064E+03  0.26413319714E+03  0.17200000000E+03 0. -1.
         -6    1    1    2    0  502  0.11978350337E+03  0.21995029966E+02 -0.39418225532E+03  0.44698492081E+03  0.17200000000E+03 0.  1.
</event>
<event>
 4    1 -0.6384999E-004  0.2222957E+03  0.7818608E-02  0.1132183E+00
         -5   -1    0    0    0  501 -0.00000000000E+00  0.00000000000E+00  0.19156797948E+03  0.19162562657E+03  0.47000000000E+01 0.  1.
          5   -1    0    0  501    0  0.00000000000E+00 -0.00000000000E+00 -0.27555069556E+03  0.27559077602E+03  0.47000000000E+01 0. -1.
          6    1    1    2  502    0  0.13818913065E+03 -0.27113473629E+02  0.17232533823E+02  0.22296263477E+03  0.17200000000E+03 0.  1.
         -6    1    1    2    0  502 -0.13818913065E+03  0.27113473629E+02 -0.10121524991E+03  0.24425376782E+03  0.17200000000E+03 0.  1.
</event>
<event>
 4    1 -0.6384999E-004  0.2109681E+03  0.7818608E-02  0.1140802E+00
         -5   -1    0    0    0  501 -0.00000000000E+00  0.00000000000E+00  0.68155035782E+03  0.68156656333E+03  0.47000000000E+01 0.  1.
          5   -1    0    0  501    0  0.00000000000E+00 -0.00000000000E+00 -0.23526360434E+03  0.23531054699E+03  0.47000000000E+01 0. -1.
          6    1    1    2  502    0 -0.88015778371E+01 -0.12184447206E+03 -0.16652258215E+03  0.26877000113E+03  0.17200000000E+03 0. -1.
         -6    1    1    2    0  502  0.88015778371E+01  0.12184447206E+03  0.61280933563E+03  0.64810710919E+03  0.17200000000E+03 0.  1.
</event>
<event>
 4    1 -0.6384999E-004  0.1858339E+03  0.7818608E-02  0.1162273E+00
          5   -1    0    0  501    0  0.00000000000E+00  0.00000000000E+00  0.45077259343E+03  0.45079709514E+03  0.47000000000E+01 0. -1.
         -5   -1    0    0    0  501 -0.00000000000E+00 -0.00000000000E+00 -0.13111425917E+03  0.13119847163E+03  0.47000000000E+01 0.  1.
          6    1    1    2  502    0 -0.70286795326E+02  0.31657397286E+01  0.34751787339E+03  0.39408492464E+03  0.17200000000E+03 0. -1.
         -6    1    1    2    0  502  0.70286795326E+02 -0.31657397286E+01 -0.27859539126E+02  0.18791064213E+03  0.17200000000E+03 0.  1.
</event>
<event>
 4    1 -0.6384999E-004  0.1733710E+03  0.7818608E-02  0.1174377E+00
         -5   -1    0    0    0  501 -0.00000000000E+00  0.00000000000E+00  0.46354191360E+03  0.46356574039E+03  0.47000000000E+01 0.  1.
          5   -1    0    0  501    0  0.00000000000E+00 -0.00000000000E+00 -0.12506100925E+03  0.12514929499E+03  0.47000000000E+01 0. -1.
          6    1    1    2  502    0 -0.25921610021E+01 -0.21605196683E+02 -0.35079093122E+02  0.17688427459E+03  0.17200000000E+03 0. -1.
         -6    1    1    2    0  502  0.25921610021E+01  0.21605196683E+02  0.37355999747E+03  0.41183076079E+03  0.17200000000E+03 0.  1.
</event>
<event>
 4    1 -0.6384999E-004  0.2091275E+03  0.7818608E-02  0.1142259E+00
          5   -1    0    0  501    0  0.00000000000E+00  0.00000000000E+00  0.10839397444E+03  0.10849582340E+03  0.47000000000E+01 0. -1.
         -5   -1    0    0    0  501 -0.00000000000E+00 -0.00000000000E+00 -0.40438700017E+03  0.40441431220E+03  0.47000000000E+01 0.  1.
          6    1    1    2  502    0 -0.14080360714E+02 -0.11811890204E+03 -0.16205933430E+03  0.26457051879E+03  0.17200000000E+03 0. -1.
         -6    1    1    2    0  502  0.14080360714E+02  0.11811890204E+03 -0.13393369143E+03  0.24833961681E+03  0.17200000000E+03 0.  1.
</event>
<event>
 4    1 -0.6384999E-004  0.3099508E+03  0.7818608E-02  0.1080369E+00
         -5   -1    0    0    0  501 -0.00000000000E+00  0.00000000000E+00  0.21683140393E+03  0.21688233614E+03  0.47000000000E+01 0.  1.
          5   -1    0    0  501    0  0.00000000000E+00 -0.00000000000E+00 -0.54539057573E+03  0.54541082690E+03  0.47000000000E+01 0. -1.
          6    1    1    2  502    0 -0.30030741155E+02  0.25609306481E+03 -0.32945852951E+03  0.45234105045E+03  0.17200000000E+03 0. -1.
         -6    1    1    2    0  502  0.30030741155E+02 -0.25609306481E+03  0.89935770383E+00  0.30995211259E+03  0.17200000000E+03 0.  1.
</event>
<event>
 4    1 -0.6384999E-004  0.1752148E+03  0.7818608E-02  0.1172516E+00
          5   -1    0    0  501    0  0.00000000000E+00  0.00000000000E+00  0.26457939945E+03  0.26462114166E+03  0.47000000000E+01 0. -1.
         -5   -1    0    0    0  501 -0.00000000000E+00 -0.00000000000E+00 -0.12579699179E+03  0.12588476136E+03  0.47000000000E+01 0.  1.
          6    1    1    2  502    0  0.77438123658E+01  0.32500308799E+02  0.12403006130E+03  0.21467112710E+03  0.17200000000E+03 0. -1.
         -6    1    1    2    0  502 -0.77438123658E+01 -0.32500308799E+02  0.14752346357E+02  0.17583477593E+03  0.17200000000E+03 0.  1.
</event>
<event>
 4    1 -0.6384999E-004  0.1721075E+03  0.7818608E-02  0.1175668E+00
          5   -1    0    0  501    0  0.00000000000E+00  0.00000000000E+00  0.27887979989E+03  0.27891940195E+03  0.47000000000E+01 0. -1.
         -5   -1    0    0    0  501 -0.00000000000E+00 -0.00000000000E+00 -0.11167009728E+03  0.11176896093E+03  0.47000000000E+01 0.  1.
          6    1    1    2  502    0 -0.15477854552E+01 -0.58808409480E+01  0.40063251324E+02  0.17670892461E+03  0.17200000000E+03 0.  1.
         -6    1    1    2    0  502  0.15477854552E+01  0.58808409480E+01  0.12714645128E+03  0.21397943827E+03  0.17200000000E+03 0. -1.
</event>
<event>
 4    1 -0.6384999E-004  0.3132255E+03  0.7818608E-02  0.1078810E+00
          5   -1    0    0  501    0  0.00000000000E+00  0.00000000000E+00  0.11118926149E+03  0.11128855228E+03  0.47000000000E+01 0. -1.
         -5   -1    0    0    0  501 -0.00000000000E+00 -0.00000000000E+00 -0.13759596102E+04  0.13759676373E+04  0.47000000000E+01 0.  1.
          6    1    1    2  502    0 -0.25929574362E+03 -0.35943462964E+02 -0.18679289973E+03  0.36469412194E+03  0.17200000000E+03 0. -1.
         -6    1    1    2    0  502  0.25929574362E+03  0.35943462964E+02 -0.10779774490E+04  0.11225620677E+04  0.17200000000E+03 0.  1.
</event>
<event>
 4    1 -0.6384999E-004  0.3624226E+03  0.7818608E-02  0.1057629E+00
         -5   -1    0    0    0  501 -0.00000000000E+00  0.00000000000E+00  0.10968929817E+04  0.10969030510E+04  0.47000000000E+01 0.  1.
          5   -1    0    0  501    0  0.00000000000E+00 -0.00000000000E+00 -0.13260083779E+03  0.13268410674E+03  0.47000000000E+01 0. -1.
          6    1    1    2  502    0  0.74564962011E+02 -0.31017119751E+03  0.29038439241E+03  0.46440628837E+03  0.17200000000E+03 0.  1.
         -6    1    1    2    0  502 -0.74564962011E+02  0.31017119751E+03  0.67390775150E+03  0.76518086938E+03  0.17200000000E+03 0. -1.
</event>
<event>
 4    1 -0.6384999E-004  0.2161258E+03  0.7818608E-02  0.1136805E+00
         -5   -1    0    0    0  501 -0.00000000000E+00  0.00000000000E+00  0.19942482213E+03  0.19948019872E+03  0.47000000000E+01 0.  1.
          5   -1    0    0  501    0  0.00000000000E+00 -0.00000000000E+00 -0.28142411133E+03  0.28146335541E+03  0.47000000000E+01 0. -1.
          6    1    1    2  502    0 -0.12596890985E+03  0.35471103998E+02  0.57579399798E+02  0.22366437523E+03  0.17200000000E+03 0.  1.
         -6    1    1    2    0  502  0.12596890985E+03 -0.35471103998E+02 -0.13957868900E+03  0.25727917889E+03  0.17200000000E+03 0. -1.
</event>
<event>
 4    1 -0.6384999E-004  0.1955646E+03  0.7818608E-02  0.1153536E+00
          5   -1    0    0  501    0  0.00000000000E+00  0.00000000000E+00  0.29644446591E+03  0.29648172182E+03  0.47000000000E+01 0. -1.
         -5   -1    0    0    0  501 -0.00000000000E+00 -0.00000000000E+00 -0.13277531789E+03  0.13285847749E+03  0.47000000000E+01 0.  1.
          6    1    1    2  502    0  0.42611855001E+02  0.82738952763E+02  0.45299256909E+02  0.20074243988E+03  0.17200000000E+03 0. -1.
         -6    1    1    2    0  502 -0.42611855001E+02 -0.82738952763E+02  0.11836989112E+03  0.22859775943E+03  0.17200000000E+03 0. -1.
</event>
<event>
 4    1 -0.6384999E-004  0.2162332E+03  0.7818608E-02  0.1136723E+00
         -5   -1    0    0    0  501 -0.00000000000E+00  0.00000000000E+00  0.40149451990E+02  0.40423613089E+02  0.47000000000E+01 0.  1.
          5   -1    0    0  501    0  0.00000000000E+00 -0.00000000000E+00 -0.12492695197E+04  0.12492783608E+04  0.47000000000E+01 0. -1.
          6    1    1    2  502    0  0.81650010752E+02  0.10249923794E+03 -0.77660223543E+03  0.80614381478E+03  0.17200000000E+03 0. -1.
         -6    1    1    2    0  502 -0.81650010752E+02 -0.10249923794E+03 -0.43251783229E+03  0.48355815915E+03  0.17200000000E+03 0.  1.
</event>
<event>
 4    1 -0.6384999E-004  0.1850339E+03  0.7818608E-02  0.1163018E+00
          5   -1    0    0  501    0  0.00000000000E+00  0.00000000000E+00  0.99734490277E+02  0.99845172897E+02  0.47000000000E+01 0. -1.
         -5   -1    0    0    0  501 -0.00000000000E+00 -0.00000000000E+00 -0.34425369777E+03  0.34428578017E+03  0.47000000000E+01 0.  1.
          6    1    1    2  502    0 -0.48764751551E+02 -0.47702808132E+02 -0.10870134716E+03  0.21460088949E+03  0.17200000000E+03 0.  1.
         -6    1    1    2    0  502  0.48764751551E+02  0.47702808132E+02 -0.13581786033E+03  0.22953006357E+03  0.17200000000E+03 0.  1.
</event>
<event>
 4    1 -0.6384999E-004  0.1981559E+03  0.7818608E-02  0.1151304E+00
          5   -1    0    0  501    0  0.00000000000E+00  0.00000000000E+00  0.12316245164E+03  0.12325209732E+03  0.47000000000E+01 0. -1.
         -5   -1    0    0    0  501 -0.00000000000E+00 -0.00000000000E+00 -0.43016227664E+03  0.43018795223E+03  0.47000000000E+01 0.  1.
          6    1    1    2  502    0 -0.31628414248E+02 -0.93174120341E+02 -0.12589752777E+02  0.19855547125E+03  0.17200000000E+03 0. -1.
         -6    1    1    2    0  502  0.31628414248E+02  0.93174120341E+02 -0.29441007222E+03  0.35488457830E+03  0.17200000000E+03 0.  1.
</event>
<event>
 4    1 -0.6384999E-004  0.2170567E+03  0.7818608E-02  0.1136097E+00
          5   -1    0    0  501    0  0.00000000000E+00  0.00000000000E+00  0.99413727314E+02  0.99524766658E+02  0.47000000000E+01 0. -1.
         -5   -1    0    0    0  501 -0.00000000000E+00 -0.00000000000E+00 -0.57042571759E+03  0.57044507999E+03  0.47000000000E+01 0.  1.
          6    1    1    2  502    0  0.12929785749E+03  0.28490176662E+02 -0.37355500276E+03  0.43203815365E+03  0.17200000000E+03 0.  1.
         -6    1    1    2    0  502 -0.12929785749E+03 -0.28490176662E+02 -0.97456987510E+02  0.23793169300E+03  0.17200000000E+03 0. -1.
</event>
<event>
 4    1 -0.6384999E-004  0.2159142E+03  0.7818608E-02  0.1136966E+00
          5   -1    0    0  501    0  0.00000000000E+00  0.00000000000E+00  0.14856607037E+03  0.14864039580E+03  0.47000000000E+01 0. -1.
         -5   -1    0    0    0  501 -0.00000000000E+00 -0.00000000000E+00 -0.34533099965E+03  0.34536298197E+03  0.47000000000E+01 0.  1.
          6    1    1    2  502    0  0.10936873102E+03 -0.71227885184E+02 -0.17321739722E+03  0.27680895515E+03  0.17200000000E+03 0.  1.
         -6    1    1    2    0  502 -0.10936873102E+03  0.71227885184E+02 -0.23547532055E+02  0.21719442262E+03  0.17200000000E+03 0. -1.
</event>
<event>
 4    1 -0.6384999E-004  0.1804415E+03  0.7818608E-02  0.1167376E+00
         -5   -1    0    0    0  501 -0.00000000000E+00  0.00000000000E+00  0.25133035196E+03  0.25137429427E+03  0.47000000000E+01 0.  1.
          5   -1    0    0  501    0  0.00000000000E+00 -0.00000000000E+00 -0.13029287733E+03  0.13037762033E+03  0.47000000000E+01 0. -1.
          6    1    1    2  502    0 -0.54296420625E+02 -0.51986751882E+01  0.75870534052E+02  0.19574336631E+03  0.17200000000E+03 0.  1.
         -6    1    1    2    0  502  0.54296420625E+02  0.51986751882E+01  0.45166940576E+02  0.18600854829E+03  0.17200000000E+03 0.  1.
</event>
<event>
 4    1 -0.6384999E-004  0.2492930E+03  0.7818608E-02  0.1113752E+00
         -5   -1    0    0    0  501 -0.00000000000E+00  0.00000000000E+00  0.11113805686E+04  0.11113905067E+04  0.47000000000E+01 0.  1.
          5   -1    0    0  501    0  0.00000000000E+00 -0.00000000000E+00 -0.57690336300E+02  0.57881472877E+02  0.47000000000E+01 0. -1.
          6    1    1    2  502    0  0.10754845718E+03 -0.14490109452E+03  0.42147667393E+03  0.48968314705E+03  0.17200000000E+03 0. -1.
         -6    1    1    2    0  502 -0.10754845718E+03  0.14490109452E+03  0.63221355839E+03  0.67958883249E+03  0.17200000000E+03 0. -1.
</event>
<event>
 4    1 -0.6384999E-004  0.5244285E+03  0.7818608E-02  0.1007592E+00
         -5   -1    0    0    0  501 -0.00000000000E+00  0.00000000000E+00  0.85008740932E+03  0.85010040200E+03  0.47000000000E+01 0.  1.
          5   -1    0    0  501    0  0.00000000000E+00 -0.00000000000E+00 -0.64160597408E+03  0.64162318847E+03  0.47000000000E+01 0. -1.
          6    1    1    2  502    0  0.93201560520E+02 -0.48657449156E+03 -0.42093125360E+03  0.67246441317E+03  0.17200000000E+03 0.  1.
         -6    1    1    2    0  502 -0.93201560520E+02  0.48657449156E+03  0.62941268883E+03  0.81925917730E+03  0.17200000000E+03 0.  1.
</event>
<event>
 4    1 -0.6384999E-004  0.2102193E+03  0.7818608E-02  0.1141392E+00
         -5   -1    0    0    0  501 -0.00000000000E+00  0.00000000000E+00  0.70327297599E+03  0.70328868095E+03  0.47000000000E+01 0.  1.
          5   -1    0    0  501    0  0.00000000000E+00 -0.00000000000E+00 -0.62748875937E+02  0.62924648838E+02  0.47000000000E+01 0. -1.
          6    1    1    2  502    0 -0.75524132430E+02 -0.94362286997E+02  0.32625044336E+03  0.38811272535E+03  0.17200000000E+03 0. -1.
         -6    1    1    2    0  502  0.75524132430E+02  0.94362286997E+02  0.31427365669E+03  0.37810060444E+03  0.17200000000E+03 0.  1.
</event>
<event>
 4    1 -0.6384999E-004  0.2351258E+03  0.7818608E-02  0.1123083E+00
         -5   -1    0    0    0  501 -0.00000000000E+00  0.00000000000E+00  0.89888342632E+03  0.89889571370E+03  0.47000000000E+01 0.  1.
          5   -1    0    0  501    0  0.00000000000E+00 -0.00000000000E+00 -0.65224809758E+02  0.65393927914E+02  0.47000000000E+01 0. -1.
          6    1    1    2  502    0  0.15963055660E+03  0.14772488956E+02  0.30025014428E+03  0.38135847987E+03  0.17200000000E+03 0. -1.
         -6    1    1    2    0  502 -0.15963055660E+03 -0.14772488956E+02  0.53340847228E+03  0.58293116175E+03  0.17200000000E+03 0.  1.
</event>
<event>
 4    1 -0.6384999E-004  0.1925622E+03  0.7818608E-02  0.1156171E+00
          5   -1    0    0  501    0  0.00000000000E+00  0.00000000000E+00  0.16379381013E+03  0.16386122860E+03  0.47000000000E+01 0. -1.
         -5   -1    0    0    0  501 -0.00000000000E+00 -0.00000000000E+00 -0.24109038761E+03  0.24113619595E+03  0.47000000000E+01 0.  1.
          6    1    1    2  502    0 -0.31569709837E+02  0.80619757214E+02 -0.88885511302E+02  0.21208683588E+03  0.17200000000E+03 0.  1.
         -6    1    1    2    0  502  0.31569709837E+02 -0.80619757214E+02  0.11588933825E+02  0.19291058867E+03  0.17200000000E+03 0.  1.
</event>
<event>
 4    1 -0.6384999E-004  0.2308768E+03  0.7818608E-02  0.1126024E+00
          5   -1    0    0  501    0  0.00000000000E+00  0.00000000000E+00  0.15501697237E+03  0.15508820627E+03  0.47000000000E+01 0. -1.
         -5   -1    0    0    0  501 -0.00000000000E+00 -0.00000000000E+00 -0.34410073814E+03  0.34413283480E+03  0.47000000000E+01 0.  1.
          6    1    1    2  502    0 -0.14636961625E+03 -0.47916902544E+02 -0.10312831938E+03  0.25286269865E+03  0.17200000000E+03 0. -1.
         -6    1    1    2    0  502  0.14636961625E+03  0.47916902544E+02 -0.85955446382E+02  0.24635834241E+03  0.17200000000E+03 0.  1.
</event>
<event>
 4    1 -0.6384999E-004  0.1845761E+03  0.7818608E-02  0.1163446E+00
         -5   -1    0    0    0  501 -0.00000000000E+00  0.00000000000E+00  0.20993966186E+03  0.20999226562E+03  0.47000000000E+01 0.  1.
          5   -1    0    0  501    0  0.00000000000E+00 -0.00000000000E+00 -0.16564547868E+03  0.16571214381E+03  0.47000000000E+01 0. -1.
          6    1    1    2  502    0  0.66965198307E+02 -0.72032711812E-01  0.49348165750E+02  0.19105911241E+03  0.17200000000E+03 0.  1.
         -6    1    1    2    0  502 -0.66965198307E+02  0.72032711812E-01 -0.50539825722E+01  0.18464529702E+03  0.17200000000E+03 0. -1.
</event>
<event>
 4    1 -0.6384999E-004  0.2527305E+03  0.7818608E-02  0.1111591E+00
         -5   -1    0    0    0  501 -0.00000000000E+00  0.00000000000E+00  0.87009451216E+03  0.87010720609E+03  0.47000000000E+01 0.  1.
          5   -1    0    0  501    0  0.00000000000E+00 -0.00000000000E+00 -0.14111691764E+03  0.14119516438E+03  0.47000000000E+01 0. -1.
          6    1    1    2  502    0  0.91619389684E+02  0.16091789161E+03  0.14164986294E+02  0.25312709702E+03  0.17200000000E+03 0. -1.
         -6    1    1    2    0  502 -0.91619389684E+02 -0.16091789161E+03  0.71481260822E+03  0.75817527346E+03  0.17200000000E+03 0.  1.
</event>
<event>
 4    1 -0.6384999E-004  0.1926458E+03  0.7818608E-02  0.1156096E+00
          5   -1    0    0  501    0  0.00000000000E+00  0.00000000000E+00  0.12486898415E+03  0.12495740555E+03  0.47000000000E+01 0. -1.
         -5   -1    0    0    0  501 -0.00000000000E+00 -0.00000000000E+00 -0.51948816877E+03  0.51950942965E+03  0.47000000000E+01 0.  1.
          6    1    1    2  502    0  0.14558544895E+02 -0.85536287802E+02  0.13547607093E+02  0.19312158196E+03  0.17200000000E+03 0. -1.
         -6    1    1    2    0  502 -0.14558544895E+02  0.85536287802E+02 -0.40816679172E+03  0.45134525324E+03  0.17200000000E+03 0.  1.
</event>
<event>
 4    1 -0.6384999E-004  0.2401816E+03  0.7818608E-02  0.1119672E+00
         -5   -1    0    0    0  501 -0.00000000000E+00  0.00000000000E+00  0.10235657574E+03  0.10246442601E+03  0.47000000000E+01 0.  1.
          5   -1    0    0  501    0  0.00000000000E+00 -0.00000000000E+00 -0.57434496415E+03  0.57436419444E+03  0.47000000000E+01 0. -1.
          6    1    1    2  502    0 -0.90844535922E+01 -0.16739372923E+03 -0.28318096767E+03  0.37132014264E+03  0.17200000000E+03 0. -1.
         -6    1    1    2    0  502  0.90844535922E+01  0.16739372923E+03 -0.18880742074E+03  0.30550847780E+03  0.17200000000E+03 0.  1.
</event>
<event>
 4    1 -0.6384999E-004  0.1952586E+03  0.7818608E-02  0.1153802E+00
          5   -1    0    0  501    0  0.00000000000E+00  0.00000000000E+00  0.43295212827E+03  0.43297763842E+03  0.47000000000E+01 0. -1.
         -5   -1    0    0    0  501 -0.00000000000E+00 -0.00000000000E+00 -0.87994868079E+02  0.88120297369E+02  0.47000000000E+01 0.  1.
          6    1    1    2  502    0 -0.57751404574E+02 -0.72157529428E+02  0.17689417429E+03  0.26347197703E+03  0.17200000000E+03 0. -1.
         -6    1    1    2    0  502  0.57751404574E+02  0.72157529428E+02  0.16806308590E+03  0.25762595876E+03  0.17200000000E+03 0.  1.
</event>
<event>
 4    1 -0.6384999E-004  0.1991127E+03  0.7818608E-02  0.1150490E+00
         -5   -1    0    0    0  501 -0.00000000000E+00  0.00000000000E+00  0.58511523259E+02  0.58699985981E+02  0.47000000000E+01 0.  1.
          5   -1    0    0  501    0  0.00000000000E+00 -0.00000000000E+00 -0.92151733919E+03  0.92152932478E+03  0.47000000000E+01 0. -1.
          6    1    1    2  502    0  0.82416314364E+02  0.57178890182E+02 -0.68430733869E+03  0.71268675316E+03  0.17200000000E+03 0. -1.
         -6    1    1    2    0  502 -0.82416314364E+02 -0.57178890182E+02 -0.17869847725E+03  0.26754255760E+03  0.17200000000E+03 0.  1.
</event>
<event>
 4    1 -0.6384999E-004  0.3022043E+03  0.7818608E-02  0.1084144E+00
         -5   -1    0    0    0  501 -0.00000000000E+00  0.00000000000E+00  0.57589534872E+03  0.57591452723E+03  0.47000000000E+01 0.  1.
          5   -1    0    0  501    0  0.00000000000E+00 -0.00000000000E+00 -0.17492661140E+03  0.17498974077E+03  0.47000000000E+01 0. -1.
          6    1    1    2  502    0  0.18432578619E+03 -0.16663563024E+03  0.31541632849E+03  0.43682363604E+03  0.17200000000E+03 0.  1.
         -6    1    1    2    0  502 -0.18432578619E+03  0.16663563024E+03  0.85552408826E+02  0.31408063197E+03  0.17200000000E+03 0.  1.
</event>
<event>
 4    1 -0.6384999E-004  0.1837306E+03  0.7818608E-02  0.1164241E+00
         -5   -1    0    0    0  501 -0.00000000000E+00  0.00000000000E+00  0.30670990148E+03  0.30674591060E+03  0.47000000000E+01 0.  1.
          5   -1    0    0  501    0  0.00000000000E+00 -0.00000000000E+00 -0.13284332625E+03  0.13292644331E+03  0.47000000000E+01 0. -1.
          6    1    1    2  502    0 -0.18642086192E+02  0.61849760368E+02 -0.42462215468E+01  0.18377962518E+03  0.17200000000E+03 0. -1.
         -6    1    1    2    0  502  0.18642086192E+02 -0.61849760368E+02  0.17811279678E+03  0.25589272872E+03  0.17200000000E+03 0.  1.
</event>
<event>
 4    1 -0.6384999E-004  0.2041959E+03  0.7818608E-02  0.1146246E+00
         -5   -1    0    0    0  501 -0.00000000000E+00  0.00000000000E+00  0.33127981418E+03  0.33131315290E+03  0.47000000000E+01 0.  1.
          5   -1    0    0  501    0  0.00000000000E+00 -0.00000000000E+00 -0.35173137802E+03  0.35176277842E+03  0.47000000000E+01 0. -1.
          6    1    1    2  502    0  0.85485246936E+02  0.69312619229E+02 -0.28393147134E+03  0.34973282237E+03  0.17200000000E+03 0. -1.
         -6    1    1    2    0  502 -0.85485246936E+02 -0.69312619229E+02  0.26347990750E+03  0.33334310895E+03  0.17200000000E+03 0.  1.
</event>
<event>
 4    1 -0.6384999E-004  0.2080103E+03  0.7818608E-02  0.1143151E+00
         -5   -1    0    0    0  501 -0.00000000000E+00  0.00000000000E+00  0.20862854940E+03  0.20868148366E+03  0.47000000000E+01 0.  1.
          5   -1    0    0  501    0  0.00000000000E+00 -0.00000000000E+00 -0.21545493280E+03  0.21550619032E+03  0.47000000000E+01 0. -1.
          6    1    1    2  502    0 -0.88611848344E+02  0.76369071086E+02 -0.44696269396E+02  0.21275819886E+03  0.17200000000E+03 0. -1.
         -6    1    1    2    0  502  0.88611848344E+02 -0.76369071086E+02  0.37869885995E+02  0.21142947512E+03  0.17200000000E+03 0. -1.
</event>
<event>
 4    1 -0.6384999E-004  0.1860588E+03  0.7818608E-02  0.1162065E+00
          5   -1    0    0  501    0  0.00000000000E+00  0.00000000000E+00  0.14925667607E+03  0.14933065778E+03  0.47000000000E+01 0. -1.
         -5   -1    0    0    0  501 -0.00000000000E+00 -0.00000000000E+00 -0.30894547916E+03  0.30898122773E+03  0.47000000000E+01 0.  1.
          6    1    1    2  502    0 -0.22619876760E+02 -0.67247448832E+02  0.34659590103E+02  0.18925951861E+03  0.17200000000E+03 0. -1.
         -6    1    1    2    0  502  0.22619876760E+02  0.67247448832E+02 -0.19434839319E+03  0.26905236690E+03  0.17200000000E+03 0.  1.
</event>
<event>
 4    1 -0.6384999E-004  0.2932942E+03  0.7818608E-02  0.1088642E+00
          5   -1    0    0  501    0  0.00000000000E+00  0.00000000000E+00  0.30327868385E+03  0.30331510032E+03  0.47000000000E+01 0. -1.
         -5   -1    0    0    0  501 -0.00000000000E+00 -0.00000000000E+00 -0.42222128801E+03  0.42224744647E+03  0.47000000000E+01 0.  1.
          6    1    1    2  502    0 -0.22341103486E+03  0.80777480150E+02  0.14840658919E+03  0.32870352525E+03  0.17200000000E+03 0. -1.
         -6    1    1    2    0  502  0.22341103486E+03 -0.80777480150E+02 -0.26734919334E+03  0.39685902154E+03  0.17200000000E+03 0.  1.
</event>
<event>
 4    1 -0.6384999E-004  0.2624333E+03  0.7818608E-02  0.1105690E+00
         -5   -1    0    0    0  501 -0.00000000000E+00  0.00000000000E+00  0.13740552209E+03  0.13748588110E+03  0.47000000000E+01 0.  1.
          5   -1    0    0  501    0  0.00000000000E+00 -0.00000000000E+00 -0.54290867189E+03  0.54292901563E+03  0.47000000000E+01 0. -1.
          6    1    1    2  502    0  0.12407384416E+02 -0.19782138487E+03 -0.29727785708E+03  0.39654176049E+03  0.17200000000E+03 0. -1.
         -6    1    1    2    0  502 -0.12407384416E+02  0.19782138487E+03 -0.10822529272E+03  0.28387313625E+03  0.17200000000E+03 0.  1.
</event>
<event>
 4    1 -0.6384999E-004  0.2553129E+03  0.7818608E-02  0.1109992E+00
         -5   -1    0    0    0  501 -0.00000000000E+00  0.00000000000E+00  0.34220096947E+03  0.34223324430E+03  0.47000000000E+01 0.  1.
          5   -1    0    0  501    0  0.00000000000E+00 -0.00000000000E+00 -0.19188935824E+03  0.19194690882E+03  0.47000000000E+01 0. -1.
          6    1    1    2  502    0  0.11326345691E+03 -0.15090418154E+03  0.51759834031E+02  0.26050674290E+03  0.17200000000E+03 0. -1.
         -6    1    1    2    0  502 -0.11326345691E+03  0.15090418154E+03  0.98551777196E+02  0.27367341023E+03  0.17200000000E+03 0.  1.
</event>
<event>
 4    1 -0.6384999E-004  0.2030087E+03  0.7818608E-02  0.1147225E+00
          5   -1    0    0  501    0  0.00000000000E+00  0.00000000000E+00  0.36164827386E+03  0.36167881329E+03  0.47000000000E+01 0. -1.
         -5   -1    0    0    0  501 -0.00000000000E+00 -0.00000000000E+00 -0.11458545307E+03  0.11468180351E+03  0.47000000000E+01 0.  1.
          6    1    1    2  502    0  0.19805851306E+02  0.10600118671E+03  0.14229353360E+03  0.24791122007E+03  0.17200000000E+03 0. -1.
         -6    1    1    2    0  502 -0.19805851306E+02 -0.10600118671E+03  0.10476928718E+03  0.22844939673E+03  0.17200000000E+03 0.  1.
</event>
<event>
 4    1 -0.6384999E-004  0.2027757E+03  0.7818608E-02  0.1147418E+00
          5   -1    0    0  501    0  0.00000000000E+00  0.00000000000E+00  0.17081808259E+03  0.17088272979E+03  0.47000000000E+01 0. -1.
         -5   -1    0    0    0  501 -0.00000000000E+00 -0.00000000000E+00 -0.27075876660E+03  0.27079955630E+03  0.47000000000E+01 0.  1.
          6    1    1    2  502    0  0.28955142869E+02 -0.10341943197E+03  0.23745425081E+02  0.20416127062E+03  0.17200000000E+03 0.  1.
         -6    1    1    2    0  502 -0.28955142869E+02  0.10341943197E+03 -0.12368610909E+03  0.23752101547E+03  0.17200000000E+03 0.  1.
</event>
<event>
 4    1 -0.6384999E-004  0.1823613E+03  0.7818608E-02  0.1165537E+00
         -5   -1    0    0    0  501 -0.00000000000E+00  0.00000000000E+00  0.75806466617E+02  0.75952026839E+02  0.47000000000E+01 0.  1.
          5   -1    0    0  501    0  0.00000000000E+00 -0.00000000000E+00 -0.58403594296E+03  0.58405485416E+03  0.47000000000E+01 0. -1.
          6    1    1    2  502    0 -0.30480694422E+02 -0.52369578607E+02 -0.89185004592E+02  0.20300150379E+03  0.17200000000E+03 0.  1.
         -6    1    1    2    0  502  0.30480694422E+02  0.52369578607E+02 -0.41904447175E+03  0.45700537721E+03  0.17200000000E+03 0.  1.
</event>
<event>
 4    1 -0.6384999E-004  0.2743455E+03  0.7818608E-02  0.1098818E+00
          5   -1    0    0  501    0  0.00000000000E+00  0.00000000000E+00  0.31194646302E+03  0.31198186773E+03  0.47000000000E+01 0. -1.
         -5   -1    0    0    0  501 -0.00000000000E+00 -0.00000000000E+00 -0.24713976798E+03  0.24718445525E+03  0.47000000000E+01 0.  1.
          6    1    1    2  502    0  0.13030908619E+03 -0.16941368558E+03  0.75722152218E+02  0.28460375813E+03  0.17200000000E+03 0. -1.
         -6    1    1    2    0  502 -0.13030908619E+03  0.16941368558E+03 -0.10915457176E+02  0.27456256484E+03  0.17200000000E+03 0.  1.
</event>
<event>
 4    1 -0.6384999E-004  0.1742090E+03  0.7818608E-02  0.1173528E+00
         -5   -1    0    0    0  501 -0.00000000000E+00  0.00000000000E+00  0.13992210680E+03  0.14000102132E+03  0.47000000000E+01 0.  1.
          5   -1    0    0  501    0  0.00000000000E+00 -0.00000000000E+00 -0.21674284024E+03  0.21679379326E+03  0.47000000000E+01 0. -1.
          6    1    1    2  502    0 -0.17974301952E+02  0.21016324936E+02 -0.37149031981E+02  0.17812583199E+03  0.17200000000E+03 0. -1.
         -6    1    1    2    0  502  0.17974301952E+02 -0.21016324936E+02 -0.39671701461E+02  0.17866898259E+03  0.17200000000E+03 0.  1.
</event>
<event>
 4    1 -0.6384999E-004  0.1858512E+03  0.7818608E-02  0.1162257E+00
          5   -1    0    0  501    0  0.00000000000E+00  0.00000000000E+00  0.30998361292E+02  0.31352645866E+02  0.47000000000E+01 0. -1.
         -5   -1    0    0    0  501 -0.00000000000E+00 -0.00000000000E+00 -0.16496635764E+04  0.16496702716E+04  0.47000000000E+01 0.  1.
          6    1    1    2  502    0 -0.48521437760E+02 -0.51013289890E+02 -0.32757365429E+03  0.37662339897E+03  0.17200000000E+03 0. -1.
         -6    1    1    2    0  502  0.48521437760E+02  0.51013289890E+02 -0.12910915608E+04  0.13043995185E+04  0.17200000000E+03 0.  1.
</event>
<event>
 4    1 -0.6384999E-004  0.6250848E+03  0.7818608E-02  0.9854688E-01
          5   -1    0    0  501    0  0.00000000000E+00  0.00000000000E+00  0.13635826735E+04  0.13635907735E+04  0.47000000000E+01 0. -1.
         -5   -1    0    0    0  501 -0.00000000000E+00 -0.00000000000E+00 -0.29672747843E+03  0.29676469880E+03  0.47000000000E+01 0.  1.
          6    1    1    2  502    0 -0.26644330756E+03 -0.53866037566E+03  0.68739750175E+03  0.92911052188E+03  0.17200000000E+03 0. -1.
         -6    1    1    2    0  502  0.26644330756E+03  0.53866037566E+03  0.37945769334E+03  0.73124495040E+03  0.17200000000E+03 0.  1.
</event>
<event>
 4    1 -0.6384999E-004  0.2315632E+03  0.7818608E-02  0.1125544E+00
         -5   -1    0    0    0  501 -0.00000000000E+00  0.00000000000E+00  0.49104705150E+02  0.49329119877E+02  0.47000000000E+01 0.  1.
          5   -1    0    0  501    0  0.00000000000E+00 -0.00000000000E+00 -0.12331845608E+04  0.12331935173E+04  0.47000000000E+01 0. -1.
          6    1    1    2  502    0  0.65434807506E+02 -0.14055534400E+03 -0.81108870811E+03  0.84349653893E+03  0.17200000000E+03 0. -1.
         -6    1    1    2    0  502 -0.65434807506E+02  0.14055534400E+03 -0.37299114755E+03  0.43902609821E+03  0.17200000000E+03 0.  1.
</event>
<event>
 4    1 -0.6384999E-004  0.2424398E+03  0.7818608E-02  0.1118178E+00
         -5   -1    0    0    0  501 -0.00000000000E+00  0.00000000000E+00  0.33111121981E+03  0.33114457550E+03  0.47000000000E+01 0.  1.
          5   -1    0    0  501    0  0.00000000000E+00 -0.00000000000E+00 -0.17786865499E+03  0.17793074054E+03  0.47000000000E+01 0. -1.
          6    1    1    2  502    0  0.14883258523E+03  0.83916005117E+02  0.89098058888E+02  0.25829343476E+03  0.17200000000E+03 0. -1.
         -6    1    1    2    0  502 -0.14883258523E+03 -0.83916005117E+02  0.64144505925E+02  0.25078188128E+03  0.17200000000E+03 0.  1.
</event>
<event>
 4    1 -0.6384999E-004  0.1923407E+03  0.7818608E-02  0.1156367E+00
         -5   -1    0    0    0  501 -0.00000000000E+00  0.00000000000E+00  0.52863179237E+02  0.53071703562E+02  0.47000000000E+01 0.  1.
          5   -1    0    0  501    0  0.00000000000E+00 -0.00000000000E+00 -0.72761482032E+03  0.72762999990E+03  0.47000000000E+01 0. -1.
          6    1    1    2  502    0 -0.78401954982E+02  0.35553677350E+02 -0.25894301514E+03  0.32256226625E+03  0.17200000000E+03 0. -1.
         -6    1    1    2    0  502  0.78401954982E+02 -0.35553677350E+02 -0.41580862594E+03  0.45813943721E+03  0.17200000000E+03 0. -1.
</event>
<event>
 4    1 -0.6384999E-004  0.1987997E+03  0.7818608E-02  0.1150756E+00
          5   -1    0    0  501    0  0.00000000000E+00  0.00000000000E+00  0.19808118635E+03  0.19813693846E+03  0.47000000000E+01 0. -1.
         -5   -1    0    0    0  501 -0.00000000000E+00 -0.00000000000E+00 -0.20381579207E+03  0.20386997596E+03  0.47000000000E+01 0.  1.
          6    1    1    2  502    0  0.94190176553E+02 -0.32642252286E+02  0.26679948208E+02  0.20058196736E+03  0.17200000000E+03 0. -1.
         -6    1    1    2    0  502 -0.94190176553E+02  0.32642252286E+02 -0.32414553934E+02  0.20142494706E+03  0.17200000000E+03 0.  1.
</event>
<event>
 4    1 -0.6384999E-004  0.2043351E+03  0.7818608E-02  0.1146132E+00
         -5   -1    0    0    0  501 -0.00000000000E+00  0.00000000000E+00  0.40786446375E+03  0.40789154292E+03  0.47000000000E+01 0.  1.
          5   -1    0    0  501    0  0.00000000000E+00 -0.00000000000E+00 -0.10466615263E+03  0.10477162549E+03  0.47000000000E+01 0. -1.
          6    1    1    2  502    0 -0.15037209502E+02  0.10928264235E+03  0.19023808091E+03  0.27918334660E+03  0.17200000000E+03 0. -1.
         -6    1    1    2    0  502  0.15037209502E+02 -0.10928264235E+03  0.11296023020E+03  0.23347982181E+03  0.17200000000E+03 0.  1.
</event>
<event>
 4    1 -0.6384999E-004  0.1942794E+03  0.7818608E-02  0.1154657E+00
          5   -1    0    0  501    0  0.00000000000E+00  0.00000000000E+00  0.10677127374E+03  0.10687466911E+03  0.47000000000E+01 0. -1.
         -5   -1    0    0    0  501 -0.00000000000E+00 -0.00000000000E+00 -0.42339255775E+03  0.42341864385E+03  0.47000000000E+01 0.  1.
          6    1    1    2  502    0 -0.89577151923E+02  0.11679445002E+02 -0.50381751348E+02  0.20070574593E+03  0.17200000000E+03 0. -1.
         -6    1    1    2    0  502  0.89577151923E+02 -0.11679445002E+02 -0.26623953266E+03  0.32958756702E+03  0.17200000000E+03 0. -1.
</event>
<event>
 4    1 -0.6384999E-004  0.3672353E+03  0.7818608E-02  0.1055755E+00
         -5   -1    0    0    0  501 -0.00000000000E+00  0.00000000000E+00  0.53608250802E+03  0.53610311080E+03  0.47000000000E+01 0.  1.
          5   -1    0    0  501    0  0.00000000000E+00 -0.00000000000E+00 -0.25890347713E+03  0.25894613430E+03  0.47000000000E+01 0. -1.
          6    1    1    2  502    0 -0.32242920519E+03 -0.36293215152E+02  0.20570488225E+03  0.42092313836E+03  0.17200000000E+03 0. -1.
         -6    1    1    2    0  502  0.32242920519E+03  0.36293215152E+02  0.71474148639E+02  0.37412610674E+03  0.17200000000E+03 0.  1.
</event>
<event>
 4    1 -0.6384999E-004  0.5033533E+03  0.7818608E-02  0.1012907E+00
          5   -1    0    0  501    0  0.00000000000E+00  0.00000000000E+00  0.16772255745E+03  0.16778839732E+03  0.47000000000E+01 0. -1.
         -5   -1    0    0    0  501 -0.00000000000E+00 -0.00000000000E+00 -0.19380395994E+04  0.19380452984E+04  0.47000000000E+01 0.  1.
          6    1    1    2  502    0 -0.18674450634E+03 -0.43463435054E+03 -0.39048431070E+03  0.63705771028E+03  0.17200000000E+03 0. -1.
         -6    1    1    2    0  502  0.18674450634E+03  0.43463435054E+03 -0.13798327312E+04  0.14687759855E+04  0.17200000000E+03 0.  1.
</event>
<event>
 4    1 -0.6384999E-004  0.1776932E+03  0.7818608E-02  0.1170054E+00
         -5   -1    0    0    0  501 -0.00000000000E+00  0.00000000000E+00  0.26450344902E+02  0.26864674676E+02  0.47000000000E+01 0.  1.
          5   -1    0    0  501    0  0.00000000000E+00 -0.00000000000E+00 -0.13439318407E+04  0.13439400591E+04  0.47000000000E+01 0. -1.
          6    1    1    2  502    0 -0.24311652429E+02  0.37414128563E+02 -0.42236965438E+03  0.45822592507E+03  0.17200000000E+03 0.  1.
         -6    1    1    2    0  502  0.24311652429E+02 -0.37414128563E+02 -0.89511184141E+03  0.91257880870E+03  0.17200000000E+03 0.  1.
</event>
<event>
 4    1 -0.6384999E-004  0.2411645E+03  0.7818608E-02  0.1119019E+00
         -5   -1    0    0    0  501 -0.00000000000E+00  0.00000000000E+00  0.22437113618E+03  0.22442035725E+03  0.47000000000E+01 0.  1.
          5   -1    0    0  501    0  0.00000000000E+00 -0.00000000000E+00 -0.29166707244E+03  0.29170493850E+03  0.47000000000E+01 0. -1.
          6    1    1    2  502    0 -0.16900644880E+03 -0.36241662471E+01 -0.11984627461E+03  0.26930177098E+03  0.17200000000E+03 0. -1.
         -6    1    1    2    0  502  0.16900644880E+03  0.36241662471E+01  0.52550338350E+02  0.24682352477E+03  0.17200000000E+03 0.  1.
</event>
<event>
 4    1 -0.6384999E-004  0.2014738E+03  0.7818608E-02  0.1148501E+00
          5   -1    0    0  501    0  0.00000000000E+00  0.00000000000E+00  0.18404385790E+03  0.18410386099E+03  0.47000000000E+01 0. -1.
         -5   -1    0    0    0  501 -0.00000000000E+00 -0.00000000000E+00 -0.26229106046E+03  0.26233316679E+03  0.47000000000E+01 0.  1.
          6    1    1    2  502    0  0.38139026588E+02  0.97740070250E+02  0.50029704803E+02  0.20759257705E+03  0.17200000000E+03 0.  1.
         -6    1    1    2    0  502 -0.38139026588E+02 -0.97740070250E+02 -0.12827690736E+03  0.23884445073E+03  0.17200000000E+03 0.  1.
</event>
<event>
 4    1 -0.6384999E-004  0.1851458E+03  0.7818608E-02  0.1162914E+00
          5   -1    0    0  501    0  0.00000000000E+00  0.00000000000E+00  0.57891311679E+03  0.57893219533E+03  0.47000000000E+01 0. -1.
         -5   -1    0    0    0  501 -0.00000000000E+00 -0.00000000000E+00 -0.13162210870E+03  0.13170599644E+03  0.47000000000E+01 0.  1.
          6    1    1    2  502    0 -0.68484232373E+02 -0.22071461803E+01  0.48724044263E+03  0.52123143661E+03  0.17200000000E+03 0. -1.
         -6    1    1    2    0  502  0.68484232373E+02  0.22071461803E+01 -0.39949434542E+02  0.18940675515E+03  0.17200000000E+03 0.  1.
</event>
<event>
 4    1 -0.6384999E-004  0.1937775E+03  0.7818608E-02  0.1155098E+00
         -5   -1    0    0    0  501 -0.00000000000E+00  0.00000000000E+00  0.33362394121E+03  0.33365704571E+03  0.47000000000E+01 0.  1.
          5   -1    0    0  501    0  0.00000000000E+00 -0.00000000000E+00 -0.11704378256E+03  0.11713811095E+03  0.47000000000E+01 0. -1.
          6    1    1    2  502    0 -0.21067559083E+02 -0.86728690059E+02  0.63725030091E+02  0.20398673287E+03  0.17200000000E+03 0. -1.
         -6    1    1    2    0  502  0.21067559083E+02  0.86728690059E+02  0.15285512856E+03  0.24680842379E+03  0.17200000000E+03 0.  1.
</event>
<event>
 4    1 -0.6384999E-004  0.2605701E+03  0.7818608E-02  0.1106801E+00
         -5   -1    0    0    0  501 -0.00000000000E+00  0.00000000000E+00  0.51978118428E+03  0.51980243318E+03  0.47000000000E+01 0.  1.
          5   -1    0    0  501    0  0.00000000000E+00 -0.00000000000E+00 -0.17562993159E+03  0.17569280825E+03  0.47000000000E+01 0. -1.
          6    1    1    2  502    0 -0.18426339663E+03  0.66028682185E+02  0.34818940500E+03  0.43489383528E+03  0.17200000000E+03 0.  1.
         -6    1    1    2    0  502  0.18426339663E+03 -0.66028682185E+02 -0.40381523048E+01  0.26060140614E+03  0.17200000000E+03 0.  1.
</event>
<event>
 4    1 -0.6384999E-004  0.1799412E+03  0.7818608E-02  0.1167860E+00
         -5   -1    0    0    0  501 -0.00000000000E+00  0.00000000000E+00  0.26082489022E+03  0.26086723320E+03  0.47000000000E+01 0.  1.
          5   -1    0    0  501    0  0.00000000000E+00 -0.00000000000E+00 -0.12502908883E+03  0.12511739709E+03  0.47000000000E+01 0. -1.
          6    1    1    2  502    0 -0.22511980494E+01  0.52818089176E+02  0.50768780832E+02  0.18696600639E+03  0.17200000000E+03 0.  1.
         -6    1    1    2    0  502  0.22511980494E+01 -0.52818089176E+02  0.85027020552E+02  0.19901862390E+03  0.17200000000E+03 0. -1.
</event>
<event>
 4    1 -0.6384999E-004  0.2989685E+03  0.7818608E-02  0.1085757E+00
          5   -1    0    0  501    0  0.00000000000E+00  0.00000000000E+00  0.10395598494E+03  0.10406217759E+03  0.47000000000E+01 0. -1.
         -5   -1    0    0    0  501 -0.00000000000E+00 -0.00000000000E+00 -0.85928867495E+03  0.85930152851E+03  0.47000000000E+01 0.  1.
          6    1    1    2  502    0 -0.22448300363E+03  0.96982084903E+02 -0.37469747566E+03  0.47935408831E+03  0.17200000000E+03 0. -1.
         -6    1    1    2    0  502  0.22448300363E+03 -0.96982084903E+02 -0.38063521435E+03  0.48400961779E+03  0.17200000000E+03 0.  1.
</event>
<event>
 4    1 -0.6384999E-004  0.2232642E+03  0.7818608E-02  0.1131473E+00
          5   -1    0    0  501    0  0.00000000000E+00  0.00000000000E+00  0.14990851820E+03  0.14998217837E+03  0.47000000000E+01 0. -1.
         -5   -1    0    0    0  501 -0.00000000000E+00 -0.00000000000E+00 -0.33759369403E+03  0.33762640929E+03  0.47000000000E+01 0.  1.
          6    1    1    2  502    0 -0.10745486129E+03 -0.93361501694E+02 -0.63443661656E+02  0.23210345844E+03  0.17200000000E+03 0.  1.
         -6    1    1    2    0  502  0.10745486129E+03  0.93361501694E+02 -0.12424151418E+03  0.25550512922E+03  0.17200000000E+03 0.  1.
</event>
<event>
 4    1 -0.6384999E-004  0.1771335E+03  0.7818608E-02  0.1170606E+00
          5   -1    0    0  501    0  0.00000000000E+00  0.00000000000E+00  0.36348943202E+03  0.36351981678E+03  0.47000000000E+01 0. -1.
         -5   -1    0    0    0  501 -0.00000000000E+00 -0.00000000000E+00 -0.89175341714E+02  0.89299112929E+02  0.47000000000E+01 0.  1.
          6    1    1    2  502    0  0.33718294906E+02  0.25599767670E+02  0.17832659861E+03  0.25134965146E+03  0.17200000000E+03 0. -1.
         -6    1    1    2    0  502 -0.33718294906E+02 -0.25599767670E+02  0.95987491694E+02  0.20146927825E+03  0.17200000000E+03 0.  1.
</event>
<event>
 4    1 -0.6384999E-004  0.3023757E+03  0.7818608E-02  0.1084059E+00
         -5   -1    0    0    0  501 -0.00000000000E+00  0.00000000000E+00  0.51489910935E+03  0.51492055971E+03  0.47000000000E+01 0.  1.
          5   -1    0    0  501    0  0.00000000000E+00 -0.00000000000E+00 -0.18413990370E+03  0.18419987550E+03  0.47000000000E+01 0. -1.
          6    1    1    2  502    0  0.24830847487E+03  0.13781854834E+02  0.99088392884E+02  0.31819734100E+03  0.17200000000E+03 0. -1.
         -6    1    1    2    0  502 -0.24830847487E+03 -0.13781854834E+02  0.23167081277E+03  0.38092309421E+03  0.17200000000E+03 0.  1.
</event>
<event>
 4    1 -0.6384999E-004  0.2030204E+03  0.7818608E-02  0.1147215E+00
          5   -1    0    0  501    0  0.00000000000E+00  0.00000000000E+00  0.26689396788E+03  0.26693534815E+03  0.47000000000E+01 0. -1.
         -5   -1    0    0    0  501 -0.00000000000E+00 -0.00000000000E+00 -0.17194519852E+03  0.17200942211E+03  0.47000000000E+01 0.  1.
          6    1    1    2  502    0 -0.61144510724E+02  0.88851713659E+02  0.11767123535E+03  0.23465676603E+03  0.17200000000E+03 0. -1.
         -6    1    1    2    0  502  0.61144510724E+02 -0.88851713659E+02 -0.22722465998E+02  0.20428800423E+03  0.17200000000E+03 0.  1.
</event>
<event>
 4    1 -0.6384999E-004  0.2480506E+03  0.7818608E-02  0.1114543E+00
         -5   -1    0    0    0  501 -0.00000000000E+00  0.00000000000E+00  0.11798360171E+03  0.11807717930E+03  0.47000000000E+01 0.  1.
          5   -1    0    0  501    0  0.00000000000E+00 -0.00000000000E+00 -0.60309656285E+03  0.60311487639E+03  0.47000000000E+01 0. -1.
          6    1    1    2  502    0  0.80803049937E+02 -0.15942388331E+03 -0.37542853687E+03  0.44997299224E+03  0.17200000000E+03 0. -1.
         -6    1    1    2    0  502 -0.80803049937E+02  0.15942388331E+03 -0.10968442427E+03  0.27121906345E+03  0.17200000000E+03 0.  1.
</event>
<event>
 4    1 -0.6384999E-004  0.2074968E+03  0.7818608E-02  0.1143564E+00
         -5   -1    0    0    0  501 -0.00000000000E+00  0.00000000000E+00  0.49956149355E+03  0.49958360245E+03  0.47000000000E+01 0.  1.
          5   -1    0    0  501    0  0.00000000000E+00 -0.00000000000E+00 -0.90521807374E+02  0.90643740050E+02  0.47000000000E+01 0. -1.
          6    1    1    2  502    0 -0.11419085549E+03 -0.20769212845E+02  0.13932810753E+03  0.24993445787E+03  0.17200000000E+03 0.  1.
         -6    1    1    2    0  502  0.11419085549E+03  0.20769212845E+02  0.26971157864E+03  0.34029288463E+03  0.17200000000E+03 0.  1.
</event>
<event>
 4    1 -0.6384999E-004  0.2059830E+03  0.7818608E-02  0.1144787E+00
         -5   -1    0    0    0  501 -0.00000000000E+00  0.00000000000E+00  0.37924571635E+02  0.38214697875E+02  0.47000000000E+01 0.  1.
          5   -1    0    0  501    0  0.00000000000E+00 -0.00000000000E+00 -0.11292954981E+04  0.11293052785E+04  0.47000000000E+01 0. -1.
          6    1    1    2  502    0  0.81070825843E+02  0.79199117737E+02 -0.61313605641E+03  0.64681125742E+03  0.17200000000E+03 0.  1.
         -6    1    1    2    0  502 -0.81070825843E+02 -0.79199117737E+02 -0.47823487007E+03  0.52070871896E+03  0.17200000000E+03 0. -1.
</event>
<event>
 4    1 -0.6384999E-004  0.2204125E+03  0.7818608E-02  0.1133576E+00
         -5   -1    0    0    0  501 -0.00000000000E+00  0.00000000000E+00  0.11951779278E+03  0.11961017010E+03  0.47000000000E+01 0.  1.
          5   -1    0    0  501    0  0.00000000000E+00 -0.00000000000E+00 -0.41643827207E+03  0.41646479376E+03  0.47000000000E+01 0. -1.
          6    1    1    2  502    0  0.29357807643E+02  0.13466922136E+03 -0.19044532366E+03  0.29129212374E+03  0.17200000000E+03 0. -1.
         -6    1    1    2    0  502 -0.29357807643E+02 -0.13466922136E+03 -0.10647515563E+03  0.24478284012E+03  0.17200000000E+03 0.  1.
</event>
<event>
 4    1 -0.6384999E-004  0.2163441E+03  0.7818608E-02  0.1136638E+00
          5   -1    0    0  501    0  0.00000000000E+00  0.00000000000E+00  0.72543741148E+02  0.72695834680E+02  0.47000000000E+01 0. -1.
         -5   -1    0    0    0  501 -0.00000000000E+00 -0.00000000000E+00 -0.71113712097E+03  0.71115265226E+03  0.47000000000E+01 0.  1.
          6    1    1    2  502    0 -0.72931139525E+02  0.10909548291E+03 -0.19920971962E+03  0.29409061171E+03  0.17200000000E+03 0. -1.
         -6    1    1    2    0  502  0.72931139525E+02 -0.10909548291E+03 -0.43938366020E+03  0.48975787523E+03  0.17200000000E+03 0.  1.
</event>
<event>
 4    1 -0.6384999E-004  0.1844267E+03  0.7818608E-02  0.1163586E+00
          5   -1    0    0  501    0  0.00000000000E+00  0.00000000000E+00  0.68387016291E+03  0.68388631344E+03  0.47000000000E+01 0. -1.
         -5   -1    0    0    0  501 -0.00000000000E+00 -0.00000000000E+00 -0.16739778474E+03  0.16746375230E+03  0.47000000000E+01 0.  1.
          6    1    1    2  502    0 -0.61785515717E+02 -0.24733862765E+02  0.61513770200E+03  0.64218969654E+03  0.17200000000E+03 0. -1.
         -6    1    1    2    0  502  0.61785515717E+02  0.24733862765E+02 -0.98665323830E+02  0.20916036921E+03  0.17200000000E+03 0.  1.
</event>
<event>
 4    1 -0.6384999E-004  0.1988817E+03  0.7818608E-02  0.1150686E+00
          5   -1    0    0  501    0  0.00000000000E+00  0.00000000000E+00  0.18369306060E+04  0.18369366187E+04  0.47000000000E+01 0. -1.
         -5   -1    0    0    0  501 -0.00000000000E+00 -0.00000000000E+00 -0.23661731972E+02  0.24124003812E+02  0.47000000000E+01 0.  1.
          6    1    1    2  502    0 -0.43914094558E+02  0.89674388896E+02  0.11994374547E+04  0.12158141928E+04  0.17200000000E+03 0.  1.
         -6    1    1    2    0  502  0.43914094558E+02 -0.89674388896E+02  0.61383141933E+03  0.64524642973E+03  0.17200000000E+03 0. -1.
</event>
<event>
 4    1 -0.6384999E-004  0.2526928E+03  0.7818608E-02  0.1111615E+00
          5   -1    0    0  501    0  0.00000000000E+00  0.00000000000E+00  0.12111405669E+03  0.12120521741E+03  0.47000000000E+01 0. -1.
         -5   -1    0    0    0  501 -0.00000000000E+00 -0.00000000000E+00 -0.53170461064E+03  0.53172538304E+03  0.47000000000E+01 0.  1.
          6    1    1    2  502    0 -0.11031819139E+03  0.14865914786E+03 -0.17432686486E+03  0.30699104451E+03  0.17200000000E+03 0. -1.
         -6    1    1    2    0  502  0.11031819139E+03 -0.14865914786E+03 -0.23626368908E+03  0.34593955595E+03  0.17200000000E+03 0.  1.
</event>
<event>
 4    1 -0.6384999E-004  0.2044856E+03  0.7818608E-02  0.1146009E+00
          5   -1    0    0  501    0  0.00000000000E+00  0.00000000000E+00  0.55614214285E+03  0.55616200252E+03  0.47000000000E+01 0. -1.
         -5   -1    0    0    0  501 -0.00000000000E+00 -0.00000000000E+00 -0.10368114390E+03  0.10378761776E+03  0.47000000000E+01 0.  1.
          6    1    1    2  502    0 -0.53654940848E+02  0.96703099137E+02  0.39938211587E+03  0.44868743746E+03  0.17200000000E+03 0. -1.
         -6    1    1    2    0  502  0.53654940848E+02 -0.96703099137E+02  0.53078883081E+02  0.21126218282E+03  0.17200000000E+03 0.  1.
</event>
<event>
 4    1 -0.6384999E-004  0.1934595E+03  0.7818608E-02  0.1155378E+00
          5   -1    0    0  501    0  0.00000000000E+00  0.00000000000E+00  0.93718557512E+02  0.93836336364E+02  0.47000000000E+01 0. -1.
         -5   -1    0    0    0  501 -0.00000000000E+00 -0.00000000000E+00 -0.51198834964E+03  0.51200992194E+03  0.47000000000E+01 0.  1.
          6    1    1    2  502    0 -0.82114897567E+02  0.33161943100E+02 -0.66830021831E+02  0.20467736243E+03  0.17200000000E+03 0. -1.
         -6    1    1    2    0  502  0.82114897567E+02 -0.33161943100E+02 -0.35143977030E+03  0.40116889588E+03  0.17200000000E+03 0.  1.
</event>
<event>
 4    1 -0.6384999E-004  0.3054962E+03  0.7818608E-02  0.1082525E+00
         -5   -1    0    0    0  501 -0.00000000000E+00  0.00000000000E+00  0.11142075678E+04  0.11142174806E+04  0.47000000000E+01 0.  1.
          5   -1    0    0  501    0  0.00000000000E+00 -0.00000000000E+00 -0.84093836188E+02  0.84225075154E+02  0.47000000000E+01 0. -1.
          6    1    1    2  502    0  0.12507528648E+03 -0.21931731593E+03  0.47333478410E+03  0.56335932600E+03  0.17200000000E+03 0. -1.
         -6    1    1    2    0  502 -0.12507528648E+03  0.21931731593E+03  0.55677894751E+03  0.63508322978E+03  0.17200000000E+03 0.  1.
</event>
<event>
 4    1 -0.6384999E-004  0.1766141E+03  0.7818608E-02  0.1171121E+00
         -5   -1    0    0    0  501 -0.00000000000E+00  0.00000000000E+00  0.34288982698E+03  0.34292203698E+03  0.47000000000E+01 0.  1.
          5   -1    0    0  501    0  0.00000000000E+00 -0.00000000000E+00 -0.91786751709E+02  0.91907006203E+02  0.47000000000E+01 0. -1.
          6    1    1    2  502    0  0.35470915084E+02  0.18717684215E+02  0.14723388109E+03  0.22993554153E+03  0.17200000000E+03 0. -1.
         -6    1    1    2    0  502 -0.35470915084E+02 -0.18717684215E+02  0.10386919419E+03  0.20489350165E+03  0.17200000000E+03 0. -1.
</event>
<event>
 4    1 -0.6384999E-004  0.1731983E+03  0.7818608E-02  0.1174553E+00
          5   -1    0    0  501    0  0.00000000000E+00  0.00000000000E+00  0.16779702293E+02  0.17425510295E+02  0.47000000000E+01 0. -1.
         -5   -1    0    0    0  501 -0.00000000000E+00 -0.00000000000E+00 -0.18763059060E+04  0.18763117926E+04  0.47000000000E+01 0.  1.
          6    1    1    2  502    0  0.20167047545E+02 -0.26366817921E+01 -0.68739950266E+03  0.70888344469E+03  0.17200000000E+03 0. -1.
         -6    1    1    2    0  502 -0.20167047545E+02  0.26366817921E+01 -0.11721267010E+04  0.11848538582E+04  0.17200000000E+03 0.  1.
</event>
<event>
 4    1 -0.6384999E-004  0.2747189E+03  0.7818608E-02  0.1098609E+00
          5   -1    0    0  501    0  0.00000000000E+00  0.00000000000E+00  0.17055994244E+03  0.17062468744E+03  0.47000000000E+01 0. -1.
         -5   -1    0    0    0  501 -0.00000000000E+00 -0.00000000000E+00 -0.44242415599E+03  0.44244912002E+03  0.47000000000E+01 0.  1.
          6    1    1    2  502    0 -0.89888220772E+02  0.19443918700E+03 -0.14051135749E+03  0.30856754732E+03  0.17200000000E+03 0.  1.
         -6    1    1    2    0  502  0.89888220772E+02 -0.19443918700E+03 -0.13135285606E+03  0.30450626015E+03  0.17200000000E+03 0.  1.
</event>
<event>
 4    1 -0.6384999E-004  0.2608135E+03  0.7818608E-02  0.1106655E+00
         -5   -1    0    0    0  501 -0.00000000000E+00  0.00000000000E+00  0.31476039779E+03  0.31479548601E+03  0.47000000000E+01 0.  1.
          5   -1    0    0  501    0  0.00000000000E+00 -0.00000000000E+00 -0.21635789520E+03  0.21640893885E+03  0.47000000000E+01 0. -1.
          6    1    1    2  502    0  0.15634060641E+03  0.11831016039E+03  0.59382097627E+02  0.26748815447E+03  0.17200000000E+03 0.  1.
         -6    1    1    2    0  502 -0.15634060641E+03 -0.11831016039E+03  0.39020404962E+02  0.26371627039E+03  0.17200000000E+03 0.  1.
</event>
<event>
 4    1 -0.6384999E-004  0.2326281E+03  0.7818608E-02  0.1124804E+00
         -5   -1    0    0    0  501 -0.00000000000E+00  0.00000000000E+00  0.22301012430E+03  0.22305964570E+03  0.47000000000E+01 0.  1.
          5   -1    0    0  501    0  0.00000000000E+00 -0.00000000000E+00 -0.25411237054E+03  0.25415583185E+03  0.47000000000E+01 0. -1.
          6    1    1    2  502    0  0.20965680135E+02 -0.15521687233E+03  0.35311112848E+02  0.23529282159E+03  0.17200000000E+03 0. -1.
         -6    1    1    2    0  502 -0.20965680135E+02  0.15521687233E+03 -0.66413359090E+02  0.24192265596E+03  0.17200000000E+03 0. -1.
</event>
<event>
 4    1 -0.6384999E-004  0.4396953E+03  0.7818608E-02  0.1030840E+00
         -5   -1    0    0    0  501 -0.00000000000E+00  0.00000000000E+00  0.30508485717E+03  0.30512105806E+03  0.47000000000E+01 0.  1.
          5   -1    0    0  501    0  0.00000000000E+00 -0.00000000000E+00 -0.71534796470E+03  0.71536340457E+03  0.47000000000E+01 0. -1.
          6    1    1    2  502    0 -0.18187725766E+03  0.36148109388E+03 -0.37759492253E+03  0.57957729735E+03  0.17200000000E+03 0. -1.
         -6    1    1    2    0  502  0.18187725766E+03 -0.36148109388E+03 -0.32668185001E+02  0.44090716528E+03  0.17200000000E+03 0.  1.
</event>
<event>
 4    1 -0.6384999E-004  0.1813136E+03  0.7818608E-02  0.1166538E+00
         -5   -1    0    0    0  501 -0.00000000000E+00  0.00000000000E+00  0.13382267873E+03  0.13390518789E+03  0.47000000000E+01 0.  1.
          5   -1    0    0  501    0  0.00000000000E+00 -0.00000000000E+00 -0.32157119976E+03  0.32160554490E+03  0.47000000000E+01 0. -1.
          6    1    1    2  502    0 -0.41171065778E+02 -0.39944442317E+02 -0.20464433458E+03  0.27341162888E+03  0.17200000000E+03 0. -1.
         -6    1    1    2    0  502  0.41171065778E+02  0.39944442317E+02  0.16895813559E+02  0.18209910391E+03  0.17200000000E+03 0.  1.
</event>
<event>
 4    1 -0.6384999E-004  0.1896488E+03  0.7818608E-02  0.1158779E+00
          5   -1    0    0  501    0  0.00000000000E+00  0.00000000000E+00  0.18644252601E+02  0.19227536375E+02  0.47000000000E+01 0. -1.
         -5   -1    0    0    0  501 -0.00000000000E+00 -0.00000000000E+00 -0.19296334446E+04  0.19296391685E+04  0.47000000000E+01 0.  1.
          6    1    1    2  502    0 -0.76228300571E+02  0.23914367769E+02 -0.83234523610E+03  0.85367748175E+03  0.17200000000E+03 0.  1.
         -6    1    1    2    0  502  0.76228300571E+02 -0.23914367769E+02 -0.10786439559E+04  0.10951892231E+04  0.17200000000E+03 0.  1.
</event>
<event>
 4    1 -0.6384999E-004  0.2485934E+03  0.7818608E-02  0.1114197E+00
          5   -1    0    0  501    0  0.00000000000E+00  0.00000000000E+00  0.19099770013E+03  0.19105551930E+03  0.47000000000E+01 0. -1.
         -5   -1    0    0    0  501 -0.00000000000E+00 -0.00000000000E+00 -0.49174568545E+03  0.49176814574E+03  0.47000000000E+01 0.  1.
          6    1    1    2  502    0 -0.79840296023E+01  0.17930678639E+03  0.49349123629E+02  0.25344428259E+03  0.17200000000E+03 0.  1.
         -6    1    1    2    0  502  0.79840296023E+01 -0.17930678639E+03 -0.35009710895E+03  0.42937938245E+03  0.17200000000E+03 0.  1.
</event>
<event>
 4    1 -0.6384999E-004  0.3571899E+03  0.7818608E-02  0.1059702E+00
         -5   -1    0    0    0  501 -0.00000000000E+00  0.00000000000E+00  0.40199506584E+03  0.40202254037E+03  0.47000000000E+01 0.  1.
          5   -1    0    0  501    0  0.00000000000E+00 -0.00000000000E+00 -0.32075818408E+03  0.32079261627E+03  0.47000000000E+01 0. -1.
          6    1    1    2  502    0  0.30649041563E+03 -0.63751523330E+02  0.32203819909E+01  0.35720442671E+03  0.17200000000E+03 0. -1.
         -6    1    1    2    0  502 -0.30649041563E+03  0.63751523330E+02  0.78016499776E+02  0.36561072993E+03  0.17200000000E+03 0. -1.
</event>
<event>
 4    1 -0.6384999E-004  0.2335531E+03  0.7818608E-02  0.1124164E+00
          5   -1    0    0  501    0  0.00000000000E+00  0.00000000000E+00  0.11399348027E+04  0.11399444918E+04  0.47000000000E+01 0. -1.
         -5   -1    0    0    0  501 -0.00000000000E+00 -0.00000000000E+00 -0.48939092007E+02  0.49164262697E+02  0.47000000000E+01 0.  1.
          6    1    1    2  502    0  0.15795588430E+03  0.36068077953E+01  0.63888968108E+03  0.68024046854E+03  0.17200000000E+03 0.  1.
         -6    1    1    2    0  502 -0.15795588430E+03 -0.36068077953E+01  0.45210602957E+03  0.50886828593E+03  0.17200000000E+03 0. -1.
</event>
<event>
 4    1 -0.6384999E-004  0.8641346E+03  0.7818608E-02  0.9471560E-01
         -5   -1    0    0    0  501 -0.00000000000E+00  0.00000000000E+00  0.77773529394E+03  0.77774949530E+03  0.47000000000E+01 0.  1.
          5   -1    0    0  501    0  0.00000000000E+00 -0.00000000000E+00 -0.20218806897E+04  0.20218861524E+04  0.47000000000E+01 0. -1.
          6    1    1    2  502    0 -0.14533695674E+03  0.83427918959E+03 -0.16364699095E+04  0.18506113481E+04  0.17200000000E+03 0. -1.
         -6    1    1    2    0  502  0.14533695674E+03 -0.83427918959E+03  0.39232451371E+03  0.94902429961E+03  0.17200000000E+03 0.  1.
</event>
<event>
 4    1 -0.6384999E-004  0.1994414E+03  0.7818608E-02  0.1150211E+00
          5   -1    0    0  501    0  0.00000000000E+00  0.00000000000E+00  0.14478743946E+03  0.14486370362E+03  0.47000000000E+01 0. -1.
         -5   -1    0    0    0  501 -0.00000000000E+00 -0.00000000000E+00 -0.27690173712E+03  0.27694162205E+03  0.47000000000E+01 0.  1.
          6    1    1    2  502    0 -0.29089108902E+02  0.96678367172E+02 -0.46655296793E+02  0.20482577878E+03  0.17200000000E+03 0. -1.
         -6    1    1    2    0  502  0.29089108902E+02 -0.96678367172E+02 -0.85459000869E+02  0.21697954688E+03  0.17200000000E+03 0. -1.
</event>
<event>
 4    1 -0.6384999E-004  0.2019229E+03  0.7818608E-02  0.1148127E+00
          5   -1    0    0  501    0  0.00000000000E+00  0.00000000000E+00  0.93134704919E+03  0.93135890829E+03  0.47000000000E+01 0. -1.
         -5   -1    0    0    0  501 -0.00000000000E+00 -0.00000000000E+00 -0.43676597158E+02  0.43928750714E+02  0.47000000000E+01 0.  1.
          6    1    1    2  502    0 -0.95847692565E+02  0.44744642494E+02  0.45789732414E+03  0.50044262674E+03  0.17200000000E+03 0. -1.
         -6    1    1    2    0  502  0.95847692565E+02 -0.44744642494E+02  0.42977312790E+03  0.47484503226E+03  0.17200000000E+03 0.  1.
</event>
<event>
 4    1 -0.6384999E-004  0.3985122E+03  0.7818608E-02  0.1044296E+00
         -5   -1    0    0    0  501 -0.00000000000E+00  0.00000000000E+00  0.31440820716E+03  0.31444333469E+03  0.47000000000E+01 0.  1.
          5   -1    0    0  501    0  0.00000000000E+00 -0.00000000000E+00 -0.67464534564E+03  0.67466171701E+03  0.47000000000E+01 0. -1.
          6    1    1    2  502    0 -0.21050324709E+03  0.29140414713E+03  0.67838957641E+02  0.40424512140E+03  0.17200000000E+03 0.  1.
         -6    1    1    2    0  502  0.21050324709E+03 -0.29140414713E+03 -0.42807609612E+03  0.58485993030E+03  0.17200000000E+03 0.  1.
</event>
<event>
 4    1 -0.6384999E-004  0.1840006E+03  0.7818608E-02  0.1163987E+00
          5   -1    0    0  501    0  0.00000000000E+00  0.00000000000E+00  0.24079565986E+03  0.24084152426E+03  0.47000000000E+01 0. -1.
         -5   -1    0    0    0  501 -0.00000000000E+00 -0.00000000000E+00 -0.53400248231E+03  0.53402316533E+03  0.47000000000E+01 0.  1.
          6    1    1    2  502    0  0.42015814626E+02 -0.50068701597E+02  0.18594706704E+03  0.26159609190E+03  0.17200000000E+03 0. -1.
         -6    1    1    2    0  502 -0.42015814626E+02  0.50068701597E+02 -0.47915388949E+03  0.51326859769E+03  0.17200000000E+03 0.  1.
</event>
<event>
 4    1 -0.6384999E-004  0.3376054E+03  0.7818608E-02  0.1067820E+00
         -5   -1    0    0    0  501 -0.00000000000E+00  0.00000000000E+00  0.39424690939E+03  0.39427492383E+03  0.47000000000E+01 0.  1.
          5   -1    0    0  501    0  0.00000000000E+00 -0.00000000000E+00 -0.31124197167E+03  0.31127745651E+03  0.47000000000E+01 0. -1.
          6    1    1    2  502    0 -0.25677239786E+03 -0.13587263833E+03 -0.52699265326E+02  0.34169379672E+03  0.17200000000E+03 0. -1.
         -6    1    1    2    0  502  0.25677239786E+03  0.13587263833E+03  0.13570420304E+03  0.36385858362E+03  0.17200000000E+03 0.  1.
</event>
<event>
 4    1 -0.6384999E-004  0.2892566E+03  0.7818608E-02  0.1090738E+00
          5   -1    0    0  501    0  0.00000000000E+00  0.00000000000E+00  0.16839773470E+03  0.16846331070E+03  0.47000000000E+01 0. -1.
         -5   -1    0    0    0  501 -0.00000000000E+00 -0.00000000000E+00 -0.59462399264E+03  0.59464256711E+03  0.47000000000E+01 0.  1.
          6    1    1    2  502    0 -0.19945995092E+03  0.11958718023E+03 -0.58272064766E+02  0.29506778751E+03  0.17200000000E+03 0. -1.
         -6    1    1    2    0  502  0.19945995092E+03 -0.11958718023E+03 -0.36795419317E+03  0.46803809030E+03  0.17200000000E+03 0.  1.
</event>
<event>
 4    1 -0.6384999E-004  0.1895407E+03  0.7818608E-02  0.1158876E+00
          5   -1    0    0  501    0  0.00000000000E+00  0.00000000000E+00  0.16183024067E+03  0.16189847681E+03  0.47000000000E+01 0. -1.
         -5   -1    0    0    0  501 -0.00000000000E+00 -0.00000000000E+00 -0.69227971723E+03  0.69229567158E+03  0.47000000000E+01 0.  1.
          6    1    1    2  502    0 -0.76574150945E+02  0.21865390589E+02  0.86820572107E+02  0.20847903405E+03  0.17200000000E+03 0. -1.
         -6    1    1    2    0  502  0.76574150945E+02 -0.21865390589E+02 -0.61727004868E+03  0.64571511434E+03  0.17200000000E+03 0.  1.
</event>
<event>
 4    1 -0.6384999E-004  0.2756261E+03  0.7818608E-02  0.1098102E+00
         -5   -1    0    0    0  501 -0.00000000000E+00  0.00000000000E+00  0.36645953777E+03  0.36648967628E+03  0.47000000000E+01 0.  1.
          5   -1    0    0  501    0  0.00000000000E+00 -0.00000000000E+00 -0.21699456584E+03  0.21704545976E+03  0.47000000000E+01 0. -1.
          6    1    1    2  502    0  0.20785375702E+03  0.56414387558E+02  0.12889833760E+02  0.27592737314E+03  0.17200000000E+03 0. -1.
         -6    1    1    2    0  502 -0.20785375702E+03 -0.56414387558E+02  0.13657513817E+03  0.30760776291E+03  0.17200000000E+03 0.  1.
</event>
<event>
 4    1 -0.6384999E-004  0.1752971E+03  0.7818608E-02  0.1172434E+00
         -5   -1    0    0    0  501 -0.00000000000E+00  0.00000000000E+00  0.52059720393E+02  0.52271450022E+02  0.47000000000E+01 0.  1.
          5   -1    0    0  501    0  0.00000000000E+00 -0.00000000000E+00 -0.62454357401E+03  0.62456125868E+03  0.47000000000E+01 0. -1.
          6    1    1    2  502    0  0.32889617138E+02 -0.79598907386E+01 -0.20535042199E+03  0.26999607883E+03  0.17200000000E+03 0.  1.
         -6    1    1    2    0  502 -0.32889617138E+02  0.79598907386E+01 -0.36713343163E+03  0.40683662986E+03  0.17200000000E+03 0. -1.
</event>
