<event>
 4    1  0.4429256E+000  0.1740640E+03  0.7546771E-02  0.1173675E+00
         21   -1    0    0  503  502  0.00000000000E+00  0.00000000000E+00  0.12483490113E+03  0.12483490113E+03  0.00000000000E+00 0.  1.
         21   -1    0    0  501  503 -0.00000000000E+00 -0.00000000000E+00 -0.24272282041E+03  0.24272282041E+03  0.00000000000E+00 0.  1.
          6    1    1    2  501    0  0.10391711931E+02 -0.16163997920E+02 -0.60443305843E+02  0.18425975070E+03  0.17300000000E+03 0.  1.
         -6    1    1    2    0  502 -0.10391711931E+02  0.16163997920E+02 -0.57444613437E+02  0.18329797085E+03  0.17300000000E+03 0.  1.
<mgrwt>
<rscale>  2 0.17406396E+03</rscale>
<asrwt>0</asrwt>
<pdfrwt beam="1">  1       21 0.19205369E-01 0.17406396E+03</pdfrwt>
<pdfrwt beam="2">  1       21 0.37341972E-01 0.17406396E+03</pdfrwt>
<totfact> 0.17317007E+05</totfact>
</mgrwt>
</event>
<event>
 4    1  0.4429256E+000  0.2919395E+03  0.7546771E-02  0.1089341E+00
         21   -1    0    0  503  502  0.00000000000E+00  0.00000000000E+00  0.86394085566E+02  0.86394085566E+02  0.00000000000E+00 0. -1.
         21   -1    0    0  501  503 -0.00000000000E+00 -0.00000000000E+00 -0.10178190157E+04  0.10178190157E+04  0.00000000000E+00 0.  1.
          6    1    1    2  501    0  0.65355194889E+02  0.22589461219E+03 -0.56254437009E+03  0.63378611979E+03  0.17300000000E+03 0.  1.
         -6    1    1    2    0  502 -0.65355194889E+02 -0.22589461219E+03 -0.36888056001E+03  0.47042698144E+03  0.17300000000E+03 0. -1.
<mgrwt>
<rscale>  2 0.29193951E+03</rscale>
<asrwt>0</asrwt>
<pdfrwt beam="1">  1       21 0.13291399E-01 0.29193951E+03</pdfrwt>
<pdfrwt beam="2">  1       21 0.15658753E+00 0.29193951E+03</pdfrwt>
<totfact> 0.12254243E+04</totfact>
</mgrwt>
</event>
<event>
 4    1  0.4429256E+000  0.2232517E+03  0.7546771E-02  0.1131482E+00
         21   -1    0    0  501  502  0.00000000000E+00  0.00000000000E+00  0.32098660257E+03  0.32098660257E+03  0.00000000000E+00 0.  1.
         21   -1    0    0  502  503 -0.00000000000E+00 -0.00000000000E+00 -0.15598293730E+03  0.15598293730E+03  0.00000000000E+00 0. -1.
          6    1    1    2  501    0 -0.18749707467E+02 -0.13985979544E+03  0.98564052491E+02  0.24404136198E+03  0.17300000000E+03 0. -1.
         -6    1    1    2    0  503  0.18749707467E+02  0.13985979544E+03  0.66439612779E+02  0.23292817790E+03  0.17300000000E+03 0.  1.
<mgrwt>
<rscale>  2 0.22325168E+03</rscale>
<asrwt>0</asrwt>
<pdfrwt beam="1">  1       21 0.49382554E-01 0.22325168E+03</pdfrwt>
<pdfrwt beam="2">  1       21 0.23997375E-01 0.22325168E+03</pdfrwt>
<totfact> 0.63168017E+04</totfact>
</mgrwt>
</event>
<event>
 4    1  0.4429256E+000  0.2009336E+03  0.7546771E-02  0.1148954E+00
         21   -1    0    0  501  502  0.00000000000E+00  0.00000000000E+00  0.76668731810E+03  0.76668731810E+03  0.00000000000E+00 0. -1.
         21   -1    0    0  502  503 -0.00000000000E+00 -0.00000000000E+00 -0.11718620036E+03  0.11718620036E+03  0.00000000000E+00 0.  1.
          6    1    1    2  501    0 -0.68313787200E+02 -0.76016739648E+02  0.65268532459E+03  0.68291467341E+03  0.17300000000E+03 0. -1.
         -6    1    1    2    0  503  0.68313787200E+02  0.76016739648E+02 -0.31842068457E+01  0.20095884504E+03  0.17300000000E+03 0.  1.
<mgrwt>
<rscale>  2 0.20093362E+03</rscale>
<asrwt>0</asrwt>
<pdfrwt beam="1">  1       21 0.11795189E+00 0.20093362E+03</pdfrwt>
<pdfrwt beam="2">  1       21 0.18028647E-01 0.20093362E+03</pdfrwt>
<totfact> 0.15340460E+04</totfact>
</mgrwt>
</event>
<event>
 4    1  0.4429256E+000  0.1931741E+03  0.7546771E-02  0.1155629E+00
         21   -1    0    0  503  502  0.00000000000E+00  0.00000000000E+00  0.12411431828E+03  0.12411431828E+03  0.00000000000E+00 0.  1.
         21   -1    0    0  501  503 -0.00000000000E+00 -0.00000000000E+00 -0.30081703503E+03  0.30081703503E+03  0.00000000000E+00 0.  1.
          6    1    1    2  501    0 -0.77123818136E+02  0.37936204906E+02 -0.83500447252E+02  0.21044848219E+03  0.17300000000E+03 0.  1.
         -6    1    1    2    0  502  0.77123818136E+02 -0.37936204906E+02 -0.93202269498E+02  0.21448287113E+03  0.17300000000E+03 0.  1.
<mgrwt>
<rscale>  2 0.19317412E+03</rscale>
<asrwt>0</asrwt>
<pdfrwt beam="1">  1       21 0.19094511E-01 0.19317412E+03</pdfrwt>
<pdfrwt beam="2">  1       21 0.46279543E-01 0.19317412E+03</pdfrwt>
<totfact> 0.11254950E+05</totfact>
</mgrwt>
</event>
<event>
 4    1  0.4429256E+000  0.1893267E+03  0.7546771E-02  0.1159070E+00
         21   -1    0    0  503  502  0.00000000000E+00  0.00000000000E+00  0.54671116951E+03  0.54671116951E+03  0.00000000000E+00 0. -1.
         21   -1    0    0  501  503 -0.00000000000E+00 -0.00000000000E+00 -0.69177550034E+02  0.69177550034E+02  0.00000000000E+00 0. -1.
          6    1    1    2  501    0  0.38863180188E+02  0.66372211413E+02  0.30914719406E+03  0.36251428223E+03  0.17300000000E+03 0. -1.
         -6    1    1    2    0  502 -0.38863180188E+02 -0.66372211413E+02  0.16838642541E+03  0.25337443732E+03  0.17300000000E+03 0. -1.
<mgrwt>
<rscale>  2 0.18932675E+03</rscale>
<asrwt>0</asrwt>
<pdfrwt beam="1">  1       21 0.84109408E-01 0.18932675E+03</pdfrwt>
<pdfrwt beam="2">  1       21 0.10642700E-01 0.18932675E+03</pdfrwt>
<totfact> 0.89325158E+04</totfact>
</mgrwt>
</event>
<event>
 4    1  0.4429256E+000  0.2213404E+03  0.7546771E-02  0.1132888E+00
         21   -1    0    0  501  502  0.00000000000E+00  0.00000000000E+00  0.19628629324E+03  0.19628629324E+03  0.00000000000E+00 0. -1.
         21   -1    0    0  502  503 -0.00000000000E+00 -0.00000000000E+00 -0.48956906711E+03  0.48956906711E+03  0.00000000000E+00 0.  1.
          6    1    1    2  501    0  0.10105703856E+02 -0.13769701285E+03  0.93451861478E+02  0.24025994883E+03  0.17300000000E+03 0. -1.
         -6    1    1    2    0  503 -0.10105703856E+02  0.13769701285E+03 -0.38673463534E+03  0.44559541152E+03  0.17300000000E+03 0.  1.
<mgrwt>
<rscale>  2 0.22134045E+03</rscale>
<asrwt>0</asrwt>
<pdfrwt beam="1">  1       21 0.30197891E-01 0.22134045E+03</pdfrwt>
<pdfrwt beam="2">  1       21 0.75318317E-01 0.22134045E+03</pdfrwt>
<totfact> 0.16281467E+04</totfact>
</mgrwt>
</event>
<event>
 4    1  0.4429256E+000  0.1811744E+03  0.7546771E-02  0.1166671E+00
         21   -1    0    0  503  502  0.00000000000E+00  0.00000000000E+00  0.15261120506E+03  0.15261120506E+03  0.00000000000E+00 0. -1.
         21   -1    0    0  501  503 -0.00000000000E+00 -0.00000000000E+00 -0.26851058454E+03  0.26851058454E+03  0.00000000000E+00 0. -1.
          6    1    1    2  501    0  0.24461137718E+02 -0.47925023095E+02 -0.15187392576E+03  0.23641033062E+03  0.17300000000E+03 0. -1.
         -6    1    1    2    0  502 -0.24461137718E+02  0.47925023095E+02  0.35974546279E+02  0.18471145898E+03  0.17300000000E+03 0. -1.
<mgrwt>
<rscale>  2 0.18117438E+03</rscale>
<asrwt>0</asrwt>
<pdfrwt beam="1">  1       21 0.23478647E-01 0.18117438E+03</pdfrwt>
<pdfrwt beam="2">  1       21 0.41309321E-01 0.18117438E+03</pdfrwt>
<totfact> 0.96744919E+04</totfact>
</mgrwt>
</event>
<event>
 4    1  0.4429256E+000  0.3058355E+03  0.7546771E-02  0.1082359E+00
         21   -1    0    0  501  502  0.00000000000E+00  0.00000000000E+00  0.42931249749E+03  0.42931249749E+03  0.00000000000E+00 0.  1.
         21   -1    0    0  502  503 -0.00000000000E+00 -0.00000000000E+00 -0.30179077210E+03  0.30179077210E+03  0.00000000000E+00 0.  1.
          6    1    1    2  501    0 -0.31235051746E+01  0.25218362832E+03  0.25652414416E+03  0.39917411641E+03  0.17300000000E+03 0.  1.
         -6    1    1    2    0  503  0.31235051746E+01 -0.25218362832E+03 -0.12900241877E+03  0.33192915317E+03  0.17300000000E+03 0.  1.
<mgrwt>
<rscale>  2 0.30583548E+03</rscale>
<asrwt>0</asrwt>
<pdfrwt beam="1">  1       21 0.66048076E-01 0.30583548E+03</pdfrwt>
<pdfrwt beam="2">  1       21 0.46429350E-01 0.30583548E+03</pdfrwt>
<totfact> 0.87683429E+03</totfact>
</mgrwt>
</event>
<event>
 4    1  0.4429256E+000  0.2202210E+03  0.7546771E-02  0.1133718E+00
         21   -1    0    0  501  502  0.00000000000E+00  0.00000000000E+00  0.36329874294E+03  0.36329874294E+03  0.00000000000E+00 0. -1.
         21   -1    0    0  502  503 -0.00000000000E+00 -0.00000000000E+00 -0.54548255989E+03  0.54548255989E+03  0.00000000000E+00 0. -1.
          6    1    1    2  501    0 -0.63748782614E+02  0.12043412014E+03  0.30380420783E+03  0.37522564049E+03  0.17300000000E+03 0. -1.
         -6    1    1    2    0  503  0.63748782614E+02 -0.12043412014E+03 -0.48598802479E+03  0.53355566235E+03  0.17300000000E+03 0. -1.
<mgrwt>
<rscale>  2 0.22022099E+03</rscale>
<asrwt>0</asrwt>
<pdfrwt beam="1">  1       21 0.55892114E-01 0.22022099E+03</pdfrwt>
<pdfrwt beam="2">  1       21 0.83920394E-01 0.22022099E+03</pdfrwt>
<totfact> 0.36388570E+03</totfact>
</mgrwt>
</event>
<event>
 4    1  0.4429256E+000  0.1846747E+03  0.7546771E-02  0.1163354E+00
         21   -1    0    0  503  502  0.00000000000E+00  0.00000000000E+00  0.34906286077E+02  0.34906286077E+02  0.00000000000E+00 0.  1.
         21   -1    0    0  501  503 -0.00000000000E+00 -0.00000000000E+00 -0.10122265468E+04  0.10122265468E+04  0.00000000000E+00 0.  1.
          6    1    1    2  501    0  0.52890118559E+02 -0.37126442589E+02 -0.58628017172E+03  0.61467810855E+03  0.17300000000E+03 0.  1.
         -6    1    1    2    0  502 -0.52890118559E+02  0.37126442589E+02 -0.39104008895E+03  0.43245472428E+03  0.17300000000E+03 0.  1.
<mgrwt>
<rscale>  2 0.18467468E+03</rscale>
<asrwt>0</asrwt>
<pdfrwt beam="1">  1       21 0.53701982E-02 0.18467468E+03</pdfrwt>
<pdfrwt beam="2">  1       21 0.15572715E+00 0.18467468E+03</pdfrwt>
<totfact> 0.64766456E+04</totfact>
</mgrwt>
</event>
<event>
 4    1  0.4429256E+000  0.1984936E+03  0.7546771E-02  0.1151016E+00
         21   -1    0    0  503  502  0.00000000000E+00  0.00000000000E+00  0.29687842992E+03  0.29687842992E+03  0.00000000000E+00 0.  1.
         21   -1    0    0  501  503 -0.00000000000E+00 -0.00000000000E+00 -0.15153881501E+03  0.15153881501E+03  0.00000000000E+00 0. -1.
          6    1    1    2  501    0 -0.89314941597E+02  0.38646461452E+02 -0.63551234287E+01  0.19859530551E+03  0.17300000000E+03 0. -1.
         -6    1    1    2    0  502  0.89314941597E+02 -0.38646461452E+02  0.15169473834E+03  0.24982193942E+03  0.17300000000E+03 0.  1.
<mgrwt>
<rscale>  2 0.19849360E+03</rscale>
<asrwt>0</asrwt>
<pdfrwt beam="1">  1       21 0.45673605E-01 0.19849360E+03</pdfrwt>
<pdfrwt beam="2">  1       21 0.23313664E-01 0.19849360E+03</pdfrwt>
<totfact> 0.79307399E+04</totfact>
</mgrwt>
</event>
<event>
 4    1  0.4429256E+000  0.2300137E+03  0.7546771E-02  0.1126630E+00
         21   -1    0    0  503  502  0.00000000000E+00  0.00000000000E+00  0.78133556128E+02  0.78133556128E+02  0.00000000000E+00 0. -1.
         21   -1    0    0  501  503 -0.00000000000E+00 -0.00000000000E+00 -0.68338439692E+03  0.68338439692E+03  0.00000000000E+00 0.  1.
          6    1    1    2  501    0 -0.86506001489E+02 -0.12447495496E+03 -0.33906146633E+03  0.40971817223E+03  0.17300000000E+03 0.  1.
         -6    1    1    2    0  502  0.86506001489E+02  0.12447495496E+03 -0.26618937446E+03  0.35179978081E+03  0.17300000000E+03 0.  1.
<mgrwt>
<rscale>  2 0.23001370E+03</rscale>
<asrwt>0</asrwt>
<pdfrwt beam="1">  1       21 0.12020548E-01 0.23001370E+03</pdfrwt>
<pdfrwt beam="2">  1       21 0.10513606E+00 0.23001370E+03</pdfrwt>
<totfact> 0.41801970E+04</totfact>
</mgrwt>
</event>
<event>
 4    1  0.4429256E+000  0.2073737E+03  0.7546771E-02  0.1143663E+00
         21   -1    0    0  503  502  0.00000000000E+00  0.00000000000E+00  0.26975595292E+02  0.26975595292E+02  0.00000000000E+00 0.  1.
         21   -1    0    0  501  503 -0.00000000000E+00 -0.00000000000E+00 -0.19195779531E+04  0.19195779531E+04  0.00000000000E+00 0. -1.
          6    1    1    2  501    0 -0.97690366492E+02  0.59425926238E+02 -0.13470234831E+04  0.13628925535E+04  0.17300000000E+03 0. -1.
         -6    1    1    2    0  502  0.97690366492E+02 -0.59425926238E+02 -0.54557887480E+03  0.58366099496E+03  0.17300000000E+03 0.  1.
<mgrwt>
<rscale>  2 0.20737369E+03</rscale>
<asrwt>0</asrwt>
<pdfrwt beam="1">  1       21 0.41500911E-02 0.20737369E+03</pdfrwt>
<pdfrwt beam="2">  1       21 0.29531972E+00 0.20737369E+03</pdfrwt>
<totfact> 0.13182500E+04</totfact>
</mgrwt>
</event>
<event>
 4    1  0.4429256E+000  0.1847303E+03  0.7546771E-02  0.1163302E+00
         21   -1    0    0  503  502  0.00000000000E+00  0.00000000000E+00  0.71125348150E+03  0.71125348150E+03  0.00000000000E+00 0. -1.
         21   -1    0    0  501  503 -0.00000000000E+00 -0.00000000000E+00 -0.48223216280E+02  0.48223216280E+02  0.00000000000E+00 0.  1.
          6    1    1    2  501    0  0.64407600225E+02  0.69255113527E+01  0.30449701777E+03  0.35615128177E+03  0.17300000000E+03 0.  1.
         -6    1    1    2    0  502 -0.64407600225E+02 -0.69255113527E+01  0.35853324746E+03  0.40332541602E+03  0.17300000000E+03 0. -1.
<mgrwt>
<rscale>  2 0.18473035E+03</rscale>
<asrwt>0</asrwt>
<pdfrwt beam="1">  1       21 0.10942361E+00 0.18473035E+03</pdfrwt>
<pdfrwt beam="2">  1       21 0.74189569E-02 0.18473035E+03</pdfrwt>
<totfact> 0.90792674E+04</totfact>
</mgrwt>
</event>
<event>
 4    1  0.4429256E+000  0.1788257E+03  0.7546771E-02  0.1168944E+00
         21   -1    0    0  503  502  0.00000000000E+00  0.00000000000E+00  0.10482574169E+04  0.10482574169E+04  0.00000000000E+00 0.  1.
         21   -1    0    0  501  503 -0.00000000000E+00 -0.00000000000E+00 -0.51850936978E+02  0.51850936978E+02  0.00000000000E+00 0.  1.
          6    1    1    2  501    0 -0.39732820376E+02 -0.21701205224E+02  0.14528852862E+03  0.23040702218E+03  0.17300000000E+03 0.  1.
         -6    1    1    2    0  502  0.39732820376E+02  0.21701205224E+02  0.85111795131E+03  0.86970133170E+03  0.17300000000E+03 0.  1.
<mgrwt>
<rscale>  2 0.17882572E+03</rscale>
<asrwt>0</asrwt>
<pdfrwt beam="1">  1       21 0.16127036E+00 0.17882572E+03</pdfrwt>
<pdfrwt beam="2">  1       21 0.79770680E-02 0.17882572E+03</pdfrwt>
<totfact> 0.29980699E+04</totfact>
</mgrwt>
</event>
<event>
 4    1  0.4429256E+000  0.3361464E+03  0.7546771E-02  0.1068449E+00
         21   -1    0    0  503  502  0.00000000000E+00  0.00000000000E+00  0.79889673390E+03  0.79889673390E+03  0.00000000000E+00 0.  1.
         21   -1    0    0  501  503 -0.00000000000E+00 -0.00000000000E+00 -0.18547447447E+03  0.18547447447E+03  0.00000000000E+00 0.  1.
          6    1    1    2  501    0 -0.21740946398E+03 -0.18920493808E+03  0.66886968259E+02  0.34273641496E+03  0.17300000000E+03 0.  1.
         -6    1    1    2    0  502  0.21740946398E+03  0.18920493808E+03  0.54653529117E+03  0.64163479341E+03  0.17300000000E+03 0.  1.
<mgrwt>
<rscale>  2 0.33614637E+03</rscale>
<asrwt>0</asrwt>
<pdfrwt beam="1">  1       21 0.12290719E+00 0.33614637E+03</pdfrwt>
<pdfrwt beam="2">  1       21 0.28534535E-01 0.33614637E+03</pdfrwt>
<totfact> 0.53545663E+03</totfact>
</mgrwt>
</event>
<event>
 4    1  0.4429256E+000  0.2103855E+03  0.7546771E-02  0.1141261E+00
         21   -1    0    0  503  502  0.00000000000E+00  0.00000000000E+00  0.38257769854E+03  0.38257769854E+03  0.00000000000E+00 0. -1.
         21   -1    0    0  501  503 -0.00000000000E+00 -0.00000000000E+00 -0.27806773892E+03  0.27806773892E+03  0.00000000000E+00 0. -1.
          6    1    1    2  501    0 -0.10937246239E+03 -0.48690089652E+02 -0.20016320036E+03  0.29039174771E+03  0.17300000000E+03 0. -1.
         -6    1    1    2    0  502  0.10937246239E+03  0.48690089652E+02  0.30467315998E+03  0.37025368975E+03  0.17300000000E+03 0. -1.
<mgrwt>
<rscale>  2 0.21038550E+03</rscale>
<asrwt>0</asrwt>
<pdfrwt beam="1">  1       21 0.58858107E-01 0.21038550E+03</pdfrwt>
<pdfrwt beam="2">  1       21 0.42779652E-01 0.21038550E+03</pdfrwt>
<totfact> 0.14031431E+04</totfact>
</mgrwt>
</event>
<event>
 4    1  0.4429256E+000  0.1849644E+03  0.7546771E-02  0.1163083E+00
         21   -1    0    0  501  502  0.00000000000E+00  0.00000000000E+00  0.15281979651E+03  0.15281979651E+03  0.00000000000E+00 0.  1.
         21   -1    0    0  502  503 -0.00000000000E+00 -0.00000000000E+00 -0.22785548986E+03  0.22785548986E+03  0.00000000000E+00 0.  1.
          6    1    1    2  501    0  0.54544597890E+02 -0.36162356672E+02 -0.62689626101E+02  0.19529930471E+03  0.17300000000E+03 0.  1.
         -6    1    1    2    0  503 -0.54544597890E+02  0.36162356672E+02 -0.12346067254E+02  0.18537598166E+03  0.17300000000E+03 0.  1.
<mgrwt>
<rscale>  2 0.18496440E+03</rscale>
<asrwt>0</asrwt>
<pdfrwt beam="1">  1       21 0.23510738E-01 0.18496440E+03</pdfrwt>
<pdfrwt beam="2">  1       21 0.35054691E-01 0.18496440E+03</pdfrwt>
<totfact> 0.13390523E+05</totfact>
</mgrwt>
</event>
<event>
 4    1  0.4429256E+000  0.1888660E+03  0.7546771E-02  0.1159488E+00
         21   -1    0    0  503  502  0.00000000000E+00  0.00000000000E+00  0.47890783384E+03  0.47890783384E+03  0.00000000000E+00 0. -1.
         21   -1    0    0  501  503 -0.00000000000E+00 -0.00000000000E+00 -0.91690932118E+02  0.91690932118E+02  0.00000000000E+00 0. -1.
          6    1    1    2  501    0  0.70900788895E+02  0.26728992279E+02  0.31720474241E+03  0.36917368473E+03  0.17300000000E+03 0. -1.
         -6    1    1    2    0  502 -0.70900788895E+02 -0.26728992279E+02  0.70012159315E+02  0.20142508122E+03  0.17300000000E+03 0. -1.
<mgrwt>
<rscale>  2 0.18886599E+03</rscale>
<asrwt>0</asrwt>
<pdfrwt beam="1">  1       21 0.73678127E-01 0.18886599E+03</pdfrwt>
<pdfrwt beam="2">  1       21 0.14106298E-01 0.18886599E+03</pdfrwt>
<totfact> 0.72671025E+04</totfact>
</mgrwt>
</event>
<event>
 4    1  0.4429256E+000  0.2581954E+03  0.7546771E-02  0.1108232E+00
         21   -1    0    0  503  502  0.00000000000E+00  0.00000000000E+00  0.23822551639E+03  0.23822551639E+03  0.00000000000E+00 0. -1.
         21   -1    0    0  501  503 -0.00000000000E+00 -0.00000000000E+00 -0.64986247883E+03  0.64986247883E+03  0.00000000000E+00 0. -1.
          6    1    1    2  501    0  0.16903934493E+03 -0.90341310016E+02 -0.54088401768E+03  0.59934995872E+03  0.17300000000E+03 0. -1.
         -6    1    1    2    0  502 -0.16903934493E+03  0.90341310016E+02  0.12924705524E+03  0.28873803650E+03  0.17300000000E+03 0. -1.
<mgrwt>
<rscale>  2 0.25819538E+03</rscale>
<asrwt>0</asrwt>
<pdfrwt beam="1">  1       21 0.36650080E-01 0.25819538E+03</pdfrwt>
<pdfrwt beam="2">  1       21 0.99978840E-01 0.25819538E+03</pdfrwt>
<totfact> 0.56375328E+03</totfact>
</mgrwt>
</event>
<event>
 4    1  0.4429256E+000  0.4748203E+03  0.7546771E-02  0.1020568E+00
         21   -1    0    0  503  502  0.00000000000E+00  0.00000000000E+00  0.29861071798E+03  0.29861071798E+03  0.00000000000E+00 0. -1.
         21   -1    0    0  501  503 -0.00000000000E+00 -0.00000000000E+00 -0.92579758667E+03  0.92579758667E+03  0.00000000000E+00 0.  1.
          6    1    1    2  501    0  0.36280440157E+03  0.25278100694E+03 -0.57653883427E+03  0.74689443610E+03  0.17300000000E+03 0.  1.
         -6    1    1    2    0  502 -0.36280440157E+03 -0.25278100694E+03 -0.50648034423E+02  0.47751386855E+03  0.17300000000E+03 0. -1.
<mgrwt>
<rscale>  2 0.47482025E+03</rscale>
<asrwt>0</asrwt>
<pdfrwt beam="1">  1       21 0.45940112E-01 0.47482025E+03</pdfrwt>
<pdfrwt beam="2">  1       21 0.14243039E+00 0.47482025E+03</pdfrwt>
<totfact> 0.13087471E+03</totfact>
</mgrwt>
</event>
<event>
 4    1  0.4429256E+000  0.1956110E+03  0.7546771E-02  0.1153496E+00
         21   -1    0    0  503  502  0.00000000000E+00  0.00000000000E+00  0.96258533579E+03  0.96258533579E+03  0.00000000000E+00 0. -1.
         21   -1    0    0  501  503 -0.00000000000E+00 -0.00000000000E+00 -0.42063920355E+02  0.42063920355E+02  0.00000000000E+00 0. -1.
          6    1    1    2  501    0  0.68987057970E+02 -0.59795175448E+02  0.34246890768E+03  0.39439653891E+03  0.17300000000E+03 0. -1.
         -6    1    1    2    0  502 -0.68987057970E+02  0.59795175448E+02  0.57805250776E+03  0.61025271724E+03  0.17300000000E+03 0. -1.
<mgrwt>
<rscale>  2 0.19561104E+03</rscale>
<asrwt>0</asrwt>
<pdfrwt beam="1">  1       21 0.14809003E+00 0.19561104E+03</pdfrwt>
<pdfrwt beam="2">  1       21 0.64713731E-02 0.19561104E+03</pdfrwt>
<totfact> 0.53450377E+04</totfact>
</mgrwt>
</event>
<event>
 4    1  0.4429256E+000  0.2619551E+03  0.7546771E-02  0.1105974E+00
         21   -1    0    0  503  502  0.00000000000E+00  0.00000000000E+00  0.39774391270E+03  0.39774391270E+03  0.00000000000E+00 0.  1.
         21   -1    0    0  501  503 -0.00000000000E+00 -0.00000000000E+00 -0.17378171151E+03  0.17378171151E+03  0.00000000000E+00 0. -1.
          6    1    1    2  501    0 -0.79593825863E+02 -0.17987860800E+03  0.87673498113E+02  0.27623745764E+03  0.17300000000E+03 0. -1.
         -6    1    1    2    0  502  0.79593825863E+02  0.17987860800E+03  0.13628870308E+03  0.29528816657E+03  0.17300000000E+03 0.  1.
<mgrwt>
<rscale>  2 0.26195513E+03</rscale>
<asrwt>0</asrwt>
<pdfrwt beam="1">  1       21 0.61191371E-01 0.26195513E+03</pdfrwt>
<pdfrwt beam="2">  1       21 0.26735648E-01 0.26195513E+03</pdfrwt>
<totfact> 0.31993424E+04</totfact>
</mgrwt>
</event>
<event>
 4    1  0.4429256E+000  0.3182773E+03  0.7546771E-02  0.1076445E+00
         21   -1    0    0  501  502  0.00000000000E+00  0.00000000000E+00  0.10343029345E+04  0.10343029345E+04  0.00000000000E+00 0.  1.
         21   -1    0    0  502  503 -0.00000000000E+00 -0.00000000000E+00 -0.11939936450E+03  0.11939936450E+03  0.00000000000E+00 0. -1.
          6    1    1    2  501    0 -0.11382519509E+03  0.24169252015E+03  0.70199924771E+03  0.77078102800E+03  0.17300000000E+03 0.  1.
         -6    1    1    2    0  503  0.11382519509E+03 -0.24169252015E+03  0.21290432226E+03  0.38292127098E+03  0.17300000000E+03 0. -1.
<mgrwt>
<rscale>  2 0.31827732E+03</rscale>
<asrwt>0</asrwt>
<pdfrwt beam="1">  1       21 0.15912352E+00 0.31827732E+03</pdfrwt>
<pdfrwt beam="2">  1       21 0.18369134E-01 0.31827732E+03</pdfrwt>
<totfact> 0.63680075E+03</totfact>
</mgrwt>
</event>
<event>
 4    1  0.4429256E+000  0.2136355E+03  0.7546771E-02  0.1138719E+00
         21   -1    0    0  503  502  0.00000000000E+00  0.00000000000E+00  0.45191104311E+03  0.45191104311E+03  0.00000000000E+00 0.  1.
         21   -1    0    0  501  503 -0.00000000000E+00 -0.00000000000E+00 -0.10291691636E+03  0.10291691636E+03  0.00000000000E+00 0.  1.
          6    1    1    2  501    0 -0.75383137671E+02 -0.10014243740E+03  0.21242068464E+03  0.30126843923E+03  0.17300000000E+03 0.  1.
         -6    1    1    2    0  502  0.75383137671E+02  0.10014243740E+03  0.13657344211E+03  0.25355952024E+03  0.17300000000E+03 0.  1.
<mgrwt>
<rscale>  2 0.21363550E+03</rscale>
<asrwt>0</asrwt>
<pdfrwt beam="1">  1       21 0.69524775E-01 0.21363550E+03</pdfrwt>
<pdfrwt beam="2">  1       21 0.15833372E-01 0.21363550E+03</pdfrwt>
<totfact> 0.66219038E+04</totfact>
</mgrwt>
</event>
<event>
 4    1  0.4429256E+000  0.2322501E+03  0.7546771E-02  0.1125066E+00
         21   -1    0    0  503  502  0.00000000000E+00  0.00000000000E+00  0.15920232727E+03  0.15920232727E+03  0.00000000000E+00 0. -1.
         21   -1    0    0  501  503 -0.00000000000E+00 -0.00000000000E+00 -0.39853344641E+03  0.39853344641E+03  0.00000000000E+00 0.  1.
          6    1    1    2  501    0 -0.13543966050E+03  0.75280907164E+02 -0.22761510631E+03  0.32519033387E+03  0.17300000000E+03 0.  1.
         -6    1    1    2    0  502  0.13543966050E+03 -0.75280907164E+02 -0.11716012827E+02  0.23254543981E+03  0.17300000000E+03 0. -1.
<mgrwt>
<rscale>  2 0.23225012E+03</rscale>
<asrwt>0</asrwt>
<pdfrwt beam="1">  1       21 0.24492666E-01 0.23225012E+03</pdfrwt>
<pdfrwt beam="2">  1       21 0.61312837E-01 0.23225012E+03</pdfrwt>
<totfact> 0.38199440E+04</totfact>
</mgrwt>
</event>
<event>
 4    1  0.4429256E+000  0.2293901E+03  0.7546771E-02  0.1127070E+00
         21   -1    0    0  501  502  0.00000000000E+00  0.00000000000E+00  0.10788406219E+04  0.10788406219E+04  0.00000000000E+00 0. -1.
         21   -1    0    0  502  503 -0.00000000000E+00 -0.00000000000E+00 -0.53234700241E+02  0.53234700241E+02  0.00000000000E+00 0.  1.
          6    1    1    2  501    0 -0.10090908519E+03 -0.11183995978E+03  0.34895945056E+03  0.41760330245E+03  0.17300000000E+03 0.  1.
         -6    1    1    2    0  503  0.10090908519E+03  0.11183995978E+03  0.67664647112E+03  0.71447201971E+03  0.17300000000E+03 0. -1.
<mgrwt>
<rscale>  2 0.22939010E+03</rscale>
<asrwt>0</asrwt>
<pdfrwt beam="1">  1       21 0.16597546E+00 0.22939010E+03</pdfrwt>
<pdfrwt beam="2">  1       21 0.81899547E-02 0.22939010E+03</pdfrwt>
<totfact> 0.25641477E+04</totfact>
</mgrwt>
</event>
<event>
 4    1  0.4429256E+000  0.1976862E+03  0.7546771E-02  0.1151706E+00
         21   -1    0    0  503  502  0.00000000000E+00  0.00000000000E+00  0.79250120715E+02  0.79250120715E+02  0.00000000000E+00 0.  1.
         21   -1    0    0  501  503 -0.00000000000E+00 -0.00000000000E+00 -0.78713785346E+03  0.78713785346E+03  0.00000000000E+00 0. -1.
          6    1    1    2  501    0  0.77126951847E+02 -0.56588556823E+02 -0.61869861650E+03  0.64951351758E+03  0.17300000000E+03 0. -1.
         -6    1    1    2    0  502 -0.77126951847E+02  0.56588556823E+02 -0.89189116241E+02  0.21687445659E+03  0.17300000000E+03 0.  1.
<mgrwt>
<rscale>  2 0.19768619E+03</rscale>
<asrwt>0</asrwt>
<pdfrwt beam="1">  1       21 0.12192326E-01 0.19768619E+03</pdfrwt>
<pdfrwt beam="2">  1       21 0.12109813E+00 0.19768619E+03</pdfrwt>
<totfact> 0.29358704E+04</totfact>
</mgrwt>
</event>
<event>
 4    1  0.4429256E+000  0.2034818E+03  0.7546771E-02  0.1146834E+00
         21   -1    0    0  503  502  0.00000000000E+00  0.00000000000E+00  0.75111950665E+02  0.75111950665E+02  0.00000000000E+00 0. -1.
         21   -1    0    0  501  503 -0.00000000000E+00 -0.00000000000E+00 -0.11778722601E+04  0.11778722601E+04  0.00000000000E+00 0. -1.
          6    1    1    2  501    0  0.31824240721E+02  0.10228901439E+03 -0.10083340236E+04  0.10286604531E+04  0.17300000000E+03 0. -1.
         -6    1    1    2    0  502 -0.31824240721E+02 -0.10228901439E+03 -0.94426285826E+02  0.22432375759E+03  0.17300000000E+03 0. -1.
<mgrwt>
<rscale>  2 0.20348176E+03</rscale>
<asrwt>0</asrwt>
<pdfrwt beam="1">  1       21 0.11555685E-01 0.20348176E+03</pdfrwt>
<pdfrwt beam="2">  1       21 0.18121111E+00 0.20348176E+03</pdfrwt>
<totfact> 0.11112636E+04</totfact>
</mgrwt>
</event>
<event>
 4    1  0.4429256E+000  0.2302064E+03  0.7546771E-02  0.1126495E+00
         21   -1    0    0  501  502  0.00000000000E+00  0.00000000000E+00  0.64343741704E+02  0.64343741704E+02  0.00000000000E+00 0. -1.
         21   -1    0    0  502  503 -0.00000000000E+00 -0.00000000000E+00 -0.10331450584E+04  0.10331450584E+04  0.00000000000E+00 0. -1.
          6    1    1    2  501    0  0.15067292517E+03  0.19069171681E+02 -0.23728248877E+03  0.33060239438E+03  0.17300000000E+03 0. -1.
         -6    1    1    2    0  503 -0.15067292517E+03 -0.19069171681E+02 -0.73151882795E+03  0.76688640576E+03  0.17300000000E+03 0. -1.
<mgrwt>
<rscale>  2 0.23020635E+03</rscale>
<asrwt>0</asrwt>
<pdfrwt beam="1">  1       21 0.98990380E-02 0.23020635E+03</pdfrwt>
<pdfrwt beam="2">  1       21 0.15894538E+00 0.23020635E+03</pdfrwt>
<totfact> 0.20657460E+04</totfact>
</mgrwt>
</event>
<event>
 4    1  0.4429256E+000  0.2366395E+03  0.7546771E-02  0.1122052E+00
         21   -1    0    0  503  502  0.00000000000E+00  0.00000000000E+00  0.43812669191E+03  0.43812669191E+03  0.00000000000E+00 0.  1.
         21   -1    0    0  501  503 -0.00000000000E+00 -0.00000000000E+00 -0.19865273853E+03  0.19865273853E+03  0.00000000000E+00 0.  1.
          6    1    1    2  501    0  0.27974359464E+02  0.15901794497E+03 -0.70392885695E+02  0.24688748443E+03  0.17300000000E+03 0.  1.
         -6    1    1    2    0  502 -0.27974359464E+02 -0.15901794497E+03  0.30986683907E+03  0.38989194601E+03  0.17300000000E+03 0.  1.
<mgrwt>
<rscale>  2 0.23663954E+03</rscale>
<asrwt>0</asrwt>
<pdfrwt beam="1">  1       21 0.67404106E-01 0.23663954E+03</pdfrwt>
<pdfrwt beam="2">  1       21 0.30561960E-01 0.23663954E+03</pdfrwt>
<totfact> 0.20184709E+04</totfact>
</mgrwt>
</event>
<event>
 4    1  0.4429256E+000  0.2202737E+03  0.7546771E-02  0.1133679E+00
         21   -1    0    0  501  502  0.00000000000E+00  0.00000000000E+00  0.38348927590E+02  0.38348927590E+02  0.00000000000E+00 0. -1.
         21   -1    0    0  502  503 -0.00000000000E+00 -0.00000000000E+00 -0.12674354248E+04  0.12674354248E+04  0.00000000000E+00 0. -1.
          6    1    1    2  501    0 -0.10406323956E+03 -0.88104068412E+02 -0.64173440289E+03  0.67848620365E+03  0.17300000000E+03 0. -1.
         -6    1    1    2    0  503  0.10406323956E+03  0.88104068412E+02 -0.58735209428E+03  0.62729814869E+03  0.17300000000E+03 0. -1.
<mgrwt>
<rscale>  2 0.22027366E+03</rscale>
<asrwt>0</asrwt>
<pdfrwt beam="1">  1       21 0.58998359E-02 0.22027366E+03</pdfrwt>
<pdfrwt beam="2">  1       21 0.19499004E+00 0.22027366E+03</pdfrwt>
<totfact> 0.28808469E+04</totfact>
</mgrwt>
</event>
<event>
 4    1  0.4429256E+000  0.1857179E+03  0.7546771E-02  0.1162381E+00
         21   -1    0    0  501  502  0.00000000000E+00  0.00000000000E+00  0.14316586501E+03  0.14316586501E+03  0.00000000000E+00 0. -1.
         21   -1    0    0  502  503 -0.00000000000E+00 -0.00000000000E+00 -0.25726639359E+03  0.25726639359E+03  0.00000000000E+00 0. -1.
          6    1    1    2  501    0  0.18911619919E+02  0.64841986603E+02 -0.65778046030E+01  0.18583433512E+03  0.17300000000E+03 0. -1.
         -6    1    1    2    0  503 -0.18911619919E+02 -0.64841986603E+02 -0.10752272397E+03  0.21459792349E+03  0.17300000000E+03 0. -1.
<mgrwt>
<rscale>  2 0.18571788E+03</rscale>
<asrwt>0</asrwt>
<pdfrwt beam="1">  1       21 0.22025518E-01 0.18571788E+03</pdfrwt>
<pdfrwt beam="2">  1       21 0.39579445E-01 0.18571788E+03</pdfrwt>
<totfact> 0.11881130E+05</totfact>
</mgrwt>
</event>
<event>
 4    1  0.4429256E+000  0.2233975E+03  0.7546771E-02  0.1131375E+00
         21   -1    0    0  501  502  0.00000000000E+00  0.00000000000E+00  0.35445330410E+03  0.35445330410E+03  0.00000000000E+00 0. -1.
         21   -1    0    0  502  503 -0.00000000000E+00 -0.00000000000E+00 -0.14228316851E+03  0.14228316851E+03  0.00000000000E+00 0. -1.
          6    1    1    2  501    0 -0.14010192159E+03 -0.18679119604E+02  0.80713417010E+02  0.23753128979E+03  0.17300000000E+03 0. -1.
         -6    1    1    2    0  503  0.14010192159E+03  0.18679119604E+02  0.13145671858E+03  0.25920518282E+03  0.17300000000E+03 0. -1.
<mgrwt>
<rscale>  2 0.22339753E+03</rscale>
<asrwt>0</asrwt>
<pdfrwt beam="1">  1       21 0.54531277E-01 0.22339753E+03</pdfrwt>
<pdfrwt beam="2">  1       21 0.21889718E-01 0.22339753E+03</pdfrwt>
<totfact> 0.61043694E+04</totfact>
</mgrwt>
</event>
<event>
 4    1  0.4429256E+000  0.1913199E+03  0.7546771E-02  0.1157276E+00
         21   -1    0    0  503  502  0.00000000000E+00  0.00000000000E+00  0.16598498745E+03  0.16598498745E+03  0.00000000000E+00 0. -1.
         21   -1    0    0  501  503 -0.00000000000E+00 -0.00000000000E+00 -0.29996924905E+03  0.29996924905E+03  0.00000000000E+00 0. -1.
          6    1    1    2  501    0 -0.72599414416E+02 -0.37464956929E+02 -0.18689098925E+03  0.26745380879E+03  0.17300000000E+03 0. -1.
         -6    1    1    2    0  502  0.72599414416E+02  0.37464956929E+02  0.52906727656E+02  0.19850042771E+03  0.17300000000E+03 0. -1.
<mgrwt>
<rscale>  2 0.19131988E+03</rscale>
<asrwt>0</asrwt>
<pdfrwt beam="1">  1       21 0.25536152E-01 0.19131988E+03</pdfrwt>
<pdfrwt beam="2">  1       21 0.46149115E-01 0.19131988E+03</pdfrwt>
<totfact> 0.65478926E+04</totfact>
</mgrwt>
</event>
<event>
 4    1  0.4429256E+000  0.1735411E+03  0.7546771E-02  0.1174205E+00
         21   -1    0    0  501  502  0.00000000000E+00  0.00000000000E+00  0.90376218001E+03  0.90376218001E+03  0.00000000000E+00 0.  1.
         21   -1    0    0  502  503 -0.00000000000E+00 -0.00000000000E+00 -0.47830939197E+02  0.47830939197E+02  0.00000000000E+00 0.  1.
          6    1    1    2  501    0  0.30727323449E+01  0.13344913291E+02  0.69000228762E+03  0.71149117023E+03  0.17300000000E+03 0.  1.
         -6    1    1    2    0  503 -0.30727323449E+01 -0.13344913291E+02  0.16592895320E+03  0.24010194898E+03  0.17300000000E+03 0.  1.
<mgrwt>
<rscale>  2 0.17354114E+03</rscale>
<asrwt>0</asrwt>
<pdfrwt beam="1">  1       21 0.13904032E+00 0.17354114E+03</pdfrwt>
<pdfrwt beam="2">  1       21 0.73586067E-02 0.17354114E+03</pdfrwt>
<totfact> 0.51069845E+04</totfact>
</mgrwt>
</event>
<event>
 4    1  0.4429256E+000  0.2524871E+03  0.7546771E-02  0.1111743E+00
         21   -1    0    0  503  502  0.00000000000E+00  0.00000000000E+00  0.29951684757E+03  0.29951684757E+03  0.00000000000E+00 0.  1.
         21   -1    0    0  501  503 -0.00000000000E+00 -0.00000000000E+00 -0.54478943435E+03  0.54478943435E+03  0.00000000000E+00 0.  1.
          6    1    1    2  501    0  0.38069501220E+01  0.18386468879E+03 -0.45216287278E+03  0.51788124138E+03  0.17300000000E+03 0.  1.
         -6    1    1    2    0  502 -0.38069501220E+01 -0.18386468879E+03  0.20689028599E+03  0.32642504054E+03  0.17300000000E+03 0.  1.
<mgrwt>
<rscale>  2 0.25248706E+03</rscale>
<asrwt>0</asrwt>
<pdfrwt beam="1">  1       21 0.46079515E-01 0.25248706E+03</pdfrwt>
<pdfrwt beam="2">  1       21 0.83813759E-01 0.25248706E+03</pdfrwt>
<totfact> 0.53571501E+03</totfact>
</mgrwt>
</event>
<event>
 4    1  0.4429256E+000  0.1742972E+03  0.7546771E-02  0.1173439E+00
         21   -1    0    0  501  502  0.00000000000E+00  0.00000000000E+00  0.10396711042E+03  0.10396711042E+03  0.00000000000E+00 0.  1.
         21   -1    0    0  502  503 -0.00000000000E+00 -0.00000000000E+00 -0.33134839758E+03  0.33134839758E+03  0.00000000000E+00 0.  1.
          6    1    1    2  501    0  0.15152881671E+02  0.14863097850E+02 -0.38878689844E+02  0.17858072131E+03  0.17300000000E+03 0.  1.
         -6    1    1    2    0  503 -0.15152881671E+02 -0.14863097850E+02 -0.18850259731E+03  0.25673478669E+03  0.17300000000E+03 0.  1.
<mgrwt>
<rscale>  2 0.17429722E+03</rscale>
<asrwt>0</asrwt>
<pdfrwt beam="1">  1       21 0.15994940E-01 0.17429722E+03</pdfrwt>
<pdfrwt beam="2">  1       21 0.50976676E-01 0.17429722E+03</pdfrwt>
<totfact> 0.12849950E+05</totfact>
</mgrwt>
</event>
<event>
 4    1  0.4429256E+000  0.1880601E+03  0.7546771E-02  0.1160223E+00
         21   -1    0    0  503  502  0.00000000000E+00  0.00000000000E+00  0.30915543233E+03  0.30915543233E+03  0.00000000000E+00 0.  1.
         21   -1    0    0  501  503 -0.00000000000E+00 -0.00000000000E+00 -0.12249038882E+03  0.12249038882E+03  0.00000000000E+00 0.  1.
          6    1    1    2  501    0 -0.12860601915E+02  0.72609982355E+02  0.14880769517E+03  0.23981312466E+03  0.17300000000E+03 0. -1.
         -6    1    1    2    0  502  0.12860601915E+02 -0.72609982355E+02  0.37857348338E+02  0.19183269649E+03  0.17300000000E+03 0. -1.
<mgrwt>
<rscale>  2 0.18806011E+03</rscale>
<asrwt>0</asrwt>
<pdfrwt beam="1">  1       21 0.47562374E-01 0.18806011E+03</pdfrwt>
<pdfrwt beam="2">  1       21 0.18844675E-01 0.18806011E+03</pdfrwt>
<totfact> 0.10920211E+05</totfact>
</mgrwt>
</event>
<event>
 4    1  0.4429256E+000  0.2216319E+03  0.7546771E-02  0.1132672E+00
         21   -1    0    0  501  502  0.00000000000E+00  0.00000000000E+00  0.11909038301E+03  0.11909038301E+03  0.00000000000E+00 0.  1.
         21   -1    0    0  502  503 -0.00000000000E+00 -0.00000000000E+00 -0.43067539384E+03  0.43067539384E+03  0.00000000000E+00 0.  1.
          6    1    1    2  501    0  0.13645619458E+03  0.23903892754E+02 -0.99269544327E+02  0.24284795976E+03  0.17300000000E+03 0.  1.
         -6    1    1    2    0  503 -0.13645619458E+03 -0.23903892754E+02 -0.21231546651E+03  0.30691781709E+03  0.17300000000E+03 0.  1.
<mgrwt>
<rscale>  2 0.22163188E+03</rscale>
<asrwt>0</asrwt>
<pdfrwt beam="1">  1       21 0.18321597E-01 0.22163188E+03</pdfrwt>
<pdfrwt beam="2">  1       21 0.66257754E-01 0.22163188E+03</pdfrwt>
<totfact> 0.56035629E+04</totfact>
</mgrwt>
</event>
<event>
 4    1  0.4429256E+000  0.2164699E+03  0.7546771E-02  0.1136543E+00
         21   -1    0    0  503  502  0.00000000000E+00  0.00000000000E+00  0.21348880234E+03  0.21348880234E+03  0.00000000000E+00 0. -1.
         21   -1    0    0  501  503 -0.00000000000E+00 -0.00000000000E+00 -0.22373850968E+03  0.22373850968E+03  0.00000000000E+00 0.  1.
          6    1    1    2  501    0  0.90512645998E+02 -0.93475471076E+02 -0.35240665328E+02  0.21931964634E+03  0.17300000000E+03 0.  1.
         -6    1    1    2    0  502 -0.90512645998E+02  0.93475471076E+02  0.24990957988E+02  0.21790766567E+03  0.17300000000E+03 0. -1.
<mgrwt>
<rscale>  2 0.21646987E+03</rscale>
<asrwt>0</asrwt>
<pdfrwt beam="1">  1       21 0.32844431E-01 0.21646987E+03</pdfrwt>
<pdfrwt beam="2">  1       21 0.34421309E-01 0.21646987E+03</pdfrwt>
<totfact> 0.71835617E+04</totfact>
</mgrwt>
</event>
<event>
 4    1  0.4429256E+000  0.2385014E+03  0.7546771E-02  0.1120795E+00
         21   -1    0    0  503  502  0.00000000000E+00  0.00000000000E+00  0.10608770446E+03  0.10608770446E+03  0.00000000000E+00 0.  1.
         21   -1    0    0  501  503 -0.00000000000E+00 -0.00000000000E+00 -0.62872262736E+03  0.62872262736E+03  0.00000000000E+00 0. -1.
          6    1    1    2  501    0 -0.15628543540E+03 -0.50286921773E+02 -0.40226866486E+03  0.46765691542E+03  0.17300000000E+03 0. -1.
         -6    1    1    2    0  502  0.15628543540E+03  0.50286921773E+02 -0.12036625805E+03  0.26715341640E+03  0.17300000000E+03 0.  1.
<mgrwt>
<rscale>  2 0.23850139E+03</rscale>
<asrwt>0</asrwt>
<pdfrwt beam="1">  1       21 0.16321185E-01 0.23850139E+03</pdfrwt>
<pdfrwt beam="2">  1       21 0.96726557E-01 0.23850139E+03</pdfrwt>
<totfact> 0.29132590E+04</totfact>
</mgrwt>
</event>
<event>
 4    1  0.4429256E+000  0.1809947E+03  0.7546771E-02  0.1166844E+00
         21   -1    0    0  503  502  0.00000000000E+00  0.00000000000E+00  0.10799005201E+03  0.10799005201E+03  0.00000000000E+00 0.  1.
         21   -1    0    0  501  503 -0.00000000000E+00 -0.00000000000E+00 -0.40574099391E+03  0.40574099391E+03  0.00000000000E+00 0.  1.
          6    1    1    2  501    0  0.33640212708E+02 -0.41211706087E+02 -0.27791020399E+03  0.33165215228E+03  0.17300000000E+03 0.  1.
         -6    1    1    2    0  502 -0.33640212708E+02  0.41211706087E+02 -0.19840737902E+02  0.18207889364E+03  0.17300000000E+03 0.  1.
<mgrwt>
<rscale>  2 0.18099466E+03</rscale>
<asrwt>0</asrwt>
<pdfrwt beam="1">  1       21 0.16613854E-01 0.18099466E+03</pdfrwt>
<pdfrwt beam="2">  1       21 0.62421691E-01 0.18099466E+03</pdfrwt>
<totfact> 0.77810908E+04</totfact>
</mgrwt>
</event>
<event>
 4    1  0.4429256E+000  0.1869931E+03  0.7546771E-02  0.1161202E+00
         21   -1    0    0  501  502  0.00000000000E+00  0.00000000000E+00  0.75463177099E+03  0.75463177099E+03  0.00000000000E+00 0. -1.
         21   -1    0    0  502  503 -0.00000000000E+00 -0.00000000000E+00 -0.69719009266E+02  0.69719009266E+02  0.00000000000E+00 0. -1.
          6    1    1    2  501    0 -0.62044807745E+02  0.34465201528E+02  0.58116012584E+03  0.61050266187E+03  0.17300000000E+03 0. -1.
         -6    1    1    2    0  503  0.62044807745E+02 -0.34465201528E+02  0.10375263588E+03  0.21384811839E+03  0.17300000000E+03 0. -1.
<mgrwt>
<rscale>  2 0.18699307E+03</rscale>
<asrwt>0</asrwt>
<pdfrwt beam="1">  1       21 0.11609719E+00 0.18699307E+03</pdfrwt>
<pdfrwt beam="2">  1       21 0.10726002E-01 0.18699307E+03</pdfrwt>
<totfact> 0.41182152E+04</totfact>
</mgrwt>
</event>
<event>
 4    1  0.4429256E+000  0.2106718E+03  0.7546771E-02  0.1141035E+00
         21   -1    0    0  503  502  0.00000000000E+00  0.00000000000E+00  0.24435146441E+03  0.24435146441E+03  0.00000000000E+00 0.  1.
         21   -1    0    0  501  503 -0.00000000000E+00 -0.00000000000E+00 -0.18771067822E+03  0.18771067822E+03  0.00000000000E+00 0.  1.
          6    1    1    2  501    0  0.11692865435E+03  0.27951800292E+02  0.67188485694E+02  0.22112644789E+03  0.17300000000E+03 0.  1.
         -6    1    1    2    0  502 -0.11692865435E+03 -0.27951800292E+02 -0.10547699502E+02  0.21093569473E+03  0.17300000000E+03 0.  1.
<mgrwt>
<rscale>  2 0.21067181E+03</rscale>
<asrwt>0</asrwt>
<pdfrwt beam="1">  1       21 0.37592533E-01 0.21067181E+03</pdfrwt>
<pdfrwt beam="2">  1       21 0.28878566E-01 0.21067181E+03</pdfrwt>
<totfact> 0.77712642E+04</totfact>
</mgrwt>
</event>
<event>
 4    1  0.4429256E+000  0.1899137E+03  0.7546771E-02  0.1158539E+00
         21   -1    0    0  503  502  0.00000000000E+00  0.00000000000E+00  0.89813311951E+03  0.89813311951E+03  0.00000000000E+00 0.  1.
         21   -1    0    0  501  503 -0.00000000000E+00 -0.00000000000E+00 -0.47366009307E+02  0.47366009307E+02  0.00000000000E+00 0.  1.
          6    1    1    2  501    0 -0.72095800472E+02 -0.30665922126E+02  0.24096428427E+03  0.30680774032E+03  0.17300000000E+03 0.  1.
         -6    1    1    2    0  502  0.72095800472E+02  0.30665922126E+02  0.60980282593E+03  0.63869138850E+03  0.17300000000E+03 0.  1.
<mgrwt>
<rscale>  2 0.18991367E+03</rscale>
<asrwt>0</asrwt>
<pdfrwt beam="1">  1       21 0.13817431E+00 0.18991367E+03</pdfrwt>
<pdfrwt beam="2">  1       21 0.72870790E-02 0.18991367E+03</pdfrwt>
<totfact> 0.52309888E+04</totfact>
</mgrwt>
</event>
<event>
 4    1  0.4429256E+000  0.1794452E+03  0.7546771E-02  0.1168341E+00
         21   -1    0    0  503  502  0.00000000000E+00  0.00000000000E+00  0.25145485986E+03  0.25145485986E+03  0.00000000000E+00 0. -1.
         21   -1    0    0  501  503 -0.00000000000E+00 -0.00000000000E+00 -0.68042026247E+03  0.68042026247E+03  0.00000000000E+00 0. -1.
          6    1    1    2  501    0 -0.58846863003E+00 -0.47657533259E+02 -0.63429141279E+03  0.65918600039E+03  0.17300000000E+03 0. -1.
         -6    1    1    2    0  502  0.58846863003E+00  0.47657533259E+02  0.20532601018E+03  0.27268912195E+03  0.17300000000E+03 0. -1.
<mgrwt>
<rscale>  2 0.17944522E+03</rscale>
<asrwt>0</asrwt>
<pdfrwt beam="1">  1       21 0.38685363E-01 0.17944522E+03</pdfrwt>
<pdfrwt beam="2">  1       21 0.10468004E+00 0.17944522E+03</pdfrwt>
<totfact> 0.47934757E+03</totfact>
</mgrwt>
</event>
<event>
 4    1  0.4429256E+000  0.2594336E+03  0.7546771E-02  0.1107484E+00
         21   -1    0    0  501  502  0.00000000000E+00  0.00000000000E+00  0.24005470122E+03  0.24005470122E+03  0.00000000000E+00 0.  1.
         21   -1    0    0  502  503 -0.00000000000E+00 -0.00000000000E+00 -0.45309693046E+03  0.45309693046E+03  0.00000000000E+00 0. -1.
          6    1    1    2  501    0  0.11329365160E+02  0.19299853991E+03  0.10745931633E+03  0.28080828974E+03  0.17300000000E+03 0.  1.
         -6    1    1    2    0  503 -0.11329365160E+02 -0.19299853991E+03 -0.32050154557E+03  0.41234334194E+03  0.17300000000E+03 0.  1.
<mgrwt>
<rscale>  2 0.25943360E+03</rscale>
<asrwt>0</asrwt>
<pdfrwt beam="1">  1       21 0.36931493E-01 0.25943360E+03</pdfrwt>
<pdfrwt beam="2">  1       21 0.69707219E-01 0.25943360E+03</pdfrwt>
<totfact> 0.12716043E+04</totfact>
</mgrwt>
</event>
<event>
 4    1  0.4429256E+000  0.2271732E+03  0.7546771E-02  0.1128645E+00
         21   -1    0    0  503  502  0.00000000000E+00  0.00000000000E+00  0.25162606020E+04  0.25162606020E+04  0.00000000000E+00 0.  1.
         21   -1    0    0  501  503 -0.00000000000E+00 -0.00000000000E+00 -0.30521562148E+02  0.30521562148E+02  0.00000000000E+00 0. -1.
          6    1    1    2  501    0 -0.12829303443E+03 -0.72246377065E+02  0.51355175896E+03  0.56155413881E+03  0.17300000000E+03 0. -1.
         -6    1    1    2    0  502  0.12829303443E+03  0.72246377065E+02  0.19721872809E+04  0.19852280254E+04  0.17300000000E+03 0.  1.
<mgrwt>
<rscale>  2 0.22717315E+03</rscale>
<asrwt>0</asrwt>
<pdfrwt beam="1">  1       21 0.38711685E+00 0.22717315E+03</pdfrwt>
<pdfrwt beam="2">  1       21 0.46956269E-02 0.22717315E+03</pdfrwt>
<totfact> 0.29929695E+03</totfact>
</mgrwt>
</event>
<event>
 4    1  0.4429256E+000  0.1818205E+03  0.7546771E-02  0.1166053E+00
         21   -1    0    0  501  502  0.00000000000E+00  0.00000000000E+00  0.26554831074E+03  0.26554831074E+03  0.00000000000E+00 0.  1.
         21   -1    0    0  502  503 -0.00000000000E+00 -0.00000000000E+00 -0.17419762613E+03  0.17419762613E+03  0.00000000000E+00 0.  1.
          6    1    1    2  501    0  0.83708395947E+01 -0.55313700088E+02  0.16312531077E+03  0.24427145430E+03  0.17300000000E+03 0.  1.
         -6    1    1    2    0  503 -0.83708395947E+01  0.55313700088E+02 -0.71774626163E+02  0.19547448256E+03  0.17300000000E+03 0.  1.
<mgrwt>
<rscale>  2 0.18182045E+03</rscale>
<asrwt>0</asrwt>
<pdfrwt beam="1">  1       21 0.40853586E-01 0.18182045E+03</pdfrwt>
<pdfrwt beam="2">  1       21 0.26799635E-01 0.18182045E+03</pdfrwt>
<totfact> 0.76859934E+04</totfact>
</mgrwt>
</event>
<event>
 4    1  0.4429256E+000  0.2195278E+03  0.7546771E-02  0.1134236E+00
         21   -1    0    0  503  502  0.00000000000E+00  0.00000000000E+00  0.80048236880E+02  0.80048236880E+02  0.00000000000E+00 0. -1.
         21   -1    0    0  501  503 -0.00000000000E+00 -0.00000000000E+00 -0.67863892157E+03  0.67863892157E+03  0.00000000000E+00 0.  1.
          6    1    1    2  501    0 -0.10300541904E+03 -0.87483334667E+02 -0.42673871556E+03  0.47989413578E+03  0.17300000000E+03 0.  1.
         -6    1    1    2    0  502  0.10300541904E+03  0.87483334667E+02 -0.17185196913E+03  0.27879302267E+03  0.17300000000E+03 0. -1.
<mgrwt>
<rscale>  2 0.21952779E+03</rscale>
<asrwt>0</asrwt>
<pdfrwt beam="1">  1       21 0.12315114E-01 0.21952779E+03</pdfrwt>
<pdfrwt beam="2">  1       21 0.10440599E+00 0.21952779E+03</pdfrwt>
<totfact> 0.40908817E+04</totfact>
</mgrwt>
</event>
<event>
 4    1  0.4429256E+000  0.2171754E+03  0.7546771E-02  0.1136007E+00
         21   -1    0    0  503  502  0.00000000000E+00  0.00000000000E+00  0.11765672742E+03  0.11765672742E+03  0.00000000000E+00 0. -1.
         21   -1    0    0  501  503 -0.00000000000E+00 -0.00000000000E+00 -0.54772820550E+03  0.54772820550E+03  0.00000000000E+00 0. -1.
          6    1    1    2  501    0  0.10387358578E+03  0.80289700954E+02 -0.38730516065E+03  0.44403878814E+03  0.17300000000E+03 0. -1.
         -6    1    1    2    0  502 -0.10387358578E+03 -0.80289700954E+02 -0.42766317431E+02  0.22134614478E+03  0.17300000000E+03 0. -1.
<mgrwt>
<rscale>  2 0.21717541E+03</rscale>
<asrwt>0</asrwt>
<pdfrwt beam="1">  1       21 0.18101035E-01 0.21717541E+03</pdfrwt>
<pdfrwt beam="2">  1       21 0.84265879E-01 0.21717541E+03</pdfrwt>
<totfact> 0.33518481E+04</totfact>
</mgrwt>
</event>
<event>
 4    1  0.4429256E+000  0.2120211E+03  0.7546771E-02  0.1139975E+00
         21   -1    0    0  501  502  0.00000000000E+00  0.00000000000E+00  0.23579586999E+03  0.23579586999E+03  0.00000000000E+00 0. -1.
         21   -1    0    0  502  503 -0.00000000000E+00 -0.00000000000E+00 -0.20793702679E+03  0.20793702679E+03  0.00000000000E+00 0.  1.
          6    1    1    2  501    0 -0.42375047658E+02  0.11501443397E+03  0.77912733547E+02  0.22588350700E+03  0.17300000000E+03 0. -1.
         -6    1    1    2    0  503  0.42375047658E+02 -0.11501443397E+03 -0.50053890345E+02  0.21784938977E+03  0.17300000000E+03 0.  1.
<mgrwt>
<rscale>  2 0.21202114E+03</rscale>
<asrwt>0</asrwt>
<pdfrwt beam="1">  1       21 0.36276288E-01 0.21202114E+03</pdfrwt>
<pdfrwt beam="2">  1       21 0.31990312E-01 0.21202114E+03</pdfrwt>
<totfact> 0.68280808E+04</totfact>
</mgrwt>
</event>
<event>
 4    1  0.4429256E+000  0.2205030E+03  0.7546771E-02  0.1133509E+00
         21   -1    0    0  501  502  0.00000000000E+00  0.00000000000E+00  0.18371077251E+03  0.18371077251E+03  0.00000000000E+00 0. -1.
         21   -1    0    0  502  503 -0.00000000000E+00 -0.00000000000E+00 -0.31485035676E+03  0.31485035676E+03  0.00000000000E+00 0. -1.
          6    1    1    2  501    0 -0.13375375340E+03 -0.28328448859E+02  0.33954839906E+02  0.22310199173E+03  0.17300000000E+03 0. -1.
         -6    1    1    2    0  503  0.13375375340E+03  0.28328448859E+02 -0.16509442416E+03  0.27545913753E+03  0.17300000000E+03 0. -1.
<mgrwt>
<rscale>  2 0.22050299E+03</rscale>
<asrwt>0</asrwt>
<pdfrwt beam="1">  1       21 0.28263196E-01 0.22050299E+03</pdfrwt>
<pdfrwt beam="2">  1       21 0.48438516E-01 0.22050299E+03</pdfrwt>
<totfact> 0.48057751E+04</totfact>
</mgrwt>
</event>
<event>
 4    1  0.4429256E+000  0.2337977E+03  0.7546771E-02  0.1123995E+00
         21   -1    0    0  503  502  0.00000000000E+00  0.00000000000E+00  0.23814436118E+03  0.23814436118E+03  0.00000000000E+00 0.  1.
         21   -1    0    0  501  503 -0.00000000000E+00 -0.00000000000E+00 -0.24382783059E+03  0.24382783059E+03  0.00000000000E+00 0.  1.
          6    1    1    2  501    0 -0.14862570980E+03 -0.51407806722E+02 -0.61196959613E+02  0.24167422716E+03  0.17300000000E+03 0.  1.
         -6    1    1    2    0  502  0.14862570980E+03  0.51407806722E+02  0.55513490204E+02  0.24029796462E+03  0.17300000000E+03 0.  1.
<mgrwt>
<rscale>  2 0.23379770E+03</rscale>
<asrwt>0</asrwt>
<pdfrwt beam="1">  1       21 0.36637594E-01 0.23379770E+03</pdfrwt>
<pdfrwt beam="2">  1       21 0.37511974E-01 0.23379770E+03</pdfrwt>
<totfact> 0.48313376E+04</totfact>
</mgrwt>
</event>
<event>
 4    1  0.4429256E+000  0.2332104E+03  0.7546771E-02  0.1124400E+00
         21   -1    0    0  501  502  0.00000000000E+00  0.00000000000E+00  0.11435552156E+03  0.11435552156E+03  0.00000000000E+00 0. -1.
         21   -1    0    0  502  503 -0.00000000000E+00 -0.00000000000E+00 -0.78463551969E+03  0.78463551969E+03  0.00000000000E+00 0.  1.
          6    1    1    2  501    0  0.78208007547E+02  0.13543112894E+03 -0.53043263015E+02  0.23916661741E+03  0.17300000000E+03 0. -1.
         -6    1    1    2    0  503 -0.78208007547E+02 -0.13543112894E+03 -0.61723673511E+03  0.65982442384E+03  0.17300000000E+03 0.  1.
<mgrwt>
<rscale>  2 0.23321038E+03</rscale>
<asrwt>0</asrwt>
<pdfrwt beam="1">  1       21 0.17593157E-01 0.23321038E+03</pdfrwt>
<pdfrwt beam="2">  1       21 0.12071316E+00 0.23321038E+03</pdfrwt>
<totfact> 0.14852502E+04</totfact>
</mgrwt>
</event>
<event>
 4    1  0.4429256E+000  0.1954760E+03  0.7546771E-02  0.1153613E+00
         21   -1    0    0  501  502  0.00000000000E+00  0.00000000000E+00  0.34466286375E+03  0.34466286375E+03  0.00000000000E+00 0. -1.
         21   -1    0    0  502  503 -0.00000000000E+00 -0.00000000000E+00 -0.19523081179E+03  0.19523081179E+03  0.00000000000E+00 0. -1.
          6    1    1    2  501    0 -0.64407431041E+02  0.64292681135E+02  0.25217120188E+03  0.31906297353E+03  0.17300000000E+03 0. -1.
         -6    1    1    2    0  503  0.64407431041E+02 -0.64292681135E+02 -0.10273914992E+03  0.22083070200E+03  0.17300000000E+03 0. -1.
<mgrwt>
<rscale>  2 0.19547600E+03</rscale>
<asrwt>0</asrwt>
<pdfrwt beam="1">  1       21 0.53025056E-01 0.19547600E+03</pdfrwt>
<pdfrwt beam="2">  1       21 0.30035510E-01 0.19547600E+03</pdfrwt>
<totfact> 0.35769345E+04</totfact>
</mgrwt>
</event>
<event>
 4    1  0.4429256E+000  0.1943168E+03  0.7546771E-02  0.1154624E+00
         21   -1    0    0  501  502  0.00000000000E+00  0.00000000000E+00  0.12104479484E+04  0.12104479484E+04  0.00000000000E+00 0. -1.
         21   -1    0    0  502  503 -0.00000000000E+00 -0.00000000000E+00 -0.33897596762E+02  0.33897596762E+02  0.00000000000E+00 0.  1.
          6    1    1    2  501    0 -0.23065882468E+02  0.85428318408E+02  0.76397702147E+03  0.78830192303E+03  0.17300000000E+03 0.  1.
         -6    1    1    2    0  503  0.23065882468E+02 -0.85428318408E+02  0.41257333017E+03  0.45604362213E+03  0.17300000000E+03 0.  1.
<mgrwt>
<rscale>  2 0.19431684E+03</rscale>
<asrwt>0</asrwt>
<pdfrwt beam="1">  1       21 0.18622273E+00 0.19431684E+03</pdfrwt>
<pdfrwt beam="2">  1       21 0.52150158E-02 0.19431684E+03</pdfrwt>
<totfact> 0.41334152E+04</totfact>
</mgrwt>
</event>
<event>
 4    1  0.4429256E+000  0.3564877E+03  0.7546771E-02  0.1059983E+00
         21   -1    0    0  501  502  0.00000000000E+00  0.00000000000E+00  0.76738530609E+03  0.76738530609E+03  0.00000000000E+00 0.  1.
         21   -1    0    0  502  503 -0.00000000000E+00 -0.00000000000E+00 -0.39075693036E+03  0.39075693036E+03  0.00000000000E+00 0. -1.
          6    1    1    2  501    0 -0.25126976146E+03 -0.18443969505E+03  0.62787157158E+03  0.72201537693E+03  0.17300000000E+03 0.  1.
         -6    1    1    2    0  503  0.25126976146E+03  0.18443969505E+03 -0.25124319585E+03  0.43612685952E+03  0.17300000000E+03 0. -1.
<mgrwt>
<rscale>  2 0.35648772E+03</rscale>
<asrwt>0</asrwt>
<pdfrwt beam="1">  1       21 0.11805928E+00 0.35648772E+03</pdfrwt>
<pdfrwt beam="2">  1       21 0.60116451E-01 0.35648772E+03</pdfrwt>
<totfact> 0.12622624E+03</totfact>
</mgrwt>
</event>
<event>
 4    1  0.4429256E+000  0.2028910E+03  0.7546771E-02  0.1147323E+00
         21   -1    0    0  503  502  0.00000000000E+00  0.00000000000E+00  0.77908918842E+02  0.77908918842E+02  0.00000000000E+00 0.  1.
         21   -1    0    0  501  503 -0.00000000000E+00 -0.00000000000E+00 -0.82212989996E+03  0.82212989996E+03  0.00000000000E+00 0. -1.
          6    1    1    2  501    0 -0.10495632350E+03 -0.14830594096E+02 -0.64111334681E+03  0.67245155946E+03  0.17300000000E+03 0. -1.
         -6    1    1    2    0  502  0.10495632350E+03  0.14830594096E+02 -0.10310763431E+03  0.22758725935E+03  0.17300000000E+03 0. -1.
<mgrwt>
<rscale>  2 0.20289105E+03</rscale>
<asrwt>0</asrwt>
<pdfrwt beam="1">  1       21 0.11985988E-01 0.20289105E+03</pdfrwt>
<pdfrwt beam="2">  1       21 0.12648152E+00 0.20289105E+03</pdfrwt>
<totfact> 0.27065781E+04</totfact>
</mgrwt>
</event>
<event>
 4    1  0.4429256E+000  0.1836232E+03  0.7546771E-02  0.1164342E+00
         21   -1    0    0  501  502  0.00000000000E+00  0.00000000000E+00  0.18167051838E+04  0.18167051838E+04  0.00000000000E+00 0.  1.
         21   -1    0    0  502  503 -0.00000000000E+00 -0.00000000000E+00 -0.22929976726E+02  0.22929976726E+02  0.00000000000E+00 0.  1.
          6    1    1    2  501    0  0.37912875513E+02  0.48488185741E+02  0.12984515566E+04  0.13113710135E+04  0.17300000000E+03 0.  1.
         -6    1    1    2    0  503 -0.37912875513E+02 -0.48488185741E+02  0.49532365049E+03  0.52826414702E+03  0.17300000000E+03 0.  1.
<mgrwt>
<rscale>  2 0.18362323E+03</rscale>
<asrwt>0</asrwt>
<pdfrwt beam="1">  1       21 0.27949299E+00 0.18362323E+03</pdfrwt>
<pdfrwt beam="2">  1       21 0.35276902E-02 0.18362323E+03</pdfrwt>
<totfact> 0.21846927E+04</totfact>
</mgrwt>
</event>
<event>
 4    1  0.4429256E+000  0.2248472E+03  0.7546771E-02  0.1130320E+00
         21   -1    0    0  501  502  0.00000000000E+00  0.00000000000E+00  0.24291322485E+03  0.24291322485E+03  0.00000000000E+00 0.  1.
         21   -1    0    0  502  503 -0.00000000000E+00 -0.00000000000E+00 -0.47236334545E+03  0.47236334545E+03  0.00000000000E+00 0.  1.
          6    1    1    2  501    0  0.14238985446E+03  0.18771594433E+02  0.15276279677E+03  0.27183214580E+03  0.17300000000E+03 0.  1.
         -6    1    1    2    0  503 -0.14238985446E+03 -0.18771594433E+02 -0.38221291737E+03  0.44344442450E+03  0.17300000000E+03 0.  1.
<mgrwt>
<rscale>  2 0.22484716E+03</rscale>
<asrwt>0</asrwt>
<pdfrwt beam="1">  1       21 0.37371265E-01 0.22484716E+03</pdfrwt>
<pdfrwt beam="2">  1       21 0.72671284E-01 0.22484716E+03</pdfrwt>
<totfact> 0.11535827E+04</totfact>
</mgrwt>
</event>
<event>
 4    1  0.4429256E+000  0.2041551E+03  0.7546771E-02  0.1146280E+00
         21   -1    0    0  501  502  0.00000000000E+00  0.00000000000E+00  0.36107525446E+03  0.36107525446E+03  0.00000000000E+00 0. -1.
         21   -1    0    0  502  503 -0.00000000000E+00 -0.00000000000E+00 -0.17780362493E+03  0.17780362493E+03  0.00000000000E+00 0.  1.
          6    1    1    2  501    0 -0.48330218415E+02  0.97028396142E+02  0.25121912426E+03  0.32371340421E+03  0.17300000000E+03 0. -1.
         -6    1    1    2    0  503  0.48330218415E+02 -0.97028396142E+02 -0.67947494727E+02  0.21516547518E+03  0.17300000000E+03 0.  1.
<mgrwt>
<rscale>  2 0.20415514E+03</rscale>
<asrwt>0</asrwt>
<pdfrwt beam="1">  1       21 0.55550039E-01 0.20415514E+03</pdfrwt>
<pdfrwt beam="2">  1       21 0.27354404E-01 0.20415514E+03</pdfrwt>
<totfact> 0.38692781E+04</totfact>
</mgrwt>
</event>
<event>
 4    1  0.4429256E+000  0.2185211E+03  0.7546771E-02  0.1134990E+00
         21   -1    0    0  503  502  0.00000000000E+00  0.00000000000E+00  0.31608882273E+03  0.31608882273E+03  0.00000000000E+00 0. -1.
         21   -1    0    0  501  503 -0.00000000000E+00 -0.00000000000E+00 -0.47598427590E+03  0.47598427590E+03  0.00000000000E+00 0. -1.
          6    1    1    2  501    0  0.10168430370E+02 -0.13311297205E+03 -0.40715543537E+03  0.46208982769E+03  0.17300000000E+03 0. -1.
         -6    1    1    2    0  502 -0.10168430370E+02  0.13311297205E+03  0.24725998220E+03  0.32998327094E+03  0.17300000000E+03 0. -1.
<mgrwt>
<rscale>  2 0.21852108E+03</rscale>
<asrwt>0</asrwt>
<pdfrwt beam="1">  1       21 0.48629050E-01 0.21852108E+03</pdfrwt>
<pdfrwt beam="2">  1       21 0.73228350E-01 0.21852108E+03</pdfrwt>
<totfact> 0.66452155E+03</totfact>
</mgrwt>
</event>
<event>
 4    1  0.4429256E+000  0.1782854E+03  0.7546771E-02  0.1169473E+00
         21   -1    0    0  503  502  0.00000000000E+00  0.00000000000E+00  0.17192704095E+02  0.17192704095E+02  0.00000000000E+00 0. -1.
         21   -1    0    0  501  503 -0.00000000000E+00 -0.00000000000E+00 -0.20045919067E+04  0.20045919067E+04  0.00000000000E+00 0. -1.
          6    1    1    2  501    0  0.16392420695E+02 -0.39849301717E+02 -0.12755249151E+04  0.12879244882E+04  0.17300000000E+03 0.  1.
         -6    1    1    2    0  502 -0.16392420695E+02  0.39849301717E+02 -0.71187428758E+03  0.73386012265E+03  0.17300000000E+03 0.  1.
<mgrwt>
<rscale>  2 0.17828538E+03</rscale>
<asrwt>0</asrwt>
<pdfrwt beam="1">  1       21 0.26450312E-02 0.17828538E+03</pdfrwt>
<pdfrwt beam="2">  1       21 0.30839878E+00 0.17828538E+03</pdfrwt>
<totfact> 0.24141849E+04</totfact>
</mgrwt>
</event>
<event>
 4    1  0.4429256E+000  0.2702156E+03  0.7546771E-02  0.1101156E+00
         21   -1    0    0  501  502  0.00000000000E+00  0.00000000000E+00  0.16030112567E+03  0.16030112567E+03  0.00000000000E+00 0.  1.
         21   -1    0    0  502  503 -0.00000000000E+00 -0.00000000000E+00 -0.50588550178E+03  0.50588550178E+03  0.00000000000E+00 0.  1.
          6    1    1    2  501    0  0.20703596027E+03 -0.14952904039E+02 -0.67665980798E+02  0.27855908375E+03  0.17300000000E+03 0.  1.
         -6    1    1    2    0  503 -0.20703596027E+03  0.14952904039E+02 -0.27791839532E+03  0.38762754370E+03  0.17300000000E+03 0.  1.
<mgrwt>
<rscale>  2 0.27021561E+03</rscale>
<asrwt>0</asrwt>
<pdfrwt beam="1">  1       21 0.24661712E-01 0.27021561E+03</pdfrwt>
<pdfrwt beam="2">  1       21 0.77828539E-01 0.27021561E+03</pdfrwt>
<totfact> 0.21849859E+04</totfact>
</mgrwt>
</event>
<event>
 4    1  0.4429256E+000  0.2157346E+03  0.7546771E-02  0.1137104E+00
         21   -1    0    0  501  502  0.00000000000E+00  0.00000000000E+00  0.37914489274E+03  0.37914489274E+03  0.00000000000E+00 0.  1.
         21   -1    0    0  502  503 -0.00000000000E+00 -0.00000000000E+00 -0.12318984252E+03  0.12318984252E+03  0.00000000000E+00 0. -1.
          6    1    1    2  501    0 -0.51723677100E+02  0.11805533292E+03  0.11303101168E+03  0.24355165777E+03  0.17300000000E+03 0.  1.
         -6    1    1    2    0  503  0.51723677100E+02 -0.11805533292E+03  0.14292403854E+03  0.25878307749E+03  0.17300000000E+03 0.  1.
<mgrwt>
<rscale>  2 0.21573456E+03</rscale>
<asrwt>0</asrwt>
<pdfrwt beam="1">  1       21 0.58329983E-01 0.21573456E+03</pdfrwt>
<pdfrwt beam="2">  1       21 0.18952284E-01 0.21573456E+03</pdfrwt>
<totfact> 0.69528919E+04</totfact>
</mgrwt>
</event>
<event>
 4    1  0.4429256E+000  0.1871026E+03  0.7546771E-02  0.1161101E+00
         21   -1    0    0  501  502  0.00000000000E+00  0.00000000000E+00  0.52460883170E+02  0.52460883170E+02  0.00000000000E+00 0.  1.
         21   -1    0    0  502  503 -0.00000000000E+00 -0.00000000000E+00 -0.70843786007E+03  0.70843786007E+03  0.00000000000E+00 0.  1.
          6    1    1    2  501    0 -0.45162543945E+02 -0.55124709993E+02 -0.23631526160E+03  0.30141713935E+03  0.17300000000E+03 0. -1.
         -6    1    1    2    0  503  0.45162543945E+02  0.55124709993E+02 -0.41966171530E+03  0.45948160389E+03  0.17300000000E+03 0. -1.
<mgrwt>
<rscale>  2 0.18710262E+03</rscale>
<asrwt>0</asrwt>
<pdfrwt beam="1">  1       21 0.80709053E-02 0.18710262E+03</pdfrwt>
<pdfrwt beam="2">  1       21 0.10899044E+00 0.18710262E+03</pdfrwt>
<totfact> 0.79115542E+04</totfact>
</mgrwt>
</event>
<event>
 4    1  0.4429256E+000  0.2571202E+03  0.7546771E-02  0.1108886E+00
         21   -1    0    0  503  502  0.00000000000E+00  0.00000000000E+00  0.28095894447E+03  0.28095894447E+03  0.00000000000E+00 0. -1.
         21   -1    0    0  501  503 -0.00000000000E+00 -0.00000000000E+00 -0.50612126495E+03  0.50612126495E+03  0.00000000000E+00 0. -1.
          6    1    1    2  501    0  0.18873276914E+03  0.23701220958E+02 -0.40045338016E+03  0.47589254638E+03  0.17300000000E+03 0. -1.
         -6    1    1    2    0  502 -0.18873276914E+03 -0.23701220958E+02  0.17529105968E+03  0.31118766303E+03  0.17300000000E+03 0. -1.
<mgrwt>
<rscale>  2 0.25712022E+03</rscale>
<asrwt>0</asrwt>
<pdfrwt beam="1">  1       21 0.43224454E-01 0.25712022E+03</pdfrwt>
<pdfrwt beam="2">  1       21 0.77864809E-01 0.25712022E+03</pdfrwt>
<totfact> 0.72125077E+03</totfact>
</mgrwt>
</event>
<event>
 4    1  0.4429256E+000  0.1973292E+03  0.7546771E-02  0.1152012E+00
         21   -1    0    0  501  502  0.00000000000E+00  0.00000000000E+00  0.25560684913E+02  0.25560684913E+02  0.00000000000E+00 0. -1.
         21   -1    0    0  502  503 -0.00000000000E+00 -0.00000000000E+00 -0.15462303152E+04  0.15462303152E+04  0.00000000000E+00 0.  1.
          6    1    1    2  501    0 -0.77334879719E+02  0.55037565052E+02 -0.66481213437E+03  0.69347962565E+03  0.17300000000E+03 0. -1.
         -6    1    1    2    0  503  0.77334879719E+02 -0.55037565052E+02 -0.85585749588E+03  0.87831137442E+03  0.17300000000E+03 0.  1.
<mgrwt>
<rscale>  2 0.19732921E+03</rscale>
<asrwt>0</asrwt>
<pdfrwt beam="1">  1       21 0.39324133E-02 0.19732921E+03</pdfrwt>
<pdfrwt beam="2">  1       21 0.23788157E+00 0.19732921E+03</pdfrwt>
<totfact> 0.31507528E+04</totfact>
</mgrwt>
</event>
<event>
 4    1  0.4429256E+000  0.2075926E+03  0.7546771E-02  0.1143487E+00
         21   -1    0    0  503  502  0.00000000000E+00  0.00000000000E+00  0.57475378525E+03  0.57475378525E+03  0.00000000000E+00 0.  1.
         21   -1    0    0  501  503 -0.00000000000E+00 -0.00000000000E+00 -0.78752778602E+02  0.78752778602E+02  0.00000000000E+00 0. -1.
          6    1    1    2  501    0 -0.11191771864E+03 -0.25300818947E+02  0.17647665343E+03  0.27246782634E+03  0.17300000000E+03 0. -1.
         -6    1    1    2    0  502  0.11191771864E+03  0.25300818947E+02  0.31952435322E+03  0.38103873751E+03  0.17300000000E+03 0.  1.
<mgrwt>
<rscale>  2 0.20759265E+03</rscale>
<asrwt>0</asrwt>
<pdfrwt beam="1">  1       21 0.88423656E-01 0.20759265E+03</pdfrwt>
<pdfrwt beam="2">  1       21 0.12115812E-01 0.20759265E+03</pdfrwt>
<totfact> 0.62677669E+04</totfact>
</mgrwt>
</event>
<event>
 4    1  0.4429256E+000  0.1877226E+03  0.7546771E-02  0.1160532E+00
         21   -1    0    0  501  502  0.00000000000E+00  0.00000000000E+00  0.43218989584E+03  0.43218989584E+03  0.00000000000E+00 0.  1.
         21   -1    0    0  502  503 -0.00000000000E+00 -0.00000000000E+00 -0.82198068438E+02  0.82198068438E+02  0.00000000000E+00 0.  1.
          6    1    1    2  501    0  0.37334679395E+02 -0.62584985708E+02  0.19804914376E+03  0.27287950100E+03  0.17300000000E+03 0.  1.
         -6    1    1    2    0  503 -0.37334679395E+02  0.62584985708E+02  0.15194268364E+03  0.24150846327E+03  0.17300000000E+03 0.  1.
<mgrwt>
<rscale>  2 0.18772256E+03</rscale>
<asrwt>0</asrwt>
<pdfrwt beam="1">  1       21 0.66490752E-01 0.18772256E+03</pdfrwt>
<pdfrwt beam="2">  1       21 0.12645857E-01 0.18772256E+03</pdfrwt>
<totfact> 0.11101300E+05</totfact>
</mgrwt>
</event>
<event>
 4    1  0.4429256E+000  0.2056103E+03  0.7546771E-02  0.1145090E+00
         21   -1    0    0  501  502  0.00000000000E+00  0.00000000000E+00  0.11723090515E+04  0.11723090515E+04  0.00000000000E+00 0. -1.
         21   -1    0    0  502  503 -0.00000000000E+00 -0.00000000000E+00 -0.47139275483E+02  0.47139275483E+02  0.00000000000E+00 0.  1.
          6    1    1    2  501    0 -0.78344669226E+01 -0.11083861965E+03  0.26701357012E+03  0.33700419153E+03  0.17300000000E+03 0.  1.
         -6    1    1    2    0  503  0.78344669226E+01  0.11083861965E+03  0.85815620585E+03  0.88244413541E+03  0.17300000000E+03 0. -1.
<mgrwt>
<rscale>  2 0.20561026E+03</rscale>
<asrwt>0</asrwt>
<pdfrwt beam="1">  1       21 0.18035522E+00 0.20561026E+03</pdfrwt>
<pdfrwt beam="2">  1       21 0.72521971E-02 0.20561026E+03</pdfrwt>
<totfact> 0.25517712E+04</totfact>
</mgrwt>
</event>
<event>
 4    1  0.4429256E+000  0.2469466E+03  0.7546771E-02  0.1115250E+00
         21   -1    0    0  503  502  0.00000000000E+00  0.00000000000E+00  0.37702299183E+03  0.37702299183E+03  0.00000000000E+00 0.  1.
         21   -1    0    0  501  503 -0.00000000000E+00 -0.00000000000E+00 -0.16190556548E+03  0.16190556548E+03  0.00000000000E+00 0. -1.
          6    1    1    2  501    0 -0.17613651726E+03 -0.54374252736E+01  0.11597035134E+03  0.27282184791E+03  0.17300000000E+03 0.  1.
         -6    1    1    2    0  502  0.17613651726E+03  0.54374252736E+01  0.99147075017E+02  0.26610670940E+03  0.17300000000E+03 0. -1.
<mgrwt>
<rscale>  2 0.24694663E+03</rscale>
<asrwt>0</asrwt>
<pdfrwt beam="1">  1       21 0.58003537E-01 0.24694663E+03</pdfrwt>
<pdfrwt beam="2">  1       21 0.24908549E-01 0.24694663E+03</pdfrwt>
<totfact> 0.41423466E+04</totfact>
</mgrwt>
</event>
<event>
 4    1  0.4429256E+000  0.2185965E+03  0.7546771E-02  0.1134934E+00
         21   -1    0    0  501  502  0.00000000000E+00  0.00000000000E+00  0.94779390233E+02  0.94779390233E+02  0.00000000000E+00 0.  1.
         21   -1    0    0  502  503 -0.00000000000E+00 -0.00000000000E+00 -0.56305204347E+03  0.56305204347E+03  0.00000000000E+00 0.  1.
          6    1    1    2  501    0 -0.12493157729E+03  0.47407959559E+02 -0.12776570520E+03  0.25319654235E+03  0.17300000000E+03 0. -1.
         -6    1    1    2    0  503  0.12493157729E+03 -0.47407959559E+02 -0.34050694804E+03  0.40463489135E+03  0.17300000000E+03 0. -1.
<mgrwt>
<rscale>  2 0.21859646E+03</rscale>
<asrwt>0</asrwt>
<pdfrwt beam="1">  1       21 0.14581445E-01 0.21859646E+03</pdfrwt>
<pdfrwt beam="2">  1       21 0.86623391E-01 0.21859646E+03</pdfrwt>
<totfact> 0.46779922E+04</totfact>
</mgrwt>
</event>
<event>
 4    1  0.4429256E+000  0.2222671E+03  0.7546771E-02  0.1132204E+00
         21   -1    0    0  501  502  0.00000000000E+00  0.00000000000E+00  0.70598500581E+03  0.70598500581E+03  0.00000000000E+00 0. -1.
         21   -1    0    0  502  503 -0.00000000000E+00 -0.00000000000E+00 -0.72052241993E+02  0.72052241993E+02  0.00000000000E+00 0. -1.
          6    1    1    2  501    0  0.11603233518E+03 -0.77525286990E+02  0.38298811482E+03  0.44281211481E+03  0.17300000000E+03 0.  1.
         -6    1    1    2    0  503 -0.11603233518E+03  0.77525286990E+02  0.25094464900E+03  0.33522513299E+03  0.17300000000E+03 0.  1.
<mgrwt>
<rscale>  2 0.22226712E+03</rscale>
<asrwt>0</asrwt>
<pdfrwt beam="1">  1       21 0.10861307E+00 0.22226712E+03</pdfrwt>
<pdfrwt beam="2">  1       21 0.11084961E-01 0.22226712E+03</pdfrwt>
<totfact> 0.44836486E+04</totfact>
</mgrwt>
</event>
<event>
 4    1  0.4429256E+000  0.2069378E+03  0.7546771E-02  0.1144014E+00
         21   -1    0    0  501  502  0.00000000000E+00  0.00000000000E+00  0.23139580342E+03  0.23139580342E+03  0.00000000000E+00 0. -1.
         21   -1    0    0  502  503 -0.00000000000E+00 -0.00000000000E+00 -0.24206459628E+03  0.24206459628E+03  0.00000000000E+00 0.  1.
          6    1    1    2  501    0 -0.44281159984E+02  0.10456306738E+03  0.10954021395E+03  0.23414165512E+03  0.17300000000E+03 0. -1.
         -6    1    1    2    0  503  0.44281159984E+02 -0.10456306738E+03 -0.12020900681E+03  0.23931874458E+03  0.17300000000E+03 0.  1.
<mgrwt>
<rscale>  2 0.20693781E+03</rscale>
<asrwt>0</asrwt>
<pdfrwt beam="1">  1       21 0.35599354E-01 0.20693781E+03</pdfrwt>
<pdfrwt beam="2">  1       21 0.37240707E-01 0.20693781E+03</pdfrwt>
<totfact> 0.52548464E+04</totfact>
</mgrwt>
</event>
<event>
 4    1  0.4429256E+000  0.2925286E+03  0.7546771E-02  0.1089036E+00
         21   -1    0    0  503  502  0.00000000000E+00  0.00000000000E+00  0.31742532969E+02  0.31742532969E+02  0.00000000000E+00 0.  1.
         21   -1    0    0  501  503 -0.00000000000E+00 -0.00000000000E+00 -0.35706292234E+04  0.35706292234E+04  0.00000000000E+00 0.  1.
          6    1    1    2  501    0  0.16700705404E+02  0.23529786269E+03 -0.26609739244E+04  0.26770048980E+04  0.17300000000E+03 0.  1.
         -6    1    1    2    0  502 -0.16700705404E+02 -0.23529786269E+03 -0.87791276601E+03  0.92536685832E+03  0.17300000000E+03 0.  1.
<mgrwt>
<rscale>  2 0.29252863E+03</rscale>
<asrwt>0</asrwt>
<pdfrwt beam="1">  1       21 0.48834627E-02 0.29252863E+03</pdfrwt>
<pdfrwt beam="2">  1       21 0.54932801E+00 0.29252863E+03</pdfrwt>
<totfact> 0.20279740E+02</totfact>
</mgrwt>
</event>
<event>
 4    1  0.4429256E+000  0.2196225E+03  0.7546771E-02  0.1134165E+00
         21   -1    0    0  501  502  0.00000000000E+00  0.00000000000E+00  0.91682394249E+03  0.91682394249E+03  0.00000000000E+00 0.  1.
         21   -1    0    0  502  503 -0.00000000000E+00 -0.00000000000E+00 -0.81278787882E+02  0.81278787882E+02  0.00000000000E+00 0.  1.
          6    1    1    2  501    0 -0.10775673644E+03  0.81814109387E+02  0.71416130004E+03  0.74716827102E+03  0.17300000000E+03 0.  1.
         -6    1    1    2    0  503  0.10775673644E+03 -0.81814109387E+02  0.12138385458E+03  0.25093445936E+03  0.17300000000E+03 0.  1.
<mgrwt>
<rscale>  2 0.21962255E+03</rscale>
<asrwt>0</asrwt>
<pdfrwt beam="1">  1       21 0.14104983E+00 0.21962255E+03</pdfrwt>
<pdfrwt beam="2">  1       21 0.12504430E-01 0.21962255E+03</pdfrwt>
<totfact> 0.18799506E+04</totfact>
</mgrwt>
</event>
<event>
 4    1  0.4429256E+000  0.1753344E+03  0.7546771E-02  0.1172396E+00
         21   -1    0    0  503  502  0.00000000000E+00  0.00000000000E+00  0.90626722681E+02  0.90626722681E+02  0.00000000000E+00 0. -1.
         21   -1    0    0  501  503 -0.00000000000E+00 -0.00000000000E+00 -0.44130488229E+03  0.44130488229E+03  0.00000000000E+00 0. -1.
          6    1    1    2  501    0 -0.23548568859E+02 -0.16081260598E+02 -0.30326045819E+03  0.35029851205E+03  0.17300000000E+03 0. -1.
         -6    1    1    2    0  502  0.23548568859E+02  0.16081260598E+02 -0.47417701413E+02  0.18163309292E+03  0.17300000000E+03 0. -1.
<mgrwt>
<rscale>  2 0.17533437E+03</rscale>
<asrwt>0</asrwt>
<pdfrwt beam="1">  1       21 0.13942573E-01 0.17533437E+03</pdfrwt>
<pdfrwt beam="2">  1       21 0.67893058E-01 0.17533437E+03</pdfrwt>
<totfact> 0.89398020E+04</totfact>
</mgrwt>
</event>
<event>
 4    1  0.4429256E+000  0.2181491E+03  0.7546771E-02  0.1135271E+00
         21   -1    0    0  501  502  0.00000000000E+00  0.00000000000E+00  0.58426486513E+03  0.58426486513E+03  0.00000000000E+00 0.  1.
         21   -1    0    0  502  503 -0.00000000000E+00 -0.00000000000E+00 -0.13009602733E+03  0.13009602733E+03  0.00000000000E+00 0. -1.
          6    1    1    2  501    0 -0.87700748603E+02 -0.99842910761E+02  0.44549533701E+03  0.49603943737E+03  0.17300000000E+03 0.  1.
         -6    1    1    2    0  503  0.87700748603E+02  0.99842910761E+02  0.86735007892E+01  0.21832145509E+03  0.17300000000E+03 0. -1.
<mgrwt>
<rscale>  2 0.21814910E+03</rscale>
<asrwt>0</asrwt>
<pdfrwt beam="1">  1       21 0.89886901E-01 0.21814910E+03</pdfrwt>
<pdfrwt beam="2">  1       21 0.20014774E-01 0.21814910E+03</pdfrwt>
<totfact> 0.23933021E+04</totfact>
</mgrwt>
</event>
<event>
 4    1  0.4429256E+000  0.1746933E+03  0.7546771E-02  0.1173040E+00
         21   -1    0    0  503  502  0.00000000000E+00  0.00000000000E+00  0.83607033247E+03  0.83607033247E+03  0.00000000000E+00 0. -1.
         21   -1    0    0  501  503 -0.00000000000E+00 -0.00000000000E+00 -0.36502391198E+02  0.36502391198E+02  0.00000000000E+00 0. -1.
          6    1    1    2  501    0  0.24251637511E+02 -0.78744311133E+00  0.39754414777E+03  0.43423393628E+03  0.17300000000E+03 0. -1.
         -6    1    1    2    0  502 -0.24251637511E+02  0.78744311133E+00  0.40202379350E+03  0.43833878739E+03  0.17300000000E+03 0. -1.
<mgrwt>
<rscale>  2 0.17469334E+03</rscale>
<asrwt>0</asrwt>
<pdfrwt beam="1">  1       21 0.12862619E+00 0.17469334E+03</pdfrwt>
<pdfrwt beam="2">  1       21 0.56157531E-02 0.17469334E+03</pdfrwt>
<totfact> 0.98820652E+04</totfact>
</mgrwt>
</event>
<event>
 4    1  0.4429256E+000  0.1775001E+03  0.7546771E-02  0.1170245E+00
         21   -1    0    0  501  502  0.00000000000E+00  0.00000000000E+00  0.16718964613E+03  0.16718964613E+03  0.00000000000E+00 0. -1.
         21   -1    0    0  502  503 -0.00000000000E+00 -0.00000000000E+00 -0.18857473067E+03  0.18857473067E+03  0.00000000000E+00 0. -1.
          6    1    1    2  501    0  0.10221161793E+02  0.38377343030E+02 -0.60527504681E+01  0.17760328937E+03  0.17300000000E+03 0. -1.
         -6    1    1    2    0  503 -0.10221161793E+02 -0.38377343030E+02 -0.15332334077E+02  0.17816108743E+03  0.17300000000E+03 0. -1.
<mgrwt>
<rscale>  2 0.17750012E+03</rscale>
<asrwt>0</asrwt>
<pdfrwt beam="1">  1       21 0.25721484E-01 0.17750012E+03</pdfrwt>
<pdfrwt beam="2">  1       21 0.29011497E-01 0.17750012E+03</pdfrwt>
<totfact> 0.16392404E+05</totfact>
</mgrwt>
</event>
<event>
 4    1  0.4429256E+000  0.2504661E+03  0.7546771E-02  0.1113011E+00
         21   -1    0    0  503  502  0.00000000000E+00  0.00000000000E+00  0.10890318589E+04  0.10890318589E+04  0.00000000000E+00 0. -1.
         21   -1    0    0  501  503 -0.00000000000E+00 -0.00000000000E+00 -0.82807987842E+02  0.82807987842E+02  0.00000000000E+00 0.  1.
          6    1    1    2  501    0 -0.18080218233E+03 -0.10715108093E+02  0.17986707642E+03  0.30835921886E+03  0.17300000000E+03 0.  1.
         -6    1    1    2    0  502  0.18080218233E+03  0.10715108093E+02  0.82635679462E+03  0.86348062786E+03  0.17300000000E+03 0. -1.
<mgrwt>
<rscale>  2 0.25046605E+03</rscale>
<asrwt>0</asrwt>
<pdfrwt beam="1">  1       21 0.16754335E+00 0.25046605E+03</pdfrwt>
<pdfrwt beam="2">  1       21 0.12739691E-01 0.25046605E+03</pdfrwt>
<totfact> 0.11246698E+04</totfact>
</mgrwt>
</event>
<event>
 4    1  0.4429256E+000  0.4690437E+03  0.7546771E-02  0.1022190E+00
         21   -1    0    0  501  502  0.00000000000E+00  0.00000000000E+00  0.64541155393E+03  0.64541155393E+03  0.00000000000E+00 0. -1.
         21   -1    0    0  502  503 -0.00000000000E+00 -0.00000000000E+00 -0.34420981067E+03  0.34420981067E+03  0.00000000000E+00 0.  1.
          6    1    1    2  501    0  0.11023027288E+03 -0.42180829436E+03  0.10186636243E+03  0.47997781829E+03  0.17300000000E+03 0.  1.
         -6    1    1    2    0  503 -0.11023027288E+03  0.42180829436E+03  0.19933538083E+03  0.50964354631E+03  0.17300000000E+03 0. -1.
<mgrwt>
<rscale>  2 0.46904365E+03</rscale>
<asrwt>0</asrwt>
<pdfrwt beam="1">  1       21 0.99294085E-01 0.46904365E+03</pdfrwt>
<pdfrwt beam="2">  1       21 0.52955355E-01 0.46904365E+03</pdfrwt>
<totfact> 0.24259857E+03</totfact>
</mgrwt>
</event>
<event>
 4    1  0.4429256E+000  0.1741063E+03  0.7546771E-02  0.1173632E+00
         21   -1    0    0  503  502  0.00000000000E+00  0.00000000000E+00  0.36364324329E+03  0.36364324329E+03  0.00000000000E+00 0.  1.
         21   -1    0    0  501  503 -0.00000000000E+00 -0.00000000000E+00 -0.99524177721E+02  0.99524177721E+02  0.00000000000E+00 0.  1.
          6    1    1    2  501    0  0.17759256096E+02 -0.82830542895E+01  0.38727307254E+02  0.17836144340E+03  0.17300000000E+03 0.  1.
         -6    1    1    2    0  502 -0.17759256096E+02  0.82830542895E+01  0.22539175832E+03  0.28480597761E+03  0.17300000000E+03 0.  1.
<mgrwt>
<rscale>  2 0.17410629E+03</rscale>
<asrwt>0</asrwt>
<pdfrwt beam="1">  1       21 0.55945114E-01 0.17410629E+03</pdfrwt>
<pdfrwt beam="2">  1       21 0.15311412E-01 0.17410629E+03</pdfrwt>
<totfact> 0.11446238E+05</totfact>
</mgrwt>
</event>
<event>
 4    1  0.4429256E+000  0.1990348E+03  0.7546771E-02  0.1150556E+00
         21   -1    0    0  503  502  0.00000000000E+00  0.00000000000E+00  0.91626731195E+02  0.91626731195E+02  0.00000000000E+00 0.  1.
         21   -1    0    0  501  503 -0.00000000000E+00 -0.00000000000E+00 -0.43319548584E+03  0.43319548584E+03  0.00000000000E+00 0.  1.
          6    1    1    2  501    0  0.51386697207E+02  0.83935967414E+02 -0.18237566346E+03  0.26995503681E+03  0.17300000000E+03 0.  1.
         -6    1    1    2    0  502 -0.51386697207E+02 -0.83935967414E+02 -0.15919309118E+03  0.25486718022E+03  0.17300000000E+03 0.  1.
<mgrwt>
<rscale>  2 0.19903477E+03</rscale>
<asrwt>0</asrwt>
<pdfrwt beam="1">  1       21 0.14096420E-01 0.19903477E+03</pdfrwt>
<pdfrwt beam="2">  1       21 0.66645459E-01 0.19903477E+03</pdfrwt>
<totfact> 0.90388592E+04</totfact>
</mgrwt>
</event>
<event>
 4    1  0.4429256E+000  0.3261999E+03  0.7546771E-02  0.1072831E+00
         21   -1    0    0  501  502  0.00000000000E+00  0.00000000000E+00  0.14085735684E+03  0.14085735684E+03  0.00000000000E+00 0. -1.
         21   -1    0    0  502  503 -0.00000000000E+00 -0.00000000000E+00 -0.76239418701E+03  0.76239418701E+03  0.00000000000E+00 0.  1.
          6    1    1    2  501    0  0.16192138819E+03 -0.22418476250E+03 -0.26757053591E+03  0.42190085966E+03  0.17300000000E+03 0. -1.
         -6    1    1    2    0  503 -0.16192138819E+03  0.22418476250E+03 -0.35396629426E+03  0.48135068419E+03  0.17300000000E+03 0.  1.
<mgrwt>
<rscale>  2 0.32619985E+03</rscale>
<asrwt>0</asrwt>
<pdfrwt beam="1">  1       21 0.21670363E-01 0.32619985E+03</pdfrwt>
<pdfrwt beam="2">  1       21 0.11729141E+00 0.32619985E+03</pdfrwt>
<totfact> 0.10299894E+04</totfact>
</mgrwt>
</event>
<event>
 4    1  0.4429256E+000  0.1756232E+03  0.7546771E-02  0.1172107E+00
         21   -1    0    0  501  502  0.00000000000E+00  0.00000000000E+00  0.25242991179E+04  0.25242991179E+04  0.00000000000E+00 0.  1.
         21   -1    0    0  502  503 -0.00000000000E+00 -0.00000000000E+00 -0.40319682960E+02  0.40319682960E+02  0.00000000000E+00 0.  1.
          6    1    1    2  501    0 -0.30235547170E+02 -0.56226932870E+00  0.23125114400E+04  0.23191706846E+04  0.17300000000E+03 0.  1.
         -6    1    1    2    0  503  0.30235547170E+02  0.56226932870E+00  0.17146799496E+03  0.24544811622E+03  0.17300000000E+03 0.  1.
<mgrwt>
<rscale>  2 0.17562319E+03</rscale>
<asrwt>0</asrwt>
<pdfrwt beam="1">  1       21 0.38835359E+00 0.17562319E+03</pdfrwt>
<pdfrwt beam="2">  1       21 0.62030301E-02 0.17562319E+03</pdfrwt>
<totfact> 0.19656606E+03</totfact>
</mgrwt>
</event>
<event>
 4    1  0.4429256E+000  0.2887926E+03  0.7546771E-02  0.1090981E+00
         21   -1    0    0  503  502  0.00000000000E+00  0.00000000000E+00  0.16307692430E+04  0.16307692430E+04  0.00000000000E+00 0.  1.
         21   -1    0    0  501  503 -0.00000000000E+00 -0.00000000000E+00 -0.52333041826E+02  0.52333041826E+02  0.00000000000E+00 0.  1.
          6    1    1    2  501    0 -0.19610328268E+03  0.12253849164E+03  0.66227366191E+03  0.72250092226E+03  0.17300000000E+03 0.  1.
         -6    1    1    2    0  502  0.19610328268E+03 -0.12253849164E+03  0.91616253930E+03  0.96060136260E+03  0.17300000000E+03 0.  1.
<mgrwt>
<rscale>  2 0.28879262E+03</rscale>
<asrwt>0</asrwt>
<pdfrwt beam="1">  1       21 0.25088754E+00 0.28879262E+03</pdfrwt>
<pdfrwt beam="2">  1       21 0.80512384E-02 0.28879262E+03</pdfrwt>
<totfact> 0.72077337E+03</totfact>
</mgrwt>
</event>
<event>
 4    1  0.4429256E+000  0.2202571E+03  0.7546771E-02  0.1133692E+00
         21   -1    0    0  501  502  0.00000000000E+00  0.00000000000E+00  0.10924943567E+03  0.10924943567E+03  0.00000000000E+00 0. -1.
         21   -1    0    0  502  503 -0.00000000000E+00 -0.00000000000E+00 -0.44506098615E+03  0.44506098615E+03  0.00000000000E+00 0. -1.
          6    1    1    2  501    0  0.10378324574E+03 -0.88392385592E+02 -0.18105748715E+03  0.28512276230E+03  0.17300000000E+03 0. -1.
         -6    1    1    2    0  503 -0.10378324574E+03  0.88392385592E+02 -0.15475406332E+03  0.26918765953E+03  0.17300000000E+03 0. -1.
<mgrwt>
<rscale>  2 0.22025707E+03</rscale>
<asrwt>0</asrwt>
<pdfrwt beam="1">  1       21 0.16807606E-01 0.22025707E+03</pdfrwt>
<pdfrwt beam="2">  1       21 0.68470920E-01 0.22025707E+03</pdfrwt>
<totfact> 0.61191172E+04</totfact>
</mgrwt>
</event>
<event>
 4    1  0.4429256E+000  0.2195887E+03  0.7546771E-02  0.1134190E+00
         21   -1    0    0  501  502  0.00000000000E+00  0.00000000000E+00  0.90336064382E+03  0.90336064382E+03  0.00000000000E+00 0. -1.
         21   -1    0    0  502  503 -0.00000000000E+00 -0.00000000000E+00 -0.69448619005E+02  0.69448619005E+02  0.00000000000E+00 0. -1.
          6    1    1    2  501    0  0.13516642540E+03 -0.44960350891E+01  0.18297086377E+03  0.28582776960E+03  0.17300000000E+03 0. -1.
         -6    1    1    2    0  503 -0.13516642540E+03  0.44960350891E+01  0.65094116104E+03  0.68698149322E+03  0.17300000000E+03 0. -1.
<mgrwt>
<rscale>  2 0.21958865E+03</rscale>
<asrwt>0</asrwt>
<pdfrwt beam="1">  1       21 0.13897855E+00 0.21958865E+03</pdfrwt>
<pdfrwt beam="2">  1       21 0.10684404E-01 0.21958865E+03</pdfrwt>
<totfact> 0.25888289E+04</totfact>
</mgrwt>
</event>
<event>
 4    1  0.4429256E+000  0.2192148E+03  0.7546771E-02  0.1134470E+00
         21   -1    0    0  501  502  0.00000000000E+00  0.00000000000E+00  0.24824207044E+03  0.24824207044E+03  0.00000000000E+00 0.  1.
         21   -1    0    0  502  503 -0.00000000000E+00 -0.00000000000E+00 -0.28990323132E+03  0.28990323132E+03  0.00000000000E+00 0. -1.
          6    1    1    2  501    0 -0.13450942552E+03 -0.57742940555E+01  0.13426687183E+03  0.25706559648E+03  0.17300000000E+03 0.  1.
         -6    1    1    2    0  503  0.13450942552E+03  0.57742940555E+01 -0.17592803271E+03  0.28107970528E+03  0.17300000000E+03 0. -1.
<mgrwt>
<rscale>  2 0.21921480E+03</rscale>
<asrwt>0</asrwt>
<pdfrwt beam="1">  1       21 0.38191088E-01 0.21921480E+03</pdfrwt>
<pdfrwt beam="2">  1       21 0.44600497E-01 0.21921480E+03</pdfrwt>
<totfact> 0.31464220E+04</totfact>
</mgrwt>
</event>
<event>
 4    1  0.4429256E+000  0.1776241E+03  0.7546771E-02  0.1170122E+00
         21   -1    0    0  501  502  0.00000000000E+00  0.00000000000E+00  0.20612884119E+04  0.20612884119E+04  0.00000000000E+00 0. -1.
         21   -1    0    0  502  503 -0.00000000000E+00 -0.00000000000E+00 -0.19821326597E+02  0.19821326597E+02  0.00000000000E+00 0. -1.
          6    1    1    2  501    0 -0.39056187087E+02 -0.97942784971E+01  0.15173690544E+04  0.15277300681E+04  0.17300000000E+03 0. -1.
         -6    1    1    2    0  503  0.39056187087E+02  0.97942784971E+01  0.52409803087E+03  0.55337967039E+03  0.17300000000E+03 0. -1.
<mgrwt>
<rscale>  2 0.17762408E+03</rscale>
<asrwt>0</asrwt>
<pdfrwt beam="1">  1       21 0.31712113E+00 0.17762408E+03</pdfrwt>
<pdfrwt beam="2">  1       21 0.30494365E-02 0.17762408E+03</pdfrwt>
<totfact> 0.17027366E+04</totfact>
</mgrwt>
</event>
<event>
 4    1  0.4429256E+000  0.1940828E+03  0.7546771E-02  0.1154830E+00
         21   -1    0    0  501  502  0.00000000000E+00  0.00000000000E+00  0.47347519387E+03  0.47347519387E+03  0.00000000000E+00 0. -1.
         21   -1    0    0  502  503 -0.00000000000E+00 -0.00000000000E+00 -0.79610535633E+02  0.79610535633E+02  0.00000000000E+00 0. -1.
          6    1    1    2  501    0  0.52128174112E+02  0.70864631071E+02  0.18974356401E+03  0.27142358511E+03  0.17300000000E+03 0. -1.
         -6    1    1    2    0  503 -0.52128174112E+02 -0.70864631071E+02  0.20412109423E+03  0.28166214439E+03  0.17300000000E+03 0. -1.
<mgrwt>
<rscale>  2 0.19408282E+03</rscale>
<asrwt>0</asrwt>
<pdfrwt beam="1">  1       21 0.72842336E-01 0.19408282E+03</pdfrwt>
<pdfrwt beam="2">  1       21 0.12247775E-01 0.19408282E+03</pdfrwt>
<totfact> 0.95936512E+04</totfact>
</mgrwt>
</event>
<event>
 4    1  0.4429256E+000  0.3292894E+03  0.7546771E-02  0.1071452E+00
         21   -1    0    0  503  502  0.00000000000E+00  0.00000000000E+00  0.24227944059E+03  0.24227944059E+03  0.00000000000E+00 0.  1.
         21   -1    0    0  501  503 -0.00000000000E+00 -0.00000000000E+00 -0.44976422908E+03  0.44976422908E+03  0.00000000000E+00 0. -1.
          6    1    1    2  501    0  0.55344288770E+02 -0.27466255011E+03 -0.12803578087E+03  0.35330534657E+03  0.17300000000E+03 0. -1.
         -6    1    1    2    0  502 -0.55344288770E+02  0.27466255011E+03 -0.79449007615E+02  0.33873832311E+03  0.17300000000E+03 0.  1.
<mgrwt>
<rscale>  2 0.32928940E+03</rscale>
<asrwt>0</asrwt>
<pdfrwt beam="1">  1       21 0.37273760E-01 0.32928940E+03</pdfrwt>
<pdfrwt beam="2">  1       21 0.69194496E-01 0.32928940E+03</pdfrwt>
<totfact> 0.12297865E+04</totfact>
</mgrwt>
</event>
<event>
 4    1  0.4429256E+000  0.1767804E+03  0.7546771E-02  0.1170956E+00
         21   -1    0    0  501  502  0.00000000000E+00  0.00000000000E+00  0.11272843029E+03  0.11272843029E+03  0.00000000000E+00 0. -1.
         21   -1    0    0  502  503 -0.00000000000E+00 -0.00000000000E+00 -0.37163424125E+03  0.37163424125E+03  0.00000000000E+00 0. -1.
          6    1    1    2  501    0 -0.51790024129E+01  0.35993034739E+02 -0.73892535513E+01  0.17693479501E+03  0.17300000000E+03 0. -1.
         -6    1    1    2    0  503  0.51790024129E+01 -0.35993034739E+02 -0.25151655741E+03  0.30742787653E+03  0.17300000000E+03 0. -1.
<mgrwt>
<rscale>  2 0.17678043E+03</rscale>
<asrwt>0</asrwt>
<pdfrwt beam="1">  1       21 0.17342836E-01 0.17678043E+03</pdfrwt>
<pdfrwt beam="2">  1       21 0.57174498E-01 0.17678043E+03</pdfrwt>
<totfact> 0.86941079E+04</totfact>
</mgrwt>
</event>
<event>
 4    1  0.4429256E+000  0.3131571E+03  0.7546771E-02  0.1078842E+00
         21   -1    0    0  501  502  0.00000000000E+00  0.00000000000E+00  0.53559836304E+03  0.53559836304E+03  0.00000000000E+00 0. -1.
         21   -1    0    0  502  503 -0.00000000000E+00 -0.00000000000E+00 -0.21910475559E+03  0.21910475559E+03  0.00000000000E+00 0. -1.
          6    1    1    2  501    0 -0.99112656624E+02  0.24148512788E+03  0.31121733553E+03  0.44150154657E+03  0.17300000000E+03 0. -1.
         -6    1    1    2    0  503  0.99112656624E+02 -0.24148512788E+03  0.52762719263E+01  0.31320157205E+03  0.17300000000E+03 0. -1.
<mgrwt>
<rscale>  2 0.31315713E+03</rscale>
<asrwt>0</asrwt>
<pdfrwt beam="1">  1       21 0.82399748E-01 0.31315713E+03</pdfrwt>
<pdfrwt beam="2">  1       21 0.33708424E-01 0.31315713E+03</pdfrwt>
<totfact> 0.10202923E+04</totfact>
</mgrwt>
</event>
<event>
 4    1  0.4429256E+000  0.2219065E+03  0.7546771E-02  0.1132470E+00
         21   -1    0    0  503  502  0.00000000000E+00  0.00000000000E+00  0.34281083668E+03  0.34281083668E+03  0.00000000000E+00 0. -1.
         21   -1    0    0  501  503 -0.00000000000E+00 -0.00000000000E+00 -0.16792663292E+03  0.16792663292E+03  0.00000000000E+00 0. -1.
          6    1    1    2  501    0 -0.12719957281E+03 -0.55979939777E+02 -0.96674495799E+01  0.22211696145E+03  0.17300000000E+03 0. -1.
         -6    1    1    2    0  502  0.12719957281E+03  0.55979939777E+02  0.18455165333E+03  0.28862050816E+03  0.17300000000E+03 0. -1.
<mgrwt>
<rscale>  2 0.22190648E+03</rscale>
<asrwt>0</asrwt>
<pdfrwt beam="1">  1       21 0.52740128E-01 0.22190648E+03</pdfrwt>
<pdfrwt beam="2">  1       21 0.25834867E-01 0.22190648E+03</pdfrwt>
<totfact> 0.47799628E+04</totfact>
</mgrwt>
</event>
<event>
 4    1  0.4429256E+000  0.1780143E+03  0.7546771E-02  0.1169739E+00
         21   -1    0    0  503  502  0.00000000000E+00  0.00000000000E+00  0.50807630952E+03  0.50807630952E+03  0.00000000000E+00 0.  1.
         21   -1    0    0  501  503 -0.00000000000E+00 -0.00000000000E+00 -0.83347538955E+02  0.83347538955E+02  0.00000000000E+00 0.  1.
          6    1    1    2  501    0  0.38251443906E+02 -0.17231549550E+02  0.64012873547E+02  0.18917385454E+03  0.17300000000E+03 0.  1.
         -6    1    1    2    0  502 -0.38251443906E+02  0.17231549550E+02  0.36071589701E+03  0.40224999393E+03  0.17300000000E+03 0.  1.
<mgrwt>
<rscale>  2 0.17801432E+03</rscale>
<asrwt>0</asrwt>
<pdfrwt beam="1">  1       21 0.78165585E-01 0.17801432E+03</pdfrwt>
<pdfrwt beam="2">  1       21 0.12822699E-01 0.17801432E+03</pdfrwt>
<totfact> 0.75984601E+04</totfact>
</mgrwt>
</event>
<event>
 4    1  0.4429256E+000  0.2026207E+03  0.7546771E-02  0.1147547E+00
         21   -1    0    0  501  502  0.00000000000E+00  0.00000000000E+00  0.68079995660E+02  0.68079995660E+02  0.00000000000E+00 0.  1.
         21   -1    0    0  502  503 -0.00000000000E+00 -0.00000000000E+00 -0.77521553917E+03  0.77521553917E+03  0.00000000000E+00 0.  1.
          6    1    1    2  501    0 -0.81780312213E+02 -0.66619328779E+02 -0.15485732259E+03  0.25502145947E+03  0.17300000000E+03 0.  1.
         -6    1    1    2    0  503  0.81780312213E+02  0.66619328779E+02 -0.55227822093E+03  0.58827407536E+03  0.17300000000E+03 0.  1.
<mgrwt>
<rscale>  2 0.20262072E+03</rscale>
<asrwt>0</asrwt>
<pdfrwt beam="1">  1       21 0.10473845E-01 0.20262072E+03</pdfrwt>
<pdfrwt beam="2">  1       21 0.11926393E+00 0.20262072E+03</pdfrwt>
<totfact> 0.39867101E+04</totfact>
</mgrwt>
</event>
<event>
 4    1  0.4429256E+000  0.1733397E+03  0.7546771E-02  0.1174409E+00
         21   -1    0    0  501  502  0.00000000000E+00  0.00000000000E+00  0.55745374299E+02  0.55745374299E+02  0.00000000000E+00 0. -1.
         21   -1    0    0  502  503 -0.00000000000E+00 -0.00000000000E+00 -0.55199744958E+03  0.55199744958E+03  0.00000000000E+00 0. -1.
          6    1    1    2  501    0 -0.94929452016E+01 -0.52488078721E+01 -0.29475734338E+03  0.34194817951E+03  0.17300000000E+03 0. -1.
         -6    1    1    2    0  503  0.94929452016E+01  0.52488078721E+01 -0.20149473190E+03  0.26579464437E+03  0.17300000000E+03 0. -1.
<mgrwt>
<rscale>  2 0.17333974E+03</rscale>
<asrwt>0</asrwt>
<pdfrwt beam="1">  1       21 0.85762116E-02 0.17333974E+03</pdfrwt>
<pdfrwt beam="2">  1       21 0.84922683E-01 0.17333974E+03</pdfrwt>
<totfact> 0.12854597E+05</totfact>
</mgrwt>
</event>
<event>
 4    1  0.4429256E+000  0.2532313E+03  0.7546771E-02  0.1111280E+00
         21   -1    0    0  503  502  0.00000000000E+00  0.00000000000E+00  0.79935864325E+03  0.79935864325E+03  0.00000000000E+00 0.  1.
         21   -1    0    0  501  503 -0.00000000000E+00 -0.00000000000E+00 -0.10352146152E+03  0.10352146152E+03  0.00000000000E+00 0.  1.
          6    1    1    2  501    0 -0.18137881559E+03 -0.36039278565E+02  0.13374873035E+03  0.28638230954E+03  0.17300000000E+03 0.  1.
         -6    1    1    2    0  502  0.18137881559E+03  0.36039278565E+02  0.56208845138E+03  0.61649779523E+03  0.17300000000E+03 0.  1.
<mgrwt>
<rscale>  2 0.25323133E+03</rscale>
<asrwt>0</asrwt>
<pdfrwt beam="1">  1       21 0.12297825E+00 0.25323133E+03</pdfrwt>
<pdfrwt beam="2">  1       21 0.15926379E-01 0.25323133E+03</pdfrwt>
<totfact> 0.16852258E+04</totfact>
</mgrwt>
</event>
<event>
 4    1  0.4429256E+000  0.3035686E+03  0.7546771E-02  0.1083470E+00
         21   -1    0    0  501  502  0.00000000000E+00  0.00000000000E+00  0.23996809966E+03  0.23996809966E+03  0.00000000000E+00 0.  1.
         21   -1    0    0  502  503 -0.00000000000E+00 -0.00000000000E+00 -0.49452488346E+03  0.49452488346E+03  0.00000000000E+00 0. -1.
          6    1    1    2  501    0  0.13772115689E+02 -0.24906877090E+03  0.46318946868E+02  0.30708202267E+03  0.17300000000E+03 0.  1.
         -6    1    1    2    0  503 -0.13772115689E+02  0.24906877090E+03 -0.30087573067E+03  0.42741096045E+03  0.17300000000E+03 0. -1.
<mgrwt>
<rscale>  2 0.30356865E+03</rscale>
<asrwt>0</asrwt>
<pdfrwt beam="1">  1       21 0.36918169E-01 0.30356865E+03</pdfrwt>
<pdfrwt beam="2">  1       21 0.76080751E-01 0.30356865E+03</pdfrwt>
<totfact> 0.10240981E+04</totfact>
</mgrwt>
</event>
<event>
 4    1  0.4429256E+000  0.2489075E+03  0.7546771E-02  0.1113997E+00
         21   -1    0    0  501  502  0.00000000000E+00  0.00000000000E+00  0.48460981553E+03  0.48460981553E+03  0.00000000000E+00 0.  1.
         21   -1    0    0  502  503 -0.00000000000E+00 -0.00000000000E+00 -0.15805398840E+03  0.15805398840E+03  0.00000000000E+00 0.  1.
          6    1    1    2  501    0  0.17781487373E+03  0.20195005382E+02  0.30375931302E+03  0.39271451184E+03  0.17300000000E+03 0.  1.
         -6    1    1    2    0  503 -0.17781487373E+03 -0.20195005382E+02  0.22796514110E+02  0.24994929209E+03  0.17300000000E+03 0.  1.
<mgrwt>
<rscale>  2 0.24890755E+03</rscale>
<asrwt>0</asrwt>
<pdfrwt beam="1">  1       21 0.74555355E-01 0.24890755E+03</pdfrwt>
<pdfrwt beam="2">  1       21 0.24315999E-01 0.24890755E+03</pdfrwt>
<totfact> 0.24976507E+04</totfact>
</mgrwt>
</event>
<event>
 4    1  0.4429256E+000  0.1779207E+03  0.7546771E-02  0.1169831E+00
         21   -1    0    0  503  502  0.00000000000E+00  0.00000000000E+00  0.24464005746E+03  0.24464005746E+03  0.00000000000E+00 0. -1.
         21   -1    0    0  501  503 -0.00000000000E+00 -0.00000000000E+00 -0.13220524516E+03  0.13220524516E+03  0.00000000000E+00 0. -1.
          6    1    1    2  501    0  0.40771317300E+02  0.80293848764E+01  0.28757413641E+02  0.18022974276E+03  0.17300000000E+03 0. -1.
         -6    1    1    2    0  502 -0.40771317300E+02 -0.80293848764E+01  0.83677398658E+02  0.19661555987E+03  0.17300000000E+03 0. -1.
<mgrwt>
<rscale>  2 0.17792069E+03</rscale>
<asrwt>0</asrwt>
<pdfrwt beam="1">  1       21 0.37636932E-01 0.17792069E+03</pdfrwt>
<pdfrwt beam="2">  1       21 0.20339269E-01 0.17792069E+03</pdfrwt>
<totfact> 0.15301261E+05</totfact>
</mgrwt>
</event>
<event>
 4    1  0.4429256E+000  0.1823060E+03  0.7546771E-02  0.1165590E+00
         21   -1    0    0  501  502  0.00000000000E+00  0.00000000000E+00  0.39867806251E+02  0.39867806251E+02  0.00000000000E+00 0. -1.
         21   -1    0    0  502  503 -0.00000000000E+00 -0.00000000000E+00 -0.83389974530E+03  0.83389974530E+03  0.00000000000E+00 0. -1.
          6    1    1    2  501    0  0.19600127105E+02 -0.54058484045E+02 -0.40469413800E+03  0.44386127338E+03  0.17300000000E+03 0. -1.
         -6    1    1    2    0  503 -0.19600127105E+02  0.54058484045E+02 -0.38933780105E+03  0.42990627816E+03  0.17300000000E+03 0. -1.
<mgrwt>
<rscale>  2 0.18230602E+03</rscale>
<asrwt>0</asrwt>
<pdfrwt beam="1">  1       21 0.61335094E-02 0.18230602E+03</pdfrwt>
<pdfrwt beam="2">  1       21 0.12829225E+00 0.18230602E+03</pdfrwt>
<totfact> 0.85265894E+04</totfact>
</mgrwt>
</event>
<event>
 4    1  0.4429256E+000  0.1858449E+03  0.7546771E-02  0.1162263E+00
         21   -1    0    0  501  502  0.00000000000E+00  0.00000000000E+00  0.27629800650E+03  0.27629800650E+03  0.00000000000E+00 0. -1.
         21   -1    0    0  502  503 -0.00000000000E+00 -0.00000000000E+00 -0.28159251095E+03  0.28159251095E+03  0.00000000000E+00 0. -1.
          6    1    1    2  501    0 -0.38646362675E+02  0.55819212854E+02  0.20536481603E+03  0.27697117817E+03  0.17300000000E+03 0. -1.
         -6    1    1    2    0  503  0.38646362675E+02 -0.55819212854E+02 -0.21065932049E+03  0.28091933928E+03  0.17300000000E+03 0. -1.
<mgrwt>
<rscale>  2 0.18584490E+03</rscale>
<asrwt>0</asrwt>
<pdfrwt beam="1">  1       21 0.42507386E-01 0.18584490E+03</pdfrwt>
<pdfrwt beam="2">  1       21 0.43321925E-01 0.18584490E+03</pdfrwt>
<totfact> 0.27375167E+04</totfact>
</mgrwt>
</event>
<event>
 4    1  0.4429256E+000  0.1731397E+03  0.7546771E-02  0.1174613E+00
         21   -1    0    0  501  502  0.00000000000E+00  0.00000000000E+00  0.60322051986E+02  0.60322051986E+02  0.00000000000E+00 0.  1.
         21   -1    0    0  502  503 -0.00000000000E+00 -0.00000000000E+00 -0.65062017661E+03  0.65062017661E+03  0.00000000000E+00 0.  1.
          6    1    1    2  501    0 -0.72371470266E-01  0.69525778256E+01 -0.12239497831E+03  0.21203271986E+03  0.17300000000E+03 0.  1.
         -6    1    1    2    0  503  0.72371470266E-01 -0.69525778256E+01 -0.46790314631E+03  0.49890950873E+03  0.17300000000E+03 0.  1.
<mgrwt>
<rscale>  2 0.17313966E+03</rscale>
<asrwt>0</asrwt>
<pdfrwt beam="1">  1       21 0.92803163E-02 0.17313966E+03</pdfrwt>
<pdfrwt beam="2">  1       21 0.10009541E+00 0.17313966E+03</pdfrwt>
<totfact> 0.76488018E+04</totfact>
</mgrwt>
</event>
<event>
 4    1  0.4429256E+000  0.2796538E+03  0.7546771E-02  0.1095878E+00
         21   -1    0    0  501  502  0.00000000000E+00  0.00000000000E+00  0.86717710799E+02  0.86717710799E+02  0.00000000000E+00 0.  1.
         21   -1    0    0  502  503 -0.00000000000E+00 -0.00000000000E+00 -0.15924898154E+04  0.15924898154E+04  0.00000000000E+00 0. -1.
          6    1    1    2  501    0 -0.65532315538E+02  0.20972071869E+03 -0.19996614702E+03  0.34379168719E+03  0.17300000000E+03 0.  1.
         -6    1    1    2    0  503  0.65532315538E+02 -0.20972071869E+03 -0.13058059576E+04  0.13354158390E+04  0.17300000000E+03 0. -1.
<mgrwt>
<rscale>  2 0.27965383E+03</rscale>
<asrwt>0</asrwt>
<pdfrwt beam="1">  1       21 0.13341187E-01 0.27965383E+03</pdfrwt>
<pdfrwt beam="2">  1       21 0.24499842E+00 0.27965383E+03</pdfrwt>
<totfact> 0.31920927E+03</totfact>
</mgrwt>
</event>
<event>
 4    1  0.4429256E+000  0.2310541E+03  0.7546771E-02  0.1125900E+00
         21   -1    0    0  501  502  0.00000000000E+00  0.00000000000E+00  0.25568472746E+02  0.25568472746E+02  0.00000000000E+00 0.  1.
         21   -1    0    0  502  503 -0.00000000000E+00 -0.00000000000E+00 -0.23990126866E+04  0.23990126866E+04  0.00000000000E+00 0. -1.
          6    1    1    2  501    0  0.15204445149E+03  0.18425340518E+02 -0.75020044804E+03  0.78497561786E+03  0.17300000000E+03 0. -1.
         -6    1    1    2    0  503 -0.15204445149E+03 -0.18425340518E+02 -0.16232437658E+04  0.16396055415E+04  0.17300000000E+03 0. -1.
<mgrwt>
<rscale>  2 0.23105412E+03</rscale>
<asrwt>0</asrwt>
<pdfrwt beam="1">  1       21 0.39336121E-02 0.23105412E+03</pdfrwt>
<pdfrwt beam="2">  1       21 0.36907879E+00 0.23105412E+03</pdfrwt>
<totfact> 0.51796795E+03</totfact>
</mgrwt>
</event>
<event>
 4    1  0.4429256E+000  0.2507271E+03  0.7546771E-02  0.1112846E+00
         21   -1    0    0  503  502  0.00000000000E+00  0.00000000000E+00  0.27628746228E+03  0.27628746228E+03  0.00000000000E+00 0.  1.
         21   -1    0    0  501  503 -0.00000000000E+00 -0.00000000000E+00 -0.23130886902E+03  0.23130886902E+03  0.00000000000E+00 0. -1.
          6    1    1    2  501    0  0.13239847625E+03  0.12411972238E+03 -0.99442992456E+01  0.25092419390E+03  0.17300000000E+03 0.  1.
         -6    1    1    2    0  502 -0.13239847625E+03 -0.12411972238E+03  0.54922892512E+02  0.25667213740E+03  0.17300000000E+03 0. -1.
<mgrwt>
<rscale>  2 0.25072707E+03</rscale>
<asrwt>0</asrwt>
<pdfrwt beam="1">  1       21 0.42505764E-01 0.25072707E+03</pdfrwt>
<pdfrwt beam="2">  1       21 0.35585980E-01 0.25072707E+03</pdfrwt>
<totfact> 0.39454517E+04</totfact>
</mgrwt>
</event>
<event>
 4    1  0.4429256E+000  0.2208016E+03  0.7546771E-02  0.1133287E+00
         21   -1    0    0  501  502  0.00000000000E+00  0.00000000000E+00  0.90154850698E+02  0.90154850698E+02  0.00000000000E+00 0.  1.
         21   -1    0    0  502  503 -0.00000000000E+00 -0.00000000000E+00 -0.65716694823E+03  0.65716694823E+03  0.00000000000E+00 0.  1.
          6    1    1    2  501    0  0.10819448798E+03 -0.84370119683E+02 -0.44076082876E+03  0.49297410935E+03  0.17300000000E+03 0.  1.
         -6    1    1    2    0  503 -0.10819448798E+03  0.84370119683E+02 -0.12625126877E+03  0.25434768958E+03  0.17300000000E+03 0.  1.
<mgrwt>
<rscale>  2 0.22080164E+03</rscale>
<asrwt>0</asrwt>
<pdfrwt beam="1">  1       21 0.13869977E-01 0.22080164E+03</pdfrwt>
<pdfrwt beam="2">  1       21 0.10110261E+00 0.22080164E+03</pdfrwt>
<totfact> 0.35626614E+04</totfact>
</mgrwt>
</event>
<event>
 4    1  0.4429256E+000  0.2271989E+03  0.7546771E-02  0.1128627E+00
         21   -1    0    0  501  502  0.00000000000E+00  0.00000000000E+00  0.33522273814E+02  0.33522273814E+02  0.00000000000E+00 0.  1.
         21   -1    0    0  502  503 -0.00000000000E+00 -0.00000000000E+00 -0.20774772815E+04  0.20774772815E+04  0.00000000000E+00 0.  1.
          6    1    1    2  501    0 -0.12961881396E+02  0.14670490470E+03 -0.48503243610E+03  0.53560788222E+03  0.17300000000E+03 0.  1.
         -6    1    1    2    0  503  0.12961881396E+02 -0.14670490470E+03 -0.15589225716E+04  0.15753916731E+04  0.17300000000E+03 0.  1.
<mgrwt>
<rscale>  2 0.22719890E+03</rscale>
<asrwt>0</asrwt>
<pdfrwt beam="1">  1       21 0.51572725E-02 0.22719890E+03</pdfrwt>
<pdfrwt beam="2">  1       21 0.31961191E+00 0.22719890E+03</pdfrwt>
<totfact> 0.64649953E+03</totfact>
</mgrwt>
</event>
<event>
 4    1  0.4429256E+000  0.2069961E+03  0.7546771E-02  0.1143967E+00
         21   -1    0    0  503  502  0.00000000000E+00  0.00000000000E+00  0.71820940171E+03  0.71820940171E+03  0.00000000000E+00 0. -1.
         21   -1    0    0  501  503 -0.00000000000E+00 -0.00000000000E+00 -0.82410163396E+02  0.82410163396E+02  0.00000000000E+00 0. -1.
          6    1    1    2  501    0  0.83421565884E+02  0.77196054307E+02  0.10756480673E+03  0.23327575121E+03  0.17300000000E+03 0. -1.
         -6    1    1    2    0  502 -0.83421565884E+02 -0.77196054307E+02  0.52823443158E+03  0.56734381389E+03  0.17300000000E+03 0. -1.
<mgrwt>
<rscale>  2 0.20699611E+03</rscale>
<asrwt>0</asrwt>
<pdfrwt beam="1">  1       21 0.11049375E+00 0.20699611E+03</pdfrwt>
<pdfrwt beam="2">  1       21 0.12678487E-01 0.20699611E+03</pdfrwt>
<totfact> 0.34075823E+04</totfact>
</mgrwt>
</event>
<event>
 4    1  0.4429256E+000  0.1783363E+03  0.7546771E-02  0.1169423E+00
         21   -1    0    0  501  502  0.00000000000E+00  0.00000000000E+00  0.57990339476E+03  0.57990339476E+03  0.00000000000E+00 0. -1.
         21   -1    0    0  502  503 -0.00000000000E+00 -0.00000000000E+00 -0.93878527661E+02  0.93878527661E+02  0.00000000000E+00 0. -1.
          6    1    1    2  501    0  0.27938263891E+02 -0.33079963057E+02  0.46024975609E+03  0.49359261393E+03  0.17300000000E+03 0. -1.
         -6    1    1    2    0  503 -0.27938263891E+02  0.33079963057E+02  0.25775111004E+02  0.18018930849E+03  0.17300000000E+03 0. -1.
<mgrwt>
<rscale>  2 0.17833628E+03</rscale>
<asrwt>0</asrwt>
<pdfrwt beam="1">  1       21 0.89215905E-01 0.17833628E+03</pdfrwt>
<pdfrwt beam="2">  1       21 0.14442851E-01 0.17833628E+03</pdfrwt>
<totfact> 0.45377803E+04</totfact>
</mgrwt>
</event>
<event>
 4    1  0.4429256E+000  0.1790422E+03  0.7546771E-02  0.1168733E+00
         21   -1    0    0  501  502  0.00000000000E+00  0.00000000000E+00  0.76693036626E+03  0.76693036626E+03  0.00000000000E+00 0.  1.
         21   -1    0    0  502  503 -0.00000000000E+00 -0.00000000000E+00 -0.55644257889E+02  0.55644257889E+02  0.00000000000E+00 0.  1.
          6    1    1    2  501    0 -0.68753513151E+01  0.45605122255E+02  0.56080770011E+03  0.58869463573E+03  0.17300000000E+03 0.  1.
         -6    1    1    2    0  503  0.68753513151E+01 -0.45605122255E+02  0.15047840827E+03  0.23387998842E+03  0.17300000000E+03 0.  1.
<mgrwt>
<rscale>  2 0.17904217E+03</rscale>
<asrwt>0</asrwt>
<pdfrwt beam="1">  1       21 0.11798928E+00 0.17904217E+03</pdfrwt>
<pdfrwt beam="2">  1       21 0.85606556E-02 0.17904217E+03</pdfrwt>
<totfact> 0.59111045E+04</totfact>
</mgrwt>
</event>
<event>
 4    1  0.4429256E+000  0.1765264E+03  0.7546771E-02  0.1171208E+00
         21   -1    0    0  501  502  0.00000000000E+00  0.00000000000E+00  0.29126591542E+03  0.29126591542E+03  0.00000000000E+00 0.  1.
         21   -1    0    0  502  503 -0.00000000000E+00 -0.00000000000E+00 -0.48504495678E+03  0.48504495678E+03  0.00000000000E+00 0.  1.
          6    1    1    2  501    0 -0.18241285334E+02 -0.29997301689E+02  0.24579464139E+03  0.30261623938E+03  0.17300000000E+03 0.  1.
         -6    1    1    2    0  503  0.18241285334E+02  0.29997301689E+02 -0.43957368275E+03  0.47369463282E+03  0.17300000000E+03 0.  1.
<mgrwt>
<rscale>  2 0.17652644E+03</rscale>
<asrwt>0</asrwt>
<pdfrwt beam="1">  1       21 0.44810141E-01 0.17652644E+03</pdfrwt>
<pdfrwt beam="2">  1       21 0.74622300E-01 0.17652644E+03</pdfrwt>
<totfact> 0.77778719E+03</totfact>
</mgrwt>
</event>
<event>
 4    1  0.4429256E+000  0.1752711E+03  0.7546771E-02  0.1172460E+00
         21   -1    0    0  501  502  0.00000000000E+00  0.00000000000E+00  0.53669983290E+03  0.53669983290E+03  0.00000000000E+00 0. -1.
         21   -1    0    0  502  503 -0.00000000000E+00 -0.00000000000E+00 -0.10999365645E+03  0.10999365645E+03  0.00000000000E+00 0. -1.
          6    1    1    2  501    0 -0.27367256837E+02  0.64806085696E+01  0.43728530613E+03  0.47110338991E+03  0.17300000000E+03 0. -1.
         -6    1    1    2    0  503  0.27367256837E+02 -0.64806085696E+01 -0.10579129676E+02  0.17559009943E+03  0.17300000000E+03 0. -1.
<mgrwt>
<rscale>  2 0.17527112E+03</rscale>
<asrwt>0</asrwt>
<pdfrwt beam="1">  1       21 0.82569204E-01 0.17527112E+03</pdfrwt>
<pdfrwt beam="2">  1       21 0.16922101E-01 0.17527112E+03</pdfrwt>
<totfact> 0.40642786E+04</totfact>
</mgrwt>
</event>
<event>
 4    1  0.4429256E+000  0.1825879E+03  0.7546771E-02  0.1165322E+00
         21   -1    0    0  503  502  0.00000000000E+00  0.00000000000E+00  0.10680033735E+04  0.10680033735E+04  0.00000000000E+00 0.  1.
         21   -1    0    0  501  503 -0.00000000000E+00 -0.00000000000E+00 -0.62455306696E+02  0.62455306696E+02  0.00000000000E+00 0. -1.
          6    1    1    2  501    0  0.25649468248E+02 -0.52454256892E+02  0.10301927643E+03  0.20964569064E+03  0.17300000000E+03 0. -1.
         -6    1    1    2    0  502 -0.25649468248E+02  0.52454256892E+02  0.90252879040E+03  0.92081298959E+03  0.17300000000E+03 0.  1.
<mgrwt>
<rscale>  2 0.18258791E+03</rscale>
<asrwt>0</asrwt>
<pdfrwt beam="1">  1       21 0.16430820E+00 0.18258791E+03</pdfrwt>
<pdfrwt beam="2">  1       21 0.96085095E-02 0.18258791E+03</pdfrwt>
<totfact> 0.20535986E+04</totfact>
</mgrwt>
</event>
<event>
 4    1  0.4429256E+000  0.1732771E+03  0.7546771E-02  0.1174473E+00
         21   -1    0    0  503  502  0.00000000000E+00  0.00000000000E+00  0.39974069448E+03  0.39974069448E+03  0.00000000000E+00 0.  1.
         21   -1    0    0  501  503 -0.00000000000E+00 -0.00000000000E+00 -0.93739834202E+02  0.93739834202E+02  0.00000000000E+00 0.  1.
          6    1    1    2  501    0  0.57722502566E+00 -0.97784293023E+01  0.26299467691E+03  0.31494626677E+03  0.17300000000E+03 0.  1.
         -6    1    1    2    0  502 -0.57722502566E+00  0.97784293023E+01  0.43006183365E+02  0.17853426191E+03  0.17300000000E+03 0.  1.
<mgrwt>
<rscale>  2 0.17327709E+03</rscale>
<asrwt>0</asrwt>
<pdfrwt beam="1">  1       21 0.61498567E-01 0.17327709E+03</pdfrwt>
<pdfrwt beam="2">  1       21 0.14421513E-01 0.17327709E+03</pdfrwt>
<totfact> 0.10430994E+05</totfact>
</mgrwt>
</event>
<event>
 4    1  0.4429256E+000  0.2684810E+03  0.7546771E-02  0.1102152E+00
         21   -1    0    0  503  502  0.00000000000E+00  0.00000000000E+00  0.51057474055E+02  0.51057474055E+02  0.00000000000E+00 0. -1.
         21   -1    0    0  501  503 -0.00000000000E+00 -0.00000000000E+00 -0.15093621933E+04  0.15093621933E+04  0.00000000000E+00 0. -1.
          6    1    1    2  501    0  0.45870477208E+02  0.20012231269E+03 -0.92753092442E+03  0.96560636725E+03  0.17300000000E+03 0. -1.
         -6    1    1    2    0  502 -0.45870477208E+02 -0.20012231269E+03 -0.53077379487E+03  0.59481330015E+03  0.17300000000E+03 0. -1.
<mgrwt>
<rscale>  2 0.26848099E+03</rscale>
<asrwt>0</asrwt>
<pdfrwt beam="1">  1       21 0.78549965E-02 0.26848099E+03</pdfrwt>
<pdfrwt beam="2">  1       21 0.23220955E+00 0.26848099E+03</pdfrwt>
<totfact> 0.98995890E+03</totfact>
</mgrwt>
</event>
<event>
 4    1  0.4429256E+000  0.2322077E+03  0.7546771E-02  0.1125095E+00
         21   -1    0    0  503  502  0.00000000000E+00  0.00000000000E+00  0.13326465127E+03  0.13326465127E+03  0.00000000000E+00 0. -1.
         21   -1    0    0  501  503 -0.00000000000E+00 -0.00000000000E+00 -0.57014654030E+03  0.57014654030E+03  0.00000000000E+00 0. -1.
          6    1    1    2  501    0 -0.41191819482E+02 -0.14931398654E+03 -0.40795035613E+03  0.46940805876E+03  0.17300000000E+03 0. -1.
         -6    1    1    2    0  502  0.41191819482E+02  0.14931398654E+03 -0.28931532898E+02  0.23400313281E+03  0.17300000000E+03 0. -1.
<mgrwt>
<rscale>  2 0.23220774E+03</rscale>
<asrwt>0</asrwt>
<pdfrwt beam="1">  1       21 0.20502254E-01 0.23220774E+03</pdfrwt>
<pdfrwt beam="2">  1       21 0.87714853E-01 0.23220774E+03</pdfrwt>
<totfact> 0.24030385E+04</totfact>
</mgrwt>
</event>
<event>
 4    1  0.4429256E+000  0.1991744E+03  0.7546771E-02  0.1150437E+00
         21   -1    0    0  501  502  0.00000000000E+00  0.00000000000E+00  0.10119368354E+04  0.10119368354E+04  0.00000000000E+00 0. -1.
         21   -1    0    0  502  503 -0.00000000000E+00 -0.00000000000E+00 -0.44923092170E+02  0.44923092170E+02  0.00000000000E+00 0.  1.
          6    1    1    2  501    0  0.74446834440E+02  0.64800682484E+02  0.67207699704E+03  0.70096929288E+03  0.17300000000E+03 0. -1.
         -6    1    1    2    0  503 -0.74446834440E+02 -0.64800682484E+02  0.29493674619E+03  0.35589063469E+03  0.17300000000E+03 0.  1.
<mgrwt>
<rscale>  2 0.19917445E+03</rscale>
<asrwt>0</asrwt>
<pdfrwt beam="1">  1       21 0.15568257E+00 0.19917445E+03</pdfrwt>
<pdfrwt beam="2">  1       21 0.69112457E-02 0.19917445E+03</pdfrwt>
<totfact> 0.41724362E+04</totfact>
</mgrwt>
</event>
<event>
 4    1  0.4429256E+000  0.1744571E+03  0.7546771E-02  0.1173278E+00
         21   -1    0    0  501  502  0.00000000000E+00  0.00000000000E+00  0.16301597590E+02  0.16301597590E+02  0.00000000000E+00 0. -1.
         21   -1    0    0  502  503 -0.00000000000E+00 -0.00000000000E+00 -0.20332949735E+04  0.20332949735E+04  0.00000000000E+00 0. -1.
          6    1    1    2  501    0 -0.17390762804E+02 -0.14277039986E+02 -0.71543263346E+03  0.73639603850E+03  0.17300000000E+03 0. -1.
         -6    1    1    2    0  503  0.17390762804E+02  0.14277039986E+02 -0.13015607425E+04  0.13132005326E+04  0.17300000000E+03 0. -1.
<mgrwt>
<rscale>  2 0.17445708E+03</rscale>
<asrwt>0</asrwt>
<pdfrwt beam="1">  1       21 0.25079401E-02 0.17445708E+03</pdfrwt>
<pdfrwt beam="2">  1       21 0.31281436E+00 0.17445708E+03</pdfrwt>
<totfact> 0.24954627E+04</totfact>
</mgrwt>
</event>
<event>
 4    1  0.4429256E+000  0.2976105E+03  0.7546771E-02  0.1086441E+00
         21   -1    0    0  503  502  0.00000000000E+00  0.00000000000E+00  0.56518199939E+03  0.56518199939E+03  0.00000000000E+00 0.  1.
         21   -1    0    0  501  503 -0.00000000000E+00 -0.00000000000E+00 -0.27160423412E+03  0.27160423412E+03  0.00000000000E+00 0.  1.
          6    1    1    2  501    0  0.24000984665E+03 -0.32222214953E+02 -0.12532932412E+03  0.32292326814E+03  0.17300000000E+03 0.  1.
         -6    1    1    2    0  502 -0.24000984665E+03  0.32222214953E+02  0.41890708940E+03  0.51386296536E+03  0.17300000000E+03 0.  1.
<mgrwt>
<rscale>  2 0.29761048E+03</rscale>
<asrwt>0</asrwt>
<pdfrwt beam="1">  1       21 0.86951077E-01 0.29761048E+03</pdfrwt>
<pdfrwt beam="2">  1       21 0.41785267E-01 0.29761048E+03</pdfrwt>
<totfact> 0.58737187E+03</totfact>
</mgrwt>
</event>
<event>
 4    1  0.4429256E+000  0.1902868E+03  0.7546771E-02  0.1158203E+00
         21   -1    0    0  503  502  0.00000000000E+00  0.00000000000E+00  0.59853629233E+03  0.59853629233E+03  0.00000000000E+00 0. -1.
         21   -1    0    0  501  503 -0.00000000000E+00 -0.00000000000E+00 -0.64499342960E+02  0.64499342960E+02  0.00000000000E+00 0. -1.
          6    1    1    2  501    0 -0.79027145524E+02 -0.58963984295E+01  0.18442606994E+03  0.26499440092E+03  0.17300000000E+03 0. -1.
         -6    1    1    2    0  502  0.79027145524E+02  0.58963984295E+01  0.34961087943E+03  0.39804123437E+03  0.17300000000E+03 0. -1.
<mgrwt>
<rscale>  2 0.19028678E+03</rscale>
<asrwt>0</asrwt>
<pdfrwt beam="1">  1       21 0.92082503E-01 0.19028678E+03</pdfrwt>
<pdfrwt beam="2">  1       21 0.99229762E-02 0.19028678E+03</pdfrwt>
<totfact> 0.82039826E+04</totfact>
</mgrwt>
</event>
<event>
 4    1  0.4429256E+000  0.2072634E+03  0.7546771E-02  0.1143752E+00
         21   -1    0    0  503  502  0.00000000000E+00  0.00000000000E+00  0.43114568079E+03  0.43114568079E+03  0.00000000000E+00 0.  1.
         21   -1    0    0  501  503 -0.00000000000E+00 -0.00000000000E+00 -0.14135192383E+03  0.14135192383E+03  0.00000000000E+00 0.  1.
          6    1    1    2  501    0  0.10767279770E+03  0.37890696296E+02 -0.10605719778E+02  0.20753461765E+03  0.17300000000E+03 0.  1.
         -6    1    1    2    0  502 -0.10767279770E+03 -0.37890696296E+02  0.30039947674E+03  0.36496298697E+03  0.17300000000E+03 0.  1.
<mgrwt>
<rscale>  2 0.20726345E+03</rscale>
<asrwt>0</asrwt>
<pdfrwt beam="1">  1       21 0.66330104E-01 0.20726345E+03</pdfrwt>
<pdfrwt beam="2">  1       21 0.21746450E-01 0.20726345E+03</pdfrwt>
<totfact> 0.40833740E+04</totfact>
</mgrwt>
</event>
<event>
 4    1  0.4429256E+000  0.2020166E+03  0.7546771E-02  0.1148049E+00
         21   -1    0    0  501  502  0.00000000000E+00  0.00000000000E+00  0.13383702637E+03  0.13383702637E+03  0.00000000000E+00 0. -1.
         21   -1    0    0  502  503 -0.00000000000E+00 -0.00000000000E+00 -0.30585594447E+03  0.30585594447E+03  0.00000000000E+00 0. -1.
          6    1    1    2  501    0 -0.91191107669E+02  0.50654577298E+02 -0.73902392888E+02  0.21510989748E+03  0.17300000000E+03 0. -1.
         -6    1    1    2    0  503  0.91191107669E+02 -0.50654577298E+02 -0.98116525210E+02  0.22458307336E+03  0.17300000000E+03 0. -1.
<mgrwt>
<rscale>  2 0.20201659E+03</rscale>
<asrwt>0</asrwt>
<pdfrwt beam="1">  1       21 0.20590312E-01 0.20201659E+03</pdfrwt>
<pdfrwt beam="2">  1       21 0.47054760E-01 0.20201659E+03</pdfrwt>
<totfact> 0.94122807E+04</totfact>
</mgrwt>
</event>
<event>
 4    1  0.4429256E+000  0.2083244E+03  0.7546771E-02  0.1142900E+00
         21   -1    0    0  501  502  0.00000000000E+00  0.00000000000E+00  0.15022538550E+03  0.15022538550E+03  0.00000000000E+00 0.  1.
         21   -1    0    0  502  503 -0.00000000000E+00 -0.00000000000E+00 -0.29326835646E+03  0.29326835646E+03  0.00000000000E+00 0. -1.
          6    1    1    2  501    0 -0.44009065871E+02 -0.10739295137E+03 -0.44435932898E+02  0.21301078850E+03  0.17300000000E+03 0.  1.
         -6    1    1    2    0  503  0.44009065871E+02  0.10739295137E+03 -0.98607038064E+02  0.23048295347E+03  0.17300000000E+03 0.  1.
<mgrwt>
<rscale>  2 0.20832437E+03</rscale>
<asrwt>0</asrwt>
<pdfrwt beam="1">  1       21 0.23111598E-01 0.20832437E+03</pdfrwt>
<pdfrwt beam="2">  1       21 0.45118208E-01 0.20832437E+03</pdfrwt>
<totfact> 0.82338355E+04</totfact>
</mgrwt>
</event>
<event>
 4    1  0.4429256E+000  0.2238432E+03  0.7546771E-02  0.1131050E+00
         21   -1    0    0  503  502  0.00000000000E+00  0.00000000000E+00  0.18150622580E+03  0.18150622580E+03  0.00000000000E+00 0. -1.
         21   -1    0    0  501  503 -0.00000000000E+00 -0.00000000000E+00 -0.35935501106E+03  0.35935501106E+03  0.00000000000E+00 0.  1.
          6    1    1    2  501    0  0.13379745965E+03  0.47697354536E+02 -0.21912564143E+03  0.31324406550E+03  0.17300000000E+03 0.  1.
         -6    1    1    2    0  502 -0.13379745965E+03 -0.47697354536E+02  0.41276856172E+02  0.22761717135E+03  0.17300000000E+03 0. -1.
<mgrwt>
<rscale>  2 0.22384324E+03</rscale>
<asrwt>0</asrwt>
<pdfrwt beam="1">  1       21 0.27924035E-01 0.22384324E+03</pdfrwt>
<pdfrwt beam="2">  1       21 0.55285385E-01 0.22384324E+03</pdfrwt>
<totfact> 0.37195038E+04</totfact>
</mgrwt>
</event>
<event>
 4    1  0.4429256E+000  0.1783820E+03  0.7546771E-02  0.1169378E+00
         21   -1    0    0  501  502  0.00000000000E+00  0.00000000000E+00  0.10288746278E+04  0.10288746278E+04  0.00000000000E+00 0. -1.
         21   -1    0    0  502  503 -0.00000000000E+00 -0.00000000000E+00 -0.53006344680E+02  0.53006344680E+02  0.00000000000E+00 0. -1.
          6    1    1    2  501    0 -0.40363080428E+02 -0.16184739750E+02  0.83705638229E+03  0.85585250552E+03  0.17300000000E+03 0. -1.
         -6    1    1    2    0  503  0.40363080428E+02  0.16184739750E+02  0.13881190081E+03  0.22602846694E+03  0.17300000000E+03 0. -1.
<mgrwt>
<rscale>  2 0.17838196E+03</rscale>
<asrwt>0</asrwt>
<pdfrwt beam="1">  1       21 0.15828839E+00 0.17838196E+03</pdfrwt>
<pdfrwt beam="2">  1       21 0.81548230E-02 0.17838196E+03</pdfrwt>
<totfact> 0.30346700E+04</totfact>
</mgrwt>
</event>
<event>
 4    1  0.4429256E+000  0.1789454E+03  0.7546771E-02  0.1168828E+00
         21   -1    0    0  503  502  0.00000000000E+00  0.00000000000E+00  0.84164293105E+02  0.84164293105E+02  0.00000000000E+00 0.  1.
         21   -1    0    0  501  503 -0.00000000000E+00 -0.00000000000E+00 -0.38252134020E+03  0.38252134020E+03  0.00000000000E+00 0.  1.
          6    1    1    2  501    0 -0.44987488033E+02 -0.82819047150E+01 -0.16629223555E+03  0.24428379322E+03  0.17300000000E+03 0.  1.
         -6    1    1    2    0  502  0.44987488033E+02  0.82819047150E+01 -0.13206481154E+03  0.22240184008E+03  0.17300000000E+03 0.  1.
<mgrwt>
<rscale>  2 0.17894542E+03</rscale>
<asrwt>0</asrwt>
<pdfrwt beam="1">  1       21 0.12948353E-01 0.17894542E+03</pdfrwt>
<pdfrwt beam="2">  1       21 0.58849437E-01 0.17894542E+03</pdfrwt>
<totfact> 0.13892905E+05</totfact>
</mgrwt>
</event>
<event>
 4    1  0.4429256E+000  0.1927442E+03  0.7546771E-02  0.1156009E+00
         21   -1    0    0  501  502  0.00000000000E+00  0.00000000000E+00  0.26843177037E+03  0.26843177037E+03  0.00000000000E+00 0.  1.
         21   -1    0    0  502  503 -0.00000000000E+00 -0.00000000000E+00 -0.17831731047E+03  0.17831731047E+03  0.00000000000E+00 0.  1.
          6    1    1    2  501    0 -0.39814362038E+02  0.75074123447E+02  0.15074645638E+03  0.24469328055E+03  0.17300000000E+03 0.  1.
         -6    1    1    2    0  503  0.39814362038E+02 -0.75074123447E+02 -0.60631996469E+02  0.20205580029E+03  0.17300000000E+03 0.  1.
<mgrwt>
<rscale>  2 0.19274415E+03</rscale>
<asrwt>0</asrwt>
<pdfrwt beam="1">  1       21 0.41297196E-01 0.19274415E+03</pdfrwt>
<pdfrwt beam="2">  1       21 0.27433432E-01 0.19274415E+03</pdfrwt>
<totfact> 0.71567726E+04</totfact>
</mgrwt>
</event>
<event>
 4    1  0.4429256E+000  0.2153721E+03  0.7546771E-02  0.1137381E+00
         21   -1    0    0  501  502  0.00000000000E+00  0.00000000000E+00  0.77394000211E+02  0.77394000211E+02  0.00000000000E+00 0.  1.
         21   -1    0    0  502  503 -0.00000000000E+00 -0.00000000000E+00 -0.62586891638E+03  0.62586891638E+03  0.00000000000E+00 0.  1.
          6    1    1    2  501    0  0.20357311037E+02 -0.12665585784E+03 -0.20183950872E+03  0.29516828034E+03  0.17300000000E+03 0.  1.
         -6    1    1    2    0  503 -0.20357311037E+02  0.12665585784E+03 -0.34663540745E+03  0.40809463625E+03  0.17300000000E+03 0.  1.
<mgrwt>
<rscale>  2 0.21537207E+03</rscale>
<asrwt>0</asrwt>
<pdfrwt beam="1">  1       21 0.11906769E-01 0.21537207E+03</pdfrwt>
<pdfrwt beam="2">  1       21 0.96287531E-01 0.21537207E+03</pdfrwt>
<totfact> 0.52814675E+04</totfact>
</mgrwt>
</event>
<event>
 4    1  0.4429256E+000  0.2701228E+03  0.7546771E-02  0.1101209E+00
         21   -1    0    0  501  502  0.00000000000E+00  0.00000000000E+00  0.13102428321E+03  0.13102428321E+03  0.00000000000E+00 0. -1.
         21   -1    0    0  502  503 -0.00000000000E+00 -0.00000000000E+00 -0.99666210566E+03  0.99666210566E+03  0.00000000000E+00 0.  1.
          6    1    1    2  501    0 -0.14050457721E+03 -0.15262954850E+03 -0.58279565710E+02  0.27633824034E+03  0.17300000000E+03 0. -1.
         -6    1    1    2    0  503  0.14050457721E+03  0.15262954850E+03 -0.80735825673E+03  0.85134814853E+03  0.17300000000E+03 0.  1.
<mgrwt>
<rscale>  2 0.27012278E+03</rscale>
<asrwt>0</asrwt>
<pdfrwt beam="1">  1       21 0.20157582E-01 0.27012278E+03</pdfrwt>
<pdfrwt beam="2">  1       21 0.15333263E+00 0.27012278E+03</pdfrwt>
<totfact> 0.60728301E+03</totfact>
</mgrwt>
</event>
<event>
 4    1  0.4429256E+000  0.2363113E+03  0.7546771E-02  0.1122275E+00
         21   -1    0    0  503  502  0.00000000000E+00  0.00000000000E+00  0.13495845786E+04  0.13495845786E+04  0.00000000000E+00 0.  1.
         21   -1    0    0  501  503 -0.00000000000E+00 -0.00000000000E+00 -0.42263198956E+02  0.42263198956E+02  0.00000000000E+00 0. -1.
          6    1    1    2  501    0  0.12803500973E+03 -0.97575999611E+02  0.55294109661E+03  0.60132095900E+03  0.17300000000E+03 0.  1.
         -6    1    1    2    0  502 -0.12803500973E+03  0.97575999611E+02  0.75438028299E+03  0.79052681851E+03  0.17300000000E+03 0. -1.
<mgrwt>
<rscale>  2 0.23631132E+03</rscale>
<asrwt>0</asrwt>
<pdfrwt beam="1">  1       21 0.20762836E+00 0.23631132E+03</pdfrwt>
<pdfrwt beam="2">  1       21 0.65020316E-02 0.23631132E+03</pdfrwt>
<totfact> 0.19987602E+04</totfact>
</mgrwt>
</event>
<event>
 4    1  0.4429256E+000  0.2091908E+03  0.7546771E-02  0.1142208E+00
         21   -1    0    0  501  502  0.00000000000E+00  0.00000000000E+00  0.33405501528E+03  0.33405501528E+03  0.00000000000E+00 0. -1.
         21   -1    0    0  502  503 -0.00000000000E+00 -0.00000000000E+00 -0.17142708578E+03  0.17142708578E+03  0.00000000000E+00 0. -1.
          6    1    1    2  501    0 -0.11724291540E+02 -0.11702273098E+03  0.20405200135E+03  0.29222935827E+03  0.17300000000E+03 0. -1.
         -6    1    1    2    0  503  0.11724291540E+02  0.11702273098E+03 -0.41424071855E+02  0.21325274279E+03  0.17300000000E+03 0. -1.
<mgrwt>
<rscale>  2 0.20919077E+03</rscale>
<asrwt>0</asrwt>
<pdfrwt beam="1">  1       21 0.51393079E-01 0.20919077E+03</pdfrwt>
<pdfrwt beam="2">  1       21 0.26373398E-01 0.20919077E+03</pdfrwt>
<totfact> 0.48796362E+04</totfact>
</mgrwt>
</event>
<event>
 4    1  0.4429256E+000  0.1994518E+03  0.7546771E-02  0.1150202E+00
         21   -1    0    0  503  502  0.00000000000E+00  0.00000000000E+00  0.24452899267E+03  0.24452899267E+03  0.00000000000E+00 0.  1.
         21   -1    0    0  501  503 -0.00000000000E+00 -0.00000000000E+00 -0.17567137818E+03  0.17567137818E+03  0.00000000000E+00 0. -1.
          6    1    1    2  501    0 -0.60063241431E+02 -0.79021649604E+02 -0.22697034312E+02  0.20073905809E+03  0.17300000000E+03 0. -1.
         -6    1    1    2    0  502  0.60063241431E+02  0.79021649604E+02  0.91554648806E+02  0.21946131275E+03  0.17300000000E+03 0.  1.
<mgrwt>
<rscale>  2 0.19945178E+03</rscale>
<asrwt>0</asrwt>
<pdfrwt beam="1">  1       21 0.37619845E-01 0.19945178E+03</pdfrwt>
<pdfrwt beam="2">  1       21 0.27026366E-01 0.19945178E+03</pdfrwt>
<totfact> 0.88642543E+04</totfact>
</mgrwt>
</event>
<event>
 4    1  0.4429256E+000  0.1796099E+03  0.7546771E-02  0.1168181E+00
         21   -1    0    0  501  502  0.00000000000E+00  0.00000000000E+00  0.11405318220E+03  0.11405318220E+03  0.00000000000E+00 0.  1.
         21   -1    0    0  502  503 -0.00000000000E+00 -0.00000000000E+00 -0.31979168051E+03  0.31979168051E+03  0.00000000000E+00 0.  1.
          6    1    1    2  501    0  0.38974083829E+02 -0.28490821525E+02 -0.29139731359E+02  0.18195831958E+03  0.17300000000E+03 0. -1.
         -6    1    1    2    0  503 -0.38974083829E+02  0.28490821525E+02 -0.17659876695E+03  0.25188654313E+03  0.17300000000E+03 0. -1.
<mgrwt>
<rscale>  2 0.17960987E+03</rscale>
<asrwt>0</asrwt>
<pdfrwt beam="1">  1       21 0.17546644E-01 0.17960987E+03</pdfrwt>
<pdfrwt beam="2">  1       21 0.49198720E-01 0.17960987E+03</pdfrwt>
<totfact> 0.11652196E+05</totfact>
</mgrwt>
</event>
<event>
 4    1  0.4429256E+000  0.2220470E+03  0.7546771E-02  0.1132366E+00
         21   -1    0    0  503  502  0.00000000000E+00  0.00000000000E+00  0.36031742888E+03  0.36031742888E+03  0.00000000000E+00 0. -1.
         21   -1    0    0  501  503 -0.00000000000E+00 -0.00000000000E+00 -0.18368589357E+03  0.18368589357E+03  0.00000000000E+00 0. -1.
          6    1    1    2  501    0  0.15735546941E+02  0.13830501986E+03 -0.49050991311E+02  0.22740027639E+03  0.17300000000E+03 0. -1.
         -6    1    1    2    0  502 -0.15735546941E+02 -0.13830501986E+03  0.22568252662E+03  0.31660304606E+03  0.17300000000E+03 0. -1.
<mgrwt>
<rscale>  2 0.22204704E+03</rscale>
<asrwt>0</asrwt>
<pdfrwt beam="1">  1       21 0.55433450E-01 0.22204704E+03</pdfrwt>
<pdfrwt beam="2">  1       21 0.28259368E-01 0.22204704E+03</pdfrwt>
<totfact> 0.36167953E+04</totfact>
</mgrwt>
</event>
<event>
 4    1  0.4429256E+000  0.2020957E+03  0.7546771E-02  0.1147983E+00
         21   -1    0    0  501  502  0.00000000000E+00  0.00000000000E+00  0.12234522625E+03  0.12234522625E+03  0.00000000000E+00 0. -1.
         21   -1    0    0  502  503 -0.00000000000E+00 -0.00000000000E+00 -0.37678732512E+03  0.37678732512E+03  0.00000000000E+00 0. -1.
          6    1    1    2  501    0 -0.76860653110E+02  0.70753795749E+02 -0.42955499306E+02  0.20661034468E+03  0.17300000000E+03 0. -1.
         -6    1    1    2    0  503  0.76860653110E+02 -0.70753795749E+02 -0.21148659957E+03  0.29252220669E+03  0.17300000000E+03 0. -1.
<mgrwt>
<rscale>  2 0.20209567E+03</rscale>
<asrwt>0</asrwt>
<pdfrwt beam="1">  1       21 0.18822343E-01 0.20209567E+03</pdfrwt>
<pdfrwt beam="2">  1       21 0.57967280E-01 0.20209567E+03</pdfrwt>
<totfact> 0.71796290E+04</totfact>
</mgrwt>
</event>
<event>
 4    1  0.4429256E+000  0.2031840E+03  0.7546771E-02  0.1147080E+00
         21   -1    0    0  501  502  0.00000000000E+00  0.00000000000E+00  0.29939437418E+03  0.29939437418E+03  0.00000000000E+00 0.  1.
         21   -1    0    0  502  503 -0.00000000000E+00 -0.00000000000E+00 -0.15795898376E+03  0.15795898376E+03  0.00000000000E+00 0.  1.
          6    1    1    2  501    0  0.36790532170E+02 -0.10000601299E+03  0.15222624438E+03  0.25388299543E+03  0.17300000000E+03 0.  1.
         -6    1    1    2    0  503 -0.36790532170E+02  0.10000601299E+03 -0.10790853956E+02  0.20347036251E+03  0.17300000000E+03 0.  1.
<mgrwt>
<rscale>  2 0.20318402E+03</rscale>
<asrwt>0</asrwt>
<pdfrwt beam="1">  1       21 0.46060673E-01 0.20318402E+03</pdfrwt>
<pdfrwt beam="2">  1       21 0.24301382E-01 0.20318402E+03</pdfrwt>
<totfact> 0.71877970E+04</totfact>
</mgrwt>
</event>
<event>
 4    1  0.4429256E+000  0.2773017E+03  0.7546771E-02  0.1097172E+00
         21   -1    0    0  503  502  0.00000000000E+00  0.00000000000E+00  0.22587468380E+03  0.22587468380E+03  0.00000000000E+00 0.  1.
         21   -1    0    0  501  503 -0.00000000000E+00 -0.00000000000E+00 -0.95905490950E+03  0.95905490950E+03  0.00000000000E+00 0. -1.
          6    1    1    2  501    0 -0.85630282976E+02  0.19908459484E+03 -0.84242016729E+03  0.88688666668E+03  0.17300000000E+03 0. -1.
         -6    1    1    2    0  502  0.85630282976E+02 -0.19908459484E+03  0.10923994160E+03  0.29804292662E+03  0.17300000000E+03 0.  1.
<mgrwt>
<rscale>  2 0.27730168E+03</rscale>
<asrwt>0</asrwt>
<pdfrwt beam="1">  1       21 0.34749952E-01 0.27730168E+03</pdfrwt>
<pdfrwt beam="2">  1       21 0.14754691E+00 0.27730168E+03</pdfrwt>
<totfact> 0.23303106E+03</totfact>
</mgrwt>
</event>
<event>
 4    1  0.4429256E+000  0.2346929E+03  0.7546771E-02  0.1123380E+00
         21   -1    0    0  503  502  0.00000000000E+00  0.00000000000E+00  0.57068729181E+03  0.57068729181E+03  0.00000000000E+00 0. -1.
         21   -1    0    0  501  503 -0.00000000000E+00 -0.00000000000E+00 -0.98442147360E+02  0.98442147360E+02  0.00000000000E+00 0.  1.
          6    1    1    2  501    0 -0.84736119643E+02  0.13405799253E+03  0.18933021194E+03  0.30154051881E+03  0.17300000000E+03 0. -1.
         -6    1    1    2    0  502  0.84736119643E+02 -0.13405799253E+03  0.28291493252E+03  0.36758892036E+03  0.17300000000E+03 0. -1.
<mgrwt>
<rscale>  2 0.23469290E+03</rscale>
<asrwt>0</asrwt>
<pdfrwt beam="1">  1       21 0.87798043E-01 0.23469290E+03</pdfrwt>
<pdfrwt beam="2">  1       21 0.15144946E-01 0.23469290E+03</pdfrwt>
<totfact> 0.41998275E+04</totfact>
</mgrwt>
</event>
<event>
 4    1  0.4429256E+000  0.1906854E+03  0.7546771E-02  0.1157845E+00
         21   -1    0    0  503  502  0.00000000000E+00  0.00000000000E+00  0.24502346286E+03  0.24502346286E+03  0.00000000000E+00 0. -1.
         21   -1    0    0  501  503 -0.00000000000E+00 -0.00000000000E+00 -0.36359070056E+03  0.36359070056E+03  0.00000000000E+00 0.  1.
          6    1    1    2  501    0 -0.73327332582E+02  0.32481281667E+02 -0.29339347208E+03  0.34991521948E+03  0.17300000000E+03 0.  1.
         -6    1    1    2    0  502  0.73327332582E+02 -0.32481281667E+02  0.17482623439E+03  0.25869894393E+03  0.17300000000E+03 0. -1.
<mgrwt>
<rscale>  2 0.19068543E+03</rscale>
<asrwt>0</asrwt>
<pdfrwt beam="1">  1       21 0.37695917E-01 0.19068543E+03</pdfrwt>
<pdfrwt beam="2">  1       21 0.55937031E-01 0.19068543E+03</pdfrwt>
<totfact> 0.20450076E+04</totfact>
</mgrwt>
</event>
<event>
 4    1  0.4429256E+000  0.2448904E+03  0.7546771E-02  0.1116577E+00
         21   -1    0    0  503  502  0.00000000000E+00  0.00000000000E+00  0.14835037980E+04  0.14835037980E+04  0.00000000000E+00 0. -1.
         21   -1    0    0  501  503 -0.00000000000E+00 -0.00000000000E+00 -0.42854757819E+02  0.42854757819E+02  0.00000000000E+00 0. -1.
          6    1    1    2  501    0  0.12813233655E+02 -0.17285287739E+03  0.53861860289E+03  0.59167668160E+03  0.17300000000E+03 0. -1.
         -6    1    1    2    0  502 -0.12813233655E+02  0.17285287739E+03  0.90203043729E+03  0.93468187421E+03  0.17300000000E+03 0. -1.
<mgrwt>
<rscale>  2 0.24489038E+03</rscale>
<asrwt>0</asrwt>
<pdfrwt beam="1">  1       21 0.22823131E+00 0.24489038E+03</pdfrwt>
<pdfrwt beam="2">  1       21 0.65930408E-02 0.24489038E+03</pdfrwt>
<totfact> 0.14433228E+04</totfact>
</mgrwt>
</event>
<event>
 4    1  0.4429256E+000  0.1809839E+03  0.7546771E-02  0.1166854E+00
         21   -1    0    0  503  502  0.00000000000E+00  0.00000000000E+00  0.44098818863E+03  0.44098818863E+03  0.00000000000E+00 0. -1.
         21   -1    0    0  501  503 -0.00000000000E+00 -0.00000000000E+00 -0.17047578510E+03  0.17047578510E+03  0.00000000000E+00 0. -1.
          6    1    1    2  501    0 -0.48339074010E+02  0.22125047156E+02 -0.94408797221E+02  0.20412791279E+03  0.17300000000E+03 0. -1.
         -6    1    1    2    0  502  0.48339074010E+02 -0.22125047156E+02  0.36492120075E+03  0.40733606094E+03  0.17300000000E+03 0. -1.
<mgrwt>
<rscale>  2 0.18098393E+03</rscale>
<asrwt>0</asrwt>
<pdfrwt beam="1">  1       21 0.67844336E-01 0.18098393E+03</pdfrwt>
<pdfrwt beam="2">  1       21 0.26227044E-01 0.18098393E+03</pdfrwt>
<totfact> 0.27607799E+04</totfact>
</mgrwt>
</event>
<event>
 4    1  0.4429256E+000  0.2441106E+03  0.7546771E-02  0.1117084E+00
         21   -1    0    0  503  502  0.00000000000E+00  0.00000000000E+00  0.24627047665E+03  0.24627047665E+03  0.00000000000E+00 0. -1.
         21   -1    0    0  501  503 -0.00000000000E+00 -0.00000000000E+00 -0.25492622447E+03  0.25492622447E+03  0.00000000000E+00 0.  1.
          6    1    1    2  501    0 -0.52565854397E+02 -0.16400551754E+03  0.52167930828E+02  0.24962265890E+03  0.17300000000E+03 0. -1.
         -6    1    1    2    0  502  0.52565854397E+02  0.16400551754E+03 -0.60823678649E+02  0.25157404221E+03  0.17300000000E+03 0.  1.
<mgrwt>
<rscale>  2 0.24411059E+03</rscale>
<asrwt>0</asrwt>
<pdfrwt beam="1">  1       21 0.37887766E-01 0.24411059E+03</pdfrwt>
<pdfrwt beam="2">  1       21 0.39219419E-01 0.24411059E+03</pdfrwt>
<totfact> 0.41101421E+04</totfact>
</mgrwt>
</event>
<event>
 4    1  0.4429256E+000  0.2029637E+03  0.7546771E-02  0.1147262E+00
         21   -1    0    0  503  502  0.00000000000E+00  0.00000000000E+00  0.36319904943E+03  0.36319904943E+03  0.00000000000E+00 0.  1.
         21   -1    0    0  501  503 -0.00000000000E+00 -0.00000000000E+00 -0.20437764388E+03  0.20437764388E+03  0.00000000000E+00 0.  1.
          6    1    1    2  501    0  0.74224800337E+02 -0.75868017390E+02  0.26873043502E+03  0.33676449301E+03  0.17300000000E+03 0.  1.
         -6    1    1    2    0  502 -0.74224800337E+02  0.75868017390E+02 -0.10990902947E+03  0.23081220030E+03  0.17300000000E+03 0.  1.
<mgrwt>
<rscale>  2 0.20296373E+03</rscale>
<asrwt>0</asrwt>
<pdfrwt beam="1">  1       21 0.55876777E-01 0.20296373E+03</pdfrwt>
<pdfrwt beam="2">  1       21 0.31442714E-01 0.20296373E+03</pdfrwt>
<totfact> 0.29156868E+04</totfact>
</mgrwt>
</event>
<event>
 4    1  0.4429256E+000  0.1767496E+03  0.7546771E-02  0.1170986E+00
         21   -1    0    0  503  502  0.00000000000E+00  0.00000000000E+00  0.44251201922E+03  0.44251201922E+03  0.00000000000E+00 0. -1.
         21   -1    0    0  501  503 -0.00000000000E+00 -0.00000000000E+00 -0.72559030787E+02  0.72559030787E+02  0.00000000000E+00 0. -1.
          6    1    1    2  501    0 -0.13213652002E+02  0.33716542621E+02  0.14263676761E+03  0.22712475277E+03  0.17300000000E+03 0. -1.
         -6    1    1    2    0  502  0.13213652002E+02 -0.33716542621E+02  0.22731622082E+03  0.28794629724E+03  0.17300000000E+03 0. -1.
<mgrwt>
<rscale>  2 0.17674956E+03</rscale>
<asrwt>0</asrwt>
<pdfrwt beam="1">  1       21 0.68078770E-01 0.17674956E+03</pdfrwt>
<pdfrwt beam="2">  1       21 0.11162928E-01 0.17674956E+03</pdfrwt>
<totfact> 0.13225620E+05</totfact>
</mgrwt>
</event>
<event>
 4    1  0.4429256E+000  0.1792218E+03  0.7546771E-02  0.1168558E+00
         21   -1    0    0  501  502  0.00000000000E+00  0.00000000000E+00  0.33871597527E+03  0.33871597527E+03  0.00000000000E+00 0.  1.
         21   -1    0    0  502  503 -0.00000000000E+00 -0.00000000000E+00 -0.23800714476E+03  0.23800714476E+03  0.00000000000E+00 0.  1.
          6    1    1    2  501    0  0.23133766505E+02  0.40697475511E+02  0.27400968197E+03  0.32741680085E+03  0.17300000000E+03 0.  1.
         -6    1    1    2    0  503 -0.23133766505E+02 -0.40697475511E+02 -0.17330085146E+03  0.24930631918E+03  0.17300000000E+03 0.  1.
<mgrwt>
<rscale>  2 0.17922181E+03</rscale>
<asrwt>0</asrwt>
<pdfrwt beam="1">  1       21 0.52110150E-01 0.17922181E+03</pdfrwt>
<pdfrwt beam="2">  1       21 0.36616484E-01 0.17922181E+03</pdfrwt>
<totfact> 0.25329737E+04</totfact>
</mgrwt>
</event>
<event>
 4    1  0.4429256E+000  0.2941168E+03  0.7546771E-02  0.1088219E+00
         21   -1    0    0  503  502  0.00000000000E+00  0.00000000000E+00  0.21581685322E+03  0.21581685322E+03  0.00000000000E+00 0.  1.
         21   -1    0    0  501  503 -0.00000000000E+00 -0.00000000000E+00 -0.40713900986E+03  0.40713900986E+03  0.00000000000E+00 0.  1.
          6    1    1    2  501    0  0.17682601654E+03  0.15908565862E+03 -0.56870611093E+02  0.29956460624E+03  0.17300000000E+03 0.  1.
         -6    1    1    2    0  502 -0.17682601654E+03 -0.15908565862E+03 -0.13445154555E+03  0.32339125685E+03  0.17300000000E+03 0.  1.
<mgrwt>
<rscale>  2 0.29411679E+03</rscale>
<asrwt>0</asrwt>
<pdfrwt beam="1">  1       21 0.33202593E-01 0.29411679E+03</pdfrwt>
<pdfrwt beam="2">  1       21 0.62636770E-01 0.29411679E+03</pdfrwt>
<totfact> 0.19605120E+04</totfact>
</mgrwt>
</event>
<event>
 4    1  0.4429256E+000  0.2610416E+03  0.7546771E-02  0.1106519E+00
         21   -1    0    0  501  502  0.00000000000E+00  0.00000000000E+00  0.47510181481E+03  0.47510181481E+03  0.00000000000E+00 0. -1.
         21   -1    0    0  502  503 -0.00000000000E+00 -0.00000000000E+00 -0.15084991509E+03  0.15084991509E+03  0.00000000000E+00 0. -1.
          6    1    1    2  501    0 -0.10446818546E+03 -0.16522743601E+03  0.23154974576E+03  0.34893837872E+03  0.17300000000E+03 0. -1.
         -6    1    1    2    0  503  0.10446818546E+03  0.16522743601E+03  0.92702153962E+02  0.27701335118E+03  0.17300000000E+03 0. -1.
<mgrwt>
<rscale>  2 0.26104158E+03</rscale>
<asrwt>0</asrwt>
<pdfrwt beam="1">  1       21 0.73092586E-01 0.26104158E+03</pdfrwt>
<pdfrwt beam="2">  1       21 0.23207680E-01 0.26104158E+03</pdfrwt>
<totfact> 0.28392035E+04</totfact>
</mgrwt>
</event>
<event>
 4    1  0.4429256E+000  0.1824291E+03  0.7546771E-02  0.1165473E+00
         21   -1    0    0  503  502  0.00000000000E+00  0.00000000000E+00  0.14464694606E+03  0.14464694606E+03  0.00000000000E+00 0.  1.
         21   -1    0    0  501  503 -0.00000000000E+00 -0.00000000000E+00 -0.24414253360E+03  0.24414253360E+03  0.00000000000E+00 0. -1.
          6    1    1    2  501    0  0.50245102253E+02 -0.28754199673E+02 -0.96402347930E+02  0.20633416340E+03  0.17300000000E+03 0. -1.
         -6    1    1    2    0  502 -0.50245102253E+02  0.28754199673E+02 -0.30932396116E+01  0.18245531626E+03  0.17300000000E+03 0.  1.
<mgrwt>
<rscale>  2 0.18242909E+03</rscale>
<asrwt>0</asrwt>
<pdfrwt beam="1">  1       21 0.22253377E-01 0.18242909E+03</pdfrwt>
<pdfrwt beam="2">  1       21 0.37560389E-01 0.18242909E+03</pdfrwt>
<totfact> 0.12958982E+05</totfact>
</mgrwt>
</event>
<event>
 4    1  0.4429256E+000  0.2057598E+03  0.7546771E-02  0.1144968E+00
         21   -1    0    0  503  502  0.00000000000E+00  0.00000000000E+00  0.25674031102E+04  0.25674031102E+04  0.00000000000E+00 0. -1.
         21   -1    0    0  501  503 -0.00000000000E+00 -0.00000000000E+00 -0.71544003580E+02  0.71544003580E+02  0.00000000000E+00 0. -1.
          6    1    1    2  501    0 -0.96108228570E+02 -0.56314304378E+02  0.90465320448E+02  0.22476891840E+03  0.17300000000E+03 0. -1.
         -6    1    1    2    0  502  0.96108228570E+02  0.56314304378E+02  0.24053937862E+04  0.24141781954E+04  0.17300000000E+03 0. -1.
<mgrwt>
<rscale>  2 0.20575979E+03</rscale>
<asrwt>0</asrwt>
<pdfrwt beam="1">  1       21 0.39498502E+00 0.20575979E+03</pdfrwt>
<pdfrwt beam="2">  1       21 0.11006772E-01 0.20575979E+03</pdfrwt>
<totfact> 0.62792583E+02</totfact>
</mgrwt>
</event>
<event>
 4    1  0.4429256E+000  0.1731306E+03  0.7546771E-02  0.1174622E+00
         21   -1    0    0  503  502  0.00000000000E+00  0.00000000000E+00  0.32584676946E+03  0.32584676946E+03  0.00000000000E+00 0. -1.
         21   -1    0    0  501  503 -0.00000000000E+00 -0.00000000000E+00 -0.97602090352E+02  0.97602090352E+02  0.00000000000E+00 0. -1.
          6    1    1    2  501    0  0.66903242266E+01  0.66501079797E+00  0.16489806965E+03  0.23909323715E+03  0.17300000000E+03 0. -1.
         -6    1    1    2    0  502 -0.66903242266E+01 -0.66501079797E+00  0.63346609462E+02  0.18435562266E+03  0.17300000000E+03 0. -1.
<mgrwt>
<rscale>  2 0.17313059E+03</rscale>
<asrwt>0</asrwt>
<pdfrwt beam="1">  1       21 0.50130272E-01 0.17313059E+03</pdfrwt>
<pdfrwt beam="2">  1       21 0.15015706E-01 0.17313059E+03</pdfrwt>
<totfact> 0.14934549E+05</totfact>
</mgrwt>
</event>
<event>
 4    1  0.4429256E+000  0.2140657E+03  0.7546771E-02  0.1138386E+00
         21   -1    0    0  501  502  0.00000000000E+00  0.00000000000E+00  0.82420327119E+03  0.82420327119E+03  0.00000000000E+00 0. -1.
         21   -1    0    0  502  503 -0.00000000000E+00 -0.00000000000E+00 -0.55977995262E+02  0.55977995262E+02  0.00000000000E+00 0.  1.
          6    1    1    2  501    0 -0.11480276037E+03 -0.52110048263E+02  0.42036771579E+03  0.47173419147E+03  0.17300000000E+03 0. -1.
         -6    1    1    2    0  503  0.11480276037E+03  0.52110048263E+02  0.34785756014E+03  0.40844707499E+03  0.17300000000E+03 0.  1.
<mgrwt>
<rscale>  2 0.21406572E+03</rscale>
<asrwt>0</asrwt>
<pdfrwt beam="1">  1       21 0.12680049E+00 0.21406572E+03</pdfrwt>
<pdfrwt beam="2">  1       21 0.86119998E-02 0.21406572E+03</pdfrwt>
<totfact> 0.48011371E+04</totfact>
</mgrwt>
</event>
<event>
 4    1  0.4429256E+000  0.4842285E+03  0.7546771E-02  0.1017979E+00
         21   -1    0    0  501  502  0.00000000000E+00  0.00000000000E+00  0.26710031840E+03  0.26710031840E+03  0.00000000000E+00 0.  1.
         21   -1    0    0  502  503 -0.00000000000E+00 -0.00000000000E+00 -0.89677329749E+03  0.89677329749E+03  0.00000000000E+00 0. -1.
          6    1    1    2  501    0 -0.40930383748E+03  0.19240215685E+03 -0.39934395703E+03  0.62765660783E+03  0.17300000000E+03 0. -1.
         -6    1    1    2    0  503  0.40930383748E+03 -0.19240215685E+03 -0.23032902205E+03  0.53621700806E+03  0.17300000000E+03 0.  1.
<mgrwt>
<rscale>  2 0.48422848E+03</rscale>
<asrwt>0</asrwt>
<pdfrwt beam="1">  1       21 0.41092356E-01 0.48422848E+03</pdfrwt>
<pdfrwt beam="2">  1       21 0.13796512E+00 0.48422848E+03</pdfrwt>
<totfact> 0.17918813E+03</totfact>
</mgrwt>
</event>
<event>
 4    1  0.4429256E+000  0.2960649E+03  0.7546771E-02  0.1087224E+00
         21   -1    0    0  501  502  0.00000000000E+00  0.00000000000E+00  0.39332744600E+03  0.39332744600E+03  0.00000000000E+00 0. -1.
         21   -1    0    0  502  503 -0.00000000000E+00 -0.00000000000E+00 -0.60244485864E+03  0.60244485864E+03  0.00000000000E+00 0.  1.
          6    1    1    2  501    0  0.17769480529E+03  0.16170950988E+03  0.29065276172E+03  0.41488966883E+03  0.17300000000E+03 0. -1.
         -6    1    1    2    0  503 -0.17769480529E+03 -0.16170950988E+03 -0.49977017435E+03  0.58088263581E+03  0.17300000000E+03 0.  1.
<mgrwt>
<rscale>  2 0.29606487E+03</rscale>
<asrwt>0</asrwt>
<pdfrwt beam="1">  1       21 0.60511914E-01 0.29606487E+03</pdfrwt>
<pdfrwt beam="2">  1       21 0.92683825E-01 0.29606487E+03</pdfrwt>
<totfact> 0.23169862E+03</totfact>
</mgrwt>
</event>
<event>
 4    1  0.4429256E+000  0.3002903E+03  0.7546771E-02  0.1085096E+00
         21   -1    0    0  501  502  0.00000000000E+00  0.00000000000E+00  0.16007731547E+03  0.16007731547E+03  0.00000000000E+00 0. -1.
         21   -1    0    0  502  503 -0.00000000000E+00 -0.00000000000E+00 -0.94578627665E+03  0.94578627665E+03  0.00000000000E+00 0.  1.
          6    1    1    2  501    0 -0.86205290272E+02  0.22981284040E+03 -0.41234727375E+02  0.30310822560E+03  0.17300000000E+03 0. -1.
         -6    1    1    2    0  503  0.86205290272E+02 -0.22981284040E+03 -0.74447423380E+03  0.80275536652E+03  0.17300000000E+03 0.  1.
<mgrwt>
<rscale>  2 0.30029035E+03</rscale>
<asrwt>0</asrwt>
<pdfrwt beam="1">  1       21 0.24627280E-01 0.30029035E+03</pdfrwt>
<pdfrwt beam="2">  1       21 0.14550558E+00 0.30029035E+03</pdfrwt>
<totfact> 0.46876857E+03</totfact>
</mgrwt>
</event>
<event>
 4    1  0.4429256E+000  0.2032554E+03  0.7546771E-02  0.1147021E+00
         21   -1    0    0  501  502  0.00000000000E+00  0.00000000000E+00  0.18523428131E+03  0.18523428131E+03  0.00000000000E+00 0. -1.
         21   -1    0    0  502  503 -0.00000000000E+00 -0.00000000000E+00 -0.23264531691E+03  0.23264531691E+03  0.00000000000E+00 0. -1.
          6    1    1    2  501    0  0.42991537228E+02  0.97649887256E+02 -0.66183057352E+02  0.21375913977E+03  0.17300000000E+03 0. -1.
         -6    1    1    2    0  503 -0.42991537228E+02 -0.97649887256E+02  0.18772021753E+02  0.20412045844E+03  0.17300000000E+03 0. -1.
<mgrwt>
<rscale>  2 0.20325544E+03</rscale>
<asrwt>0</asrwt>
<pdfrwt beam="1">  1       21 0.28497582E-01 0.20325544E+03</pdfrwt>
<pdfrwt beam="2">  1       21 0.35791587E-01 0.20325544E+03</pdfrwt>
<totfact> 0.88242052E+04</totfact>
</mgrwt>
</event>
<event>
 4    1  0.4429256E+000  0.2396751E+03  0.7546771E-02  0.1120009E+00
         21   -1    0    0  501  502  0.00000000000E+00  0.00000000000E+00  0.43100295025E+02  0.43100295025E+02  0.00000000000E+00 0.  1.
         21   -1    0    0  502  503 -0.00000000000E+00 -0.00000000000E+00 -0.15456997486E+04  0.15456997486E+04  0.00000000000E+00 0.  1.
          6    1    1    2  501    0 -0.16555105048E+03  0.10392423751E+02 -0.45647604160E+03  0.51557204088E+03  0.17300000000E+03 0.  1.
         -6    1    1    2    0  503  0.16555105048E+03 -0.10392423751E+02 -0.10461234119E+04  0.10732280027E+04  0.17300000000E+03 0.  1.
<mgrwt>
<rscale>  2 0.23967510E+03</rscale>
<asrwt>0</asrwt>
<pdfrwt beam="1">  1       21 0.66308139E-02 0.23967510E+03</pdfrwt>
<pdfrwt beam="2">  1       21 0.23779999E+00 0.23967510E+03</pdfrwt>
<totfact> 0.12545027E+04</totfact>
</mgrwt>
</event>
<event>
 4    1  0.4429256E+000  0.2255706E+03  0.7546771E-02  0.1129797E+00
         21   -1    0    0  501  502  0.00000000000E+00  0.00000000000E+00  0.49462260859E+02  0.49462260859E+02  0.00000000000E+00 0. -1.
         21   -1    0    0  502  503 -0.00000000000E+00 -0.00000000000E+00 -0.10916772584E+04  0.10916772584E+04  0.00000000000E+00 0. -1.
          6    1    1    2  501    0 -0.11471916666E+02 -0.14429647929E+03 -0.38407108285E+03  0.44541292694E+03  0.17300000000E+03 0. -1.
         -6    1    1    2    0  503  0.11471916666E+02  0.14429647929E+03 -0.65814391467E+03  0.69572659230E+03  0.17300000000E+03 0. -1.
<mgrwt>
<rscale>  2 0.22557056E+03</rscale>
<asrwt>0</asrwt>
<pdfrwt beam="1">  1       21 0.76095796E-02 0.22557056E+03</pdfrwt>
<pdfrwt beam="2">  1       21 0.16795033E+00 0.22557056E+03</pdfrwt>
<totfact> 0.28282311E+04</totfact>
</mgrwt>
</event>
<event>
 4    1  0.4429256E+000  0.2138504E+03  0.7546771E-02  0.1138553E+00
         21   -1    0    0  503  502  0.00000000000E+00  0.00000000000E+00  0.12801331901E+04  0.12801331901E+04  0.00000000000E+00 0.  1.
         21   -1    0    0  501  503 -0.00000000000E+00 -0.00000000000E+00 -0.38545348456E+02  0.38545348456E+02  0.00000000000E+00 0. -1.
          6    1    1    2  501    0 -0.55518431860E+01 -0.12558736260E+03  0.44242490373E+03  0.49139780632E+03  0.17300000000E+03 0. -1.
         -6    1    1    2    0  502  0.55518431860E+01  0.12558736260E+03  0.79916293792E+03  0.82728073225E+03  0.17300000000E+03 0.  1.
<mgrwt>
<rscale>  2 0.21385044E+03</rscale>
<asrwt>0</asrwt>
<pdfrwt beam="1">  1       21 0.19694354E+00 0.21385044E+03</pdfrwt>
<pdfrwt beam="2">  1       21 0.59300546E-02 0.21385044E+03</pdfrwt>
<totfact> 0.27849034E+04</totfact>
</mgrwt>
</event>
<event>
 4    1  0.4429256E+000  0.2132415E+03  0.7546771E-02  0.1139024E+00
         21   -1    0    0  501  502  0.00000000000E+00  0.00000000000E+00  0.13231886751E+04  0.13231886751E+04  0.00000000000E+00 0. -1.
         21   -1    0    0  502  503 -0.00000000000E+00 -0.00000000000E+00 -0.34557963322E+02  0.34557963322E+02  0.00000000000E+00 0.  1.
          6    1    1    2  501    0 -0.28243893664E+02 -0.12142985498E+03  0.69498935316E+03  0.72696776285E+03  0.17300000000E+03 0.  1.
         -6    1    1    2    0  503  0.28243893664E+02  0.12142985498E+03  0.59364135859E+03  0.63077887555E+03  0.17300000000E+03 0.  1.
<mgrwt>
<rscale>  2 0.21324148E+03</rscale>
<asrwt>0</asrwt>
<pdfrwt beam="1">  1       21 0.20356745E+00 0.21324148E+03</pdfrwt>
<pdfrwt beam="2">  1       21 0.53166108E-02 0.21324148E+03</pdfrwt>
<totfact> 0.30433571E+04</totfact>
</mgrwt>
</event>
<event>
 4    1  0.4429256E+000  0.2309750E+03  0.7546771E-02  0.1125955E+00
         21   -1    0    0  503  502  0.00000000000E+00  0.00000000000E+00  0.86534774757E+02  0.86534774757E+02  0.00000000000E+00 0.  1.
         21   -1    0    0  501  503 -0.00000000000E+00 -0.00000000000E+00 -0.73155331063E+03  0.73155331063E+03  0.00000000000E+00 0. -1.
          6    1    1    2  501    0  0.12503819744E+03  0.88237858411E+02 -0.48472000176E+03  0.53693849795E+03  0.17300000000E+03 0. -1.
         -6    1    1    2    0  502 -0.12503819744E+03 -0.88237858411E+02 -0.16029853411E+03  0.28114958743E+03  0.17300000000E+03 0.  1.
<mgrwt>
<rscale>  2 0.23097504E+03</rscale>
<asrwt>0</asrwt>
<pdfrwt beam="1">  1       21 0.13313042E-01 0.23097504E+03</pdfrwt>
<pdfrwt beam="2">  1       21 0.11254666E+00 0.23097504E+03</pdfrwt>
<totfact> 0.29453212E+04</totfact>
</mgrwt>
</event>
<event>
 4    1  0.4429256E+000  0.2113303E+03  0.7546771E-02  0.1140517E+00
         21   -1    0    0  501  502  0.00000000000E+00  0.00000000000E+00  0.27665855237E+03  0.27665855237E+03  0.00000000000E+00 0.  1.
         21   -1    0    0  502  503 -0.00000000000E+00 -0.00000000000E+00 -0.17597345612E+03  0.17597345612E+03  0.00000000000E+00 0. -1.
          6    1    1    2  501    0  0.95515410605E+02 -0.74888501756E+02  0.11540837486E+03  0.24078948139E+03  0.17300000000E+03 0.  1.
         -6    1    1    2    0  503 -0.95515410605E+02  0.74888501756E+02 -0.14723278605E+02  0.21184252711E+03  0.17300000000E+03 0.  1.
<mgrwt>
<rscale>  2 0.21133027E+03</rscale>
<asrwt>0</asrwt>
<pdfrwt beam="1">  1       21 0.42562854E-01 0.21133027E+03</pdfrwt>
<pdfrwt beam="2">  1       21 0.27072839E-01 0.21133027E+03</pdfrwt>
<totfact> 0.68473012E+04</totfact>
</mgrwt>
</event>
<event>
 4    1  0.4429256E+000  0.2011933E+03  0.7546771E-02  0.1148736E+00
         21   -1    0    0  503  502  0.00000000000E+00  0.00000000000E+00  0.13532278409E+03  0.13532278409E+03  0.00000000000E+00 0. -1.
         21   -1    0    0  501  503 -0.00000000000E+00 -0.00000000000E+00 -0.60426174383E+03  0.60426174383E+03  0.00000000000E+00 0. -1.
          6    1    1    2  501    0 -0.91761491900E+02 -0.46147353692E+02 -0.49724858709E+03  0.53640927193E+03  0.17300000000E+03 0. -1.
         -6    1    1    2    0  502  0.91761491900E+02  0.46147353692E+02  0.28309627344E+02  0.20317525600E+03  0.17300000000E+03 0. -1.
<mgrwt>
<rscale>  2 0.20119331E+03</rscale>
<asrwt>0</asrwt>
<pdfrwt beam="1">  1       21 0.20818890E-01 0.20119331E+03</pdfrwt>
<pdfrwt beam="2">  1       21 0.92963342E-01 0.20119331E+03</pdfrwt>
<totfact> 0.20756865E+04</totfact>
</mgrwt>
</event>
<event>
 4    1  0.4429256E+000  0.2262302E+03  0.7546771E-02  0.1129322E+00
         21   -1    0    0  501  502  0.00000000000E+00  0.00000000000E+00  0.10771148915E+03  0.10771148915E+03  0.00000000000E+00 0.  1.
         21   -1    0    0  502  503 -0.00000000000E+00 -0.00000000000E+00 -0.99709552415E+03  0.99709552415E+03  0.00000000000E+00 0.  1.
          6    1    1    2  501    0 -0.95388346933E+02 -0.11023687232E+03 -0.45026383920E+02  0.23066746627E+03  0.17300000000E+03 0.  1.
         -6    1    1    2    0  503  0.95388346933E+02  0.11023687232E+03 -0.84435765108E+03  0.87413954703E+03  0.17300000000E+03 0.  1.
<mgrwt>
<rscale>  2 0.22623020E+03</rscale>
<asrwt>0</asrwt>
<pdfrwt beam="1">  1       21 0.16570998E-01 0.22623020E+03</pdfrwt>
<pdfrwt beam="2">  1       21 0.15339931E+00 0.22623020E+03</pdfrwt>
<totfact> 0.89862456E+03</totfact>
</mgrwt>
</event>
<event>
 4    1  0.4429256E+000  0.2527272E+03  0.7546771E-02  0.1111593E+00
         21   -1    0    0  501  502  0.00000000000E+00  0.00000000000E+00  0.60199478332E+02  0.60199478332E+02  0.00000000000E+00 0.  1.
         21   -1    0    0  502  503 -0.00000000000E+00 -0.00000000000E+00 -0.16351753570E+04  0.16351753570E+04  0.00000000000E+00 0. -1.
          6    1    1    2  501    0  0.42557266150E+02  0.17925099660E+03 -0.28516888705E+03  0.38104111960E+03  0.17300000000E+03 0.  1.
         -6    1    1    2    0  503 -0.42557266150E+02 -0.17925099660E+03 -0.12898069916E+04  0.13143337157E+04  0.17300000000E+03 0. -1.
<mgrwt>
<rscale>  2 0.25272721E+03</rscale>
<asrwt>0</asrwt>
<pdfrwt beam="1">  1       21 0.92614563E-02 0.25272721E+03</pdfrwt>
<pdfrwt beam="2">  1       21 0.25156549E+00 0.25272721E+03</pdfrwt>
<totfact> 0.57272356E+03</totfact>
</mgrwt>
</event>
<event>
 4    1  0.4429256E+000  0.1758362E+03  0.7546771E-02  0.1171895E+00
         21   -1    0    0  503  502  0.00000000000E+00  0.00000000000E+00  0.30683993091E+03  0.30683993091E+03  0.00000000000E+00 0.  1.
         21   -1    0    0  501  503 -0.00000000000E+00 -0.00000000000E+00 -0.10631711882E+03  0.10631711882E+03  0.00000000000E+00 0.  1.
          6    1    1    2  501    0  0.12588904478E+02 -0.28825325400E+02  0.53048904415E+02  0.18366427568E+03  0.17300000000E+03 0.  1.
         -6    1    1    2    0  502 -0.12588904478E+02  0.28825325400E+02  0.14747390767E+03  0.22949277406E+03  0.17300000000E+03 0.  1.
<mgrwt>
<rscale>  2 0.17583623E+03</rscale>
<asrwt>0</asrwt>
<pdfrwt beam="1">  1       21 0.47206143E-01 0.17583623E+03</pdfrwt>
<pdfrwt beam="2">  1       21 0.16356480E-01 0.17583623E+03</pdfrwt>
<totfact> 0.14459144E+05</totfact>
</mgrwt>
</event>
<event>
 4    1  0.4429256E+000  0.3185260E+03  0.7546771E-02  0.1076330E+00
         21   -1    0    0  501  502  0.00000000000E+00  0.00000000000E+00  0.32327816912E+03  0.32327816912E+03  0.00000000000E+00 0. -1.
         21   -1    0    0  502  503 -0.00000000000E+00 -0.00000000000E+00 -0.34606444112E+03  0.34606444112E+03  0.00000000000E+00 0.  1.
          6    1    1    2  501    0  0.16712261830E+03 -0.20880570483E+03  0.90726267387E+02  0.33119487845E+03  0.17300000000E+03 0. -1.
         -6    1    1    2    0  503 -0.16712261830E+03  0.20880570483E+03 -0.11351253938E+03  0.33814773179E+03  0.17300000000E+03 0.  1.
<mgrwt>
<rscale>  2 0.31852597E+03</rscale>
<asrwt>0</asrwt>
<pdfrwt beam="1">  1       21 0.49735103E-01 0.31852597E+03</pdfrwt>
<pdfrwt beam="2">  1       21 0.53240683E-01 0.31852597E+03</pdfrwt>
<totfact> 0.12048457E+04</totfact>
</mgrwt>
</event>
<event>
 4    1  0.4429256E+000  0.2012816E+03  0.7546771E-02  0.1148662E+00
         21   -1    0    0  501  502  0.00000000000E+00  0.00000000000E+00  0.14008067846E+03  0.14008067846E+03  0.00000000000E+00 0.  1.
         21   -1    0    0  502  503 -0.00000000000E+00 -0.00000000000E+00 -0.31651163523E+03  0.31651163523E+03  0.00000000000E+00 0. -1.
          6    1    1    2  501    0  0.64383154160E+02  0.80250269451E+02 -0.21179290161E+02  0.20239283243E+03  0.17300000000E+03 0.  1.
         -6    1    1    2    0  503 -0.64383154160E+02 -0.80250269451E+02 -0.15525166661E+03  0.25419948126E+03  0.17300000000E+03 0. -1.
<mgrwt>
<rscale>  2 0.20128163E+03</rscale>
<asrwt>0</asrwt>
<pdfrwt beam="1">  1       21 0.21550873E-01 0.20128163E+03</pdfrwt>
<pdfrwt beam="2">  1       21 0.48694098E-01 0.20128163E+03</pdfrwt>
<totfact> 0.80495403E+04</totfact>
</mgrwt>
</event>
<event>
 4    1  0.4429256E+000  0.1873846E+03  0.7546771E-02  0.1160842E+00
         21   -1    0    0  503  502  0.00000000000E+00  0.00000000000E+00  0.17891698724E+03  0.17891698724E+03  0.00000000000E+00 0.  1.
         21   -1    0    0  501  503 -0.00000000000E+00 -0.00000000000E+00 -0.22408998965E+03  0.22408998965E+03  0.00000000000E+00 0.  1.
          6    1    1    2  501    0  0.74811188341E+01 -0.71610316085E+02  0.48433730007E+02  0.19354283947E+03  0.17300000000E+03 0.  1.
         -6    1    1    2    0  502 -0.74811188341E+01  0.71610316085E+02 -0.93606732419E+02  0.20946413741E+03  0.17300000000E+03 0.  1.
<mgrwt>
<rscale>  2 0.18738464E+03</rscale>
<asrwt>0</asrwt>
<pdfrwt beam="1">  1       21 0.27525690E-01 0.18738464E+03</pdfrwt>
<pdfrwt beam="2">  1       21 0.34475383E-01 0.18738464E+03</pdfrwt>
<totfact> 0.10230744E+05</totfact>
</mgrwt>
</event>
<event>
 4    1  0.4429256E+000  0.1929504E+03  0.7546771E-02  0.1155827E+00
         21   -1    0    0  501  502  0.00000000000E+00  0.00000000000E+00  0.19669368339E+04  0.19669368339E+04  0.00000000000E+00 0. -1.
         21   -1    0    0  502  503 -0.00000000000E+00 -0.00000000000E+00 -0.32086891406E+02  0.32086891406E+02  0.00000000000E+00 0. -1.
          6    1    1    2  501    0  0.48478608494E+02 -0.70361192879E+02  0.16075080724E+04  0.16190466564E+04  0.17300000000E+03 0. -1.
         -6    1    1    2    0  503 -0.48478608494E+02  0.70361192879E+02  0.32734187017E+03  0.37997706893E+03  0.17300000000E+03 0. -1.
<mgrwt>
<rscale>  2 0.19295044E+03</rscale>
<asrwt>0</asrwt>
<pdfrwt beam="1">  1       21 0.30260557E+00 0.19295044E+03</pdfrwt>
<pdfrwt beam="2">  1       21 0.49364464E-02 0.19295044E+03</pdfrwt>
<totfact> 0.90616919E+03</totfact>
</mgrwt>
</event>
<event>
 4    1  0.4429256E+000  0.2170903E+03  0.7546771E-02  0.1136071E+00
         21   -1    0    0  503  502  0.00000000000E+00  0.00000000000E+00  0.57045391356E+02  0.57045391356E+02  0.00000000000E+00 0. -1.
         21   -1    0    0  501  503 -0.00000000000E+00 -0.00000000000E+00 -0.83265293486E+03  0.83265293486E+03  0.00000000000E+00 0.  1.
          6    1    1    2  501    0  0.13104739516E+03  0.50783562370E+01 -0.34849928423E+03  0.41058490059E+03  0.17300000000E+03 0.  1.
         -6    1    1    2    0  502 -0.13104739516E+03 -0.50783562370E+01 -0.42710825927E+03  0.47911342562E+03  0.17300000000E+03 0.  1.
<mgrwt>
<rscale>  2 0.21709033E+03</rscale>
<asrwt>0</asrwt>
<pdfrwt beam="1">  1       21 0.87762142E-02 0.21709033E+03</pdfrwt>
<pdfrwt beam="2">  1       21 0.12810045E+00 0.21709033E+03</pdfrwt>
<totfact> 0.45196510E+04</totfact>
</mgrwt>
</event>
<event>
 4    1  0.4429256E+000  0.2670202E+03  0.7546771E-02  0.1102997E+00
         21   -1    0    0  503  502  0.00000000000E+00  0.00000000000E+00  0.18916621326E+04  0.18916621326E+04  0.00000000000E+00 0.  1.
         21   -1    0    0  501  503 -0.00000000000E+00 -0.00000000000E+00 -0.44252224869E+02  0.44252224869E+02  0.00000000000E+00 0.  1.
          6    1    1    2  501    0  0.90617498817E+02 -0.18209688494E+03  0.55100392212E+03  0.61229496877E+03  0.17300000000E+03 0.  1.
         -6    1    1    2    0  502 -0.90617498817E+02  0.18209688494E+03  0.12964059856E+04  0.13236193887E+04  0.17300000000E+03 0.  1.
<mgrwt>
<rscale>  2 0.26702024E+03</rscale>
<asrwt>0</asrwt>
<pdfrwt beam="1">  1       21 0.29102488E+00 0.26702024E+03</pdfrwt>
<pdfrwt beam="2">  1       21 0.68080361E-02 0.26702024E+03</pdfrwt>
<totfact> 0.56831357E+03</totfact>
</mgrwt>
</event>
<event>
 4    1  0.4429256E+000  0.1771251E+03  0.7546771E-02  0.1170615E+00
         21   -1    0    0  501  502  0.00000000000E+00  0.00000000000E+00  0.20952318000E+02  0.20952318000E+02  0.00000000000E+00 0.  1.
         21   -1    0    0  502  503 -0.00000000000E+00 -0.00000000000E+00 -0.16143597100E+04  0.16143597100E+04  0.00000000000E+00 0.  1.
          6    1    1    2  501    0 -0.19509614105E+02 -0.32614316742E+02 -0.57658898440E+03  0.60318171029E+03  0.17300000000E+03 0.  1.
         -6    1    1    2    0  503  0.19509614105E+02  0.32614316742E+02 -0.10168184076E+04  0.10321303177E+04  0.17300000000E+03 0.  1.
<mgrwt>
<rscale>  2 0.17712515E+03</rscale>
<asrwt>0</asrwt>
<pdfrwt beam="1">  1       21 0.32234329E-02 0.17712515E+03</pdfrwt>
<pdfrwt beam="2">  1       21 0.24836308E+00 0.17712515E+03</pdfrwt>
<totfact> 0.38675109E+04</totfact>
</mgrwt>
</event>
<event>
 4    1  0.4429256E+000  0.1886456E+03  0.7546771E-02  0.1159689E+00
         21   -1    0    0  501  502  0.00000000000E+00  0.00000000000E+00  0.85605059764E+02  0.85605059764E+02  0.00000000000E+00 0. -1.
         21   -1    0    0  502  503 -0.00000000000E+00 -0.00000000000E+00 -0.46321418994E+03  0.46321418994E+03  0.00000000000E+00 0. -1.
          6    1    1    2  501    0  0.74875850938E+02  0.71963383206E+01 -0.27667814115E+03  0.33487008545E+03  0.17300000000E+03 0. -1.
         -6    1    1    2    0  503 -0.74875850938E+02 -0.71963383206E+01 -0.10093098903E+03  0.21394916425E+03  0.17300000000E+03 0. -1.
<mgrwt>
<rscale>  2 0.18864565E+03</rscale>
<asrwt>0</asrwt>
<pdfrwt beam="1">  1       21 0.13170009E-01 0.18864565E+03</pdfrwt>
<pdfrwt beam="2">  1       21 0.71263721E-01 0.18864565E+03</pdfrwt>
<totfact> 0.88585583E+04</totfact>
</mgrwt>
</event>
<event>
 4    1  0.4429256E+000  0.3272779E+03  0.7546771E-02  0.1072348E+00
         21   -1    0    0  503  502  0.00000000000E+00  0.00000000000E+00  0.36853327840E+02  0.36853327840E+02  0.00000000000E+00 0.  1.
         21   -1    0    0  501  503 -0.00000000000E+00 -0.00000000000E+00 -0.29067879326E+04  0.29067879326E+04  0.00000000000E+00 0.  1.
          6    1    1    2  501    0  0.26566864744E+03 -0.81252753279E+02 -0.14517740868E+04  0.14882065849E+04  0.17300000000E+03 0.  1.
         -6    1    1    2    0  502 -0.26566864744E+03  0.81252753279E+02 -0.14181605179E+04  0.14554346755E+04  0.17300000000E+03 0.  1.
<mgrwt>
<rscale>  2 0.32727792E+03</rscale>
<asrwt>0</asrwt>
<pdfrwt beam="1">  1       21 0.56697408E-02 0.32727792E+03</pdfrwt>
<pdfrwt beam="2">  1       21 0.44719830E+00 0.32727792E+03</pdfrwt>
<totfact> 0.80271483E+02</totfact>
</mgrwt>
</event>
<event>
 4    1  0.4429256E+000  0.2848524E+03  0.7546771E-02  0.1093068E+00
         21   -1    0    0  503  502  0.00000000000E+00  0.00000000000E+00  0.28050294752E+03  0.28050294752E+03  0.00000000000E+00 0.  1.
         21   -1    0    0  501  503 -0.00000000000E+00 -0.00000000000E+00 -0.39132058166E+03  0.39132058166E+03  0.00000000000E+00 0. -1.
          6    1    1    2  501    0  0.19931445385E+03 -0.10717117354E+03  0.11613218551E+03  0.30761598863E+03  0.17300000000E+03 0.  1.
         -6    1    1    2    0  502 -0.19931445385E+03  0.10717117354E+03 -0.22694981965E+03  0.36420754054E+03  0.17300000000E+03 0. -1.
<mgrwt>
<rscale>  2 0.28485244E+03</rscale>
<asrwt>0</asrwt>
<pdfrwt beam="1">  1       21 0.43154299E-01 0.28485244E+03</pdfrwt>
<pdfrwt beam="2">  1       21 0.60203167E-01 0.28485244E+03</pdfrwt>
<totfact> 0.12618293E+04</totfact>
</mgrwt>
</event>
<event>
 4    1  0.4429256E+000  0.2133341E+03  0.7546771E-02  0.1138953E+00
         21   -1    0    0  501  502  0.00000000000E+00  0.00000000000E+00  0.31067910559E+03  0.31067910559E+03  0.00000000000E+00 0. -1.
         21   -1    0    0  502  503 -0.00000000000E+00 -0.00000000000E+00 -0.15969570146E+03  0.15969570146E+03  0.00000000000E+00 0. -1.
          6    1    1    2  501    0  0.11174654795E+03  0.55634010014E+02  0.14312264404E+03  0.25689594253E+03  0.17300000000E+03 0. -1.
         -6    1    1    2    0  503 -0.11174654795E+03 -0.55634010014E+02  0.78607600865E+01  0.21347886453E+03  0.17300000000E+03 0. -1.
<mgrwt>
<rscale>  2 0.21333409E+03</rscale>
<asrwt>0</asrwt>
<pdfrwt beam="1">  1       21 0.47796785E-01 0.21333409E+03</pdfrwt>
<pdfrwt beam="2">  1       21 0.24568570E-01 0.21333409E+03</pdfrwt>
<totfact> 0.64915377E+04</totfact>
</mgrwt>
</event>
<event>
 4    1  0.4429256E+000  0.1924059E+03  0.7546771E-02  0.1156309E+00
         21   -1    0    0  503  502  0.00000000000E+00  0.00000000000E+00  0.18268929696E+04  0.18268929696E+04  0.00000000000E+00 0. -1.
         21   -1    0    0  501  503 -0.00000000000E+00 -0.00000000000E+00 -0.22822290966E+02  0.22822290966E+02  0.00000000000E+00 0. -1.
          6    1    1    2  501    0  0.76692513967E+02  0.34774943921E+02  0.59238194713E+03  0.62284541397E+03  0.17300000000E+03 0. -1.
         -6    1    1    2    0  502 -0.76692513967E+02 -0.34774943921E+02  0.12116887315E+04  0.12268698466E+04  0.17300000000E+03 0. -1.
<mgrwt>
<rscale>  2 0.19240592E+03</rscale>
<asrwt>0</asrwt>
<pdfrwt beam="1">  1       21 0.28106034E+00 0.19240592E+03</pdfrwt>
<pdfrwt beam="2">  1       21 0.35111231E-02 0.19240592E+03</pdfrwt>
<totfact> 0.21384822E+04</totfact>
</mgrwt>
</event>
<event>
 4    1  0.4429256E+000  0.2089677E+03  0.7546771E-02  0.1142386E+00
         21   -1    0    0  501  502  0.00000000000E+00  0.00000000000E+00  0.31795483867E+03  0.31795483867E+03  0.00000000000E+00 0.  1.
         21   -1    0    0  502  503 -0.00000000000E+00 -0.00000000000E+00 -0.17094394291E+03  0.17094394291E+03  0.00000000000E+00 0. -1.
          6    1    1    2  501    0  0.85314408910E+02 -0.80373782988E+02  0.18188961401E+03  0.27704029498E+03  0.17300000000E+03 0.  1.
         -6    1    1    2    0  503 -0.85314408910E+02  0.80373782988E+02 -0.34878718252E+02  0.21185848660E+03  0.17300000000E+03 0. -1.
<mgrwt>
<rscale>  2 0.20896768E+03</rscale>
<asrwt>0</asrwt>
<pdfrwt beam="1">  1       21 0.48916129E-01 0.20896768E+03</pdfrwt>
<pdfrwt beam="2">  1       21 0.26299068E-01 0.20896768E+03</pdfrwt>
<totfact> 0.54404139E+04</totfact>
</mgrwt>
</event>
<event>
 4    1  0.4429256E+000  0.2039227E+03  0.7546771E-02  0.1146471E+00
         21   -1    0    0  503  502  0.00000000000E+00  0.00000000000E+00  0.45157192987E+03  0.45157192987E+03  0.00000000000E+00 0.  1.
         21   -1    0    0  501  503 -0.00000000000E+00 -0.00000000000E+00 -0.11326441070E+03  0.11326441070E+03  0.00000000000E+00 0. -1.
          6    1    1    2  501    0  0.23645741449E+02  0.10533910649E+03  0.47038489684E+02  0.20927749033E+03  0.17300000000E+03 0. -1.
         -6    1    1    2    0  502 -0.23645741449E+02 -0.10533910649E+03  0.29126902949E+03  0.35555885024E+03  0.17300000000E+03 0.  1.
<mgrwt>
<rscale>  2 0.20392265E+03</rscale>
<asrwt>0</asrwt>
<pdfrwt beam="1">  1       21 0.69472604E-01 0.20392265E+03</pdfrwt>
<pdfrwt beam="2">  1       21 0.17425294E-01 0.20392265E+03</pdfrwt>
<totfact> 0.55857903E+04</totfact>
</mgrwt>
</event>
<event>
 4    1  0.4429256E+000  0.3065496E+03  0.7546771E-02  0.1082012E+00
         21   -1    0    0  501  502  0.00000000000E+00  0.00000000000E+00  0.19472228421E+03  0.19472228421E+03  0.00000000000E+00 0.  1.
         21   -1    0    0  502  503 -0.00000000000E+00 -0.00000000000E+00 -0.62430673560E+03  0.62430673560E+03  0.00000000000E+00 0. -1.
          6    1    1    2  501    0  0.10280024773E+03 -0.23124826662E+03 -0.19687373811E+02  0.30718112643E+03  0.17300000000E+03 0.  1.
         -6    1    1    2    0  503 -0.10280024773E+03  0.23124826662E+03 -0.40989707758E+03  0.51184789338E+03  0.17300000000E+03 0. -1.
<mgrwt>
<rscale>  2 0.30654959E+03</rscale>
<asrwt>0</asrwt>
<pdfrwt beam="1">  1       21 0.29957274E-01 0.30654959E+03</pdfrwt>
<pdfrwt beam="2">  1       21 0.96047191E-01 0.30654959E+03</pdfrwt>
<totfact> 0.90346748E+03</totfact>
</mgrwt>
</event>
<event>
 4    1  0.4429256E+000  0.2596511E+03  0.7546771E-02  0.1107353E+00
         21   -1    0    0  503  502  0.00000000000E+00  0.00000000000E+00  0.19725539381E+03  0.19725539381E+03  0.00000000000E+00 0. -1.
         21   -1    0    0  501  503 -0.00000000000E+00 -0.00000000000E+00 -0.43351670343E+03  0.43351670343E+03  0.00000000000E+00 0. -1.
          6    1    1    2  501    0  0.93701071364E+02 -0.16943964935E+03 -0.26320889544E+03  0.36972639639E+03  0.17300000000E+03 0. -1.
         -6    1    1    2    0  502 -0.93701071364E+02  0.16943964935E+03  0.26947585832E+02  0.26104570085E+03  0.17300000000E+03 0. -1.
<mgrwt>
<rscale>  2 0.25965108E+03</rscale>
<asrwt>0</asrwt>
<pdfrwt beam="1">  1       21 0.30346984E-01 0.25965108E+03</pdfrwt>
<pdfrwt beam="2">  1       21 0.66694876E-01 0.25965108E+03</pdfrwt>
<totfact> 0.20716859E+04</totfact>
</mgrwt>
</event>
<event>
 4    1  0.4429256E+000  0.1928597E+03  0.7546771E-02  0.1155907E+00
         21   -1    0    0  503  502  0.00000000000E+00  0.00000000000E+00  0.18640879658E+03  0.18640879658E+03  0.00000000000E+00 0.  1.
         21   -1    0    0  501  503 -0.00000000000E+00 -0.00000000000E+00 -0.20552615568E+03  0.20552615568E+03  0.00000000000E+00 0.  1.
          6    1    1    2  501    0  0.66743336121E+02 -0.53020597651E+02 -0.43020457795E+02  0.19759963684E+03  0.17300000000E+03 0.  1.
         -6    1    1    2    0  502 -0.66743336121E+02  0.53020597651E+02  0.23903098691E+02  0.19433531542E+03  0.17300000000E+03 0.  1.
<mgrwt>
<rscale>  2 0.19285968E+03</rscale>
<asrwt>0</asrwt>
<pdfrwt beam="1">  1       21 0.28678277E-01 0.19285968E+03</pdfrwt>
<pdfrwt beam="2">  1       21 0.31619408E-01 0.19285968E+03</pdfrwt>
<totfact> 0.11184272E+05</totfact>
</mgrwt>
</event>
<event>
 4    1  0.4429256E+000  0.2282369E+03  0.7546771E-02  0.1127887E+00
         21   -1    0    0  501  502  0.00000000000E+00  0.00000000000E+00  0.38596955256E+03  0.38596955256E+03  0.00000000000E+00 0. -1.
         21   -1    0    0  502  503 -0.00000000000E+00 -0.00000000000E+00 -0.14038339786E+03  0.14038339786E+03  0.00000000000E+00 0. -1.
          6    1    1    2  501    0  0.31689728720E+02  0.14546073176E+03  0.17450105791E+03  0.28730242360E+03  0.17300000000E+03 0. -1.
         -6    1    1    2    0  503 -0.31689728720E+02 -0.14546073176E+03  0.71085096782E+02  0.23905052683E+03  0.17300000000E+03 0. -1.
<mgrwt>
<rscale>  2 0.22823686E+03</rscale>
<asrwt>0</asrwt>
<pdfrwt beam="1">  1       21 0.59379931E-01 0.22823686E+03</pdfrwt>
<pdfrwt beam="2">  1       21 0.21597446E-01 0.22823686E+03</pdfrwt>
<totfact> 0.52088279E+04</totfact>
</mgrwt>
</event>
<event>
 4    1  0.4429256E+000  0.1730026E+03  0.7546771E-02  0.1174752E+00
         21   -1    0    0  501  502  0.00000000000E+00  0.00000000000E+00  0.20018504164E+03  0.20018504164E+03  0.00000000000E+00 0.  1.
         21   -1    0    0  502  503 -0.00000000000E+00 -0.00000000000E+00 -0.14975174404E+03  0.14975174404E+03  0.00000000000E+00 0.  1.
          6    1    1    2  501    0 -0.53892205513E+00 -0.77286373651E+00  0.32230431439E+02  0.17597922737E+03  0.17300000000E+03 0. -1.
         -6    1    1    2    0  503  0.53892205513E+00  0.77286373651E+00  0.18202866156E+02  0.17395755831E+03  0.17300000000E+03 0. -1.
<mgrwt>
<rscale>  2 0.17300257E+03</rscale>
<asrwt>0</asrwt>
<pdfrwt beam="1">  1       21 0.30797699E-01 0.17300257E+03</pdfrwt>
<pdfrwt beam="2">  1       21 0.23038730E-01 0.17300257E+03</pdfrwt>
<totfact> 0.18017516E+05</totfact>
</mgrwt>
</event>
<event>
 4    1  0.4429256E+000  0.2001406E+03  0.7546771E-02  0.1149620E+00
         21   -1    0    0  501  502  0.00000000000E+00  0.00000000000E+00  0.16129976696E+02  0.16129976696E+02  0.00000000000E+00 0.  1.
         21   -1    0    0  502  503 -0.00000000000E+00 -0.00000000000E+00 -0.30241934328E+04  0.30241934328E+04  0.00000000000E+00 0. -1.
          6    1    1    2  501    0 -0.24348558670E+02 -0.97644291204E+02 -0.86116090558E+03  0.88411219040E+03  0.17300000000E+03 0. -1.
         -6    1    1    2    0  503  0.24348558670E+02  0.97644291204E+02 -0.21469025505E+04  0.21562112191E+04  0.17300000000E+03 0. -1.
<mgrwt>
<rscale>  2 0.20014060E+03</rscale>
<asrwt>0</asrwt>
<pdfrwt beam="1">  1       21 0.24815370E-02 0.20014060E+03</pdfrwt>
<pdfrwt beam="2">  1       21 0.46526013E+00 0.20014060E+03</pdfrwt>
<totfact> 0.28142693E+03</totfact>
</mgrwt>
</event>
<event>
 4    1  0.4429256E+000  0.2055489E+03  0.7546771E-02  0.1145140E+00
         21   -1    0    0  503  502  0.00000000000E+00  0.00000000000E+00  0.60979841113E+02  0.60979841113E+02  0.00000000000E+00 0. -1.
         21   -1    0    0  501  503 -0.00000000000E+00 -0.00000000000E+00 -0.70015667059E+03  0.70015667059E+03  0.00000000000E+00 0. -1.
          6    1    1    2  501    0 -0.11094576804E+03  0.35207722427E+01 -0.28073202714E+03  0.34793796910E+03  0.17300000000E+03 0. -1.
         -6    1    1    2    0  502  0.11094576804E+03 -0.35207722427E+01 -0.35844480233E+03  0.41319854260E+03  0.17300000000E+03 0. -1.
<mgrwt>
<rscale>  2 0.20554892E+03</rscale>
<asrwt>0</asrwt>
<pdfrwt beam="1">  1       21 0.93815148E-02 0.20554892E+03</pdfrwt>
<pdfrwt beam="2">  1       21 0.10771640E+00 0.20554892E+03</pdfrwt>
<totfact> 0.61996873E+04</totfact>
</mgrwt>
</event>
<event>
 4    1  0.4429256E+000  0.1884345E+03  0.7546771E-02  0.1159881E+00
         21   -1    0    0  501  502  0.00000000000E+00  0.00000000000E+00  0.71070800633E+02  0.71070800633E+02  0.00000000000E+00 0. -1.
         21   -1    0    0  502  503 -0.00000000000E+00 -0.00000000000E+00 -0.52872437333E+03  0.52872437333E+03  0.00000000000E+00 0. -1.
          6    1    1    2  501    0 -0.38709274923E+02 -0.63876075402E+02 -0.15845074996E+03  0.24619951490E+03  0.17300000000E+03 0.  1.
         -6    1    1    2    0  503  0.38709274923E+02  0.63876075402E+02 -0.29920282274E+03  0.35359565906E+03  0.17300000000E+03 0.  1.
<mgrwt>
<rscale>  2 0.18843450E+03</rscale>
<asrwt>0</asrwt>
<pdfrwt beam="1">  1       21 0.10933970E-01 0.18843450E+03</pdfrwt>
<pdfrwt beam="2">  1       21 0.81342209E-01 0.18843450E+03</pdfrwt>
<totfact> 0.91907604E+04</totfact>
</mgrwt>
</event>
<event>
 4    1  0.4429256E+000  0.1931556E+03  0.7546771E-02  0.1155646E+00
         21   -1    0    0  501  502  0.00000000000E+00  0.00000000000E+00  0.80538882004E+02  0.80538882004E+02  0.00000000000E+00 0. -1.
         21   -1    0    0  502  503 -0.00000000000E+00 -0.00000000000E+00 -0.61019271884E+03  0.61019271884E+03  0.00000000000E+00 0. -1.
          6    1    1    2  501    0  0.85326546054E+02  0.99740274266E+01 -0.95342531491E+02  0.21540496511E+03  0.17300000000E+03 0. -1.
         -6    1    1    2    0  503 -0.85326546054E+02 -0.99740274266E+01 -0.43431130535E+03  0.47532663573E+03  0.17300000000E+03 0. -1.
<mgrwt>
<rscale>  2 0.19315564E+03</rscale>
<asrwt>0</asrwt>
<pdfrwt beam="1">  1       21 0.12390597E-01 0.19315564E+03</pdfrwt>
<pdfrwt beam="2">  1       21 0.93875802E-01 0.19315564E+03</pdfrwt>
<totfact> 0.52768079E+04</totfact>
</mgrwt>
</event>
<event>
 4    1  0.4429256E+000  0.4632675E+03  0.7546771E-02  0.1023838E+00
         21   -1    0    0  503  502  0.00000000000E+00  0.00000000000E+00  0.45386060593E+03  0.45386060593E+03  0.00000000000E+00 0.  1.
         21   -1    0    0  501  503 -0.00000000000E+00 -0.00000000000E+00 -0.48361259628E+03  0.48361259628E+03  0.00000000000E+00 0. -1.
          6    1    1    2  501    0 -0.39934302779E+03  0.15878583055E+03 -0.84738918849E+02  0.47095379625E+03  0.17300000000E+03 0.  1.
         -6    1    1    2    0  502  0.39934302779E+03 -0.15878583055E+03  0.54986928505E+02  0.46651940596E+03  0.17300000000E+03 0. -1.
<mgrwt>
<rscale>  2 0.46326752E+03</rscale>
<asrwt>0</asrwt>
<pdfrwt beam="1">  1       21 0.69824709E-01 0.46326752E+03</pdfrwt>
<pdfrwt beam="2">  1       21 0.74401938E-01 0.46326752E+03</pdfrwt>
<totfact> 0.26065499E+03</totfact>
</mgrwt>
</event>
<event>
 4    1  0.4429256E+000  0.2343792E+03  0.7546771E-02  0.1123595E+00
         21   -1    0    0  503  502  0.00000000000E+00  0.00000000000E+00  0.16160905819E+03  0.16160905819E+03  0.00000000000E+00 0.  1.
         21   -1    0    0  501  503 -0.00000000000E+00 -0.00000000000E+00 -0.34215568019E+03  0.34215568019E+03  0.00000000000E+00 0. -1.
          6    1    1    2  501    0 -0.98728835239E+02 -0.12352015714E+03 -0.11064909801E+03  0.25918494366E+03  0.17300000000E+03 0.  1.
         -6    1    1    2    0  502  0.98728835239E+02  0.12352015714E+03 -0.69897523996E+02  0.24457979473E+03  0.17300000000E+03 0.  1.
<mgrwt>
<rscale>  2 0.23437921E+03</rscale>
<asrwt>0</asrwt>
<pdfrwt beam="1">  1       21 0.24862932E-01 0.23437921E+03</pdfrwt>
<pdfrwt beam="2">  1       21 0.52639336E-01 0.23437921E+03</pdfrwt>
<totfact> 0.51379651E+04</totfact>
</mgrwt>
</event>
<event>
 4    1  0.4429256E+000  0.2302904E+03  0.7546771E-02  0.1126435E+00
         21   -1    0    0  501  502  0.00000000000E+00  0.00000000000E+00  0.48196132605E+02  0.48196132605E+02  0.00000000000E+00 0. -1.
         21   -1    0    0  502  503 -0.00000000000E+00 -0.00000000000E+00 -0.11441040409E+04  0.11441040409E+04  0.00000000000E+00 0. -1.
          6    1    1    2  501    0 -0.13466638079E+03 -0.70495788410E+02 -0.43140157835E+03  0.48902046184E+03  0.17300000000E+03 0. -1.
         -6    1    1    2    0  503  0.13466638079E+03  0.70495788410E+02 -0.66450632993E+03  0.70327971164E+03  0.17300000000E+03 0. -1.
<mgrwt>
<rscale>  2 0.23029045E+03</rscale>
<asrwt>0</asrwt>
<pdfrwt beam="1">  1       21 0.74147896E-02 0.23029045E+03</pdfrwt>
<pdfrwt beam="2">  1       21 0.17601601E+00 0.23029045E+03</pdfrwt>
<totfact> 0.25890091E+04</totfact>
</mgrwt>
</event>
<event>
 4    1  0.4429256E+000  0.1872431E+03  0.7546771E-02  0.1160972E+00
         21   -1    0    0  501  502  0.00000000000E+00  0.00000000000E+00  0.18674401706E+03  0.18674401706E+03  0.00000000000E+00 0. -1.
         21   -1    0    0  502  503 -0.00000000000E+00 -0.00000000000E+00 -0.21856264332E+03  0.21856264332E+03  0.00000000000E+00 0.  1.
          6    1    1    2  501    0  0.69670712264E+02 -0.16642860015E+02  0.60189064157E+02  0.19667922204E+03  0.17300000000E+03 0. -1.
         -6    1    1    2    0  503 -0.69670712264E+02  0.16642860015E+02 -0.92007690418E+02  0.20862743835E+03  0.17300000000E+03 0. -1.
<mgrwt>
<rscale>  2 0.18724314E+03</rscale>
<asrwt>0</asrwt>
<pdfrwt beam="1">  1       21 0.28729849E-01 0.18724314E+03</pdfrwt>
<pdfrwt beam="2">  1       21 0.33625022E-01 0.18724314E+03</pdfrwt>
<totfact> 0.98950569E+04</totfact>
</mgrwt>
</event>
<event>
 4    1  0.4429256E+000  0.2389070E+03  0.7546771E-02  0.1120523E+00
         21   -1    0    0  501  502  0.00000000000E+00  0.00000000000E+00  0.98382116451E+02  0.98382116451E+02  0.00000000000E+00 0.  1.
         21   -1    0    0  502  503 -0.00000000000E+00 -0.00000000000E+00 -0.60476327272E+03  0.60476327272E+03  0.00000000000E+00 0. -1.
          6    1    1    2  501    0 -0.10932894143E+03 -0.12326686157E+03 -0.32411462495E+03  0.40264975687E+03  0.17300000000E+03 0.  1.
         -6    1    1    2    0  503  0.10932894143E+03  0.12326686157E+03 -0.18226653132E+03  0.30049563230E+03  0.17300000000E+03 0.  1.
<mgrwt>
<rscale>  2 0.23890696E+03</rscale>
<asrwt>0</asrwt>
<pdfrwt beam="1">  1       21 0.15135710E-01 0.23890696E+03</pdfrwt>
<pdfrwt beam="2">  1       21 0.93040505E-01 0.23890696E+03</pdfrwt>
<totfact> 0.36660175E+04</totfact>
</mgrwt>
</event>
<event>
 4    1  0.4429256E+000  0.2371416E+03  0.7546771E-02  0.1121712E+00
         21   -1    0    0  503  502  0.00000000000E+00  0.00000000000E+00  0.26196156330E+03  0.26196156330E+03  0.00000000000E+00 0.  1.
         21   -1    0    0  501  503 -0.00000000000E+00 -0.00000000000E+00 -0.30834376748E+03  0.30834376748E+03  0.00000000000E+00 0.  1.
          6    1    1    2  501    0  0.15955039485E+03  0.29168956660E+02 -0.18035802959E+03  0.29793485088E+03  0.17300000000E+03 0.  1.
         -6    1    1    2    0  502 -0.15955039485E+03 -0.29168956660E+02  0.13397582541E+03  0.27237047991E+03  0.17300000000E+03 0.  1.
<mgrwt>
<rscale>  2 0.23714164E+03</rscale>
<asrwt>0</asrwt>
<pdfrwt beam="1">  1       21 0.40301779E-01 0.23714164E+03</pdfrwt>
<pdfrwt beam="2">  1       21 0.47437503E-01 0.23714164E+03</pdfrwt>
<totfact> 0.24621100E+04</totfact>
</mgrwt>
</event>
<event>
 4    1  0.4429256E+000  0.1731258E+03  0.7546771E-02  0.1174627E+00
         21   -1    0    0  503  502  0.00000000000E+00  0.00000000000E+00  0.23156962821E+03  0.23156962821E+03  0.00000000000E+00 0. -1.
         21   -1    0    0  501  503 -0.00000000000E+00 -0.00000000000E+00 -0.18859974751E+03  0.18859974751E+03  0.00000000000E+00 0. -1.
          6    1    1    2  501    0 -0.13327736175E+01  0.64629064867E+01 -0.96185116414E+02  0.19805080678E+03  0.17300000000E+03 0. -1.
         -6    1    1    2    0  502  0.13327736175E+01 -0.64629064867E+01  0.13915499711E+03  0.22211856894E+03  0.17300000000E+03 0. -1.
<mgrwt>
<rscale>  2 0.17312581E+03</rscale>
<asrwt>0</asrwt>
<pdfrwt beam="1">  1       21 0.35626097E-01 0.17312581E+03</pdfrwt>
<pdfrwt beam="2">  1       21 0.29015346E-01 0.17312581E+03</pdfrwt>
<totfact> 0.87062060E+04</totfact>
</mgrwt>
</event>
<event>
 4    1  0.4429256E+000  0.2520713E+03  0.7546771E-02  0.1112003E+00
         21   -1    0    0  501  502  0.00000000000E+00  0.00000000000E+00  0.20702498264E+03  0.20702498264E+03  0.00000000000E+00 0.  1.
         21   -1    0    0  502  503 -0.00000000000E+00 -0.00000000000E+00 -0.45804105245E+03  0.45804105245E+03  0.00000000000E+00 0.  1.
          6    1    1    2  501    0 -0.48643431517E+02 -0.17676192907E+03  0.65497547480E+02  0.26044172424E+03  0.17300000000E+03 0.  1.
         -6    1    1    2    0  503  0.48643431517E+02  0.17676192907E+03 -0.31651361730E+03  0.40462431085E+03  0.17300000000E+03 0.  1.
<mgrwt>
<rscale>  2 0.25207135E+03</rscale>
<asrwt>0</asrwt>
<pdfrwt beam="1">  1       21 0.31849997E-01 0.25207135E+03</pdfrwt>
<pdfrwt beam="2">  1       21 0.70467854E-01 0.25207135E+03</pdfrwt>
<totfact> 0.16735867E+04</totfact>
</mgrwt>
</event>
<event>
 4    1  0.4429256E+000  0.2228001E+03  0.7546771E-02  0.1131813E+00
         21   -1    0    0  503  502  0.00000000000E+00  0.00000000000E+00  0.77533772846E+03  0.77533772846E+03  0.00000000000E+00 0.  1.
         21   -1    0    0  501  503 -0.00000000000E+00 -0.00000000000E+00 -0.87964658015E+02  0.87964658015E+02  0.00000000000E+00 0. -1.
          6    1    1    2  501    0  0.13902689675E+03  0.19555425390E+02  0.11849568587E+03  0.25235118437E+03  0.17300000000E+03 0. -1.
         -6    1    1    2    0  502 -0.13902689675E+03 -0.19555425390E+02  0.56887738457E+03  0.61095120211E+03  0.17300000000E+03 0.  1.
<mgrwt>
<rscale>  2 0.22280012E+03</rscale>
<asrwt>0</asrwt>
<pdfrwt beam="1">  1       21 0.11928272E+00 0.22280012E+03</pdfrwt>
<pdfrwt beam="2">  1       21 0.13533025E-01 0.22280012E+03</pdfrwt>
<totfact> 0.24894482E+04</totfact>
</mgrwt>
</event>
<event>
 4    1  0.4429256E+000  0.2136864E+03  0.7546771E-02  0.1138680E+00
         21   -1    0    0  501  502  0.00000000000E+00  0.00000000000E+00  0.22176097976E+04  0.22176097976E+04  0.00000000000E+00 0.  1.
         21   -1    0    0  502  503 -0.00000000000E+00 -0.00000000000E+00 -0.21405478093E+02  0.21405478093E+02  0.00000000000E+00 0. -1.
          6    1    1    2  501    0  0.27920512137E+02 -0.12228379613E+03  0.87967076331E+03  0.90525274571E+03  0.17300000000E+03 0.  1.
         -6    1    1    2    0  503 -0.27920512137E+02  0.12228379613E+03  0.13165335562E+04  0.13337625300E+04  0.17300000000E+03 0. -1.
<mgrwt>
<rscale>  2 0.21368641E+03</rscale>
<asrwt>0</asrwt>
<pdfrwt beam="1">  1       21 0.34117056E+00 0.21368641E+03</pdfrwt>
<pdfrwt beam="2">  1       21 0.32931522E-02 0.21368641E+03</pdfrwt>
<totfact> 0.10435642E+04</totfact>
</mgrwt>
</event>
<event>
 4    1  0.4429256E+000  0.1859333E+03  0.7546771E-02  0.1162181E+00
         21   -1    0    0  503  502  0.00000000000E+00  0.00000000000E+00  0.12970396778E+03  0.12970396778E+03  0.00000000000E+00 0.  1.
         21   -1    0    0  501  503 -0.00000000000E+00 -0.00000000000E+00 -0.60723048776E+03  0.60723048776E+03  0.00000000000E+00 0.  1.
          6    1    1    2  501    0  0.58805879124E+02  0.34410036955E+02 -0.51475916883E+03  0.54730995237E+03  0.17300000000E+03 0.  1.
         -6    1    1    2    0  502 -0.58805879124E+02 -0.34410036955E+02  0.37232648858E+02  0.18962450317E+03  0.17300000000E+03 0.  1.
<mgrwt>
<rscale>  2 0.18593327E+03</rscale>
<asrwt>0</asrwt>
<pdfrwt beam="1">  1       21 0.19954456E-01 0.18593327E+03</pdfrwt>
<pdfrwt beam="2">  1       21 0.93420077E-01 0.18593327E+03</pdfrwt>
<totfact> 0.22421830E+04</totfact>
</mgrwt>
</event>
<event>
 4    1  0.4429256E+000  0.1848370E+03  0.7546771E-02  0.1163202E+00
         21   -1    0    0  501  502  0.00000000000E+00  0.00000000000E+00  0.10547450754E+04  0.10547450754E+04  0.00000000000E+00 0.  1.
         21   -1    0    0  502  503 -0.00000000000E+00 -0.00000000000E+00 -0.16864230434E+03  0.16864230434E+03  0.00000000000E+00 0.  1.
          6    1    1    2  501    0 -0.57485799797E+02 -0.30514014562E+02  0.99287115796E+03  0.10099296305E+04  0.17300000000E+03 0.  1.
         -6    1    1    2    0  503  0.57485799797E+02  0.30514014562E+02 -0.10676838691E+03  0.21345774923E+03  0.17300000000E+03 0.  1.
<mgrwt>
<rscale>  2 0.18483702E+03</rscale>
<asrwt>0</asrwt>
<pdfrwt beam="1">  1       21 0.16226847E+00 0.18483702E+03</pdfrwt>
<pdfrwt beam="2">  1       21 0.25944970E-01 0.18483702E+03</pdfrwt>
<totfact> 0.34432357E+03</totfact>
</mgrwt>
</event>
<event>
 4    1  0.4429256E+000  0.2160867E+03  0.7546771E-02  0.1136835E+00
         21   -1    0    0  503  502  0.00000000000E+00  0.00000000000E+00  0.64029294643E+03  0.64029294643E+03  0.00000000000E+00 0. -1.
         21   -1    0    0  501  503 -0.00000000000E+00 -0.00000000000E+00 -0.29571616114E+03  0.29571616114E+03  0.00000000000E+00 0. -1.
          6    1    1    2  501    0 -0.84770894666E+02  0.97869003226E+02 -0.23393169988E+03  0.31846112256E+03  0.17300000000E+03 0. -1.
         -6    1    1    2    0  502  0.84770894666E+02 -0.97869003226E+02  0.57850848517E+03  0.61754798501E+03  0.17300000000E+03 0. -1.
<mgrwt>
<rscale>  2 0.21608666E+03</rscale>
<asrwt>0</asrwt>
<pdfrwt beam="1">  1       21 0.98506607E-01 0.21608666E+03</pdfrwt>
<pdfrwt beam="2">  1       21 0.45494794E-01 0.21608666E+03</pdfrwt>
<totfact> 0.38683377E+03</totfact>
</mgrwt>
</event>
<event>
 4    1  0.4429256E+000  0.1739141E+03  0.7546771E-02  0.1173826E+00
         21   -1    0    0  501  502  0.00000000000E+00  0.00000000000E+00  0.39900224372E+03  0.39900224372E+03  0.00000000000E+00 0.  1.
         21   -1    0    0  502  503 -0.00000000000E+00 -0.00000000000E+00 -0.70758208830E+03  0.70758208830E+03  0.00000000000E+00 0.  1.
          6    1    1    2  501    0 -0.42219127110E-02 -0.17807836515E+02  0.36852533576E+03  0.40750097197E+03  0.17300000000E+03 0.  1.
         -6    1    1    2    0  503  0.42219127110E-02  0.17807836515E+02 -0.67710518034E+03  0.69908336005E+03  0.17300000000E+03 0.  1.
<mgrwt>
<rscale>  2 0.17391411E+03</rscale>
<asrwt>0</asrwt>
<pdfrwt beam="1">  1       21 0.61384961E-01 0.17391411E+03</pdfrwt>
<pdfrwt beam="2">  1       21 0.10885878E+00 0.17391411E+03</pdfrwt>
<totfact> 0.16830055E+03</totfact>
</mgrwt>
</event>
<event>
 4    1  0.4429256E+000  0.2181386E+03  0.7546771E-02  0.1135278E+00
         21   -1    0    0  501  502  0.00000000000E+00  0.00000000000E+00  0.88761637898E+02  0.88761637898E+02  0.00000000000E+00 0. -1.
         21   -1    0    0  502  503 -0.00000000000E+00 -0.00000000000E+00 -0.54549393315E+03  0.54549393315E+03  0.00000000000E+00 0.  1.
          6    1    1    2  501    0 -0.82283951479E+02 -0.10433022007E+03 -0.18673315478E+03  0.28714754846E+03  0.17300000000E+03 0. -1.
         -6    1    1    2    0  503  0.82283951479E+02  0.10433022007E+03 -0.26999914047E+03  0.34710802259E+03  0.17300000000E+03 0.  1.
<mgrwt>
<rscale>  2 0.21813859E+03</rscale>
<asrwt>0</asrwt>
<pdfrwt beam="1">  1       21 0.13655636E-01 0.21813859E+03</pdfrwt>
<pdfrwt beam="2">  1       21 0.83922145E-01 0.21813859E+03</pdfrwt>
<totfact> 0.56693422E+04</totfact>
</mgrwt>
</event>
<event>
 4    1  0.4429256E+000  0.1970742E+03  0.7546771E-02  0.1152231E+00
         21   -1    0    0  501  502  0.00000000000E+00  0.00000000000E+00  0.94409520297E+02  0.94409520297E+02  0.00000000000E+00 0. -1.
         21   -1    0    0  502  503 -0.00000000000E+00 -0.00000000000E+00 -0.48448669047E+03  0.48448669047E+03  0.00000000000E+00 0. -1.
          6    1    1    2  501    0 -0.78977033950E+02  0.51690051397E+02 -0.82602183816E+02  0.21368517514E+03  0.17300000000E+03 0.  1.
         -6    1    1    2    0  503  0.78977033950E+02 -0.51690051397E+02 -0.30747498635E+03  0.36521103562E+03  0.17300000000E+03 0.  1.
<mgrwt>
<rscale>  2 0.19707418E+03</rscale>
<asrwt>0</asrwt>
<pdfrwt beam="1">  1       21 0.14524541E-01 0.19707418E+03</pdfrwt>
<pdfrwt beam="2">  1       21 0.74536416E-01 0.19707418E+03</pdfrwt>
<totfact> 0.66918051E+04</totfact>
</mgrwt>
</event>
<event>
 4    1  0.4429256E+000  0.2242105E+03  0.7546771E-02  0.1130782E+00
         21   -1    0    0  501  502  0.00000000000E+00  0.00000000000E+00  0.52365170819E+02  0.52365170819E+02  0.00000000000E+00 0. -1.
         21   -1    0    0  502  503 -0.00000000000E+00 -0.00000000000E+00 -0.15722742126E+04  0.15722742126E+04  0.00000000000E+00 0. -1.
          6    1    1    2  501    0 -0.74073737949E+02 -0.12187881265E+03 -0.25303714653E+03  0.33808011055E+03  0.17300000000E+03 0. -1.
         -6    1    1    2    0  503  0.74073737949E+02  0.12187881265E+03 -0.12668718952E+04  0.12865592729E+04  0.17300000000E+03 0. -1.
<mgrwt>
<rscale>  2 0.22421053E+03</rscale>
<asrwt>0</asrwt>
<pdfrwt beam="1">  1       21 0.80561819E-02 0.22421053E+03</pdfrwt>
<pdfrwt beam="2">  1       21 0.24188829E+00 0.22421053E+03</pdfrwt>
<totfact> 0.85543680E+03</totfact>
</mgrwt>
</event>
<event>
 4    1  0.4429256E+000  0.2549277E+03  0.7546771E-02  0.1110230E+00
         21   -1    0    0  501  502  0.00000000000E+00  0.00000000000E+00  0.11639539205E+03  0.11639539205E+03  0.00000000000E+00 0.  1.
         21   -1    0    0  502  503 -0.00000000000E+00 -0.00000000000E+00 -0.57926121603E+03  0.57926121603E+03  0.00000000000E+00 0.  1.
          6    1    1    2  501    0  0.56894916879E+02  0.17838743595E+03 -0.29753719005E+03  0.39181180219E+03  0.17300000000E+03 0.  1.
         -6    1    1    2    0  503 -0.56894916879E+02 -0.17838743595E+03 -0.16532863393E+03  0.30384480589E+03  0.17300000000E+03 0.  1.
<mgrwt>
<rscale>  2 0.25492765E+03</rscale>
<asrwt>0</asrwt>
<pdfrwt beam="1">  1       21 0.17906983E-01 0.25492765E+03</pdfrwt>
<pdfrwt beam="2">  1       21 0.89117110E-01 0.25492765E+03</pdfrwt>
<totfact> 0.29513179E+04</totfact>
</mgrwt>
</event>
<event>
 4    1  0.4429256E+000  0.1829856E+03  0.7546771E-02  0.1164944E+00
         21   -1    0    0  503  502  0.00000000000E+00  0.00000000000E+00  0.26096751199E+03  0.26096751199E+03  0.00000000000E+00 0. -1.
         21   -1    0    0  501  503 -0.00000000000E+00 -0.00000000000E+00 -0.14919002127E+03  0.14919002127E+03  0.00000000000E+00 0.  1.
          6    1    1    2  501    0 -0.65967416482E+01 -0.59255365403E+02 -0.20839835501E+02  0.18416843941E+03  0.17300000000E+03 0.  1.
         -6    1    1    2    0  502  0.65967416482E+01  0.59255365403E+02  0.13261732622E+03  0.22598909386E+03  0.17300000000E+03 0. -1.
<mgrwt>
<rscale>  2 0.18298556E+03</rscale>
<asrwt>0</asrwt>
<pdfrwt beam="1">  1       21 0.40148848E-01 0.18298556E+03</pdfrwt>
<pdfrwt beam="2">  1       21 0.22952311E-01 0.18298556E+03</pdfrwt>
<totfact> 0.10690382E+05</totfact>
</mgrwt>
</event>
<event>
 4    1  0.4429256E+000  0.2923008E+03  0.7546771E-02  0.1089154E+00
         21   -1    0    0  501  502  0.00000000000E+00  0.00000000000E+00  0.10171668866E+03  0.10171668866E+03  0.00000000000E+00 0.  1.
         21   -1    0    0  502  503 -0.00000000000E+00 -0.00000000000E+00 -0.92331474529E+03  0.92331474529E+03  0.00000000000E+00 0. -1.
          6    1    1    2  501    0 -0.17305695324E+03  0.15988135752E+03 -0.25682369126E+03  0.38909917237E+03  0.17300000000E+03 0.  1.
         -6    1    1    2    0  503  0.17305695324E+03 -0.15988135752E+03 -0.56477436536E+03  0.63593226158E+03  0.17300000000E+03 0.  1.
<mgrwt>
<rscale>  2 0.29230080E+03</rscale>
<asrwt>0</asrwt>
<pdfrwt beam="1">  1       21 0.15648721E-01 0.29230080E+03</pdfrwt>
<pdfrwt beam="2">  1       21 0.14204842E+00 0.29230080E+03</pdfrwt>
<totfact> 0.11784976E+04</totfact>
</mgrwt>
</event>
<event>
 4    1  0.4429256E+000  0.1979898E+03  0.7546771E-02  0.1151446E+00
         21   -1    0    0  503  502  0.00000000000E+00  0.00000000000E+00  0.33691819307E+02  0.33691819307E+02  0.00000000000E+00 0. -1.
         21   -1    0    0  501  503 -0.00000000000E+00 -0.00000000000E+00 -0.11837136740E+04  0.11837136740E+04  0.00000000000E+00 0. -1.
          6    1    1    2  501    0 -0.78876212544E+01 -0.95962206130E+02 -0.65458197241E+03  0.68386951838E+03  0.17300000000E+03 0. -1.
         -6    1    1    2    0  502  0.78876212544E+01  0.95962206130E+02 -0.49543988224E+03  0.53353597488E+03  0.17300000000E+03 0. -1.
<mgrwt>
<rscale>  2 0.19798980E+03</rscale>
<asrwt>0</asrwt>
<pdfrwt beam="1">  1       21 0.51833578E-02 0.19798980E+03</pdfrwt>
<pdfrwt beam="2">  1       21 0.18210976E+00 0.19798980E+03</pdfrwt>
<totfact> 0.44400655E+04</totfact>
</mgrwt>
</event>
<event>
 4    1  0.4429256E+000  0.1780789E+03  0.7546771E-02  0.1169675E+00
         21   -1    0    0  501  502  0.00000000000E+00  0.00000000000E+00  0.44746219517E+03  0.44746219517E+03  0.00000000000E+00 0.  1.
         21   -1    0    0  502  503 -0.00000000000E+00 -0.00000000000E+00 -0.77741210747E+02  0.77741210747E+02  0.00000000000E+00 0. -1.
          6    1    1    2  501    0  0.39480309078E+02 -0.14979985386E+02  0.26292557229E+03  0.31755621759E+03  0.17300000000E+03 0.  1.
         -6    1    1    2    0  503 -0.39480309078E+02  0.14979985386E+02  0.10679541214E+03  0.20764718833E+03  0.17300000000E+03 0.  1.
<mgrwt>
<rscale>  2 0.17807890E+03</rscale>
<asrwt>0</asrwt>
<pdfrwt beam="1">  1       21 0.68840336E-01 0.17807890E+03</pdfrwt>
<pdfrwt beam="2">  1       21 0.11960187E-01 0.17807890E+03</pdfrwt>
<totfact> 0.11409455E+05</totfact>
</mgrwt>
</event>
<event>
 4    1  0.4429256E+000  0.2550815E+03  0.7546771E-02  0.1110135E+00
         21   -1    0    0  501  502  0.00000000000E+00  0.00000000000E+00  0.59749361122E+03  0.59749361122E+03  0.00000000000E+00 0.  1.
         21   -1    0    0  502  503 -0.00000000000E+00 -0.00000000000E+00 -0.23685766520E+03  0.23685766520E+03  0.00000000000E+00 0. -1.
          6    1    1    2  501    0  0.31755334972E+02  0.18474078015E+03  0.48694454130E+03  0.54971041781E+03  0.17300000000E+03 0.  1.
         -6    1    1    2    0  503 -0.31755334972E+02 -0.18474078015E+03 -0.12630859528E+03  0.28464085861E+03  0.17300000000E+03 0. -1.
<mgrwt>
<rscale>  2 0.25508147E+03</rscale>
<asrwt>0</asrwt>
<pdfrwt beam="1">  1       21 0.91922093E-01 0.25508147E+03</pdfrwt>
<pdfrwt beam="2">  1       21 0.36439641E-01 0.25508147E+03</pdfrwt>
<totfact> 0.69697958E+03</totfact>
</mgrwt>
</event>
<event>
 4    1  0.4429256E+000  0.2360381E+03  0.7546771E-02  0.1122461E+00
         21   -1    0    0  503  502  0.00000000000E+00  0.00000000000E+00  0.36694547164E+03  0.36694547164E+03  0.00000000000E+00 0.  1.
         21   -1    0    0  501  503 -0.00000000000E+00 -0.00000000000E+00 -0.25820781443E+03  0.25820781443E+03  0.00000000000E+00 0.  1.
          6    1    1    2  501    0 -0.15358056707E+03 -0.46882739650E+02 -0.14626018715E+03  0.27767971515E+03  0.17300000000E+03 0.  1.
         -6    1    1    2    0  502  0.15358056707E+03  0.46882739650E+02  0.25499784437E+03  0.34747357092E+03  0.17300000000E+03 0.  1.
<mgrwt>
<rscale>  2 0.23603809E+03</rscale>
<asrwt>0</asrwt>
<pdfrwt beam="1">  1       21 0.56453150E-01 0.23603809E+03</pdfrwt>
<pdfrwt beam="2">  1       21 0.39724279E-01 0.23603809E+03</pdfrwt>
<totfact> 0.17581756E+04</totfact>
</mgrwt>
</event>
<event>
 4    1  0.4429256E+000  0.1805122E+03  0.7546771E-02  0.1167308E+00
         21   -1    0    0  503  502  0.00000000000E+00  0.00000000000E+00  0.76338699188E+02  0.76338699188E+02  0.00000000000E+00 0. -1.
         21   -1    0    0  501  503 -0.00000000000E+00 -0.00000000000E+00 -0.11050998536E+04  0.11050998536E+04  0.00000000000E+00 0. -1.
          6    1    1    2  501    0 -0.30623773935E+02 -0.41447017318E+02 -0.97716352293E+03  0.99369674515E+03  0.17300000000E+03 0. -1.
         -6    1    1    2    0  502  0.30623773935E+02  0.41447017318E+02 -0.51597631533E+02  0.18774180769E+03  0.17300000000E+03 0. -1.
<mgrwt>
<rscale>  2 0.18051225E+03</rscale>
<asrwt>0</asrwt>
<pdfrwt beam="1">  1       21 0.11744415E-01 0.18051225E+03</pdfrwt>
<pdfrwt beam="2">  1       21 0.17001536E+00 0.18051225E+03</pdfrwt>
<totfact> 0.13131046E+04</totfact>
</mgrwt>
</event>
<event>
 4    1  0.4429256E+000  0.1821314E+03  0.7546771E-02  0.1165756E+00
         21   -1    0    0  503  502  0.00000000000E+00  0.00000000000E+00  0.21570658748E+03  0.21570658748E+03  0.00000000000E+00 0.  1.
         21   -1    0    0  501  503 -0.00000000000E+00 -0.00000000000E+00 -0.15516783433E+03  0.15516783433E+03  0.00000000000E+00 0.  1.
          6    1    1    2  501    0  0.38768368956E+02 -0.41711566985E+02  0.47792631490E+02  0.18829757533E+03  0.17300000000E+03 0.  1.
         -6    1    1    2    0  502 -0.38768368956E+02  0.41711566985E+02  0.12746121651E+02  0.18257684648E+03  0.17300000000E+03 0.  1.
<mgrwt>
<rscale>  2 0.18213138E+03</rscale>
<asrwt>0</asrwt>
<pdfrwt beam="1">  1       21 0.33185629E-01 0.18213138E+03</pdfrwt>
<pdfrwt beam="2">  1       21 0.23871974E-01 0.18213138E+03</pdfrwt>
<totfact> 0.14510147E+05</totfact>
</mgrwt>
</event>
<event>
 4    1  0.4429256E+000  0.2525066E+03  0.7546771E-02  0.1111731E+00
         21   -1    0    0  503  502  0.00000000000E+00  0.00000000000E+00  0.13506951190E+03  0.13506951190E+03  0.00000000000E+00 0. -1.
         21   -1    0    0  501  503 -0.00000000000E+00 -0.00000000000E+00 -0.62787668539E+03  0.62787668539E+03  0.00000000000E+00 0. -1.
          6    1    1    2  501    0  0.10585019043E+03  0.15042047655E+03 -0.43644465105E+03  0.50422565981E+03  0.17300000000E+03 0. -1.
         -6    1    1    2    0  502 -0.10585019043E+03 -0.15042047655E+03 -0.56362522441E+02  0.25872053748E+03  0.17300000000E+03 0. -1.
<mgrwt>
<rscale>  2 0.25250660E+03</rscale>
<asrwt>0</asrwt>
<pdfrwt beam="1">  1       21 0.20779925E-01 0.25250660E+03</pdfrwt>
<pdfrwt beam="2">  1       21 0.96596412E-01 0.25250660E+03</pdfrwt>
<totfact> 0.18504281E+04</totfact>
</mgrwt>
</event>
<event>
 4    1  0.4429256E+000  0.1731446E+03  0.7546771E-02  0.1174608E+00
         21   -1    0    0  501  502  0.00000000000E+00  0.00000000000E+00  0.42975878581E+03  0.42975878581E+03  0.00000000000E+00 0.  1.
         21   -1    0    0  502  503 -0.00000000000E+00 -0.00000000000E+00 -0.18601444291E+03  0.18601444291E+03  0.00000000000E+00 0.  1.
          6    1    1    2  501    0 -0.69539173404E+01  0.13029189996E+01  0.36527535042E+03  0.40423401167E+03  0.17300000000E+03 0.  1.
         -6    1    1    2    0  503  0.69539173404E+01 -0.13029189996E+01 -0.12153100752E+03  0.21153921706E+03  0.17300000000E+03 0.  1.
<mgrwt>
<rscale>  2 0.17314461E+03</rscale>
<asrwt>0</asrwt>
<pdfrwt beam="1">  1       21 0.66116736E-01 0.17314461E+03</pdfrwt>
<pdfrwt beam="2">  1       21 0.28617607E-01 0.17314461E+03</pdfrwt>
<totfact> 0.24806549E+04</totfact>
</mgrwt>
</event>
<event>
 4    1  0.4429256E+000  0.2277627E+03  0.7546771E-02  0.1128224E+00
         21   -1    0    0  503  502  0.00000000000E+00  0.00000000000E+00  0.14338350294E+03  0.14338350294E+03  0.00000000000E+00 0.  1.
         21   -1    0    0  501  503 -0.00000000000E+00 -0.00000000000E+00 -0.38213335699E+03  0.38213335699E+03  0.00000000000E+00 0.  1.
          6    1    1    2  501    0 -0.12032052887E+02  0.14765520533E+03 -0.17998958567E+03  0.29029653961E+03  0.17300000000E+03 0.  1.
         -6    1    1    2    0  502  0.12032052887E+02 -0.14765520533E+03 -0.58760268378E+02  0.23522032033E+03  0.17300000000E+03 0.  1.
<mgrwt>
<rscale>  2 0.22776266E+03</rscale>
<asrwt>0</asrwt>
<pdfrwt beam="1">  1       21 0.22059000E-01 0.22776266E+03</pdfrwt>
<pdfrwt beam="2">  1       21 0.58789747E-01 0.22776266E+03</pdfrwt>
<totfact> 0.51143992E+04</totfact>
</mgrwt>
</event>
<event>
 4    1  0.4429256E+000  0.1788862E+03  0.7546771E-02  0.1168885E+00
         21   -1    0    0  501  502  0.00000000000E+00  0.00000000000E+00  0.66812295510E+02  0.66812295510E+02  0.00000000000E+00 0. -1.
         21   -1    0    0  502  503 -0.00000000000E+00 -0.00000000000E+00 -0.48247167790E+03  0.48247167790E+03  0.00000000000E+00 0. -1.
          6    1    1    2  501    0  0.38692410436E+02 -0.23961519123E+02 -0.18439083471E+03  0.25690511273E+03  0.17300000000E+03 0. -1.
         -6    1    1    2    0  503 -0.38692410436E+02  0.23961519123E+02 -0.23126854769E+03  0.29237886068E+03  0.17300000000E+03 0. -1.
<mgrwt>
<rscale>  2 0.17888616E+03</rscale>
<asrwt>0</asrwt>
<pdfrwt beam="1">  1       21 0.10278815E-01 0.17888616E+03</pdfrwt>
<pdfrwt beam="2">  1       21 0.74226412E-01 0.17888616E+03</pdfrwt>
<totfact> 0.12639282E+05</totfact>
</mgrwt>
</event>
<event>
 4    1  0.4429256E+000  0.2740209E+03  0.7546771E-02  0.1099000E+00
         21   -1    0    0  503  502  0.00000000000E+00  0.00000000000E+00  0.29977767780E+03  0.29977767780E+03  0.00000000000E+00 0. -1.
         21   -1    0    0  501  503 -0.00000000000E+00 -0.00000000000E+00 -0.25474480855E+03  0.25474480855E+03  0.00000000000E+00 0. -1.
          6    1    1    2  501    0 -0.17919278479E+03 -0.11422964464E+03  0.58402848366E+02  0.28017558518E+03  0.17300000000E+03 0. -1.
         -6    1    1    2    0  502  0.17919278479E+03  0.11422964464E+03 -0.13369979115E+02  0.27434690116E+03  0.17300000000E+03 0. -1.
<mgrwt>
<rscale>  2 0.27402092E+03</rscale>
<asrwt>0</asrwt>
<pdfrwt beam="1">  1       21 0.46119643E-01 0.27402092E+03</pdfrwt>
<pdfrwt beam="2">  1       21 0.39191509E-01 0.27402092E+03</pdfrwt>
<totfact> 0.27180647E+04</totfact>
</mgrwt>
</event>
<event>
 4    1  0.4429256E+000  0.1894171E+03  0.7546771E-02  0.1158988E+00
         21   -1    0    0  503  502  0.00000000000E+00  0.00000000000E+00  0.72021501795E+03  0.72021501795E+03  0.00000000000E+00 0. -1.
         21   -1    0    0  501  503 -0.00000000000E+00 -0.00000000000E+00 -0.13681917942E+03  0.13681917942E+03  0.00000000000E+00 0. -1.
          6    1    1    2  501    0  0.59644326018E+02 -0.48911995314E+02 -0.50014022315E+02  0.19590873217E+03  0.17300000000E+03 0. -1.
         -6    1    1    2    0  502 -0.59644326018E+02  0.48911995314E+02  0.63340986085E+03  0.66112546519E+03  0.17300000000E+03 0. -1.
<mgrwt>
<rscale>  2 0.18941708E+03</rscale>
<asrwt>0</asrwt>
<pdfrwt beam="1">  1       21 0.11080231E+00 0.18941708E+03</pdfrwt>
<pdfrwt beam="2">  1       21 0.21049105E-01 0.18941708E+03</pdfrwt>
<totfact> 0.13490041E+04</totfact>
</mgrwt>
</event>
<event>
 4    1  0.4429256E+000  0.1928758E+03  0.7546771E-02  0.1155893E+00
         21   -1    0    0  503  502  0.00000000000E+00  0.00000000000E+00  0.13424607168E+03  0.13424607168E+03  0.00000000000E+00 0. -1.
         21   -1    0    0  501  503 -0.00000000000E+00 -0.00000000000E+00 -0.32342629443E+03  0.32342629443E+03  0.00000000000E+00 0.  1.
          6    1    1    2  501    0  0.27758755963E+02 -0.80632110959E+02 -0.18118623569E+03  0.26463094651E+03  0.17300000000E+03 0.  1.
         -6    1    1    2    0  502 -0.27758755963E+02  0.80632110959E+02 -0.79939870544E+01  0.19304141960E+03  0.17300000000E+03 0. -1.
<mgrwt>
<rscale>  2 0.19287583E+03</rscale>
<asrwt>0</asrwt>
<pdfrwt beam="1">  1       21 0.20653242E-01 0.19287583E+03</pdfrwt>
<pdfrwt beam="2">  1       21 0.49757891E-01 0.19287583E+03</pdfrwt>
<totfact> 0.83664190E+04</totfact>
</mgrwt>
</event>
<event>
 4    1  0.4429256E+000  0.1857916E+03  0.7546771E-02  0.1162313E+00
         21   -1    0    0  501  502  0.00000000000E+00  0.00000000000E+00  0.10314419119E+03  0.10314419119E+03  0.00000000000E+00 0. -1.
         21   -1    0    0  502  503 -0.00000000000E+00 -0.00000000000E+00 -0.33494954013E+03  0.33494954013E+03  0.00000000000E+00 0.  1.
          6    1    1    2  501    0  0.56771791745E+02 -0.36965856982E+02 -0.12231309223E+03  0.22243876337E+03  0.17300000000E+03 0. -1.
         -6    1    1    2    0  503 -0.56771791745E+02  0.36965856982E+02 -0.10949225672E+03  0.21565496795E+03  0.17300000000E+03 0. -1.
<mgrwt>
<rscale>  2 0.18579158E+03</rscale>
<asrwt>0</asrwt>
<pdfrwt beam="1">  1       21 0.15868337E-01 0.18579158E+03</pdfrwt>
<pdfrwt beam="2">  1       21 0.51530698E-01 0.18579158E+03</pdfrwt>
<totfact> 0.12695040E+05</totfact>
</mgrwt>
</event>
<event>
 4    1  0.4429256E+000  0.2601096E+03  0.7546771E-02  0.1107077E+00
         21   -1    0    0  501  502  0.00000000000E+00  0.00000000000E+00  0.38890402607E+03  0.38890402607E+03  0.00000000000E+00 0. -1.
         21   -1    0    0  502  503 -0.00000000000E+00 -0.00000000000E+00 -0.19839280493E+03  0.19839280493E+03  0.00000000000E+00 0. -1.
          6    1    1    2  501    0  0.11207695055E+03  0.15864042011E+03  0.19828861538E+03  0.32707094143E+03  0.17300000000E+03 0. -1.
         -6    1    1    2    0  503 -0.11207695055E+03 -0.15864042011E+03 -0.77773942429E+01  0.26022588956E+03  0.17300000000E+03 0. -1.
<mgrwt>
<rscale>  2 0.26010964E+03</rscale>
<asrwt>0</asrwt>
<pdfrwt beam="1">  1       21 0.59831389E-01 0.26010964E+03</pdfrwt>
<pdfrwt beam="2">  1       21 0.30521970E-01 0.26010964E+03</pdfrwt>
<totfact> 0.25957480E+04</totfact>
</mgrwt>
</event>
<event>
 4    1  0.4429256E+000  0.3208126E+03  0.7546771E-02  0.1075276E+00
         21   -1    0    0  503  502  0.00000000000E+00  0.00000000000E+00  0.58879665766E+03  0.58879665766E+03  0.00000000000E+00 0.  1.
         21   -1    0    0  501  503 -0.00000000000E+00 -0.00000000000E+00 -0.20889919002E+03  0.20889919002E+03  0.00000000000E+00 0. -1.
          6    1    1    2  501    0 -0.33343399444E+02  0.26810432248E+03  0.28802107564E+02  0.32210288949E+03  0.17300000000E+03 0. -1.
         -6    1    1    2    0  502  0.33343399444E+02 -0.26810432248E+03  0.35109536007E+03  0.47559295819E+03  0.17300000000E+03 0.  1.
<mgrwt>
<rscale>  2 0.32081258E+03</rscale>
<asrwt>0</asrwt>
<pdfrwt beam="1">  1       21 0.90584101E-01 0.32081258E+03</pdfrwt>
<pdfrwt beam="2">  1       21 0.32138337E-01 0.32081258E+03</pdfrwt>
<totfact> 0.89716104E+03</totfact>
</mgrwt>
</event>
<event>
 4    1  0.4429256E+000  0.5385716E+03  0.7546771E-02  0.1004174E+00
         21   -1    0    0  503  502  0.00000000000E+00  0.00000000000E+00  0.44774771556E+03  0.44774771556E+03  0.00000000000E+00 0.  1.
         21   -1    0    0  501  503 -0.00000000000E+00 -0.00000000000E+00 -0.65682876719E+03  0.65682876719E+03  0.00000000000E+00 0. -1.
          6    1    1    2  501    0  0.13791641158E+03 -0.49102898847E+03 -0.39855993662E+02  0.54004435404E+03  0.17300000000E+03 0. -1.
         -6    1    1    2    0  502 -0.13791641158E+03  0.49102898847E+03 -0.16922505797E+03  0.56453212871E+03  0.17300000000E+03 0.  1.
<mgrwt>
<rscale>  2 0.53857163E+03</rscale>
<asrwt>0</asrwt>
<pdfrwt beam="1">  1       21 0.68884265E-01 0.53857163E+03</pdfrwt>
<pdfrwt beam="2">  1       21 0.10105058E+00 0.53857163E+03</pdfrwt>
<totfact> 0.12728642E+03</totfact>
</mgrwt>
</event>
<event>
 4    1  0.4429256E+000  0.1789490E+03  0.7546771E-02  0.1168824E+00
         21   -1    0    0  503  502  0.00000000000E+00  0.00000000000E+00  0.15600181890E+04  0.15600181890E+04  0.00000000000E+00 0.  1.
         21   -1    0    0  501  503 -0.00000000000E+00 -0.00000000000E+00 -0.34017526049E+02  0.34017526049E+02  0.00000000000E+00 0. -1.
          6    1    1    2  501    0  0.23336515190E+01  0.45698091105E+02  0.26108742299E+03  0.31652709821E+03  0.17300000000E+03 0. -1.
         -6    1    1    2    0  502 -0.23336515190E+01 -0.45698091105E+02  0.12649132400E+04  0.12775086169E+04  0.17300000000E+03 0.  1.
<mgrwt>
<rscale>  2 0.17894905E+03</rscale>
<asrwt>0</asrwt>
<pdfrwt beam="1">  1       21 0.24000274E+00 0.17894905E+03</pdfrwt>
<pdfrwt beam="2">  1       21 0.52334667E-02 0.17894905E+03</pdfrwt>
<totfact> 0.19194497E+04</totfact>
</mgrwt>
</event>
<event>
 4    1  0.4429256E+000  0.2481487E+03  0.7546771E-02  0.1114480E+00
         21   -1    0    0  503  502  0.00000000000E+00  0.00000000000E+00  0.13725214628E+03  0.13725214628E+03  0.00000000000E+00 0.  1.
         21   -1    0    0  501  503 -0.00000000000E+00 -0.00000000000E+00 -0.51982825621E+03  0.51982825621E+03  0.00000000000E+00 0. -1.
          6    1    1    2  501    0  0.64478876433E+02  0.16580485755E+03 -0.69713938775E+02  0.25775532886E+03  0.17300000000E+03 0.  1.
         -6    1    1    2    0  502 -0.64478876433E+02 -0.16580485755E+03 -0.31286217115E+03  0.39932507363E+03  0.17300000000E+03 0. -1.
<mgrwt>
<rscale>  2 0.24814870E+03</rscale>
<asrwt>0</asrwt>
<pdfrwt beam="1">  1       21 0.21115715E-01 0.24814870E+03</pdfrwt>
<pdfrwt beam="2">  1       21 0.79973579E-01 0.24814870E+03</pdfrwt>
<totfact> 0.27885101E+04</totfact>
</mgrwt>
</event>
<event>
 4    1  0.4429256E+000  0.1751109E+03  0.7546771E-02  0.1172620E+00
         21   -1    0    0  503  502  0.00000000000E+00  0.00000000000E+00  0.17694005927E+03  0.17694005927E+03  0.00000000000E+00 0.  1.
         21   -1    0    0  501  503 -0.00000000000E+00 -0.00000000000E+00 -0.18044090066E+03  0.18044090066E+03  0.00000000000E+00 0.  1.
          6    1    1    2  501    0  0.94324193562E+01  0.25413416105E+02 -0.37296625149E+02  0.17903868437E+03  0.17300000000E+03 0.  1.
         -6    1    1    2    0  502 -0.94324193562E+01 -0.25413416105E+02  0.33795783752E+02  0.17834227556E+03  0.17300000000E+03 0.  1.
<mgrwt>
<rscale>  2 0.17511086E+03</rscale>
<asrwt>0</asrwt>
<pdfrwt beam="1">  1       21 0.27221548E-01 0.17511086E+03</pdfrwt>
<pdfrwt beam="2">  1       21 0.27760139E-01 0.17511086E+03</pdfrwt>
<totfact> 0.16025297E+05</totfact>
</mgrwt>
</event>
<event>
 4    1  0.4429256E+000  0.2291930E+03  0.7546771E-02  0.1127209E+00
         21   -1    0    0  503  502  0.00000000000E+00  0.00000000000E+00  0.15564014521E+03  0.15564014521E+03  0.00000000000E+00 0.  1.
         21   -1    0    0  501  503 -0.00000000000E+00 -0.00000000000E+00 -0.82197645855E+03  0.82197645855E+03  0.00000000000E+00 0.  1.
          6    1    1    2  501    0 -0.14597764834E+03 -0.35929754340E+02 -0.70843717543E+03  0.74458891517E+03  0.17300000000E+03 0.  1.
         -6    1    1    2    0  502  0.14597764834E+03  0.35929754340E+02  0.42100862088E+02  0.23302768859E+03  0.17300000000E+03 0.  1.
<mgrwt>
<rscale>  2 0.22919298E+03</rscale>
<asrwt>0</asrwt>
<pdfrwt beam="1">  1       21 0.23944638E-01 0.22919298E+03</pdfrwt>
<pdfrwt beam="2">  1       21 0.12645792E+00 0.22919298E+03</pdfrwt>
<totfact> 0.74203514E+03</totfact>
</mgrwt>
</event>
<event>
 4    1  0.4429256E+000  0.1789965E+03  0.7546771E-02  0.1168778E+00
         21   -1    0    0  501  502  0.00000000000E+00  0.00000000000E+00  0.88406074256E+03  0.88406074256E+03  0.00000000000E+00 0. -1.
         21   -1    0    0  502  503 -0.00000000000E+00 -0.00000000000E+00 -0.75046188759E+02  0.75046188759E+02  0.00000000000E+00 0. -1.
          6    1    1    2  501    0  0.27417894818E+02  0.36864931168E+02  0.74934465147E+03  0.77042661610E+03  0.17300000000E+03 0. -1.
         -6    1    1    2    0  503 -0.27417894818E+02 -0.36864931168E+02  0.59669902326E+02  0.18868031522E+03  0.17300000000E+03 0. -1.
<mgrwt>
<rscale>  2 0.17899655E+03</rscale>
<asrwt>0</asrwt>
<pdfrwt beam="1">  1       21 0.13600934E+00 0.17899655E+03</pdfrwt>
<pdfrwt beam="2">  1       21 0.11545568E-01 0.17899655E+03</pdfrwt>
<totfact> 0.24444770E+04</totfact>
</mgrwt>
</event>
<event>
 4    1  0.4429256E+000  0.2008634E+03  0.7546771E-02  0.1149013E+00
         21   -1    0    0  501  502  0.00000000000E+00  0.00000000000E+00  0.56255753066E+02  0.56255753066E+02  0.00000000000E+00 0. -1.
         21   -1    0    0  502  503 -0.00000000000E+00 -0.00000000000E+00 -0.79924044403E+03  0.79924044403E+03  0.00000000000E+00 0. -1.
          6    1    1    2  501    0  0.62818510680E+02 -0.80442142642E+02 -0.23443953530E+03  0.30871993669E+03  0.17300000000E+03 0. -1.
         -6    1    1    2    0  503 -0.62818510680E+02  0.80442142642E+02 -0.50854515566E+03  0.54677626041E+03  0.17300000000E+03 0. -1.
<mgrwt>
<rscale>  2 0.20086340E+03</rscale>
<asrwt>0</asrwt>
<pdfrwt beam="1">  1       21 0.86547318E-02 0.20086340E+03</pdfrwt>
<pdfrwt beam="2">  1       21 0.12296006E+00 0.20086340E+03</pdfrwt>
<totfact> 0.51769480E+04</totfact>
</mgrwt>
</event>
<event>
 4    1  0.4429256E+000  0.1793015E+03  0.7546771E-02  0.1168481E+00
         21   -1    0    0  501  502  0.00000000000E+00  0.00000000000E+00  0.15602986051E+03  0.15602986051E+03  0.00000000000E+00 0.  1.
         21   -1    0    0  502  503 -0.00000000000E+00 -0.00000000000E+00 -0.21443613313E+03  0.21443613313E+03  0.00000000000E+00 0.  1.
          6    1    1    2  501    0  0.46498977599E+02 -0.76085300531E+01  0.74406968383E+01  0.17945586816E+03  0.17300000000E+03 0.  1.
         -6    1    1    2    0  503 -0.46498977599E+02  0.76085300531E+01 -0.65846969459E+02  0.19101012548E+03  0.17300000000E+03 0.  1.
<mgrwt>
<rscale>  2 0.17930155E+03</rscale>
<asrwt>0</asrwt>
<pdfrwt beam="1">  1       21 0.24004594E-01 0.17930155E+03</pdfrwt>
<pdfrwt beam="2">  1       21 0.32990175E-01 0.17930155E+03</pdfrwt>
<totfact> 0.14539865E+05</totfact>
</mgrwt>
</event>
<event>
 4    1  0.4429256E+000  0.3379343E+03  0.7546771E-02  0.1067679E+00
         21   -1    0    0  501  502  0.00000000000E+00  0.00000000000E+00  0.37097112899E+03  0.37097112899E+03  0.00000000000E+00 0.  1.
         21   -1    0    0  502  503 -0.00000000000E+00 -0.00000000000E+00 -0.45365318013E+03  0.45365318013E+03  0.00000000000E+00 0. -1.
          6    1    1    2  501    0 -0.25960190912E+03 -0.12991325795E+03  0.19241517351E+03  0.38887427892E+03  0.17300000000E+03 0.  1.
         -6    1    1    2    0  503  0.25960190912E+03  0.12991325795E+03 -0.27509722465E+03  0.43575003020E+03  0.17300000000E+03 0. -1.
<mgrwt>
<rscale>  2 0.33793432E+03</rscale>
<asrwt>0</asrwt>
<pdfrwt beam="1">  1       21 0.57072482E-01 0.33793432E+03</pdfrwt>
<pdfrwt beam="2">  1       21 0.69792797E-01 0.33793432E+03</pdfrwt>
<totfact> 0.49350650E+03</totfact>
</mgrwt>
</event>
<event>
 4    1  0.4429256E+000  0.2080970E+03  0.7546771E-02  0.1143082E+00
         21   -1    0    0  503  502  0.00000000000E+00  0.00000000000E+00  0.98122525031E+03  0.98122525031E+03  0.00000000000E+00 0. -1.
         21   -1    0    0  501  503 -0.00000000000E+00 -0.00000000000E+00 -0.11972029720E+03  0.11972029720E+03  0.00000000000E+00 0. -1.
          6    1    1    2  501    0 -0.10749568390E+03 -0.42662117628E+02 -0.66451913275E+01  0.20820311454E+03  0.17300000000E+03 0. -1.
         -6    1    1    2    0  502  0.10749568390E+03  0.42662117628E+02  0.86815014444E+03  0.89274243297E+03  0.17300000000E+03 0. -1.
<mgrwt>
<rscale>  2 0.20809704E+03</rscale>
<asrwt>0</asrwt>
<pdfrwt beam="1">  1       21 0.15095773E+00 0.20809704E+03</pdfrwt>
<pdfrwt beam="2">  1       21 0.18418508E-01 0.20809704E+03</pdfrwt>
<totfact> 0.78141191E+03</totfact>
</mgrwt>
</event>
<event>
 4    1  0.4429256E+000  0.4692113E+03  0.7546771E-02  0.1022143E+00
         21   -1    0    0  503  502  0.00000000000E+00  0.00000000000E+00  0.12718602513E+04  0.12718602513E+04  0.00000000000E+00 0.  1.
         21   -1    0    0  501  503 -0.00000000000E+00 -0.00000000000E+00 -0.17575772887E+03  0.17575772887E+03  0.00000000000E+00 0.  1.
          6    1    1    2  501    0  0.13035621503E+03 -0.41621813537E+03  0.45904823351E+03  0.65641797636E+03  0.17300000000E+03 0.  1.
         -6    1    1    2    0  502 -0.13035621503E+03  0.41621813537E+03  0.63705428892E+03  0.79120000381E+03  0.17300000000E+03 0.  1.
<mgrwt>
<rscale>  2 0.46921134E+03</rscale>
<asrwt>0</asrwt>
<pdfrwt beam="1">  1       21 0.19567080E+00 0.46921134E+03</pdfrwt>
<pdfrwt beam="2">  1       21 0.27039651E-01 0.46921134E+03</pdfrwt>
<totfact> 0.15599001E+03</totfact>
</mgrwt>
</event>
<event>
 4    1  0.4429256E+000  0.3534061E+03  0.7546771E-02  0.1061226E+00
         21   -1    0    0  503  502  0.00000000000E+00  0.00000000000E+00  0.85338552884E+02  0.85338552884E+02  0.00000000000E+00 0.  1.
         21   -1    0    0  501  503 -0.00000000000E+00 -0.00000000000E+00 -0.14678805150E+04  0.14678805150E+04  0.00000000000E+00 0. -1.
          6    1    1    2  501    0  0.18547252793E+03 -0.24610328765E+03 -0.64901187976E+03  0.73899411830E+03  0.17300000000E+03 0. -1.
         -6    1    1    2    0  502 -0.18547252793E+03  0.24610328765E+03 -0.73353008237E+03  0.81422494960E+03  0.17300000000E+03 0.  1.
<mgrwt>
<rscale>  2 0.35340612E+03</rscale>
<asrwt>0</asrwt>
<pdfrwt beam="1">  1       21 0.13129007E-01 0.35340612E+03</pdfrwt>
<pdfrwt beam="2">  1       21 0.22582778E+00 0.35340612E+03</pdfrwt>
<totfact> 0.41146715E+03</totfact>
</mgrwt>
</event>
<event>
 4    1  0.4429256E+000  0.2033766E+03  0.7546771E-02  0.1146921E+00
         21   -1    0    0  501  502  0.00000000000E+00  0.00000000000E+00  0.17725084296E+03  0.17725084296E+03  0.00000000000E+00 0. -1.
         21   -1    0    0  502  503 -0.00000000000E+00 -0.00000000000E+00 -0.30539616152E+03  0.30539616152E+03  0.00000000000E+00 0.  1.
          6    1    1    2  501    0  0.28177882266E+02  0.10314582270E+03  0.53137045086E+02  0.21020370917E+03  0.17300000000E+03 0. -1.
         -6    1    1    2    0  503 -0.28177882266E+02 -0.10314582270E+03 -0.18128236364E+03  0.27244329531E+03  0.17300000000E+03 0.  1.
<mgrwt>
<rscale>  2 0.20337663E+03</rscale>
<asrwt>0</asrwt>
<pdfrwt beam="1">  1       21 0.27269360E-01 0.20337663E+03</pdfrwt>
<pdfrwt beam="2">  1       21 0.46984025E-01 0.20337663E+03</pdfrwt>
<totfact> 0.55307938E+04</totfact>
</mgrwt>
</event>
<event>
 4    1  0.4429256E+000  0.2263606E+03  0.7546771E-02  0.1129228E+00
         21   -1    0    0  501  502  0.00000000000E+00  0.00000000000E+00  0.16363385552E+03  0.16363385552E+03  0.00000000000E+00 0. -1.
         21   -1    0    0  502  503 -0.00000000000E+00 -0.00000000000E+00 -0.71529538603E+03  0.71529538603E+03  0.00000000000E+00 0. -1.
          6    1    1    2  501    0  0.86857685353E+02  0.11732793792E+03  0.53689493793E+02  0.23264063331E+03  0.17300000000E+03 0. -1.
         -6    1    1    2    0  503 -0.86857685353E+02 -0.11732793792E+03 -0.60535102430E+03  0.64628860825E+03  0.17300000000E+03 0. -1.
<mgrwt>
<rscale>  2 0.22636056E+03</rscale>
<asrwt>0</asrwt>
<pdfrwt beam="1">  1       21 0.25174440E-01 0.22636056E+03</pdfrwt>
<pdfrwt beam="2">  1       21 0.11004544E+00 0.22636056E+03</pdfrwt>
<totfact> 0.95291528E+03</totfact>
</mgrwt>
</event>
<event>
 4    1  0.4429256E+000  0.2115528E+03  0.7546771E-02  0.1140342E+00
         21   -1    0    0  503  502  0.00000000000E+00  0.00000000000E+00  0.29742342606E+02  0.29742342606E+02  0.00000000000E+00 0. -1.
         21   -1    0    0  501  503 -0.00000000000E+00 -0.00000000000E+00 -0.15143387234E+04  0.15143387234E+04  0.00000000000E+00 0.  1.
          6    1    1    2  501    0  0.11873532765E+03  0.26972371150E+02 -0.80375409939E+03  0.83112889441E+03  0.17300000000E+03 0.  1.
         -6    1    1    2    0  502 -0.11873532765E+03 -0.26972371150E+02 -0.68084228142E+03  0.71295217161E+03  0.17300000000E+03 0. -1.
<mgrwt>
<rscale>  2 0.21155280E+03</rscale>
<asrwt>0</asrwt>
<pdfrwt beam="1">  1       21 0.45757443E-02 0.21155280E+03</pdfrwt>
<pdfrwt beam="2">  1       21 0.23297522E+00 0.21155280E+03</pdfrwt>
<totfact> 0.25840901E+04</totfact>
</mgrwt>
</event>
<event>
 4    1  0.4429256E+000  0.1771947E+03  0.7546771E-02  0.1170546E+00
         21   -1    0    0  501  502  0.00000000000E+00  0.00000000000E+00  0.56095582937E+03  0.56095582937E+03  0.00000000000E+00 0. -1.
         21   -1    0    0  502  503 -0.00000000000E+00 -0.00000000000E+00 -0.11980827654E+03  0.11980827654E+03  0.00000000000E+00 0. -1.
          6    1    1    2  501    0 -0.14889508324E+02 -0.35316738975E+02  0.46903356313E+03  0.50138852485E+03  0.17300000000E+03 0. -1.
         -6    1    1    2    0  503  0.14889508324E+02  0.35316738975E+02 -0.27886010303E+02  0.17937558106E+03  0.17300000000E+03 0. -1.
<mgrwt>
<rscale>  2 0.17719472E+03</rscale>
<asrwt>0</asrwt>
<pdfrwt beam="1">  1       21 0.86300896E-01 0.17719472E+03</pdfrwt>
<pdfrwt beam="2">  1       21 0.18432043E-01 0.17719472E+03</pdfrwt>
<totfact> 0.31362536E+04</totfact>
</mgrwt>
</event>
<event>
 4    1  0.4429256E+000  0.2057468E+03  0.7546771E-02  0.1144979E+00
         21   -1    0    0  503  502  0.00000000000E+00  0.00000000000E+00  0.94837858279E+02  0.94837858279E+02  0.00000000000E+00 0. -1.
         21   -1    0    0  501  503 -0.00000000000E+00 -0.00000000000E+00 -0.44635960839E+03  0.44635960839E+03  0.00000000000E+00 0. -1.
          6    1    1    2  501    0  0.95657430039E+01  0.11095602405E+03 -0.17604469849E+03  0.27078308399E+03  0.17300000000E+03 0. -1.
         -6    1    1    2    0  502 -0.95657430039E+01 -0.11095602405E+03 -0.17547705162E+03  0.27041438267E+03  0.17300000000E+03 0. -1.
<mgrwt>
<rscale>  2 0.20574679E+03</rscale>
<asrwt>0</asrwt>
<pdfrwt beam="1">  1       21 0.14590440E-01 0.20574679E+03</pdfrwt>
<pdfrwt beam="2">  1       21 0.68670709E-01 0.20574679E+03</pdfrwt>
<totfact> 0.79278351E+04</totfact>
</mgrwt>
</event>
<event>
 4    1  0.4429256E+000  0.3496863E+03  0.7546771E-02  0.1062744E+00
         21   -1    0    0  501  502  0.00000000000E+00  0.00000000000E+00  0.38485807196E+03  0.38485807196E+03  0.00000000000E+00 0. -1.
         21   -1    0    0  502  503 -0.00000000000E+00 -0.00000000000E+00 -0.40044891716E+03  0.40044891716E+03  0.00000000000E+00 0.  1.
          6    1    1    2  501    0  0.29030741387E+03 -0.89850434331E+02 -0.18625565895E+03  0.39619649871E+03  0.17300000000E+03 0.  1.
         -6    1    1    2    0  503 -0.29030741387E+03  0.89850434331E+02  0.17066481375E+03  0.38911049041E+03  0.17300000000E+03 0. -1.
<mgrwt>
<rscale>  2 0.34968628E+03</rscale>
<asrwt>0</asrwt>
<pdfrwt beam="1">  1       21 0.59208934E-01 0.34968628E+03</pdfrwt>
<pdfrwt beam="2">  1       21 0.61607526E-01 0.34968628E+03</pdfrwt>
<totfact> 0.59752187E+03</totfact>
</mgrwt>
</event>
<event>
 4    1  0.4429256E+000  0.1757547E+03  0.7546771E-02  0.1171976E+00
         21   -1    0    0  501  502  0.00000000000E+00  0.00000000000E+00  0.10288157023E+04  0.10288157023E+04  0.00000000000E+00 0. -1.
         21   -1    0    0  502  503 -0.00000000000E+00 -0.00000000000E+00 -0.45321285003E+02  0.45321285003E+02  0.00000000000E+00 0. -1.
          6    1    1    2  501    0 -0.26338398687E+02 -0.16340132209E+02  0.80376415272E+03  0.82275544627E+03  0.17300000000E+03 0. -1.
         -6    1    1    2    0  503  0.26338398687E+02  0.16340132209E+02  0.17973026456E+03  0.25138154102E+03  0.17300000000E+03 0. -1.
<mgrwt>
<rscale>  2 0.17575469E+03</rscale>
<asrwt>0</asrwt>
<pdfrwt beam="1">  1       21 0.15827932E+00 0.17575469E+03</pdfrwt>
<pdfrwt beam="2">  1       21 0.69725061E-02 0.17575469E+03</pdfrwt>
<totfact> 0.39873523E+04</totfact>
</mgrwt>
</event>
<event>
 4    1  0.4429256E+000  0.1844578E+03  0.7546771E-02  0.1163557E+00
         21   -1    0    0  503  502  0.00000000000E+00  0.00000000000E+00  0.13698158895E+04  0.13698158895E+04  0.00000000000E+00 0. -1.
         21   -1    0    0  501  503 -0.00000000000E+00 -0.00000000000E+00 -0.67419860457E+02  0.67419860457E+02  0.00000000000E+00 0.  1.
          6    1    1    2  501    0 -0.45988582502E+02 -0.44505337541E+02  0.80098244135E+02  0.20109799478E+03  0.17300000000E+03 0.  1.
         -6    1    1    2    0  502  0.45988582502E+02  0.44505337541E+02  0.12222977849E+04  0.12361377552E+04  0.17300000000E+03 0. -1.
<mgrwt>
<rscale>  2 0.18445779E+03</rscale>
<asrwt>0</asrwt>
<pdfrwt beam="1">  1       21 0.21074089E+00 0.18445779E+03</pdfrwt>
<pdfrwt beam="2">  1       21 0.10372287E-01 0.18445779E+03</pdfrwt>
<totfact> 0.87969151E+03</totfact>
</mgrwt>
</event>
<event>
 4    1  0.4429256E+000  0.1846188E+03  0.7546771E-02  0.1163406E+00
         21   -1    0    0  501  502  0.00000000000E+00  0.00000000000E+00  0.13646184546E+03  0.13646184546E+03  0.00000000000E+00 0. -1.
         21   -1    0    0  502  503 -0.00000000000E+00 -0.00000000000E+00 -0.26041280434E+03  0.26041280434E+03  0.00000000000E+00 0. -1.
          6    1    1    2  501    0 -0.28254988813E+02 -0.57937388316E+02 -0.21859379190E+02  0.18590835865E+03  0.17300000000E+03 0.  1.
         -6    1    1    2    0  503  0.28254988813E+02  0.57937388316E+02 -0.10209157969E+03  0.21096629115E+03  0.17300000000E+03 0.  1.
<mgrwt>
<rscale>  2 0.18461876E+03</rscale>
<asrwt>0</asrwt>
<pdfrwt beam="1">  1       21 0.20994130E-01 0.18461876E+03</pdfrwt>
<pdfrwt beam="2">  1       21 0.40063508E-01 0.18461876E+03</pdfrwt>
<totfact> 0.12691309E+05</totfact>
</mgrwt>
</event>
<event>
 4    1  0.4429256E+000  0.2084812E+03  0.7546771E-02  0.1142774E+00
         21   -1    0    0  501  502  0.00000000000E+00  0.00000000000E+00  0.67939469062E+02  0.67939469062E+02  0.00000000000E+00 0.  1.
         21   -1    0    0  502  503 -0.00000000000E+00 -0.00000000000E+00 -0.75255413250E+03  0.75255413250E+03  0.00000000000E+00 0. -1.
          6    1    1    2  501    0 -0.57232480504E+02 -0.10129096958E+03 -0.18347649937E+03  0.27771936044E+03  0.17300000000E+03 0.  1.
         -6    1    1    2    0  503  0.57232480504E+02  0.10129096958E+03 -0.50113816406E+03  0.54277424112E+03  0.17300000000E+03 0. -1.
<mgrwt>
<rscale>  2 0.20848122E+03</rscale>
<asrwt>0</asrwt>
<pdfrwt beam="1">  1       21 0.10452225E-01 0.20848122E+03</pdfrwt>
<pdfrwt beam="2">  1       21 0.11577757E+00 0.20848122E+03</pdfrwt>
<totfact> 0.42905310E+04</totfact>
</mgrwt>
</event>
<event>
 4    1  0.4429256E+000  0.2133877E+03  0.7546771E-02  0.1138911E+00
         21   -1    0    0  503  502  0.00000000000E+00  0.00000000000E+00  0.14043232319E+04  0.14043232319E+04  0.00000000000E+00 0.  1.
         21   -1    0    0  501  503 -0.00000000000E+00 -0.00000000000E+00 -0.38905708037E+02  0.38905708037E+02  0.00000000000E+00 0. -1.
          6    1    1    2  501    0 -0.10057049765E+03  0.74100471356E+02  0.38817797454E+03  0.44296325443E+03  0.17300000000E+03 0. -1.
         -6    1    1    2    0  502  0.10057049765E+03 -0.74100471356E+02  0.97723954929E+03  0.10002656855E+04  0.17300000000E+03 0.  1.
<mgrwt>
<rscale>  2 0.21338769E+03</rscale>
<asrwt>0</asrwt>
<pdfrwt beam="1">  1       21 0.21604969E+00 0.21338769E+03</pdfrwt>
<pdfrwt beam="2">  1       21 0.59854946E-02 0.21338769E+03</pdfrwt>
<totfact> 0.20732733E+04</totfact>
</mgrwt>
</event>
<event>
 4    1  0.4429256E+000  0.1936715E+03  0.7546771E-02  0.1155191E+00
         21   -1    0    0  501  502  0.00000000000E+00  0.00000000000E+00  0.46262025919E+03  0.46262025919E+03  0.00000000000E+00 0. -1.
         21   -1    0    0  502  503 -0.00000000000E+00 -0.00000000000E+00 -0.20816890905E+03  0.20816890905E+03  0.00000000000E+00 0. -1.
          6    1    1    2  501    0 -0.45782496331E+02 -0.74051344321E+02  0.38928776409E+03  0.43480294599E+03  0.17300000000E+03 0. -1.
         -6    1    1    2    0  503  0.45782496331E+02  0.74051344321E+02 -0.13483641395E+03  0.23598622225E+03  0.17300000000E+03 0. -1.
<mgrwt>
<rscale>  2 0.19367147E+03</rscale>
<asrwt>0</asrwt>
<pdfrwt beam="1">  1       21 0.71172347E-01 0.19367147E+03</pdfrwt>
<pdfrwt beam="2">  1       21 0.32025986E-01 0.19367147E+03</pdfrwt>
<totfact> 0.16739972E+04</totfact>
</mgrwt>
</event>
<event>
 4    1  0.4429256E+000  0.2351173E+03  0.7546771E-02  0.1123089E+00
         21   -1    0    0  501  502  0.00000000000E+00  0.00000000000E+00  0.37261510337E+02  0.37261510337E+02  0.00000000000E+00 0. -1.
         21   -1    0    0  502  503 -0.00000000000E+00 -0.00000000000E+00 -0.20120213936E+04  0.20120213936E+04  0.00000000000E+00 0.  1.
          6    1    1    2  501    0  0.14109547514E+03 -0.73778155849E+02 -0.46226164572E+03  0.51861930015E+03  0.17300000000E+03 0. -1.
         -6    1    1    2    0  503 -0.14109547514E+03  0.73778155849E+02 -0.15124982375E+04  0.15306636037E+04  0.17300000000E+03 0.  1.
<mgrwt>
<rscale>  2 0.23511731E+03</rscale>
<asrwt>0</asrwt>
<pdfrwt beam="1">  1       21 0.57325371E-02 0.23511731E+03</pdfrwt>
<pdfrwt beam="2">  1       21 0.30954191E+00 0.23511731E+03</pdfrwt>
<totfact> 0.61285899E+03</totfact>
</mgrwt>
</event>
<event>
 4    1  0.4429256E+000  0.2161835E+03  0.7546771E-02  0.1136761E+00
         21   -1    0    0  501  502  0.00000000000E+00  0.00000000000E+00  0.64724549491E+02  0.64724549491E+02  0.00000000000E+00 0. -1.
         21   -1    0    0  502  503 -0.00000000000E+00 -0.00000000000E+00 -0.10224111750E+04  0.10224111750E+04  0.00000000000E+00 0. -1.
          6    1    1    2  501    0  0.12675752774E+03  0.27181217898E+02 -0.18422990739E+03  0.28403511794E+03  0.17300000000E+03 0. -1.
         -6    1    1    2    0  503 -0.12675752774E+03 -0.27181217898E+02 -0.77345671810E+03  0.80310060654E+03  0.17300000000E+03 0. -1.
<mgrwt>
<rscale>  2 0.21618346E+03</rscale>
<asrwt>0</asrwt>
<pdfrwt beam="1">  1       21 0.99576235E-02 0.21618346E+03</pdfrwt>
<pdfrwt beam="2">  1       21 0.15729402E+00 0.21618346E+03</pdfrwt>
<totfact> 0.21210995E+04</totfact>
</mgrwt>
</event>
<event>
 4    1  0.4429256E+000  0.2089948E+03  0.7546771E-02  0.1142364E+00
         21   -1    0    0  501  502  0.00000000000E+00  0.00000000000E+00  0.34825481284E+02  0.34825481284E+02  0.00000000000E+00 0.  1.
         21   -1    0    0  502  503 -0.00000000000E+00 -0.00000000000E+00 -0.12574382727E+04  0.12574382727E+04  0.00000000000E+00 0.  1.
          6    1    1    2  501    0 -0.11488574999E+03  0.23475437924E+02 -0.64399204265E+03  0.67705581951E+03  0.17300000000E+03 0.  1.
         -6    1    1    2    0  503  0.11488574999E+03 -0.23475437924E+02 -0.57862074875E+03  0.61520793445E+03  0.17300000000E+03 0.  1.
<mgrwt>
<rscale>  2 0.20899481E+03</rscale>
<asrwt>0</asrwt>
<pdfrwt beam="1">  1       21 0.53577661E-02 0.20899481E+03</pdfrwt>
<pdfrwt beam="2">  1       21 0.19345205E+00 0.20899481E+03</pdfrwt>
<totfact> 0.35024116E+04</totfact>
</mgrwt>
</event>
<event>
 4    1  0.4429256E+000  0.1874967E+03  0.7546771E-02  0.1160739E+00
         21   -1    0    0  503  502  0.00000000000E+00  0.00000000000E+00  0.88600102425E+02  0.88600102425E+02  0.00000000000E+00 0.  1.
         21   -1    0    0  501  503 -0.00000000000E+00 -0.00000000000E+00 -0.42923136377E+03  0.42923136377E+03  0.00000000000E+00 0. -1.
          6    1    1    2  501    0 -0.33075203852E+02 -0.64281094159E+02 -0.24150384196E+03  0.30574357534E+03  0.17300000000E+03 0. -1.
         -6    1    1    2    0  502  0.33075203852E+02  0.64281094159E+02 -0.99127419382E+02  0.21208789086E+03  0.17300000000E+03 0. -1.
<mgrwt>
<rscale>  2 0.18749674E+03</rscale>
<asrwt>0</asrwt>
<pdfrwt beam="1">  1       21 0.13630785E-01 0.18749674E+03</pdfrwt>
<pdfrwt beam="2">  1       21 0.66035595E-01 0.18749674E+03</pdfrwt>
<totfact> 0.98462315E+04</totfact>
</mgrwt>
</event>
<event>
 4    1  0.4429256E+000  0.1750409E+03  0.7546771E-02  0.1172691E+00
         21   -1    0    0  501  502  0.00000000000E+00  0.00000000000E+00  0.37744633603E+02  0.37744633603E+02  0.00000000000E+00 0.  1.
         21   -1    0    0  502  503 -0.00000000000E+00 -0.00000000000E+00 -0.87030148302E+03  0.87030148302E+03  0.00000000000E+00 0.  1.
          6    1    1    2  501    0 -0.25649989180E+01  0.26528335013E+02 -0.29851791656E+03  0.34605242129E+03  0.17300000000E+03 0.  1.
         -6    1    1    2    0  503  0.25649989180E+01 -0.26528335013E+02 -0.53403893286E+03  0.56199369533E+03  0.17300000000E+03 0.  1.
<mgrwt>
<rscale>  2 0.17504094E+03</rscale>
<asrwt>0</asrwt>
<pdfrwt beam="1">  1       21 0.58068674E-02 0.17504094E+03</pdfrwt>
<pdfrwt beam="2">  1       21 0.13389252E+00 0.17504094E+03</pdfrwt>
<totfact> 0.84355469E+04</totfact>
</mgrwt>
</event>
<event>
 4    1  0.4429256E+000  0.1743012E+03  0.7546771E-02  0.1173435E+00
         21   -1    0    0  503  502  0.00000000000E+00  0.00000000000E+00  0.12145650118E+04  0.12145650118E+04  0.00000000000E+00 0.  1.
         21   -1    0    0  501  503 -0.00000000000E+00 -0.00000000000E+00 -0.27293942928E+02  0.27293942928E+02  0.00000000000E+00 0.  1.
          6    1    1    2  501    0  0.21100952542E+02  0.25774207427E+01  0.41416645945E+03  0.44934925106E+03  0.17300000000E+03 0.  1.
         -6    1    1    2    0  502 -0.21100952542E+02 -0.25774207427E+01  0.77310460939E+03  0.79250970363E+03  0.17300000000E+03 0.  1.
<mgrwt>
<rscale>  2 0.17430116E+03</rscale>
<asrwt>0</asrwt>
<pdfrwt beam="1">  1       21 0.18685611E+00 0.17430116E+03</pdfrwt>
<pdfrwt beam="2">  1       21 0.41990691E-02 0.17430116E+03</pdfrwt>
<totfact> 0.59770250E+04</totfact>
</mgrwt>
</event>
<event>
 4    1  0.4429256E+000  0.2289304E+03  0.7546771E-02  0.1127395E+00
         21   -1    0    0  501  502  0.00000000000E+00  0.00000000000E+00  0.15425862390E+02  0.15425862390E+02  0.00000000000E+00 0.  1.
         21   -1    0    0  502  503 -0.00000000000E+00 -0.00000000000E+00 -0.37038815265E+04  0.37038815265E+04  0.00000000000E+00 0. -1.
          6    1    1    2  501    0  0.14961522258E+03 -0.97678564383E+01 -0.13093606854E+04  0.13292232809E+04  0.17300000000E+03 0.  1.
         -6    1    1    2    0  503 -0.14961522258E+03  0.97678564383E+01 -0.23790949786E+04  0.23900841080E+04  0.17300000000E+03 0. -1.
<mgrwt>
<rscale>  2 0.22893040E+03</rscale>
<asrwt>0</asrwt>
<pdfrwt beam="1">  1       21 0.23732109E-02 0.22893040E+03</pdfrwt>
<pdfrwt beam="2">  1       21 0.56982761E+00 0.22893040E+03</pdfrwt>
<totfact> 0.51385093E+02</totfact>
</mgrwt>
</event>
<event>
 4    1  0.4429256E+000  0.2348480E+03  0.7546771E-02  0.1123273E+00
         21   -1    0    0  501  502  0.00000000000E+00  0.00000000000E+00  0.37777592154E+02  0.37777592154E+02  0.00000000000E+00 0.  1.
         21   -1    0    0  502  503 -0.00000000000E+00 -0.00000000000E+00 -0.17894648359E+04  0.17894648359E+04  0.00000000000E+00 0. -1.
          6    1    1    2  501    0  0.18022498019E+01  0.15881229050E+03 -0.48379615027E+03  0.53778462858E+03  0.17300000000E+03 0.  1.
         -6    1    1    2    0  503 -0.18022498019E+01 -0.15881229050E+03 -0.12678910935E+04  0.12894577995E+04  0.17300000000E+03 0. -1.
<mgrwt>
<rscale>  2 0.23484802E+03</rscale>
<asrwt>0</asrwt>
<pdfrwt beam="1">  1       21 0.58119372E-02 0.23484802E+03</pdfrwt>
<pdfrwt beam="2">  1       21 0.27530229E+00 0.23484802E+03</pdfrwt>
<totfact> 0.94771661E+03</totfact>
</mgrwt>
</event>
<event>
 4    1  0.4429256E+000  0.3202371E+03  0.7546771E-02  0.1075540E+00
         21   -1    0    0  501  502  0.00000000000E+00  0.00000000000E+00  0.13572794329E+03  0.13572794329E+03  0.00000000000E+00 0.  1.
         21   -1    0    0  502  503 -0.00000000000E+00 -0.00000000000E+00 -0.76316278441E+03  0.76316278441E+03  0.00000000000E+00 0. -1.
          6    1    1    2  501    0  0.16986344205E+03 -0.20921089551E+03 -0.26888361686E+03  0.41815091433E+03  0.17300000000E+03 0. -1.
         -6    1    1    2    0  503 -0.16986344205E+03  0.20921089551E+03 -0.35855122426E+03  0.48073981337E+03  0.17300000000E+03 0. -1.
<mgrwt>
<rscale>  2 0.32023708E+03</rscale>
<asrwt>0</asrwt>
<pdfrwt beam="1">  1       21 0.20881222E-01 0.32023708E+03</pdfrwt>
<pdfrwt beam="2">  1       21 0.11740966E+00 0.32023708E+03</pdfrwt>
<totfact> 0.11053514E+04</totfact>
</mgrwt>
</event>
<event>
 4    1  0.4429256E+000  0.2318198E+03  0.7546771E-02  0.1125365E+00
         21   -1    0    0  503  502  0.00000000000E+00  0.00000000000E+00  0.99088080863E+02  0.99088080863E+02  0.00000000000E+00 0.  1.
         21   -1    0    0  501  503 -0.00000000000E+00 -0.00000000000E+00 -0.69104300794E+03  0.69104300794E+03  0.00000000000E+00 0. -1.
          6    1    1    2  501    0 -0.35304155761E+02 -0.15021665900E+03 -0.47923497310E+03  0.53235945328E+03  0.17300000000E+03 0. -1.
         -6    1    1    2    0  502  0.35304155761E+02  0.15021665900E+03 -0.11271995397E+03  0.25777163552E+03  0.17300000000E+03 0.  1.
<mgrwt>
<rscale>  2 0.23181982E+03</rscale>
<asrwt>0</asrwt>
<pdfrwt beam="1">  1       21 0.15244320E-01 0.23181982E+03</pdfrwt>
<pdfrwt beam="2">  1       21 0.10631431E+00 0.23181982E+03</pdfrwt>
<totfact> 0.26421525E+04</totfact>
</mgrwt>
</event>
<event>
 4    1  0.4429256E+000  0.1800881E+03  0.7546771E-02  0.1167718E+00
         21   -1    0    0  503  502  0.00000000000E+00  0.00000000000E+00  0.33956225651E+02  0.33956225651E+02  0.00000000000E+00 0. -1.
         21   -1    0    0  501  503 -0.00000000000E+00 -0.00000000000E+00 -0.16045257677E+04  0.16045257677E+04  0.00000000000E+00 0.  1.
          6    1    1    2  501    0  0.35911947631E+02  0.34829091013E+02 -0.13064815040E+04  0.13188349608E+04  0.17300000000E+03 0.  1.
         -6    1    1    2    0  502 -0.35911947631E+02 -0.34829091013E+02 -0.26408803798E+03  0.31964703247E+03  0.17300000000E+03 0. -1.
<mgrwt>
<rscale>  2 0.18008813E+03</rscale>
<asrwt>0</asrwt>
<pdfrwt beam="1">  1       21 0.52240347E-02 0.18008813E+03</pdfrwt>
<pdfrwt beam="2">  1       21 0.24685012E+00 0.18008813E+03</pdfrwt>
<totfact> 0.17526409E+04</totfact>
</mgrwt>
</event>
<event>
 4    1  0.4429256E+000  0.1848535E+03  0.7546771E-02  0.1163187E+00
         21   -1    0    0  503  502  0.00000000000E+00  0.00000000000E+00  0.18857366908E+03  0.18857366908E+03  0.00000000000E+00 0. -1.
         21   -1    0    0  501  503 -0.00000000000E+00 -0.00000000000E+00 -0.20805081778E+03  0.20805081778E+03  0.00000000000E+00 0. -1.
          6    1    1    2  501    0 -0.18337132231E+02  0.62494402998E+02 -0.80972991184E+02  0.20181037170E+03  0.17300000000E+03 0.  1.
         -6    1    1    2    0  502  0.18337132231E+02 -0.62494402998E+02  0.61495842488E+02  0.19481411517E+03  0.17300000000E+03 0.  1.
<mgrwt>
<rscale>  2 0.18485346E+03</rscale>
<asrwt>0</asrwt>
<pdfrwt beam="1">  1       21 0.29011334E-01 0.18485346E+03</pdfrwt>
<pdfrwt beam="2">  1       21 0.32007818E-01 0.18485346E+03</pdfrwt>
<totfact> 0.10708040E+05</totfact>
</mgrwt>
</event>
<event>
 4    1  0.4429256E+000  0.1846833E+03  0.7546771E-02  0.1163346E+00
         21   -1    0    0  503  502  0.00000000000E+00  0.00000000000E+00  0.12860416120E+03  0.12860416120E+03  0.00000000000E+00 0.  1.
         21   -1    0    0  501  503 -0.00000000000E+00 -0.00000000000E+00 -0.28305896142E+03  0.28305896142E+03  0.00000000000E+00 0. -1.
          6    1    1    2  501    0  0.64008074255E+02  0.90498874674E+01 -0.12890495822E+03  0.22522083004E+03  0.17300000000E+03 0. -1.
         -6    1    1    2    0  502 -0.64008074255E+02 -0.90498874674E+01 -0.25549842000E+02  0.18644229257E+03  0.17300000000E+03 0.  1.
<mgrwt>
<rscale>  2 0.18468333E+03</rscale>
<asrwt>0</asrwt>
<pdfrwt beam="1">  1       21 0.19785256E-01 0.18468333E+03</pdfrwt>
<pdfrwt beam="2">  1       21 0.43547532E-01 0.18468333E+03</pdfrwt>
<totfact> 0.11970522E+05</totfact>
</mgrwt>
</event>
<event>
 4    1  0.4429256E+000  0.2138294E+03  0.7546771E-02  0.1138569E+00
         21   -1    0    0  501  502  0.00000000000E+00  0.00000000000E+00  0.22944855418E+03  0.22944855418E+03  0.00000000000E+00 0.  1.
         21   -1    0    0  502  503 -0.00000000000E+00 -0.00000000000E+00 -0.19927350243E+03  0.19927350243E+03  0.00000000000E+00 0.  1.
          6    1    1    2  501    0 -0.12087654621E+03 -0.34392806195E+02  0.15199508572E+02  0.21436891007E+03  0.17300000000E+03 0.  1.
         -6    1    1    2    0  503  0.12087654621E+03  0.34392806195E+02  0.14975543180E+02  0.21435314655E+03  0.17300000000E+03 0.  1.
<mgrwt>
<rscale>  2 0.21382938E+03</rscale>
<asrwt>0</asrwt>
<pdfrwt beam="1">  1       21 0.35299777E-01 0.21382938E+03</pdfrwt>
<pdfrwt beam="2">  1       21 0.30657462E-01 0.21382938E+03</pdfrwt>
<totfact> 0.78325446E+04</totfact>
</mgrwt>
</event>
<event>
 4    1  0.4429256E+000  0.1882208E+03  0.7546771E-02  0.1160076E+00
         21   -1    0    0  501  502  0.00000000000E+00  0.00000000000E+00  0.10138121871E+04  0.10138121871E+04  0.00000000000E+00 0.  1.
         21   -1    0    0  502  503 -0.00000000000E+00 -0.00000000000E+00 -0.55607069202E+02  0.55607069202E+02  0.00000000000E+00 0.  1.
          6    1    1    2  501    0  0.62132833328E+02 -0.40467142991E+02  0.80504882092E+03  0.82675914431E+03  0.17300000000E+03 0.  1.
         -6    1    1    2    0  503 -0.62132833328E+02  0.40467142991E+02  0.15315629694E+03  0.24266011195E+03  0.17300000000E+03 0.  1.
<mgrwt>
<rscale>  2 0.18822082E+03</rscale>
<asrwt>0</asrwt>
<pdfrwt beam="1">  1       21 0.15597109E+00 0.18822082E+03</pdfrwt>
<pdfrwt beam="2">  1       21 0.85549344E-02 0.18822082E+03</pdfrwt>
<totfact> 0.28855671E+04</totfact>
</mgrwt>
</event>
<event>
 4    1  0.4429256E+000  0.2033322E+03  0.7546771E-02  0.1146958E+00
         21   -1    0    0  503  502  0.00000000000E+00  0.00000000000E+00  0.53607381572E+03  0.53607381572E+03  0.00000000000E+00 0. -1.
         21   -1    0    0  501  503 -0.00000000000E+00 -0.00000000000E+00 -0.93027851794E+02  0.93027851794E+02  0.00000000000E+00 0. -1.
          6    1    1    2  501    0 -0.16449644001E+01 -0.10682820241E+03  0.91464030747E+02  0.22295658694E+03  0.17300000000E+03 0. -1.
         -6    1    1    2    0  502  0.16449644001E+01  0.10682820241E+03  0.35158193318E+03  0.40614508058E+03  0.17300000000E+03 0. -1.
<mgrwt>
<rscale>  2 0.20333217E+03</rscale>
<asrwt>0</asrwt>
<pdfrwt beam="1">  1       21 0.82472892E-01 0.20333217E+03</pdfrwt>
<pdfrwt beam="2">  1       21 0.14311978E-01 0.20333217E+03</pdfrwt>
<totfact> 0.54554271E+04</totfact>
</mgrwt>
</event>
<event>
 4    1  0.4429256E+000  0.2449279E+03  0.7546771E-02  0.1116553E+00
         21   -1    0    0  503  502  0.00000000000E+00  0.00000000000E+00  0.27005433659E+03  0.27005433659E+03  0.00000000000E+00 0. -1.
         21   -1    0    0  501  503 -0.00000000000E+00 -0.00000000000E+00 -0.22225452318E+03  0.22225452318E+03  0.00000000000E+00 0.  1.
          6    1    1    2  501    0 -0.10031540326E+03 -0.14141255664E+03  0.29503703530E+02  0.24669852012E+03  0.17300000000E+03 0.  1.
         -6    1    1    2    0  502  0.10031540326E+03  0.14141255664E+03  0.18296109876E+02  0.24561033965E+03  0.17300000000E+03 0. -1.
<mgrwt>
<rscale>  2 0.24492793E+03</rscale>
<asrwt>0</asrwt>
<pdfrwt beam="1">  1       21 0.41546821E-01 0.24492793E+03</pdfrwt>
<pdfrwt beam="2">  1       21 0.34193003E-01 0.24492793E+03</pdfrwt>
<totfact> 0.44878229E+04</totfact>
</mgrwt>
</event>
<event>
 4    1  0.4429256E+000  0.2688308E+03  0.7546771E-02  0.1101951E+00
         21   -1    0    0  501  502  0.00000000000E+00  0.00000000000E+00  0.12714920676E+04  0.12714920676E+04  0.00000000000E+00 0.  1.
         21   -1    0    0  502  503 -0.00000000000E+00 -0.00000000000E+00 -0.10103951493E+03  0.10103951493E+03  0.00000000000E+00 0. -1.
          6    1    1    2  501    0  0.20215327110E+03  0.38406157442E+02  0.10391279444E+04  0.10733391183E+04  0.17300000000E+03 0.  1.
         -6    1    1    2    0  503 -0.20215327110E+03 -0.38406157442E+02  0.13132460828E+03  0.29919246429E+03  0.17300000000E+03 0. -1.
<mgrwt>
<rscale>  2 0.26883076E+03</rscale>
<asrwt>0</asrwt>
<pdfrwt beam="1">  1       21 0.19561415E+00 0.26883076E+03</pdfrwt>
<pdfrwt beam="2">  1       21 0.15544542E-01 0.26883076E+03</pdfrwt>
<totfact> 0.49605590E+03</totfact>
</mgrwt>
</event>
<event>
 4    1  0.4429256E+000  0.2032531E+03  0.7546771E-02  0.1147023E+00
         21   -1    0    0  501  502  0.00000000000E+00  0.00000000000E+00  0.18271439501E+03  0.18271439501E+03  0.00000000000E+00 0. -1.
         21   -1    0    0  502  503 -0.00000000000E+00 -0.00000000000E+00 -0.27015599638E+03  0.27015599638E+03  0.00000000000E+00 0. -1.
          6    1    1    2  501    0 -0.11172483073E+02 -0.10610375263E+03  0.47719212667E+02  0.20877967803E+03  0.17300000000E+03 0. -1.
         -6    1    1    2    0  503  0.11172483073E+02  0.10610375263E+03 -0.13516081403E+03  0.24409071336E+03  0.17300000000E+03 0. -1.
<mgrwt>
<rscale>  2 0.20325312E+03</rscale>
<asrwt>0</asrwt>
<pdfrwt beam="1">  1       21 0.28109907E-01 0.20325312E+03</pdfrwt>
<pdfrwt beam="2">  1       21 0.41562461E-01 0.20325312E+03</pdfrwt>
<totfact> 0.67071760E+04</totfact>
</mgrwt>
</event>
<event>
 4    1  0.4429256E+000  0.2127947E+03  0.7546771E-02  0.1139372E+00
         21   -1    0    0  503  502  0.00000000000E+00  0.00000000000E+00  0.56805104645E+03  0.56805104645E+03  0.00000000000E+00 0.  1.
         21   -1    0    0  501  503 -0.00000000000E+00 -0.00000000000E+00 -0.11030235545E+03  0.11030235545E+03  0.00000000000E+00 0.  1.
          6    1    1    2  501    0  0.85520163746E+02 -0.89659835159E+02  0.50261725640E+02  0.21865000689E+03  0.17300000000E+03 0.  1.
         -6    1    1    2    0  502 -0.85520163746E+02  0.89659835159E+02  0.40748696536E+03  0.45970339501E+03  0.17300000000E+03 0.  1.
<mgrwt>
<rscale>  2 0.21279470E+03</rscale>
<asrwt>0</asrwt>
<pdfrwt beam="1">  1       21 0.87392467E-01 0.21279470E+03</pdfrwt>
<pdfrwt beam="2">  1       21 0.16969593E-01 0.21279470E+03</pdfrwt>
<totfact> 0.34811881E+04</totfact>
</mgrwt>
</event>
<event>
 4    1  0.4429256E+000  0.2503775E+03  0.7546771E-02  0.1113066E+00
         21   -1    0    0  501  502  0.00000000000E+00  0.00000000000E+00  0.10326919701E+03  0.10326919701E+03  0.00000000000E+00 0. -1.
         21   -1    0    0  502  503 -0.00000000000E+00 -0.00000000000E+00 -0.66068731967E+03  0.66068731967E+03  0.00000000000E+00 0.  1.
          6    1    1    2  501    0 -0.30696678342E+02  0.17837490293E+03 -0.16986603398E+03  0.30256133520E+03  0.17300000000E+03 0. -1.
         -6    1    1    2    0  503  0.30696678342E+02 -0.17837490293E+03 -0.38755208868E+03  0.46139518149E+03  0.17300000000E+03 0.  1.
<mgrwt>
<rscale>  2 0.25037750E+03</rscale>
<asrwt>0</asrwt>
<pdfrwt beam="1">  1       21 0.15887569E-01 0.25037750E+03</pdfrwt>
<pdfrwt beam="2">  1       21 0.10164420E+00 0.25037750E+03</pdfrwt>
<totfact> 0.27047984E+04</totfact>
</mgrwt>
</event>
<event>
 4    1  0.4429256E+000  0.2233146E+03  0.7546771E-02  0.1131436E+00
         21   -1    0    0  501  502  0.00000000000E+00  0.00000000000E+00  0.50388573586E+03  0.50388573586E+03  0.00000000000E+00 0. -1.
         21   -1    0    0  502  503 -0.00000000000E+00 -0.00000000000E+00 -0.20026746067E+03  0.20026746067E+03  0.00000000000E+00 0. -1.
          6    1    1    2  501    0  0.10004640515E+03  0.99655049034E+02  0.40220775172E+03  0.46004400607E+03  0.17300000000E+03 0. -1.
         -6    1    1    2    0  503 -0.10004640515E+03 -0.99655049034E+02 -0.98589476527E+02  0.24410919045E+03  0.17300000000E+03 0. -1.
<mgrwt>
<rscale>  2 0.22331460E+03</rscale>
<asrwt>0</asrwt>
<pdfrwt beam="1">  1       21 0.77520882E-01 0.22331460E+03</pdfrwt>
<pdfrwt beam="2">  1       21 0.30810379E-01 0.22331460E+03</pdfrwt>
<totfact> 0.14653926E+04</totfact>
</mgrwt>
</event>
<event>
 4    1  0.4429256E+000  0.2746829E+03  0.7546771E-02  0.1098629E+00
         21   -1    0    0  503  502  0.00000000000E+00  0.00000000000E+00  0.35321755059E+03  0.35321755059E+03  0.00000000000E+00 0. -1.
         21   -1    0    0  501  503 -0.00000000000E+00 -0.00000000000E+00 -0.50622095203E+03  0.50622095203E+03  0.00000000000E+00 0. -1.
          6    1    1    2  501    0 -0.19991042415E+03 -0.74548907423E+02 -0.40321003748E+03  0.48788221079E+03  0.17300000000E+03 0. -1.
         -6    1    1    2    0  502  0.19991042415E+03  0.74548907423E+02  0.25020663603E+03  0.37155629183E+03  0.17300000000E+03 0. -1.
<mgrwt>
<rscale>  2 0.27468294E+03</rscale>
<asrwt>0</asrwt>
<pdfrwt beam="1">  1       21 0.54341162E-01 0.27468294E+03</pdfrwt>
<pdfrwt beam="2">  1       21 0.77880146E-01 0.27468294E+03</pdfrwt>
<totfact> 0.44212502E+03</totfact>
</mgrwt>
</event>
<event>
 4    1  0.4429256E+000  0.2025534E+03  0.7546771E-02  0.1147602E+00
         21   -1    0    0  501  502  0.00000000000E+00  0.00000000000E+00  0.34083517182E+03  0.34083517182E+03  0.00000000000E+00 0.  1.
         21   -1    0    0  502  503 -0.00000000000E+00 -0.00000000000E+00 -0.23205551782E+03  0.23205551782E+03  0.00000000000E+00 0.  1.
          6    1    1    2  501    0  0.89534792289E+02 -0.55519468486E+02  0.25310697541E+03  0.32417746901E+03  0.17300000000E+03 0.  1.
         -6    1    1    2    0  503 -0.89534792289E+02  0.55519468486E+02 -0.14432732141E+03  0.24871322063E+03  0.17300000000E+03 0.  1.
<mgrwt>
<rscale>  2 0.20255343E+03</rscale>
<asrwt>0</asrwt>
<pdfrwt beam="1">  1       21 0.52436180E-01 0.20255343E+03</pdfrwt>
<pdfrwt beam="2">  1       21 0.35700849E-01 0.20255343E+03</pdfrwt>
<totfact> 0.25948912E+04</totfact>
</mgrwt>
</event>
<event>
 4    1  0.4429256E+000  0.1858544E+03  0.7546771E-02  0.1162254E+00
         21   -1    0    0  503  502  0.00000000000E+00  0.00000000000E+00  0.63251658887E+02  0.63251658887E+02  0.00000000000E+00 0.  1.
         21   -1    0    0  501  503 -0.00000000000E+00 -0.00000000000E+00 -0.63120566827E+03  0.63120566827E+03  0.00000000000E+00 0.  1.
          6    1    1    2  501    0 -0.62728097298E+02 -0.26039502575E+02 -0.41147511881E+03  0.45150154295E+03  0.17300000000E+03 0.  1.
         -6    1    1    2    0  502  0.62728097298E+02  0.26039502575E+02 -0.15647889057E+03  0.24295578421E+03  0.17300000000E+03 0.  1.
<mgrwt>
<rscale>  2 0.18585443E+03</rscale>
<asrwt>0</asrwt>
<pdfrwt beam="1">  1       21 0.97310242E-02 0.18585443E+03</pdfrwt>
<pdfrwt beam="2">  1       21 0.97108566E-01 0.18585443E+03</pdfrwt>
<totfact> 0.75139416E+04</totfact>
</mgrwt>
</event>
<event>
 4    1  0.4429256E+000  0.3185747E+03  0.7546771E-02  0.1076307E+00
         21   -1    0    0  503  502  0.00000000000E+00  0.00000000000E+00  0.68904099256E+03  0.68904099256E+03  0.00000000000E+00 0.  1.
         21   -1    0    0  501  503 -0.00000000000E+00 -0.00000000000E+00 -0.17283000983E+03  0.17283000983E+03  0.00000000000E+00 0. -1.
          6    1    1    2  501    0  0.10122154822E+03  0.24761877697E+03  0.92451948187E+02  0.33171859046E+03  0.17300000000E+03 0. -1.
         -6    1    1    2    0  502 -0.10122154822E+03 -0.24761877697E+03  0.42375903454E+03  0.53015241194E+03  0.17300000000E+03 0.  1.
<mgrwt>
<rscale>  2 0.31857473E+03</rscale>
<asrwt>0</asrwt>
<pdfrwt beam="1">  1       21 0.10600631E+00 0.31857473E+03</pdfrwt>
<pdfrwt beam="2">  1       21 0.26589233E-01 0.31857473E+03</pdfrwt>
<totfact> 0.89453923E+03</totfact>
</mgrwt>
</event>
<event>
 4    1  0.4429256E+000  0.2268572E+03  0.7546771E-02  0.1128872E+00
         21   -1    0    0  503  502  0.00000000000E+00  0.00000000000E+00  0.14011326183E+03  0.14011326183E+03  0.00000000000E+00 0. -1.
         21   -1    0    0  501  503 -0.00000000000E+00 -0.00000000000E+00 -0.10373242529E+04  0.10373242529E+04  0.00000000000E+00 0. -1.
          6    1    1    2  501    0  0.13164809299E+03 -0.64838100226E+02 -0.92175074544E+03  0.94925688639E+03  0.17300000000E+03 0. -1.
         -6    1    1    2    0  502 -0.13164809299E+03  0.64838100226E+02  0.24539754325E+02  0.22818062839E+03  0.17300000000E+03 0. -1.
<mgrwt>
<rscale>  2 0.22685722E+03</rscale>
<asrwt>0</asrwt>
<pdfrwt beam="1">  1       21 0.21555887E-01 0.22685722E+03</pdfrwt>
<pdfrwt beam="2">  1       21 0.15958835E+00 0.22685722E+03</pdfrwt>
<totfact> 0.49444580E+03</totfact>
</mgrwt>
</event>
<event>
 4    1  0.4429256E+000  0.1846399E+03  0.7546771E-02  0.1163387E+00
         21   -1    0    0  501  502  0.00000000000E+00  0.00000000000E+00  0.78853076782E+03  0.78853076782E+03  0.00000000000E+00 0. -1.
         21   -1    0    0  502  503 -0.00000000000E+00 -0.00000000000E+00 -0.50389615552E+02  0.50389615552E+02  0.00000000000E+00 0. -1.
          6    1    1    2  501    0 -0.36030927818E+02 -0.53522513739E+02  0.52713081602E+03  0.55853270668E+03  0.17300000000E+03 0. -1.
         -6    1    1    2    0  503  0.36030927818E+02  0.53522513739E+02  0.21101033625E+03  0.28038767669E+03  0.17300000000E+03 0. -1.
<mgrwt>
<rscale>  2 0.18463989E+03</rscale>
<asrwt>0</asrwt>
<pdfrwt beam="1">  1       21 0.12131242E+00 0.18463989E+03</pdfrwt>
<pdfrwt beam="2">  1       21 0.77522491E-02 0.18463989E+03</pdfrwt>
<totfact> 0.65406284E+04</totfact>
</mgrwt>
</event>
<event>
 4    1  0.4429256E+000  0.2386227E+03  0.7546771E-02  0.1120714E+00
         21   -1    0    0  501  502  0.00000000000E+00  0.00000000000E+00  0.39175622342E+03  0.39175622342E+03  0.00000000000E+00 0.  1.
         21   -1    0    0  502  503 -0.00000000000E+00 -0.00000000000E+00 -0.50218569072E+03  0.50218569072E+03  0.00000000000E+00 0.  1.
          6    1    1    2  501    0  0.10156623344E+03  0.12921331657E+03  0.32156090332E+03  0.40042751591E+03  0.17300000000E+03 0.  1.
         -6    1    1    2    0  503 -0.10156623344E+03 -0.12921331657E+03 -0.43199037062E+03  0.49351439823E+03  0.17300000000E+03 0.  1.
<mgrwt>
<rscale>  2 0.23862267E+03</rscale>
<asrwt>0</asrwt>
<pdfrwt beam="1">  1       21 0.60270188E-01 0.23862267E+03</pdfrwt>
<pdfrwt beam="2">  1       21 0.77259337E-01 0.23862267E+03</pdfrwt>
<totfact> 0.36870830E+03</totfact>
</mgrwt>
</event>
<event>
 4    1  0.4429256E+000  0.1730758E+03  0.7546771E-02  0.1174678E+00
         21   -1    0    0  501  502  0.00000000000E+00  0.00000000000E+00  0.24765391812E+03  0.24765391812E+03  0.00000000000E+00 0.  1.
         21   -1    0    0  502  503 -0.00000000000E+00 -0.00000000000E+00 -0.12110234308E+03  0.12110234308E+03  0.00000000000E+00 0.  1.
          6    1    1    2  501    0  0.97434942697E+00  0.50285448899E+01  0.69684480838E+02  0.18657749728E+03  0.17300000000E+03 0.  1.
         -6    1    1    2    0  503 -0.97434942697E+00 -0.50285448899E+01  0.56867094204E+02  0.18217876392E+03  0.17300000000E+03 0.  1.
<mgrwt>
<rscale>  2 0.17307581E+03</rscale>
<asrwt>0</asrwt>
<pdfrwt beam="1">  1       21 0.38100603E-01 0.17307581E+03</pdfrwt>
<pdfrwt beam="2">  1       21 0.18631130E-01 0.17307581E+03</pdfrwt>
<totfact> 0.17603057E+05</totfact>
</mgrwt>
</event>
<event>
 4    1  0.4429256E+000  0.2379474E+03  0.7546771E-02  0.1121168E+00
         21   -1    0    0  503  502  0.00000000000E+00  0.00000000000E+00  0.79010701302E+03  0.79010701302E+03  0.00000000000E+00 0.  1.
         21   -1    0    0  501  503 -0.00000000000E+00 -0.00000000000E+00 -0.95454602895E+02  0.95454602895E+02  0.00000000000E+00 0. -1.
          6    1    1    2  501    0  0.16322801186E+03  0.68245321854E+01  0.12625567262E+03  0.26936861912E+03  0.17300000000E+03 0. -1.
         -6    1    1    2    0  502 -0.16322801186E+03 -0.68245321854E+01  0.56839673751E+03  0.61619299680E+03  0.17300000000E+03 0.  1.
<mgrwt>
<rscale>  2 0.23794739E+03</rscale>
<asrwt>0</asrwt>
<pdfrwt beam="1">  1       21 0.12155492E+00 0.23794739E+03</pdfrwt>
<pdfrwt beam="2">  1       21 0.14685324E-01 0.23794739E+03</pdfrwt>
<totfact> 0.20298809E+04</totfact>
</mgrwt>
</event>
<event>
 4    1  0.4429256E+000  0.2346075E+03  0.7546771E-02  0.1123438E+00
         21   -1    0    0  503  502  0.00000000000E+00  0.00000000000E+00  0.60625822031E+02  0.60625822031E+02  0.00000000000E+00 0.  1.
         21   -1    0    0  501  503 -0.00000000000E+00 -0.00000000000E+00 -0.90917832570E+03  0.90917832570E+03  0.00000000000E+00 0.  1.
          6    1    1    2  501    0 -0.12815729741E+03  0.93206164254E+02 -0.40591855592E+03  0.46883958448E+03  0.17300000000E+03 0.  1.
         -6    1    1    2    0  502  0.12815729741E+03 -0.93206164254E+02 -0.44263394775E+03  0.50096456325E+03  0.17300000000E+03 0.  1.
<mgrwt>
<rscale>  2 0.23460751E+03</rscale>
<asrwt>0</asrwt>
<pdfrwt beam="1">  1       21 0.93270492E-02 0.23460751E+03</pdfrwt>
<pdfrwt beam="2">  1       21 0.13987359E+00 0.23460751E+03</pdfrwt>
<totfact> 0.32128410E+04</totfact>
</mgrwt>
</event>
<event>
 4    1  0.4429256E+000  0.2081818E+03  0.7546771E-02  0.1143014E+00
         21   -1    0    0  503  502  0.00000000000E+00  0.00000000000E+00  0.33503256456E+03  0.33503256456E+03  0.00000000000E+00 0.  1.
         21   -1    0    0  501  503 -0.00000000000E+00 -0.00000000000E+00 -0.19679803712E+03  0.19679803712E+03  0.00000000000E+00 0.  1.
          6    1    1    2  501    0 -0.29816011673E+02  0.11190022008E+03 -0.86546286951E+02  0.22545490368E+03  0.17300000000E+03 0.  1.
         -6    1    1    2    0  502  0.29816011673E+02 -0.11190022008E+03  0.22478081439E+03  0.30637569800E+03  0.17300000000E+03 0.  1.
<mgrwt>
<rscale>  2 0.20818178E+03</rscale>
<asrwt>0</asrwt>
<pdfrwt beam="1">  1       21 0.51543472E-01 0.20818178E+03</pdfrwt>
<pdfrwt beam="2">  1       21 0.30276621E-01 0.20818178E+03</pdfrwt>
<totfact> 0.37127152E+04</totfact>
</mgrwt>
</event>
<event>
 4    1  0.4429256E+000  0.1863489E+03  0.7546771E-02  0.1161796E+00
         21   -1    0    0  501  502  0.00000000000E+00  0.00000000000E+00  0.23427177471E+02  0.23427177471E+02  0.00000000000E+00 0.  1.
         21   -1    0    0  502  503 -0.00000000000E+00 -0.00000000000E+00 -0.17557869465E+04  0.17557869465E+04  0.00000000000E+00 0.  1.
          6    1    1    2  501    0 -0.69257357830E+02 -0.56082259322E+00 -0.51507433058E+03  0.54774762634E+03  0.17300000000E+03 0.  1.
         -6    1    1    2    0  503  0.69257357830E+02  0.56082259322E+00 -0.12172854384E+04  0.12314664976E+04  0.17300000000E+03 0.  1.
<mgrwt>
<rscale>  2 0.18634886E+03</rscale>
<asrwt>0</asrwt>
<pdfrwt beam="1">  1       21 0.36041795E-02 0.18634886E+03</pdfrwt>
<pdfrwt beam="2">  1       21 0.27012119E+00 0.18634886E+03</pdfrwt>
<totfact> 0.23810472E+04</totfact>
</mgrwt>
</event>
<event>
 4    1  0.4429256E+000  0.2415095E+03  0.7546771E-02  0.1118791E+00
         21   -1    0    0  501  502  0.00000000000E+00  0.00000000000E+00  0.78499394556E+02  0.78499394556E+02  0.00000000000E+00 0. -1.
         21   -1    0    0  502  503 -0.00000000000E+00 -0.00000000000E+00 -0.77910070831E+03  0.77910070831E+03  0.00000000000E+00 0.  1.
          6    1    1    2  501    0 -0.10751554826E+03 -0.12976233935E+03 -0.25802708491E+03  0.35341878046E+03  0.17300000000E+03 0. -1.
         -6    1    1    2    0  503  0.10751554826E+03  0.12976233935E+03 -0.44257422883E+03  0.50418132240E+03  0.17300000000E+03 0.  1.
<mgrwt>
<rscale>  2 0.24150954E+03</rscale>
<asrwt>0</asrwt>
<pdfrwt beam="1">  1       21 0.12076830E-01 0.24150954E+03</pdfrwt>
<pdfrwt beam="2">  1       21 0.11986164E+00 0.24150954E+03</pdfrwt>
<totfact> 0.29915248E+04</totfact>
</mgrwt>
</event>
<event>
 4    1  0.4429256E+000  0.2035906E+03  0.7546771E-02  0.1146744E+00
         21   -1    0    0  503  502  0.00000000000E+00  0.00000000000E+00  0.19683715191E+03  0.19683715191E+03  0.00000000000E+00 0. -1.
         21   -1    0    0  501  503 -0.00000000000E+00 -0.00000000000E+00 -0.31620271197E+03  0.31620271197E+03  0.00000000000E+00 0.  1.
          6    1    1    2  501    0 -0.10615825134E+03  0.15829009957E+02 -0.20794336347E+03  0.29101473209E+03  0.17300000000E+03 0. -1.
         -6    1    1    2    0  502  0.10615825134E+03 -0.15829009957E+02  0.88577803417E+02  0.22202513178E+03  0.17300000000E+03 0. -1.
<mgrwt>
<rscale>  2 0.20359060E+03</rscale>
<asrwt>0</asrwt>
<pdfrwt beam="1">  1       21 0.30282639E-01 0.20359060E+03</pdfrwt>
<pdfrwt beam="2">  1       21 0.48646571E-01 0.20359060E+03</pdfrwt>
<totfact> 0.41977186E+04</totfact>
</mgrwt>
</event>
<event>
 4    1  0.4429256E+000  0.5017760E+03  0.7546771E-02  0.1013316E+00
         21   -1    0    0  503  502  0.00000000000E+00  0.00000000000E+00  0.60404674381E+03  0.60404674381E+03  0.00000000000E+00 0. -1.
         21   -1    0    0  501  503 -0.00000000000E+00 -0.00000000000E+00 -0.60228805447E+03  0.60228805447E+03  0.00000000000E+00 0.  1.
          6    1    1    2  501    0 -0.24344275754E+03 -0.40321922165E+03 -0.33383136525E+03  0.60267943165E+03  0.17300000000E+03 0.  1.
         -6    1    1    2    0  502  0.24344275754E+03  0.40321922165E+03  0.33559005459E+03  0.60365536662E+03  0.17300000000E+03 0. -1.
<mgrwt>
<rscale>  2 0.50177596E+03</rscale>
<asrwt>0</asrwt>
<pdfrwt beam="1">  1       21 0.92930268E-01 0.50177596E+03</pdfrwt>
<pdfrwt beam="2">  1       21 0.92659701E-01 0.50177596E+03</pdfrwt>
<totfact> 0.79375605E+02</totfact>
</mgrwt>
</event>
<event>
 4    1  0.4429256E+000  0.2280687E+03  0.7546771E-02  0.1128007E+00
         21   -1    0    0  501  502  0.00000000000E+00  0.00000000000E+00  0.40895044985E+03  0.40895044985E+03  0.00000000000E+00 0. -1.
         21   -1    0    0  502  503 -0.00000000000E+00 -0.00000000000E+00 -0.60290925590E+03  0.60290925590E+03  0.00000000000E+00 0.  1.
          6    1    1    2  501    0  0.10987569824E+03  0.10006836792E+03  0.35242637017E+03  0.41978529478E+03  0.17300000000E+03 0. -1.
         -6    1    1    2    0  503 -0.10987569824E+03 -0.10006836792E+03 -0.54638517623E+03  0.59207441097E+03  0.17300000000E+03 0.  1.
<mgrwt>
<rscale>  2 0.22806873E+03</rscale>
<asrwt>0</asrwt>
<pdfrwt beam="1">  1       21 0.62915454E-01 0.22806873E+03</pdfrwt>
<pdfrwt beam="2">  1       21 0.92755269E-01 0.22806873E+03</pdfrwt>
<totfact> 0.22239351E+03</totfact>
</mgrwt>
</event>
<event>
 4    1  0.4429256E+000  0.1976616E+03  0.7546771E-02  0.1151727E+00
         21   -1    0    0  503  502  0.00000000000E+00  0.00000000000E+00  0.19336728639E+03  0.19336728639E+03  0.00000000000E+00 0.  1.
         21   -1    0    0  501  503 -0.00000000000E+00 -0.00000000000E+00 -0.20869939032E+03  0.20869939032E+03  0.00000000000E+00 0.  1.
          6    1    1    2  501    0  0.91959595449E+02  0.26163930106E+02 -0.43546246932E+02  0.20240156634E+03  0.17300000000E+03 0.  1.
         -6    1    1    2    0  502 -0.91959595449E+02 -0.26163930106E+02  0.28214142999E+02  0.19966511037E+03  0.17300000000E+03 0.  1.
<mgrwt>
<rscale>  2 0.19766163E+03</rscale>
<asrwt>0</asrwt>
<pdfrwt beam="1">  1       21 0.29748813E-01 0.19766163E+03</pdfrwt>
<pdfrwt beam="2">  1       21 0.32107599E-01 0.19766163E+03</pdfrwt>
<totfact> 0.10086926E+05</totfact>
</mgrwt>
</event>
<event>
 4    1  0.4429256E+000  0.2480203E+03  0.7546771E-02  0.1114562E+00
         21   -1    0    0  503  502  0.00000000000E+00  0.00000000000E+00  0.10155189135E+03  0.10155189135E+03  0.00000000000E+00 0.  1.
         21   -1    0    0  501  503 -0.00000000000E+00 -0.00000000000E+00 -0.80050330457E+03  0.80050330457E+03  0.00000000000E+00 0.  1.
          6    1    1    2  501    0 -0.13397900606E+02  0.17721618819E+03 -0.57194736777E+03  0.62340827120E+03  0.17300000000E+03 0.  1.
         -6    1    1    2    0  502  0.13397900606E+02 -0.17721618819E+03 -0.12700404544E+03  0.27864692472E+03  0.17300000000E+03 0.  1.
<mgrwt>
<rscale>  2 0.24802032E+03</rscale>
<asrwt>0</asrwt>
<pdfrwt beam="1">  1       21 0.15623368E-01 0.24802032E+03</pdfrwt>
<pdfrwt beam="2">  1       21 0.12315435E+00 0.24802032E+03</pdfrwt>
<totfact> 0.17443258E+04</totfact>
</mgrwt>
</event>
<event>
 4    1  0.4429256E+000  0.2244845E+03  0.7546771E-02  0.1130583E+00
         21   -1    0    0  501  502  0.00000000000E+00  0.00000000000E+00  0.19783383658E+03  0.19783383658E+03  0.00000000000E+00 0.  1.
         21   -1    0    0  502  503 -0.00000000000E+00 -0.00000000000E+00 -0.26833049796E+03  0.26833049796E+03  0.00000000000E+00 0. -1.
          6    1    1    2  501    0  0.13665935294E+03 -0.42290978941E+02  0.17235395984E+02  0.22514520764E+03  0.17300000000E+03 0.  1.
         -6    1    1    2    0  503 -0.13665935294E+03  0.42290978941E+02 -0.87732057363E+02  0.24101912691E+03  0.17300000000E+03 0. -1.
<mgrwt>
<rscale>  2 0.22448453E+03</rscale>
<asrwt>0</asrwt>
<pdfrwt beam="1">  1       21 0.30435975E-01 0.22448453E+03</pdfrwt>
<pdfrwt beam="2">  1       21 0.41281615E-01 0.22448453E+03</pdfrwt>
<totfact> 0.57709281E+04</totfact>
</mgrwt>
</event>
<event>
 4    1  0.4429256E+000  0.2634277E+03  0.7546771E-02  0.1105101E+00
         21   -1    0    0  501  502  0.00000000000E+00  0.00000000000E+00  0.83852856005E+03  0.83852856005E+03  0.00000000000E+00 0.  1.
         21   -1    0    0  502  503 -0.00000000000E+00 -0.00000000000E+00 -0.82772524944E+02  0.82772524944E+02  0.00000000000E+00 0. -1.
          6    1    1    2  501    0 -0.15453332071E+03 -0.12483831902E+03  0.38417584166E+03  0.46581673480E+03  0.17300000000E+03 0. -1.
         -6    1    1    2    0  503  0.15453332071E+03  0.12483831902E+03  0.37158019345E+03  0.45548435019E+03  0.17300000000E+03 0.  1.
<mgrwt>
<rscale>  2 0.26342770E+03</rscale>
<asrwt>0</asrwt>
<pdfrwt beam="1">  1       21 0.12900439E+00 0.26342770E+03</pdfrwt>
<pdfrwt beam="2">  1       21 0.12734235E-01 0.26342770E+03</pdfrwt>
<totfact> 0.22346132E+04</totfact>
</mgrwt>
</event>
<event>
 4    1  0.4429256E+000  0.1859732E+03  0.7546771E-02  0.1162144E+00
         21   -1    0    0  503  502  0.00000000000E+00  0.00000000000E+00  0.95749664948E+02  0.95749664948E+02  0.00000000000E+00 0. -1.
         21   -1    0    0  501  503 -0.00000000000E+00 -0.00000000000E+00 -0.36139708253E+03  0.36139708253E+03  0.00000000000E+00 0.  1.
          6    1    1    2  501    0  0.66528947851E+02 -0.15196168308E+02 -0.12766512043E+03  0.22557572433E+03  0.17300000000E+03 0. -1.
         -6    1    1    2    0  502 -0.66528947851E+02  0.15196168308E+02 -0.13798229715E+03  0.23157102315E+03  0.17300000000E+03 0. -1.
<mgrwt>
<rscale>  2 0.18597318E+03</rscale>
<asrwt>0</asrwt>
<pdfrwt beam="1">  1       21 0.14730718E-01 0.18597318E+03</pdfrwt>
<pdfrwt beam="2">  1       21 0.55599551E-01 0.18597318E+03</pdfrwt>
<totfact> 0.12388122E+05</totfact>
</mgrwt>
</event>
<event>
 4    1  0.4429256E+000  0.3420930E+03  0.7546771E-02  0.1065908E+00
         21   -1    0    0  501  502  0.00000000000E+00  0.00000000000E+00  0.36621496943E+03  0.36621496943E+03  0.00000000000E+00 0. -1.
         21   -1    0    0  502  503 -0.00000000000E+00 -0.00000000000E+00 -0.33204085449E+03  0.33204085449E+03  0.00000000000E+00 0.  1.
          6    1    1    2  501    0 -0.28516094931E+03 -0.76038583347E+02  0.84775112751E+02  0.35244070836E+03  0.17300000000E+03 0. -1.
         -6    1    1    2    0  503  0.28516094931E+03  0.76038583347E+02 -0.50600997803E+02  0.34581511556E+03  0.17300000000E+03 0.  1.
<mgrwt>
<rscale>  2 0.34209302E+03</rscale>
<asrwt>0</asrwt>
<pdfrwt beam="1">  1       21 0.56340765E-01 0.34209302E+03</pdfrwt>
<pdfrwt beam="2">  1       21 0.51083208E-01 0.34209302E+03</pdfrwt>
<totfact> 0.99904649E+03</totfact>
</mgrwt>
</event>
<event>
 4    1  0.4429256E+000  0.1883267E+03  0.7546771E-02  0.1159979E+00
         21   -1    0    0  503  502  0.00000000000E+00  0.00000000000E+00  0.19441576188E+03  0.19441576188E+03  0.00000000000E+00 0.  1.
         21   -1    0    0  501  503 -0.00000000000E+00 -0.00000000000E+00 -0.23364383470E+03  0.23364383470E+03  0.00000000000E+00 0.  1.
          6    1    1    2  501    0  0.13234339208E+02 -0.73231123139E+02 -0.11982096623E+03  0.22321292319E+03  0.17300000000E+03 0.  1.
         -6    1    1    2    0  502 -0.13234339208E+02  0.73231123139E+02  0.80592893418E+02  0.20484667339E+03  0.17300000000E+03 0.  1.
<mgrwt>
<rscale>  2 0.18832670E+03</rscale>
<asrwt>0</asrwt>
<pdfrwt beam="1">  1       21 0.29910117E-01 0.18832670E+03</pdfrwt>
<pdfrwt beam="2">  1       21 0.35945205E-01 0.18832670E+03</pdfrwt>
<totfact> 0.80137828E+04</totfact>
</mgrwt>
</event>
<event>
 4    1  0.4429256E+000  0.1745065E+03  0.7546771E-02  0.1173228E+00
         21   -1    0    0  503  502  0.00000000000E+00  0.00000000000E+00  0.27933089240E+03  0.27933089240E+03  0.00000000000E+00 0. -1.
         21   -1    0    0  501  503 -0.00000000000E+00 -0.00000000000E+00 -0.12874872407E+03  0.12874872407E+03  0.00000000000E+00 0. -1.
          6    1    1    2  501    0 -0.90151637375E+00  0.22862384518E+02 -0.45817232189E+01  0.17456658771E+03  0.17300000000E+03 0. -1.
         -6    1    1    2    0  502  0.90151637375E+00 -0.22862384518E+02  0.15516389155E+03  0.23351302875E+03  0.17300000000E+03 0. -1.
<mgrwt>
<rscale>  2 0.17450645E+03</rscale>
<asrwt>0</asrwt>
<pdfrwt beam="1">  1       21 0.42973983E-01 0.17450645E+03</pdfrwt>
<pdfrwt beam="2">  1       21 0.19807496E-01 0.17450645E+03</pdfrwt>
<totfact> 0.12317614E+05</totfact>
</mgrwt>
</event>
<event>
 4    1  0.4429256E+000  0.2045710E+03  0.7546771E-02  0.1145939E+00
         21   -1    0    0  501  502  0.00000000000E+00  0.00000000000E+00  0.56548119794E+02  0.56548119794E+02  0.00000000000E+00 0. -1.
         21   -1    0    0  502  503 -0.00000000000E+00 -0.00000000000E+00 -0.95126999547E+03  0.95126999547E+03  0.00000000000E+00 0. -1.
          6    1    1    2  501    0 -0.10830993827E+03  0.13757292695E+02 -0.20992198594E+03  0.29311524356E+03  0.17300000000E+03 0. -1.
         -6    1    1    2    0  503  0.10830993827E+03 -0.13757292695E+02 -0.68479988974E+03  0.71470287170E+03  0.17300000000E+03 0. -1.
<mgrwt>
<rscale>  2 0.20457103E+03</rscale>
<asrwt>0</asrwt>
<pdfrwt beam="1">  1       21 0.86997110E-02 0.20457103E+03</pdfrwt>
<pdfrwt beam="2">  1       21 0.14634923E+00 0.20457103E+03</pdfrwt>
<totfact> 0.32815481E+04</totfact>
</mgrwt>
</event>
<event>
 4    1  0.4429256E+000  0.1762497E+03  0.7546771E-02  0.1171483E+00
         21   -1    0    0  503  502  0.00000000000E+00  0.00000000000E+00  0.43561890954E+03  0.43561890954E+03  0.00000000000E+00 0. -1.
         21   -1    0    0  501  503 -0.00000000000E+00 -0.00000000000E+00 -0.88286884159E+02  0.88286884159E+02  0.00000000000E+00 0. -1.
          6    1    1    2  501    0 -0.21457795133E+02  0.25971794342E+02  0.58796574847E+02  0.18579830001E+03  0.17300000000E+03 0. -1.
         -6    1    1    2    0  502  0.21457795133E+02 -0.25971794342E+02  0.28853545053E+03  0.33810749369E+03  0.17300000000E+03 0. -1.
<mgrwt>
<rscale>  2 0.17624974E+03</rscale>
<asrwt>0</asrwt>
<pdfrwt beam="1">  1       21 0.67018292E-01 0.17624974E+03</pdfrwt>
<pdfrwt beam="2">  1       21 0.13582598E-01 0.17624974E+03</pdfrwt>
<totfact> 0.96376112E+04</totfact>
</mgrwt>
</event>
<event>
 4    1  0.4429256E+000  0.1962157E+03  0.7546771E-02  0.1152972E+00
         21   -1    0    0  503  502  0.00000000000E+00  0.00000000000E+00  0.39535310162E+03  0.39535310162E+03  0.00000000000E+00 0. -1.
         21   -1    0    0  501  503 -0.00000000000E+00 -0.00000000000E+00 -0.33752879776E+03  0.33752879776E+03  0.00000000000E+00 0. -1.
          6    1    1    2  501    0  0.86591823112E+02 -0.32763568384E+02 -0.28017877217E+03  0.34205370867E+03  0.17300000000E+03 0. -1.
         -6    1    1    2    0  502 -0.86591823112E+02  0.32763568384E+02  0.33800307603E+03  0.39082819070E+03  0.17300000000E+03 0. -1.
<mgrwt>
<rscale>  2 0.19621569E+03</rscale>
<asrwt>0</asrwt>
<pdfrwt beam="1">  1       21 0.60823554E-01 0.19621569E+03</pdfrwt>
<pdfrwt beam="2">  1       21 0.51927507E-01 0.19621569E+03</pdfrwt>
<totfact> 0.88371555E+03</totfact>
</mgrwt>
</event>
<event>
 4    1  0.4429256E+000  0.2094360E+03  0.7546771E-02  0.1142013E+00
         21   -1    0    0  503  502  0.00000000000E+00  0.00000000000E+00  0.28396625251E+03  0.28396625251E+03  0.00000000000E+00 0. -1.
         21   -1    0    0  501  503 -0.00000000000E+00 -0.00000000000E+00 -0.28207805641E+03  0.28207805641E+03  0.00000000000E+00 0.  1.
          6    1    1    2  501    0 -0.29132196855E+02  0.11439301384E+03 -0.18941767677E+03  0.28238715053E+03  0.17300000000E+03 0.  1.
         -6    1    1    2    0  502  0.29132196855E+02 -0.11439301384E+03  0.19130587288E+03  0.28365715839E+03  0.17300000000E+03 0. -1.
<mgrwt>
<rscale>  2 0.20943602E+03</rscale>
<asrwt>0</asrwt>
<pdfrwt beam="1">  1       21 0.43687116E-01 0.20943602E+03</pdfrwt>
<pdfrwt beam="2">  1       21 0.43396624E-01 0.20943602E+03</pdfrwt>
<totfact> 0.25457686E+04</totfact>
</mgrwt>
</event>
<event>
 4    1  0.4429256E+000  0.2358381E+03  0.7546771E-02  0.1122597E+00
         21   -1    0    0  501  502  0.00000000000E+00  0.00000000000E+00  0.93056805765E+02  0.93056805765E+02  0.00000000000E+00 0. -1.
         21   -1    0    0  502  503 -0.00000000000E+00 -0.00000000000E+00 -0.59877925734E+03  0.59877925734E+03  0.00000000000E+00 0. -1.
          6    1    1    2  501    0 -0.70161002139E+02  0.14411114136E+03 -0.26758118207E+03  0.35667811299E+03  0.17300000000E+03 0. -1.
         -6    1    1    2    0  503  0.70161002139E+02 -0.14411114136E+03 -0.23814126951E+03  0.33515795012E+03  0.17300000000E+03 0. -1.
<mgrwt>
<rscale>  2 0.23583805E+03</rscale>
<asrwt>0</asrwt>
<pdfrwt beam="1">  1       21 0.14316432E-01 0.23583805E+03</pdfrwt>
<pdfrwt beam="2">  1       21 0.92119884E-01 0.23583805E+03</pdfrwt>
<totfact> 0.41597688E+04</totfact>
</mgrwt>
</event>
<event>
 4    1  0.4429256E+000  0.1999446E+03  0.7546771E-02  0.1149786E+00
         21   -1    0    0  501  502  0.00000000000E+00  0.00000000000E+00  0.33791760005E+03  0.33791760005E+03  0.00000000000E+00 0. -1.
         21   -1    0    0  502  503 -0.00000000000E+00 -0.00000000000E+00 -0.12507411265E+03  0.12507411265E+03  0.00000000000E+00 0. -1.
          6    1    1    2  501    0  0.73048675328E+02 -0.68649343604E+02  0.52572707134E+02  0.20674073348E+03  0.17300000000E+03 0. -1.
         -6    1    1    2    0  503 -0.73048675328E+02  0.68649343604E+02  0.16027078027E+03  0.25625097922E+03  0.17300000000E+03 0. -1.
<mgrwt>
<rscale>  2 0.19994460E+03</rscale>
<asrwt>0</asrwt>
<pdfrwt beam="1">  1       21 0.51987323E-01 0.19994460E+03</pdfrwt>
<pdfrwt beam="2">  1       21 0.19242171E-01 0.19994460E+03</pdfrwt>
<totfact> 0.86857939E+04</totfact>
</mgrwt>
</event>
<event>
 4    1  0.4429256E+000  0.2505651E+03  0.7546771E-02  0.1112948E+00
         21   -1    0    0  503  502  0.00000000000E+00  0.00000000000E+00  0.32451943813E+04  0.32451943813E+04  0.00000000000E+00 0.  1.
         21   -1    0    0  501  503 -0.00000000000E+00 -0.00000000000E+00 -0.97354768048E+02  0.97354768048E+02  0.00000000000E+00 0.  1.
          6    1    1    2  501    0  0.14013112846E+03 -0.11496586975E+03  0.77891739561E+02  0.26239284949E+03  0.17300000000E+03 0.  1.
         -6    1    1    2    0  502 -0.14013112846E+03  0.11496586975E+03  0.30699478737E+04  0.30801562999E+04  0.17300000000E+03 0.  1.
<mgrwt>
<rscale>  2 0.25056513E+03</rscale>
<asrwt>0</asrwt>
<pdfrwt beam="1">  1       21 0.49926059E+00 0.25056513E+03</pdfrwt>
<pdfrwt beam="2">  1       21 0.14977659E-01 0.25056513E+03</pdfrwt>
<totfact> 0.68469438E+01</totfact>
</mgrwt>
</event>
<event>
 4    1  0.4429256E+000  0.1835978E+03  0.7546771E-02  0.1164366E+00
         21   -1    0    0  503  502  0.00000000000E+00  0.00000000000E+00  0.53288075214E+03  0.53288075214E+03  0.00000000000E+00 0.  1.
         21   -1    0    0  501  503 -0.00000000000E+00 -0.00000000000E+00 -0.64504373217E+02  0.64504373217E+02  0.00000000000E+00 0.  1.
          6    1    1    2  501    0 -0.43864948546E+01 -0.61318125595E+02  0.19264299903E+03  0.26611929456E+03  0.17300000000E+03 0.  1.
         -6    1    1    2    0  502  0.43864948546E+01  0.61318125595E+02  0.27573337989E+03  0.33126583079E+03  0.17300000000E+03 0.  1.
<mgrwt>
<rscale>  2 0.18359780E+03</rscale>
<asrwt>0</asrwt>
<pdfrwt beam="1">  1       21 0.81981651E-01 0.18359780E+03</pdfrwt>
<pdfrwt beam="2">  1       21 0.99237501E-02 0.18359780E+03</pdfrwt>
<totfact> 0.10739546E+05</totfact>
</mgrwt>
</event>
<event>
 4    1  0.4429256E+000  0.1779714E+03  0.7546771E-02  0.1169781E+00
         21   -1    0    0  501  502  0.00000000000E+00  0.00000000000E+00  0.30763357698E+03  0.30763357698E+03  0.00000000000E+00 0.  1.
         21   -1    0    0  502  503 -0.00000000000E+00 -0.00000000000E+00 -0.25276602845E+03  0.25276602845E+03  0.00000000000E+00 0.  1.
          6    1    1    2  501    0  0.21739098503E+01 -0.41714226528E+02  0.24314553672E+03  0.30131968838E+03  0.17300000000E+03 0.  1.
         -6    1    1    2    0  503 -0.21739098503E+01  0.41714226528E+02 -0.18827798819E+03  0.25907991704E+03  0.17300000000E+03 0.  1.
<mgrwt>
<rscale>  2 0.17797135E+03</rscale>
<asrwt>0</asrwt>
<pdfrwt beam="1">  1       21 0.47328242E-01 0.17797135E+03</pdfrwt>
<pdfrwt beam="2">  1       21 0.38887082E-01 0.17797135E+03</pdfrwt>
<totfact> 0.27453372E+04</totfact>
</mgrwt>
</event>
<event>
 4    1  0.4429256E+000  0.1761916E+03  0.7546771E-02  0.1171541E+00
         21   -1    0    0  501  502  0.00000000000E+00  0.00000000000E+00  0.81616089250E+02  0.81616089250E+02  0.00000000000E+00 0. -1.
         21   -1    0    0  502  503 -0.00000000000E+00 -0.00000000000E+00 -0.53978264202E+03  0.53978264202E+03  0.00000000000E+00 0. -1.
          6    1    1    2  501    0  0.33383486226E+02  0.14200166115E+00 -0.60231273235E+02  0.18620226527E+03  0.17300000000E+03 0. -1.
         -6    1    1    2    0  503 -0.33383486226E+02 -0.14200166115E+00 -0.39793527953E+03  0.43519646599E+03  0.17300000000E+03 0. -1.
<mgrwt>
<rscale>  2 0.17619159E+03</rscale>
<asrwt>0</asrwt>
<pdfrwt beam="1">  1       21 0.12556321E-01 0.17619159E+03</pdfrwt>
<pdfrwt beam="2">  1       21 0.83043485E-01 0.17619159E+03</pdfrwt>
<totfact> 0.68875982E+04</totfact>
</mgrwt>
</event>
<event>
 4    1  0.4429256E+000  0.1747833E+03  0.7546771E-02  0.1172949E+00
         21   -1    0    0  503  502  0.00000000000E+00  0.00000000000E+00  0.12332708344E+03  0.12332708344E+03  0.00000000000E+00 0.  1.
         21   -1    0    0  501  503 -0.00000000000E+00 -0.00000000000E+00 -0.24811382393E+03  0.24811382393E+03  0.00000000000E+00 0.  1.
          6    1    1    2  501    0  0.21514903115E+02 -0.12542392624E+02 -0.69897143733E+02  0.18824136998E+03  0.17300000000E+03 0.  1.
         -6    1    1    2    0  502 -0.21514903115E+02  0.12542392624E+02 -0.54889596758E+02  0.18319953739E+03  0.17300000000E+03 0.  1.
<mgrwt>
<rscale>  2 0.17478330E+03</rscale>
<asrwt>0</asrwt>
<pdfrwt beam="1">  1       21 0.18973398E-01 0.17478330E+03</pdfrwt>
<pdfrwt beam="2">  1       21 0.38171357E-01 0.17478330E+03</pdfrwt>
<totfact> 0.16947112E+05</totfact>
</mgrwt>
</event>
<event>
 4    1  0.4429256E+000  0.1892990E+03  0.7546771E-02  0.1159095E+00
         21   -1    0    0  503  502  0.00000000000E+00  0.00000000000E+00  0.43669962761E+03  0.43669962761E+03  0.00000000000E+00 0. -1.
         21   -1    0    0  501  503 -0.00000000000E+00 -0.00000000000E+00 -0.86197902496E+02  0.86197902496E+02  0.00000000000E+00 0. -1.
          6    1    1    2  501    0 -0.42543137612E+02 -0.63993790948E+02  0.11794457704E+03  0.22303597712E+03  0.17300000000E+03 0. -1.
         -6    1    1    2    0  502  0.42543137612E+02  0.63993790948E+02  0.23255714807E+03  0.29986155298E+03  0.17300000000E+03 0. -1.
<mgrwt>
<rscale>  2 0.18929903E+03</rscale>
<asrwt>0</asrwt>
<pdfrwt beam="1">  1       21 0.67184557E-01 0.18929903E+03</pdfrwt>
<pdfrwt beam="2">  1       21 0.13261216E-01 0.18929903E+03</pdfrwt>
<totfact> 0.99574848E+04</totfact>
</mgrwt>
</event>
<event>
 4    1  0.4429256E+000  0.2132644E+03  0.7546771E-02  0.1139007E+00
         21   -1    0    0  501  502  0.00000000000E+00  0.00000000000E+00  0.13710465890E+04  0.13710465890E+04  0.00000000000E+00 0.  1.
         21   -1    0    0  502  503 -0.00000000000E+00 -0.00000000000E+00 -0.33339795700E+02  0.33339795700E+02  0.00000000000E+00 0.  1.
          6    1    1    2  501    0 -0.82925171335E+02 -0.93145801151E+02  0.71852081033E+03  0.74950242107E+03  0.17300000000E+03 0.  1.
         -6    1    1    2    0  503  0.82925171335E+02  0.93145801151E+02  0.61918598298E+03  0.65488396364E+03  0.17300000000E+03 0.  1.
<mgrwt>
<rscale>  2 0.21326445E+03</rscale>
<asrwt>0</asrwt>
<pdfrwt beam="1">  1       21 0.21093020E+00 0.21326445E+03</pdfrwt>
<pdfrwt beam="2">  1       21 0.51292004E-02 0.21326445E+03</pdfrwt>
<totfact> 0.29057331E+04</totfact>
</mgrwt>
</event>
<event>
 4    1  0.4429256E+000  0.1845319E+03  0.7546771E-02  0.1163488E+00
         21   -1    0    0  503  502  0.00000000000E+00  0.00000000000E+00  0.10732795279E+04  0.10732795279E+04  0.00000000000E+00 0.  1.
         21   -1    0    0  501  503 -0.00000000000E+00 -0.00000000000E+00 -0.35549772710E+02  0.35549772710E+02  0.00000000000E+00 0. -1.
          6    1    1    2  501    0 -0.63692475062E+02 -0.81426928166E+01  0.33706211372E+03  0.38426931094E+03  0.17300000000E+03 0. -1.
         -6    1    1    2    0  502  0.63692475062E+02  0.81426928166E+01  0.70066764148E+03  0.72455998968E+03  0.17300000000E+03 0.  1.
<mgrwt>
<rscale>  2 0.18453193E+03</rscale>
<asrwt>0</asrwt>
<pdfrwt beam="1">  1       21 0.16511990E+00 0.18453193E+03</pdfrwt>
<pdfrwt beam="2">  1       21 0.54691966E-02 0.18453193E+03</pdfrwt>
<totfact> 0.53624418E+04</totfact>
</mgrwt>
</event>
<event>
 4    1  0.4429256E+000  0.2643550E+03  0.7546771E-02  0.1104555E+00
         21   -1    0    0  503  502  0.00000000000E+00  0.00000000000E+00  0.46893070485E+03  0.46893070485E+03  0.00000000000E+00 0.  1.
         21   -1    0    0  501  503 -0.00000000000E+00 -0.00000000000E+00 -0.15945374497E+03  0.15945374497E+03  0.00000000000E+00 0.  1.
          6    1    1    2  501    0  0.19892873405E+03  0.19543497594E+02  0.74396747158E+02  0.27462422602E+03  0.17300000000E+03 0.  1.
         -6    1    1    2    0  502 -0.19892873405E+03 -0.19543497594E+02  0.23508021273E+03  0.35376022380E+03  0.17300000000E+03 0.  1.
<mgrwt>
<rscale>  2 0.26435504E+03</rscale>
<asrwt>0</asrwt>
<pdfrwt beam="1">  1       21 0.72143185E-01 0.26435504E+03</pdfrwt>
<pdfrwt beam="2">  1       21 0.24531346E-01 0.26435504E+03</pdfrwt>
<totfact> 0.26252433E+04</totfact>
</mgrwt>
</event>
<event>
 4    1  0.4429256E+000  0.2503100E+03  0.7546771E-02  0.1113109E+00
         21   -1    0    0  501  502  0.00000000000E+00  0.00000000000E+00  0.93205828835E+03  0.93205828835E+03  0.00000000000E+00 0.  1.
         21   -1    0    0  502  503 -0.00000000000E+00 -0.00000000000E+00 -0.83635938428E+02  0.83635938428E+02  0.00000000000E+00 0.  1.
          6    1    1    2  501    0 -0.18077868409E+03  0.67221111741E+01  0.64918847658E+03  0.69577352459E+03  0.17300000000E+03 0.  1.
         -6    1    1    2    0  503  0.18077868409E+03 -0.67221111741E+01  0.19923387335E+03  0.31992070219E+03  0.17300000000E+03 0.  1.
<mgrwt>
<rscale>  2 0.25031005E+03</rscale>
<asrwt>0</asrwt>
<pdfrwt beam="1">  1       21 0.14339358E+00 0.25031005E+03</pdfrwt>
<pdfrwt beam="2">  1       21 0.12867068E-01 0.25031005E+03</pdfrwt>
<totfact> 0.16800539E+04</totfact>
</mgrwt>
</event>
<event>
 4    1  0.4429256E+000  0.2076301E+03  0.7546771E-02  0.1143457E+00
         21   -1    0    0  501  502  0.00000000000E+00  0.00000000000E+00  0.62751473509E+03  0.62751473509E+03  0.00000000000E+00 0.  1.
         21   -1    0    0  502  503 -0.00000000000E+00 -0.00000000000E+00 -0.38128314402E+03  0.38128314402E+03  0.00000000000E+00 0.  1.
          6    1    1    2  501    0 -0.83262146397E+02  0.79048498210E+02  0.57981804721E+03  0.61587272871E+03  0.17300000000E+03 0.  1.
         -6    1    1    2    0  503  0.83262146397E+02 -0.79048498210E+02 -0.33358645614E+03  0.39292515039E+03  0.17300000000E+03 0.  1.
<mgrwt>
<rscale>  2 0.20763008E+03</rscale>
<asrwt>0</asrwt>
<pdfrwt beam="1">  1       21 0.96540728E-01 0.20763008E+03</pdfrwt>
<pdfrwt beam="2">  1       21 0.58658946E-01 0.20763008E+03</pdfrwt>
<totfact> 0.23946964E+03</totfact>
</mgrwt>
</event>
<event>
 4    1  0.4429256E+000  0.1926190E+03  0.7546771E-02  0.1156120E+00
         21   -1    0    0  503  502  0.00000000000E+00  0.00000000000E+00  0.10127946481E+03  0.10127946481E+03  0.00000000000E+00 0. -1.
         21   -1    0    0  501  503 -0.00000000000E+00 -0.00000000000E+00 -0.38180235104E+03  0.38180235104E+03  0.00000000000E+00 0.  1.
          6    1    1    2  501    0  0.66055851802E+02 -0.53006559671E+02 -0.18887965965E+03  0.26977323210E+03  0.17300000000E+03 0. -1.
         -6    1    1    2    0  502 -0.66055851802E+02  0.53006559671E+02 -0.91643226570E+02  0.21330858375E+03  0.17300000000E+03 0.  1.
<mgrwt>
<rscale>  2 0.19261898E+03</rscale>
<asrwt>0</asrwt>
<pdfrwt beam="1">  1       21 0.15581456E-01 0.19261898E+03</pdfrwt>
<pdfrwt beam="2">  1       21 0.58738824E-01 0.19261898E+03</pdfrwt>
<totfact> 0.99263025E+04</totfact>
</mgrwt>
</event>
<event>
 4    1  0.4429256E+000  0.1804021E+03  0.7546771E-02  0.1167414E+00
         21   -1    0    0  501  502  0.00000000000E+00  0.00000000000E+00  0.58621944710E+03  0.58621944710E+03  0.00000000000E+00 0. -1.
         21   -1    0    0  502  503 -0.00000000000E+00 -0.00000000000E+00 -0.92461710766E+02  0.92461710766E+02  0.00000000000E+00 0. -1.
          6    1    1    2  501    0 -0.46262660031E+02  0.21810152730E+02  0.46138181419E+03  0.49539690647E+03  0.17300000000E+03 0. -1.
         -6    1    1    2    0  503  0.46262660031E+02 -0.21810152730E+02  0.32375922145E+02  0.18328425140E+03  0.17300000000E+03 0. -1.
<mgrwt>
<rscale>  2 0.18040210E+03</rscale>
<asrwt>0</asrwt>
<pdfrwt beam="1">  1       21 0.90187605E-01 0.18040210E+03</pdfrwt>
<pdfrwt beam="2">  1       21 0.14224879E-01 0.18040210E+03</pdfrwt>
<totfact> 0.45444785E+04</totfact>
</mgrwt>
</event>
<event>
 4    1  0.4429256E+000  0.1913401E+03  0.7546771E-02  0.1157258E+00
         21   -1    0    0  501  502  0.00000000000E+00  0.00000000000E+00  0.51121406035E+03  0.51121406035E+03  0.00000000000E+00 0.  1.
         21   -1    0    0  502  503 -0.00000000000E+00 -0.00000000000E+00 -0.98766176524E+02  0.98766176524E+02  0.00000000000E+00 0. -1.
          6    1    1    2  501    0 -0.49522079734E+01  0.81593540011E+02  0.36613156426E+03  0.41311421240E+03  0.17300000000E+03 0.  1.
         -6    1    1    2    0  503  0.49522079734E+01 -0.81593540011E+02  0.46316319563E+02  0.19686602448E+03  0.17300000000E+03 0. -1.
<mgrwt>
<rscale>  2 0.19134009E+03</rscale>
<asrwt>0</asrwt>
<pdfrwt beam="1">  1       21 0.78648316E-01 0.19134009E+03</pdfrwt>
<pdfrwt beam="2">  1       21 0.15194797E-01 0.19134009E+03</pdfrwt>
<totfact> 0.54801056E+04</totfact>
</mgrwt>
</event>
<event>
 4    1  0.4429256E+000  0.1926786E+03  0.7546771E-02  0.1156067E+00
         21   -1    0    0  503  502  0.00000000000E+00  0.00000000000E+00  0.17353773996E+03  0.17353773996E+03  0.00000000000E+00 0. -1.
         21   -1    0    0  501  503 -0.00000000000E+00 -0.00000000000E+00 -0.22846332099E+03  0.22846332099E+03  0.00000000000E+00 0. -1.
          6    1    1    2  501    0 -0.79728644415E+02  0.28972269757E+02 -0.78157311466E+02  0.20792694508E+03  0.17300000000E+03 0. -1.
         -6    1    1    2    0  502  0.79728644415E+02 -0.28972269757E+02  0.23231730436E+02  0.19407411588E+03  0.17300000000E+03 0. -1.
<mgrwt>
<rscale>  2 0.19267862E+03</rscale>
<asrwt>0</asrwt>
<pdfrwt beam="1">  1       21 0.26698114E-01 0.19267862E+03</pdfrwt>
<pdfrwt beam="2">  1       21 0.35148203E-01 0.19267862E+03</pdfrwt>
<totfact> 0.10422366E+05</totfact>
</mgrwt>
</event>
<event>
 4    1  0.4429256E+000  0.2340241E+03  0.7546771E-02  0.1123839E+00
         21   -1    0    0  501  502  0.00000000000E+00  0.00000000000E+00  0.11509802050E+03  0.11509802050E+03  0.00000000000E+00 0. -1.
         21   -1    0    0  502  503 -0.00000000000E+00 -0.00000000000E+00 -0.77518794122E+03  0.77518794122E+03  0.00000000000E+00 0. -1.
          6    1    1    2  501    0 -0.31131310526E+02 -0.15449630152E+03 -0.53420667343E+02  0.24004381554E+03  0.17300000000E+03 0. -1.
         -6    1    1    2    0  503  0.31131310526E+02  0.15449630152E+03 -0.60666925338E+03  0.65024214619E+03  0.17300000000E+03 0. -1.
<mgrwt>
<rscale>  2 0.23402407E+03</rscale>
<asrwt>0</asrwt>
<pdfrwt beam="1">  1       21 0.17707388E-01 0.23402407E+03</pdfrwt>
<pdfrwt beam="2">  1       21 0.11925968E+00 0.23402407E+03</pdfrwt>
<totfact> 0.15118890E+04</totfact>
</mgrwt>
</event>
<event>
 4    1  0.4429256E+000  0.3099455E+03  0.7546771E-02  0.1080372E+00
         21   -1    0    0  503  502  0.00000000000E+00  0.00000000000E+00  0.90912828906E+03  0.90912828906E+03  0.00000000000E+00 0. -1.
         21   -1    0    0  501  503 -0.00000000000E+00 -0.00000000000E+00 -0.17681604724E+03  0.17681604724E+03  0.00000000000E+00 0. -1.
          6    1    1    2  501    0  0.24035759326E+03 -0.91462662988E+02  0.21729428231E+02  0.31070622686E+03  0.17300000000E+03 0. -1.
         -6    1    1    2    0  502 -0.24035759326E+03  0.91462662988E+02  0.71058281359E+03  0.77523810944E+03  0.17300000000E+03 0. -1.
<mgrwt>
<rscale>  2 0.30994547E+03</rscale>
<asrwt>0</asrwt>
<pdfrwt beam="1">  1       21 0.13986589E+00 0.30994547E+03</pdfrwt>
<pdfrwt beam="2">  1       21 0.27202469E-01 0.30994547E+03</pdfrwt>
<totfact> 0.42696906E+03</totfact>
</mgrwt>
</event>
<event>
 4    1  0.4429256E+000  0.1866362E+03  0.7546771E-02  0.1161531E+00
         21   -1    0    0  503  502  0.00000000000E+00  0.00000000000E+00  0.27333541728E+03  0.27333541728E+03  0.00000000000E+00 0.  1.
         21   -1    0    0  501  503 -0.00000000000E+00 -0.00000000000E+00 -0.20666261090E+03  0.20666261090E+03  0.00000000000E+00 0.  1.
          6    1    1    2  501    0 -0.12115809157E+02  0.68973100986E+02 -0.11526090416E+03  0.21935851367E+03  0.17300000000E+03 0.  1.
         -6    1    1    2    0  502  0.12115809157E+02 -0.68973100986E+02  0.18193371054E+03  0.26063951451E+03  0.17300000000E+03 0.  1.
<mgrwt>
<rscale>  2 0.18663623E+03</rscale>
<asrwt>0</asrwt>
<pdfrwt beam="1">  1       21 0.42051603E-01 0.18663623E+03</pdfrwt>
<pdfrwt beam="2">  1       21 0.31794248E-01 0.18663623E+03</pdfrwt>
<totfact> 0.51914159E+04</totfact>
</mgrwt>
</event>
<event>
 4    1  0.4429256E+000  0.1982800E+03  0.7546771E-02  0.1151198E+00
         21   -1    0    0  503  502  0.00000000000E+00  0.00000000000E+00  0.76623271521E+03  0.76623271521E+03  0.00000000000E+00 0. -1.
         21   -1    0    0  501  503 -0.00000000000E+00 -0.00000000000E+00 -0.61806067200E+02  0.61806067200E+02  0.00000000000E+00 0.  1.
          6    1    1    2  501    0 -0.68994612979E+02 -0.68012465167E+02  0.18159308727E+03  0.26886985956E+03  0.17300000000E+03 0.  1.
         -6    1    1    2    0  502  0.68994612979E+02  0.68012465167E+02  0.52283356075E+03  0.55916892285E+03  0.17300000000E+03 0. -1.
<mgrwt>
<rscale>  2 0.19827998E+03</rscale>
<asrwt>0</asrwt>
<pdfrwt beam="1">  1       21 0.11788195E+00 0.19827998E+03</pdfrwt>
<pdfrwt beam="2">  1       21 0.95086263E-02 0.19827998E+03</pdfrwt>
<totfact> 0.48795208E+04</totfact>
</mgrwt>
</event>
<event>
 4    1  0.4429256E+000  0.1737043E+03  0.7546771E-02  0.1174039E+00
         21   -1    0    0  503  502  0.00000000000E+00  0.00000000000E+00  0.18114844853E+02  0.18114844853E+02  0.00000000000E+00 0. -1.
         21   -1    0    0  501  503 -0.00000000000E+00 -0.00000000000E+00 -0.20790324230E+04  0.20790324230E+04  0.00000000000E+00 0. -1.
          6    1    1    2  501    0 -0.10402756708E+02 -0.11660430616E+02 -0.14980202937E+04  0.15080576857E+04  0.17300000000E+03 0. -1.
         -6    1    1    2    0  502  0.10402756708E+02  0.11660430616E+02 -0.56289728440E+03  0.58908958213E+03  0.17300000000E+03 0. -1.
<mgrwt>
<rscale>  2 0.17370430E+03</rscale>
<asrwt>0</asrwt>
<pdfrwt beam="1">  1       21 0.27868986E-02 0.17370430E+03</pdfrwt>
<pdfrwt beam="2">  1       21 0.31985121E+00 0.17370430E+03</pdfrwt>
<totfact> 0.19137213E+04</totfact>
</mgrwt>
</event>
<event>
 4    1  0.4429256E+000  0.2482999E+03  0.7546771E-02  0.1114384E+00
         21   -1    0    0  503  502  0.00000000000E+00  0.00000000000E+00  0.57507333896E+02  0.57507333896E+02  0.00000000000E+00 0. -1.
         21   -1    0    0  501  503 -0.00000000000E+00 -0.00000000000E+00 -0.12821919937E+04  0.12821919937E+04  0.00000000000E+00 0. -1.
          6    1    1    2  501    0  0.34325491652E+02  0.17477305838E+03 -0.88349823597E+03  0.91772653567E+03  0.17300000000E+03 0. -1.
         -6    1    1    2    0  502 -0.34325491652E+02 -0.17477305838E+03 -0.34118642380E+03  0.42197279189E+03  0.17300000000E+03 0. -1.
<mgrwt>
<rscale>  2 0.24829994E+03</rscale>
<asrwt>0</asrwt>
<pdfrwt beam="1">  1       21 0.88472825E-02 0.24829994E+03</pdfrwt>
<pdfrwt beam="2">  1       21 0.19726030E+00 0.24829994E+03</pdfrwt>
<totfact> 0.13520226E+04</totfact>
</mgrwt>
</event>
<event>
 4    1  0.4429256E+000  0.1910424E+03  0.7546771E-02  0.1157525E+00
         21   -1    0    0  503  502  0.00000000000E+00  0.00000000000E+00  0.67630312043E+02  0.67630312043E+02  0.00000000000E+00 0. -1.
         21   -1    0    0  501  503 -0.00000000000E+00 -0.00000000000E+00 -0.57195384505E+03  0.57195384505E+03  0.00000000000E+00 0. -1.
          6    1    1    2  501    0  0.57539427432E+02  0.57073734560E+02 -0.32815321394E+03  0.37971269231E+03  0.17300000000E+03 0. -1.
         -6    1    1    2    0  502 -0.57539427432E+02 -0.57073734560E+02 -0.17617031907E+03  0.25987146478E+03  0.17300000000E+03 0. -1.
<mgrwt>
<rscale>  2 0.19104240E+03</rscale>
<asrwt>0</asrwt>
<pdfrwt beam="1">  1       21 0.10404664E-01 0.19104240E+03</pdfrwt>
<pdfrwt beam="2">  1       21 0.87992898E-01 0.19104240E+03</pdfrwt>
<totfact> 0.83780678E+04</totfact>
</mgrwt>
</event>
<event>
 4    1  0.4429256E+000  0.3694288E+03  0.7546771E-02  0.1054912E+00
         21   -1    0    0  501  502  0.00000000000E+00  0.00000000000E+00  0.25715036346E+03  0.25715036346E+03  0.00000000000E+00 0.  1.
         21   -1    0    0  502  503 -0.00000000000E+00 -0.00000000000E+00 -0.54525277992E+03  0.54525277992E+03  0.00000000000E+00 0.  1.
          6    1    1    2  501    0 -0.26157273555E+02  0.32536819937E+03 -0.78576482220E+02  0.37769290658E+03  0.17300000000E+03 0.  1.
         -6    1    1    2    0  503  0.26157273555E+02 -0.32536819937E+03 -0.20952593424E+03  0.42471023680E+03  0.17300000000E+03 0.  1.
<mgrwt>
<rscale>  2 0.36942884E+03</rscale>
<asrwt>0</asrwt>
<pdfrwt beam="1">  1       21 0.39561594E-01 0.36942884E+03</pdfrwt>
<pdfrwt beam="2">  1       21 0.83885043E-01 0.36942884E+03</pdfrwt>
<totfact> 0.69203938E+03</totfact>
</mgrwt>
</event>
<event>
 4    1  0.4429256E+000  0.2105056E+03  0.7546771E-02  0.1141166E+00
         21   -1    0    0  501  502  0.00000000000E+00  0.00000000000E+00  0.15191780622E+03  0.15191780622E+03  0.00000000000E+00 0. -1.
         21   -1    0    0  502  503 -0.00000000000E+00 -0.00000000000E+00 -0.33756715220E+03  0.33756715220E+03  0.00000000000E+00 0.  1.
          6    1    1    2  501    0  0.11918900232E+03 -0.13326715236E+02 -0.25977017493E+01  0.21052165605E+03  0.17300000000E+03 0. -1.
         -6    1    1    2    0  503 -0.11918900232E+03  0.13326715236E+02 -0.18305164423E+03  0.27896330237E+03  0.17300000000E+03 0.  1.
<mgrwt>
<rscale>  2 0.21050563E+03</rscale>
<asrwt>0</asrwt>
<pdfrwt beam="1">  1       21 0.23371970E-01 0.21050563E+03</pdfrwt>
<pdfrwt beam="2">  1       21 0.51933408E-01 0.21050563E+03</pdfrwt>
<totfact> 0.60103008E+04</totfact>
</mgrwt>
</event>
<event>
 4    1  0.4429256E+000  0.1983689E+03  0.7546771E-02  0.1151123E+00
         21   -1    0    0  503  502  0.00000000000E+00  0.00000000000E+00  0.10101974875E+03  0.10101974875E+03  0.00000000000E+00 0.  1.
         21   -1    0    0  501  503 -0.00000000000E+00 -0.00000000000E+00 -0.96871248640E+03  0.96871248640E+03  0.00000000000E+00 0.  1.
          6    1    1    2  501    0  0.20431622048E+02 -0.94888195927E+02 -0.84742239474E+03  0.87033036027E+03  0.17300000000E+03 0.  1.
         -6    1    1    2    0  502 -0.20431622048E+02  0.94888195927E+02 -0.20270342910E+02  0.19940187488E+03  0.17300000000E+03 0.  1.
<mgrwt>
<rscale>  2 0.19836890E+03</rscale>
<asrwt>0</asrwt>
<pdfrwt beam="1">  1       21 0.15541500E-01 0.19836890E+03</pdfrwt>
<pdfrwt beam="2">  1       21 0.14903269E+00 0.19836890E+03</pdfrwt>
<totfact> 0.11132292E+04</totfact>
</mgrwt>
</event>
<event>
 4    1  0.4429256E+000  0.1766489E+03  0.7546771E-02  0.1171086E+00
         21   -1    0    0  501  502  0.00000000000E+00  0.00000000000E+00  0.12531189188E+03  0.12531189188E+03  0.00000000000E+00 0.  1.
         21   -1    0    0  502  503 -0.00000000000E+00 -0.00000000000E+00 -0.36089821849E+03  0.36089821849E+03  0.00000000000E+00 0.  1.
          6    1    1    2  501    0 -0.31064536959E+02  0.17630196978E+02  0.17563495977E+02  0.17751987408E+03  0.17300000000E+03 0.  1.
         -6    1    1    2    0  503  0.31064536959E+02 -0.17630196978E+02 -0.25314982259E+03  0.30869023629E+03  0.17300000000E+03 0.  1.
<mgrwt>
<rscale>  2 0.17664889E+03</rscale>
<asrwt>0</asrwt>
<pdfrwt beam="1">  1       21 0.19278753E-01 0.17664889E+03</pdfrwt>
<pdfrwt beam="2">  1       21 0.55522803E-01 0.17664889E+03</pdfrwt>
<totfact> 0.76084483E+04</totfact>
</mgrwt>
</event>
<event>
 4    1  0.4429256E+000  0.1900607E+03  0.7546771E-02  0.1158407E+00
         21   -1    0    0  503  502  0.00000000000E+00  0.00000000000E+00  0.33266497891E+03  0.33266497891E+03  0.00000000000E+00 0.  1.
         21   -1    0    0  501  503 -0.00000000000E+00 -0.00000000000E+00 -0.11051783345E+03  0.11051783345E+03  0.00000000000E+00 0. -1.
          6    1    1    2  501    0 -0.78158248454E+02 -0.92382877145E+01  0.81783480727E+02  0.20690963119E+03  0.17300000000E+03 0.  1.
         -6    1    1    2    0  502  0.78158248454E+02  0.92382877145E+01  0.14036366473E+03  0.23627318117E+03  0.17300000000E+03 0.  1.
<mgrwt>
<rscale>  2 0.19006067E+03</rscale>
<asrwt>0</asrwt>
<pdfrwt beam="1">  1       21 0.51179227E-01 0.19006067E+03</pdfrwt>
<pdfrwt beam="2">  1       21 0.17002744E-01 0.19006067E+03</pdfrwt>
<totfact> 0.11330020E+05</totfact>
</mgrwt>
</event>
<event>
 4    1  0.4429256E+000  0.3273476E+03  0.7546771E-02  0.1072317E+00
         21   -1    0    0  501  502  0.00000000000E+00  0.00000000000E+00  0.87174586621E+03  0.87174586621E+03  0.00000000000E+00 0.  1.
         21   -1    0    0  502  503 -0.00000000000E+00 -0.00000000000E+00 -0.12447550067E+03  0.12447550067E+03  0.00000000000E+00 0. -1.
          6    1    1    2  501    0 -0.21799953039E+03  0.17234739612E+03  0.42928859153E+03  0.53985656893E+03  0.17300000000E+03 0. -1.
         -6    1    1    2    0  503  0.21799953039E+03 -0.17234739612E+03  0.31798177401E+03  0.45636479794E+03  0.17300000000E+03 0.  1.
<mgrwt>
<rscale>  2 0.32734755E+03</rscale>
<asrwt>0</asrwt>
<pdfrwt beam="1">  1       21 0.13411474E+00 0.32734755E+03</pdfrwt>
<pdfrwt beam="2">  1       21 0.19150078E-01 0.32734755E+03</pdfrwt>
<totfact> 0.92484133E+03</totfact>
</mgrwt>
</event>
<event>
 4    1  0.4429256E+000  0.1771280E+03  0.7546771E-02  0.1170612E+00
         21   -1    0    0  501  502  0.00000000000E+00  0.00000000000E+00  0.21188924827E+03  0.21188924827E+03  0.00000000000E+00 0. -1.
         21   -1    0    0  502  503 -0.00000000000E+00 -0.00000000000E+00 -0.19122128656E+03  0.19122128656E+03  0.00000000000E+00 0.  1.
          6    1    1    2  501    0 -0.38000275809E+02 -0.11421629598E+01  0.10608108590E+03  0.20646433659E+03  0.17300000000E+03 0. -1.
         -6    1    1    2    0  503  0.38000275809E+02  0.11421629598E+01 -0.85413124196E+02  0.19664619824E+03  0.17300000000E+03 0.  1.
<mgrwt>
<rscale>  2 0.17712799E+03</rscale>
<asrwt>0</asrwt>
<pdfrwt beam="1">  1       21 0.32598346E-01 0.17712799E+03</pdfrwt>
<pdfrwt beam="2">  1       21 0.29418659E-01 0.17712799E+03</pdfrwt>
<totfact> 0.10084138E+05</totfact>
</mgrwt>
</event>
<event>
 4    1  0.4429256E+000  0.1859000E+03  0.7546771E-02  0.1162212E+00
         21   -1    0    0  501  502  0.00000000000E+00  0.00000000000E+00  0.57461728801E+03  0.57461728801E+03  0.00000000000E+00 0. -1.
         21   -1    0    0  502  503 -0.00000000000E+00 -0.00000000000E+00 -0.64134280157E+02  0.64134280157E+02  0.00000000000E+00 0. -1.
          6    1    1    2  501    0  0.58153105500E+02  0.35327254779E+02  0.33492193843E+03  0.38305548351E+03  0.17300000000E+03 0. -1.
         -6    1    1    2    0  503 -0.58153105500E+02 -0.35327254779E+02  0.17556106943E+03  0.25569608466E+03  0.17300000000E+03 0. -1.
<mgrwt>
<rscale>  2 0.18589997E+03</rscale>
<asrwt>0</asrwt>
<pdfrwt beam="1">  1       21 0.88402656E-01 0.18589997E+03</pdfrwt>
<pdfrwt beam="2">  1       21 0.98668128E-02 0.18589997E+03</pdfrwt>
<totfact> 0.91231635E+04</totfact>
</mgrwt>
</event>
<event>
 4    1  0.4429256E+000  0.2222509E+03  0.7546771E-02  0.1132216E+00
         21   -1    0    0  501  502  0.00000000000E+00  0.00000000000E+00  0.41658938049E+03  0.41658938049E+03  0.00000000000E+00 0.  1.
         21   -1    0    0  502  503 -0.00000000000E+00 -0.00000000000E+00 -0.13030597858E+03  0.13030597858E+03  0.00000000000E+00 0. -1.
          6    1    1    2  501    0 -0.99031238182E+02 -0.98281659356E+02  0.22520159364E+03  0.31640358481E+03  0.17300000000E+03 0.  1.
         -6    1    1    2    0  503  0.99031238182E+02  0.98281659356E+02  0.61081808278E+02  0.23049177427E+03  0.17300000000E+03 0. -1.
<mgrwt>
<rscale>  2 0.22225092E+03</rscale>
<asrwt>0</asrwt>
<pdfrwt beam="1">  1       21 0.64090673E-01 0.22225092E+03</pdfrwt>
<pdfrwt beam="2">  1       21 0.20047074E-01 0.22225092E+03</pdfrwt>
<totfact> 0.50927095E+04</totfact>
</mgrwt>
</event>
<event>
 4    1  0.4429256E+000  0.2004199E+03  0.7546771E-02  0.1149385E+00
         21   -1    0    0  501  502  0.00000000000E+00  0.00000000000E+00  0.15295691458E+03  0.15295691458E+03  0.00000000000E+00 0.  1.
         21   -1    0    0  502  503 -0.00000000000E+00 -0.00000000000E+00 -0.29667230063E+03  0.29667230063E+03  0.00000000000E+00 0.  1.
          6    1    1    2  501    0  0.77784644984E+02 -0.64720018127E+02  0.43183069877E+01  0.20046640496E+03  0.17300000000E+03 0.  1.
         -6    1    1    2    0  503 -0.77784644984E+02  0.64720018127E+02 -0.14803369303E+03  0.24916281026E+03  0.17300000000E+03 0.  1.
<mgrwt>
<rscale>  2 0.20041989E+03</rscale>
<asrwt>0</asrwt>
<pdfrwt beam="1">  1       21 0.23531833E-01 0.20041989E+03</pdfrwt>
<pdfrwt beam="2">  1       21 0.45641892E-01 0.20041989E+03</pdfrwt>
<totfact> 0.77963204E+04</totfact>
</mgrwt>
</event>
<event>
 4    1  0.4429256E+000  0.1737449E+03  0.7546771E-02  0.1173998E+00
         21   -1    0    0  501  502  0.00000000000E+00  0.00000000000E+00  0.37840834527E+02  0.37840834527E+02  0.00000000000E+00 0.  1.
         21   -1    0    0  502  503 -0.00000000000E+00 -0.00000000000E+00 -0.79792019317E+03  0.79792019317E+03  0.00000000000E+00 0.  1.
          6    1    1    2  501    0 -0.15130808396E+02  0.54176418199E+01 -0.37382700898E+03  0.41223042688E+03  0.17300000000E+03 0.  1.
         -6    1    1    2    0  503  0.15130808396E+02 -0.54176418199E+01 -0.38625234966E+03  0.42353060081E+03  0.17300000000E+03 0.  1.
<mgrwt>
<rscale>  2 0.17374491E+03</rscale>
<asrwt>0</asrwt>
<pdfrwt beam="1">  1       21 0.58216669E-02 0.17374491E+03</pdfrwt>
<pdfrwt beam="2">  1       21 0.12275695E+00 0.17374491E+03</pdfrwt>
<totfact> 0.10448079E+05</totfact>
</mgrwt>
</event>
<event>
 4    1  0.4429256E+000  0.1918295E+03  0.7546771E-02  0.1156822E+00
         21   -1    0    0  501  502  0.00000000000E+00  0.00000000000E+00  0.44463023406E+03  0.44463023406E+03  0.00000000000E+00 0.  1.
         21   -1    0    0  502  503 -0.00000000000E+00 -0.00000000000E+00 -0.15450385084E+03  0.15450385084E+03  0.00000000000E+00 0. -1.
          6    1    1    2  501    0 -0.62350864233E+02  0.54606953234E+02  0.34919479306E+03  0.39841630628E+03  0.17300000000E+03 0.  1.
         -6    1    1    2    0  503  0.62350864233E+02 -0.54606953234E+02 -0.59068409838E+02  0.20071777862E+03  0.17300000000E+03 0. -1.
<mgrwt>
<rscale>  2 0.19182948E+03</rscale>
<asrwt>0</asrwt>
<pdfrwt beam="1">  1       21 0.68404651E-01 0.19182948E+03</pdfrwt>
<pdfrwt beam="2">  1       21 0.23769823E-01 0.19182948E+03</pdfrwt>
<totfact> 0.32519574E+04</totfact>
</mgrwt>
</event>
<event>
 4    1  0.4429256E+000  0.3467512E+03  0.7546771E-02  0.1063956E+00
         21   -1    0    0  503  502  0.00000000000E+00  0.00000000000E+00  0.35161167653E+03  0.35161167653E+03  0.00000000000E+00 0.  1.
         21   -1    0    0  501  503 -0.00000000000E+00 -0.00000000000E+00 -0.43614332584E+03  0.43614332584E+03  0.00000000000E+00 0. -1.
          6    1    1    2  501    0  0.29798788804E+03  0.38866217309E+02 -0.22530269591E+03  0.41351864414E+03  0.17300000000E+03 0.  1.
         -6    1    1    2    0  502 -0.29798788804E+03 -0.38866217309E+02  0.14077104660E+03  0.37423635823E+03  0.17300000000E+03 0. -1.
<mgrwt>
<rscale>  2 0.34675116E+03</rscale>
<asrwt>0</asrwt>
<pdfrwt beam="1">  1       21 0.54094104E-01 0.34675116E+03</pdfrwt>
<pdfrwt beam="2">  1       21 0.67098973E-01 0.34675116E+03</pdfrwt>
<totfact> 0.60221931E+03</totfact>
</mgrwt>
</event>
<event>
 4    1  0.4429256E+000  0.1927457E+03  0.7546771E-02  0.1156008E+00
         21   -1    0    0  503  502  0.00000000000E+00  0.00000000000E+00  0.23616656538E+03  0.23616656538E+03  0.00000000000E+00 0. -1.
         21   -1    0    0  501  503 -0.00000000000E+00 -0.00000000000E+00 -0.28730743473E+03  0.28730743473E+03  0.00000000000E+00 0. -1.
          6    1    1    2  501    0  0.84568646652E+02  0.83684051970E+01 -0.20163114406E+03  0.27893727693E+03  0.17300000000E+03 0. -1.
         -6    1    1    2    0  502 -0.84568646652E+02 -0.83684051970E+01  0.15049027472E+03  0.24453672318E+03  0.17300000000E+03 0. -1.
<mgrwt>
<rscale>  2 0.19274565E+03</rscale>
<asrwt>0</asrwt>
<pdfrwt beam="1">  1       21 0.36333317E-01 0.19274565E+03</pdfrwt>
<pdfrwt beam="2">  1       21 0.44201144E-01 0.19274565E+03</pdfrwt>
<totfact> 0.35913392E+04</totfact>
</mgrwt>
</event>
<event>
 4    1  0.4429256E+000  0.2354131E+03  0.7546771E-02  0.1122887E+00
         21   -1    0    0  503  502  0.00000000000E+00  0.00000000000E+00  0.12166342676E+04  0.12166342676E+04  0.00000000000E+00 0. -1.
         21   -1    0    0  501  503 -0.00000000000E+00 -0.00000000000E+00 -0.49120012894E+02  0.49120012894E+02  0.00000000000E+00 0.  1.
          6    1    1    2  501    0 -0.13734024361E+03  0.81412346283E+02  0.41317089744E+03  0.47553075940E+03  0.17300000000E+03 0.  1.
         -6    1    1    2    0  502  0.13734024361E+03 -0.81412346283E+02  0.75434335724E+03  0.79022352107E+03  0.17300000000E+03 0. -1.
<mgrwt>
<rscale>  2 0.23541307E+03</rscale>
<asrwt>0</asrwt>
<pdfrwt beam="1">  1       21 0.18717448E+00 0.23541307E+03</pdfrwt>
<pdfrwt beam="2">  1       21 0.75569260E-02 0.23541307E+03</pdfrwt>
<totfact> 0.20952288E+04</totfact>
</mgrwt>
</event>
<event>
 4    1  0.4429256E+000  0.2215512E+03  0.7546771E-02  0.1132732E+00
         21   -1    0    0  503  502  0.00000000000E+00  0.00000000000E+00  0.13306296701E+04  0.13306296701E+04  0.00000000000E+00 0.  1.
         21   -1    0    0  501  503 -0.00000000000E+00 -0.00000000000E+00 -0.44787251312E+02  0.44787251312E+02  0.00000000000E+00 0.  1.
          6    1    1    2  501    0  0.57901120908E+02  0.12571150507E+03  0.35411495434E+03  0.41771081288E+03  0.17300000000E+03 0.  1.
         -6    1    1    2    0  502 -0.57901120908E+02 -0.12571150507E+03  0.93172746444E+03  0.95770610852E+03  0.17300000000E+03 0.  1.
<mgrwt>
<rscale>  2 0.22155117E+03</rscale>
<asrwt>0</asrwt>
<pdfrwt beam="1">  1       21 0.20471223E+00 0.22155117E+03</pdfrwt>
<pdfrwt beam="2">  1       21 0.68903474E-02 0.22155117E+03</pdfrwt>
<totfact> 0.19060904E+04</totfact>
</mgrwt>
</event>
<event>
 4    1  0.4429256E+000  0.2001898E+03  0.7546771E-02  0.1149579E+00
         21   -1    0    0  503  502  0.00000000000E+00  0.00000000000E+00  0.89493526729E+03  0.89493526729E+03  0.00000000000E+00 0.  1.
         21   -1    0    0  501  503 -0.00000000000E+00 -0.00000000000E+00 -0.89450997839E+02  0.89450997839E+02  0.00000000000E+00 0.  1.
          6    1    1    2  501    0 -0.82520461900E+02  0.57769710836E+02  0.75055979343E+03  0.77679853864E+03  0.17300000000E+03 0.  1.
         -6    1    1    2    0  502  0.82520461900E+02 -0.57769710836E+02  0.54924476022E+02  0.20758772649E+03  0.17300000000E+03 0.  1.
<mgrwt>
<rscale>  2 0.20018983E+03</rscale>
<asrwt>0</asrwt>
<pdfrwt beam="1">  1       21 0.13768234E+00 0.20018983E+03</pdfrwt>
<pdfrwt beam="2">  1       21 0.13761693E-01 0.20018983E+03</pdfrwt>
<totfact> 0.17047282E+04</totfact>
</mgrwt>
</event>
<event>
 4    1  0.4429256E+000  0.1802040E+03  0.7546771E-02  0.1167606E+00
         21   -1    0    0  503  502  0.00000000000E+00  0.00000000000E+00  0.10544532754E+03  0.10544532754E+03  0.00000000000E+00 0. -1.
         21   -1    0    0  501  503 -0.00000000000E+00 -0.00000000000E+00 -0.32072134816E+03  0.32072134816E+03  0.00000000000E+00 0. -1.
          6    1    1    2  501    0 -0.39565094580E+02  0.31290420342E+02 -0.15013381171E+03  0.23454988495E+03  0.17300000000E+03 0. -1.
         -6    1    1    2    0  502  0.39565094580E+02 -0.31290420342E+02 -0.65142208913E+02  0.19161679075E+03  0.17300000000E+03 0. -1.
<mgrwt>
<rscale>  2 0.18020402E+03</rscale>
<asrwt>0</asrwt>
<pdfrwt beam="1">  1       21 0.16222358E-01 0.18020402E+03</pdfrwt>
<pdfrwt beam="2">  1       21 0.49341746E-01 0.18020402E+03</pdfrwt>
<totfact> 0.13373749E+05</totfact>
</mgrwt>
</event>
<event>
 4    1  0.4429256E+000  0.2278839E+03  0.7546771E-02  0.1128138E+00
         21   -1    0    0  501  502  0.00000000000E+00  0.00000000000E+00  0.34162162829E+02  0.34162162829E+02  0.00000000000E+00 0.  1.
         21   -1    0    0  502  503 -0.00000000000E+00 -0.00000000000E+00 -0.18498983263E+04  0.18498983263E+04  0.00000000000E+00 0. -1.
          6    1    1    2  501    0  0.37267857268E+02 -0.14357289188E+03 -0.51013410706E+03  0.55871985436E+03  0.17300000000E+03 0.  1.
         -6    1    1    2    0  503 -0.37267857268E+02  0.14357289188E+03 -0.13056020564E+04  0.13253406347E+04  0.17300000000E+03 0. -1.
<mgrwt>
<rscale>  2 0.22788389E+03</rscale>
<asrwt>0</asrwt>
<pdfrwt beam="1">  1       21 0.52557161E-02 0.22788389E+03</pdfrwt>
<pdfrwt beam="2">  1       21 0.28459981E+00 0.22788389E+03</pdfrwt>
<totfact> 0.99984541E+03</totfact>
</mgrwt>
</event>
<event>
 4    1  0.4429256E+000  0.1839002E+03  0.7546771E-02  0.1164081E+00
         21   -1    0    0  503  502  0.00000000000E+00  0.00000000000E+00  0.44727581451E+03  0.44727581451E+03  0.00000000000E+00 0. -1.
         21   -1    0    0  501  503 -0.00000000000E+00 -0.00000000000E+00 -0.14732169561E+03  0.14732169561E+03  0.00000000000E+00 0. -1.
          6    1    1    2  501    0 -0.63128906206E+01 -0.62051694234E+02 -0.57442503699E+02  0.19266267562E+03  0.17300000000E+03 0. -1.
         -6    1    1    2    0  502  0.63128906206E+01  0.62051694234E+02  0.35739662260E+03  0.40193483451E+03  0.17300000000E+03 0. -1.
<mgrwt>
<rscale>  2 0.18390015E+03</rscale>
<asrwt>0</asrwt>
<pdfrwt beam="1">  1       21 0.68811663E-01 0.18390015E+03</pdfrwt>
<pdfrwt beam="2">  1       21 0.22664876E-01 0.18390015E+03</pdfrwt>
<totfact> 0.35271621E+04</totfact>
</mgrwt>
</event>
<event>
 4    1  0.4429256E+000  0.2887517E+03  0.7546771E-02  0.1091003E+00
         21   -1    0    0  503  502  0.00000000000E+00  0.00000000000E+00  0.20218229953E+03  0.20218229953E+03  0.00000000000E+00 0.  1.
         21   -1    0    0  501  503 -0.00000000000E+00 -0.00000000000E+00 -0.75130992248E+03  0.75130992248E+03  0.00000000000E+00 0. -1.
          6    1    1    2  501    0 -0.19623698913E+03 -0.12222758159E+03 -0.59476834741E+03  0.66115574919E+03  0.17300000000E+03 0. -1.
         -6    1    1    2    0  502  0.19623698913E+03  0.12222758159E+03  0.45640724461E+02  0.29233647281E+03  0.17300000000E+03 0.  1.
<mgrwt>
<rscale>  2 0.28875169E+03</rscale>
<asrwt>0</asrwt>
<pdfrwt beam="1">  1       21 0.31104970E-01 0.28875169E+03</pdfrwt>
<pdfrwt beam="2">  1       21 0.11558614E+00 0.28875169E+03</pdfrwt>
<totfact> 0.53961263E+03</totfact>
</mgrwt>
</event>
<event>
 4    1  0.4429256E+000  0.3634552E+03  0.7546771E-02  0.1057224E+00
         21   -1    0    0  501  502  0.00000000000E+00  0.00000000000E+00  0.80741505304E+02  0.80741505304E+02  0.00000000000E+00 0. -1.
         21   -1    0    0  502  503 -0.00000000000E+00 -0.00000000000E+00 -0.17195176691E+04  0.17195176691E+04  0.00000000000E+00 0.  1.
          6    1    1    2  501    0  0.25523422415E+03 -0.19242181733E+03 -0.62110782239E+03  0.71963504084E+03  0.17300000000E+03 0. -1.
         -6    1    1    2    0  503 -0.25523422415E+03  0.19242181733E+03 -0.10176683414E+04  0.10806241336E+04  0.17300000000E+03 0.  1.
<mgrwt>
<rscale>  2 0.36345518E+03</rscale>
<asrwt>0</asrwt>
<pdfrwt beam="1">  1       21 0.12421771E-01 0.36345518E+03</pdfrwt>
<pdfrwt beam="2">  1       21 0.26454117E+00 0.36345518E+03</pdfrwt>
<totfact> 0.26240126E+03</totfact>
</mgrwt>
</event>
<event>
 4    1  0.4429256E+000  0.1928010E+03  0.7546771E-02  0.1155959E+00
         21   -1    0    0  503  502  0.00000000000E+00  0.00000000000E+00  0.45670223634E+02  0.45670223634E+02  0.00000000000E+00 0. -1.
         21   -1    0    0  501  503 -0.00000000000E+00 -0.00000000000E+00 -0.99093036718E+03  0.99093036718E+03  0.00000000000E+00 0. -1.
          6    1    1    2  501    0  0.80951810671E+02 -0.26268303672E+02 -0.69168391890E+03  0.71805213118E+03  0.17300000000E+03 0. -1.
         -6    1    1    2    0  502 -0.80951810671E+02  0.26268303672E+02 -0.25357622464E+03  0.31854845963E+03  0.17300000000E+03 0. -1.
<mgrwt>
<rscale>  2 0.19280098E+03</rscale>
<asrwt>0</asrwt>
<pdfrwt beam="1">  1       21 0.70261880E-02 0.19280098E+03</pdfrwt>
<pdfrwt beam="2">  1       21 0.15245083E+00 0.19280098E+03</pdfrwt>
<totfact> 0.43041040E+04</totfact>
</mgrwt>
</event>
<event>
 4    1  0.4429256E+000  0.2352890E+03  0.7546771E-02  0.1122972E+00
         21   -1    0    0  503  502  0.00000000000E+00  0.00000000000E+00  0.10018477112E+04  0.10018477112E+04  0.00000000000E+00 0.  1.
         21   -1    0    0  501  503 -0.00000000000E+00 -0.00000000000E+00 -0.59768887411E+02  0.59768887411E+02  0.00000000000E+00 0. -1.
          6    1    1    2  501    0 -0.11674678935E+03  0.10863738208E+03  0.32522749610E+03  0.40141477031E+03  0.17300000000E+03 0. -1.
         -6    1    1    2    0  502  0.11674678935E+03 -0.10863738208E+03  0.61685132767E+03  0.66020182827E+03  0.17300000000E+03 0. -1.
<mgrwt>
<rscale>  2 0.23528896E+03</rscale>
<asrwt>0</asrwt>
<pdfrwt beam="1">  1       21 0.15413040E+00 0.23528896E+03</pdfrwt>
<pdfrwt beam="2">  1       21 0.91952142E-02 0.23528896E+03</pdfrwt>
<totfact> 0.25496265E+04</totfact>
</mgrwt>
</event>
<event>
 4    1  0.4429256E+000  0.2123726E+03  0.7546771E-02  0.1139701E+00
         21   -1    0    0  501  502  0.00000000000E+00  0.00000000000E+00  0.16067621842E+03  0.16067621842E+03  0.00000000000E+00 0.  1.
         21   -1    0    0  502  503 -0.00000000000E+00 -0.00000000000E+00 -0.31763161178E+03  0.31763161178E+03  0.00000000000E+00 0.  1.
          6    1    1    2  501    0 -0.65233112275E+02 -0.10448808011E+03  0.30684918806E+01  0.21239475856E+03  0.17300000000E+03 0.  1.
         -6    1    1    2    0  503  0.65233112275E+02  0.10448808011E+03 -0.16002388524E+03  0.26591307164E+03  0.17300000000E+03 0.  1.
<mgrwt>
<rscale>  2 0.21237259E+03</rscale>
<asrwt>0</asrwt>
<pdfrwt beam="1">  1       21 0.24719418E-01 0.21237259E+03</pdfrwt>
<pdfrwt beam="2">  1       21 0.48866401E-01 0.21237259E+03</pdfrwt>
<totfact> 0.61299813E+04</totfact>
</mgrwt>
</event>
<event>
 4    1  0.4429256E+000  0.2035984E+03  0.7546771E-02  0.1146738E+00
         21   -1    0    0  501  502  0.00000000000E+00  0.00000000000E+00  0.10809582288E+03  0.10809582288E+03  0.00000000000E+00 0. -1.
         21   -1    0    0  502  503 -0.00000000000E+00 -0.00000000000E+00 -0.11354845746E+04  0.11354845746E+04  0.00000000000E+00 0.  1.
          6    1    1    2  501    0  0.97407925692E+02 -0.45111083644E+02 -0.76784084722E+01  0.20374315157E+03  0.17300000000E+03 0. -1.
         -6    1    1    2    0  503 -0.97407925692E+02  0.45111083644E+02 -0.10197103432E+04  0.10398372459E+04  0.17300000000E+03 0.  1.
<mgrwt>
<rscale>  2 0.20359841E+03</rscale>
<asrwt>0</asrwt>
<pdfrwt beam="1">  1       21 0.16630126E-01 0.20359841E+03</pdfrwt>
<pdfrwt beam="2">  1       21 0.17468994E+00 0.20359841E+03</pdfrwt>
<totfact> 0.63695192E+03</totfact>
</mgrwt>
</event>
<event>
 4    1  0.4429256E+000  0.2766392E+03  0.7546771E-02  0.1097539E+00
         21   -1    0    0  501  502  0.00000000000E+00  0.00000000000E+00  0.72017994954E+03  0.72017994954E+03  0.00000000000E+00 0.  1.
         21   -1    0    0  502  503 -0.00000000000E+00 -0.00000000000E+00 -0.12588641198E+03  0.12588641198E+03  0.00000000000E+00 0.  1.
          6    1    1    2  501    0  0.20797644097E+03  0.57844935378E+02  0.46416376605E+03  0.54034918179E+03  0.17300000000E+03 0.  1.
         -6    1    1    2    0  503 -0.20797644097E+03 -0.57844935378E+02  0.13012977150E+03  0.30571717972E+03  0.17300000000E+03 0.  1.
<mgrwt>
<rscale>  2 0.27663918E+03</rscale>
<asrwt>0</asrwt>
<pdfrwt beam="1">  1       21 0.11079691E+00 0.27663918E+03</pdfrwt>
<pdfrwt beam="2">  1       21 0.19367141E-01 0.27663918E+03</pdfrwt>
<totfact> 0.14994607E+04</totfact>
</mgrwt>
</event>
<event>
 4    1  0.4429256E+000  0.1854023E+03  0.7546771E-02  0.1162675E+00
         21   -1    0    0  501  502  0.00000000000E+00  0.00000000000E+00  0.16970318014E+03  0.16970318014E+03  0.00000000000E+00 0.  1.
         21   -1    0    0  502  503 -0.00000000000E+00 -0.00000000000E+00 -0.25365330897E+03  0.25365330897E+03  0.00000000000E+00 0.  1.
          6    1    1    2  501    0 -0.66635355555E+02 -0.21763097051E+01  0.53033936277E+02  0.19283828803E+03  0.17300000000E+03 0.  1.
         -6    1    1    2    0  503  0.66635355555E+02  0.21763097051E+01 -0.13698406511E+03  0.23051820107E+03  0.17300000000E+03 0.  1.
<mgrwt>
<rscale>  2 0.18540228E+03</rscale>
<asrwt>0</asrwt>
<pdfrwt beam="1">  1       21 0.26108182E-01 0.18540228E+03</pdfrwt>
<pdfrwt beam="2">  1       21 0.39023586E-01 0.18540228E+03</pdfrwt>
<totfact> 0.88511770E+04</totfact>
</mgrwt>
</event>
<event>
 4    1  0.4429256E+000  0.1901507E+03  0.7546771E-02  0.1158325E+00
         21   -1    0    0  503  502  0.00000000000E+00  0.00000000000E+00  0.16854806837E+03  0.16854806837E+03  0.00000000000E+00 0.  1.
         21   -1    0    0  501  503 -0.00000000000E+00 -0.00000000000E+00 -0.24404106733E+03  0.24404106733E+03  0.00000000000E+00 0.  1.
          6    1    1    2  501    0 -0.10975272442E+02 -0.78152576835E+02 -0.10949404962E+03  0.21942248921E+03  0.17300000000E+03 0.  1.
         -6    1    1    2    0  502  0.10975272442E+02  0.78152576835E+02  0.34001050655E+02  0.19316664649E+03  0.17300000000E+03 0.  1.
<mgrwt>
<rscale>  2 0.19015068E+03</rscale>
<asrwt>0</asrwt>
<pdfrwt beam="1">  1       21 0.25930472E-01 0.19015068E+03</pdfrwt>
<pdfrwt beam="2">  1       21 0.37544780E-01 0.19015068E+03</pdfrwt>
<totfact> 0.96730208E+04</totfact>
</mgrwt>
</event>
<event>
 4    1  0.4429256E+000  0.2405490E+03  0.7546771E-02  0.1119428E+00
         21   -1    0    0  501  502  0.00000000000E+00  0.00000000000E+00  0.10785171671E+04  0.10785171671E+04  0.00000000000E+00 0. -1.
         21   -1    0    0  502  503 -0.00000000000E+00 -0.00000000000E+00 -0.60062820411E+02  0.60062820411E+02  0.00000000000E+00 0. -1.
          6    1    1    2  501    0 -0.13933481841E+03  0.92307145984E+02  0.32322728293E+03  0.40291398245E+03  0.17300000000E+03 0. -1.
         -6    1    1    2    0  503  0.13933481841E+03 -0.92307145984E+02  0.69522706377E+03  0.73566600508E+03  0.17300000000E+03 0. -1.
<mgrwt>
<rscale>  2 0.24054896E+03</rscale>
<asrwt>0</asrwt>
<pdfrwt beam="1">  1       21 0.16592570E+00 0.24054896E+03</pdfrwt>
<pdfrwt beam="2">  1       21 0.92404347E-02 0.24054896E+03</pdfrwt>
<totfact> 0.20623218E+04</totfact>
</mgrwt>
</event>
<event>
 4    1  0.4429256E+000  0.2393578E+03  0.7546771E-02  0.1120221E+00
         21   -1    0    0  503  502  0.00000000000E+00  0.00000000000E+00  0.27497376541E+03  0.27497376541E+03  0.00000000000E+00 0.  1.
         21   -1    0    0  501  503 -0.00000000000E+00 -0.00000000000E+00 -0.25072369940E+03  0.25072369940E+03  0.00000000000E+00 0. -1.
          6    1    1    2  501    0  0.16535393737E+03 -0.46087998531E+01 -0.95926425602E+02  0.25786439221E+03  0.17300000000E+03 0.  1.
         -6    1    1    2    0  502 -0.16535393737E+03  0.46087998531E+01  0.12017649162E+03  0.26783307260E+03  0.17300000000E+03 0.  1.
<mgrwt>
<rscale>  2 0.23935782E+03</rscale>
<asrwt>0</asrwt>
<pdfrwt beam="1">  1       21 0.42303656E-01 0.23935782E+03</pdfrwt>
<pdfrwt beam="2">  1       21 0.38572877E-01 0.23935782E+03</pdfrwt>
<totfact> 0.34047179E+04</totfact>
</mgrwt>
</event>
<event>
 4    1  0.4429256E+000  0.2744402E+03  0.7546771E-02  0.1098765E+00
         21   -1    0    0  501  502  0.00000000000E+00  0.00000000000E+00  0.35527829275E+03  0.35527829275E+03  0.00000000000E+00 0.  1.
         21   -1    0    0  502  503 -0.00000000000E+00 -0.00000000000E+00 -0.21840399573E+03  0.21840399573E+03  0.00000000000E+00 0.  1.
          6    1    1    2  501    0 -0.15454427721E+03  0.14664413473E+03  0.19302741463E+02  0.27511821404E+03  0.17300000000E+03 0.  1.
         -6    1    1    2    0  503  0.15454427721E+03 -0.14664413473E+03  0.11757155555E+03  0.29856407444E+03  0.17300000000E+03 0.  1.
<mgrwt>
<rscale>  2 0.27444022E+03</rscale>
<asrwt>0</asrwt>
<pdfrwt beam="1">  1       21 0.54658199E-01 0.27444022E+03</pdfrwt>
<pdfrwt beam="2">  1       21 0.33600615E-01 0.27444022E+03</pdfrwt>
<totfact> 0.25901540E+04</totfact>
</mgrwt>
</event>
<event>
 4    1  0.4429256E+000  0.1781250E+03  0.7546771E-02  0.1169630E+00
         21   -1    0    0  503  502  0.00000000000E+00  0.00000000000E+00  0.87384630173E+02  0.87384630173E+02  0.00000000000E+00 0. -1.
         21   -1    0    0  501  503 -0.00000000000E+00 -0.00000000000E+00 -0.60086527001E+03  0.60086527001E+03  0.00000000000E+00 0.  1.
          6    1    1    2  501    0 -0.19945420925E+02  0.37439307132E+02 -0.47321672837E+03  0.50563088666E+03  0.17300000000E+03 0.  1.
         -6    1    1    2    0  502  0.19945420925E+02 -0.37439307132E+02 -0.40263911470E+02  0.18261901353E+03  0.17300000000E+03 0. -1.
<mgrwt>
<rscale>  2 0.17812502E+03</rscale>
<asrwt>0</asrwt>
<pdfrwt beam="1">  1       21 0.13443789E-01 0.17812502E+03</pdfrwt>
<pdfrwt beam="2">  1       21 0.92440814E-01 0.17812502E+03</pdfrwt>
<totfact> 0.47584453E+04</totfact>
</mgrwt>
</event>
<event>
 4    1  0.4429256E+000  0.2526097E+03  0.7546771E-02  0.1111667E+00
         21   -1    0    0  501  502  0.00000000000E+00  0.00000000000E+00  0.15956653253E+04  0.15956653253E+04  0.00000000000E+00 0. -1.
         21   -1    0    0  502  503 -0.00000000000E+00 -0.00000000000E+00 -0.48819508986E+02  0.48819508986E+02  0.00000000000E+00 0.  1.
          6    1    1    2  501    0  0.14429818232E+03  0.11428333101E+03  0.11230911657E+04  0.11511496043E+04  0.17300000000E+03 0. -1.
         -6    1    1    2    0  503 -0.14429818232E+03 -0.11428333101E+03  0.42375465067E+03  0.49333522997E+03  0.17300000000E+03 0.  1.
<mgrwt>
<rscale>  2 0.25260967E+03</rscale>
<asrwt>0</asrwt>
<pdfrwt beam="1">  1       21 0.24548693E+00 0.25260967E+03</pdfrwt>
<pdfrwt beam="2">  1       21 0.75106949E-02 0.25260967E+03</pdfrwt>
<totfact> 0.89976058E+03</totfact>
</mgrwt>
</event>
<event>
 4    1  0.4429256E+000  0.2177601E+03  0.7546771E-02  0.1135564E+00
         21   -1    0    0  503  502  0.00000000000E+00  0.00000000000E+00  0.75094061157E+03  0.75094061157E+03  0.00000000000E+00 0.  1.
         21   -1    0    0  501  503 -0.00000000000E+00 -0.00000000000E+00 -0.83875024170E+02  0.83875024170E+02  0.00000000000E+00 0.  1.
          6    1    1    2  501    0 -0.51272659705E+02 -0.12190810272E+03  0.12602918522E+03  0.25160052994E+03  0.17300000000E+03 0.  1.
         -6    1    1    2    0  502  0.51272659705E+02  0.12190810272E+03  0.54103640219E+03  0.58321510580E+03  0.17300000000E+03 0.  1.
<mgrwt>
<rscale>  2 0.21776012E+03</rscale>
<asrwt>0</asrwt>
<pdfrwt beam="1">  1       21 0.11552932E+00 0.21776012E+03</pdfrwt>
<pdfrwt beam="2">  1       21 0.12903850E-01 0.21776012E+03</pdfrwt>
<totfact> 0.29437725E+04</totfact>
</mgrwt>
</event>
<event>
 4    1  0.4429256E+000  0.2057557E+03  0.7546771E-02  0.1144972E+00
         21   -1    0    0  503  502  0.00000000000E+00  0.00000000000E+00  0.78044125909E+02  0.78044125909E+02  0.00000000000E+00 0.  1.
         21   -1    0    0  501  503 -0.00000000000E+00 -0.00000000000E+00 -0.94724235339E+03  0.94724235339E+03  0.00000000000E+00 0.  1.
          6    1    1    2  501    0 -0.93506427022E+02  0.60522358383E+02 -0.76971751532E+03  0.79674366088E+03  0.17300000000E+03 0.  1.
         -6    1    1    2    0  502  0.93506427022E+02 -0.60522358383E+02 -0.99480712156E+02  0.22854281842E+03  0.17300000000E+03 0.  1.
<mgrwt>
<rscale>  2 0.20575570E+03</rscale>
<asrwt>0</asrwt>
<pdfrwt beam="1">  1       21 0.12006789E-01 0.20575570E+03</pdfrwt>
<pdfrwt beam="2">  1       21 0.14572959E+00 0.20575570E+03</pdfrwt>
<totfact> 0.18734974E+04</totfact>
</mgrwt>
</event>
<event>
 4    1  0.4429256E+000  0.1935109E+03  0.7546771E-02  0.1155332E+00
         21   -1    0    0  501  502  0.00000000000E+00  0.00000000000E+00  0.29324398019E+03  0.29324398019E+03  0.00000000000E+00 0. -1.
         21   -1    0    0  502  503 -0.00000000000E+00 -0.00000000000E+00 -0.20115147130E+03  0.20115147130E+03  0.00000000000E+00 0. -1.
          6    1    1    2  501    0  0.75290164786E+02  0.42998310506E+02  0.19542579001E+03  0.27502309543E+03  0.17300000000E+03 0. -1.
         -6    1    1    2    0  503 -0.75290164786E+02 -0.42998310506E+02 -0.10333328111E+03  0.21937235607E+03  0.17300000000E+03 0. -1.
<mgrwt>
<rscale>  2 0.19351089E+03</rscale>
<asrwt>0</asrwt>
<pdfrwt beam="1">  1       21 0.45114459E-01 0.19351089E+03</pdfrwt>
<pdfrwt beam="2">  1       21 0.30946380E-01 0.19351089E+03</pdfrwt>
<totfact> 0.47260910E+04</totfact>
</mgrwt>
</event>
<event>
 4    1  0.4429256E+000  0.1955977E+03  0.7546771E-02  0.1153507E+00
         21   -1    0    0  503  502  0.00000000000E+00  0.00000000000E+00  0.19309139089E+04  0.19309139089E+04  0.00000000000E+00 0.  1.
         21   -1    0    0  501  503 -0.00000000000E+00 -0.00000000000E+00 -0.10525857704E+03  0.10525857704E+03  0.00000000000E+00 0.  1.
          6    1    1    2  501    0 -0.83424259349E+02  0.37011647276E+02 -0.44460334995E+01  0.19564824634E+03  0.17300000000E+03 0.  1.
         -6    1    1    2    0  502  0.83424259349E+02 -0.37011647276E+02  0.18301013653E+04  0.18405242396E+04  0.17300000000E+03 0.  1.
<mgrwt>
<rscale>  2 0.19559772E+03</rscale>
<asrwt>0</asrwt>
<pdfrwt beam="1">  1       21 0.29706365E+00 0.19559772E+03</pdfrwt>
<pdfrwt beam="2">  1       21 0.16193629E-01 0.19559772E+03</pdfrwt>
<totfact> 0.12058173E+03</totfact>
</mgrwt>
</event>
<event>
 4    1  0.4429256E+000  0.3639126E+03  0.7546771E-02  0.1057045E+00
         21   -1    0    0  503  502  0.00000000000E+00  0.00000000000E+00  0.42380259711E+03  0.42380259711E+03  0.00000000000E+00 0.  1.
         21   -1    0    0  501  503 -0.00000000000E+00 -0.00000000000E+00 -0.50475725283E+03  0.50475725283E+03  0.00000000000E+00 0. -1.
          6    1    1    2  501    0 -0.29192369612E+03  0.13146829858E+03 -0.32702432010E+03  0.48926195829E+03  0.17300000000E+03 0. -1.
         -6    1    1    2    0  502  0.29192369612E+03 -0.13146829858E+03  0.24606966438E+03  0.43929789166E+03  0.17300000000E+03 0.  1.
<mgrwt>
<rscale>  2 0.36391257E+03</rscale>
<asrwt>0</asrwt>
<pdfrwt beam="1">  1       21 0.65200400E-01 0.36391257E+03</pdfrwt>
<pdfrwt beam="2">  1       21 0.77654962E-01 0.36391257E+03</pdfrwt>
<totfact> 0.28650723E+03</totfact>
</mgrwt>
</event>
<event>
 4    1  0.4429256E+000  0.2942454E+03  0.7546771E-02  0.1088153E+00
         21   -1    0    0  501  502  0.00000000000E+00  0.00000000000E+00  0.40569194737E+03  0.40569194737E+03  0.00000000000E+00 0. -1.
         21   -1    0    0  502  503 -0.00000000000E+00 -0.00000000000E+00 -0.21380883118E+03  0.21380883118E+03  0.00000000000E+00 0.  1.
          6    1    1    2  501    0  0.12628335694E+03  0.20175202916E+03  0.10925128582E+03  0.31387292168E+03  0.17300000000E+03 0. -1.
         -6    1    1    2    0  503 -0.12628335694E+03 -0.20175202916E+03  0.82631830363E+02  0.30562785688E+03  0.17300000000E+03 0.  1.
<mgrwt>
<rscale>  2 0.29424542E+03</rscale>
<asrwt>0</asrwt>
<pdfrwt beam="1">  1       21 0.62414145E-01 0.29424542E+03</pdfrwt>
<pdfrwt beam="2">  1       21 0.32893667E-01 0.29424542E+03</pdfrwt>
<totfact> 0.20128389E+04</totfact>
</mgrwt>
</event>
<event>
 4    1  0.4429256E+000  0.1971491E+03  0.7546771E-02  0.1152167E+00
         21   -1    0    0  501  502  0.00000000000E+00  0.00000000000E+00  0.21781686035E+02  0.21781686035E+02  0.00000000000E+00 0.  1.
         21   -1    0    0  502  503 -0.00000000000E+00 -0.00000000000E+00 -0.28705791643E+04  0.28705791643E+04  0.00000000000E+00 0. -1.
          6    1    1    2  501    0 -0.92705832671E+02 -0.18557731890E+02 -0.53482147769E+03  0.57000155598E+03  0.17300000000E+03 0.  1.
         -6    1    1    2    0  503  0.92705832671E+02  0.18557731890E+02 -0.23139760006E+04  0.23223592943E+04  0.17300000000E+03 0. -1.
<mgrwt>
<rscale>  2 0.19714908E+03</rscale>
<asrwt>0</asrwt>
<pdfrwt beam="1">  1       21 0.33510310E-02 0.19714908E+03</pdfrwt>
<pdfrwt beam="2">  1       21 0.44162725E+00 0.19714908E+03</pdfrwt>
<totfact> 0.24715336E+03</totfact>
</mgrwt>
</event>
<event>
 4    1  0.4429256E+000  0.1974742E+03  0.7546771E-02  0.1151888E+00
         21   -1    0    0  501  502  0.00000000000E+00  0.00000000000E+00  0.52481645461E+03  0.52481645461E+03  0.00000000000E+00 0.  1.
         21   -1    0    0  502  503 -0.00000000000E+00 -0.00000000000E+00 -0.77799613867E+02  0.77799613867E+02  0.00000000000E+00 0.  1.
          6    1    1    2  501    0 -0.79704646139E+02 -0.52098419036E+02  0.28737449431E+03  0.34868348952E+03  0.17300000000E+03 0.  1.
         -6    1    1    2    0  503  0.79704646139E+02  0.52098419036E+02  0.15964234643E+03  0.25393257896E+03  0.17300000000E+03 0.  1.
<mgrwt>
<rscale>  2 0.19747424E+03</rscale>
<asrwt>0</asrwt>
<pdfrwt beam="1">  1       21 0.80740991E-01 0.19747424E+03</pdfrwt>
<pdfrwt beam="2">  1       21 0.11969172E-01 0.19747424E+03</pdfrwt>
<totfact> 0.79237810E+04</totfact>
</mgrwt>
</event>
<event>
 4    1  0.4429256E+000  0.1744389E+03  0.7546771E-02  0.1173296E+00
         21   -1    0    0  501  502  0.00000000000E+00  0.00000000000E+00  0.16308373995E+03  0.16308373995E+03  0.00000000000E+00 0.  1.
         21   -1    0    0  502  503 -0.00000000000E+00 -0.00000000000E+00 -0.19830252703E+03  0.19830252703E+03  0.00000000000E+00 0.  1.
          6    1    1    2  501    0 -0.22341331591E+02  0.89455724155E+00 -0.61533257690E+02  0.18497372011E+03  0.17300000000E+03 0.  1.
         -6    1    1    2    0  503  0.22341331591E+02 -0.89455724155E+00  0.26314470616E+02  0.17641254687E+03  0.17300000000E+03 0.  1.
<mgrwt>
<rscale>  2 0.17443892E+03</rscale>
<asrwt>0</asrwt>
<pdfrwt beam="1">  1       21 0.25089806E-01 0.17443892E+03</pdfrwt>
<pdfrwt beam="2">  1       21 0.30508081E-01 0.17443892E+03</pdfrwt>
<totfact> 0.15604147E+05</totfact>
</mgrwt>
</event>
<event>
 4    1  0.4429256E+000  0.1812395E+03  0.7546771E-02  0.1166609E+00
         21   -1    0    0  503  502  0.00000000000E+00  0.00000000000E+00  0.44690649968E+02  0.44690649968E+02  0.00000000000E+00 0.  1.
         21   -1    0    0  501  503 -0.00000000000E+00 -0.00000000000E+00 -0.92270361194E+03  0.92270361194E+03  0.00000000000E+00 0.  1.
          6    1    1    2  501    0 -0.36658268229E+02 -0.39685571495E+02 -0.65716639300E+03  0.68170040435E+03  0.17300000000E+03 0.  1.
         -6    1    1    2    0  502  0.36658268229E+02  0.39685571495E+02 -0.22084656897E+03  0.28569385755E+03  0.17300000000E+03 0.  1.
<mgrwt>
<rscale>  2 0.18123955E+03</rscale>
<asrwt>0</asrwt>
<pdfrwt beam="1">  1       21 0.68754848E-02 0.18123955E+03</pdfrwt>
<pdfrwt beam="2">  1       21 0.14195440E+00 0.18123955E+03</pdfrwt>
<totfact> 0.54194095E+04</totfact>
</mgrwt>
</event>
<event>
 4    1  0.4429256E+000  0.1857666E+03  0.7546771E-02  0.1162336E+00
         21   -1    0    0  503  502  0.00000000000E+00  0.00000000000E+00  0.24489769948E+03  0.24489769948E+03  0.00000000000E+00 0.  1.
         21   -1    0    0  501  503 -0.00000000000E+00 -0.00000000000E+00 -0.16878977214E+03  0.16878977214E+03  0.00000000000E+00 0.  1.
          6    1    1    2  501    0  0.63681531602E+02 -0.22910447320E+02 -0.46006529696E+02  0.19137875232E+03  0.17300000000E+03 0.  1.
         -6    1    1    2    0  502 -0.63681531602E+02  0.22910447320E+02  0.12211445703E+03  0.22230871931E+03  0.17300000000E+03 0.  1.
<mgrwt>
<rscale>  2 0.18576659E+03</rscale>
<asrwt>0</asrwt>
<pdfrwt beam="1">  1       21 0.37676569E-01 0.18576659E+03</pdfrwt>
<pdfrwt beam="2">  1       21 0.25967657E-01 0.18576659E+03</pdfrwt>
<totfact> 0.95947185E+04</totfact>
</mgrwt>
</event>
<event>
 4    1  0.4429256E+000  0.1791627E+03  0.7546771E-02  0.1168616E+00
         21   -1    0    0  503  502  0.00000000000E+00  0.00000000000E+00  0.92376825358E+02  0.92376825358E+02  0.00000000000E+00 0. -1.
         21   -1    0    0  501  503 -0.00000000000E+00 -0.00000000000E+00 -0.75863561552E+03  0.75863561552E+03  0.00000000000E+00 0. -1.
          6    1    1    2  501    0  0.39991659423E+02  0.23894044597E+02 -0.64637970124E+03  0.67075030851E+03  0.17300000000E+03 0. -1.
         -6    1    1    2    0  502 -0.39991659423E+02 -0.23894044597E+02 -0.19879088924E+02  0.18026213237E+03  0.17300000000E+03 0. -1.
<mgrwt>
<rscale>  2 0.17916266E+03</rscale>
<asrwt>0</asrwt>
<pdfrwt beam="1">  1       21 0.14211819E-01 0.17916266E+03</pdfrwt>
<pdfrwt beam="2">  1       21 0.11671318E+00 0.17916266E+03</pdfrwt>
<totfact> 0.24669927E+04</totfact>
</mgrwt>
</event>
<event>
 4    1  0.4429256E+000  0.1970512E+03  0.7546771E-02  0.1152251E+00
         21   -1    0    0  501  502  0.00000000000E+00  0.00000000000E+00  0.66978071467E+03  0.66978071467E+03  0.00000000000E+00 0. -1.
         21   -1    0    0  502  503 -0.00000000000E+00 -0.00000000000E+00 -0.82054247421E+02  0.82054247421E+02  0.00000000000E+00 0.  1.
          6    1    1    2  501    0  0.59808330797E+02  0.72959935618E+02  0.49751191206E+03  0.53511427871E+03  0.17300000000E+03 0. -1.
         -6    1    1    2    0  503 -0.59808330797E+02 -0.72959935618E+02  0.90214555192E+02  0.21672068338E+03  0.17300000000E+03 0.  1.
<mgrwt>
<rscale>  2 0.19705123E+03</rscale>
<asrwt>0</asrwt>
<pdfrwt beam="1">  1       21 0.10304318E+00 0.19705123E+03</pdfrwt>
<pdfrwt beam="2">  1       21 0.12623731E-01 0.19705123E+03</pdfrwt>
<totfact> 0.40860663E+04</totfact>
</mgrwt>
</event>
<event>
 4    1  0.4429256E+000  0.1938326E+03  0.7546771E-02  0.1155049E+00
         21   -1    0    0  501  502  0.00000000000E+00  0.00000000000E+00  0.13484563165E+04  0.13484563165E+04  0.00000000000E+00 0.  1.
         21   -1    0    0  502  503 -0.00000000000E+00 -0.00000000000E+00 -0.52714907963E+02  0.52714907963E+02  0.00000000000E+00 0.  1.
          6    1    1    2  501    0 -0.63350664976E+01 -0.87189151932E+02  0.11289100028E+04  0.11454295594E+04  0.17300000000E+03 0.  1.
         -6    1    1    2    0  503  0.63350664976E+01  0.87189151932E+02  0.16683140579E+03  0.25574166504E+03  0.17300000000E+03 0.  1.
<mgrwt>
<rscale>  2 0.19383261E+03</rscale>
<asrwt>0</asrwt>
<pdfrwt beam="1">  1       21 0.20745479E+00 0.19383261E+03</pdfrwt>
<pdfrwt beam="2">  1       21 0.81099868E-02 0.19383261E+03</pdfrwt>
<totfact> 0.14094207E+04</totfact>
</mgrwt>
</event>
<event>
 4    1  0.4429256E+000  0.1776171E+03  0.7546771E-02  0.1170129E+00
         21   -1    0    0  501  502  0.00000000000E+00  0.00000000000E+00  0.22191999516E+03  0.22191999516E+03  0.00000000000E+00 0. -1.
         21   -1    0    0  502  503 -0.00000000000E+00 -0.00000000000E+00 -0.14278170926E+03  0.14278170926E+03  0.00000000000E+00 0. -1.
          6    1    1    2  501    0 -0.25045600142E+02 -0.31488859596E+02  0.51615678989E+02  0.18496488500E+03  0.17300000000E+03 0. -1.
         -6    1    1    2    0  503  0.25045600142E+02  0.31488859596E+02  0.27522606913E+02  0.17973681942E+03  0.17300000000E+03 0. -1.
<mgrwt>
<rscale>  2 0.17761709E+03</rscale>
<asrwt>0</asrwt>
<pdfrwt beam="1">  1       21 0.34141538E-01 0.17761709E+03</pdfrwt>
<pdfrwt beam="2">  1       21 0.21966417E-01 0.17761709E+03</pdfrwt>
<totfact> 0.16078201E+05</totfact>
</mgrwt>
</event>
<event>
 4    1  0.4429256E+000  0.2895038E+03  0.7546771E-02  0.1090609E+00
         21   -1    0    0  501  502  0.00000000000E+00  0.00000000000E+00  0.25191306696E+03  0.25191306696E+03  0.00000000000E+00 0. -1.
         21   -1    0    0  502  503 -0.00000000000E+00 -0.00000000000E+00 -0.33271514346E+03  0.33271514346E+03  0.00000000000E+00 0.  1.
          6    1    1    2  501    0  0.13314804094E+03  0.19014476311E+03 -0.42108720165E+02  0.29255012572E+03  0.17300000000E+03 0. -1.
         -6    1    1    2    0  503 -0.13314804094E+03 -0.19014476311E+03 -0.38693356335E+02  0.29207808471E+03  0.17300000000E+03 0. -1.
<mgrwt>
<rscale>  2 0.28950377E+03</rscale>
<asrwt>0</asrwt>
<pdfrwt beam="1">  1       21 0.38755856E-01 0.28950377E+03</pdfrwt>
<pdfrwt beam="2">  1       21 0.51186945E-01 0.28950377E+03</pdfrwt>
<totfact> 0.22207219E+04</totfact>
</mgrwt>
</event>
<event>
 4    1  0.4429256E+000  0.2134260E+03  0.7546771E-02  0.1138881E+00
         21   -1    0    0  503  502  0.00000000000E+00  0.00000000000E+00  0.34790352600E+03  0.34790352600E+03  0.00000000000E+00 0. -1.
         21   -1    0    0  501  503 -0.00000000000E+00 -0.00000000000E+00 -0.14622741543E+03  0.14622741543E+03  0.00000000000E+00 0. -1.
          6    1    1    2  501    0 -0.11618407201E+03  0.46075083149E+02  0.20924355283E+02  0.21444924929E+03  0.17300000000E+03 0. -1.
         -6    1    1    2    0  502  0.11618407201E+03 -0.46075083149E+02  0.18075175528E+03  0.27968169213E+03  0.17300000000E+03 0. -1.
<mgrwt>
<rscale>  2 0.21342599E+03</rscale>
<asrwt>0</asrwt>
<pdfrwt beam="1">  1       21 0.53523619E-01 0.21342599E+03</pdfrwt>
<pdfrwt beam="2">  1       21 0.22496526E-01 0.21342599E+03</pdfrwt>
<totfact> 0.60559791E+04</totfact>
</mgrwt>
</event>
<event>
 4    1  0.4429256E+000  0.2160482E+03  0.7546771E-02  0.1136864E+00
         21   -1    0    0  503  502  0.00000000000E+00  0.00000000000E+00  0.63516830691E+02  0.63516830691E+02  0.00000000000E+00 0.  1.
         21   -1    0    0  501  503 -0.00000000000E+00 -0.00000000000E+00 -0.80888331317E+03  0.80888331317E+03  0.00000000000E+00 0. -1.
          6    1    1    2  501    0 -0.31219275533E+02 -0.12559127888E+03 -0.50462689903E+03  0.54893088792E+03  0.17300000000E+03 0. -1.
         -6    1    1    2    0  502  0.31219275533E+02  0.12559127888E+03 -0.24073958345E+03  0.32346925594E+03  0.17300000000E+03 0.  1.
<mgrwt>
<rscale>  2 0.21604817E+03</rscale>
<asrwt>0</asrwt>
<pdfrwt beam="1">  1       21 0.97718202E-02 0.21604817E+03</pdfrwt>
<pdfrwt beam="2">  1       21 0.12444359E+00 0.21604817E+03</pdfrwt>
<totfact> 0.40250157E+04</totfact>
</mgrwt>
</event>
<event>
 4    1  0.4429256E+000  0.2474364E+03  0.7546771E-02  0.1114936E+00
         21   -1    0    0  503  502  0.00000000000E+00  0.00000000000E+00  0.11932387639E+03  0.11932387639E+03  0.00000000000E+00 0.  1.
         21   -1    0    0  501  503 -0.00000000000E+00 -0.00000000000E+00 -0.78732209375E+03  0.78732209375E+03  0.00000000000E+00 0.  1.
          6    1    1    2  501    0  0.10251759221E+03 -0.14417319988E+03 -0.60153670256E+03  0.65043921530E+03  0.17300000000E+03 0.  1.
         -6    1    1    2    0  502 -0.10251759221E+03  0.14417319988E+03 -0.66461514801E+02  0.25620675484E+03  0.17300000000E+03 0.  1.
<mgrwt>
<rscale>  2 0.24743639E+03</rscale>
<asrwt>0</asrwt>
<pdfrwt beam="1">  1       21 0.18357519E-01 0.24743639E+03</pdfrwt>
<pdfrwt beam="2">  1       21 0.12112648E+00 0.24743639E+03</pdfrwt>
<totfact> 0.13498739E+04</totfact>
</mgrwt>
</event>
<event>
 4    1  0.4429256E+000  0.1942938E+03  0.7546771E-02  0.1154645E+00
         21   -1    0    0  501  502  0.00000000000E+00  0.00000000000E+00  0.13708518931E+04  0.13708518931E+04  0.00000000000E+00 0.  1.
         21   -1    0    0  502  503 -0.00000000000E+00 -0.00000000000E+00 -0.91599782514E+02  0.91599782514E+02  0.00000000000E+00 0. -1.
          6    1    1    2  501    0 -0.88206505333E+02  0.63786144618E+01  0.12511379619E+04  0.12661343823E+04  0.17300000000E+03 0.  1.
         -6    1    1    2    0  503  0.88206505333E+02 -0.63786144618E+01  0.28114148696E+02  0.19631729333E+03  0.17300000000E+03 0. -1.
<mgrwt>
<rscale>  2 0.19429378E+03</rscale>
<asrwt>0</asrwt>
<pdfrwt beam="1">  1       21 0.21090028E+00 0.19429378E+03</pdfrwt>
<pdfrwt beam="2">  1       21 0.14092275E-01 0.19429378E+03</pdfrwt>
<totfact> 0.50251360E+03</totfact>
</mgrwt>
</event>
<event>
 4    1  0.4429256E+000  0.2144959E+03  0.7546771E-02  0.1138054E+00
         21   -1    0    0  503  502  0.00000000000E+00  0.00000000000E+00  0.12510975124E+03  0.12510975124E+03  0.00000000000E+00 0.  1.
         21   -1    0    0  501  503 -0.00000000000E+00 -0.00000000000E+00 -0.37209788686E+03  0.37209788686E+03  0.00000000000E+00 0. -1.
          6    1    1    2  501    0 -0.52488692849E+02 -0.11543146460E+03 -0.15038263832E+03  0.26196072951E+03  0.17300000000E+03 0.  1.
         -6    1    1    2    0  502  0.52488692849E+02  0.11543146460E+03 -0.96605497298E+02  0.23524690860E+03  0.17300000000E+03 0. -1.
<mgrwt>
<rscale>  2 0.21449589E+03</rscale>
<asrwt>0</asrwt>
<pdfrwt beam="1">  1       21 0.19247654E-01 0.21449589E+03</pdfrwt>
<pdfrwt beam="2">  1       21 0.57245830E-01 0.21449589E+03</pdfrwt>
<totfact> 0.70356751E+04</totfact>
</mgrwt>
</event>
<event>
 4    1  0.4429256E+000  0.2952843E+03  0.7546771E-02  0.1087622E+00
         21   -1    0    0  501  502  0.00000000000E+00  0.00000000000E+00  0.14687519841E+03  0.14687519841E+03  0.00000000000E+00 0.  1.
         21   -1    0    0  502  503 -0.00000000000E+00 -0.00000000000E+00 -0.98036530511E+03  0.98036530511E+03  0.00000000000E+00 0. -1.
          6    1    1    2  501    0 -0.20422807501E+03 -0.12471854316E+03 -0.62758368366E+02  0.30187983442E+03  0.17300000000E+03 0.  1.
         -6    1    1    2    0  503  0.20422807501E+03  0.12471854316E+03 -0.77073173833E+03  0.82536066910E+03  0.17300000000E+03 0. -1.
<mgrwt>
<rscale>  2 0.29528431E+03</rscale>
<asrwt>0</asrwt>
<pdfrwt beam="1">  1       21 0.22596183E-01 0.29528431E+03</pdfrwt>
<pdfrwt beam="2">  1       21 0.15082544E+00 0.29528431E+03</pdfrwt>
<totfact> 0.50377472E+03</totfact>
</mgrwt>
</event>
<event>
 4    1  0.4429256E+000  0.2698218E+03  0.7546771E-02  0.1101382E+00
         21   -1    0    0  503  502  0.00000000000E+00  0.00000000000E+00  0.65538635903E+02  0.65538635903E+02  0.00000000000E+00 0.  1.
         21   -1    0    0  501  503 -0.00000000000E+00 -0.00000000000E+00 -0.12419364073E+04  0.12419364073E+04  0.00000000000E+00 0.  1.
          6    1    1    2  501    0  0.20402972963E+03  0.35308345713E+02 -0.80058547941E+03  0.84483188842E+03  0.17300000000E+03 0.  1.
         -6    1    1    2    0  502 -0.20402972963E+03 -0.35308345713E+02 -0.37581229194E+03  0.46264315474E+03  0.17300000000E+03 0.  1.
<mgrwt>
<rscale>  2 0.26982181E+03</rscale>
<asrwt>0</asrwt>
<pdfrwt beam="1">  1       21 0.10082867E-01 0.26982181E+03</pdfrwt>
<pdfrwt beam="2">  1       21 0.19106714E+00 0.26982181E+03</pdfrwt>
<totfact> 0.11630647E+04</totfact>
</mgrwt>
</event>
<event>
 4    1  0.4429256E+000  0.1888817E+03  0.7546771E-02  0.1159474E+00
         21   -1    0    0  503  502  0.00000000000E+00  0.00000000000E+00  0.52815597317E+03  0.52815597317E+03  0.00000000000E+00 0. -1.
         21   -1    0    0  501  503 -0.00000000000E+00 -0.00000000000E+00 -0.67770898181E+02  0.67770898181E+02  0.00000000000E+00 0. -1.
          6    1    1    2  501    0  0.45315064033E+02  0.60777133317E+02  0.21313602537E+03  0.28478637656E+03  0.17300000000E+03 0. -1.
         -6    1    1    2    0  502 -0.45315064033E+02 -0.60777133317E+02  0.24724904962E+03  0.31114049479E+03  0.17300000000E+03 0. -1.
<mgrwt>
<rscale>  2 0.18888175E+03</rscale>
<asrwt>0</asrwt>
<pdfrwt beam="1">  1       21 0.81254762E-01 0.18888175E+03</pdfrwt>
<pdfrwt beam="2">  1       21 0.10426292E-01 0.18888175E+03</pdfrwt>
<totfact> 0.10021999E+05</totfact>
</mgrwt>
</event>
<event>
 4    1  0.4429256E+000  0.1844449E+03  0.7546771E-02  0.1163569E+00
         21   -1    0    0  503  502  0.00000000000E+00  0.00000000000E+00  0.22635491122E+03  0.22635491122E+03  0.00000000000E+00 0.  1.
         21   -1    0    0  501  503 -0.00000000000E+00 -0.00000000000E+00 -0.17580478076E+03  0.17580478076E+03  0.00000000000E+00 0. -1.
          6    1    1    2  501    0 -0.23340756294E+02 -0.59549286529E+02 -0.51321701552E+02  0.19145188816E+03  0.17300000000E+03 0. -1.
         -6    1    1    2    0  502  0.23340756294E+02  0.59549286529E+02  0.10187183202E+03  0.21070780382E+03  0.17300000000E+03 0.  1.
<mgrwt>
<rscale>  2 0.18444487E+03</rscale>
<asrwt>0</asrwt>
<pdfrwt beam="1">  1       21 0.34823833E-01 0.18444487E+03</pdfrwt>
<pdfrwt beam="2">  1       21 0.27046889E-01 0.18444487E+03</pdfrwt>
<totfact> 0.10384949E+05</totfact>
</mgrwt>
</event>
<event>
 4    1  0.4429256E+000  0.1769163E+03  0.7546771E-02  0.1170821E+00
         21   -1    0    0  503  502  0.00000000000E+00  0.00000000000E+00  0.61678161470E+02  0.61678161470E+02  0.00000000000E+00 0. -1.
         21   -1    0    0  501  503 -0.00000000000E+00 -0.00000000000E+00 -0.53604383834E+03  0.53604383834E+03  0.00000000000E+00 0. -1.
          6    1    1    2  501    0 -0.30030501332E+02  0.21645829301E+02 -0.30619220495E+03  0.35362839155E+03  0.17300000000E+03 0. -1.
         -6    1    1    2    0  502  0.30030501332E+02 -0.21645829301E+02 -0.16817347192E+03  0.24409360826E+03  0.17300000000E+03 0. -1.
<mgrwt>
<rscale>  2 0.17691629E+03</rscale>
<asrwt>0</asrwt>
<pdfrwt beam="1">  1       21 0.94889481E-02 0.17691629E+03</pdfrwt>
<pdfrwt beam="2">  1       21 0.82468281E-01 0.17691629E+03</pdfrwt>
<totfact> 0.11495735E+05</totfact>
</mgrwt>
</event>
<event>
 4    1  0.4429256E+000  0.2187774E+03  0.7546771E-02  0.1134798E+00
         21   -1    0    0  501  502  0.00000000000E+00  0.00000000000E+00  0.28829590916E+03  0.28829590916E+03  0.00000000000E+00 0.  1.
         21   -1    0    0  502  503 -0.00000000000E+00 -0.00000000000E+00 -0.18982899195E+03  0.18982899195E+03  0.00000000000E+00 0.  1.
          6    1    1    2  501    0 -0.96959221345E+02  0.92376667193E+02  0.13389378922E+03  0.25649773106E+03  0.17300000000E+03 0.  1.
         -6    1    1    2    0  503  0.96959221345E+02 -0.92376667193E+02 -0.35426872003E+02  0.22162717005E+03  0.17300000000E+03 0.  1.
<mgrwt>
<rscale>  2 0.21877737E+03</rscale>
<asrwt>0</asrwt>
<pdfrwt beam="1">  1       21 0.44353217E-01 0.21877737E+03</pdfrwt>
<pdfrwt beam="2">  1       21 0.29204460E-01 0.21877737E+03</pdfrwt>
<totfact> 0.54148938E+04</totfact>
</mgrwt>
</event>
<event>
 4    1  0.4429256E+000  0.1894645E+03  0.7546771E-02  0.1158945E+00
         21   -1    0    0  501  502  0.00000000000E+00  0.00000000000E+00  0.13428173785E+03  0.13428173785E+03  0.00000000000E+00 0.  1.
         21   -1    0    0  502  503 -0.00000000000E+00 -0.00000000000E+00 -0.10890610960E+04  0.10890610960E+04  0.00000000000E+00 0. -1.
          6    1    1    2  501    0  0.60879695257E+02 -0.47554772411E+02  0.53933042092E+02  0.19699128586E+03  0.17300000000E+03 0.  1.
         -6    1    1    2    0  503 -0.60879695257E+02  0.47554772411E+02 -0.10087124002E+04  0.10263515480E+04  0.17300000000E+03 0. -1.
<mgrwt>
<rscale>  2 0.18946449E+03</rscale>
<asrwt>0</asrwt>
<pdfrwt beam="1">  1       21 0.20658728E-01 0.18946449E+03</pdfrwt>
<pdfrwt beam="2">  1       21 0.16754786E+00 0.18946449E+03</pdfrwt>
<totfact> 0.48379492E+03</totfact>
</mgrwt>
</event>
<event>
 4    1  0.4429256E+000  0.3027861E+03  0.7546771E-02  0.1083856E+00
         21   -1    0    0  503  502  0.00000000000E+00  0.00000000000E+00  0.33072411053E+03  0.33072411053E+03  0.00000000000E+00 0. -1.
         21   -1    0    0  501  503 -0.00000000000E+00 -0.00000000000E+00 -0.29709779244E+03  0.29709779244E+03  0.00000000000E+00 0.  1.
          6    1    1    2  501    0 -0.22259202510E+03  0.11046826359E+03  0.98034343125E+02  0.31826118100E+03  0.17300000000E+03 0.  1.
         -6    1    1    2    0  502  0.22259202510E+03 -0.11046826359E+03 -0.64408025042E+02  0.30956072197E+03  0.17300000000E+03 0.  1.
<mgrwt>
<rscale>  2 0.30278614E+03</rscale>
<asrwt>0</asrwt>
<pdfrwt beam="1">  1       21 0.50880633E-01 0.30278614E+03</pdfrwt>
<pdfrwt beam="2">  1       21 0.45707353E-01 0.30278614E+03</pdfrwt>
<totfact> 0.15935332E+04</totfact>
</mgrwt>
</event>
<event>
 4    1  0.4429256E+000  0.2203691E+03  0.7546771E-02  0.1133608E+00
         21   -1    0    0  503  502  0.00000000000E+00  0.00000000000E+00  0.10155850789E+03  0.10155850789E+03  0.00000000000E+00 0. -1.
         21   -1    0    0  501  503 -0.00000000000E+00 -0.00000000000E+00 -0.68959976054E+03  0.68959976054E+03  0.00000000000E+00 0. -1.
          6    1    1    2  501    0  0.13521022834E+03 -0.18754954365E+02 -0.51305618397E+03  0.55838087545E+03  0.17300000000E+03 0. -1.
         -6    1    1    2    0  502 -0.13521022834E+03  0.18754954365E+02 -0.74985068685E+02  0.23277739299E+03  0.17300000000E+03 0. -1.
<mgrwt>
<rscale>  2 0.22036913E+03</rscale>
<asrwt>0</asrwt>
<pdfrwt beam="1">  1       21 0.15624385E-01 0.22036913E+03</pdfrwt>
<pdfrwt beam="2">  1       21 0.10609227E+00 0.22036913E+03</pdfrwt>
<totfact> 0.25539626E+04</totfact>
</mgrwt>
</event>
<event>
 4    1  0.4429256E+000  0.1929947E+03  0.7546771E-02  0.1155788E+00
         21   -1    0    0  501  502  0.00000000000E+00  0.00000000000E+00  0.18275785455E+03  0.18275785455E+03  0.00000000000E+00 0. -1.
         21   -1    0    0  502  503 -0.00000000000E+00 -0.00000000000E+00 -0.28371194963E+03  0.28371194963E+03  0.00000000000E+00 0. -1.
          6    1    1    2  501    0 -0.82660328909E+02  0.22027392945E+02  0.73302082653E+02  0.20644643697E+03  0.17300000000E+03 0. -1.
         -6    1    1    2    0  503  0.82660328909E+02 -0.22027392945E+02 -0.17425617774E+03  0.26002336721E+03  0.17300000000E+03 0. -1.
<mgrwt>
<rscale>  2 0.19299465E+03</rscale>
<asrwt>0</asrwt>
<pdfrwt beam="1">  1       21 0.28116593E-01 0.19299465E+03</pdfrwt>
<pdfrwt beam="2">  1       21 0.43647992E-01 0.19299465E+03</pdfrwt>
<totfact> 0.60960839E+04</totfact>
</mgrwt>
</event>
<event>
 4    1  0.4429256E+000  0.1752996E+03  0.7546771E-02  0.1172431E+00
         21   -1    0    0  501  502  0.00000000000E+00  0.00000000000E+00  0.76114243503E+03  0.76114243503E+03  0.00000000000E+00 0.  1.
         21   -1    0    0  502  503 -0.00000000000E+00 -0.00000000000E+00 -0.41256384075E+02  0.41256384075E+02  0.00000000000E+00 0.  1.
          6    1    1    2  501    0  0.17245674484E+02 -0.22439997538E+02  0.41863411119E+03  0.45385513749E+03  0.17300000000E+03 0.  1.
         -6    1    1    2    0  503 -0.17245674484E+02  0.22439997538E+02  0.30125193976E+03  0.34854368161E+03  0.17300000000E+03 0.  1.
<mgrwt>
<rscale>  2 0.17529965E+03</rscale>
<asrwt>0</asrwt>
<pdfrwt beam="1">  1       21 0.11709883E+00 0.17529965E+03</pdfrwt>
<pdfrwt beam="2">  1       21 0.63471366E-02 0.17529965E+03</pdfrwt>
<totfact> 0.10119047E+05</totfact>
</mgrwt>
</event>
<event>
 4    1  0.4429256E+000  0.6636842E+03  0.7546771E-02  0.9781435E-01
         21   -1    0    0  503  502  0.00000000000E+00  0.00000000000E+00  0.14180316817E+04  0.14180316817E+04  0.00000000000E+00 0. -1.
         21   -1    0    0  501  503 -0.00000000000E+00 -0.00000000000E+00 -0.68639450849E+03  0.68639450849E+03  0.00000000000E+00 0. -1.
          6    1    1    2  501    0 -0.25342327265E+03  0.58849330326E+03 -0.41271492821E+03  0.78154355929E+03  0.17300000000E+03 0. -1.
         -6    1    1    2    0  502  0.25342327265E+03 -0.58849330326E+03  0.11443521015E+04  0.13228826309E+04  0.17300000000E+03 0. -1.
<mgrwt>
<rscale>  2 0.66368420E+03</rscale>
<asrwt>0</asrwt>
<pdfrwt beam="1">  1       21 0.21815872E+00 0.66368420E+03</pdfrwt>
<pdfrwt beam="2">  1       21 0.10559916E+00 0.66368420E+03</pdfrwt>
<totfact> 0.52375710E+01</totfact>
</mgrwt>
</event>
<event>
 4    1  0.4429256E+000  0.1847858E+03  0.7546771E-02  0.1163250E+00
         21   -1    0    0  503  502  0.00000000000E+00  0.00000000000E+00  0.68708549908E+03  0.68708549908E+03  0.00000000000E+00 0.  1.
         21   -1    0    0  501  503 -0.00000000000E+00 -0.00000000000E+00 -0.51144724639E+02  0.51144724639E+02  0.00000000000E+00 0.  1.
          6    1    1    2  501    0  0.28501881511E+02  0.58347550515E+02  0.25585937746E+03  0.31561022628E+03  0.17300000000E+03 0.  1.
         -6    1    1    2    0  502 -0.28501881511E+02 -0.58347550515E+02  0.38008139699E+03  0.42261999744E+03  0.17300000000E+03 0.  1.
<mgrwt>
<rscale>  2 0.18478581E+03</rscale>
<asrwt>0</asrwt>
<pdfrwt beam="1">  1       21 0.10570545E+00 0.18478581E+03</pdfrwt>
<pdfrwt beam="2">  1       21 0.78684197E-02 0.18478581E+03</pdfrwt>
<totfact> 0.89102063E+04</totfact>
</mgrwt>
</event>
<event>
 4    1  0.4429256E+000  0.2472345E+03  0.7546771E-02  0.1115065E+00
         21   -1    0    0  503  502  0.00000000000E+00  0.00000000000E+00  0.52322947111E+03  0.52322947111E+03  0.00000000000E+00 0.  1.
         21   -1    0    0  501  503 -0.00000000000E+00 -0.00000000000E+00 -0.18351378495E+03  0.18351378495E+03  0.00000000000E+00 0.  1.
          6    1    1    2  501    0  0.24446492748E+02  0.17492358507E+03 -0.43168048577E+02  0.25097484344E+03  0.17300000000E+03 0.  1.
         -6    1    1    2    0  502 -0.24446492748E+02 -0.17492358507E+03  0.38288373474E+03  0.45576841263E+03  0.17300000000E+03 0.  1.
<mgrwt>
<rscale>  2 0.24723449E+03</rscale>
<asrwt>0</asrwt>
<pdfrwt beam="1">  1       21 0.80496841E-01 0.24723449E+03</pdfrwt>
<pdfrwt beam="2">  1       21 0.28232890E-01 0.24723449E+03</pdfrwt>
<totfact> 0.15752536E+04</totfact>
</mgrwt>
</event>
<event>
 4    1  0.4429256E+000  0.1914834E+03  0.7546771E-02  0.1157130E+00
         21   -1    0    0  501  502  0.00000000000E+00  0.00000000000E+00  0.29802976960E+02  0.29802976960E+02  0.00000000000E+00 0.  1.
         21   -1    0    0  502  503 -0.00000000000E+00 -0.00000000000E+00 -0.23202954361E+04  0.23202954361E+04  0.00000000000E+00 0.  1.
          6    1    1    2  501    0 -0.64124301269E+02  0.51234277095E+02 -0.33986482261E+03  0.39009482797E+03  0.17300000000E+03 0.  1.
         -6    1    1    2    0  503  0.64124301269E+02 -0.51234277095E+02 -0.19506276366E+04  0.19600035851E+04  0.17300000000E+03 0.  1.
<mgrwt>
<rscale>  2 0.19148336E+03</rscale>
<asrwt>0</asrwt>
<pdfrwt beam="1">  1       21 0.45850736E-02 0.19148336E+03</pdfrwt>
<pdfrwt beam="2">  1       21 0.35696851E+00 0.19148336E+03</pdfrwt>
<totfact> 0.49600651E+03</totfact>
</mgrwt>
</event>
<event>
 4    1  0.4429256E+000  0.2082312E+03  0.7546771E-02  0.1142974E+00
         21   -1    0    0  503  502  0.00000000000E+00  0.00000000000E+00  0.11714812635E+04  0.11714812635E+04  0.00000000000E+00 0. -1.
         21   -1    0    0  501  503 -0.00000000000E+00 -0.00000000000E+00 -0.94583023231E+02  0.94583023231E+02  0.00000000000E+00 0.  1.
          6    1    1    2  501    0  0.48375146570E+01 -0.11579225455E+03  0.44574524138E+02  0.21294866979E+03  0.17300000000E+03 0.  1.
         -6    1    1    2    0  502 -0.48375146570E+01  0.11579225455E+03  0.10323237162E+04  0.10531156170E+04  0.17300000000E+03 0. -1.
<mgrwt>
<rscale>  2 0.20823124E+03</rscale>
<asrwt>0</asrwt>
<pdfrwt beam="1">  1       21 0.18022788E+00 0.20823124E+03</pdfrwt>
<pdfrwt beam="2">  1       21 0.14551235E-01 0.20823124E+03</pdfrwt>
<totfact> 0.74201726E+03</totfact>
</mgrwt>
</event>
<event>
 4    1  0.4429256E+000  0.2608700E+03  0.7546771E-02  0.1106622E+00
         21   -1    0    0  503  502  0.00000000000E+00  0.00000000000E+00  0.22872104882E+03  0.22872104882E+03  0.00000000000E+00 0. -1.
         21   -1    0    0  501  503 -0.00000000000E+00 -0.00000000000E+00 -0.30618706760E+03  0.30618706760E+03  0.00000000000E+00 0.  1.
          6    1    1    2  501    0  0.10926544843E+03 -0.16181844329E+03 -0.83684762173E+02  0.27396402360E+03  0.17300000000E+03 0. -1.
         -6    1    1    2    0  502 -0.10926544843E+03  0.16181844329E+03  0.62187433984E+01  0.26094409282E+03  0.17300000000E+03 0.  1.
<mgrwt>
<rscale>  2 0.26086998E+03</rscale>
<asrwt>0</asrwt>
<pdfrwt beam="1">  1       21 0.35187854E-01 0.26086998E+03</pdfrwt>
<pdfrwt beam="2">  1       21 0.47105703E-01 0.26086998E+03</pdfrwt>
<totfact> 0.32496200E+04</totfact>
</mgrwt>
</event>
<event>
 4    1  0.4429256E+000  0.2447543E+03  0.7546771E-02  0.1116666E+00
         21   -1    0    0  501  502  0.00000000000E+00  0.00000000000E+00  0.16818028950E+03  0.16818028950E+03  0.00000000000E+00 0. -1.
         21   -1    0    0  502  503 -0.00000000000E+00 -0.00000000000E+00 -0.57709355539E+03  0.57709355539E+03  0.00000000000E+00 0. -1.
          6    1    1    2  501    0  0.76435474272E+02 -0.15534883979E+03  0.26091264043E+02  0.24614101205E+03  0.17300000000E+03 0. -1.
         -6    1    1    2    0  503 -0.76435474272E+02  0.15534883979E+03 -0.43500452994E+03  0.49913283284E+03  0.17300000000E+03 0. -1.
<mgrwt>
<rscale>  2 0.24475425E+03</rscale>
<asrwt>0</asrwt>
<pdfrwt beam="1">  1       21 0.25873891E-01 0.24475425E+03</pdfrwt>
<pdfrwt beam="2">  1       21 0.88783624E-01 0.24475425E+03</pdfrwt>
<totfact> 0.14907310E+04</totfact>
</mgrwt>
</event>
<event>
 4    1  0.4429256E+000  0.1848238E+03  0.7546771E-02  0.1163215E+00
         21   -1    0    0  503  502  0.00000000000E+00  0.00000000000E+00  0.22429982271E+03  0.22429982271E+03  0.00000000000E+00 0. -1.
         21   -1    0    0  501  503 -0.00000000000E+00 -0.00000000000E+00 -0.42859938715E+03  0.42859938715E+03  0.00000000000E+00 0. -1.
          6    1    1    2  501    0  0.29559959257E+01  0.64977708377E+02 -0.36425997990E+03  0.40846685723E+03  0.17300000000E+03 0. -1.
         -6    1    1    2    0  502 -0.29559959257E+01 -0.64977708377E+02  0.15996041546E+03  0.24443235263E+03  0.17300000000E+03 0. -1.
<mgrwt>
<rscale>  2 0.18482381E+03</rscale>
<asrwt>0</asrwt>
<pdfrwt beam="1">  1       21 0.34507666E-01 0.18482381E+03</pdfrwt>
<pdfrwt beam="2">  1       21 0.65938366E-01 0.18482381E+03</pdfrwt>
<totfact> 0.17180111E+04</totfact>
</mgrwt>
</event>
<event>
 4    1  0.4429256E+000  0.1879879E+03  0.7546771E-02  0.1160289E+00
         21   -1    0    0  503  502  0.00000000000E+00  0.00000000000E+00  0.21966952718E+03  0.21966952718E+03  0.00000000000E+00 0. -1.
         21   -1    0    0  501  503 -0.00000000000E+00 -0.00000000000E+00 -0.22943079471E+03  0.22943079471E+03  0.00000000000E+00 0. -1.
          6    1    1    2  501    0  0.13601239737E+02 -0.72287258789E+02 -0.12762683707E+03  0.22721806937E+03  0.17300000000E+03 0. -1.
         -6    1    1    2    0  502 -0.13601239737E+02  0.72287258789E+02  0.11786556954E+03  0.22188225253E+03  0.17300000000E+03 0. -1.
<mgrwt>
<rscale>  2 0.18798788E+03</rscale>
<asrwt>0</asrwt>
<pdfrwt beam="1">  1       21 0.33795312E-01 0.18798788E+03</pdfrwt>
<pdfrwt beam="2">  1       21 0.35297045E-01 0.18798788E+03</pdfrwt>
<totfact> 0.65403072E+04</totfact>
</mgrwt>
</event>
<event>
 4    1  0.4429256E+000  0.1938218E+03  0.7546771E-02  0.1155059E+00
         21   -1    0    0  501  502  0.00000000000E+00  0.00000000000E+00  0.29239600085E+02  0.29239600085E+02  0.00000000000E+00 0. -1.
         21   -1    0    0  502  503 -0.00000000000E+00 -0.00000000000E+00 -0.12918630815E+04  0.12918630815E+04  0.00000000000E+00 0. -1.
          6    1    1    2  501    0  0.19821980576E+01  0.87372567309E+02 -0.58245254211E+03  0.61385491644E+03  0.17300000000E+03 0. -1.
         -6    1    1    2    0  503 -0.19821980576E+01 -0.87372567309E+02 -0.68017093930E+03  0.70724776514E+03  0.17300000000E+03 0. -1.
<mgrwt>
<rscale>  2 0.19382181E+03</rscale>
<asrwt>0</asrwt>
<pdfrwt beam="1">  1       21 0.44984005E-02 0.19382181E+03</pdfrwt>
<pdfrwt beam="2">  1       21 0.19874814E+00 0.19382181E+03</pdfrwt>
<totfact> 0.43960865E+04</totfact>
</mgrwt>
</event>
<event>
 4    1  0.4429256E+000  0.2493921E+03  0.7546771E-02  0.1113690E+00
         21   -1    0    0  501  502  0.00000000000E+00  0.00000000000E+00  0.25191520224E+03  0.25191520224E+03  0.00000000000E+00 0.  1.
         21   -1    0    0  502  503 -0.00000000000E+00 -0.00000000000E+00 -0.27380365896E+03  0.27380365896E+03  0.00000000000E+00 0. -1.
          6    1    1    2  501    0 -0.40876923531E+02  0.17491850579E+03  0.71461288340E+02  0.25942845309E+03  0.17300000000E+03 0.  1.
         -6    1    1    2    0  503  0.40876923531E+02 -0.17491850579E+03 -0.93349745060E+02  0.26629040810E+03  0.17300000000E+03 0.  1.
<mgrwt>
<rscale>  2 0.24939207E+03</rscale>
<asrwt>0</asrwt>
<pdfrwt beam="1">  1       21 0.38756185E-01 0.24939207E+03</pdfrwt>
<pdfrwt beam="2">  1       21 0.42123640E-01 0.24939207E+03</pdfrwt>
<totfact> 0.33868707E+04</totfact>
</mgrwt>
</event>
<event>
 4    1  0.4429256E+000  0.2575823E+03  0.7546771E-02  0.1108605E+00
         21   -1    0    0  501  502  0.00000000000E+00  0.00000000000E+00  0.14295370080E+03  0.14295370080E+03  0.00000000000E+00 0.  1.
         21   -1    0    0  502  503 -0.00000000000E+00 -0.00000000000E+00 -0.11794009681E+04  0.11794009681E+04  0.00000000000E+00 0.  1.
          6    1    1    2  501    0  0.12916718593E+03 -0.14048301771E+03 -0.33229182430E+01  0.25760373051E+03  0.17300000000E+03 0.  1.
         -6    1    1    2    0  503 -0.12916718593E+03  0.14048301771E+03 -0.10331243490E+04  0.10647509384E+04  0.17300000000E+03 0.  1.
<mgrwt>
<rscale>  2 0.25758230E+03</rscale>
<asrwt>0</asrwt>
<pdfrwt beam="1">  1       21 0.21992877E-01 0.25758230E+03</pdfrwt>
<pdfrwt beam="2">  1       21 0.18144630E+00 0.25758230E+03</pdfrwt>
<totfact> 0.32555862E+03</totfact>
</mgrwt>
</event>
<event>
 4    1  0.4429256E+000  0.1844469E+03  0.7546771E-02  0.1163567E+00
         21   -1    0    0  501  502  0.00000000000E+00  0.00000000000E+00  0.26262829631E+03  0.26262829631E+03  0.00000000000E+00 0.  1.
         21   -1    0    0  502  503 -0.00000000000E+00 -0.00000000000E+00 -0.13174536926E+03  0.13174536926E+03  0.00000000000E+00 0.  1.
          6    1    1    2  501    0 -0.71236258847E+01  0.63568089130E+02  0.90958716454E+02  0.20565538189E+03  0.17300000000E+03 0.  1.
         -6    1    1    2    0  503  0.71236258847E+01 -0.63568089130E+02  0.39924210595E+02  0.18871828367E+03  0.17300000000E+03 0.  1.
<mgrwt>
<rscale>  2 0.18444687E+03</rscale>
<asrwt>0</asrwt>
<pdfrwt beam="1">  1       21 0.40404353E-01 0.18444687E+03</pdfrwt>
<pdfrwt beam="2">  1       21 0.20268518E-01 0.18444687E+03</pdfrwt>
<totfact> 0.13325573E+05</totfact>
</mgrwt>
</event>
<event>
 4    1  0.4429256E+000  0.3139125E+03  0.7546771E-02  0.1078486E+00
         21   -1    0    0  503  502  0.00000000000E+00  0.00000000000E+00  0.31184143997E+03  0.31184143997E+03  0.00000000000E+00 0. -1.
         21   -1    0    0  501  503 -0.00000000000E+00 -0.00000000000E+00 -0.82306685545E+03  0.82306685545E+03  0.00000000000E+00 0. -1.
          6    1    1    2  501    0  0.19616656543E+03 -0.17358212100E+03 -0.70100936916E+03  0.76808541828E+03  0.17300000000E+03 0. -1.
         -6    1    1    2    0  502 -0.19616656543E+03  0.17358212100E+03  0.18978395368E+03  0.36682287714E+03  0.17300000000E+03 0. -1.
<mgrwt>
<rscale>  2 0.31391253E+03</rscale>
<asrwt>0</asrwt>
<pdfrwt beam="1">  1       21 0.47975606E-01 0.31391253E+03</pdfrwt>
<pdfrwt beam="2">  1       21 0.12662567E+00 0.31391253E+03</pdfrwt>
<totfact> 0.17523414E+03</totfact>
</mgrwt>
</event>
<event>
 4    1  0.4429256E+000  0.2124045E+03  0.7546771E-02  0.1139676E+00
         21   -1    0    0  503  502  0.00000000000E+00  0.00000000000E+00  0.14309096604E+03  0.14309096604E+03  0.00000000000E+00 0. -1.
         21   -1    0    0  501  503 -0.00000000000E+00 -0.00000000000E+00 -0.31570600378E+03  0.31570600378E+03  0.00000000000E+00 0. -1.
          6    1    1    2  501    0  0.46496174256E+02 -0.11412611573E+03 -0.94598677387E+02  0.23251790098E+03  0.17300000000E+03 0. -1.
         -6    1    1    2    0  502 -0.46496174256E+02  0.11412611573E+03 -0.78016360350E+02  0.22627906884E+03  0.17300000000E+03 0. -1.
<mgrwt>
<rscale>  2 0.21240448E+03</rscale>
<asrwt>0</asrwt>
<pdfrwt beam="1">  1       21 0.22013995E-01 0.21240448E+03</pdfrwt>
<pdfrwt beam="2">  1       21 0.48570154E-01 0.21240448E+03</pdfrwt>
<totfact> 0.77376471E+04</totfact>
</mgrwt>
</event>
<event>
 4    1  0.4429256E+000  0.4455121E+03  0.7546771E-02  0.1029069E+00
         21   -1    0    0  501  502  0.00000000000E+00  0.00000000000E+00  0.24035798207E+03  0.24035798207E+03  0.00000000000E+00 0. -1.
         21   -1    0    0  502  503 -0.00000000000E+00 -0.00000000000E+00 -0.88222466140E+03  0.88222466140E+03  0.00000000000E+00 0. -1.
          6    1    1    2  501    0  0.31312183011E+03  0.26553111187E+03 -0.17894967675E+03  0.48010836139E+03  0.17300000000E+03 0. -1.
         -6    1    1    2    0  503 -0.31312183011E+03 -0.26553111187E+03 -0.46291700258E+03  0.64247428209E+03  0.17300000000E+03 0. -1.
<mgrwt>
<rscale>  2 0.44551212E+03</rscale>
<asrwt>0</asrwt>
<pdfrwt beam="1">  1       21 0.36978152E-01 0.44551212E+03</pdfrwt>
<pdfrwt beam="2">  1       21 0.13572687E+00 0.44551212E+03</pdfrwt>
<totfact> 0.23578454E+03</totfact>
</mgrwt>
</event>
<event>
 4    1  0.4429256E+000  0.1847926E+03  0.7546771E-02  0.1163244E+00
         21   -1    0    0  503  502  0.00000000000E+00  0.00000000000E+00  0.11857441654E+03  0.11857441654E+03  0.00000000000E+00 0.  1.
         21   -1    0    0  501  503 -0.00000000000E+00 -0.00000000000E+00 -0.34306401025E+03  0.34306401025E+03  0.00000000000E+00 0.  1.
          6    1    1    2  501    0 -0.57814440950E+02  0.29610786614E+02 -0.20472646697E+03  0.27579201320E+03  0.17300000000E+03 0.  1.
         -6    1    1    2    0  502  0.57814440950E+02 -0.29610786614E+02 -0.19763126740E+02  0.18584641359E+03  0.17300000000E+03 0.  1.
<mgrwt>
<rscale>  2 0.18479261E+03</rscale>
<asrwt>0</asrwt>
<pdfrwt beam="1">  1       21 0.18242218E-01 0.18479261E+03</pdfrwt>
<pdfrwt beam="2">  1       21 0.52779078E-01 0.18479261E+03</pdfrwt>
<totfact> 0.93476532E+04</totfact>
</mgrwt>
</event>
<event>
 4    1  0.4429256E+000  0.2152084E+03  0.7546771E-02  0.1137507E+00
         21   -1    0    0  501  502  0.00000000000E+00  0.00000000000E+00  0.29039039217E+03  0.29039039217E+03  0.00000000000E+00 0.  1.
         21   -1    0    0  502  503 -0.00000000000E+00 -0.00000000000E+00 -0.27244266732E+03  0.27244266732E+03  0.00000000000E+00 0.  1.
          6    1    1    2  501    0 -0.12470380427E+03  0.28889363053E+02  0.19017398894E+03  0.28719467294E+03  0.17300000000E+03 0.  1.
         -6    1    1    2    0  503  0.12470380427E+03 -0.28889363053E+02 -0.17222626409E+03  0.27563838655E+03  0.17300000000E+03 0.  1.
<mgrwt>
<rscale>  2 0.21520835E+03</rscale>
<asrwt>0</asrwt>
<pdfrwt beam="1">  1       21 0.44675445E-01 0.21520835E+03</pdfrwt>
<pdfrwt beam="2">  1       21 0.41914256E-01 0.21520835E+03</pdfrwt>
<totfact> 0.26023002E+04</totfact>
</mgrwt>
</event>
<event>
 4    1  0.4429256E+000  0.2271609E+03  0.7546771E-02  0.1128654E+00
         21   -1    0    0  501  502  0.00000000000E+00  0.00000000000E+00  0.61348965711E+03  0.61348965711E+03  0.00000000000E+00 0.  1.
         21   -1    0    0  502  503 -0.00000000000E+00 -0.00000000000E+00 -0.90372296905E+02  0.90372296905E+02  0.00000000000E+00 0.  1.
          6    1    1    2  501    0  0.14426266796E+03 -0.29348746471E+02  0.35418291234E+03  0.42077024809E+03  0.17300000000E+03 0.  1.
         -6    1    1    2    0  503 -0.14426266796E+03  0.29348746471E+02  0.16893444786E+03  0.28309170592E+03  0.17300000000E+03 0.  1.
<mgrwt>
<rscale>  2 0.22716088E+03</rscale>
<asrwt>0</asrwt>
<pdfrwt beam="1">  1       21 0.94383022E-01 0.22716088E+03</pdfrwt>
<pdfrwt beam="2">  1       21 0.13903431E-01 0.22716088E+03</pdfrwt>
<totfact> 0.41613888E+04</totfact>
</mgrwt>
</event>
<event>
 4    1  0.4429256E+000  0.1857410E+03  0.7546771E-02  0.1162360E+00
         21   -1    0    0  503  502  0.00000000000E+00  0.00000000000E+00  0.18709548945E+02  0.18709548945E+02  0.00000000000E+00 0.  1.
         21   -1    0    0  501  503 -0.00000000000E+00 -0.00000000000E+00 -0.18667189070E+04  0.18667189070E+04  0.00000000000E+00 0.  1.
          6    1    1    2  501    0  0.62002999904E+02  0.26951051794E+02 -0.10280877091E+04  0.10447315774E+04  0.17300000000E+03 0. -1.
         -6    1    1    2    0  502 -0.62002999904E+02 -0.26951051794E+02 -0.81992164898E+03  0.84069687858E+03  0.17300000000E+03 0. -1.
<mgrwt>
<rscale>  2 0.18574103E+03</rscale>
<asrwt>0</asrwt>
<pdfrwt beam="1">  1       21 0.28783925E-02 0.18574103E+03</pdfrwt>
<pdfrwt beam="2">  1       21 0.28718749E+00 0.18574103E+03</pdfrwt>
<totfact> 0.27589207E+04</totfact>
</mgrwt>
</event>
<event>
 4    1  0.4429256E+000  0.2581592E+03  0.7546771E-02  0.1108254E+00
         21   -1    0    0  501  502  0.00000000000E+00  0.00000000000E+00  0.13568402646E+04  0.13568402646E+04  0.00000000000E+00 0.  1.
         21   -1    0    0  502  503 -0.00000000000E+00 -0.00000000000E+00 -0.11944409183E+03  0.11944409183E+03  0.00000000000E+00 0. -1.
          6    1    1    2  501    0 -0.11614311601E+03 -0.15240715927E+03  0.11850859155E+04  0.12128787213E+04  0.17300000000E+03 0.  1.
         -6    1    1    2    0  503  0.11614311601E+03  0.15240715927E+03  0.52310257325E+02  0.26340563512E+03  0.17300000000E+03 0. -1.
<mgrwt>
<rscale>  2 0.25815919E+03</rscale>
<asrwt>0</asrwt>
<pdfrwt beam="1">  1       21 0.20874465E+00 0.25815919E+03</pdfrwt>
<pdfrwt beam="2">  1       21 0.18376015E-01 0.25815919E+03</pdfrwt>
<totfact> 0.30140337E+03</totfact>
</mgrwt>
</event>
<event>
 4    1  0.4429256E+000  0.1914575E+03  0.7546771E-02  0.1157153E+00
         21   -1    0    0  501  502  0.00000000000E+00  0.00000000000E+00  0.30472801659E+02  0.30472801659E+02  0.00000000000E+00 0. -1.
         21   -1    0    0  502  503 -0.00000000000E+00 -0.00000000000E+00 -0.12297274301E+04  0.12297274301E+04  0.00000000000E+00 0. -1.
          6    1    1    2  501    0 -0.81986083220E+02  0.22904105707E+01 -0.69268095636E+03  0.71865351256E+03  0.17300000000E+03 0. -1.
         -6    1    1    2    0  503  0.81986083220E+02 -0.22904105707E+01 -0.50657367210E+03  0.54154671921E+03  0.17300000000E+03 0. -1.
<mgrwt>
<rscale>  2 0.19145747E+03</rscale>
<asrwt>0</asrwt>
<pdfrwt beam="1">  1       21 0.46881242E-02 0.19145747E+03</pdfrwt>
<pdfrwt beam="2">  1       21 0.18918880E+00 0.19145747E+03</pdfrwt>
<totfact> 0.47403430E+04</totfact>
</mgrwt>
</event>
<event>
 4    1  0.4429256E+000  0.1966819E+03  0.7546771E-02  0.1152569E+00
         21   -1    0    0  503  502  0.00000000000E+00  0.00000000000E+00  0.16212569682E+04  0.16212569682E+04  0.00000000000E+00 0.  1.
         21   -1    0    0  501  503 -0.00000000000E+00 -0.00000000000E+00 -0.24191786120E+02  0.24191786120E+02  0.00000000000E+00 0.  1.
          6    1    1    2  501    0  0.77373826103E+01  0.93246370193E+02  0.89483180992E+03  0.91619196716E+03  0.17300000000E+03 0.  1.
         -6    1    1    2    0  502 -0.77373826103E+01 -0.93246370193E+02  0.70223337214E+03  0.72925678714E+03  0.17300000000E+03 0.  1.
<mgrwt>
<rscale>  2 0.19668186E+03</rscale>
<asrwt>0</asrwt>
<pdfrwt beam="1">  1       21 0.24942406E+00 0.19668186E+03</pdfrwt>
<pdfrwt beam="2">  1       21 0.37218145E-02 0.19668186E+03</pdfrwt>
<totfact> 0.29528192E+04</totfact>
</mgrwt>
</event>
<event>
 4    1  0.4429256E+000  0.2518936E+03  0.7546771E-02  0.1112114E+00
         21   -1    0    0  503  502  0.00000000000E+00  0.00000000000E+00  0.98135278497E+02  0.98135278497E+02  0.00000000000E+00 0.  1.
         21   -1    0    0  501  503 -0.00000000000E+00 -0.00000000000E+00 -0.98170582860E+03  0.98170582860E+03  0.00000000000E+00 0. -1.
          6    1    1    2  501    0 -0.17857884027E+03  0.40385666777E+02 -0.75725355499E+03  0.79804971701E+03  0.17300000000E+03 0. -1.
         -6    1    1    2    0  502  0.17857884027E+03 -0.40385666777E+02 -0.12631699511E+03  0.28179139008E+03  0.17300000000E+03 0.  1.
<mgrwt>
<rscale>  2 0.25189364E+03</rscale>
<asrwt>0</asrwt>
<pdfrwt beam="1">  1       21 0.15097735E-01 0.25189364E+03</pdfrwt>
<pdfrwt beam="2">  1       21 0.15103167E+00 0.25189364E+03</pdfrwt>
<totfact> 0.10935701E+04</totfact>
</mgrwt>
</event>
<event>
 4    1  0.4429256E+000  0.2254404E+03  0.7546771E-02  0.1129891E+00
         21   -1    0    0  503  502  0.00000000000E+00  0.00000000000E+00  0.10832255063E+04  0.10832255063E+04  0.00000000000E+00 0. -1.
         21   -1    0    0  501  503 -0.00000000000E+00 -0.00000000000E+00 -0.74041007162E+02  0.74041007162E+02  0.00000000000E+00 0.  1.
          6    1    1    2  501    0 -0.14442090499E+03 -0.60791564179E+01  0.85480493032E+03  0.88403327021E+03  0.17300000000E+03 0.  1.
         -6    1    1    2    0  502  0.14442090499E+03  0.60791564179E+01  0.15437956878E+03  0.27323324321E+03  0.17300000000E+03 0. -1.
<mgrwt>
<rscale>  2 0.22544036E+03</rscale>
<asrwt>0</asrwt>
<pdfrwt beam="1">  1       21 0.16665007E+00 0.22544036E+03</pdfrwt>
<pdfrwt beam="2">  1       21 0.11390925E-01 0.22544036E+03</pdfrwt>
<totfact> 0.14180284E+04</totfact>
</mgrwt>
</event>
<event>
 4    1  0.4429256E+000  0.1896452E+03  0.7546771E-02  0.1158782E+00
         21   -1    0    0  501  502  0.00000000000E+00  0.00000000000E+00  0.20343009609E+04  0.20343009609E+04  0.00000000000E+00 0. -1.
         21   -1    0    0  502  503 -0.00000000000E+00 -0.00000000000E+00 -0.10710489527E+03  0.10710489527E+03  0.00000000000E+00 0. -1.
          6    1    1    2  501    0 -0.69297499880E+02 -0.35130373009E+02  0.19419495615E+04  0.19511876860E+04  0.17300000000E+03 0. -1.
         -6    1    1    2    0  503  0.69297499880E+02  0.35130373009E+02 -0.14753495924E+02  0.19021817011E+03  0.17300000000E+03 0. -1.
<mgrwt>
<rscale>  2 0.18964516E+03</rscale>
<asrwt>0</asrwt>
<pdfrwt beam="1">  1       21 0.31296935E+00 0.18964516E+03</pdfrwt>
<pdfrwt beam="2">  1       21 0.16477678E-01 0.18964516E+03</pdfrwt>
<totfact> 0.95350330E+02</totfact>
</mgrwt>
</event>
<event>
 4    1  0.4429256E+000  0.1848339E+03  0.7546771E-02  0.1163205E+00
         21   -1    0    0  501  502  0.00000000000E+00  0.00000000000E+00  0.56366336105E+02  0.56366336105E+02  0.00000000000E+00 0.  1.
         21   -1    0    0  502  503 -0.00000000000E+00 -0.00000000000E+00 -0.73006525609E+03  0.73006525609E+03  0.00000000000E+00 0.  1.
          6    1    1    2  501    0 -0.62393674134E+02 -0.18482425948E+02 -0.17481695460E+03  0.25441017719E+03  0.17300000000E+03 0.  1.
         -6    1    1    2    0  503  0.62393674134E+02  0.18482425948E+02 -0.49888196539E+03  0.53202141501E+03  0.17300000000E+03 0.  1.
<mgrwt>
<rscale>  2 0.18483390E+03</rscale>
<asrwt>0</asrwt>
<pdfrwt beam="1">  1       21 0.86717442E-02 0.18483390E+03</pdfrwt>
<pdfrwt beam="2">  1       21 0.11231773E+00 0.18483390E+03</pdfrwt>
<totfact> 0.64972118E+04</totfact>
</mgrwt>
</event>
<event>
 4    1  0.4429256E+000  0.2459319E+03  0.7546771E-02  0.1115903E+00
         21   -1    0    0  503  502  0.00000000000E+00  0.00000000000E+00  0.34784212855E+03  0.34784212855E+03  0.00000000000E+00 0. -1.
         21   -1    0    0  501  503 -0.00000000000E+00 -0.00000000000E+00 -0.17746957008E+03  0.17746957008E+03  0.00000000000E+00 0.  1.
          6    1    1    2  501    0 -0.22427641064E+02 -0.17335080678E+03  0.12254538139E+03  0.27477239999E+03  0.17300000000E+03 0. -1.
         -6    1    1    2    0  502  0.22427641064E+02  0.17335080678E+03  0.47827177076E+02  0.25053929864E+03  0.17300000000E+03 0.  1.
<mgrwt>
<rscale>  2 0.24593190E+03</rscale>
<asrwt>0</asrwt>
<pdfrwt beam="1">  1       21 0.53514173E-01 0.24593190E+03</pdfrwt>
<pdfrwt beam="2">  1       21 0.27303011E-01 0.24593190E+03</pdfrwt>
<totfact> 0.41226614E+04</totfact>
</mgrwt>
</event>
<event>
 4    1  0.4429256E+000  0.2252302E+03  0.7546771E-02  0.1130043E+00
         21   -1    0    0  503  502  0.00000000000E+00  0.00000000000E+00  0.48195287695E+03  0.48195287695E+03  0.00000000000E+00 0. -1.
         21   -1    0    0  501  503 -0.00000000000E+00 -0.00000000000E+00 -0.10562120941E+03  0.10562120941E+03  0.00000000000E+00 0.  1.
          6    1    1    2  501    0  0.72755601936E+02 -0.12452420121E+03  0.17090134802E+03  0.28272942022E+03  0.17300000000E+03 0.  1.
         -6    1    1    2    0  502 -0.72755601936E+02  0.12452420121E+03  0.20543031951E+03  0.30484466614E+03  0.17300000000E+03 0. -1.
<mgrwt>
<rscale>  2 0.22523023E+03</rscale>
<asrwt>0</asrwt>
<pdfrwt beam="1">  1       21 0.74146595E-01 0.22523023E+03</pdfrwt>
<pdfrwt beam="2">  1       21 0.16249417E-01 0.22523023E+03</pdfrwt>
<totfact> 0.54446213E+04</totfact>
</mgrwt>
</event>
<event>
 4    1  0.4429256E+000  0.2509453E+03  0.7546771E-02  0.1112709E+00
         21   -1    0    0  503  502  0.00000000000E+00  0.00000000000E+00  0.37278305363E+03  0.37278305363E+03  0.00000000000E+00 0. -1.
         21   -1    0    0  501  503 -0.00000000000E+00 -0.00000000000E+00 -0.16918454655E+03  0.16918454655E+03  0.00000000000E+00 0.  1.
          6    1    1    2  501    0  0.20160784812E+02 -0.18066007361E+03  0.11235021695E+03  0.27494743259E+03  0.17300000000E+03 0.  1.
         -6    1    1    2    0  502 -0.20160784812E+02  0.18066007361E+03  0.91248290132E+02  0.26702016758E+03  0.17300000000E+03 0.  1.
<mgrwt>
<rscale>  2 0.25094525E+03</rscale>
<asrwt>0</asrwt>
<pdfrwt beam="1">  1       21 0.57351239E-01 0.25094525E+03</pdfrwt>
<pdfrwt beam="2">  1       21 0.26028392E-01 0.25094525E+03</pdfrwt>
<totfact> 0.38932692E+04</totfact>
</mgrwt>
</event>
<event>
 4    1  0.4429256E+000  0.1761664E+03  0.7546771E-02  0.1171566E+00
         21   -1    0    0  501  502  0.00000000000E+00  0.00000000000E+00  0.97053881653E+03  0.97053881653E+03  0.00000000000E+00 0. -1.
         21   -1    0    0  502  503 -0.00000000000E+00 -0.00000000000E+00 -0.12975666186E+03  0.12975666186E+03  0.00000000000E+00 0. -1.
          6    1    1    2  501    0 -0.12184073263E+02  0.30937939488E+02  0.89796376314E+03  0.91508115905E+03  0.17300000000E+03 0. -1.
         -6    1    1    2    0  503  0.12184073263E+02 -0.30937939488E+02 -0.57181608473E+02  0.18521431934E+03  0.17300000000E+03 0. -1.
<mgrwt>
<rscale>  2 0.17616642E+03</rscale>
<asrwt>0</asrwt>
<pdfrwt beam="1">  1       21 0.14931366E+00 0.17616642E+03</pdfrwt>
<pdfrwt beam="2">  1       21 0.19962564E-01 0.17616642E+03</pdfrwt>
<totfact> 0.71030744E+03</totfact>
</mgrwt>
</event>
<event>
 4    1  0.4429256E+000  0.1834061E+03  0.7546771E-02  0.1164547E+00
         21   -1    0    0  503  502  0.00000000000E+00  0.00000000000E+00  0.11459893724E+04  0.11459893724E+04  0.00000000000E+00 0.  1.
         21   -1    0    0  501  503 -0.00000000000E+00 -0.00000000000E+00 -0.58600077244E+02  0.58600077244E+02  0.00000000000E+00 0.  1.
          6    1    1    2  501    0 -0.50246541360E+02 -0.34410306368E+02  0.11819023862E+03  0.21818963451E+03  0.17300000000E+03 0.  1.
         -6    1    1    2    0  502  0.50246541360E+02  0.34410306368E+02  0.96919905656E+03  0.98639981516E+03  0.17300000000E+03 0.  1.
<mgrwt>
<rscale>  2 0.18340606E+03</rscale>
<asrwt>0</asrwt>
<pdfrwt beam="1">  1       21 0.17630604E+00 0.18340606E+03</pdfrwt>
<pdfrwt beam="2">  1       21 0.90153974E-02 0.18340606E+03</pdfrwt>
<totfact> 0.18910625E+04</totfact>
</mgrwt>
</event>
<event>
 4    1  0.4429256E+000  0.2230825E+03  0.7546771E-02  0.1131606E+00
         21   -1    0    0  501  502  0.00000000000E+00  0.00000000000E+00  0.77619169897E+02  0.77619169897E+02  0.00000000000E+00 0.  1.
         21   -1    0    0  502  503 -0.00000000000E+00 -0.00000000000E+00 -0.10573354901E+04  0.10573354901E+04  0.00000000000E+00 0. -1.
          6    1    1    2  501    0  0.12250703222E+03  0.69489729171E+02 -0.13383045047E+03  0.26014685252E+03  0.17300000000E+03 0.  1.
         -6    1    1    2    0  503 -0.12250703222E+03 -0.69489729171E+02 -0.84588586974E+03  0.87480780748E+03  0.17300000000E+03 0. -1.
<mgrwt>
<rscale>  2 0.22308249E+03</rscale>
<asrwt>0</asrwt>
<pdfrwt beam="1">  1       21 0.11941412E-01 0.22308249E+03</pdfrwt>
<pdfrwt beam="2">  1       21 0.16266699E+00 0.22308249E+03</pdfrwt>
<totfact> 0.13945227E+04</totfact>
</mgrwt>
</event>
<event>
 4    1  0.4429256E+000  0.2491835E+03  0.7546771E-02  0.1113822E+00
         21   -1    0    0  503  502  0.00000000000E+00  0.00000000000E+00  0.20274526941E+03  0.20274526941E+03  0.00000000000E+00 0.  1.
         21   -1    0    0  501  503 -0.00000000000E+00 -0.00000000000E+00 -0.31099650792E+03  0.31099650792E+03  0.00000000000E+00 0. -1.
          6    1    1    2  501    0  0.17923577063E+03 -0.61617962231E+01 -0.22419546156E+02  0.25019005827E+03  0.17300000000E+03 0.  1.
         -6    1    1    2    0  502 -0.17923577063E+03  0.61617962231E+01 -0.85831692363E+02  0.26355171906E+03  0.17300000000E+03 0.  1.
<mgrwt>
<rscale>  2 0.24918353E+03</rscale>
<asrwt>0</asrwt>
<pdfrwt beam="1">  1       21 0.31191580E-01 0.24918353E+03</pdfrwt>
<pdfrwt beam="2">  1       21 0.47845617E-01 0.24918353E+03</pdfrwt>
<totfact> 0.40157713E+04</totfact>
</mgrwt>
</event>
<event>
 4    1  0.4429256E+000  0.1970239E+03  0.7546771E-02  0.1152275E+00
         21   -1    0    0  501  502  0.00000000000E+00  0.00000000000E+00  0.81327790584E+02  0.81327790584E+02  0.00000000000E+00 0.  1.
         21   -1    0    0  502  503 -0.00000000000E+00 -0.00000000000E+00 -0.71925816498E+03  0.71925816498E+03  0.00000000000E+00 0.  1.
          6    1    1    2  501    0 -0.57241108798E+02  0.74919032685E+02 -0.86799238925E+02  0.21529633966E+03  0.17300000000E+03 0.  1.
         -6    1    1    2    0  503  0.57241108798E+02 -0.74919032685E+02 -0.55113113547E+03  0.58528961590E+03  0.17300000000E+03 0.  1.
<mgrwt>
<rscale>  2 0.19702387E+03</rscale>
<asrwt>0</asrwt>
<pdfrwt beam="1">  1       21 0.12511967E-01 0.19702387E+03</pdfrwt>
<pdfrwt beam="2">  1       21 0.11065511E+00 0.19702387E+03</pdfrwt>
<totfact> 0.34967596E+04</totfact>
</mgrwt>
</event>
<event>
 4    1  0.4429256E+000  0.2108783E+03  0.7546771E-02  0.1140872E+00
         21   -1    0    0  503  502  0.00000000000E+00  0.00000000000E+00  0.10968294976E+03  0.10968294976E+03  0.00000000000E+00 0.  1.
         21   -1    0    0  501  503 -0.00000000000E+00 -0.00000000000E+00 -0.13000012028E+04  0.13000012028E+04  0.00000000000E+00 0. -1.
          6    1    1    2  501    0  0.94517544469E+02 -0.74880512635E+02 -0.11798487842E+04  0.11985461238E+04  0.17300000000E+03 0. -1.
         -6    1    1    2    0  502 -0.94517544469E+02  0.74880512635E+02 -0.10469468822E+02  0.21113802870E+03  0.17300000000E+03 0.  1.
<mgrwt>
<rscale>  2 0.21087830E+03</rscale>
<asrwt>0</asrwt>
<pdfrwt beam="1">  1       21 0.16874299E-01 0.21087830E+03</pdfrwt>
<pdfrwt beam="2">  1       21 0.20000019E+00 0.21087830E+03</pdfrwt>
<totfact> 0.41753917E+03</totfact>
</mgrwt>
</event>
<event>
 4    1  0.4429256E+000  0.3522250E+03  0.7546771E-02  0.1061705E+00
         21   -1    0    0  503  502  0.00000000000E+00  0.00000000000E+00  0.11576559664E+04  0.11576559664E+04  0.00000000000E+00 0. -1.
         21   -1    0    0  501  503 -0.00000000000E+00 -0.00000000000E+00 -0.11892879761E+03  0.11892879761E+03  0.00000000000E+00 0.  1.
          6    1    1    2  501    0  0.12303718963E+03  0.28106106504E+03  0.31863292560E+03  0.47496253914E+03  0.17300000000E+03 0.  1.
         -6    1    1    2    0  502 -0.12303718963E+03 -0.28106106504E+03  0.72009424320E+03  0.80162222487E+03  0.17300000000E+03 0. -1.
<mgrwt>
<rscale>  2 0.35222503E+03</rscale>
<asrwt>0</asrwt>
<pdfrwt beam="1">  1       21 0.17810091E+00 0.35222503E+03</pdfrwt>
<pdfrwt beam="2">  1       21 0.18296739E-01 0.35222503E+03</pdfrwt>
<totfact> 0.45967828E+03</totfact>
</mgrwt>
</event>
<event>
 4    1  0.4429256E+000  0.1844305E+03  0.7546771E-02  0.1163583E+00
         21   -1    0    0  503  502  0.00000000000E+00  0.00000000000E+00  0.41468427121E+02  0.41468427121E+02  0.00000000000E+00 0.  1.
         21   -1    0    0  501  503 -0.00000000000E+00 -0.00000000000E+00 -0.11364974985E+04  0.11364974985E+04  0.00000000000E+00 0.  1.
          6    1    1    2  501    0  0.39553944323E+02 -0.50210646574E+02 -0.85820621252E+03  0.87779982157E+03  0.17300000000E+03 0.  1.
         -6    1    1    2    0  502 -0.39553944323E+02  0.50210646574E+02 -0.23682285885E+03  0.30016610404E+03  0.17300000000E+03 0.  1.
<mgrwt>
<rscale>  2 0.18443054E+03</rscale>
<asrwt>0</asrwt>
<pdfrwt beam="1">  1       21 0.63797589E-02 0.18443054E+03</pdfrwt>
<pdfrwt beam="2">  1       21 0.17484574E+00 0.18443054E+03</pdfrwt>
<totfact> 0.35222704E+04</totfact>
</mgrwt>
</event>
<event>
 4    1  0.4429256E+000  0.1748165E+03  0.7546771E-02  0.1172916E+00
         21   -1    0    0  503  502  0.00000000000E+00  0.00000000000E+00  0.11875535450E+03  0.11875535450E+03  0.00000000000E+00 0. -1.
         21   -1    0    0  501  503 -0.00000000000E+00 -0.00000000000E+00 -0.96613214409E+03  0.96613214409E+03  0.00000000000E+00 0. -1.
          6    1    1    2  501    0  0.35365271180E+01 -0.24885528443E+02 -0.88830543456E+03  0.90534376985E+03  0.17300000000E+03 0. -1.
         -6    1    1    2    0  502 -0.35365271180E+01  0.24885528443E+02  0.40928644964E+02  0.17954372874E+03  0.17300000000E+03 0. -1.
<mgrwt>
<rscale>  2 0.17481647E+03</rscale>
<asrwt>0</asrwt>
<pdfrwt beam="1">  1       21 0.18270055E-01 0.17481647E+03</pdfrwt>
<pdfrwt beam="2">  1       21 0.14863571E+00 0.17481647E+03</pdfrwt>
<totfact> 0.84820120E+03</totfact>
</mgrwt>
</event>
<event>
 4    1  0.4429256E+000  0.1868942E+03  0.7546771E-02  0.1161293E+00
         21   -1    0    0  501  502  0.00000000000E+00  0.00000000000E+00  0.73952430333E+03  0.73952430333E+03  0.00000000000E+00 0. -1.
         21   -1    0    0  502  503 -0.00000000000E+00 -0.00000000000E+00 -0.48310986663E+02  0.48310986663E+02  0.00000000000E+00 0. -1.
          6    1    1    2  501    0 -0.46754679477E+01 -0.70559046111E+02  0.40446780393E+03  0.44555992123E+03  0.17300000000E+03 0. -1.
         -6    1    1    2    0  503  0.46754679477E+01  0.70559046111E+02  0.28674551274E+03  0.34227536877E+03  0.17300000000E+03 0. -1.
<mgrwt>
<rscale>  2 0.18689419E+03</rscale>
<asrwt>0</asrwt>
<pdfrwt beam="1">  1       21 0.11377296E+00 0.18689419E+03</pdfrwt>
<pdfrwt beam="2">  1       21 0.74324600E-02 0.18689419E+03</pdfrwt>
<totfact> 0.82272786E+04</totfact>
</mgrwt>
</event>
<event>
 4    1  0.4429256E+000  0.2222266E+03  0.7546771E-02  0.1132234E+00
         21   -1    0    0  503  502  0.00000000000E+00  0.00000000000E+00  0.89443972021E+02  0.89443972021E+02  0.00000000000E+00 0. -1.
         21   -1    0    0  501  503 -0.00000000000E+00 -0.00000000000E+00 -0.58608708398E+03  0.58608708398E+03  0.00000000000E+00 0. -1.
          6    1    1    2  501    0  0.10296942380E+03 -0.94090074624E+02 -0.32962396964E+03  0.39753818149E+03  0.17300000000E+03 0. -1.
         -6    1    1    2    0  502 -0.10296942380E+03  0.94090074624E+02 -0.16701914232E+03  0.27799287452E+03  0.17300000000E+03 0. -1.
<mgrwt>
<rscale>  2 0.22222656E+03</rscale>
<asrwt>0</asrwt>
<pdfrwt beam="1">  1       21 0.13760611E-01 0.22222656E+03</pdfrwt>
<pdfrwt beam="2">  1       21 0.90167246E-01 0.22222656E+03</pdfrwt>
<totfact> 0.47289592E+04</totfact>
</mgrwt>
</event>
<event>
 4    1  0.4429256E+000  0.2446193E+03  0.7546771E-02  0.1116753E+00
         21   -1    0    0  503  502  0.00000000000E+00  0.00000000000E+00  0.89474872854E+02  0.89474872854E+02  0.00000000000E+00 0.  1.
         21   -1    0    0  501  503 -0.00000000000E+00 -0.00000000000E+00 -0.76069691757E+03  0.76069691757E+03  0.00000000000E+00 0. -1.
          6    1    1    2  501    0  0.83482050731E+02  0.15146064551E+03 -0.48337882926E+03  0.54175056300E+03  0.17300000000E+03 0. -1.
         -6    1    1    2    0  502 -0.83482050731E+02 -0.15146064551E+03 -0.18784321545E+03  0.30842122742E+03  0.17300000000E+03 0.  1.
<mgrwt>
<rscale>  2 0.24461926E+03</rscale>
<asrwt>0</asrwt>
<pdfrwt beam="1">  1       21 0.13765365E-01 0.24461926E+03</pdfrwt>
<pdfrwt beam="2">  1       21 0.11703029E+00 0.24461926E+03</pdfrwt>
<totfact> 0.25014511E+04</totfact>
</mgrwt>
</event>
<event>
 4    1  0.4429256E+000  0.1988080E+03  0.7546771E-02  0.1150749E+00
         21   -1    0    0  503  502  0.00000000000E+00  0.00000000000E+00  0.36114468035E+03  0.36114468035E+03  0.00000000000E+00 0. -1.
         21   -1    0    0  501  503 -0.00000000000E+00 -0.00000000000E+00 -0.10951873205E+03  0.10951873205E+03  0.00000000000E+00 0.  1.
          6    1    1    2  501    0 -0.90088287389E+02  0.38467299920E+02  0.13201541761E+03  0.23864765487E+03  0.17300000000E+03 0.  1.
         -6    1    1    2    0  502  0.90088287389E+02 -0.38467299920E+02  0.11961053069E+03  0.23201575753E+03  0.17300000000E+03 0. -1.
<mgrwt>
<rscale>  2 0.19880803E+03</rscale>
<asrwt>0</asrwt>
<pdfrwt beam="1">  1       21 0.55560719E-01 0.19880803E+03</pdfrwt>
<pdfrwt beam="2">  1       21 0.16849036E-01 0.19880803E+03</pdfrwt>
<totfact> 0.96572809E+04</totfact>
</mgrwt>
</event>
<event>
 4    1  0.4429256E+000  0.2194388E+03  0.7546771E-02  0.1134302E+00
         21   -1    0    0  503  502  0.00000000000E+00  0.00000000000E+00  0.67577002316E+02  0.67577002316E+02  0.00000000000E+00 0.  1.
         21   -1    0    0  501  503 -0.00000000000E+00 -0.00000000000E+00 -0.77330815812E+03  0.77330815812E+03  0.00000000000E+00 0.  1.
          6    1    1    2  501    0  0.77915445113E+02  0.11024318313E+03 -0.47069657168E+03  0.51933480396E+03  0.17300000000E+03 0.  1.
         -6    1    1    2    0  502 -0.77915445113E+02 -0.11024318313E+03 -0.23503458413E+03  0.32155035648E+03  0.17300000000E+03 0.  1.
<mgrwt>
<rscale>  2 0.21943878E+03</rscale>
<asrwt>0</asrwt>
<pdfrwt beam="1">  1       21 0.10396463E-01 0.21943878E+03</pdfrwt>
<pdfrwt beam="2">  1       21 0.11897048E+00 0.21943878E+03</pdfrwt>
<totfact> 0.40281355E+04</totfact>
</mgrwt>
</event>
<event>
 4    1  0.4429256E+000  0.1858525E+03  0.7546771E-02  0.1162256E+00
         21   -1    0    0  503  502  0.00000000000E+00  0.00000000000E+00  0.27647590648E+02  0.27647590648E+02  0.00000000000E+00 0.  1.
         21   -1    0    0  501  503 -0.00000000000E+00 -0.00000000000E+00 -0.12898200070E+04  0.12898200070E+04  0.00000000000E+00 0.  1.
          6    1    1    2  501    0  0.10826712246E+02 -0.67044209631E+02 -0.74778988304E+03  0.77053932600E+03  0.17300000000E+03 0.  1.
         -6    1    1    2    0  502 -0.10826712246E+02  0.67044209631E+02 -0.51438253327E+03  0.54692827160E+03  0.17300000000E+03 0.  1.
<mgrwt>
<rscale>  2 0.18585248E+03</rscale>
<asrwt>0</asrwt>
<pdfrwt beam="1">  1       21 0.42534768E-02 0.18585248E+03</pdfrwt>
<pdfrwt beam="2">  1       21 0.19843378E+00 0.18585248E+03</pdfrwt>
<totfact> 0.48786650E+04</totfact>
</mgrwt>
</event>
<event>
 4    1  0.4429256E+000  0.1819284E+03  0.7546771E-02  0.1165950E+00
         21   -1    0    0  501  502  0.00000000000E+00  0.00000000000E+00  0.30922540168E+03  0.30922540168E+03  0.00000000000E+00 0.  1.
         21   -1    0    0  502  503 -0.00000000000E+00 -0.00000000000E+00 -0.11107682632E+03  0.11107682632E+03  0.00000000000E+00 0. -1.
          6    1    1    2  501    0 -0.56193997124E+02  0.33421150112E+01  0.13916186410E+03  0.22905012435E+03  0.17300000000E+03 0.  1.
         -6    1    1    2    0  503  0.56193997124E+02 -0.33421150112E+01  0.58986711264E+02  0.19125210365E+03  0.17300000000E+03 0. -1.
<mgrwt>
<rscale>  2 0.18192838E+03</rscale>
<asrwt>0</asrwt>
<pdfrwt beam="1">  1       21 0.47573138E-01 0.18192838E+03</pdfrwt>
<pdfrwt beam="2">  1       21 0.17088743E-01 0.18192838E+03</pdfrwt>
<totfact> 0.13104105E+05</totfact>
</mgrwt>
</event>
<event>
 4    1  0.4429256E+000  0.2886443E+03  0.7546771E-02  0.1091059E+00
         21   -1    0    0  501  502  0.00000000000E+00  0.00000000000E+00  0.18022629618E+03  0.18022629618E+03  0.00000000000E+00 0.  1.
         21   -1    0    0  502  503 -0.00000000000E+00 -0.00000000000E+00 -0.88931977531E+03  0.88931977531E+03  0.00000000000E+00 0. -1.
          6    1    1    2  501    0  0.18924456857E+03  0.13256324245E+03  0.16025820413E+02  0.28908882182E+03  0.17300000000E+03 0.  1.
         -6    1    1    2    0  503 -0.18924456857E+03 -0.13256324245E+03 -0.72511929955E+03  0.78045724967E+03  0.17300000000E+03 0. -1.
<mgrwt>
<rscale>  2 0.28864428E+03</rscale>
<asrwt>0</asrwt>
<pdfrwt beam="1">  1       21 0.27727123E-01 0.28864428E+03</pdfrwt>
<pdfrwt beam="2">  1       21 0.13681842E+00 0.28864428E+03</pdfrwt>
<totfact> 0.44087898E+03</totfact>
</mgrwt>
</event>
<event>
 4    1  0.4429256E+000  0.1988805E+03  0.7546771E-02  0.1150687E+00
         21   -1    0    0  501  502  0.00000000000E+00  0.00000000000E+00  0.20525779013E+03  0.20525779013E+03  0.00000000000E+00 0. -1.
         21   -1    0    0  502  503 -0.00000000000E+00 -0.00000000000E+00 -0.19335031351E+03  0.19335031351E+03  0.00000000000E+00 0.  1.
          6    1    1    2  501    0 -0.33097209078E+02  0.92352760629E+02 -0.55926636614E+01  0.19895913030E+03  0.17300000000E+03 0.  1.
         -6    1    1    2    0  503  0.33097209078E+02 -0.92352760629E+02  0.17500140286E+02  0.19964897334E+03  0.17300000000E+03 0. -1.
<mgrwt>
<rscale>  2 0.19888051E+03</rscale>
<asrwt>0</asrwt>
<pdfrwt beam="1">  1       21 0.31578121E-01 0.19888051E+03</pdfrwt>
<pdfrwt beam="2">  1       21 0.29746202E-01 0.19888051E+03</pdfrwt>
<totfact> 0.10418358E+05</totfact>
</mgrwt>
</event>
<event>
 4    1  0.4429256E+000  0.3850139E+03  0.7546771E-02  0.1049096E+00
         21   -1    0    0  501  502  0.00000000000E+00  0.00000000000E+00  0.10920690785E+04  0.10920690785E+04  0.00000000000E+00 0.  1.
         21   -1    0    0  502  503 -0.00000000000E+00 -0.00000000000E+00 -0.20762765341E+03  0.20762765341E+03  0.00000000000E+00 0. -1.
          6    1    1    2  501    0  0.32085434103E+03  0.12393209349E+03  0.82460630780E+03  0.91006111598E+03  0.17300000000E+03 0.  1.
         -6    1    1    2    0  503 -0.32085434103E+03 -0.12393209349E+03  0.59835117315E+02  0.38963561595E+03  0.17300000000E+03 0. -1.
<mgrwt>
<rscale>  2 0.38501386E+03</rscale>
<asrwt>0</asrwt>
<pdfrwt beam="1">  1       21 0.16801062E+00 0.38501386E+03</pdfrwt>
<pdfrwt beam="2">  1       21 0.31942717E-01 0.38501386E+03</pdfrwt>
<totfact> 0.18193066E+03</totfact>
</mgrwt>
</event>
<event>
 4    1  0.4429256E+000  0.1907679E+03  0.7546771E-02  0.1157771E+00
         21   -1    0    0  501  502  0.00000000000E+00  0.00000000000E+00  0.47518453424E+03  0.47518453424E+03  0.00000000000E+00 0.  1.
         21   -1    0    0  502  503 -0.00000000000E+00 -0.00000000000E+00 -0.76638411284E+02  0.76638411284E+02  0.00000000000E+00 0.  1.
          6    1    1    2  501    0 -0.76187480062E+02  0.25668537546E+02  0.20649955331E+03  0.28113070173E+03  0.17300000000E+03 0. -1.
         -6    1    1    2    0  503  0.76187480062E+02 -0.25668537546E+02  0.19204656964E+03  0.27069224379E+03  0.17300000000E+03 0. -1.
<mgrwt>
<rscale>  2 0.19076794E+03</rscale>
<asrwt>0</asrwt>
<pdfrwt beam="1">  1       21 0.73105312E-01 0.19076794E+03</pdfrwt>
<pdfrwt beam="2">  1       21 0.11790525E-01 0.19076794E+03</pdfrwt>
<totfact> 0.10200877E+05</totfact>
</mgrwt>
</event>
<event>
 4    1  0.4429256E+000  0.1847282E+03  0.7546771E-02  0.1163304E+00
         21   -1    0    0  503  502  0.00000000000E+00  0.00000000000E+00  0.62946586008E+02  0.62946586008E+02  0.00000000000E+00 0. -1.
         21   -1    0    0  501  503 -0.00000000000E+00 -0.00000000000E+00 -0.76249002812E+03  0.76249002812E+03  0.00000000000E+00 0. -1.
          6    1    1    2  501    0 -0.28346564462E+02  0.58240703821E+02 -0.57164980875E+03  0.60075619942E+03  0.17300000000E+03 0. -1.
         -6    1    1    2    0  502  0.28346564462E+02 -0.58240703821E+02 -0.12789363336E+03  0.22468041471E+03  0.17300000000E+03 0. -1.
<mgrwt>
<rscale>  2 0.18472820E+03</rscale>
<asrwt>0</asrwt>
<pdfrwt beam="1">  1       21 0.96840900E-02 0.18472820E+03</pdfrwt>
<pdfrwt beam="2">  1       21 0.11730616E+00 0.18472820E+03</pdfrwt>
<totfact> 0.48158851E+04</totfact>
</mgrwt>
</event>
<event>
 4    1  0.4429256E+000  0.1864054E+03  0.7546771E-02  0.1161744E+00
         21   -1    0    0  503  502  0.00000000000E+00  0.00000000000E+00  0.18639019050E+03  0.18639019050E+03  0.00000000000E+00 0.  1.
         21   -1    0    0  501  503 -0.00000000000E+00 -0.00000000000E+00 -0.19146212515E+03  0.19146212515E+03  0.00000000000E+00 0.  1.
          6    1    1    2  501    0 -0.47468749560E+02  0.50642653591E+02 -0.33193279293E+02  0.18933767279E+03  0.17300000000E+03 0. -1.
         -6    1    1    2    0  502  0.47468749560E+02 -0.50642653591E+02  0.28121344636E+02  0.18851464286E+03  0.17300000000E+03 0. -1.
<mgrwt>
<rscale>  2 0.18640537E+03</rscale>
<asrwt>0</asrwt>
<pdfrwt beam="1">  1       21 0.28675414E-01 0.18640537E+03</pdfrwt>
<pdfrwt beam="2">  1       21 0.29455712E-01 0.18640537E+03</pdfrwt>
<totfact> 0.12874629E+05</totfact>
</mgrwt>
</event>
<event>
 4    1  0.4429256E+000  0.2646400E+03  0.7546771E-02  0.1104387E+00
         21   -1    0    0  503  502  0.00000000000E+00  0.00000000000E+00  0.36464253993E+03  0.36464253993E+03  0.00000000000E+00 0. -1.
         21   -1    0    0  501  503 -0.00000000000E+00 -0.00000000000E+00 -0.22762319044E+03  0.22762319044E+03  0.00000000000E+00 0.  1.
          6    1    1    2  501    0 -0.12961084230E+03  0.15266413776E+03 -0.48537493041E+02  0.26905426521E+03  0.17300000000E+03 0. -1.
         -6    1    1    2    0  502  0.12961084230E+03 -0.15266413776E+03  0.18555684253E+03  0.32321146516E+03  0.17300000000E+03 0.  1.
<mgrwt>
<rscale>  2 0.26463996E+03</rscale>
<asrwt>0</asrwt>
<pdfrwt beam="1">  1       21 0.56098852E-01 0.26463996E+03</pdfrwt>
<pdfrwt beam="2">  1       21 0.35018952E-01 0.26463996E+03</pdfrwt>
<totfact> 0.22656165E+04</totfact>
</mgrwt>
</event>
<event>
 4    1  0.4429256E+000  0.2315242E+03  0.7546771E-02  0.1125572E+00
         21   -1    0    0  503  502  0.00000000000E+00  0.00000000000E+00  0.18974961438E+03  0.18974961438E+03  0.00000000000E+00 0. -1.
         21   -1    0    0  501  503 -0.00000000000E+00 -0.00000000000E+00 -0.57290181423E+03  0.57290181423E+03  0.00000000000E+00 0. -1.
          6    1    1    2  501    0 -0.10950924520E+03 -0.10808417711E+03 -0.46306921243E+03  0.51772247356E+03  0.17300000000E+03 0. -1.
         -6    1    1    2    0  502  0.10950924520E+03  0.10808417711E+03  0.79917012577E+02  0.24492895506E+03  0.17300000000E+03 0. -1.
<mgrwt>
<rscale>  2 0.23152422E+03</rscale>
<asrwt>0</asrwt>
<pdfrwt beam="1">  1       21 0.29192249E-01 0.23152422E+03</pdfrwt>
<pdfrwt beam="2">  1       21 0.88138739E-01 0.23152422E+03</pdfrwt>
<totfact> 0.12086385E+04</totfact>
</mgrwt>
</event>
<event>
 4    1  0.4429256E+000  0.2414461E+03  0.7546771E-02  0.1118833E+00
         21   -1    0    0  501  502  0.00000000000E+00  0.00000000000E+00  0.37351370179E+03  0.37351370179E+03  0.00000000000E+00 0. -1.
         21   -1    0    0  502  503 -0.00000000000E+00 -0.00000000000E+00 -0.31728998693E+03  0.31728998693E+03  0.00000000000E+00 0. -1.
          6    1    1    2  501    0 -0.34666780356E+02  0.16481935466E+03  0.27431805400E+03  0.36544028251E+03  0.17300000000E+03 0. -1.
         -6    1    1    2    0  503  0.34666780356E+02 -0.16481935466E+03 -0.21809433914E+03  0.32536340621E+03  0.17300000000E+03 0. -1.
<mgrwt>
<rscale>  2 0.24144607E+03</rscale>
<asrwt>0</asrwt>
<pdfrwt beam="1">  1       21 0.57463646E-01 0.24144607E+03</pdfrwt>
<pdfrwt beam="2">  1       21 0.48813844E-01 0.24144607E+03</pdfrwt>
<totfact> 0.11043343E+04</totfact>
</mgrwt>
</event>
<event>
 4    1  0.4429256E+000  0.1777303E+03  0.7546771E-02  0.1170018E+00
         21   -1    0    0  501  502  0.00000000000E+00  0.00000000000E+00  0.96304504209E+02  0.96304504209E+02  0.00000000000E+00 0. -1.
         21   -1    0    0  502  503 -0.00000000000E+00 -0.00000000000E+00 -0.32817243002E+03  0.32817243002E+03  0.00000000000E+00 0. -1.
          6    1    1    2  501    0  0.28614236071E+02  0.28987908029E+02 -0.12077013844E+03  0.21488019838E+03  0.17300000000E+03 0. -1.
         -6    1    1    2    0  503 -0.28614236071E+02 -0.28987908029E+02 -0.11109778737E+03  0.20959673584E+03  0.17300000000E+03 0. -1.
<mgrwt>
<rscale>  2 0.17773034E+03</rscale>
<asrwt>0</asrwt>
<pdfrwt beam="1">  1       21 0.14816077E-01 0.17773034E+03</pdfrwt>
<pdfrwt beam="2">  1       21 0.50488067E-01 0.17773034E+03</pdfrwt>
<totfact> 0.15053518E+05</totfact>
</mgrwt>
</event>
<event>
 4    1  0.4429256E+000  0.2192168E+03  0.7546771E-02  0.1134468E+00
         21   -1    0    0  503  502  0.00000000000E+00  0.00000000000E+00  0.86570859663E+02  0.86570859663E+02  0.00000000000E+00 0.  1.
         21   -1    0    0  501  503 -0.00000000000E+00 -0.00000000000E+00 -0.55763554833E+03  0.55763554833E+03  0.00000000000E+00 0.  1.
          6    1    1    2  501    0 -0.11532364663E+03  0.69480043273E+02 -0.25722562250E+03  0.33796603491E+03  0.17300000000E+03 0.  1.
         -6    1    1    2    0  502  0.11532364663E+03 -0.69480043273E+02 -0.21383906616E+03  0.30624037308E+03  0.17300000000E+03 0.  1.
<mgrwt>
<rscale>  2 0.21921683E+03</rscale>
<asrwt>0</asrwt>
<pdfrwt beam="1">  1       21 0.13318594E-01 0.21921683E+03</pdfrwt>
<pdfrwt beam="2">  1       21 0.85790084E-01 0.21921683E+03</pdfrwt>
<totfact> 0.56368439E+04</totfact>
</mgrwt>
</event>
<event>
 4    1  0.4429256E+000  0.2147337E+03  0.7546771E-02  0.1137871E+00
         21   -1    0    0  501  502  0.00000000000E+00  0.00000000000E+00  0.53210731282E+03  0.53210731282E+03  0.00000000000E+00 0. -1.
         21   -1    0    0  502  503 -0.00000000000E+00 -0.00000000000E+00 -0.11571521546E+03  0.11571521546E+03  0.00000000000E+00 0. -1.
          6    1    1    2  501    0 -0.12594232726E+03 -0.17891103263E+02  0.37051490223E+03  0.42824275143E+03  0.17300000000E+03 0. -1.
         -6    1    1    2    0  503  0.12594232726E+03  0.17891103263E+02  0.45877195132E+02  0.21957977686E+03  0.17300000000E+03 0. -1.
<mgrwt>
<rscale>  2 0.21473370E+03</rscale>
<asrwt>0</asrwt>
<pdfrwt beam="1">  1       21 0.81862662E-01 0.21473370E+03</pdfrwt>
<pdfrwt beam="2">  1       21 0.17802341E-01 0.21473370E+03</pdfrwt>
<totfact> 0.36975913E+04</totfact>
</mgrwt>
</event>
<event>
 4    1  0.4429256E+000  0.2558328E+03  0.7546771E-02  0.1109673E+00
         21   -1    0    0  503  502  0.00000000000E+00  0.00000000000E+00  0.28063002380E+03  0.28063002380E+03  0.00000000000E+00 0. -1.
         21   -1    0    0  501  503 -0.00000000000E+00 -0.00000000000E+00 -0.23448302517E+03  0.23448302517E+03  0.00000000000E+00 0. -1.
          6    1    1    2  501    0 -0.12957514074E+03 -0.13686387509E+03  0.41925337303E+02  0.25924538821E+03  0.17300000000E+03 0. -1.
         -6    1    1    2    0  502  0.12957514074E+03  0.13686387509E+03  0.42216613242E+01  0.25586766076E+03  0.17300000000E+03 0. -1.
<mgrwt>
<rscale>  2 0.25583283E+03</rscale>
<asrwt>0</asrwt>
<pdfrwt beam="1">  1       21 0.43173850E-01 0.25583283E+03</pdfrwt>
<pdfrwt beam="2">  1       21 0.36074312E-01 0.25583283E+03</pdfrwt>
<totfact> 0.37103442E+04</totfact>
</mgrwt>
</event>
<event>
 4    1  0.4429256E+000  0.3028021E+03  0.7546771E-02  0.1083848E+00
         21   -1    0    0  503  502  0.00000000000E+00  0.00000000000E+00  0.60991392234E+02  0.60991392234E+02  0.00000000000E+00 0. -1.
         21   -1    0    0  501  503 -0.00000000000E+00 -0.00000000000E+00 -0.16453484574E+04  0.16453484574E+04  0.00000000000E+00 0. -1.
          6    1    1    2  501    0  0.23069725440E+03  0.92406147767E+02 -0.54150653586E+03  0.62041796212E+03  0.17300000000E+03 0. -1.
         -6    1    1    2    0  502 -0.23069725440E+03 -0.92406147767E+02 -0.10428505293E+04  0.10859218876E+04  0.17300000000E+03 0. -1.
<mgrwt>
<rscale>  2 0.30280211E+03</rscale>
<asrwt>0</asrwt>
<pdfrwt beam="1">  1       21 0.93832918E-02 0.30280211E+03</pdfrwt>
<pdfrwt beam="2">  1       21 0.25313051E+00 0.30280211E+03</pdfrwt>
<totfact> 0.52829733E+03</totfact>
</mgrwt>
</event>
<event>
 4    1  0.4429256E+000  0.3114763E+03  0.7546771E-02  0.1079640E+00
         21   -1    0    0  503  502  0.00000000000E+00  0.00000000000E+00  0.59945034334E+03  0.59945034334E+03  0.00000000000E+00 0. -1.
         21   -1    0    0  501  503 -0.00000000000E+00 -0.00000000000E+00 -0.14234960558E+04  0.14234960558E+04  0.00000000000E+00 0.  1.
          6    1    1    2  501    0 -0.17259561475E+03 -0.19313006754E+03 -0.13642620169E+04  0.13993671141E+04  0.17300000000E+03 0.  1.
         -6    1    1    2    0  502  0.17259561475E+03  0.19313006754E+03  0.54021630442E+03  0.62357928508E+03  0.17300000000E+03 0. -1.
<mgrwt>
<rscale>  2 0.31147627E+03</rscale>
<asrwt>0</asrwt>
<pdfrwt beam="1">  1       21 0.92223131E-01 0.31147627E+03</pdfrwt>
<pdfrwt beam="2">  1       21 0.21899939E+00 0.31147627E+03</pdfrwt>
<totfact> 0.88338475E+01</totfact>
</mgrwt>
</event>
<event>
 4    1  0.4429256E+000  0.1963708E+03  0.7546771E-02  0.1152838E+00
         21   -1    0    0  501  502  0.00000000000E+00  0.00000000000E+00  0.31020767967E+03  0.31020767967E+03  0.00000000000E+00 0. -1.
         21   -1    0    0  502  503 -0.00000000000E+00 -0.00000000000E+00 -0.13763971254E+03  0.13763971254E+03  0.00000000000E+00 0. -1.
          6    1    1    2  501    0 -0.79626026116E+02  0.47876632532E+02  0.15597257852E+03  0.25077663613E+03  0.17300000000E+03 0. -1.
         -6    1    1    2    0  503  0.79626026116E+02 -0.47876632532E+02  0.16595388617E+02  0.19707075608E+03  0.17300000000E+03 0. -1.
<mgrwt>
<rscale>  2 0.19637076E+03</rscale>
<asrwt>0</asrwt>
<pdfrwt beam="1">  1       21 0.47724258E-01 0.19637076E+03</pdfrwt>
<pdfrwt beam="2">  1       21 0.21175341E-01 0.19637076E+03</pdfrwt>
<totfact> 0.86934076E+04</totfact>
</mgrwt>
</event>
<event>
 4    1  0.4429256E+000  0.2191658E+03  0.7546771E-02  0.1134507E+00
         21   -1    0    0  503  502  0.00000000000E+00  0.00000000000E+00  0.42658631077E+02  0.42658631077E+02  0.00000000000E+00 0.  1.
         21   -1    0    0  501  503 -0.00000000000E+00 -0.00000000000E+00 -0.11260064038E+04  0.11260064038E+04  0.00000000000E+00 0. -1.
          6    1    1    2  501    0  0.12145991399E+03 -0.57897630134E+02 -0.54299488738E+03  0.58555708006E+03  0.17300000000E+03 0. -1.
         -6    1    1    2    0  502 -0.12145991399E+03  0.57897630134E+02 -0.54035288539E+03  0.58310795486E+03  0.17300000000E+03 0.  1.
<mgrwt>
<rscale>  2 0.21916580E+03</rscale>
<asrwt>0</asrwt>
<pdfrwt beam="1">  1       21 0.65628652E-02 0.21916580E+03</pdfrwt>
<pdfrwt beam="2">  1       21 0.17323178E+00 0.21916580E+03</pdfrwt>
<totfact> 0.33676791E+04</totfact>
</mgrwt>
</event>
<event>
 4    1  0.4429256E+000  0.1740085E+03  0.7546771E-02  0.1173731E+00
         21   -1    0    0  501  502  0.00000000000E+00  0.00000000000E+00  0.28769885901E+03  0.28769885901E+03  0.00000000000E+00 0. -1.
         21   -1    0    0  502  503 -0.00000000000E+00 -0.00000000000E+00 -0.11807037066E+03  0.11807037066E+03  0.00000000000E+00 0. -1.
          6    1    1    2  501    0 -0.13715062061E+02 -0.12721688511E+02  0.17947676411E+02  0.17493159627E+03  0.17300000000E+03 0. -1.
         -6    1    1    2    0  503  0.13715062061E+02  0.12721688511E+02  0.15168081194E+03  0.23083763341E+03  0.17300000000E+03 0. -1.
<mgrwt>
<rscale>  2 0.17400846E+03</rscale>
<asrwt>0</asrwt>
<pdfrwt beam="1">  1       21 0.44261363E-01 0.17400846E+03</pdfrwt>
<pdfrwt beam="2">  1       21 0.18164672E-01 0.17400846E+03</pdfrwt>
<totfact> 0.13619721E+05</totfact>
</mgrwt>
</event>
<event>
 4    1  0.4429256E+000  0.3342781E+03  0.7546771E-02  0.1069259E+00
         21   -1    0    0  503  502  0.00000000000E+00  0.00000000000E+00  0.97185586525E+02  0.97185586525E+02  0.00000000000E+00 0.  1.
         21   -1    0    0  501  503 -0.00000000000E+00 -0.00000000000E+00 -0.13591194668E+04  0.13591194668E+04  0.00000000000E+00 0. -1.
          6    1    1    2  501    0  0.16131203648E+03  0.23620181438E+03 -0.91673978126E+03  0.97578363215E+03  0.17300000000E+03 0. -1.
         -6    1    1    2    0  502 -0.16131203648E+03 -0.23620181438E+03 -0.34519409906E+03  0.48052142122E+03  0.17300000000E+03 0.  1.
<mgrwt>
<rscale>  2 0.33427813E+03</rscale>
<asrwt>0</asrwt>
<pdfrwt beam="1">  1       21 0.14951630E-01 0.33427813E+03</pdfrwt>
<pdfrwt beam="2">  1       21 0.20909529E+00 0.33427813E+03</pdfrwt>
<totfact> 0.41832321E+03</totfact>
</mgrwt>
</event>
<event>
 4    1  0.4429256E+000  0.1746422E+03  0.7546771E-02  0.1173091E+00
         21   -1    0    0  503  502  0.00000000000E+00  0.00000000000E+00  0.29147266903E+03  0.29147266903E+03  0.00000000000E+00 0.  1.
         21   -1    0    0  501  503 -0.00000000000E+00 -0.00000000000E+00 -0.14034266555E+03  0.14034266555E+03  0.00000000000E+00 0.  1.
          6    1    1    2  501    0  0.13278298498E+02  0.19864271338E+02 -0.33332847433E+02  0.17779477272E+03  0.17300000000E+03 0.  1.
         -6    1    1    2    0  502 -0.13278298498E+02 -0.19864271338E+02  0.18446285091E+03  0.25402056187E+03  0.17300000000E+03 0.  1.
<mgrwt>
<rscale>  2 0.17464221E+03</rscale>
<asrwt>0</asrwt>
<pdfrwt beam="1">  1       21 0.44841949E-01 0.17464221E+03</pdfrwt>
<pdfrwt beam="2">  1       21 0.21591179E-01 0.17464221E+03</pdfrwt>
<totfact> 0.96113882E+04</totfact>
</mgrwt>
</event>
<event>
 4    1  0.4429256E+000  0.2952898E+03  0.7546771E-02  0.1087619E+00
         21   -1    0    0  503  502  0.00000000000E+00  0.00000000000E+00  0.10389726392E+03  0.10389726392E+03  0.00000000000E+00 0.  1.
         21   -1    0    0  501  503 -0.00000000000E+00 -0.00000000000E+00 -0.89707736334E+03  0.89707736334E+03  0.00000000000E+00 0.  1.
          6    1    1    2  501    0 -0.23924654595E+03  0.53079497618E+01 -0.26952275492E+03  0.39979819847E+03  0.17300000000E+03 0.  1.
         -6    1    1    2    0  502  0.23924654595E+03 -0.53079497618E+01 -0.52365734450E+03  0.60117642879E+03  0.17300000000E+03 0.  1.
<mgrwt>
<rscale>  2 0.29528983E+03</rscale>
<asrwt>0</asrwt>
<pdfrwt beam="1">  1       21 0.15984195E-01 0.29528983E+03</pdfrwt>
<pdfrwt beam="2">  1       21 0.13801190E+00 0.29528983E+03</pdfrwt>
<totfact> 0.12205371E+04</totfact>
</mgrwt>
</event>
<event>
 4    1  0.4429256E+000  0.1733266E+03  0.7546771E-02  0.1174422E+00
         21   -1    0    0  503  502  0.00000000000E+00  0.00000000000E+00  0.46962927584E+03  0.46962927584E+03  0.00000000000E+00 0.  1.
         21   -1    0    0  501  503 -0.00000000000E+00 -0.00000000000E+00 -0.10035307582E+03  0.10035307582E+03  0.00000000000E+00 0.  1.
          6    1    1    2  501    0 -0.17982068895E+00  0.10633955587E+02  0.13038337456E+02  0.17381631566E+03  0.17300000000E+03 0.  1.
         -6    1    1    2    0  502  0.17982068895E+00 -0.10633955587E+02  0.35623786257E+03  0.39616603600E+03  0.17300000000E+03 0.  1.
<mgrwt>
<rscale>  2 0.17332661E+03</rscale>
<asrwt>0</asrwt>
<pdfrwt beam="1">  1       21 0.72250656E-01 0.17332661E+03</pdfrwt>
<pdfrwt beam="2">  1       21 0.15438935E-01 0.17332661E+03</pdfrwt>
<totfact> 0.64866815E+04</totfact>
</mgrwt>
</event>
<event>
 4    1  0.4429256E+000  0.1869101E+03  0.7546771E-02  0.1161278E+00
         21   -1    0    0  503  502  0.00000000000E+00  0.00000000000E+00  0.37284287373E+03  0.37284287373E+03  0.00000000000E+00 0. -1.
         21   -1    0    0  501  503 -0.00000000000E+00 -0.00000000000E+00 -0.27168289948E+03  0.27168289948E+03  0.00000000000E+00 0.  1.
          6    1    1    2  501    0 -0.66688970297E+02 -0.23642262400E+02 -0.21025646612E+03  0.28132393584E+03  0.17300000000E+03 0.  1.
         -6    1    1    2    0  502  0.66688970297E+02  0.23642262400E+02  0.31141644038E+03  0.36320183737E+03  0.17300000000E+03 0. -1.
<mgrwt>
<rscale>  2 0.18691007E+03</rscale>
<asrwt>0</asrwt>
<pdfrwt beam="1">  1       21 0.57360442E-01 0.18691007E+03</pdfrwt>
<pdfrwt beam="2">  1       21 0.41797369E-01 0.18691007E+03</pdfrwt>
<totfact> 0.15776916E+04</totfact>
</mgrwt>
</event>
<event>
 4    1  0.4429256E+000  0.2110718E+03  0.7546771E-02  0.1140720E+00
         21   -1    0    0  503  502  0.00000000000E+00  0.00000000000E+00  0.14842112686E+03  0.14842112686E+03  0.00000000000E+00 0. -1.
         21   -1    0    0  501  503 -0.00000000000E+00 -0.00000000000E+00 -0.13953019617E+04  0.13953019617E+04  0.00000000000E+00 0. -1.
          6    1    1    2  501    0 -0.12011438000E+03  0.13958796311E+02 -0.13072558101E+04  0.13241861898E+04  0.17300000000E+03 0. -1.
         -6    1    1    2    0  502  0.12011438000E+03 -0.13958796311E+02  0.60374975246E+02  0.21953689875E+03  0.17300000000E+03 0. -1.
<mgrwt>
<rscale>  2 0.21107182E+03</rscale>
<asrwt>0</asrwt>
<pdfrwt beam="1">  1       21 0.22834019E-01 0.21107182E+03</pdfrwt>
<pdfrwt beam="2">  1       21 0.21466185E+00 0.21107182E+03</pdfrwt>
<totfact> 0.19155895E+03</totfact>
</mgrwt>
</event>
<event>
 4    1  0.4429256E+000  0.1848490E+03  0.7546771E-02  0.1163191E+00
         21   -1    0    0  501  502  0.00000000000E+00  0.00000000000E+00  0.88758752810E+03  0.88758752810E+03  0.00000000000E+00 0.  1.
         21   -1    0    0  502  503 -0.00000000000E+00 -0.00000000000E+00 -0.17608896035E+03  0.17608896035E+03  0.00000000000E+00 0.  1.
          6    1    1    2  501    0 -0.57064537076E+02  0.31365535131E+02  0.82587126752E+03  0.84630521013E+03  0.17300000000E+03 0.  1.
         -6    1    1    2    0  503  0.57064537076E+02 -0.31365535131E+02 -0.11437269976E+03  0.21737127832E+03  0.17300000000E+03 0.  1.
<mgrwt>
<rscale>  2 0.18484901E+03</rscale>
<asrwt>0</asrwt>
<pdfrwt beam="1">  1       21 0.13655192E+00 0.18484901E+03</pdfrwt>
<pdfrwt beam="2">  1       21 0.27090610E-01 0.18484901E+03</pdfrwt>
<totfact> 0.49870260E+03</totfact>
</mgrwt>
</event>
<event>
 4    1  0.4429256E+000  0.1882898E+03  0.7546771E-02  0.1160013E+00
         21   -1    0    0  503  502  0.00000000000E+00  0.00000000000E+00  0.11335841527E+04  0.11335841527E+04  0.00000000000E+00 0. -1.
         21   -1    0    0  501  503 -0.00000000000E+00 -0.00000000000E+00 -0.40894667766E+02  0.40894667766E+02  0.00000000000E+00 0.  1.
          6    1    1    2  501    0  0.15803972005E+02 -0.72624200951E+02  0.26153293441E+03  0.32226156438E+03  0.17300000000E+03 0.  1.
         -6    1    1    2    0  502 -0.15803972005E+02  0.72624200951E+02  0.83115655055E+03  0.85221725612E+03  0.17300000000E+03 0. -1.
<mgrwt>
<rscale>  2 0.18828978E+03</rscale>
<asrwt>0</asrwt>
<pdfrwt beam="1">  1       21 0.17439754E+00 0.18828978E+03</pdfrwt>
<pdfrwt beam="2">  1       21 0.62914882E-02 0.18828978E+03</pdfrwt>
<totfact> 0.36243504E+04</totfact>
</mgrwt>
</event>
<event>
 4    1  0.4429256E+000  0.2552544E+03  0.7546771E-02  0.1110028E+00
         21   -1    0    0  503  502  0.00000000000E+00  0.00000000000E+00  0.55761827746E+03  0.55761827746E+03  0.00000000000E+00 0.  1.
         21   -1    0    0  501  503 -0.00000000000E+00 -0.00000000000E+00 -0.14319316289E+03  0.14319316289E+03  0.00000000000E+00 0. -1.
          6    1    1    2  501    0 -0.15166425316E+03 -0.11056123910E+03  0.56903097168E+02  0.26152016317E+03  0.17300000000E+03 0. -1.
         -6    1    1    2    0  502  0.15166425316E+03  0.11056123910E+03  0.35752201740E+03  0.43929127718E+03  0.17300000000E+03 0. -1.
<mgrwt>
<rscale>  2 0.25525445E+03</rscale>
<asrwt>0</asrwt>
<pdfrwt beam="1">  1       21 0.85787426E-01 0.25525445E+03</pdfrwt>
<pdfrwt beam="2">  1       21 0.22029718E-01 0.25525445E+03</pdfrwt>
<totfact> 0.21838638E+04</totfact>
</mgrwt>
</event>
<event>
 4    1  0.4429256E+000  0.2141349E+03  0.7546771E-02  0.1138333E+00
         21   -1    0    0  503  502  0.00000000000E+00  0.00000000000E+00  0.74109375705E+03  0.74109375705E+03  0.00000000000E+00 0.  1.
         21   -1    0    0  501  503 -0.00000000000E+00 -0.00000000000E+00 -0.63943736841E+02  0.63943736841E+02  0.00000000000E+00 0.  1.
          6    1    1    2  501    0  0.69154725097E+02 -0.10555753006E+03  0.41100844357E+03  0.46344547558E+03  0.17300000000E+03 0.  1.
         -6    1    1    2    0  502 -0.69154725097E+02  0.10555753006E+03  0.26614157665E+03  0.34159201831E+03  0.17300000000E+03 0.  1.
<mgrwt>
<rscale>  2 0.21413493E+03</rscale>
<asrwt>0</asrwt>
<pdfrwt beam="1">  1       21 0.11401442E+00 0.21413493E+03</pdfrwt>
<pdfrwt beam="2">  1       21 0.98374985E-02 0.21413493E+03</pdfrwt>
<totfact> 0.49453132E+04</totfact>
</mgrwt>
</event>
<event>
 4    1  0.4429256E+000  0.3069787E+03  0.7546771E-02  0.1081803E+00
         21   -1    0    0  503  502  0.00000000000E+00  0.00000000000E+00  0.41429940084E+03  0.41429940084E+03  0.00000000000E+00 0. -1.
         21   -1    0    0  501  503 -0.00000000000E+00 -0.00000000000E+00 -0.24575139327E+03  0.24575139327E+03  0.00000000000E+00 0. -1.
          6    1    1    2  501    0 -0.12141210167E+03  0.22263427327E+03 -0.57670628864E+01  0.30703285993E+03  0.17300000000E+03 0. -1.
         -6    1    1    2    0  502  0.12141210167E+03 -0.22263427327E+03  0.17431507046E+03  0.35301793418E+03  0.17300000000E+03 0. -1.
<mgrwt>
<rscale>  2 0.30697869E+03</rscale>
<asrwt>0</asrwt>
<pdfrwt beam="1">  1       21 0.63738370E-01 0.30697869E+03</pdfrwt>
<pdfrwt beam="2">  1       21 0.37807907E-01 0.30697869E+03</pdfrwt>
<totfact> 0.14459812E+04</totfact>
</mgrwt>
</event>
<event>
 4    1  0.4429256E+000  0.1984991E+03  0.7546771E-02  0.1151011E+00
         21   -1    0    0  501  502  0.00000000000E+00  0.00000000000E+00  0.20502017173E+03  0.20502017173E+03  0.00000000000E+00 0. -1.
         21   -1    0    0  502  503 -0.00000000000E+00 -0.00000000000E+00 -0.24071237055E+03  0.24071237055E+03  0.00000000000E+00 0. -1.
          6    1    1    2  501    0  0.82021889004E+02 -0.52395802969E+02  0.82219810389E+02  0.21485345626E+03  0.17300000000E+03 0. -1.
         -6    1    1    2    0  503 -0.82021889004E+02  0.52395802969E+02 -0.11791200921E+03  0.23087908602E+03  0.17300000000E+03 0. -1.
<mgrwt>
<rscale>  2 0.19849914E+03</rscale>
<asrwt>0</asrwt>
<pdfrwt beam="1">  1       21 0.31541565E-01 0.19849914E+03</pdfrwt>
<pdfrwt beam="2">  1       21 0.37032672E-01 0.19849914E+03</pdfrwt>
<totfact> 0.67769484E+04</totfact>
</mgrwt>
</event>
<event>
 4    1  0.4429256E+000  0.2186898E+03  0.7546771E-02  0.1134864E+00
         21   -1    0    0  501  502  0.00000000000E+00  0.00000000000E+00  0.23747996583E+03  0.23747996583E+03  0.00000000000E+00 0. -1.
         21   -1    0    0  502  503 -0.00000000000E+00 -0.00000000000E+00 -0.26552662608E+03  0.26552662608E+03  0.00000000000E+00 0. -1.
          6    1    1    2  501    0 -0.68420614860E+02 -0.11495580853E+03  0.10958710265E+03  0.24461102085E+03  0.17300000000E+03 0. -1.
         -6    1    1    2    0  503  0.68420614860E+02  0.11495580853E+03 -0.13763376290E+03  0.25839557106E+03  0.17300000000E+03 0. -1.
<mgrwt>
<rscale>  2 0.21868978E+03</rscale>
<asrwt>0</asrwt>
<pdfrwt beam="1">  1       21 0.36535379E-01 0.21868978E+03</pdfrwt>
<pdfrwt beam="2">  1       21 0.40850250E-01 0.21868978E+03</pdfrwt>
<totfact> 0.41169527E+04</totfact>
</mgrwt>
</event>
<event>
 4    1  0.4429256E+000  0.2077074E+03  0.7546771E-02  0.1143394E+00
         21   -1    0    0  503  502  0.00000000000E+00  0.00000000000E+00  0.33190898551E+02  0.33190898551E+02  0.00000000000E+00 0. -1.
         21   -1    0    0  501  503 -0.00000000000E+00 -0.00000000000E+00 -0.16023444321E+04  0.16023444321E+04  0.00000000000E+00 0. -1.
          6    1    1    2  501    0  0.65423204476E+02  0.94515416368E+02 -0.11399041167E+04  0.11586732736E+04  0.17300000000E+03 0. -1.
         -6    1    1    2    0  502 -0.65423204476E+02 -0.94515416368E+02 -0.42924941682E+03  0.47686205705E+03  0.17300000000E+03 0. -1.
<mgrwt>
<rscale>  2 0.20770739E+03</rscale>
<asrwt>0</asrwt>
<pdfrwt beam="1">  1       21 0.51062920E-02 0.20770739E+03</pdfrwt>
<pdfrwt beam="2">  1       21 0.24651453E+00 0.20770739E+03</pdfrwt>
<totfact> 0.17862104E+04</totfact>
</mgrwt>
</event>
<event>
 4    1  0.4429256E+000  0.2159621E+03  0.7546771E-02  0.1136930E+00
         21   -1    0    0  503  502  0.00000000000E+00  0.00000000000E+00  0.98469798311E+02  0.98469798311E+02  0.00000000000E+00 0.  1.
         21   -1    0    0  501  503 -0.00000000000E+00 -0.00000000000E+00 -0.10124086073E+04  0.10124086073E+04  0.00000000000E+00 0.  1.
          6    1    1    2  501    0 -0.10711094579E+03  0.72373250059E+02 -0.86215881896E+03  0.88879551705E+03  0.17300000000E+03 0.  1.
         -6    1    1    2    0  502  0.10711094579E+03 -0.72373250059E+02 -0.51779990063E+02  0.22208288859E+03  0.17300000000E+03 0.  1.
<mgrwt>
<rscale>  2 0.21596213E+03</rscale>
<asrwt>0</asrwt>
<pdfrwt beam="1">  1       21 0.15149200E-01 0.21596213E+03</pdfrwt>
<pdfrwt beam="2">  1       21 0.15575517E+00 0.21596213E+03</pdfrwt>
<totfact> 0.10244584E+04</totfact>
</mgrwt>
</event>
<event>
 4    1  0.4429256E+000  0.1933743E+03  0.7546771E-02  0.1155453E+00
         21   -1    0    0  503  502  0.00000000000E+00  0.00000000000E+00  0.16914989575E+03  0.16914989575E+03  0.00000000000E+00 0.  1.
         21   -1    0    0  501  503 -0.00000000000E+00 -0.00000000000E+00 -0.56779841227E+03  0.56779841227E+03  0.00000000000E+00 0.  1.
          6    1    1    2  501    0  0.40542272311E-01 -0.86398079255E+02 -0.48726684998E+03  0.52423526477E+03  0.17300000000E+03 0.  1.
         -6    1    1    2    0  502 -0.40542272311E-01  0.86398079255E+02  0.88618333459E+02  0.21271304325E+03  0.17300000000E+03 0.  1.
<mgrwt>
<rscale>  2 0.19337433E+03</rscale>
<asrwt>0</asrwt>
<pdfrwt beam="1">  1       21 0.26023061E-01 0.19337433E+03</pdfrwt>
<pdfrwt beam="2">  1       21 0.87353603E-01 0.19337433E+03</pdfrwt>
<totfact> 0.15782006E+04</totfact>
</mgrwt>
</event>
<event>
 4    1  0.4429256E+000  0.3995071E+03  0.7546771E-02  0.1043950E+00
         21   -1    0    0  503  502  0.00000000000E+00  0.00000000000E+00  0.91503948974E+03  0.91503948974E+03  0.00000000000E+00 0. -1.
         21   -1    0    0  501  503 -0.00000000000E+00 -0.00000000000E+00 -0.27333739440E+03  0.27333739440E+03  0.00000000000E+00 0. -1.
          6    1    1    2  501    0 -0.12105100245E+03  0.33915131805E+03 -0.36585992731E+02  0.40117888353E+03  0.17300000000E+03 0. -1.
         -6    1    1    2    0  502  0.12105100245E+03 -0.33915131805E+03  0.67828808807E+03  0.78719800060E+03  0.17300000000E+03 0. -1.
<mgrwt>
<rscale>  2 0.39950715E+03</rscale>
<asrwt>0</asrwt>
<pdfrwt beam="1">  1       21 0.14077530E+00 0.39950715E+03</pdfrwt>
<pdfrwt beam="2">  1       21 0.42051907E-01 0.39950715E+03</pdfrwt>
<totfact> 0.16760489E+03</totfact>
</mgrwt>
</event>
<event>
 4    1  0.4429256E+000  0.1743361E+03  0.7546771E-02  0.1173400E+00
         21   -1    0    0  503  502  0.00000000000E+00  0.00000000000E+00  0.15931052486E+03  0.15931052486E+03  0.00000000000E+00 0.  1.
         21   -1    0    0  501  503 -0.00000000000E+00 -0.00000000000E+00 -0.20036555127E+03  0.20036555127E+03  0.00000000000E+00 0.  1.
          6    1    1    2  501    0 -0.21395221892E+02  0.25142727913E+01 -0.59864841336E+02  0.18432817559E+03  0.17300000000E+03 0.  1.
         -6    1    1    2    0  502  0.21395221892E+02 -0.25142727913E+01  0.18809814922E+02  0.17534790054E+03  0.17300000000E+03 0.  1.
<mgrwt>
<rscale>  2 0.17433610E+03</rscale>
<asrwt>0</asrwt>
<pdfrwt beam="1">  1       21 0.24509312E-01 0.17433610E+03</pdfrwt>
<pdfrwt beam="2">  1       21 0.30825469E-01 0.17433610E+03</pdfrwt>
<totfact> 0.15989639E+05</totfact>
</mgrwt>
</event>
<event>
 4    1  0.4429256E+000  0.2011486E+03  0.7546771E-02  0.1148774E+00
         21   -1    0    0  501  502  0.00000000000E+00  0.00000000000E+00  0.60884791437E+03  0.60884791437E+03  0.00000000000E+00 0.  1.
         21   -1    0    0  502  503 -0.00000000000E+00 -0.00000000000E+00 -0.10446322821E+03  0.10446322821E+03  0.00000000000E+00 0.  1.
          6    1    1    2  501    0 -0.61055191872E+02  0.82486464915E+02  0.37058712226E+02  0.20453386395E+03  0.17300000000E+03 0.  1.
         -6    1    1    2    0  503  0.61055191872E+02 -0.82486464915E+02  0.46732597393E+03  0.50877727864E+03  0.17300000000E+03 0.  1.
<mgrwt>
<rscale>  2 0.20114859E+03</rscale>
<asrwt>0</asrwt>
<pdfrwt beam="1">  1       21 0.93668908E-01 0.20114859E+03</pdfrwt>
<pdfrwt beam="2">  1       21 0.16071266E-01 0.20114859E+03</pdfrwt>
<totfact> 0.32955923E+04</totfact>
</mgrwt>
</event>
<event>
 4    1  0.4429256E+000  0.1777439E+03  0.7546771E-02  0.1170005E+00
         21   -1    0    0  501  502  0.00000000000E+00  0.00000000000E+00  0.72883681011E+02  0.72883681011E+02  0.00000000000E+00 0.  1.
         21   -1    0    0  502  503 -0.00000000000E+00 -0.00000000000E+00 -0.84310848814E+03  0.84310848814E+03  0.00000000000E+00 0.  1.
          6    1    1    2  501    0  0.12969599340E+02  0.38674062480E+02 -0.65870141355E+02  0.18955677022E+03  0.17300000000E+03 0.  1.
         -6    1    1    2    0  503 -0.12969599340E+02 -0.38674062480E+02 -0.70435466577E+03  0.72643539892E+03  0.17300000000E+03 0.  1.
<mgrwt>
<rscale>  2 0.17774390E+03</rscale>
<asrwt>0</asrwt>
<pdfrwt beam="1">  1       21 0.11212874E-01 0.17774390E+03</pdfrwt>
<pdfrwt beam="2">  1       21 0.12970900E+00 0.17774390E+03</pdfrwt>
<totfact> 0.29053226E+04</totfact>
</mgrwt>
</event>
<event>
 4    1  0.4429256E+000  0.2327636E+03  0.7546771E-02  0.1124710E+00
         21   -1    0    0  501  502  0.00000000000E+00  0.00000000000E+00  0.66942614329E+02  0.66942614329E+02  0.00000000000E+00 0. -1.
         21   -1    0    0  502  503 -0.00000000000E+00 -0.00000000000E+00 -0.14973720711E+04  0.14973720711E+04  0.00000000000E+00 0. -1.
          6    1    1    2  501    0 -0.68343652632E+02 -0.13992514550E+03 -0.18501969989E+03  0.29734019329E+03  0.17300000000E+03 0. -1.
         -6    1    1    2    0  503  0.68343652632E+02  0.13992514550E+03 -0.12454097569E+04  0.12669744922E+04  0.17300000000E+03 0. -1.
<mgrwt>
<rscale>  2 0.23276362E+03</rscale>
<asrwt>0</asrwt>
<pdfrwt beam="1">  1       21 0.10298865E-01 0.23276362E+03</pdfrwt>
<pdfrwt beam="2">  1       21 0.23036491E+00 0.23276362E+03</pdfrwt>
<totfact> 0.64658889E+03</totfact>
</mgrwt>
</event>
<event>
 4    1  0.4429256E+000  0.2471187E+03  0.7546771E-02  0.1115139E+00
         21   -1    0    0  501  502  0.00000000000E+00  0.00000000000E+00  0.59646621884E+02  0.59646621884E+02  0.00000000000E+00 0. -1.
         21   -1    0    0  502  503 -0.00000000000E+00 -0.00000000000E+00 -0.10812375810E+04  0.10812375810E+04  0.00000000000E+00 0. -1.
          6    1    1    2  501    0 -0.12474203613E+03  0.12481212083E+03 -0.37934612905E+03  0.45273737057E+03  0.17300000000E+03 0. -1.
         -6    1    1    2    0  503  0.12474203613E+03 -0.12481212083E+03 -0.64224483009E+03  0.68814683234E+03  0.17300000000E+03 0. -1.
<mgrwt>
<rscale>  2 0.24711868E+03</rscale>
<asrwt>0</asrwt>
<pdfrwt beam="1">  1       21 0.91764039E-02 0.24711868E+03</pdfrwt>
<pdfrwt beam="2">  1       21 0.16634423E+00 0.24711868E+03</pdfrwt>
<totfact> 0.20656762E+04</totfact>
</mgrwt>
</event>
<event>
 4    1  0.4429256E+000  0.2157097E+03  0.7546771E-02  0.1137123E+00
         21   -1    0    0  501  502  0.00000000000E+00  0.00000000000E+00  0.42247262841E+02  0.42247262841E+02  0.00000000000E+00 0. -1.
         21   -1    0    0  502  503 -0.00000000000E+00 -0.00000000000E+00 -0.12259146535E+04  0.12259146535E+04  0.00000000000E+00 0. -1.
          6    1    1    2  501    0 -0.12677875605E+03 -0.22996282764E+02 -0.38974429461E+03  0.44545627977E+03  0.17300000000E+03 0. -1.
         -6    1    1    2    0  503  0.12677875605E+03  0.22996282764E+02 -0.79392309608E+03  0.82270563661E+03  0.17300000000E+03 0. -1.
<mgrwt>
<rscale>  2 0.21570972E+03</rscale>
<asrwt>0</asrwt>
<pdfrwt beam="1">  1       21 0.64995784E-02 0.21570972E+03</pdfrwt>
<pdfrwt beam="2">  1       21 0.18860227E+00 0.21570972E+03</pdfrwt>
<totfact> 0.26956449E+04</totfact>
</mgrwt>
</event>
<event>
 4    1  0.4429256E+000  0.2411775E+03  0.7546771E-02  0.1119011E+00
         21   -1    0    0  501  502  0.00000000000E+00  0.00000000000E+00  0.53081572185E+02  0.53081572185E+02  0.00000000000E+00 0.  1.
         21   -1    0    0  502  503 -0.00000000000E+00 -0.00000000000E+00 -0.10991581256E+04  0.10991581256E+04  0.00000000000E+00 0. -1.
          6    1    1    2  501    0  0.16612627520E+03 -0.25291321165E+02 -0.49117646005E+03  0.54719366329E+03  0.17300000000E+03 0. -1.
         -6    1    1    2    0  503 -0.16612627520E+03  0.25291321165E+02 -0.55490009332E+03  0.60504603445E+03  0.17300000000E+03 0.  1.
<mgrwt>
<rscale>  2 0.24117751E+03</rscale>
<asrwt>0</asrwt>
<pdfrwt beam="1">  1       21 0.81663967E-02 0.24117751E+03</pdfrwt>
<pdfrwt beam="2">  1       21 0.16910123E+00 0.24117751E+03</pdfrwt>
<totfact> 0.24312420E+04</totfact>
</mgrwt>
</event>
<event>
 4    1  0.4429256E+000  0.1794699E+03  0.7546771E-02  0.1168317E+00
         21   -1    0    0  503  502  0.00000000000E+00  0.00000000000E+00  0.25311879489E+04  0.25311879489E+04  0.00000000000E+00 0.  1.
         21   -1    0    0  501  503 -0.00000000000E+00 -0.00000000000E+00 -0.12725751420E+02  0.12725751420E+02  0.00000000000E+00 0.  1.
          6    1    1    2  501    0  0.20803008113E+02 -0.42984557860E+02  0.12496405141E+04  0.12624622180E+04  0.17300000000E+03 0. -1.
         -6    1    1    2    0  502 -0.20803008113E+02  0.42984557860E+02  0.12688216834E+04  0.12814514823E+04  0.17300000000E+03 0. -1.
<mgrwt>
<rscale>  2 0.17946988E+03</rscale>
<asrwt>0</asrwt>
<pdfrwt beam="1">  1       21 0.38941313E+00 0.17946988E+03</pdfrwt>
<pdfrwt beam="2">  1       21 0.19578099E-02 0.17946988E+03</pdfrwt>
<totfact> 0.13130142E+04</totfact>
</mgrwt>
</event>
<event>
 4    1  0.4429256E+000  0.2232774E+03  0.7546771E-02  0.1131463E+00
         21   -1    0    0  503  502  0.00000000000E+00  0.00000000000E+00  0.73628298199E+02  0.73628298199E+02  0.00000000000E+00 0. -1.
         21   -1    0    0  501  503 -0.00000000000E+00 -0.00000000000E+00 -0.77258451528E+03  0.77258451528E+03  0.00000000000E+00 0.  1.
          6    1    1    2  501    0 -0.13467665898E+03 -0.42261220059E+02 -0.49823294827E+03  0.54597516788E+03  0.17300000000E+03 0.  1.
         -6    1    1    2    0  502  0.13467665898E+03  0.42261220059E+02 -0.20072326881E+03  0.30023764560E+03  0.17300000000E+03 0. -1.
<mgrwt>
<rscale>  2 0.22327744E+03</rscale>
<asrwt>0</asrwt>
<pdfrwt beam="1">  1       21 0.11327431E-01 0.22327744E+03</pdfrwt>
<pdfrwt beam="2">  1       21 0.11885915E+00 0.22327744E+03</pdfrwt>
<totfact> 0.34584169E+04</totfact>
</mgrwt>
</event>
<event>
 4    1  0.4429256E+000  0.2328684E+03  0.7546771E-02  0.1124637E+00
         21   -1    0    0  503  502  0.00000000000E+00  0.00000000000E+00  0.21350070402E+03  0.21350070402E+03  0.00000000000E+00 0. -1.
         21   -1    0    0  501  503 -0.00000000000E+00 -0.00000000000E+00 -0.26748917803E+03  0.26748917803E+03  0.00000000000E+00 0.  1.
          6    1    1    2  501    0 -0.16547433764E+02 -0.15499957179E+03 -0.81014687076E+02  0.24655844001E+03  0.17300000000E+03 0.  1.
         -6    1    1    2    0  502  0.16547433764E+02  0.15499957179E+03  0.27026213065E+02  0.23443144203E+03  0.17300000000E+03 0. -1.
<mgrwt>
<rscale>  2 0.23286839E+03</rscale>
<asrwt>0</asrwt>
<pdfrwt beam="1">  1       21 0.32846262E-01 0.23286839E+03</pdfrwt>
<pdfrwt beam="2">  1       21 0.41152181E-01 0.23286839E+03</pdfrwt>
<totfact> 0.49809095E+04</totfact>
</mgrwt>
</event>
<event>
 4    1  0.4429256E+000  0.2523412E+03  0.7546771E-02  0.1111834E+00
         21   -1    0    0  503  502  0.00000000000E+00  0.00000000000E+00  0.31642453266E+03  0.31642453266E+03  0.00000000000E+00 0. -1.
         21   -1    0    0  501  503 -0.00000000000E+00 -0.00000000000E+00 -0.20135450304E+03  0.20135450304E+03  0.00000000000E+00 0.  1.
          6    1    1    2  501    0  0.11445842351E+03  0.14368831991E+03  0.51259205630E+02  0.25749479636E+03  0.17300000000E+03 0.  1.
         -6    1    1    2    0  502 -0.11445842351E+03 -0.14368831991E+03  0.63810823995E+02  0.26028423934E+03  0.17300000000E+03 0. -1.
<mgrwt>
<rscale>  2 0.25234117E+03</rscale>
<asrwt>0</asrwt>
<pdfrwt beam="1">  1       21 0.48680697E-01 0.25234117E+03</pdfrwt>
<pdfrwt beam="2">  1       21 0.30977616E-01 0.25234117E+03</pdfrwt>
<totfact> 0.39210209E+04</totfact>
</mgrwt>
</event>
<event>
 4    1  0.4429256E+000  0.2242766E+03  0.7546771E-02  0.1130734E+00
         21   -1    0    0  503  502  0.00000000000E+00  0.00000000000E+00  0.14628636201E+04  0.14628636201E+04  0.00000000000E+00 0. -1.
         21   -1    0    0  501  503 -0.00000000000E+00 -0.00000000000E+00 -0.35951105876E+02  0.35951105876E+02  0.00000000000E+00 0. -1.
          6    1    1    2  501    0  0.79072019261E+02  0.11882167639E+03  0.55702326338E+03  0.60047888468E+03  0.17300000000E+03 0. -1.
         -6    1    1    2    0  502 -0.79072019261E+02 -0.11882167639E+03  0.86988925087E+03  0.89833584131E+03  0.17300000000E+03 0. -1.
<mgrwt>
<rscale>  2 0.22427656E+03</rscale>
<asrwt>0</asrwt>
<pdfrwt beam="1">  1       21 0.22505590E+00 0.22427656E+03</pdfrwt>
<pdfrwt beam="2">  1       21 0.55309405E-02 0.22427656E+03</pdfrwt>
<totfact> 0.20717339E+04</totfact>
</mgrwt>
</event>
<event>
 4    1  0.4429256E+000  0.2207402E+03  0.7546771E-02  0.1133332E+00
         21   -1    0    0  503  502  0.00000000000E+00  0.00000000000E+00  0.42451960399E+02  0.42451960399E+02  0.00000000000E+00 0.  1.
         21   -1    0    0  501  503 -0.00000000000E+00 -0.00000000000E+00 -0.13320910022E+04  0.13320910022E+04  0.00000000000E+00 0.  1.
          6    1    1    2  501    0  0.10943654180E+03  0.82588508492E+02 -0.90045279080E+03  0.92711458131E+03  0.17300000000E+03 0.  1.
         -6    1    1    2    0  502 -0.10943654180E+03 -0.82588508492E+02 -0.38918625099E+03  0.44742838128E+03  0.17300000000E+03 0.  1.
<mgrwt>
<rscale>  2 0.22074016E+03</rscale>
<asrwt>0</asrwt>
<pdfrwt beam="1">  1       21 0.65310724E-02 0.22074016E+03</pdfrwt>
<pdfrwt beam="2">  1       21 0.20493703E+00 0.22074016E+03</pdfrwt>
<totfact> 0.20852191E+04</totfact>
</mgrwt>
</event>
<event>
 4    1  0.4429256E+000  0.1908297E+03  0.7546771E-02  0.1157715E+00
         21   -1    0    0  503  502  0.00000000000E+00  0.00000000000E+00  0.18159036980E+04  0.18159036980E+04  0.00000000000E+00 0. -1.
         21   -1    0    0  501  503 -0.00000000000E+00 -0.00000000000E+00 -0.41854458420E+02  0.41854458420E+02  0.00000000000E+00 0. -1.
          6    1    1    2  501    0  0.63285741746E+02  0.49818445065E+02  0.21664305289E+03  0.28870430365E+03  0.17300000000E+03 0. -1.
         -6    1    1    2    0  502 -0.63285741746E+02 -0.49818445065E+02  0.15574061867E+04  0.15690538528E+04  0.17300000000E+03 0. -1.
<mgrwt>
<rscale>  2 0.19082967E+03</rscale>
<asrwt>0</asrwt>
<pdfrwt beam="1">  1       21 0.27936974E+00 0.19082967E+03</pdfrwt>
<pdfrwt beam="2">  1       21 0.64391489E-02 0.19082967E+03</pdfrwt>
<totfact> 0.78538209E+03</totfact>
</mgrwt>
</event>
<event>
 4    1  0.4429256E+000  0.2132971E+03  0.7546771E-02  0.1138981E+00
         21   -1    0    0  503  502  0.00000000000E+00  0.00000000000E+00  0.23323942290E+03  0.23323942290E+03  0.00000000000E+00 0. -1.
         21   -1    0    0  501  503 -0.00000000000E+00 -0.00000000000E+00 -0.19964831495E+03  0.19964831495E+03  0.00000000000E+00 0.  1.
          6    1    1    2  501    0  0.79514713329E+02 -0.96146138124E+02 -0.16017116260E+02  0.21389768004E+03  0.17300000000E+03 0.  1.
         -6    1    1    2    0  502 -0.79514713329E+02  0.96146138124E+02  0.49608224210E+02  0.21899005781E+03  0.17300000000E+03 0. -1.
<mgrwt>
<rscale>  2 0.21329714E+03</rscale>
<asrwt>0</asrwt>
<pdfrwt beam="1">  1       21 0.35882988E-01 0.21329714E+03</pdfrwt>
<pdfrwt beam="2">  1       21 0.30715125E-01 0.21329714E+03</pdfrwt>
<totfact> 0.75545585E+04</totfact>
</mgrwt>
</event>
<event>
 4    1  0.4429256E+000  0.1739192E+03  0.7546771E-02  0.1173821E+00
         21   -1    0    0  503  502  0.00000000000E+00  0.00000000000E+00  0.51031928103E+02  0.51031928103E+02  0.00000000000E+00 0. -1.
         21   -1    0    0  501  503 -0.00000000000E+00 -0.00000000000E+00 -0.95162212219E+03  0.95162212219E+03  0.00000000000E+00 0. -1.
          6    1    1    2  501    0  0.12798819793E+02 -0.12453101501E+02 -0.14242042702E+03  0.22479205403E+03  0.17300000000E+03 0. -1.
         -6    1    1    2    0  502 -0.12798819793E+02  0.12453101501E+02 -0.75816976707E+03  0.77786199626E+03  0.17300000000E+03 0. -1.
<mgrwt>
<rscale>  2 0.17391920E+03</rscale>
<asrwt>0</asrwt>
<pdfrwt beam="1">  1       21 0.78510658E-02 0.17391920E+03</pdfrwt>
<pdfrwt beam="2">  1       21 0.14640341E+00 0.17391920E+03</pdfrwt>
<totfact> 0.39937877E+04</totfact>
</mgrwt>
</event>
<event>
 4    1  0.4429256E+000  0.2415331E+03  0.7546771E-02  0.1118776E+00
         21   -1    0    0  501  502  0.00000000000E+00  0.00000000000E+00  0.79240265625E+02  0.79240265625E+02  0.00000000000E+00 0.  1.
         21   -1    0    0  502  503 -0.00000000000E+00 -0.00000000000E+00 -0.14030375996E+04  0.14030375996E+04  0.00000000000E+00 0.  1.
          6    1    1    2  501    0 -0.16139193491E+03  0.48598981842E+02 -0.15096007368E+03  0.28482830185E+03  0.17300000000E+03 0.  1.
         -6    1    1    2    0  503  0.16139193491E+03 -0.48598981842E+02 -0.11728372602E+04  0.11974495633E+04  0.17300000000E+03 0.  1.
<mgrwt>
<rscale>  2 0.24153306E+03</rscale>
<asrwt>0</asrwt>
<pdfrwt beam="1">  1       21 0.12190811E-01 0.24153306E+03</pdfrwt>
<pdfrwt beam="2">  1       21 0.21585192E+00 0.24153306E+03</pdfrwt>
<totfact> 0.58370787E+03</totfact>
</mgrwt>
</event>
<event>
 4    1  0.4429256E+000  0.1955763E+03  0.7546771E-02  0.1153526E+00
         21   -1    0    0  501  502  0.00000000000E+00  0.00000000000E+00  0.22538792191E+03  0.22538792191E+03  0.00000000000E+00 0.  1.
         21   -1    0    0  502  503 -0.00000000000E+00 -0.00000000000E+00 -0.33776936855E+03  0.33776936855E+03  0.00000000000E+00 0. -1.
          6    1    1    2  501    0  0.78516793235E+02 -0.46435112423E+02  0.14242960093E+03  0.24194275709E+03  0.17300000000E+03 0.  1.
         -6    1    1    2    0  503 -0.78516793235E+02  0.46435112423E+02 -0.25481104757E+03  0.32121453337E+03  0.17300000000E+03 0.  1.
<mgrwt>
<rscale>  2 0.19557634E+03</rscale>
<asrwt>0</asrwt>
<pdfrwt beam="1">  1       21 0.34675065E-01 0.19557634E+03</pdfrwt>
<pdfrwt beam="2">  1       21 0.51964518E-01 0.19557634E+03</pdfrwt>
<totfact> 0.28135505E+04</totfact>
</mgrwt>
</event>
<event>
 4    1  0.4429256E+000  0.1770262E+03  0.7546771E-02  0.1170713E+00
         21   -1    0    0  501  502  0.00000000000E+00  0.00000000000E+00  0.27531994307E+03  0.27531994307E+03  0.00000000000E+00 0. -1.
         21   -1    0    0  502  503 -0.00000000000E+00 -0.00000000000E+00 -0.11985163790E+03  0.11985163790E+03  0.00000000000E+00 0. -1.
          6    1    1    2  501    0  0.37459868380E+02 -0.24540991552E+01  0.33426885930E+02  0.18015443665E+03  0.17300000000E+03 0. -1.
         -6    1    1    2    0  503 -0.37459868380E+02  0.24540991552E+01  0.12204141923E+03  0.21501714432E+03  0.17300000000E+03 0. -1.
<mgrwt>
<rscale>  2 0.17702617E+03</rscale>
<asrwt>0</asrwt>
<pdfrwt beam="1">  1       21 0.42356914E-01 0.17702617E+03</pdfrwt>
<pdfrwt beam="2">  1       21 0.18438714E-01 0.17702617E+03</pdfrwt>
<totfact> 0.14475118E+05</totfact>
</mgrwt>
</event>
<event>
 4    1  0.4429256E+000  0.2572060E+03  0.7546771E-02  0.1108834E+00
         21   -1    0    0  501  502  0.00000000000E+00  0.00000000000E+00  0.51370991944E+03  0.51370991944E+03  0.00000000000E+00 0. -1.
         21   -1    0    0  502  503 -0.00000000000E+00 -0.00000000000E+00 -0.13059644917E+03  0.13059644917E+03  0.00000000000E+00 0. -1.
          6    1    1    2  501    0 -0.15666978723E+03 -0.10807640089E+03  0.15355043722E+03  0.29955411436E+03  0.17300000000E+03 0. -1.
         -6    1    1    2    0  503  0.15666978723E+03  0.10807640089E+03  0.22956303305E+03  0.34475225424E+03  0.17300000000E+03 0. -1.
<mgrwt>
<rscale>  2 0.25720601E+03</rscale>
<asrwt>0</asrwt>
<pdfrwt beam="1">  1       21 0.79032295E-01 0.25720601E+03</pdfrwt>
<pdfrwt beam="2">  1       21 0.20091762E-01 0.25720601E+03</pdfrwt>
<totfact> 0.31333207E+04</totfact>
</mgrwt>
</event>
<event>
 4    1  0.4429256E+000  0.2224473E+03  0.7546771E-02  0.1132072E+00
         21   -1    0    0  501  502  0.00000000000E+00  0.00000000000E+00  0.45610777438E+03  0.45610777438E+03  0.00000000000E+00 0.  1.
         21   -1    0    0  502  503 -0.00000000000E+00 -0.00000000000E+00 -0.12250131259E+03  0.12250131259E+03  0.00000000000E+00 0. -1.
          6    1    1    2  501    0  0.11115410750E+03 -0.84844444912E+02  0.26464742605E+03  0.34571820253E+03  0.17300000000E+03 0.  1.
         -6    1    1    2    0  503 -0.11115410750E+03  0.84844444912E+02  0.68959035734E+02  0.23289088444E+03  0.17300000000E+03 0.  1.
<mgrwt>
<rscale>  2 0.22244733E+03</rscale>
<asrwt>0</asrwt>
<pdfrwt beam="1">  1       21 0.70170426E-01 0.22244733E+03</pdfrwt>
<pdfrwt beam="2">  1       21 0.18846356E-01 0.22244733E+03</pdfrwt>
<totfact> 0.46838052E+04</totfact>
</mgrwt>
</event>
<event>
 4    1  0.4429256E+000  0.2182449E+03  0.7546771E-02  0.1135198E+00
         21   -1    0    0  503  502  0.00000000000E+00  0.00000000000E+00  0.44536075388E+03  0.44536075388E+03  0.00000000000E+00 0. -1.
         21   -1    0    0  501  503 -0.00000000000E+00 -0.00000000000E+00 -0.10806661909E+03  0.10806661909E+03  0.00000000000E+00 0. -1.
          6    1    1    2  501    0 -0.10394770368E+03  0.83046530436E+02  0.14050555411E+03  0.25956244346E+03  0.17300000000E+03 0. -1.
         -6    1    1    2    0  502  0.10394770368E+03 -0.83046530436E+02  0.19678858067E+03  0.29386492952E+03  0.17300000000E+03 0. -1.
<mgrwt>
<rscale>  2 0.21824493E+03</rscale>
<asrwt>0</asrwt>
<pdfrwt beam="1">  1       21 0.68517038E-01 0.21824493E+03</pdfrwt>
<pdfrwt beam="2">  1       21 0.16625634E-01 0.21824493E+03</pdfrwt>
<totfact> 0.62392854E+04</totfact>
</mgrwt>
</event>
<event>
 4    1  0.4429256E+000  0.2442693E+03  0.7546771E-02  0.1116981E+00
         21   -1    0    0  503  502  0.00000000000E+00  0.00000000000E+00  0.75200798087E+02  0.75200798087E+02  0.00000000000E+00 0.  1.
         21   -1    0    0  501  503 -0.00000000000E+00 -0.00000000000E+00 -0.79464150896E+03  0.79464150896E+03  0.00000000000E+00 0.  1.
          6    1    1    2  501    0 -0.52312248137E+02 -0.16432253987E+03 -0.37661832068E+03  0.44889734672E+03  0.17300000000E+03 0.  1.
         -6    1    1    2    0  502  0.52312248137E+02  0.16432253987E+03 -0.34282239018E+03  0.42094496033E+03  0.17300000000E+03 0.  1.
<mgrwt>
<rscale>  2 0.24426925E+03</rscale>
<asrwt>0</asrwt>
<pdfrwt beam="1">  1       21 0.11569354E-01 0.24426925E+03</pdfrwt>
<pdfrwt beam="2">  1       21 0.12225254E+00 0.24426925E+03</pdfrwt>
<totfact> 0.30713121E+04</totfact>
</mgrwt>
</event>
<event>
 4    1  0.4429256E+000  0.2154802E+03  0.7546771E-02  0.1137298E+00
         21   -1    0    0  501  502  0.00000000000E+00  0.00000000000E+00  0.96260488487E+02  0.96260488487E+02  0.00000000000E+00 0.  1.
         21   -1    0    0  502  503 -0.00000000000E+00 -0.00000000000E+00 -0.59962926601E+03  0.59962926601E+03  0.00000000000E+00 0. -1.
          6    1    1    2  501    0 -0.71497259509E+01  0.12826376828E+03 -0.40556031786E+03  0.45925035030E+03  0.17300000000E+03 0. -1.
         -6    1    1    2    0  503  0.71497259509E+01 -0.12826376828E+03 -0.97808459663E+02  0.23663940419E+03  0.17300000000E+03 0.  1.
<mgrwt>
<rscale>  2 0.21548019E+03</rscale>
<asrwt>0</asrwt>
<pdfrwt beam="1">  1       21 0.14809306E-01 0.21548019E+03</pdfrwt>
<pdfrwt beam="2">  1       21 0.92250656E-01 0.21548019E+03</pdfrwt>
<totfact> 0.39359584E+04</totfact>
</mgrwt>
</event>
<event>
 4    1  0.4429256E+000  0.2147298E+03  0.7546771E-02  0.1137874E+00
         21   -1    0    0  503  502  0.00000000000E+00  0.00000000000E+00  0.31028810871E+03  0.31028810871E+03  0.00000000000E+00 0. -1.
         21   -1    0    0  501  503 -0.00000000000E+00 -0.00000000000E+00 -0.17125672264E+03  0.17125672264E+03  0.00000000000E+00 0. -1.
          6    1    1    2  501    0  0.11817597488E+03  0.47056801422E+02 -0.18059007312E+02  0.21548789141E+03  0.17300000000E+03 0. -1.
         -6    1    1    2    0  502 -0.11817597488E+03 -0.47056801422E+02  0.15709039338E+03  0.26605693994E+03  0.17300000000E+03 0. -1.
<mgrwt>
<rscale>  2 0.21472984E+03</rscale>
<asrwt>0</asrwt>
<pdfrwt beam="1">  1       21 0.47736632E-01 0.21472984E+03</pdfrwt>
<pdfrwt beam="2">  1       21 0.26347188E-01 0.21472984E+03</pdfrwt>
<totfact> 0.56887199E+04</totfact>
</mgrwt>
</event>
<event>
 4    1  0.4429256E+000  0.2083060E+03  0.7546771E-02  0.1142915E+00
         21   -1    0    0  503  502  0.00000000000E+00  0.00000000000E+00  0.97828408225E+02  0.97828408225E+02  0.00000000000E+00 0. -1.
         21   -1    0    0  501  503 -0.00000000000E+00 -0.00000000000E+00 -0.48279781502E+03  0.48279781502E+03  0.00000000000E+00 0. -1.
          6    1    1    2  501    0 -0.96348654728E+02  0.64647557794E+02 -0.27526281663E+03  0.34519702811E+03  0.17300000000E+03 0. -1.
         -6    1    1    2    0  502  0.96348654728E+02 -0.64647557794E+02 -0.10970659017E+03  0.23542919514E+03  0.17300000000E+03 0. -1.
<mgrwt>
<rscale>  2 0.20830595E+03</rscale>
<asrwt>0</asrwt>
<pdfrwt beam="1">  1       21 0.15050524E-01 0.20830595E+03</pdfrwt>
<pdfrwt beam="2">  1       21 0.74276588E-01 0.20830595E+03</pdfrwt>
<totfact> 0.62883016E+04</totfact>
</mgrwt>
</event>
<event>
 4    1  0.4429256E+000  0.1760300E+03  0.7546771E-02  0.1171701E+00
         21   -1    0    0  501  502  0.00000000000E+00  0.00000000000E+00  0.20174465451E+03  0.20174465451E+03  0.00000000000E+00 0. -1.
         21   -1    0    0  502  503 -0.00000000000E+00 -0.00000000000E+00 -0.22748024608E+03  0.22748024608E+03  0.00000000000E+00 0.  1.
          6    1    1    2  501    0  0.27069096537E+02  0.18023240522E+02  0.10944382301E+03  0.20727885464E+03  0.17300000000E+03 0. -1.
         -6    1    1    2    0  503 -0.27069096537E+02 -0.18023240522E+02 -0.13517941458E+03  0.22194604595E+03  0.17300000000E+03 0.  1.
<mgrwt>
<rscale>  2 0.17603003E+03</rscale>
<asrwt>0</asrwt>
<pdfrwt beam="1">  1       21 0.31037639E-01 0.17603003E+03</pdfrwt>
<pdfrwt beam="2">  1       21 0.34996961E-01 0.17603003E+03</pdfrwt>
<totfact> 0.79021322E+04</totfact>
</mgrwt>
</event>
<event>
 4    1  0.4429256E+000  0.2597644E+03  0.7546771E-02  0.1107285E+00
         21   -1    0    0  503  502  0.00000000000E+00  0.00000000000E+00  0.14882016333E+03  0.14882016333E+03  0.00000000000E+00 0. -1.
         21   -1    0    0  501  503 -0.00000000000E+00 -0.00000000000E+00 -0.45403921262E+03  0.45403921262E+03  0.00000000000E+00 0. -1.
          6    1    1    2  501    0 -0.44828444624E+02  0.18851783764E+03 -0.14144929601E+03  0.29577942440E+03  0.17300000000E+03 0. -1.
         -6    1    1    2    0  502  0.44828444624E+02 -0.18851783764E+03 -0.16376975329E+03  0.30707995156E+03  0.17300000000E+03 0. -1.
<mgrwt>
<rscale>  2 0.25976444E+03</rscale>
<asrwt>0</asrwt>
<pdfrwt beam="1">  1       21 0.22895410E-01 0.25976444E+03</pdfrwt>
<pdfrwt beam="2">  1       21 0.69852185E-01 0.25976444E+03</pdfrwt>
<totfact> 0.32253732E+04</totfact>
</mgrwt>
</event>
<event>
 4    1  0.4429256E+000  0.1784824E+03  0.7546771E-02  0.1169280E+00
         21   -1    0    0  501  502  0.00000000000E+00  0.00000000000E+00  0.23371131614E+03  0.23371131614E+03  0.00000000000E+00 0.  1.
         21   -1    0    0  502  503 -0.00000000000E+00 -0.00000000000E+00 -0.18854212960E+03  0.18854212960E+03  0.00000000000E+00 0.  1.
          6    1    1    2  501    0  0.37481075336E+02  0.22850062947E+02  0.13371420658E+03  0.22301445116E+03  0.17300000000E+03 0.  1.
         -6    1    1    2    0  503 -0.37481075336E+02 -0.22850062947E+02 -0.88545020043E+02  0.19923899458E+03  0.17300000000E+03 0.  1.
<mgrwt>
<rscale>  2 0.17848237E+03</rscale>
<asrwt>0</asrwt>
<pdfrwt beam="1">  1       21 0.35955587E-01 0.17848237E+03</pdfrwt>
<pdfrwt beam="2">  1       21 0.29006481E-01 0.17848237E+03</pdfrwt>
<totfact> 0.85346556E+04</totfact>
</mgrwt>
</event>
<event>
 4    1  0.4429256E+000  0.2198360E+03  0.7546771E-02  0.1134005E+00
         21   -1    0    0  503  502  0.00000000000E+00  0.00000000000E+00  0.10819616471E+03  0.10819616471E+03  0.00000000000E+00 0. -1.
         21   -1    0    0  501  503 -0.00000000000E+00 -0.00000000000E+00 -0.46010181882E+03  0.46010181882E+03  0.00000000000E+00 0.  1.
          6    1    1    2  501    0 -0.11928235574E+01 -0.13563722187E+03 -0.22450423323E+03  0.31421335032E+03  0.17300000000E+03 0.  1.
         -6    1    1    2    0  502  0.11928235574E+01  0.13563722187E+03 -0.12740142089E+03  0.25408463320E+03  0.17300000000E+03 0. -1.
<mgrwt>
<rscale>  2 0.21983603E+03</rscale>
<asrwt>0</asrwt>
<pdfrwt beam="1">  1       21 0.16645564E-01 0.21983603E+03</pdfrwt>
<pdfrwt beam="2">  1       21 0.70784894E-01 0.21983603E+03</pdfrwt>
<totfact> 0.57891720E+04</totfact>
</mgrwt>
</event>
<event>
 4    1  0.4429256E+000  0.1910969E+03  0.7546771E-02  0.1157476E+00
         21   -1    0    0  501  502  0.00000000000E+00  0.00000000000E+00  0.51163431873E+02  0.51163431873E+02  0.00000000000E+00 0. -1.
         21   -1    0    0  502  503 -0.00000000000E+00 -0.00000000000E+00 -0.81879799997E+03  0.81879799997E+03  0.00000000000E+00 0. -1.
          6    1    1    2  501    0  0.78709767080E+02  0.19844712515E+02 -0.22801643048E+03  0.29750551696E+03  0.17300000000E+03 0. -1.
         -6    1    1    2    0  503 -0.78709767080E+02 -0.19844712515E+02 -0.53961813761E+03  0.57245591489E+03  0.17300000000E+03 0. -1.
<mgrwt>
<rscale>  2 0.19109694E+03</rscale>
<asrwt>0</asrwt>
<pdfrwt beam="1">  1       21 0.78712974E-02 0.19109694E+03</pdfrwt>
<pdfrwt beam="2">  1       21 0.12596892E+00 0.19109694E+03</pdfrwt>
<totfact> 0.57801662E+04</totfact>
</mgrwt>
</event>
<event>
 4    1  0.4429256E+000  0.1824611E+03  0.7546771E-02  0.1165442E+00
         21   -1    0    0  501  502  0.00000000000E+00  0.00000000000E+00  0.12453093173E+03  0.12453093173E+03  0.00000000000E+00 0.  1.
         21   -1    0    0  502  503 -0.00000000000E+00 -0.00000000000E+00 -0.29236828465E+03  0.29236828465E+03  0.00000000000E+00 0.  1.
          6    1    1    2  501    0 -0.57349549874E+02  0.86074297880E+01 -0.22929281823E+02  0.18389619540E+03  0.17300000000E+03 0. -1.
         -6    1    1    2    0  503  0.57349549874E+02 -0.86074297880E+01 -0.14490807110E+03  0.23300302099E+03  0.17300000000E+03 0. -1.
<mgrwt>
<rscale>  2 0.18246112E+03</rscale>
<asrwt>0</asrwt>
<pdfrwt beam="1">  1       21 0.19158605E-01 0.18246112E+03</pdfrwt>
<pdfrwt beam="2">  1       21 0.44979736E-01 0.18246112E+03</pdfrwt>
<totfact> 0.11904465E+05</totfact>
</mgrwt>
</event>
<event>
 4    1  0.4429256E+000  0.2149757E+03  0.7546771E-02  0.1137685E+00
         21   -1    0    0  503  502  0.00000000000E+00  0.00000000000E+00  0.24827504696E+03  0.24827504696E+03  0.00000000000E+00 0.  1.
         21   -1    0    0  501  503 -0.00000000000E+00 -0.00000000000E+00 -0.26489249760E+03  0.26489249760E+03  0.00000000000E+00 0. -1.
          6    1    1    2  501    0 -0.12648856808E+03 -0.16917509208E+02 -0.14820926392E+03  0.26111404766E+03  0.17300000000E+03 0. -1.
         -6    1    1    2    0  502  0.12648856808E+03  0.16917509208E+02  0.13159181329E+03  0.25205349689E+03  0.17300000000E+03 0.  1.
<mgrwt>
<rscale>  2 0.21497572E+03</rscale>
<asrwt>0</asrwt>
<pdfrwt beam="1">  1       21 0.38196161E-01 0.21497572E+03</pdfrwt>
<pdfrwt beam="2">  1       21 0.40752692E-01 0.21497572E+03</pdfrwt>
<totfact> 0.37906674E+04</totfact>
</mgrwt>
</event>
<event>
 4    1  0.4429256E+000  0.2153891E+03  0.7546771E-02  0.1137368E+00
         21   -1    0    0  501  502  0.00000000000E+00  0.00000000000E+00  0.18915706243E+04  0.18915706243E+04  0.00000000000E+00 0. -1.
         21   -1    0    0  502  503 -0.00000000000E+00 -0.00000000000E+00 -0.61350520625E+02  0.61350520625E+02  0.00000000000E+00 0. -1.
          6    1    1    2  501    0 -0.67049404252E+02 -0.10939768683E+03  0.16716201201E+04  0.16854394983E+04  0.17300000000E+03 0. -1.
         -6    1    1    2    0  503  0.67049404252E+02  0.10939768683E+03  0.15859998357E+03  0.26748164663E+03  0.17300000000E+03 0. -1.
<mgrwt>
<rscale>  2 0.21538913E+03</rscale>
<asrwt>0</asrwt>
<pdfrwt beam="1">  1       21 0.29101082E+00 0.21538913E+03</pdfrwt>
<pdfrwt beam="2">  1       21 0.94385431E-02 0.21538913E+03</pdfrwt>
<totfact> 0.33674099E+03</totfact>
</mgrwt>
</event>
<event>
 4    1  0.4429256E+000  0.2160814E+03  0.7546771E-02  0.1136839E+00
         21   -1    0    0  503  502  0.00000000000E+00  0.00000000000E+00  0.10605596314E+04  0.10605596314E+04  0.00000000000E+00 0. -1.
         21   -1    0    0  501  503 -0.00000000000E+00 -0.00000000000E+00 -0.59424366866E+02  0.59424366866E+02  0.00000000000E+00 0. -1.
          6    1    1    2  501    0 -0.62097907126E+01  0.12931981841E+03  0.21549833018E+03  0.30517324136E+03  0.17300000000E+03 0. -1.
         -6    1    1    2    0  502  0.62097907126E+01 -0.12931981841E+03  0.78563693432E+03  0.81481075687E+03  0.17300000000E+03 0. -1.
<mgrwt>
<rscale>  2 0.21608141E+03</rscale>
<asrwt>0</asrwt>
<pdfrwt beam="1">  1       21 0.16316301E+00 0.21608141E+03</pdfrwt>
<pdfrwt beam="2">  1       21 0.91422111E-02 0.21608141E+03</pdfrwt>
<totfact> 0.22334486E+04</totfact>
</mgrwt>
</event>
<event>
 4    1  0.4429256E+000  0.2895612E+03  0.7546771E-02  0.1090578E+00
         21   -1    0    0  503  502  0.00000000000E+00  0.00000000000E+00  0.92718932641E+03  0.92718932641E+03  0.00000000000E+00 0.  1.
         21   -1    0    0  501  503 -0.00000000000E+00 -0.00000000000E+00 -0.11269231121E+03  0.11269231121E+03  0.00000000000E+00 0. -1.
          6    1    1    2  501    0 -0.26572371457E+02  0.23067418030E+03  0.17615244178E+03  0.33893266459E+03  0.17300000000E+03 0. -1.
         -6    1    1    2    0  502  0.26572371457E+02 -0.23067418030E+03  0.63834457342E+03  0.70094897303E+03  0.17300000000E+03 0.  1.
<mgrwt>
<rscale>  2 0.28956117E+03</rscale>
<asrwt>0</asrwt>
<pdfrwt beam="1">  1       21 0.14264451E+00 0.28956117E+03</pdfrwt>
<pdfrwt beam="2">  1       21 0.17337279E-01 0.28956117E+03</pdfrwt>
<totfact> 0.96536811E+03</totfact>
</mgrwt>
</event>
<event>
 4    1  0.4429256E+000  0.2509689E+03  0.7546771E-02  0.1112694E+00
         21   -1    0    0  501  502  0.00000000000E+00  0.00000000000E+00  0.78120430264E+03  0.78120430264E+03  0.00000000000E+00 0. -1.
         21   -1    0    0  502  503 -0.00000000000E+00 -0.00000000000E+00 -0.83674797553E+02  0.83674797553E+02  0.00000000000E+00 0.  1.
          6    1    1    2  501    0  0.10025312863E+03  0.15167629770E+03  0.43130986513E+03  0.49901261391E+03  0.17300000000E+03 0. -1.
         -6    1    1    2    0  503 -0.10025312863E+03 -0.15167629770E+03  0.26621963996E+03  0.36586648628E+03  0.17300000000E+03 0.  1.
<mgrwt>
<rscale>  2 0.25096890E+03</rscale>
<asrwt>0</asrwt>
<pdfrwt beam="1">  1       21 0.12018527E+00 0.25096890E+03</pdfrwt>
<pdfrwt beam="2">  1       21 0.12873046E-01 0.25096890E+03</pdfrwt>
<totfact> 0.26359805E+04</totfact>
</mgrwt>
</event>
<event>
 4    1  0.4429256E+000  0.1794657E+03  0.7546771E-02  0.1168321E+00
         21   -1    0    0  503  502  0.00000000000E+00  0.00000000000E+00  0.30216287653E+03  0.30216287653E+03  0.00000000000E+00 0.  1.
         21   -1    0    0  501  503 -0.00000000000E+00 -0.00000000000E+00 -0.11361719131E+03  0.11361719131E+03  0.00000000000E+00 0.  1.
          6    1    1    2  501    0  0.28502658295E+02 -0.38295203407E+02  0.42576079665E+02  0.18444686686E+03  0.17300000000E+03 0. -1.
         -6    1    1    2    0  502 -0.28502658295E+02  0.38295203407E+02  0.14596960555E+03  0.23133320099E+03  0.17300000000E+03 0. -1.
<mgrwt>
<rscale>  2 0.17946566E+03</rscale>
<asrwt>0</asrwt>
<pdfrwt beam="1">  1       21 0.46486596E-01 0.17946566E+03</pdfrwt>
<pdfrwt beam="2">  1       21 0.17479568E-01 0.17946566E+03</pdfrwt>
<totfact> 0.13195158E+05</totfact>
</mgrwt>
</event>
<event>
 4    1  0.4429256E+000  0.2996491E+03  0.7546771E-02  0.1085416E+00
         21   -1    0    0  503  502  0.00000000000E+00  0.00000000000E+00  0.90420528230E+03  0.90420528230E+03  0.00000000000E+00 0. -1.
         21   -1    0    0  501  503 -0.00000000000E+00 -0.00000000000E+00 -0.10987701292E+03  0.10987701292E+03  0.00000000000E+00 0.  1.
          6    1    1    2  501    0 -0.12128441351E+03  0.21248688093E+03  0.23986515418E+03  0.38382922728E+03  0.17300000000E+03 0.  1.
         -6    1    1    2    0  502  0.12128441351E+03 -0.21248688093E+03  0.55446311521E+03  0.63025306794E+03  0.17300000000E+03 0. -1.
<mgrwt>
<rscale>  2 0.29964910E+03</rscale>
<asrwt>0</asrwt>
<pdfrwt beam="1">  1       21 0.13910850E+00 0.29964910E+03</pdfrwt>
<pdfrwt beam="2">  1       21 0.16904156E-01 0.29964910E+03</pdfrwt>
<totfact> 0.10755175E+04</totfact>
</mgrwt>
</event>
<event>
 4    1  0.4429256E+000  0.2224929E+03  0.7546771E-02  0.1132038E+00
         21   -1    0    0  501  502  0.00000000000E+00  0.00000000000E+00  0.89496924955E+02  0.89496924955E+02  0.00000000000E+00 0. -1.
         21   -1    0    0  502  503 -0.00000000000E+00 -0.00000000000E+00 -0.56541700516E+03  0.56541700516E+03  0.00000000000E+00 0. -1.
          6    1    1    2  501    0 -0.95725043409E+02  0.10203325791E+03 -0.28623976366E+03  0.36254140723E+03  0.17300000000E+03 0. -1.
         -6    1    1    2    0  503  0.95725043409E+02 -0.10203325791E+03 -0.18968031654E+03  0.29237252289E+03  0.17300000000E+03 0. -1.
<mgrwt>
<rscale>  2 0.22249285E+03</rscale>
<asrwt>0</asrwt>
<pdfrwt beam="1">  1       21 0.13768758E-01 0.22249285E+03</pdfrwt>
<pdfrwt beam="2">  1       21 0.86987230E-01 0.22249285E+03</pdfrwt>
<totfact> 0.51329126E+04</totfact>
</mgrwt>
</event>
<event>
 4    1  0.4429256E+000  0.2447471E+03  0.7546771E-02  0.1116670E+00
         21   -1    0    0  503  502  0.00000000000E+00  0.00000000000E+00  0.12429320472E+04  0.12429320472E+04  0.00000000000E+00 0.  1.
         21   -1    0    0  501  503 -0.00000000000E+00 -0.00000000000E+00 -0.58864602185E+02  0.58864602185E+02  0.00000000000E+00 0. -1.
          6    1    1    2  501    0  0.16973138511E+03 -0.34108467223E+02  0.31489796204E+03  0.39882559738E+03  0.17300000000E+03 0. -1.
         -6    1    1    2    0  502 -0.16973138511E+03  0.34108467223E+02  0.86916948295E+03  0.90297105198E+03  0.17300000000E+03 0.  1.
<mgrwt>
<rscale>  2 0.24474707E+03</rscale>
<asrwt>0</asrwt>
<pdfrwt beam="1">  1       21 0.19122030E+00 0.24474707E+03</pdfrwt>
<pdfrwt beam="2">  1       21 0.90560936E-02 0.24474707E+03</pdfrwt>
<totfact> 0.14254183E+04</totfact>
</mgrwt>
</event>
<event>
 4    1  0.4429256E+000  0.1916210E+03  0.7546771E-02  0.1157007E+00
         21   -1    0    0  503  502  0.00000000000E+00  0.00000000000E+00  0.51327552380E+03  0.51327552380E+03  0.00000000000E+00 0.  1.
         21   -1    0    0  501  503 -0.00000000000E+00 -0.00000000000E+00 -0.80174334994E+02  0.80174334994E+02  0.00000000000E+00 0.  1.
          6    1    1    2  501    0  0.72287011000E+02 -0.39549811932E+02  0.11916241940E+03  0.22565079610E+03  0.17300000000E+03 0.  1.
         -6    1    1    2    0  502 -0.72287011000E+02  0.39549811932E+02  0.31393876941E+03  0.36779906270E+03  0.17300000000E+03 0.  1.
<mgrwt>
<rscale>  2 0.19162098E+03</rscale>
<asrwt>0</asrwt>
<pdfrwt beam="1">  1       21 0.78965463E-01 0.19162098E+03</pdfrwt>
<pdfrwt beam="2">  1       21 0.12334513E-01 0.19162098E+03</pdfrwt>
<totfact> 0.79159625E+04</totfact>
</mgrwt>
</event>
<event>
 4    1  0.4429256E+000  0.2006129E+03  0.7546771E-02  0.1149223E+00
         21   -1    0    0  503  502  0.00000000000E+00  0.00000000000E+00  0.83489378669E+03  0.83489378669E+03  0.00000000000E+00 0.  1.
         21   -1    0    0  501  503 -0.00000000000E+00 -0.00000000000E+00 -0.51574692196E+02  0.51574692196E+02  0.00000000000E+00 0. -1.
          6    1    1    2  501    0 -0.69261169159E+01 -0.10133390515E+03  0.27835417478E+03  0.34311306889E+03  0.17300000000E+03 0.  1.
         -6    1    1    2    0  502  0.69261169159E+01  0.10133390515E+03  0.50496491972E+03  0.54335541000E+03  0.17300000000E+03 0. -1.
<mgrwt>
<rscale>  2 0.20061289E+03</rscale>
<asrwt>0</asrwt>
<pdfrwt beam="1">  1       21 0.12844519E+00 0.20061289E+03</pdfrwt>
<pdfrwt beam="2">  1       21 0.79345687E-02 0.20061289E+03</pdfrwt>
<totfact> 0.54008303E+04</totfact>
</mgrwt>
</event>
<event>
 4    1  0.4429256E+000  0.2342430E+03  0.7546771E-02  0.1123688E+00
         21   -1    0    0  501  502  0.00000000000E+00  0.00000000000E+00  0.36012720820E+03  0.36012720820E+03  0.00000000000E+00 0.  1.
         21   -1    0    0  502  503 -0.00000000000E+00 -0.00000000000E+00 -0.15680340955E+03  0.15680340955E+03  0.00000000000E+00 0. -1.
          6    1    1    2  501    0 -0.71368724704E+02  0.14088044535E+03  0.14516019964E+03  0.27557445148E+03  0.17300000000E+03 0. -1.
         -6    1    1    2    0  503  0.71368724704E+02 -0.14088044535E+03  0.58163599013E+02  0.24135616627E+03  0.17300000000E+03 0.  1.
<mgrwt>
<rscale>  2 0.23424302E+03</rscale>
<asrwt>0</asrwt>
<pdfrwt beam="1">  1       21 0.55404186E-01 0.23424302E+03</pdfrwt>
<pdfrwt beam="2">  1       21 0.24123601E-01 0.23424302E+03</pdfrwt>
<totfact> 0.48840027E+04</totfact>
</mgrwt>
</event>
<event>
 4    1  0.4429256E+000  0.2055423E+03  0.7546771E-02  0.1145145E+00
         21   -1    0    0  503  502  0.00000000000E+00  0.00000000000E+00  0.16553387012E+04  0.16553387012E+04  0.00000000000E+00 0.  1.
         21   -1    0    0  501  503 -0.00000000000E+00 -0.00000000000E+00 -0.36221686081E+02  0.36221686081E+02  0.00000000000E+00 0.  1.
          6    1    1    2  501    0  0.10727964809E+03 -0.28455411168E+02  0.34987626313E+03  0.40578446597E+03  0.17300000000E+03 0.  1.
         -6    1    1    2    0  502 -0.10727964809E+03  0.28455411168E+02  0.12692407520E+04  0.12857759213E+04  0.17300000000E+03 0.  1.
<mgrwt>
<rscale>  2 0.20554229E+03</rscale>
<asrwt>0</asrwt>
<pdfrwt beam="1">  1       21 0.25466743E+00 0.20554229E+03</pdfrwt>
<pdfrwt beam="2">  1       21 0.55725684E-02 0.20554229E+03</pdfrwt>
<totfact> 0.13803010E+04</totfact>
</mgrwt>
</event>
<event>
 4    1  0.4429256E+000  0.2353148E+03  0.7546771E-02  0.1122954E+00
         21   -1    0    0  501  502  0.00000000000E+00  0.00000000000E+00  0.54057278767E+03  0.54057278767E+03  0.00000000000E+00 0.  1.
         21   -1    0    0  502  503 -0.00000000000E+00 -0.00000000000E+00 -0.12234690656E+03  0.12234690656E+03  0.00000000000E+00 0. -1.
          6    1    1    2  501    0  0.91879337574E+02 -0.13039260953E+03  0.34283452314E+03  0.41582274535E+03  0.17300000000E+03 0.  1.
         -6    1    1    2    0  503 -0.91879337574E+02  0.13039260953E+03  0.75391357975E+02  0.24709694889E+03  0.17300000000E+03 0. -1.
<mgrwt>
<rscale>  2 0.23531478E+03</rscale>
<asrwt>0</asrwt>
<pdfrwt beam="1">  1       21 0.83165043E-01 0.23531478E+03</pdfrwt>
<pdfrwt beam="2">  1       21 0.18822601E-01 0.23531478E+03</pdfrwt>
<totfact> 0.31834821E+04</totfact>
</mgrwt>
</event>
<event>
 4    1  0.4429256E+000  0.2034106E+03  0.7546771E-02  0.1146893E+00
         21   -1    0    0  501  502  0.00000000000E+00  0.00000000000E+00  0.10237648152E+03  0.10237648152E+03  0.00000000000E+00 0.  1.
         21   -1    0    0  502  503 -0.00000000000E+00 -0.00000000000E+00 -0.65355790290E+03  0.65355790290E+03  0.00000000000E+00 0. -1.
          6    1    1    2  501    0 -0.10530499397E+03 -0.18913763545E+02 -0.42103215347E+02  0.20772229767E+03  0.17300000000E+03 0.  1.
         -6    1    1    2    0  503  0.10530499397E+03  0.18913763545E+02 -0.50907820603E+03  0.54821208675E+03  0.17300000000E+03 0. -1.
<mgrwt>
<rscale>  2 0.20341060E+03</rscale>
<asrwt>0</asrwt>
<pdfrwt beam="1">  1       21 0.15750228E-01 0.20341060E+03</pdfrwt>
<pdfrwt beam="2">  1       21 0.10054737E+00 0.20341060E+03</pdfrwt>
<totfact> 0.28901164E+04</totfact>
</mgrwt>
</event>
<event>
 4    1  0.4429256E+000  0.2051295E+03  0.7546771E-02  0.1145482E+00
         21   -1    0    0  501  502  0.00000000000E+00  0.00000000000E+00  0.57482643290E+02  0.57482643290E+02  0.00000000000E+00 0. -1.
         21   -1    0    0  502  503 -0.00000000000E+00 -0.00000000000E+00 -0.18737211494E+04  0.18737211494E+04  0.00000000000E+00 0. -1.
          6    1    1    2  501    0 -0.33412758726E+02 -0.10503659356E+03 -0.15437676849E+03  0.25672998478E+03  0.17300000000E+03 0. -1.
         -6    1    1    2    0  503  0.33412758726E+02  0.10503659356E+03 -0.16618617376E+04  0.16744738079E+04  0.17300000000E+03 0. -1.
<mgrwt>
<rscale>  2 0.20512947E+03</rscale>
<asrwt>0</asrwt>
<pdfrwt beam="1">  1       21 0.88434842E-02 0.20512947E+03</pdfrwt>
<pdfrwt beam="2">  1       21 0.28826477E+00 0.20512947E+03</pdfrwt>
<totfact> 0.39610695E+03</totfact>
</mgrwt>
</event>
<event>
 4    1  0.4429256E+000  0.2195302E+03  0.7546771E-02  0.1134234E+00
         21   -1    0    0  501  502  0.00000000000E+00  0.00000000000E+00  0.55997145972E+02  0.55997145972E+02  0.00000000000E+00 0.  1.
         21   -1    0    0  502  503 -0.00000000000E+00 -0.00000000000E+00 -0.95954537977E+03  0.95954537977E+03  0.00000000000E+00 0. -1.
          6    1    1    2  501    0 -0.13348888202E+03  0.21100594549E+02 -0.28875441232E+03  0.36272941341E+03  0.17300000000E+03 0.  1.
         -6    1    1    2    0  503  0.13348888202E+03 -0.21100594549E+02 -0.61479382148E+03  0.65281311234E+03  0.17300000000E+03 0. -1.
<mgrwt>
<rscale>  2 0.21953022E+03</rscale>
<asrwt>0</asrwt>
<pdfrwt beam="1">  1       21 0.86149460E-02 0.21953022E+03</pdfrwt>
<pdfrwt beam="2">  1       21 0.14762236E+00 0.21953022E+03</pdfrwt>
<totfact> 0.32348837E+04</totfact>
</mgrwt>
</event>
<event>
 4    1  0.4429256E+000  0.2068646E+03  0.7546771E-02  0.1144073E+00
         21   -1    0    0  503  502  0.00000000000E+00  0.00000000000E+00  0.63682700857E+03  0.63682700857E+03  0.00000000000E+00 0. -1.
         21   -1    0    0  501  503 -0.00000000000E+00 -0.00000000000E+00 -0.11728233418E+03  0.11728233418E+03  0.00000000000E+00 0.  1.
          6    1    1    2  501    0 -0.60337769610E+02  0.96038025031E+02  0.13371181783E+02  0.20729625466E+03  0.17300000000E+03 0.  1.
         -6    1    1    2    0  502  0.60337769610E+02 -0.96038025031E+02  0.50617349260E+03  0.54681308809E+03  0.17300000000E+03 0. -1.
<mgrwt>
<rscale>  2 0.20686457E+03</rscale>
<asrwt>0</asrwt>
<pdfrwt beam="1">  1       21 0.97973384E-01 0.20686457E+03</pdfrwt>
<pdfrwt beam="2">  1       21 0.18043436E-01 0.20686457E+03</pdfrwt>
<totfact> 0.23881023E+04</totfact>
</mgrwt>
</event>
<event>
 4    1  0.4429256E+000  0.2481058E+03  0.7546771E-02  0.1114508E+00
         21   -1    0    0  501  502  0.00000000000E+00  0.00000000000E+00  0.87586989689E+03  0.87586989689E+03  0.00000000000E+00 0. -1.
         21   -1    0    0  502  503 -0.00000000000E+00 -0.00000000000E+00 -0.75903400816E+02  0.75903400816E+02  0.00000000000E+00 0.  1.
          6    1    1    2  501    0 -0.60287911367E+02 -0.16731059671E+03  0.52950950034E+03  0.58475360536E+03  0.17300000000E+03 0.  1.
         -6    1    1    2    0  503  0.60287911367E+02  0.16731059671E+03  0.27045699573E+03  0.36701969235E+03  0.17300000000E+03 0.  1.
<mgrwt>
<rscale>  2 0.24810576E+03</rscale>
<asrwt>0</asrwt>
<pdfrwt beam="1">  1       21 0.13474921E+00 0.24810576E+03</pdfrwt>
<pdfrwt beam="2">  1       21 0.11677447E-01 0.24810576E+03</pdfrwt>
<totfact> 0.23549309E+04</totfact>
</mgrwt>
</event>
<event>
 4    1  0.4429256E+000  0.2077682E+03  0.7546771E-02  0.1143346E+00
         21   -1    0    0  503  502  0.00000000000E+00  0.00000000000E+00  0.11825141496E+04  0.11825141496E+04  0.00000000000E+00 0.  1.
         21   -1    0    0  501  503 -0.00000000000E+00 -0.00000000000E+00 -0.47958442263E+02  0.47958442263E+02  0.00000000000E+00 0.  1.
          6    1    1    2  501    0 -0.46650459778E+02 -0.10517776039E+03  0.26661604240E+03  0.33801145061E+03  0.17300000000E+03 0.  1.
         -6    1    1    2    0  502  0.46650459778E+02  0.10517776039E+03  0.86793966493E+03  0.89246114125E+03  0.17300000000E+03 0.  1.
<mgrwt>
<rscale>  2 0.20776820E+03</rscale>
<asrwt>0</asrwt>
<pdfrwt beam="1">  1       21 0.18192523E+00 0.20776820E+03</pdfrwt>
<pdfrwt beam="2">  1       21 0.73782228E-02 0.20776820E+03</pdfrwt>
<totfact> 0.24129824E+04</totfact>
</mgrwt>
</event>
<event>
 4    1  0.4429256E+000  0.2128708E+03  0.7546771E-02  0.1139313E+00
         21   -1    0    0  501  502  0.00000000000E+00  0.00000000000E+00  0.16287653990E+04  0.16287653990E+04  0.00000000000E+00 0.  1.
         21   -1    0    0  502  503 -0.00000000000E+00 -0.00000000000E+00 -0.44058892343E+02  0.44058892343E+02  0.00000000000E+00 0.  1.
          6    1    1    2  501    0 -0.80012089118E+01  0.12377789167E+03  0.13001238179E+04  0.13174353599E+04  0.17300000000E+03 0.  1.
         -6    1    1    2    0  503  0.80012089118E+01 -0.12377789167E+03  0.28458268878E+03  0.35538893140E+03  0.17300000000E+03 0.  1.
<mgrwt>
<rscale>  2 0.21287082E+03</rscale>
<asrwt>0</asrwt>
<pdfrwt beam="1">  1       21 0.25057925E+00 0.21287082E+03</pdfrwt>
<pdfrwt beam="2">  1       21 0.67782924E-02 0.21287082E+03</pdfrwt>
<totfact> 0.10354953E+04</totfact>
</mgrwt>
</event>
<event>
 4    1  0.4429256E+000  0.2464315E+03  0.7546771E-02  0.1115581E+00
         21   -1    0    0  503  502  0.00000000000E+00  0.00000000000E+00  0.45877819182E+03  0.45877819182E+03  0.00000000000E+00 0. -1.
         21   -1    0    0  501  503 -0.00000000000E+00 -0.00000000000E+00 -0.13241168313E+03  0.13241168313E+03  0.00000000000E+00 0. -1.
          6    1    1    2  501    0 -0.13760364318E+03 -0.10892536813E+03  0.16842387008E+03  0.29848802062E+03  0.17300000000E+03 0. -1.
         -6    1    1    2    0  502  0.13760364318E+03  0.10892536813E+03  0.15794263861E+03  0.29270185433E+03  0.17300000000E+03 0. -1.
<mgrwt>
<rscale>  2 0.24643153E+03</rscale>
<asrwt>0</asrwt>
<pdfrwt beam="1">  1       21 0.70581260E-01 0.24643153E+03</pdfrwt>
<pdfrwt beam="2">  1       21 0.20371028E-01 0.24643153E+03</pdfrwt>
<totfact> 0.39545581E+04</totfact>
</mgrwt>
</event>
<event>
 4    1  0.4429256E+000  0.4550116E+03  0.7546771E-02  0.1026238E+00
         21   -1    0    0  503  502  0.00000000000E+00  0.00000000000E+00  0.26229813297E+03  0.26229813297E+03  0.00000000000E+00 0. -1.
         21   -1    0    0  501  503 -0.00000000000E+00 -0.00000000000E+00 -0.16380586975E+04  0.16380586975E+04  0.00000000000E+00 0.  1.
          6    1    1    2  501    0  0.26269237008E+03  0.32878458304E+03 -0.13718375561E+04  0.14453282892E+04  0.17300000000E+03 0.  1.
         -6    1    1    2    0  502 -0.26269237008E+03 -0.32878458304E+03 -0.39230084366E+01  0.45502854124E+03  0.17300000000E+03 0. -1.
<mgrwt>
<rscale>  2 0.45501163E+03</rscale>
<asrwt>0</asrwt>
<pdfrwt beam="1">  1       21 0.40353559E-01 0.45501163E+03</pdfrwt>
<pdfrwt beam="2">  1       21 0.25200903E+00 0.45501163E+03</pdfrwt>
<totfact> 0.30645656E+02</totfact>
</mgrwt>
</event>
<event>
 4    1  0.4429256E+000  0.2347610E+03  0.7546771E-02  0.1123333E+00
         21   -1    0    0  501  502  0.00000000000E+00  0.00000000000E+00  0.66762121833E+02  0.66762121833E+02  0.00000000000E+00 0.  1.
         21   -1    0    0  502  503 -0.00000000000E+00 -0.00000000000E+00 -0.13713535820E+04  0.13713535820E+04  0.00000000000E+00 0. -1.
          6    1    1    2  501    0  0.14776775937E+03 -0.57865456281E+02 -0.19864284619E+03  0.30752512431E+03  0.17300000000E+03 0.  1.
         -6    1    1    2    0  503 -0.14776775937E+03  0.57865456281E+02 -0.11059486140E+04  0.11305905795E+04  0.17300000000E+03 0. -1.
<mgrwt>
<rscale>  2 0.23476099E+03</rscale>
<asrwt>0</asrwt>
<pdfrwt beam="1">  1       21 0.10271096E-01 0.23476099E+03</pdfrwt>
<pdfrwt beam="2">  1       21 0.21097746E+00 0.23476099E+03</pdfrwt>
<totfact> 0.85540424E+03</totfact>
</mgrwt>
</event>
<event>
 4    1  0.4429256E+000  0.1752366E+03  0.7546771E-02  0.1172494E+00
         21   -1    0    0  501  502  0.00000000000E+00  0.00000000000E+00  0.23401304410E+03  0.23401304410E+03  0.00000000000E+00 0. -1.
         21   -1    0    0  502  503 -0.00000000000E+00 -0.00000000000E+00 -0.15271461127E+03  0.15271461127E+03  0.00000000000E+00 0. -1.
          6    1    1    2  501    0 -0.18986234115E+02  0.20454397279E+02  0.11318810636E+03  0.20861305538E+03  0.17300000000E+03 0. -1.
         -6    1    1    2    0  503  0.18986234115E+02 -0.20454397279E+02 -0.31889673524E+02  0.17811460000E+03  0.17300000000E+03 0. -1.
<mgrwt>
<rscale>  2 0.17523658E+03</rscale>
<asrwt>0</asrwt>
<pdfrwt beam="1">  1       21 0.36002007E-01 0.17523658E+03</pdfrwt>
<pdfrwt beam="2">  1       21 0.23494555E-01 0.17523658E+03</pdfrwt>
<totfact> 0.12759549E+05</totfact>
</mgrwt>
</event>
<event>
 4    1  0.4429256E+000  0.2212572E+03  0.7546771E-02  0.1132949E+00
         21   -1    0    0  503  502  0.00000000000E+00  0.00000000000E+00  0.91862403214E+02  0.91862403214E+02  0.00000000000E+00 0.  1.
         21   -1    0    0  501  503 -0.00000000000E+00 -0.00000000000E+00 -0.74695287666E+03  0.74695287666E+03  0.00000000000E+00 0. -1.
          6    1    1    2  501    0  0.89796662516E+02  0.10470106046E+03 -0.55205547770E+03  0.59474364488E+03  0.17300000000E+03 0.  1.
         -6    1    1    2    0  502 -0.89796662516E+02 -0.10470106046E+03 -0.10303499574E+03  0.24407163499E+03  0.17300000000E+03 0.  1.
<mgrwt>
<rscale>  2 0.22125721E+03</rscale>
<asrwt>0</asrwt>
<pdfrwt beam="1">  1       21 0.14132677E-01 0.22125721E+03</pdfrwt>
<pdfrwt beam="2">  1       21 0.11491583E+00 0.22125721E+03</pdfrwt>
<totfact> 0.25244749E+04</totfact>
</mgrwt>
</event>
<event>
 4    1  0.4429256E+000  0.2127854E+03  0.7546771E-02  0.1139379E+00
         21   -1    0    0  503  502  0.00000000000E+00  0.00000000000E+00  0.48046802204E+02  0.48046802204E+02  0.00000000000E+00 0.  1.
         21   -1    0    0  501  503 -0.00000000000E+00 -0.00000000000E+00 -0.98066913750E+03  0.98066913750E+03  0.00000000000E+00 0. -1.
          6    1    1    2  501    0  0.87952434168E+02  0.87252584263E+02 -0.56796523896E+03  0.60651641100E+03  0.17300000000E+03 0.  1.
         -6    1    1    2    0  502 -0.87952434168E+02 -0.87252584263E+02 -0.36465709634E+03  0.42219952871E+03  0.17300000000E+03 0. -1.
<mgrwt>
<rscale>  2 0.21278544E+03</rscale>
<asrwt>0</asrwt>
<pdfrwt beam="1">  1       21 0.73918154E-02 0.21278544E+03</pdfrwt>
<pdfrwt beam="2">  1       21 0.15087218E+00 0.21278544E+03</pdfrwt>
<totfact> 0.40049854E+04</totfact>
</mgrwt>
</event>
<event>
 4    1  0.4429256E+000  0.1903800E+03  0.7546771E-02  0.1158119E+00
         21   -1    0    0  501  502  0.00000000000E+00  0.00000000000E+00  0.68259915559E+03  0.68259915559E+03  0.00000000000E+00 0. -1.
         21   -1    0    0  502  503 -0.00000000000E+00 -0.00000000000E+00 -0.53567858478E+02  0.53567858478E+02  0.00000000000E+00 0. -1.
          6    1    1    2  501    0  0.70441304671E+02 -0.36790735679E+02  0.28003661044E+03  0.33862226569E+03  0.17300000000E+03 0. -1.
         -6    1    1    2    0  503 -0.70441304671E+02  0.36790735679E+02  0.34899468667E+03  0.39754474837E+03  0.17300000000E+03 0. -1.
<mgrwt>
<rscale>  2 0.19037998E+03</rscale>
<asrwt>0</asrwt>
<pdfrwt beam="1">  1       21 0.10501525E+00 0.19037998E+03</pdfrwt>
<pdfrwt beam="2">  1       21 0.82412095E-02 0.19037998E+03</pdfrwt>
<totfact> 0.83308452E+04</totfact>
</mgrwt>
</event>
<event>
 4    1  0.4429256E+000  0.2304898E+03  0.7546771E-02  0.1126296E+00
         21   -1    0    0  501  502  0.00000000000E+00  0.00000000000E+00  0.27264188403E+03  0.27264188403E+03  0.00000000000E+00 0. -1.
         21   -1    0    0  502  503 -0.00000000000E+00 -0.00000000000E+00 -0.26738056394E+03  0.26738056394E+03  0.00000000000E+00 0.  1.
          6    1    1    2  501    0 -0.13507050618E+03 -0.70373922298E+02  0.14325600361E+03  0.27138130582E+03  0.17300000000E+03 0. -1.
         -6    1    1    2    0  503  0.13507050618E+03  0.70373922298E+02 -0.13799468351E+03  0.26864114215E+03  0.17300000000E+03 0.  1.
<mgrwt>
<rscale>  2 0.23048976E+03</rscale>
<asrwt>0</asrwt>
<pdfrwt beam="1">  1       21 0.41944905E-01 0.23048976E+03</pdfrwt>
<pdfrwt beam="2">  1       21 0.41135471E-01 0.23048976E+03</pdfrwt>
<totfact> 0.30531668E+04</totfact>
</mgrwt>
</event>
<event>
 4    1  0.4429256E+000  0.1970407E+03  0.7546771E-02  0.1152260E+00
         21   -1    0    0  501  502  0.00000000000E+00  0.00000000000E+00  0.21019571234E+03  0.21019571234E+03  0.00000000000E+00 0.  1.
         21   -1    0    0  502  503 -0.00000000000E+00 -0.00000000000E+00 -0.22531412782E+03  0.22531412782E+03  0.00000000000E+00 0.  1.
          6    1    1    2  501    0  0.73507349568E+02  0.59099214784E+02  0.84881658621E+02  0.21454590091E+03  0.17300000000E+03 0.  1.
         -6    1    1    2    0  503 -0.73507349568E+02 -0.59099214784E+02 -0.10000007410E+03  0.22096393925E+03  0.17300000000E+03 0.  1.
<mgrwt>
<rscale>  2 0.19704073E+03</rscale>
<asrwt>0</asrwt>
<pdfrwt beam="1">  1       21 0.32337802E-01 0.19704073E+03</pdfrwt>
<pdfrwt beam="2">  1       21 0.34663712E-01 0.19704073E+03</pdfrwt>
<totfact> 0.73661510E+04</totfact>
</mgrwt>
</event>
<event>
 4    1  0.4429256E+000  0.1813213E+03  0.7546771E-02  0.1166530E+00
         21   -1    0    0  503  502  0.00000000000E+00  0.00000000000E+00  0.32059487507E+03  0.32059487507E+03  0.00000000000E+00 0. -1.
         21   -1    0    0  501  503 -0.00000000000E+00 -0.00000000000E+00 -0.12208416115E+03  0.12208416115E+03  0.00000000000E+00 0. -1.
          6    1    1    2  501    0 -0.53843117632E+02  0.70249320106E+01  0.10720989074E+02  0.18163802078E+03  0.17300000000E+03 0. -1.
         -6    1    1    2    0  502  0.53843117632E+02 -0.70249320106E+01  0.18778972484E+03  0.26104101544E+03  0.17300000000E+03 0. -1.
<mgrwt>
<rscale>  2 0.18132135E+03</rscale>
<asrwt>0</asrwt>
<pdfrwt beam="1">  1       21 0.49322288E-01 0.18132135E+03</pdfrwt>
<pdfrwt beam="2">  1       21 0.18782179E-01 0.18132135E+03</pdfrwt>
<totfact> 0.10215843E+05</totfact>
</mgrwt>
</event>
<event>
 4    1  0.4429256E+000  0.2314942E+03  0.7546771E-02  0.1125592E+00
         21   -1    0    0  501  502  0.00000000000E+00  0.00000000000E+00  0.11955399502E+04  0.11955399502E+04  0.00000000000E+00 0.  1.
         21   -1    0    0  502  503 -0.00000000000E+00 -0.00000000000E+00 -0.57952521116E+02  0.57952521116E+02  0.00000000000E+00 0.  1.
          6    1    1    2  501    0  0.15048833539E+03  0.31840723216E+02  0.86709419437E+03  0.89746415676E+03  0.17300000000E+03 0.  1.
         -6    1    1    2    0  503 -0.15048833539E+03 -0.31840723216E+02  0.27049323471E+03  0.35602831456E+03  0.17300000000E+03 0.  1.
<mgrwt>
<rscale>  2 0.23149421E+03</rscale>
<asrwt>0</asrwt>
<pdfrwt beam="1">  1       21 0.18392920E+00 0.23149421E+03</pdfrwt>
<pdfrwt beam="2">  1       21 0.89157734E-02 0.23149421E+03</pdfrwt>
<totfact> 0.16535646E+04</totfact>
</mgrwt>
</event>
<event>
 4    1  0.4429256E+000  0.1743666E+03  0.7546771E-02  0.1173369E+00
         21   -1    0    0  501  502  0.00000000000E+00  0.00000000000E+00  0.57785189457E+02  0.57785189457E+02  0.00000000000E+00 0.  1.
         21   -1    0    0  502  503 -0.00000000000E+00 -0.00000000000E+00 -0.54059661905E+03  0.54059661905E+03  0.00000000000E+00 0.  1.
          6    1    1    2  501    0 -0.18878762536E+02  0.10876963275E+02 -0.19249716331E+03  0.25972846184E+03  0.17300000000E+03 0.  1.
         -6    1    1    2    0  503  0.18878762536E+02 -0.10876963275E+02 -0.29031426628E+03  0.33865334667E+03  0.17300000000E+03 0.  1.
<mgrwt>
<rscale>  2 0.17436661E+03</rscale>
<asrwt>0</asrwt>
<pdfrwt beam="1">  1       21 0.88900294E-02 0.17436661E+03</pdfrwt>
<pdfrwt beam="2">  1       21 0.83168708E-01 0.17436661E+03</pdfrwt>
<totfact> 0.12655013E+05</totfact>
</mgrwt>
</event>
<event>
 4    1  0.4429256E+000  0.1779448E+03  0.7546771E-02  0.1169807E+00
         21   -1    0    0  501  502  0.00000000000E+00  0.00000000000E+00  0.60392831341E+02  0.60392831341E+02  0.00000000000E+00 0. -1.
         21   -1    0    0  502  503 -0.00000000000E+00 -0.00000000000E+00 -0.10404206959E+04  0.10404206959E+04  0.00000000000E+00 0. -1.
          6    1    1    2  501    0 -0.12345971778E+02 -0.39785952425E+02 -0.10235282154E+03  0.20528138032E+03  0.17300000000E+03 0. -1.
         -6    1    1    2    0  503  0.12345971778E+02  0.39785952425E+02 -0.87767504297E+03  0.89553214688E+03  0.17300000000E+03 0. -1.
<mgrwt>
<rscale>  2 0.17794478E+03</rscale>
<asrwt>0</asrwt>
<pdfrwt beam="1">  1       21 0.92912050E-02 0.17794478E+03</pdfrwt>
<pdfrwt beam="2">  1       21 0.16006472E+00 0.17794478E+03</pdfrwt>
<totfact> 0.23456013E+04</totfact>
</mgrwt>
</event>
<event>
 4    1  0.4429256E+000  0.1730822E+03  0.7546771E-02  0.1174671E+00
         21   -1    0    0  501  502  0.00000000000E+00  0.00000000000E+00  0.96978372433E+02  0.96978372433E+02  0.00000000000E+00 0. -1.
         21   -1    0    0  502  503 -0.00000000000E+00 -0.00000000000E+00 -0.31879725397E+03  0.31879725397E+03  0.00000000000E+00 0. -1.
          6    1    1    2  501    0  0.47231394924E+01  0.24750552857E+01 -0.14752323262E+03  0.22742149878E+03  0.17300000000E+03 0. -1.
         -6    1    1    2    0  503 -0.47231394924E+01 -0.24750552857E+01 -0.74295648925E+02  0.18835412763E+03  0.17300000000E+03 0. -1.
<mgrwt>
<rscale>  2 0.17308216E+03</rscale>
<asrwt>0</asrwt>
<pdfrwt beam="1">  1       21 0.14919750E-01 0.17308216E+03</pdfrwt>
<pdfrwt beam="2">  1       21 0.49045731E-01 0.17308216E+03</pdfrwt>
<totfact> 0.15811823E+05</totfact>
</mgrwt>
</event>
<event>
 4    1  0.4429256E+000  0.1832659E+03  0.7546771E-02  0.1164679E+00
         21   -1    0    0  503  502  0.00000000000E+00  0.00000000000E+00  0.70480715224E+02  0.70480715224E+02  0.00000000000E+00 0.  1.
         21   -1    0    0  501  503 -0.00000000000E+00 -0.00000000000E+00 -0.64526751336E+03  0.64526751336E+03  0.00000000000E+00 0.  1.
          6    1    1    2  501    0  0.60474199763E+02  0.52632698974E+00 -0.47039799521E+03  0.50483728048E+03  0.17300000000E+03 0.  1.
         -6    1    1    2    0  502 -0.60474199763E+02 -0.52632698974E+00 -0.10438880293E+03  0.21091094811E+03  0.17300000000E+03 0.  1.
<mgrwt>
<rscale>  2 0.18326594E+03</rscale>
<asrwt>0</asrwt>
<pdfrwt beam="1">  1       21 0.10843187E-01 0.18326594E+03</pdfrwt>
<pdfrwt beam="2">  1       21 0.99271925E-01 0.18326594E+03</pdfrwt>
<totfact> 0.58987169E+04</totfact>
</mgrwt>
</event>
<event>
 4    1  0.4429256E+000  0.2160737E+03  0.7546771E-02  0.1136845E+00
         21   -1    0    0  503  502  0.00000000000E+00  0.00000000000E+00  0.11687236785E+03  0.11687236785E+03  0.00000000000E+00 0. -1.
         21   -1    0    0  501  503 -0.00000000000E+00 -0.00000000000E+00 -0.42988920869E+03  0.42988920869E+03  0.00000000000E+00 0. -1.
          6    1    1    2  501    0 -0.69355979740E+01 -0.12926998990E+03 -0.22922159317E+03  0.31500852620E+03  0.17300000000E+03 0. -1.
         -6    1    1    2    0  502  0.69355979740E+01  0.12926998990E+03 -0.83795247667E+02  0.23175305033E+03  0.17300000000E+03 0. -1.
<mgrwt>
<rscale>  2 0.21607367E+03</rscale>
<asrwt>0</asrwt>
<pdfrwt beam="1">  1       21 0.17980365E-01 0.21607367E+03</pdfrwt>
<pdfrwt beam="2">  1       21 0.66136800E-01 0.21607367E+03</pdfrwt>
<totfact> 0.58401009E+04</totfact>
</mgrwt>
</event>
<event>
 4    1  0.4429256E+000  0.2088891E+03  0.7546771E-02  0.1142449E+00
         21   -1    0    0  503  502  0.00000000000E+00  0.00000000000E+00  0.68705584986E+02  0.68705584986E+02  0.00000000000E+00 0.  1.
         21   -1    0    0  501  503 -0.00000000000E+00 -0.00000000000E+00 -0.11650389483E+04  0.11650389483E+04  0.00000000000E+00 0.  1.
          6    1    1    2  501    0 -0.96556189120E+02 -0.66201034384E+02 -0.96421080215E+03  0.98657850453E+03  0.17300000000E+03 0.  1.
         -6    1    1    2    0  502  0.96556189120E+02  0.66201034384E+02 -0.13212256119E+03  0.24716602879E+03  0.17300000000E+03 0.  1.
<mgrwt>
<rscale>  2 0.20888914E+03</rscale>
<asrwt>0</asrwt>
<pdfrwt beam="1">  1       21 0.10570090E-01 0.20888914E+03</pdfrwt>
<pdfrwt beam="2">  1       21 0.17923675E+00 0.20888914E+03</pdfrwt>
<totfact> 0.13380773E+04</totfact>
</mgrwt>
</event>
<event>
 4    1  0.4429256E+000  0.2010082E+03  0.7546771E-02  0.1148891E+00
         21   -1    0    0  503  502  0.00000000000E+00  0.00000000000E+00  0.50848797268E+03  0.50848797268E+03  0.00000000000E+00 0.  1.
         21   -1    0    0  501  503 -0.00000000000E+00 -0.00000000000E+00 -0.87688144493E+02  0.87688144493E+02  0.00000000000E+00 0. -1.
          6    1    1    2  501    0 -0.10166282359E+03 -0.11830876161E+02  0.11908680368E+03  0.23363639730E+03  0.17300000000E+03 0. -1.
         -6    1    1    2    0  502  0.10166282359E+03  0.11830876161E+02  0.30171302451E+03  0.36253971988E+03  0.17300000000E+03 0.  1.
<mgrwt>
<rscale>  2 0.20100821E+03</rscale>
<asrwt>0</asrwt>
<pdfrwt beam="1">  1       21 0.78228917E-01 0.20100821E+03</pdfrwt>
<pdfrwt beam="2">  1       21 0.13490484E-01 0.20100821E+03</pdfrwt>
<totfact> 0.68515823E+04</totfact>
</mgrwt>
</event>
<event>
 4    1  0.4429256E+000  0.1907551E+03  0.7546771E-02  0.1157782E+00
         21   -1    0    0  503  502  0.00000000000E+00  0.00000000000E+00  0.84973819012E+02  0.84973819012E+02  0.00000000000E+00 0.  1.
         21   -1    0    0  501  503 -0.00000000000E+00 -0.00000000000E+00 -0.72843539961E+03  0.72843539961E+03  0.00000000000E+00 0.  1.
          6    1    1    2  501    0 -0.70512590170E+02  0.38554836374E+02 -0.58282663108E+03  0.61324903806E+03  0.17300000000E+03 0.  1.
         -6    1    1    2    0  502  0.70512590170E+02 -0.38554836374E+02 -0.60634949514E+02  0.20016018056E+03  0.17300000000E+03 0.  1.
<mgrwt>
<rscale>  2 0.19075508E+03</rscale>
<asrwt>0</asrwt>
<pdfrwt beam="1">  1       21 0.13072896E-01 0.19075508E+03</pdfrwt>
<pdfrwt beam="2">  1       21 0.11206698E+00 0.19075508E+03</pdfrwt>
<totfact> 0.31449929E+04</totfact>
</mgrwt>
</event>
<event>
 4    1  0.4429256E+000  0.2384975E+03  0.7546771E-02  0.1120798E+00
         21   -1    0    0  503  502  0.00000000000E+00  0.00000000000E+00  0.20347650731E+03  0.20347650731E+03  0.00000000000E+00 0.  1.
         21   -1    0    0  501  503 -0.00000000000E+00 -0.00000000000E+00 -0.53165809612E+03  0.53165809612E+03  0.00000000000E+00 0. -1.
          6    1    1    2  501    0  0.16352184811E+03  0.14582605559E+02 -0.41720556029E+03  0.48056375928E+03  0.17300000000E+03 0. -1.
         -6    1    1    2    0  502 -0.16352184811E+03 -0.14582605559E+02  0.89023971478E+02  0.25457084415E+03  0.17300000000E+03 0.  1.
<mgrwt>
<rscale>  2 0.23849748E+03</rscale>
<asrwt>0</asrwt>
<pdfrwt beam="1">  1       21 0.31304078E-01 0.23849748E+03</pdfrwt>
<pdfrwt beam="2">  1       21 0.81793554E-01 0.23849748E+03</pdfrwt>
<totfact> 0.12466568E+04</totfact>
</mgrwt>
</event>
<event>
 4    1  0.4429256E+000  0.1892812E+03  0.7546771E-02  0.1159111E+00
         21   -1    0    0  503  502  0.00000000000E+00  0.00000000000E+00  0.24218593603E+03  0.24218593603E+03  0.00000000000E+00 0. -1.
         21   -1    0    0  501  503 -0.00000000000E+00 -0.00000000000E+00 -0.16328918706E+03  0.16328918706E+03  0.00000000000E+00 0. -1.
          6    1    1    2  501    0 -0.19516491254E+02  0.74279829431E+02  0.10161992368E+03  0.21483480951E+03  0.17300000000E+03 0. -1.
         -6    1    1    2    0  502  0.19516491254E+02 -0.74279829431E+02 -0.22723174714E+02  0.19064031358E+03  0.17300000000E+03 0. -1.
<mgrwt>
<rscale>  2 0.18928124E+03</rscale>
<asrwt>0</asrwt>
<pdfrwt beam="1">  1       21 0.37259375E-01 0.18928124E+03</pdfrwt>
<pdfrwt beam="2">  1       21 0.25121413E-01 0.18928124E+03</pdfrwt>
<totfact> 0.10438966E+05</totfact>
</mgrwt>
</event>
<event>
 4    1  0.4429256E+000  0.1735023E+03  0.7546771E-02  0.1174244E+00
         21   -1    0    0  501  502  0.00000000000E+00  0.00000000000E+00  0.55548086877E+03  0.55548086877E+03  0.00000000000E+00 0.  1.
         21   -1    0    0  502  503 -0.00000000000E+00 -0.00000000000E+00 -0.12800909781E+03  0.12800909781E+03  0.00000000000E+00 0.  1.
          6    1    1    2  501    0  0.13184451859E+02  0.46785559560E+00  0.47324818069E+03  0.50405048278E+03  0.17300000000E+03 0.  1.
         -6    1    1    2    0  503 -0.13184451859E+02 -0.46785559560E+00 -0.45776409732E+02  0.17943948380E+03  0.17300000000E+03 0.  1.
<mgrwt>
<rscale>  2 0.17350230E+03</rscale>
<asrwt>0</asrwt>
<pdfrwt beam="1">  1       21 0.85458594E-01 0.17350230E+03</pdfrwt>
<pdfrwt beam="2">  1       21 0.19693708E-01 0.17350230E+03</pdfrwt>
<totfact> 0.28427972E+04</totfact>
</mgrwt>
</event>
<event>
 4    1  0.4429256E+000  0.1756212E+03  0.7546771E-02  0.1172109E+00
         21   -1    0    0  501  502  0.00000000000E+00  0.00000000000E+00  0.10808438552E+03  0.10808438552E+03  0.00000000000E+00 0. -1.
         21   -1    0    0  502  503 -0.00000000000E+00 -0.00000000000E+00 -0.34617493414E+03  0.34617493414E+03  0.00000000000E+00 0. -1.
          6    1    1    2  501    0 -0.70541070649E+01  0.29394817416E+02 -0.23845496127E+02  0.17723268153E+03  0.17300000000E+03 0. -1.
         -6    1    1    2    0  503  0.70541070649E+01 -0.29394817416E+02 -0.21424505249E+03  0.27702663813E+03  0.17300000000E+03 0. -1.
<mgrwt>
<rscale>  2 0.17562123E+03</rscale>
<asrwt>0</asrwt>
<pdfrwt beam="1">  1       21 0.16628367E-01 0.17562123E+03</pdfrwt>
<pdfrwt beam="2">  1       21 0.53257682E-01 0.17562123E+03</pdfrwt>
<totfact> 0.10915651E+05</totfact>
</mgrwt>
</event>
<event>
 4    1  0.4429256E+000  0.4317154E+03  0.7546771E-02  0.1033319E+00
         21   -1    0    0  503  502  0.00000000000E+00  0.00000000000E+00  0.58718398678E+03  0.58718398678E+03  0.00000000000E+00 0.  1.
         21   -1    0    0  501  503 -0.00000000000E+00 -0.00000000000E+00 -0.63437346455E+03  0.63437346455E+03  0.00000000000E+00 0. -1.
          6    1    1    2  501    0  0.43831921935E+02  0.39310044032E+03 -0.45532834447E+03  0.62745684699E+03  0.17300000000E+03 0. -1.
         -6    1    1    2    0  502 -0.43831921935E+02 -0.39310044032E+03  0.40813886670E+03  0.59410060433E+03  0.17300000000E+03 0.  1.
<mgrwt>
<rscale>  2 0.43171541E+03</rscale>
<asrwt>0</asrwt>
<pdfrwt beam="1">  1       21 0.90335998E-01 0.43171541E+03</pdfrwt>
<pdfrwt beam="2">  1       21 0.97595917E-01 0.43171541E+03</pdfrwt>
<totfact> 0.77159048E+02</totfact>
</mgrwt>
</event>
<event>
 4    1  0.4429256E+000  0.2708613E+03  0.7546771E-02  0.1100788E+00
         21   -1    0    0  503  502  0.00000000000E+00  0.00000000000E+00  0.13155231550E+04  0.13155231550E+04  0.00000000000E+00 0. -1.
         21   -1    0    0  501  503 -0.00000000000E+00 -0.00000000000E+00 -0.72328468897E+02  0.72328468897E+02  0.00000000000E+00 0.  1.
          6    1    1    2  501    0  0.16576342388E+03 -0.12633035093E+03  0.28956756998E+03  0.39650378036E+03  0.17300000000E+03 0.  1.
         -6    1    1    2    0  502 -0.16576342388E+03  0.12633035093E+03  0.95362711609E+03  0.99134784350E+03  0.17300000000E+03 0.  1.
<mgrwt>
<rscale>  2 0.27086135E+03</rscale>
<asrwt>0</asrwt>
<pdfrwt beam="1">  1       21 0.20238816E+00 0.27086135E+03</pdfrwt>
<pdfrwt beam="2">  1       21 0.11127458E-01 0.27086135E+03</pdfrwt>
<totfact> 0.82093400E+03</totfact>
</mgrwt>
</event>
<event>
 4    1  0.4429256E+000  0.1933857E+03  0.7546771E-02  0.1155443E+00
         21   -1    0    0  501  502  0.00000000000E+00  0.00000000000E+00  0.25741531196E+03  0.25741531196E+03  0.00000000000E+00 0.  1.
         21   -1    0    0  502  503 -0.00000000000E+00 -0.00000000000E+00 -0.45187441131E+03  0.45187441131E+03  0.00000000000E+00 0.  1.
          6    1    1    2  501    0  0.67312693171E+02 -0.54203724717E+02  0.19489285176E+03  0.27455648982E+03  0.17300000000E+03 0.  1.
         -6    1    1    2    0  503 -0.67312693171E+02  0.54203724717E+02 -0.38935195111E+03  0.43473323345E+03  0.17300000000E+03 0.  1.
<mgrwt>
<rscale>  2 0.19338573E+03</rscale>
<asrwt>0</asrwt>
<pdfrwt beam="1">  1       21 0.39602356E-01 0.19338573E+03</pdfrwt>
<pdfrwt beam="2">  1       21 0.69519139E-01 0.19338573E+03</pdfrwt>
<totfact> 0.11557888E+04</totfact>
</mgrwt>
</event>
<event>
 4    1  0.4429256E+000  0.1754271E+03  0.7546771E-02  0.1172304E+00
         21   -1    0    0  501  502  0.00000000000E+00  0.00000000000E+00  0.63214455573E+03  0.63214455573E+03  0.00000000000E+00 0.  1.
         21   -1    0    0  502  503 -0.00000000000E+00 -0.00000000000E+00 -0.58445310018E+02  0.58445310018E+02  0.00000000000E+00 0.  1.
          6    1    1    2  501    0 -0.83119074754E+01  0.27866866021E+02  0.42797112673E+03  0.46252992913E+03  0.17300000000E+03 0. -1.
         -6    1    1    2    0  503  0.83119074754E+01 -0.27866866021E+02  0.14572811898E+03  0.22805993662E+03  0.17300000000E+03 0. -1.
<mgrwt>
<rscale>  2 0.17542705E+03</rscale>
<asrwt>0</asrwt>
<pdfrwt beam="1">  1       21 0.97253004E-01 0.17542705E+03</pdfrwt>
<pdfrwt beam="2">  1       21 0.89915866E-02 0.17542705E+03</pdfrwt>
<totfact> 0.86423929E+04</totfact>
</mgrwt>
</event>
<event>
 4    1  0.4429256E+000  0.1994311E+03  0.7546771E-02  0.1150220E+00
         21   -1    0    0  501  502  0.00000000000E+00  0.00000000000E+00  0.20860610478E+03  0.20860610478E+03  0.00000000000E+00 0. -1.
         21   -1    0    0  502  503 -0.00000000000E+00 -0.00000000000E+00 -0.19094191728E+03  0.19094191728E+03  0.00000000000E+00 0. -1.
          6    1    1    2  501    0 -0.50137769701E+02  0.85615175424E+02  0.16513937840E+02  0.20011362861E+03  0.17300000000E+03 0.  1.
         -6    1    1    2    0  503  0.50137769701E+02 -0.85615175424E+02  0.11502496579E+01  0.19943439344E+03  0.17300000000E+03 0.  1.
<mgrwt>
<rscale>  2 0.19943108E+03</rscale>
<asrwt>0</asrwt>
<pdfrwt beam="1">  1       21 0.32093247E-01 0.19943108E+03</pdfrwt>
<pdfrwt beam="2">  1       21 0.29375680E-01 0.19943108E+03</pdfrwt>
<totfact> 0.10339534E+05</totfact>
</mgrwt>
</event>
<event>
 4    1  0.4429256E+000  0.2117094E+03  0.7546771E-02  0.1140219E+00
         21   -1    0    0  501  502  0.00000000000E+00  0.00000000000E+00  0.27301661387E+03  0.27301661387E+03  0.00000000000E+00 0.  1.
         21   -1    0    0  502  503 -0.00000000000E+00 -0.00000000000E+00 -0.24107901590E+03  0.24107901590E+03  0.00000000000E+00 0.  1.
          6    1    1    2  501    0 -0.12201919875E+03 -0.17832762745E+01  0.16115510554E+03  0.26606734670E+03  0.17300000000E+03 0.  1.
         -6    1    1    2    0  503  0.12201919875E+03  0.17832762745E+01 -0.12921750757E+03  0.24802828307E+03  0.17300000000E+03 0.  1.
<mgrwt>
<rscale>  2 0.21170939E+03</rscale>
<asrwt>0</asrwt>
<pdfrwt beam="1">  1       21 0.42002556E-01 0.21170939E+03</pdfrwt>
<pdfrwt beam="2">  1       21 0.37089079E-01 0.21170939E+03</pdfrwt>
<totfact> 0.37876219E+04</totfact>
</mgrwt>
</event>
<event>
 4    1  0.4429256E+000  0.1889938E+03  0.7546771E-02  0.1159372E+00
         21   -1    0    0  503  502  0.00000000000E+00  0.00000000000E+00  0.25206796704E+03  0.25206796704E+03  0.00000000000E+00 0. -1.
         21   -1    0    0  501  503 -0.00000000000E+00 -0.00000000000E+00 -0.18451349064E+03  0.18451349064E+03  0.00000000000E+00 0. -1.
          6    1    1    2  501    0  0.75425746611E+02  0.10030505483E+02 -0.71370274598E+02  0.20202071772E+03  0.17300000000E+03 0. -1.
         -6    1    1    2    0  502 -0.75425746611E+02 -0.10030505483E+02  0.13892475100E+03  0.23456073996E+03  0.17300000000E+03 0. -1.
<mgrwt>
<rscale>  2 0.18899379E+03</rscale>
<asrwt>0</asrwt>
<pdfrwt beam="1">  1       21 0.38779687E-01 0.18899379E+03</pdfrwt>
<pdfrwt beam="2">  1       21 0.28386691E-01 0.18899379E+03</pdfrwt>
<totfact> 0.76186202E+04</totfact>
</mgrwt>
</event>
<event>
 4    1  0.4429256E+000  0.2176232E+03  0.7546771E-02  0.1135668E+00
         21   -1    0    0  501  502  0.00000000000E+00  0.00000000000E+00  0.28861359320E+04  0.28861359320E+04  0.00000000000E+00 0. -1.
         21   -1    0    0  502  503 -0.00000000000E+00 -0.00000000000E+00 -0.46191318339E+02  0.46191318339E+02  0.00000000000E+00 0.  1.
          6    1    1    2  501    0 -0.12029125294E+03  0.54413787399E+02  0.25972485405E+04  0.26063499050E+04  0.17300000000E+03 0. -1.
         -6    1    1    2    0  503  0.12029125294E+03 -0.54413787399E+02  0.24269607317E+03  0.32597734541E+03  0.17300000000E+03 0.  1.
<mgrwt>
<rscale>  2 0.21762317E+03</rscale>
<asrwt>0</asrwt>
<pdfrwt beam="1">  1       21 0.44402077E+00 0.21762317E+03</pdfrwt>
<pdfrwt beam="2">  1       21 0.71063589E-02 0.21762317E+03</pdfrwt>
<totfact> 0.64613704E+02</totfact>
</mgrwt>
</event>
<event>
 4    1  0.4429256E+000  0.2224669E+03  0.7546771E-02  0.1132057E+00
         21   -1    0    0  503  502  0.00000000000E+00  0.00000000000E+00  0.36195089738E+03  0.36195089738E+03  0.00000000000E+00 0. -1.
         21   -1    0    0  501  503 -0.00000000000E+00 -0.00000000000E+00 -0.13917640661E+03  0.13917640661E+03  0.00000000000E+00 0.  1.
          6    1    1    2  501    0  0.13448312776E+03 -0.38429254668E+02  0.14457020995E+03  0.26531502949E+03  0.17300000000E+03 0.  1.
         -6    1    1    2    0  502 -0.13448312776E+03  0.38429254668E+02  0.78204280831E+02  0.23581227451E+03  0.17300000000E+03 0.  1.
<mgrwt>
<rscale>  2 0.22246689E+03</rscale>
<asrwt>0</asrwt>
<pdfrwt beam="1">  1       21 0.55684753E-01 0.22246689E+03</pdfrwt>
<pdfrwt beam="2">  1       21 0.21411755E-01 0.22246689E+03</pdfrwt>
<totfact> 0.60898967E+04</totfact>
</mgrwt>
</event>
<event>
 4    1  0.4429256E+000  0.3106970E+03  0.7546771E-02  0.1080012E+00
         21   -1    0    0  503  502  0.00000000000E+00  0.00000000000E+00  0.83755272318E+03  0.83755272318E+03  0.00000000000E+00 0.  1.
         21   -1    0    0  501  503 -0.00000000000E+00 -0.00000000000E+00 -0.25490671190E+03  0.25490671190E+03  0.00000000000E+00 0.  1.
          6    1    1    2  501    0 -0.23715701216E+03  0.10178503126E+03 -0.11297992449E+03  0.33060112574E+03  0.17300000000E+03 0.  1.
         -6    1    1    2    0  502  0.23715701216E+03 -0.10178503126E+03  0.69562593576E+03  0.76185830934E+03  0.17300000000E+03 0.  1.
<mgrwt>
<rscale>  2 0.31069702E+03</rscale>
<asrwt>0</asrwt>
<pdfrwt beam="1">  1       21 0.12885426E+00 0.31069702E+03</pdfrwt>
<pdfrwt beam="2">  1       21 0.39216418E-01 0.31069702E+03</pdfrwt>
<totfact> 0.25471220E+03</totfact>
</mgrwt>
</event>
<event>
 4    1  0.4429256E+000  0.1884303E+03  0.7546771E-02  0.1159885E+00
         21   -1    0    0  503  502  0.00000000000E+00  0.00000000000E+00  0.13226934894E+04  0.13226934894E+04  0.00000000000E+00 0. -1.
         21   -1    0    0  501  503 -0.00000000000E+00 -0.00000000000E+00 -0.46740041599E+02  0.46740041599E+02  0.00000000000E+00 0.  1.
          6    1    1    2  501    0  0.36464087573E+02 -0.65171570393E+02  0.19123838348E+03  0.26847361618E+03  0.17300000000E+03 0.  1.
         -6    1    1    2    0  502 -0.36464087573E+02  0.65171570393E+02  0.10847150643E+04  0.11009599148E+04  0.17300000000E+03 0. -1.
<mgrwt>
<rscale>  2 0.18843026E+03</rscale>
<asrwt>0</asrwt>
<pdfrwt beam="1">  1       21 0.20349128E+00 0.18843026E+03</pdfrwt>
<pdfrwt beam="2">  1       21 0.71907766E-02 0.18843026E+03</pdfrwt>
<totfact> 0.18477998E+04</totfact>
</mgrwt>
</event>
<event>
 4    1  0.4429256E+000  0.1848687E+03  0.7546771E-02  0.1163173E+00
         21   -1    0    0  501  502  0.00000000000E+00  0.00000000000E+00  0.48243688171E+03  0.48243688171E+03  0.00000000000E+00 0.  1.
         21   -1    0    0  502  503 -0.00000000000E+00 -0.00000000000E+00 -0.32602892118E+03  0.32602892118E+03  0.00000000000E+00 0. -1.
          6    1    1    2  501    0 -0.19509343095E+02  0.62183862135E+02  0.43583354363E+03  0.47342087505E+03  0.17300000000E+03 0.  1.
         -6    1    1    2    0  503  0.19509343095E+02 -0.62183862135E+02 -0.27942558310E+03  0.33504492784E+03  0.17300000000E+03 0. -1.
<mgrwt>
<rscale>  2 0.18486873E+03</rscale>
<asrwt>0</asrwt>
<pdfrwt beam="1">  1       21 0.74221059E-01 0.18486873E+03</pdfrwt>
<pdfrwt beam="2">  1       21 0.50158295E-01 0.18486873E+03</pdfrwt>
<totfact> 0.61966768E+03</totfact>
</mgrwt>
</event>
<event>
 4    1  0.4429256E+000  0.2303602E+03  0.7546771E-02  0.1126386E+00
         21   -1    0    0  503  502  0.00000000000E+00  0.00000000000E+00  0.81455435447E+02  0.81455435447E+02  0.00000000000E+00 0.  1.
         21   -1    0    0  501  503 -0.00000000000E+00 -0.00000000000E+00 -0.12197101988E+04  0.12197101988E+04  0.00000000000E+00 0.  1.
          6    1    1    2  501    0 -0.13639382587E+03 -0.67331726946E+02 -0.10131856230E+04  0.10390432829E+04  0.17300000000E+03 0.  1.
         -6    1    1    2    0  502  0.13639382587E+03  0.67331726946E+02 -0.12506914039E+03  0.26212235133E+03  0.17300000000E+03 0.  1.
<mgrwt>
<rscale>  2 0.23036023E+03</rscale>
<asrwt>0</asrwt>
<pdfrwt beam="1">  1       21 0.12531606E-01 0.23036023E+03</pdfrwt>
<pdfrwt beam="2">  1       21 0.18764771E+00 0.23036023E+03</pdfrwt>
<totfact> 0.85199349E+03</totfact>
</mgrwt>
</event>
<event>
 4    1  0.4429256E+000  0.1871297E+03  0.7546771E-02  0.1161076E+00
         21   -1    0    0  503  502  0.00000000000E+00  0.00000000000E+00  0.10937818048E+03  0.10937818048E+03  0.00000000000E+00 0. -1.
         21   -1    0    0  501  503 -0.00000000000E+00 -0.00000000000E+00 -0.32377004491E+03  0.32377004491E+03  0.00000000000E+00 0. -1.
          6    1    1    2  501    0 -0.68653062900E+02 -0.19371970824E+02 -0.13009378873E+03  0.22790767904E+03  0.17300000000E+03 0. -1.
         -6    1    1    2    0  502  0.68653062900E+02  0.19371970824E+02 -0.84298075704E+02  0.20524054635E+03  0.17300000000E+03 0. -1.
<mgrwt>
<rscale>  2 0.18712968E+03</rscale>
<asrwt>0</asrwt>
<pdfrwt beam="1">  1       21 0.16827412E-01 0.18712968E+03</pdfrwt>
<pdfrwt beam="2">  1       21 0.49810776E-01 0.18712968E+03</pdfrwt>
<totfact> 0.12232434E+05</totfact>
</mgrwt>
</event>
<event>
 4    1  0.4429256E+000  0.1850367E+03  0.7546771E-02  0.1163016E+00
         21   -1    0    0  501  502  0.00000000000E+00  0.00000000000E+00  0.16271848956E+03  0.16271848956E+03  0.00000000000E+00 0.  1.
         21   -1    0    0  502  503 -0.00000000000E+00 -0.00000000000E+00 -0.21063344207E+03  0.21063344207E+03  0.00000000000E+00 0.  1.
          6    1    1    2  501    0 -0.32507879743E+02  0.57033332565E+02 -0.17958729295E+02  0.18590610325E+03  0.17300000000E+03 0.  1.
         -6    1    1    2    0  503  0.32507879743E+02 -0.57033332565E+02 -0.29956223217E+02  0.18744582838E+03  0.17300000000E+03 0.  1.
<mgrwt>
<rscale>  2 0.18503665E+03</rscale>
<asrwt>0</asrwt>
<pdfrwt beam="1">  1       21 0.25033614E-01 0.18503665E+03</pdfrwt>
<pdfrwt beam="2">  1       21 0.32405145E-01 0.18503665E+03</pdfrwt>
<totfact> 0.13878132E+05</totfact>
</mgrwt>
</event>
<event>
 4    1  0.4429256E+000  0.1755841E+03  0.7546771E-02  0.1172147E+00
         21   -1    0    0  503  502  0.00000000000E+00  0.00000000000E+00  0.14432844757E+04  0.14432844757E+04  0.00000000000E+00 0. -1.
         21   -1    0    0  501  503 -0.00000000000E+00 -0.00000000000E+00 -0.21429606197E+02  0.21429606197E+02  0.00000000000E+00 0. -1.
          6    1    1    2  501    0 -0.13532005542E+02  0.26789019420E+02  0.66944084865E+03  0.69208439989E+03  0.17300000000E+03 0.  1.
         -6    1    1    2    0  502  0.13532005542E+02 -0.26789019420E+02  0.75241402082E+03  0.77262968197E+03  0.17300000000E+03 0.  1.
<mgrwt>
<rscale>  2 0.17558407E+03</rscale>
<asrwt>0</asrwt>
<pdfrwt beam="1">  1       21 0.22204369E+00 0.17558407E+03</pdfrwt>
<pdfrwt beam="2">  1       21 0.32968636E-02 0.17558407E+03</pdfrwt>
<totfact> 0.53529911E+04</totfact>
</mgrwt>
</event>
<event>
 4    1  0.4429256E+000  0.1792089E+03  0.7546771E-02  0.1168571E+00
         21   -1    0    0  503  502  0.00000000000E+00  0.00000000000E+00  0.11112343049E+04  0.11112343049E+04  0.00000000000E+00 0. -1.
         21   -1    0    0  501  503 -0.00000000000E+00 -0.00000000000E+00 -0.12654310068E+03  0.12654310068E+03  0.00000000000E+00 0. -1.
          6    1    1    2  501    0  0.21379155470E+02  0.41590233100E+02 -0.51294906497E+02  0.18640542699E+03  0.17300000000E+03 0. -1.
         -6    1    1    2    0  502 -0.21379155470E+02 -0.41590233100E+02  0.10359861107E+04  0.10513719786E+04  0.17300000000E+03 0. -1.
<mgrwt>
<rscale>  2 0.17920886E+03</rscale>
<asrwt>0</asrwt>
<pdfrwt beam="1">  1       21 0.17095912E+00 0.17920886E+03</pdfrwt>
<pdfrwt beam="2">  1       21 0.19468170E-01 0.17920886E+03</pdfrwt>
<totfact> 0.51612778E+03</totfact>
</mgrwt>
</event>
<event>
 4    1  0.4429256E+000  0.2140856E+03  0.7546771E-02  0.1138371E+00
         21   -1    0    0  501  502  0.00000000000E+00  0.00000000000E+00  0.86145517044E+03  0.86145517044E+03  0.00000000000E+00 0.  1.
         21   -1    0    0  502  503 -0.00000000000E+00 -0.00000000000E+00 -0.55416552390E+02  0.55416552390E+02  0.00000000000E+00 0.  1.
          6    1    1    2  501    0 -0.64488541516E+02  0.10837374119E+03  0.49462676094E+03  0.53896963959E+03  0.17300000000E+03 0.  1.
         -6    1    1    2    0  503  0.64488541516E+02 -0.10837374119E+03  0.31141185712E+03  0.37790208324E+03  0.17300000000E+03 0.  1.
<mgrwt>
<rscale>  2 0.21408559E+03</rscale>
<asrwt>0</asrwt>
<pdfrwt beam="1">  1       21 0.13253156E+00 0.21408559E+03</pdfrwt>
<pdfrwt beam="2">  1       21 0.85256241E-02 0.21408559E+03</pdfrwt>
<totfact> 0.43693905E+04</totfact>
</mgrwt>
</event>
<event>
 4    1  0.4429256E+000  0.1825656E+03  0.7546771E-02  0.1165343E+00
         21   -1    0    0  503  502  0.00000000000E+00  0.00000000000E+00  0.24595123620E+02  0.24595123620E+02  0.00000000000E+00 0.  1.
         21   -1    0    0  501  503 -0.00000000000E+00 -0.00000000000E+00 -0.14313312400E+04  0.14313312400E+04  0.00000000000E+00 0.  1.
          6    1    1    2  501    0  0.26930327062E+02  0.51729575533E+02 -0.87130670190E+03  0.89022781369E+03  0.17300000000E+03 0.  1.
         -6    1    1    2    0  502 -0.26930327062E+02 -0.51729575533E+02 -0.53542941453E+03  0.56569854997E+03  0.17300000000E+03 0.  1.
<mgrwt>
<rscale>  2 0.18256558E+03</rscale>
<asrwt>0</asrwt>
<pdfrwt beam="1">  1       21 0.37838646E-02 0.18256558E+03</pdfrwt>
<pdfrwt beam="2">  1       21 0.22020484E+00 0.18256558E+03</pdfrwt>
<totfact> 0.43451385E+04</totfact>
</mgrwt>
</event>
<event>
 4    1  0.4429256E+000  0.2919687E+03  0.7546771E-02  0.1089326E+00
         21   -1    0    0  501  502  0.00000000000E+00  0.00000000000E+00  0.34221150602E+03  0.34221150602E+03  0.00000000000E+00 0.  1.
         21   -1    0    0  502  503 -0.00000000000E+00 -0.00000000000E+00 -0.96953957383E+03  0.96953957383E+03  0.00000000000E+00 0. -1.
          6    1    1    2  501    0 -0.69358767896E+02 -0.22473560112E+03  0.25171109840E+03  0.38549216095E+03  0.17300000000E+03 0.  1.
         -6    1    1    2    0  503  0.69358767896E+02  0.22473560112E+03 -0.87903916622E+03  0.92625891890E+03  0.17300000000E+03 0. -1.
<mgrwt>
<rscale>  2 0.29196871E+03</rscale>
<asrwt>0</asrwt>
<pdfrwt beam="1">  1       21 0.52647924E-01 0.29196871E+03</pdfrwt>
<pdfrwt beam="2">  1       21 0.14915993E+00 0.29196871E+03</pdfrwt>
<totfact> 0.95281394E+02</totfact>
</mgrwt>
</event>
<event>
 4    1  0.4429256E+000  0.1946752E+03  0.7546771E-02  0.1154311E+00
         21   -1    0    0  501  502  0.00000000000E+00  0.00000000000E+00  0.21808400586E+03  0.21808400586E+03  0.00000000000E+00 0.  1.
         21   -1    0    0  502  503 -0.00000000000E+00 -0.00000000000E+00 -0.22831801730E+03  0.22831801730E+03  0.00000000000E+00 0.  1.
          6    1    1    2  501    0  0.18406116049E+02 -0.87353663928E+02  0.10397155780E+03  0.22070009638E+03  0.17300000000E+03 0.  1.
         -6    1    1    2    0  503 -0.18406116049E+02  0.87353663928E+02 -0.11420556924E+03  0.22570192679E+03  0.17300000000E+03 0.  1.
<mgrwt>
<rscale>  2 0.19467524E+03</rscale>
<asrwt>0</asrwt>
<pdfrwt beam="1">  1       21 0.33551386E-01 0.19467524E+03</pdfrwt>
<pdfrwt beam="2">  1       21 0.35125849E-01 0.19467524E+03</pdfrwt>
<totfact> 0.66797075E+04</totfact>
</mgrwt>
</event>
<event>
 4    1  0.4429256E+000  0.1743606E+03  0.7546771E-02  0.1173375E+00
         21   -1    0    0  501  502  0.00000000000E+00  0.00000000000E+00  0.27066387335E+03  0.27066387335E+03  0.00000000000E+00 0.  1.
         21   -1    0    0  502  503 -0.00000000000E+00 -0.00000000000E+00 -0.12074461871E+03  0.12074461871E+03  0.00000000000E+00 0.  1.
          6    1    1    2  501    0  0.13464017600E+02 -0.17068482684E+02  0.12664645729E+03  0.21550159632E+03  0.17300000000E+03 0. -1.
         -6    1    1    2    0  503 -0.13464017600E+02  0.17068482684E+02  0.23272797349E+02  0.17590689574E+03  0.17300000000E+03 0. -1.
<mgrwt>
<rscale>  2 0.17436058E+03</rscale>
<asrwt>0</asrwt>
<pdfrwt beam="1">  1       21 0.41640596E-01 0.17436058E+03</pdfrwt>
<pdfrwt beam="2">  1       21 0.18576095E-01 0.17436058E+03</pdfrwt>
<totfact> 0.14793972E+05</totfact>
</mgrwt>
</event>
<event>
 4    1  0.4429256E+000  0.2452507E+03  0.7546771E-02  0.1116344E+00
         21   -1    0    0  501  502  0.00000000000E+00  0.00000000000E+00  0.43439484974E+03  0.43439484974E+03  0.00000000000E+00 0.  1.
         21   -1    0    0  502  503 -0.00000000000E+00 -0.00000000000E+00 -0.58121662886E+03  0.58121662886E+03  0.00000000000E+00 0. -1.
          6    1    1    2  501    0  0.10197413055E+03  0.14078419105E+03  0.36979887306E+03  0.44373316111E+03  0.17300000000E+03 0.  1.
         -6    1    1    2    0  503 -0.10197413055E+03 -0.14078419105E+03 -0.51662065219E+03  0.57187831749E+03  0.17300000000E+03 0. -1.
<mgrwt>
<rscale>  2 0.24525071E+03</rscale>
<asrwt>0</asrwt>
<pdfrwt beam="1">  1       21 0.66829977E-01 0.24525071E+03</pdfrwt>
<pdfrwt beam="2">  1       21 0.89417943E-01 0.24525071E+03</pdfrwt>
<totfact> 0.20958702E+03</totfact>
</mgrwt>
</event>
<event>
 4    1  0.4429256E+000  0.1802235E+03  0.7546771E-02  0.1167587E+00
         21   -1    0    0  501  502  0.00000000000E+00  0.00000000000E+00  0.38399247230E+03  0.38399247230E+03  0.00000000000E+00 0.  1.
         21   -1    0    0  502  503 -0.00000000000E+00 -0.00000000000E+00 -0.12293001081E+03  0.12293001081E+03  0.00000000000E+00 0.  1.
          6    1    1    2  501    0 -0.23733830125E+02 -0.44589587715E+02  0.27208756927E+03  0.32636202502E+03  0.17300000000E+03 0.  1.
         -6    1    1    2    0  503  0.23733830125E+02  0.44589587715E+02 -0.11025107781E+02  0.18056045809E+03  0.17300000000E+03 0.  1.
<mgrwt>
<rscale>  2 0.18022354E+03</rscale>
<asrwt>0</asrwt>
<pdfrwt beam="1">  1       21 0.59075764E-01 0.18022354E+03</pdfrwt>
<pdfrwt beam="2">  1       21 0.18912310E-01 0.18022354E+03</pdfrwt>
<totfact> 0.68996095E+04</totfact>
</mgrwt>
</event>
<event>
 4    1  0.4429256E+000  0.1982486E+03  0.7546771E-02  0.1151225E+00
         21   -1    0    0  503  502  0.00000000000E+00  0.00000000000E+00  0.21188088069E+03  0.21188088069E+03  0.00000000000E+00 0.  1.
         21   -1    0    0  501  503 -0.00000000000E+00 -0.00000000000E+00 -0.19410672620E+03  0.19410672620E+03  0.00000000000E+00 0.  1.
          6    1    1    2  501    0 -0.75331564048E+02  0.60816622189E+02 -0.33873917796E+02  0.20112172529E+03  0.17300000000E+03 0.  1.
         -6    1    1    2    0  502  0.75331564048E+02 -0.60816622189E+02  0.51648072288E+02  0.20486588161E+03  0.17300000000E+03 0.  1.
<mgrwt>
<rscale>  2 0.19824860E+03</rscale>
<asrwt>0</asrwt>
<pdfrwt beam="1">  1       21 0.32597059E-01 0.19824860E+03</pdfrwt>
<pdfrwt beam="2">  1       21 0.29862573E-01 0.19824860E+03</pdfrwt>
<totfact> 0.97161925E+04</totfact>
</mgrwt>
</event>
<event>
 4    1  0.4429256E+000  0.2276605E+03  0.7546771E-02  0.1128297E+00
         21   -1    0    0  501  502  0.00000000000E+00  0.00000000000E+00  0.37661419455E+02  0.37661419455E+02  0.00000000000E+00 0.  1.
         21   -1    0    0  502  503 -0.00000000000E+00 -0.00000000000E+00 -0.21849232047E+04  0.21849232047E+04  0.00000000000E+00 0.  1.
          6    1    1    2  501    0 -0.14229809052E+03 -0.40639294620E+02 -0.39752823224E+03  0.45810260233E+03  0.17300000000E+03 0.  1.
         -6    1    1    2    0  503  0.14229809052E+03  0.40639294620E+02 -0.17497335530E+04  0.17644820218E+04  0.17300000000E+03 0.  1.
<mgrwt>
<rscale>  2 0.22766049E+03</rscale>
<asrwt>0</asrwt>
<pdfrwt beam="1">  1       21 0.57940621E-02 0.22766049E+03</pdfrwt>
<pdfrwt beam="2">  1       21 0.33614217E+00 0.22766049E+03</pdfrwt>
<totfact> 0.42365245E+03</totfact>
</mgrwt>
</event>
<event>
 4    1  0.4429256E+000  0.2558836E+03  0.7546771E-02  0.1109642E+00
         21   -1    0    0  501  502  0.00000000000E+00  0.00000000000E+00  0.38683204350E+03  0.38683204350E+03  0.00000000000E+00 0. -1.
         21   -1    0    0  502  503 -0.00000000000E+00 -0.00000000000E+00 -0.30140911594E+03  0.30140911594E+03  0.00000000000E+00 0. -1.
          6    1    1    2  501    0  0.13466091728E+02 -0.18805870587E+03  0.27056690263E+03  0.37240147862E+03  0.17300000000E+03 0. -1.
         -6    1    1    2    0  503 -0.13466091728E+02  0.18805870587E+03 -0.18514397507E+03  0.31583968082E+03  0.17300000000E+03 0. -1.
<mgrwt>
<rscale>  2 0.25588359E+03</rscale>
<asrwt>0</asrwt>
<pdfrwt beam="1">  1       21 0.59512622E-01 0.25588359E+03</pdfrwt>
<pdfrwt beam="2">  1       21 0.46370633E-01 0.25588359E+03</pdfrwt>
<totfact> 0.11309151E+04</totfact>
</mgrwt>
</event>
<event>
 4    1  0.4429256E+000  0.1746610E+03  0.7546771E-02  0.1173072E+00
         21   -1    0    0  501  502  0.00000000000E+00  0.00000000000E+00  0.25473998951E+03  0.25473998951E+03  0.00000000000E+00 0.  1.
         21   -1    0    0  502  503 -0.00000000000E+00 -0.00000000000E+00 -0.12112219549E+03  0.12112219549E+03  0.00000000000E+00 0.  1.
          6    1    1    2  501    0  0.10355159298E+02  0.21685165678E+02  0.86772872329E+02  0.19502822131E+03  0.17300000000E+03 0. -1.
         -6    1    1    2    0  503 -0.10355159298E+02 -0.21685165678E+02  0.46844921687E+02  0.18083396369E+03  0.17300000000E+03 0. -1.
<mgrwt>
<rscale>  2 0.17466103E+03</rscale>
<asrwt>0</asrwt>
<pdfrwt beam="1">  1       21 0.39190768E-01 0.17466103E+03</pdfrwt>
<pdfrwt beam="2">  1       21 0.18634184E-01 0.17466103E+03</pdfrwt>
<totfact> 0.16621703E+05</totfact>
</mgrwt>
</event>
<event>
 4    1  0.4429256E+000  0.1749766E+03  0.7546771E-02  0.1172755E+00
         21   -1    0    0  501  502  0.00000000000E+00  0.00000000000E+00  0.44923757371E+02  0.44923757371E+02  0.00000000000E+00 0. -1.
         21   -1    0    0  502  503 -0.00000000000E+00 -0.00000000000E+00 -0.89579782079E+03  0.89579782079E+03  0.00000000000E+00 0. -1.
          6    1    1    2  501    0 -0.10804446444E+02  0.23896859525E+02 -0.19539527771E+03  0.26229012659E+03  0.17300000000E+03 0. -1.
         -6    1    1    2    0  503  0.10804446444E+02 -0.23896859525E+02 -0.65547878571E+03  0.67843145157E+03  0.17300000000E+03 0. -1.
<mgrwt>
<rscale>  2 0.17497656E+03</rscale>
<asrwt>0</asrwt>
<pdfrwt beam="1">  1       21 0.69113478E-02 0.17497656E+03</pdfrwt>
<pdfrwt beam="2">  1       21 0.13781504E+00 0.17497656E+03</pdfrwt>
<totfact> 0.58164656E+04</totfact>
</mgrwt>
</event>
<event>
 4    1  0.4429256E+000  0.1755769E+03  0.7546771E-02  0.1172154E+00
         21   -1    0    0  503  502  0.00000000000E+00  0.00000000000E+00  0.15403202848E+04  0.15403202848E+04  0.00000000000E+00 0.  1.
         21   -1    0    0  501  503 -0.00000000000E+00 -0.00000000000E+00 -0.31312342734E+02  0.31312342734E+02  0.00000000000E+00 0.  1.
          6    1    1    2  501    0  0.15864248723E+02  0.25427767790E+02  0.12265449158E+04  0.12390478910E+04  0.17300000000E+03 0.  1.
         -6    1    1    2    0  502 -0.15864248723E+02 -0.25427767790E+02  0.28246302634E+03  0.33258473659E+03  0.17300000000E+03 0.  1.
<mgrwt>
<rscale>  2 0.17557689E+03</rscale>
<asrwt>0</asrwt>
<pdfrwt beam="1">  1       21 0.23697229E+00 0.17557689E+03</pdfrwt>
<pdfrwt beam="2">  1       21 0.48172847E-02 0.17557689E+03</pdfrwt>
<totfact> 0.23086616E+04</totfact>
</mgrwt>
</event>
<event>
 4    1  0.4429256E+000  0.2436590E+03  0.7546771E-02  0.1117379E+00
         21   -1    0    0  503  502  0.00000000000E+00  0.00000000000E+00  0.70914991745E+03  0.70914991745E+03  0.00000000000E+00 0.  1.
         21   -1    0    0  501  503 -0.00000000000E+00 -0.00000000000E+00 -0.18013964950E+03  0.18013964950E+03  0.00000000000E+00 0.  1.
          6    1    1    2  501    0 -0.13382444543E+03 -0.10738591957E+03 -0.60801045870E+02  0.25113041452E+03  0.17300000000E+03 0.  1.
         -6    1    1    2    0  502  0.13382444543E+03  0.10738591957E+03  0.58981131382E+03  0.63815915243E+03  0.17300000000E+03 0.  1.
<mgrwt>
<rscale>  2 0.24365902E+03</rscale>
<asrwt>0</asrwt>
<pdfrwt beam="1">  1       21 0.10909999E+00 0.24365902E+03</pdfrwt>
<pdfrwt beam="2">  1       21 0.27713793E-01 0.24365902E+03</pdfrwt>
<totfact> 0.79981770E+03</totfact>
</mgrwt>
</event>
<event>
 4    1  0.4429256E+000  0.2025749E+03  0.7546771E-02  0.1147585E+00
         21   -1    0    0  501  502  0.00000000000E+00  0.00000000000E+00  0.52614825196E+02  0.52614825196E+02  0.00000000000E+00 0.  1.
         21   -1    0    0  502  503 -0.00000000000E+00 -0.00000000000E+00 -0.96076681585E+03  0.96076681585E+03  0.00000000000E+00 0. -1.
          6    1    1    2  501    0  0.10414488545E+03  0.16168816211E+02 -0.23425897067E+03  0.30969961757E+03  0.17300000000E+03 0. -1.
         -6    1    1    2    0  503 -0.10414488545E+03 -0.16168816211E+02 -0.67389301998E+03  0.70368202348E+03  0.17300000000E+03 0. -1.
<mgrwt>
<rscale>  2 0.20257489E+03</rscale>
<asrwt>0</asrwt>
<pdfrwt beam="1">  1       21 0.80945890E-02 0.20257489E+03</pdfrwt>
<pdfrwt beam="2">  1       21 0.14781027E+00 0.20257489E+03</pdfrwt>
<totfact> 0.36308610E+04</totfact>
</mgrwt>
</event>
<event>
 4    1  0.4429256E+000  0.2000430E+03  0.7546771E-02  0.1149703E+00
         21   -1    0    0  501  502  0.00000000000E+00  0.00000000000E+00  0.25054485244E+03  0.25054485244E+03  0.00000000000E+00 0. -1.
         21   -1    0    0  502  503 -0.00000000000E+00 -0.00000000000E+00 -0.16115117119E+03  0.16115117119E+03  0.00000000000E+00 0.  1.
          6    1    1    2  501    0  0.91926652777E+02  0.40468257018E+02  0.64091202626E+02  0.21005920968E+03  0.17300000000E+03 0.  1.
         -6    1    1    2    0  503 -0.91926652777E+02 -0.40468257018E+02  0.25302478617E+02  0.20163681395E+03  0.17300000000E+03 0.  1.
<mgrwt>
<rscale>  2 0.20004297E+03</rscale>
<asrwt>0</asrwt>
<pdfrwt beam="1">  1       21 0.38545362E-01 0.20004297E+03</pdfrwt>
<pdfrwt beam="2">  1       21 0.24792488E-01 0.20004297E+03</pdfrwt>
<totfact> 0.99585661E+04</totfact>
</mgrwt>
</event>
<event>
 4    1  0.4429256E+000  0.2225462E+03  0.7546771E-02  0.1131999E+00
         21   -1    0    0  503  502  0.00000000000E+00  0.00000000000E+00  0.33475506078E+03  0.33475506078E+03  0.00000000000E+00 0.  1.
         21   -1    0    0  501  503 -0.00000000000E+00 -0.00000000000E+00 -0.27389101337E+03  0.27389101337E+03  0.00000000000E+00 0. -1.
          6    1    1    2  501    0 -0.12275904950E+03  0.67290686841E+02 -0.17593034812E+03  0.28368698976E+03  0.17300000000E+03 0. -1.
         -6    1    1    2    0  502  0.12275904950E+03 -0.67290686841E+02  0.23679439553E+03  0.32495908439E+03  0.17300000000E+03 0.  1.
<mgrwt>
<rscale>  2 0.22254622E+03</rscale>
<asrwt>0</asrwt>
<pdfrwt beam="1">  1       21 0.51500779E-01 0.22254622E+03</pdfrwt>
<pdfrwt beam="2">  1       21 0.42137079E-01 0.22254622E+03</pdfrwt>
<totfact> 0.19078897E+04</totfact>
</mgrwt>
</event>
<event>
 4    1  0.4429256E+000  0.1860334E+03  0.7546771E-02  0.1162088E+00
         21   -1    0    0  501  502  0.00000000000E+00  0.00000000000E+00  0.69841224231E+03  0.69841224231E+03  0.00000000000E+00 0. -1.
         21   -1    0    0  502  503 -0.00000000000E+00 -0.00000000000E+00 -0.32619372825E+03  0.32619372825E+03  0.00000000000E+00 0. -1.
          6    1    1    2  501    0  0.81217542002E+01  0.67922395485E+02  0.65789754012E+03  0.68369407486E+03  0.17300000000E+03 0. -1.
         -6    1    1    2    0  503 -0.81217542002E+01 -0.67922395485E+02 -0.28567902606E+03  0.34091189570E+03  0.17300000000E+03 0. -1.
<mgrwt>
<rscale>  2 0.18603337E+03</rscale>
<asrwt>0</asrwt>
<pdfrwt beam="1">  1       21 0.10744804E+00 0.18603337E+03</pdfrwt>
<pdfrwt beam="2">  1       21 0.50183651E-01 0.18603337E+03</pdfrwt>
<totfact> 0.26291819E+03</totfact>
</mgrwt>
</event>
<event>
 4    1  0.4429256E+000  0.2027928E+03  0.7546771E-02  0.1147404E+00
         21   -1    0    0  503  502  0.00000000000E+00  0.00000000000E+00  0.58525743140E+03  0.58525743140E+03  0.00000000000E+00 0.  1.
         21   -1    0    0  501  503 -0.00000000000E+00 -0.00000000000E+00 -0.10083265314E+03  0.10083265314E+03  0.00000000000E+00 0.  1.
          6    1    1    2  501    0  0.46029792466E+02  0.95274230192E+02  0.53343833084E+02  0.20969140483E+03  0.17300000000E+03 0.  1.
         -6    1    1    2    0  502 -0.46029792466E+02 -0.95274230192E+02  0.43108094518E+03  0.47639867971E+03  0.17300000000E+03 0.  1.
<mgrwt>
<rscale>  2 0.20279280E+03</rscale>
<asrwt>0</asrwt>
<pdfrwt beam="1">  1       21 0.90039603E-01 0.20279280E+03</pdfrwt>
<pdfrwt beam="2">  1       21 0.15512716E-01 0.20279280E+03</pdfrwt>
<totfact> 0.38513132E+04</totfact>
</mgrwt>
</event>
<event>
 4    1  0.4429256E+000  0.3350489E+03  0.7546771E-02  0.1068924E+00
         21   -1    0    0  503  502  0.00000000000E+00  0.00000000000E+00  0.57866969384E+02  0.57866969384E+02  0.00000000000E+00 0. -1.
         21   -1    0    0  501  503 -0.00000000000E+00 -0.00000000000E+00 -0.20841749774E+04  0.20841749774E+04  0.00000000000E+00 0.  1.
          6    1    1    2  501    0 -0.26832981865E+03 -0.10162602650E+03 -0.12949174140E+04  0.13375607836E+04  0.17300000000E+03 0. -1.
         -6    1    1    2    0  502  0.26832981865E+03  0.10162602650E+03 -0.73139059402E+03  0.80448116315E+03  0.17300000000E+03 0. -1.
<mgrwt>
<rscale>  2 0.33504886E+03</rscale>
<asrwt>0</asrwt>
<pdfrwt beam="1">  1       21 0.89026092E-02 0.33504886E+03</pdfrwt>
<pdfrwt beam="2">  1       21 0.32064236E+00 0.33504886E+03</pdfrwt>
<totfact> 0.22527095E+03</totfact>
</mgrwt>
</event>
<event>
 4    1  0.4429256E+000  0.2471619E+03  0.7546771E-02  0.1115112E+00
         21   -1    0    0  503  502  0.00000000000E+00  0.00000000000E+00  0.53348241175E+03  0.53348241175E+03  0.00000000000E+00 0.  1.
         21   -1    0    0  501  503 -0.00000000000E+00 -0.00000000000E+00 -0.13561214743E+03  0.13561214743E+03  0.00000000000E+00 0.  1.
          6    1    1    2  501    0  0.17524665229E+03  0.21180275622E+02  0.66965795900E+02  0.25607305800E+03  0.17300000000E+03 0.  1.
         -6    1    1    2    0  502 -0.17524665229E+03 -0.21180275622E+02  0.33090446842E+03  0.41302150118E+03  0.17300000000E+03 0.  1.
<mgrwt>
<rscale>  2 0.24716188E+03</rscale>
<asrwt>0</asrwt>
<pdfrwt beam="1">  1       21 0.82074216E-01 0.24716188E+03</pdfrwt>
<pdfrwt beam="2">  1       21 0.20863408E-01 0.24716188E+03</pdfrwt>
<totfact> 0.26899078E+04</totfact>
</mgrwt>
</event>
<event>
 4    1  0.4429256E+000  0.1856570E+03  0.7546771E-02  0.1162438E+00
         21   -1    0    0  503  502  0.00000000000E+00  0.00000000000E+00  0.26131283818E+03  0.26131283818E+03  0.00000000000E+00 0.  1.
         21   -1    0    0  501  503 -0.00000000000E+00 -0.00000000000E+00 -0.13193199082E+03  0.13193199082E+03  0.00000000000E+00 0.  1.
          6    1    1    2  501    0  0.48096107297E+02 -0.47183535703E+02  0.61888413711E+02  0.19570052971E+03  0.17300000000E+03 0.  1.
         -6    1    1    2    0  502 -0.48096107297E+02  0.47183535703E+02  0.67492433648E+02  0.19754429928E+03  0.17300000000E+03 0.  1.
<mgrwt>
<rscale>  2 0.18565700E+03</rscale>
<asrwt>0</asrwt>
<pdfrwt beam="1">  1       21 0.40201975E-01 0.18565700E+03</pdfrwt>
<pdfrwt beam="2">  1       21 0.20297229E-01 0.18565700E+03</pdfrwt>
<totfact> 0.13420481E+05</totfact>
</mgrwt>
</event>
<event>
 4    1  0.4429256E+000  0.2208601E+03  0.7546771E-02  0.1133243E+00
         21   -1    0    0  501  502  0.00000000000E+00  0.00000000000E+00  0.60765819521E+03  0.60765819521E+03  0.00000000000E+00 0.  1.
         21   -1    0    0  502  503 -0.00000000000E+00 -0.00000000000E+00 -0.80274605208E+02  0.80274605208E+02  0.00000000000E+00 0. -1.
          6    1    1    2  501    0  0.62873599314E+02 -0.12205365396E+03  0.26278664933E+03  0.34327249671E+03  0.17300000000E+03 0. -1.
         -6    1    1    2    0  503 -0.62873599314E+02  0.12205365396E+03  0.26459694067E+03  0.34466030370E+03  0.17300000000E+03 0. -1.
<mgrwt>
<rscale>  2 0.22086010E+03</rscale>
<asrwt>0</asrwt>
<pdfrwt beam="1">  1       21 0.93485873E-01 0.22086010E+03</pdfrwt>
<pdfrwt beam="2">  1       21 0.12349940E-01 0.22086010E+03</pdfrwt>
<totfact> 0.52877116E+04</totfact>
</mgrwt>
</event>
<event>
 4    1  0.4429256E+000  0.1823861E+03  0.7546771E-02  0.1165514E+00
         21   -1    0    0  503  502  0.00000000000E+00  0.00000000000E+00  0.57631762706E+03  0.57631762706E+03  0.00000000000E+00 0.  1.
         21   -1    0    0  501  503 -0.00000000000E+00 -0.00000000000E+00 -0.22523810055E+03  0.22523810055E+03  0.00000000000E+00 0.  1.
          6    1    1    2  501    0  0.57733412788E+02 -0.15926367021E+01 -0.17009267905E+03  0.24939166568E+03  0.17300000000E+03 0.  1.
         -6    1    1    2    0  502 -0.57733412788E+02  0.15926367021E+01  0.52117220556E+03  0.55216406193E+03  0.17300000000E+03 0.  1.
<mgrwt>
<rscale>  2 0.18238608E+03</rscale>
<asrwt>0</asrwt>
<pdfrwt beam="1">  1       21 0.88664250E-01 0.18238608E+03</pdfrwt>
<pdfrwt beam="2">  1       21 0.34652016E-01 0.18238608E+03</pdfrwt>
<totfact> 0.87940571E+03</totfact>
</mgrwt>
</event>
<event>
 4    1  0.4429256E+000  0.1921847E+03  0.7546771E-02  0.1156505E+00
         21   -1    0    0  501  502  0.00000000000E+00  0.00000000000E+00  0.50955759562E+03  0.50955759562E+03  0.00000000000E+00 0.  1.
         21   -1    0    0  502  503 -0.00000000000E+00 -0.00000000000E+00 -0.30392005572E+03  0.30392005572E+03  0.00000000000E+00 0.  1.
          6    1    1    2  501    0 -0.12032829460E+02  0.82832264799E+02  0.45775562025E+03  0.49646266823E+03  0.17300000000E+03 0.  1.
         -6    1    1    2    0  503  0.12032829460E+02 -0.82832264799E+02 -0.25211808035E+03  0.31701498311E+03  0.17300000000E+03 0.  1.
<mgrwt>
<rscale>  2 0.19218474E+03</rscale>
<asrwt>0</asrwt>
<pdfrwt beam="1">  1       21 0.78393476E-01 0.19218474E+03</pdfrwt>
<pdfrwt beam="2">  1       21 0.46756932E-01 0.19218474E+03</pdfrwt>
<totfact> 0.63076528E+03</totfact>
</mgrwt>
</event>
<event>
 4    1  0.4429256E+000  0.1878171E+03  0.7546771E-02  0.1160445E+00
         21   -1    0    0  501  502  0.00000000000E+00  0.00000000000E+00  0.49227463172E+02  0.49227463172E+02  0.00000000000E+00 0. -1.
         21   -1    0    0  502  503 -0.00000000000E+00 -0.00000000000E+00 -0.80689324571E+03  0.80689324571E+03  0.00000000000E+00 0. -1.
          6    1    1    2  501    0 -0.61770926368E+02 -0.39123165456E+02 -0.23562075285E+03  0.30131778672E+03  0.17300000000E+03 0. -1.
         -6    1    1    2    0  503  0.61770926368E+02  0.39123165456E+02 -0.52204502969E+03  0.55480292216E+03  0.17300000000E+03 0. -1.
<mgrwt>
<rscale>  2 0.18781712E+03</rscale>
<asrwt>0</asrwt>
<pdfrwt beam="1">  1       21 0.75734551E-02 0.18781712E+03</pdfrwt>
<pdfrwt beam="2">  1       21 0.12413744E+00 0.18781712E+03</pdfrwt>
<totfact> 0.64215063E+04</totfact>
</mgrwt>
</event>
<event>
 4    1  0.4429256E+000  0.1846097E+03  0.7546771E-02  0.1163415E+00
         21   -1    0    0  503  502  0.00000000000E+00  0.00000000000E+00  0.10004901951E+03  0.10004901951E+03  0.00000000000E+00 0. -1.
         21   -1    0    0  501  503 -0.00000000000E+00 -0.00000000000E+00 -0.54779698567E+03  0.54779698567E+03  0.00000000000E+00 0. -1.
          6    1    1    2  501    0  0.58485336294E+02  0.27040608097E+02 -0.42307036075E+03  0.46159425819E+03  0.17300000000E+03 0.  1.
         -6    1    1    2    0  502 -0.58485336294E+02 -0.27040608097E+02 -0.24677605415E+02  0.18625174699E+03  0.17300000000E+03 0.  1.
<mgrwt>
<rscale>  2 0.18460967E+03</rscale>
<asrwt>0</asrwt>
<pdfrwt beam="1">  1       21 0.15392157E-01 0.18460967E+03</pdfrwt>
<pdfrwt beam="2">  1       21 0.84276461E-01 0.18460967E+03</pdfrwt>
<totfact> 0.45912711E+04</totfact>
</mgrwt>
</event>
<event>
 4    1  0.4429256E+000  0.2880845E+03  0.7546771E-02  0.1091354E+00
         21   -1    0    0  503  502  0.00000000000E+00  0.00000000000E+00  0.24074971928E+03  0.24074971928E+03  0.00000000000E+00 0. -1.
         21   -1    0    0  501  503 -0.00000000000E+00 -0.00000000000E+00 -0.38126880147E+03  0.38126880147E+03  0.00000000000E+00 0.  1.
          6    1    1    2  501    0 -0.33456141067E+02  0.22791301443E+03 -0.16654471077E+03  0.33276086940E+03  0.17300000000E+03 0. -1.
         -6    1    1    2    0  502  0.33456141067E+02 -0.22791301443E+03  0.26025628573E+02  0.28925765135E+03  0.17300000000E+03 0.  1.
<mgrwt>
<rscale>  2 0.28808446E+03</rscale>
<asrwt>0</asrwt>
<pdfrwt beam="1">  1       21 0.37038418E-01 0.28808446E+03</pdfrwt>
<pdfrwt beam="2">  1       21 0.58656739E-01 0.28808446E+03</pdfrwt>
<totfact> 0.18206266E+04</totfact>
</mgrwt>
</event>
<event>
 4    1  0.4429256E+000  0.1730083E+03  0.7546771E-02  0.1174746E+00
         21   -1    0    0  501  502  0.00000000000E+00  0.00000000000E+00  0.30099342854E+03  0.30099342854E+03  0.00000000000E+00 0. -1.
         21   -1    0    0  502  503 -0.00000000000E+00 -0.00000000000E+00 -0.99997449763E+02  0.99997449763E+02  0.00000000000E+00 0. -1.
          6    1    1    2  501    0 -0.16778425887E+01  0.26865585951E+00  0.85577482075E+02  0.19301656087E+03  0.17300000000E+03 0. -1.
         -6    1    1    2    0  503  0.16778425887E+01 -0.26865585951E+00  0.11541849671E+03  0.20797431744E+03  0.17300000000E+03 0. -1.
<mgrwt>
<rscale>  2 0.17300834E+03</rscale>
<asrwt>0</asrwt>
<pdfrwt beam="1">  1       21 0.46306681E-01 0.17300834E+03</pdfrwt>
<pdfrwt beam="2">  1       21 0.15384223E-01 0.17300834E+03</pdfrwt>
<totfact> 0.16839340E+05</totfact>
</mgrwt>
</event>
<event>
 4    1  0.4429256E+000  0.1811641E+03  0.7546771E-02  0.1166681E+00
         21   -1    0    0  501  502  0.00000000000E+00  0.00000000000E+00  0.31263789566E+03  0.31263789566E+03  0.00000000000E+00 0.  1.
         21   -1    0    0  502  503 -0.00000000000E+00 -0.00000000000E+00 -0.11999206237E+03  0.11999206237E+03  0.00000000000E+00 0.  1.
          6    1    1    2  501    0  0.82581704322E+01  0.53134206028E+02  0.17283740936E+03  0.25038612442E+03  0.17300000000E+03 0.  1.
         -6    1    1    2    0  503 -0.82581704322E+01 -0.53134206028E+02  0.19808423934E+02  0.18224383361E+03  0.17300000000E+03 0.  1.
<mgrwt>
<rscale>  2 0.18116413E+03</rscale>
<asrwt>0</asrwt>
<pdfrwt beam="1">  1       21 0.48098138E-01 0.18116413E+03</pdfrwt>
<pdfrwt beam="2">  1       21 0.18460317E-01 0.18116413E+03</pdfrwt>
<totfact> 0.11113137E+05</totfact>
</mgrwt>
</event>
<event>
 4    1  0.4429256E+000  0.2251646E+03  0.7546771E-02  0.1130090E+00
         21   -1    0    0  501  502  0.00000000000E+00  0.00000000000E+00  0.25129139445E+02  0.25129139445E+02  0.00000000000E+00 0.  1.
         21   -1    0    0  502  503 -0.00000000000E+00 -0.00000000000E+00 -0.21197635849E+04  0.21197635849E+04  0.00000000000E+00 0.  1.
          6    1    1    2  501    0  0.10947181942E+03 -0.93733754471E+02 -0.81181065315E+03  0.84245808949E+03  0.17300000000E+03 0.  1.
         -6    1    1    2    0  503 -0.10947181942E+03  0.93733754471E+02 -0.12828237923E+04  0.13024346348E+04  0.17300000000E+03 0.  1.
<mgrwt>
<rscale>  2 0.22516460E+03</rscale>
<asrwt>0</asrwt>
<pdfrwt beam="1">  1       21 0.38660209E-02 0.22516460E+03</pdfrwt>
<pdfrwt beam="2">  1       21 0.32611752E+00 0.22516460E+03</pdfrwt>
<totfact> 0.96644362E+03</totfact>
</mgrwt>
</event>
<event>
 4    1  0.4429256E+000  0.2098922E+03  0.7546771E-02  0.1141651E+00
         21   -1    0    0  503  502  0.00000000000E+00  0.00000000000E+00  0.83233739645E+02  0.83233739645E+02  0.00000000000E+00 0. -1.
         21   -1    0    0  501  503 -0.00000000000E+00 -0.00000000000E+00 -0.67279906316E+03  0.67279906316E+03  0.00000000000E+00 0.  1.
          6    1    1    2  501    0  0.66997022946E+02 -0.98168916328E+02 -0.46936829680E+03  0.51416080681E+03  0.17300000000E+03 0. -1.
         -6    1    1    2    0  502 -0.66997022946E+02  0.98168916328E+02 -0.12019702672E+03  0.24187199600E+03  0.17300000000E+03 0. -1.
<mgrwt>
<rscale>  2 0.20989220E+03</rscale>
<asrwt>0</asrwt>
<pdfrwt beam="1">  1       21 0.12805191E-01 0.20989220E+03</pdfrwt>
<pdfrwt beam="2">  1       21 0.10350755E+00 0.20989220E+03</pdfrwt>
<totfact> 0.39127574E+04</totfact>
</mgrwt>
</event>
<event>
 4    1  0.4429256E+000  0.1981351E+03  0.7546771E-02  0.1151322E+00
         21   -1    0    0  501  502  0.00000000000E+00  0.00000000000E+00  0.72387103433E+02  0.72387103433E+02  0.00000000000E+00 0. -1.
         21   -1    0    0  502  503 -0.00000000000E+00 -0.00000000000E+00 -0.62555041291E+03  0.62555041291E+03  0.00000000000E+00 0. -1.
          6    1    1    2  501    0 -0.93911509658E+02 -0.22564368086E+02 -0.14929682443E+03  0.24808680767E+03  0.17300000000E+03 0. -1.
         -6    1    1    2    0  503  0.93911509658E+02  0.22564368086E+02 -0.40386648504E+03  0.44985070867E+03  0.17300000000E+03 0. -1.
<mgrwt>
<rscale>  2 0.19813511E+03</rscale>
<asrwt>0</asrwt>
<pdfrwt beam="1">  1       21 0.11136478E-01 0.19813511E+03</pdfrwt>
<pdfrwt beam="2">  1       21 0.96238524E-01 0.19813511E+03</pdfrwt>
<totfact> 0.60089609E+04</totfact>
</mgrwt>
</event>
<event>
 4    1  0.4429256E+000  0.2247528E+03  0.7546771E-02  0.1130388E+00
         21   -1    0    0  503  502  0.00000000000E+00  0.00000000000E+00  0.11291434735E+03  0.11291434735E+03  0.00000000000E+00 0. -1.
         21   -1    0    0  501  503 -0.00000000000E+00 -0.00000000000E+00 -0.50826982952E+03  0.50826982952E+03  0.00000000000E+00 0.  1.
          6    1    1    2  501    0 -0.63248514141E+02  0.12878065569E+03 -0.30519349257E+03  0.37902097531E+03  0.17300000000E+03 0.  1.
         -6    1    1    2    0  502  0.63248514141E+02 -0.12878065569E+03 -0.90161989601E+02  0.24216320156E+03  0.17300000000E+03 0.  1.
<mgrwt>
<rscale>  2 0.22475282E+03</rscale>
<asrwt>0</asrwt>
<pdfrwt beam="1">  1       21 0.17371438E-01 0.22475282E+03</pdfrwt>
<pdfrwt beam="2">  1       21 0.78195359E-01 0.22475282E+03</pdfrwt>
<totfact> 0.42722289E+04</totfact>
</mgrwt>
</event>
<event>
 4    1  0.4429256E+000  0.3107283E+03  0.7546771E-02  0.1079997E+00
         21   -1    0    0  501  502  0.00000000000E+00  0.00000000000E+00  0.27340437002E+03  0.27340437002E+03  0.00000000000E+00 0. -1.
         21   -1    0    0  502  503 -0.00000000000E+00 -0.00000000000E+00 -0.39018642549E+03  0.39018642549E+03  0.00000000000E+00 0.  1.
          6    1    1    2  501    0  0.19092279775E+03  0.17369971607E+03 -0.16061733919E+03  0.34978569970E+03  0.17300000000E+03 0.  1.
         -6    1    1    2    0  503 -0.19092279775E+03 -0.17369971607E+03  0.43835283721E+02  0.31380509582E+03  0.17300000000E+03 0. -1.
<mgrwt>
<rscale>  2 0.31072835E+03</rscale>
<asrwt>0</asrwt>
<pdfrwt beam="1">  1       21 0.42062210E-01 0.31072835E+03</pdfrwt>
<pdfrwt beam="2">  1       21 0.60028681E-01 0.31072835E+03</pdfrwt>
<totfact> 0.13237020E+04</totfact>
</mgrwt>
</event>
<event>
 4    1  0.4429256E+000  0.2537273E+03  0.7546771E-02  0.1110972E+00
         21   -1    0    0  501  502  0.00000000000E+00  0.00000000000E+00  0.12020268657E+04  0.12020268657E+04  0.00000000000E+00 0.  1.
         21   -1    0    0  502  503 -0.00000000000E+00 -0.00000000000E+00 -0.54531218802E+02  0.54531218802E+02  0.00000000000E+00 0. -1.
          6    1    1    2  501    0  0.69301741503E+01 -0.18547371158E+03  0.65770389385E+03  0.70494818035E+03  0.17300000000E+03 0. -1.
         -6    1    1    2    0  503 -0.69301741503E+01  0.18547371158E+03  0.48979175305E+03  0.55160990414E+03  0.17300000000E+03 0.  1.
<mgrwt>
<rscale>  2 0.25372726E+03</rscale>
<asrwt>0</asrwt>
<pdfrwt beam="1">  1       21 0.18492719E+00 0.25372726E+03</pdfrwt>
<pdfrwt beam="2">  1       21 0.83894192E-02 0.25372726E+03</pdfrwt>
<totfact> 0.17874669E+04</totfact>
</mgrwt>
</event>
<event>
 4    1  0.4429256E+000  0.1779374E+03  0.7546771E-02  0.1169814E+00
         21   -1    0    0  503  502  0.00000000000E+00  0.00000000000E+00  0.35363738082E+03  0.35363738082E+03  0.00000000000E+00 0.  1.
         21   -1    0    0  501  503 -0.00000000000E+00 -0.00000000000E+00 -0.95857452633E+02  0.95857452633E+02  0.00000000000E+00 0.  1.
          6    1    1    2  501    0  0.40742710840E+02  0.85283860492E+01  0.71154439774E+02  0.19163678184E+03  0.17300000000E+03 0. -1.
         -6    1    1    2    0  502 -0.40742710840E+02 -0.85283860492E+01  0.18662548841E+03  0.25785805161E+03  0.17300000000E+03 0. -1.
<mgrwt>
<rscale>  2 0.17793735E+03</rscale>
<asrwt>0</asrwt>
<pdfrwt beam="1">  1       21 0.54405750E-01 0.17793735E+03</pdfrwt>
<pdfrwt beam="2">  1       21 0.14747301E-01 0.17793735E+03</pdfrwt>
<totfact> 0.12979572E+05</totfact>
</mgrwt>
</event>
<event>
 4    1  0.4429256E+000  0.1759897E+03  0.7546771E-02  0.1171742E+00
         21   -1    0    0  503  502  0.00000000000E+00  0.00000000000E+00  0.11709666292E+03  0.11709666292E+03  0.00000000000E+00 0. -1.
         21   -1    0    0  501  503 -0.00000000000E+00 -0.00000000000E+00 -0.29937871867E+03  0.29937871867E+03  0.00000000000E+00 0. -1.
          6    1    1    2  501    0  0.24783213241E+02 -0.20716147071E+02 -0.16221543345E+03  0.23934538487E+03  0.17300000000E+03 0. -1.
         -6    1    1    2    0  502 -0.24783213241E+02  0.20716147071E+02 -0.20066622298E+02  0.17712999672E+03  0.17300000000E+03 0. -1.
<mgrwt>
<rscale>  2 0.17598968E+03</rscale>
<asrwt>0</asrwt>
<pdfrwt beam="1">  1       21 0.18014872E-01 0.17598968E+03</pdfrwt>
<pdfrwt beam="2">  1       21 0.46058264E-01 0.17598968E+03</pdfrwt>
<totfact> 0.12737282E+05</totfact>
</mgrwt>
</event>
<event>
 4    1  0.4429256E+000  0.2065081E+03  0.7546771E-02  0.1144361E+00
         21   -1    0    0  503  502  0.00000000000E+00  0.00000000000E+00  0.16627197160E+04  0.16627197160E+04  0.00000000000E+00 0.  1.
         21   -1    0    0  501  503 -0.00000000000E+00 -0.00000000000E+00 -0.25836234401E+02  0.25836234401E+02  0.00000000000E+00 0.  1.
          6    1    1    2  501    0  0.37111302298E+02  0.10648638590E+03  0.89048720261E+03  0.91411873252E+03  0.17300000000E+03 0.  1.
         -6    1    1    2    0  502 -0.37111302298E+02 -0.10648638590E+03  0.74639627894E+03  0.77443721783E+03  0.17300000000E+03 0.  1.
<mgrwt>
<rscale>  2 0.20650811E+03</rscale>
<asrwt>0</asrwt>
<pdfrwt beam="1">  1       21 0.25580295E+00 0.20650811E+03</pdfrwt>
<pdfrwt beam="2">  1       21 0.39748066E-02 0.20650811E+03</pdfrwt>
<totfact> 0.24062810E+04</totfact>
</mgrwt>
</event>
<event>
 4    1  0.4429256E+000  0.1913494E+03  0.7546771E-02  0.1157250E+00
         21   -1    0    0  501  502  0.00000000000E+00  0.00000000000E+00  0.19292382862E+04  0.19292382862E+04  0.00000000000E+00 0. -1.
         21   -1    0    0  502  503 -0.00000000000E+00 -0.00000000000E+00 -0.21263989435E+02  0.21263989435E+02  0.00000000000E+00 0. -1.
          6    1    1    2  501    0  0.51406571990E+02 -0.63584251352E+02  0.12736976601E+04  0.12879908082E+04  0.17300000000E+03 0. -1.
         -6    1    1    2    0  503 -0.51406571990E+02  0.63584251352E+02  0.63427663668E+03  0.66251146745E+03  0.17300000000E+03 0. -1.
<mgrwt>
<rscale>  2 0.19134940E+03</rscale>
<asrwt>0</asrwt>
<pdfrwt beam="1">  1       21 0.29680575E+00 0.19134940E+03</pdfrwt>
<pdfrwt beam="2">  1       21 0.32713845E-02 0.19134940E+03</pdfrwt>
<totfact> 0.19543646E+04</totfact>
</mgrwt>
</event>
<event>
 4    1  0.4429256E+000  0.2180415E+03  0.7546771E-02  0.1135352E+00
         21   -1    0    0  501  502  0.00000000000E+00  0.00000000000E+00  0.20774857783E+03  0.20774857783E+03  0.00000000000E+00 0. -1.
         21   -1    0    0  502  503 -0.00000000000E+00 -0.00000000000E+00 -0.50018601686E+03  0.50018601686E+03  0.00000000000E+00 0. -1.
          6    1    1    2  501    0  0.12448521340E+03 -0.46005770490E+02  0.11449000715E+03  0.24627233099E+03  0.17300000000E+03 0. -1.
         -6    1    1    2    0  503 -0.12448521340E+03  0.46005770490E+02 -0.40692744618E+03  0.46166226371E+03  0.17300000000E+03 0. -1.
<mgrwt>
<rscale>  2 0.21804151E+03</rscale>
<asrwt>0</asrwt>
<pdfrwt beam="1">  1       21 0.31961320E-01 0.21804151E+03</pdfrwt>
<pdfrwt beam="2">  1       21 0.76951693E-01 0.21804151E+03</pdfrwt>
<totfact> 0.13906437E+04</totfact>
</mgrwt>
</event>
<event>
 4    1  0.4429256E+000  0.2035299E+03  0.7546771E-02  0.1146795E+00
         21   -1    0    0  503  502  0.00000000000E+00  0.00000000000E+00  0.13928896974E+03  0.13928896974E+03  0.00000000000E+00 0. -1.
         21   -1    0    0  501  503 -0.00000000000E+00 -0.00000000000E+00 -0.31859191071E+03  0.31859191071E+03  0.00000000000E+00 0. -1.
          6    1    1    2  501    0  0.96538655942E+02 -0.46644607457E+02 -0.14869851320E+03  0.25206284796E+03  0.17300000000E+03 0.  1.
         -6    1    1    2    0  502 -0.96538655942E+02  0.46644607457E+02 -0.30604427770E+02  0.20581803248E+03  0.17300000000E+03 0.  1.
<mgrwt>
<rscale>  2 0.20352993E+03</rscale>
<asrwt>0</asrwt>
<pdfrwt beam="1">  1       21 0.21429072E-01 0.20352993E+03</pdfrwt>
<pdfrwt beam="2">  1       21 0.49014140E-01 0.20352993E+03</pdfrwt>
<totfact> 0.80179956E+04</totfact>
</mgrwt>
</event>
<event>
 4    1  0.4429256E+000  0.2308545E+03  0.7546771E-02  0.1126040E+00
         21   -1    0    0  503  502  0.00000000000E+00  0.00000000000E+00  0.42525213905E+03  0.42525213905E+03  0.00000000000E+00 0. -1.
         21   -1    0    0  501  503 -0.00000000000E+00 -0.00000000000E+00 -0.13021892303E+03  0.13021892303E+03  0.00000000000E+00 0.  1.
          6    1    1    2  501    0 -0.54476113597E+02  0.14281854345E+03  0.93662216287E+02  0.24913127878E+03  0.17300000000E+03 0. -1.
         -6    1    1    2    0  502  0.54476113597E+02 -0.14281854345E+03  0.20137099973E+03  0.30633978331E+03  0.17300000000E+03 0.  1.
<mgrwt>
<rscale>  2 0.23085446E+03</rscale>
<asrwt>0</asrwt>
<pdfrwt beam="1">  1       21 0.65423405E-01 0.23085446E+03</pdfrwt>
<pdfrwt beam="2">  1       21 0.20033681E-01 0.23085446E+03</pdfrwt>
<totfact> 0.48564814E+04</totfact>
</mgrwt>
</event>
<event>
 4    1  0.4429256E+000  0.2466137E+03  0.7546771E-02  0.1115464E+00
         21   -1    0    0  503  502  0.00000000000E+00  0.00000000000E+00  0.17700531259E+03  0.17700531259E+03  0.00000000000E+00 0. -1.
         21   -1    0    0  501  503 -0.00000000000E+00 -0.00000000000E+00 -0.53009095400E+03  0.53009095400E+03  0.00000000000E+00 0.  1.
          6    1    1    2  501    0 -0.15144093446E+03 -0.89190670261E+02 -0.38624686043E+03  0.45826299161E+03  0.17300000000E+03 0.  1.
         -6    1    1    2    0  502  0.15144093446E+03  0.89190670261E+02  0.33161219026E+02  0.24883327498E+03  0.17300000000E+03 0. -1.
<mgrwt>
<rscale>  2 0.24661373E+03</rscale>
<asrwt>0</asrwt>
<pdfrwt beam="1">  1       21 0.27231586E-01 0.24661373E+03</pdfrwt>
<pdfrwt beam="2">  1       21 0.81552455E-01 0.24661373E+03</pdfrwt>
<totfact> 0.16408078E+04</totfact>
</mgrwt>
</event>
<event>
 4    1  0.4429256E+000  0.1737741E+03  0.7546771E-02  0.1173968E+00
         21   -1    0    0  501  502  0.00000000000E+00  0.00000000000E+00  0.33674928430E+03  0.33674928430E+03  0.00000000000E+00 0. -1.
         21   -1    0    0  502  503 -0.00000000000E+00 -0.00000000000E+00 -0.17452580534E+03  0.17452580534E+03  0.00000000000E+00 0. -1.
          6    1    1    2  501    0 -0.13582660277E+01 -0.16327606581E+02  0.25936070808E+03  0.31219451072E+03  0.17300000000E+03 0. -1.
         -6    1    1    2    0  503  0.13582660277E+01  0.16327606581E+02 -0.97137229120E+02  0.19908057892E+03  0.17300000000E+03 0. -1.
<mgrwt>
<rscale>  2 0.17377409E+03</rscale>
<asrwt>0</asrwt>
<pdfrwt beam="1">  1       21 0.51807582E-01 0.17377409E+03</pdfrwt>
<pdfrwt beam="2">  1       21 0.26850124E-01 0.17377409E+03</pdfrwt>
<totfact> 0.47164721E+04</totfact>
</mgrwt>
</event>
<event>
 4    1  0.4429256E+000  0.2641108E+03  0.7546771E-02  0.1104698E+00
         21   -1    0    0  501  502  0.00000000000E+00  0.00000000000E+00  0.38945724466E+03  0.38945724466E+03  0.00000000000E+00 0. -1.
         21   -1    0    0  502  503 -0.00000000000E+00 -0.00000000000E+00 -0.19135880572E+03  0.19135880572E+03  0.00000000000E+00 0. -1.
          6    1    1    2  501    0  0.17464816809E+03  0.96558452831E+02  0.17253181655E+03  0.31547067241E+03  0.17300000000E+03 0. -1.
         -6    1    1    2    0  503 -0.17464816809E+03 -0.96558452831E+02  0.25566622385E+02  0.26534537797E+03  0.17300000000E+03 0. -1.
<mgrwt>
<rscale>  2 0.26411081E+03</rscale>
<asrwt>0</asrwt>
<pdfrwt beam="1">  1       21 0.59916499E-01 0.26411081E+03</pdfrwt>
<pdfrwt beam="2">  1       21 0.29439816E-01 0.26411081E+03</pdfrwt>
<totfact> 0.27730130E+04</totfact>
</mgrwt>
</event>
<event>
 4    1  0.4429256E+000  0.1841788E+03  0.7546771E-02  0.1163819E+00
         21   -1    0    0  503  502  0.00000000000E+00  0.00000000000E+00  0.20669407975E+03  0.20669407975E+03  0.00000000000E+00 0.  1.
         21   -1    0    0  501  503 -0.00000000000E+00 -0.00000000000E+00 -0.16472933345E+03  0.16472933345E+03  0.00000000000E+00 0.  1.
          6    1    1    2  501    0  0.62890320305E+02 -0.61358592254E+01  0.96520783467E+01  0.18443156935E+03  0.17300000000E+03 0.  1.
         -6    1    1    2    0  502 -0.62890320305E+02  0.61358592254E+01  0.32312667950E+02  0.18699184385E+03  0.17300000000E+03 0.  1.
<mgrwt>
<rscale>  2 0.18417883E+03</rscale>
<asrwt>0</asrwt>
<pdfrwt beam="1">  1       21 0.31799089E-01 0.18417883E+03</pdfrwt>
<pdfrwt beam="2">  1       21 0.25342974E-01 0.18417883E+03</pdfrwt>
<totfact> 0.14072185E+05</totfact>
</mgrwt>
</event>
<event>
 4    1  0.4429256E+000  0.1819965E+03  0.7546771E-02  0.1165885E+00
         21   -1    0    0  503  502  0.00000000000E+00  0.00000000000E+00  0.48400802997E+02  0.48400802997E+02  0.00000000000E+00 0. -1.
         21   -1    0    0  501  503 -0.00000000000E+00 -0.00000000000E+00 -0.11015394079E+04  0.11015394079E+04  0.00000000000E+00 0. -1.
          6    1    1    2  501    0 -0.50857489332E+02  0.24642007726E+02 -0.88041664144E+03  0.89903068651E+03  0.17300000000E+03 0. -1.
         -6    1    1    2    0  502  0.50857489332E+02 -0.24642007726E+02 -0.17272196347E+03  0.25090952439E+03  0.17300000000E+03 0. -1.
<mgrwt>
<rscale>  2 0.18199646E+03</rscale>
<asrwt>0</asrwt>
<pdfrwt beam="1">  1       21 0.74462777E-02 0.18199646E+03</pdfrwt>
<pdfrwt beam="2">  1       21 0.16946759E+00 0.18199646E+03</pdfrwt>
<totfact> 0.29461384E+04</totfact>
</mgrwt>
</event>
<event>
 4    1  0.4429256E+000  0.1930131E+03  0.7546771E-02  0.1155771E+00
         21   -1    0    0  501  502  0.00000000000E+00  0.00000000000E+00  0.11052867310E+03  0.11052867310E+03  0.00000000000E+00 0. -1.
         21   -1    0    0  502  503 -0.00000000000E+00 -0.00000000000E+00 -0.38424039010E+03  0.38424039010E+03  0.00000000000E+00 0. -1.
          6    1    1    2  501    0 -0.65840937101E+02  0.54681206313E+02 -0.50163215383E+02  0.19942520277E+03  0.17300000000E+03 0. -1.
         -6    1    1    2    0  503  0.65840937101E+02 -0.54681206313E+02 -0.22354850161E+03  0.29534386043E+03  0.17300000000E+03 0. -1.
<mgrwt>
<rscale>  2 0.19301312E+03</rscale>
<asrwt>0</asrwt>
<pdfrwt beam="1">  1       21 0.17004411E-01 0.19301312E+03</pdfrwt>
<pdfrwt beam="2">  1       21 0.59113907E-01 0.19301312E+03</pdfrwt>
<totfact> 0.83412426E+04</totfact>
</mgrwt>
</event>
<event>
 4    1  0.4429256E+000  0.2173738E+03  0.7546771E-02  0.1135856E+00
         21   -1    0    0  501  502  0.00000000000E+00  0.00000000000E+00  0.39226006769E+03  0.39226006769E+03  0.00000000000E+00 0. -1.
         21   -1    0    0  502  503 -0.00000000000E+00 -0.00000000000E+00 -0.17257876330E+03  0.17257876330E+03  0.00000000000E+00 0. -1.
          6    1    1    2  501    0  0.12209642575E+03 -0.49141131312E+02  0.26504385668E+03  0.34278219606E+03  0.17300000000E+03 0. -1.
         -6    1    1    2    0  503 -0.12209642575E+03  0.49141131312E+02 -0.45362552300E+02  0.22205663493E+03  0.17300000000E+03 0. -1.
<mgrwt>
<rscale>  2 0.21737384E+03</rscale>
<asrwt>0</asrwt>
<pdfrwt beam="1">  1       21 0.60347702E-01 0.21737384E+03</pdfrwt>
<pdfrwt beam="2">  1       21 0.26550579E-01 0.21737384E+03</pdfrwt>
<totfact> 0.34099794E+04</totfact>
</mgrwt>
</event>
<event>
 4    1  0.4429256E+000  0.2259408E+03  0.7546771E-02  0.1129530E+00
         21   -1    0    0  503  502  0.00000000000E+00  0.00000000000E+00  0.40588947295E+03  0.40588947295E+03  0.00000000000E+00 0.  1.
         21   -1    0    0  501  503 -0.00000000000E+00 -0.00000000000E+00 -0.12854839861E+03  0.12854839861E+03  0.00000000000E+00 0.  1.
          6    1    1    2  501    0 -0.10061747110E+03  0.10486366858E+03  0.99394640015E+02  0.24683711014E+03  0.17300000000E+03 0.  1.
         -6    1    1    2    0  502  0.10061747110E+03 -0.10486366858E+03  0.17794643432E+03  0.28760076142E+03  0.17300000000E+03 0.  1.
<mgrwt>
<rscale>  2 0.22594084E+03</rscale>
<asrwt>0</asrwt>
<pdfrwt beam="1">  1       21 0.62444534E-01 0.22594084E+03</pdfrwt>
<pdfrwt beam="2">  1       21 0.19776677E-01 0.22594084E+03</pdfrwt>
<totfact> 0.55191771E+04</totfact>
</mgrwt>
</event>
<event>
 4    1  0.4429256E+000  0.2235557E+03  0.7546771E-02  0.1131260E+00
         21   -1    0    0  501  502  0.00000000000E+00  0.00000000000E+00  0.69882476742E+03  0.69882476742E+03  0.00000000000E+00 0. -1.
         21   -1    0    0  502  503 -0.00000000000E+00 -0.00000000000E+00 -0.20818206557E+03  0.20818206557E+03  0.00000000000E+00 0. -1.
          6    1    1    2  501    0  0.14078383168E+03 -0.15102419653E+02  0.61276370173E+03  0.65227028485E+03  0.17300000000E+03 0. -1.
         -6    1    1    2    0  503 -0.14078383168E+03  0.15102419653E+02 -0.12212099989E+03  0.25473654813E+03  0.17300000000E+03 0. -1.
<mgrwt>
<rscale>  2 0.22355574E+03</rscale>
<asrwt>0</asrwt>
<pdfrwt beam="1">  1       21 0.10751150E+00 0.22355574E+03</pdfrwt>
<pdfrwt beam="2">  1       21 0.32028010E-01 0.22355574E+03</pdfrwt>
<totfact> 0.63261090E+03</totfact>
</mgrwt>
</event>
<event>
 4    1  0.4429256E+000  0.1837141E+03  0.7546771E-02  0.1164256E+00
         21   -1    0    0  503  502  0.00000000000E+00  0.00000000000E+00  0.84289902060E+03  0.84289902060E+03  0.00000000000E+00 0.  1.
         21   -1    0    0  501  503 -0.00000000000E+00 -0.00000000000E+00 -0.62087824553E+02  0.62087824553E+02  0.00000000000E+00 0.  1.
          6    1    1    2  501    0 -0.34352993041E+02 -0.51397729734E+02  0.12076942361E+03  0.21985474394E+03  0.17300000000E+03 0.  1.
         -6    1    1    2    0  502  0.34352993041E+02  0.51397729734E+02  0.66004177244E+03  0.68513210122E+03  0.17300000000E+03 0.  1.
<mgrwt>
<rscale>  2 0.18371406E+03</rscale>
<asrwt>0</asrwt>
<pdfrwt beam="1">  1       21 0.12967676E+00 0.18371406E+03</pdfrwt>
<pdfrwt beam="2">  1       21 0.95519736E-02 0.18371406E+03</pdfrwt>
<totfact> 0.38461150E+04</totfact>
</mgrwt>
</event>
<event>
 4    1  0.4429256E+000  0.1878519E+03  0.7546771E-02  0.1160413E+00
         21   -1    0    0  501  502  0.00000000000E+00  0.00000000000E+00  0.11179921516E+03  0.11179921516E+03  0.00000000000E+00 0.  1.
         21   -1    0    0  502  503 -0.00000000000E+00 -0.00000000000E+00 -0.68404569952E+03  0.68404569952E+03  0.00000000000E+00 0.  1.
          6    1    1    2  501    0  0.21005212865E+01  0.73177332871E+02  0.59009987230E+01  0.18794455571E+03  0.17300000000E+03 0.  1.
         -6    1    1    2    0  503 -0.21005212865E+01 -0.73177332871E+02 -0.57814748308E+03  0.60790035896E+03  0.17300000000E+03 0.  1.
<mgrwt>
<rscale>  2 0.18785189E+03</rscale>
<asrwt>0</asrwt>
<pdfrwt beam="1">  1       21 0.17199879E-01 0.18785189E+03</pdfrwt>
<pdfrwt beam="2">  1       21 0.10523780E+00 0.18785189E+03</pdfrwt>
<totfact> 0.22251446E+04</totfact>
</mgrwt>
</event>
<event>
 4    1  0.4429256E+000  0.1989291E+03  0.7546771E-02  0.1150646E+00
         21   -1    0    0  503  502  0.00000000000E+00  0.00000000000E+00  0.89858019046E+02  0.89858019046E+02  0.00000000000E+00 0.  1.
         21   -1    0    0  501  503 -0.00000000000E+00 -0.00000000000E+00 -0.54947505911E+03  0.54947505911E+03  0.00000000000E+00 0. -1.
          6    1    1    2  501    0  0.28965595144E+02  0.93833728478E+02 -0.37223848361E+03  0.42205954909E+03  0.17300000000E+03 0. -1.
         -6    1    1    2    0  502 -0.28965595144E+02 -0.93833728478E+02 -0.87378556454E+02  0.21727352906E+03  0.17300000000E+03 0.  1.
<mgrwt>
<rscale>  2 0.19892907E+03</rscale>
<asrwt>0</asrwt>
<pdfrwt beam="1">  1       21 0.13824311E-01 0.19892907E+03</pdfrwt>
<pdfrwt beam="2">  1       21 0.84534622E-01 0.19892907E+03</pdfrwt>
<totfact> 0.55030048E+04</totfact>
</mgrwt>
</event>
<event>
 4    1  0.4429256E+000  0.2974429E+03  0.7546771E-02  0.1086526E+00
         21   -1    0    0  503  502  0.00000000000E+00  0.00000000000E+00  0.16022435357E+03  0.16022435357E+03  0.00000000000E+00 0. -1.
         21   -1    0    0  501  503 -0.00000000000E+00 -0.00000000000E+00 -0.65336219352E+03  0.65336219352E+03  0.00000000000E+00 0.  1.
          6    1    1    2  501    0 -0.22019233273E+03 -0.10029263612E+03 -0.40665525548E+03  0.50382613376E+03  0.17300000000E+03 0.  1.
         -6    1    1    2    0  502  0.22019233273E+03  0.10029263612E+03 -0.86482584462E+02  0.30976041333E+03  0.17300000000E+03 0. -1.
<mgrwt>
<rscale>  2 0.29744290E+03</rscale>
<asrwt>0</asrwt>
<pdfrwt beam="1">  1       21 0.24649900E-01 0.29744290E+03</pdfrwt>
<pdfrwt beam="2">  1       21 0.10051726E+00 0.29744290E+03</pdfrwt>
<totfact> 0.11896084E+04</totfact>
</mgrwt>
</event>
<event>
 4    1  0.4429256E+000  0.2003936E+03  0.7546771E-02  0.1149407E+00
         21   -1    0    0  503  502  0.00000000000E+00  0.00000000000E+00  0.26499991837E+03  0.26499991837E+03  0.00000000000E+00 0.  1.
         21   -1    0    0  501  503 -0.00000000000E+00 -0.00000000000E+00 -0.16235312704E+03  0.16235312704E+03  0.00000000000E+00 0.  1.
          6    1    1    2  501    0  0.31443322879E+02  0.96124555192E+02 -0.38256652224E+01  0.20043015836E+03  0.17300000000E+03 0.  1.
         -6    1    1    2    0  502 -0.31443322879E+02 -0.96124555192E+02  0.10647245655E+03  0.22692288705E+03  0.17300000000E+03 0.  1.
<mgrwt>
<rscale>  2 0.20039364E+03</rscale>
<asrwt>0</asrwt>
<pdfrwt beam="1">  1       21 0.40769218E-01 0.20039364E+03</pdfrwt>
<pdfrwt beam="2">  1       21 0.24977404E-01 0.20039364E+03</pdfrwt>
<totfact> 0.87654448E+04</totfact>
</mgrwt>
</event>
<event>
 4    1  0.4429256E+000  0.1899760E+03  0.7546771E-02  0.1158483E+00
         21   -1    0    0  501  502  0.00000000000E+00  0.00000000000E+00  0.10601311583E+03  0.10601311583E+03  0.00000000000E+00 0. -1.
         21   -1    0    0  502  503 -0.00000000000E+00 -0.00000000000E+00 -0.39718991135E+03  0.39718991135E+03  0.00000000000E+00 0. -1.
          6    1    1    2  501    0  0.38059775454E+02 -0.68653674817E+02 -0.50483015135E+02  0.19656909317E+03  0.17300000000E+03 0. -1.
         -6    1    1    2    0  503 -0.38059775454E+02  0.68653674817E+02 -0.24069378038E+03  0.30663393401E+03  0.17300000000E+03 0. -1.
<mgrwt>
<rscale>  2 0.18997598E+03</rscale>
<asrwt>0</asrwt>
<pdfrwt beam="1">  1       21 0.16309710E-01 0.18997598E+03</pdfrwt>
<pdfrwt beam="2">  1       21 0.61106140E-01 0.18997598E+03</pdfrwt>
<totfact> 0.83964788E+04</totfact>
</mgrwt>
</event>
<event>
 4    1  0.4429256E+000  0.1890015E+03  0.7546771E-02  0.1159365E+00
         21   -1    0    0  503  502  0.00000000000E+00  0.00000000000E+00  0.40341242586E+03  0.40341242586E+03  0.00000000000E+00 0.  1.
         21   -1    0    0  501  503 -0.00000000000E+00 -0.00000000000E+00 -0.94828912577E+02  0.94828912577E+02  0.00000000000E+00 0.  1.
          6    1    1    2  501    0  0.55509541591E+01  0.75906288744E+02  0.90180780936E+02  0.20941382718E+03  0.17300000000E+03 0.  1.
         -6    1    1    2    0  502 -0.55509541591E+01 -0.75906288744E+02  0.21840273234E+03  0.28882751126E+03  0.17300000000E+03 0.  1.
<mgrwt>
<rscale>  2 0.18900153E+03</rscale>
<asrwt>0</asrwt>
<pdfrwt beam="1">  1       21 0.62063449E-01 0.18900153E+03</pdfrwt>
<pdfrwt beam="2">  1       21 0.14589064E-01 0.18900153E+03</pdfrwt>
<totfact> 0.99549047E+04</totfact>
</mgrwt>
</event>
<event>
 4    1  0.4429256E+000  0.1848639E+03  0.7546771E-02  0.1163177E+00
         21   -1    0    0  503  502  0.00000000000E+00  0.00000000000E+00  0.73382198402E+02  0.73382198402E+02  0.00000000000E+00 0.  1.
         21   -1    0    0  501  503 -0.00000000000E+00 -0.00000000000E+00 -0.57222474838E+03  0.57222474838E+03  0.00000000000E+00 0.  1.
          6    1    1    2  501    0 -0.56874952014E+02 -0.31794723893E+02 -0.38869338981E+03  0.43041516692E+03  0.17300000000E+03 0.  1.
         -6    1    1    2    0  502  0.56874952014E+02  0.31794723893E+02 -0.11014916017E+03  0.21519177986E+03  0.17300000000E+03 0.  1.
<mgrwt>
<rscale>  2 0.18486391E+03</rscale>
<asrwt>0</asrwt>
<pdfrwt beam="1">  1       21 0.11289569E-01 0.18486391E+03</pdfrwt>
<pdfrwt beam="2">  1       21 0.88034576E-01 0.18486391E+03</pdfrwt>
<totfact> 0.72590047E+04</totfact>
</mgrwt>
</event>
<event>
 4    1  0.4429256E+000  0.2184753E+03  0.7546771E-02  0.1135025E+00
         21   -1    0    0  501  502  0.00000000000E+00  0.00000000000E+00  0.77693930283E+03  0.77693930283E+03  0.00000000000E+00 0.  1.
         21   -1    0    0  502  503 -0.00000000000E+00 -0.00000000000E+00 -0.68412120879E+02  0.68412120879E+02  0.00000000000E+00 0.  1.
          6    1    1    2  501    0 -0.78945295301E+02  0.10756439902E+03  0.48924412345E+03  0.53580898828E+03  0.17300000000E+03 0.  1.
         -6    1    1    2    0  503  0.78945295301E+02 -0.10756439902E+03  0.21928305850E+03  0.30954243543E+03  0.17300000000E+03 0.  1.
<mgrwt>
<rscale>  2 0.21847531E+03</rscale>
<asrwt>0</asrwt>
<pdfrwt beam="1">  1       21 0.11952912E+00 0.21847531E+03</pdfrwt>
<pdfrwt beam="2">  1       21 0.10524942E-01 0.21847531E+03</pdfrwt>
<totfact> 0.38974417E+04</totfact>
</mgrwt>
</event>
<event>
 4    1  0.4429256E+000  0.1747160E+03  0.7546771E-02  0.1173017E+00
         21   -1    0    0  501  502  0.00000000000E+00  0.00000000000E+00  0.94941895448E+02  0.94941895448E+02  0.00000000000E+00 0. -1.
         21   -1    0    0  502  503 -0.00000000000E+00 -0.00000000000E+00 -0.38276963888E+03  0.38276963888E+03  0.00000000000E+00 0. -1.
          6    1    1    2  501    0  0.15404179995E+02  0.18957393527E+02 -0.48366113823E+02  0.18128693416E+03  0.17300000000E+03 0. -1.
         -6    1    1    2    0  503 -0.15404179995E+02 -0.18957393527E+02 -0.23946162961E+03  0.29642460017E+03  0.17300000000E+03 0. -1.
<mgrwt>
<rscale>  2 0.17471597E+03</rscale>
<asrwt>0</asrwt>
<pdfrwt beam="1">  1       21 0.14606445E-01 0.17471597E+03</pdfrwt>
<pdfrwt beam="2">  1       21 0.58887637E-01 0.17471597E+03</pdfrwt>
<totfact> 0.11179485E+05</totfact>
</mgrwt>
</event>
<event>
 4    1  0.4429256E+000  0.2237435E+03  0.7546771E-02  0.1131122E+00
         21   -1    0    0  503  502  0.00000000000E+00  0.00000000000E+00  0.16510421843E+03  0.16510421843E+03  0.00000000000E+00 0.  1.
         21   -1    0    0  501  503 -0.00000000000E+00 -0.00000000000E+00 -0.38747898899E+03  0.38747898899E+03  0.00000000000E+00 0.  1.
          6    1    1    2  501    0  0.65206106102E+02 -0.12601716014E+03 -0.24003574417E+03  0.32814374808E+03  0.17300000000E+03 0.  1.
         -6    1    1    2    0  502 -0.65206106102E+02  0.12601716014E+03  0.17660973610E+02  0.22443945935E+03  0.17300000000E+03 0.  1.
<mgrwt>
<rscale>  2 0.22374352E+03</rscale>
<asrwt>0</asrwt>
<pdfrwt beam="1">  1       21 0.25400649E-01 0.22374352E+03</pdfrwt>
<pdfrwt beam="2">  1       21 0.59612151E-01 0.22374352E+03</pdfrwt>
<totfact> 0.38006569E+04</totfact>
</mgrwt>
</event>
<event>
 4    1  0.4429256E+000  0.1743306E+03  0.7546771E-02  0.1173405E+00
         21   -1    0    0  503  502  0.00000000000E+00  0.00000000000E+00  0.29399163415E+03  0.29399163415E+03  0.00000000000E+00 0. -1.
         21   -1    0    0  501  503 -0.00000000000E+00 -0.00000000000E+00 -0.10337434662E+03  0.10337434662E+03  0.00000000000E+00 0. -1.
          6    1    1    2  501    0  0.89383137942E+01  0.19551936577E+02  0.95141865253E+02  0.19860298639E+03  0.17300000000E+03 0.  1.
         -6    1    1    2    0  502 -0.89383137942E+01 -0.19551936577E+02  0.95475422274E+02  0.19876299438E+03  0.17300000000E+03 0.  1.
<mgrwt>
<rscale>  2 0.17433064E+03</rscale>
<asrwt>0</asrwt>
<pdfrwt beam="1">  1       21 0.45229482E-01 0.17433064E+03</pdfrwt>
<pdfrwt beam="2">  1       21 0.15903746E-01 0.17433064E+03</pdfrwt>
<totfact> 0.16627883E+05</totfact>
</mgrwt>
</event>
<event>
 4    1  0.4429256E+000  0.1839898E+03  0.7546771E-02  0.1163997E+00
         21   -1    0    0  503  502  0.00000000000E+00  0.00000000000E+00  0.37987442078E+03  0.37987442078E+03  0.00000000000E+00 0.  1.
         21   -1    0    0  501  503 -0.00000000000E+00 -0.00000000000E+00 -0.18494059754E+03  0.18494059754E+03  0.00000000000E+00 0.  1.
          6    1    1    2  501    0  0.62272305967E+02  0.67385902597E+01 -0.10581673045E+03  0.21224850796E+03  0.17300000000E+03 0.  1.
         -6    1    1    2    0  502 -0.62272305967E+02 -0.67385902597E+01  0.30075055368E+03  0.35256651036E+03  0.17300000000E+03 0.  1.
<mgrwt>
<rscale>  2 0.18398981E+03</rscale>
<asrwt>0</asrwt>
<pdfrwt beam="1">  1       21 0.58442218E-01 0.18398981E+03</pdfrwt>
<pdfrwt beam="2">  1       21 0.28452400E-01 0.18398981E+03</pdfrwt>
<totfact> 0.32528587E+04</totfact>
</mgrwt>
</event>
<event>
 4    1  0.4429256E+000  0.1993200E+03  0.7546771E-02  0.1150314E+00
         21   -1    0    0  503  502  0.00000000000E+00  0.00000000000E+00  0.50751074295E+02  0.50751074295E+02  0.00000000000E+00 0.  1.
         21   -1    0    0  501  503 -0.00000000000E+00 -0.00000000000E+00 -0.78375336606E+03  0.78375336606E+03  0.00000000000E+00 0.  1.
          6    1    1    2  501    0 -0.73451956925E+02 -0.66364825122E+02 -0.38097239626E+03  0.42996330855E+03  0.17300000000E+03 0.  1.
         -6    1    1    2    0  502  0.73451956925E+02  0.66364825122E+02 -0.35202989551E+03  0.40454113180E+03  0.17300000000E+03 0.  1.
<mgrwt>
<rscale>  2 0.19932004E+03</rscale>
<asrwt>0</asrwt>
<pdfrwt beam="1">  1       21 0.78078577E-02 0.19932004E+03</pdfrwt>
<pdfrwt beam="2">  1       21 0.12057744E+00 0.19932004E+03</pdfrwt>
<totfact> 0.65109239E+04</totfact>
</mgrwt>
</event>
<event>
 4    1  0.4429256E+000  0.1779993E+03  0.7546771E-02  0.1169754E+00
         21   -1    0    0  501  502  0.00000000000E+00  0.00000000000E+00  0.40374178894E+03  0.40374178894E+03  0.00000000000E+00 0.  1.
         21   -1    0    0  502  503 -0.00000000000E+00 -0.00000000000E+00 -0.14702072657E+03  0.14702072657E+03  0.00000000000E+00 0.  1.
          6    1    1    2  501    0 -0.22710880128E+02  0.35198774606E+02 -0.59672651492E+02  0.18773535401E+03  0.17300000000E+03 0.  1.
         -6    1    1    2    0  503  0.22710880128E+02 -0.35198774606E+02  0.31639371386E+03  0.36302716149E+03  0.17300000000E+03 0.  1.
<mgrwt>
<rscale>  2 0.17799926E+03</rscale>
<asrwt>0</asrwt>
<pdfrwt beam="1">  1       21 0.62114121E-01 0.17799926E+03</pdfrwt>
<pdfrwt beam="2">  1       21 0.22618573E-01 0.17799926E+03</pdfrwt>
<totfact> 0.44376271E+04</totfact>
</mgrwt>
</event>
<event>
 4    1  0.4429256E+000  0.1982356E+03  0.7546771E-02  0.1151236E+00
         21   -1    0    0  501  502  0.00000000000E+00  0.00000000000E+00  0.78750089974E+02  0.78750089974E+02  0.00000000000E+00 0. -1.
         21   -1    0    0  502  503 -0.00000000000E+00 -0.00000000000E+00 -0.60554972135E+03  0.60554972135E+03  0.00000000000E+00 0.  1.
          6    1    1    2  501    0  0.48201772229E+01  0.96670185388E+02 -0.11988717907E+03  0.23166850144E+03  0.17300000000E+03 0.  1.
         -6    1    1    2    0  503 -0.48201772229E+01 -0.96670185388E+02 -0.40691245230E+03  0.45263130989E+03  0.17300000000E+03 0. -1.
<mgrwt>
<rscale>  2 0.19823561E+03</rscale>
<asrwt>0</asrwt>
<pdfrwt beam="1">  1       21 0.12115398E-01 0.19823561E+03</pdfrwt>
<pdfrwt beam="2">  1       21 0.93161497E-01 0.19823561E+03</pdfrwt>
<totfact> 0.55778767E+04</totfact>
</mgrwt>
</event>
<event>
 4    1  0.4429256E+000  0.2061230E+03  0.7546771E-02  0.1144673E+00
         21   -1    0    0  503  502  0.00000000000E+00  0.00000000000E+00  0.38195968885E+03  0.38195968885E+03  0.00000000000E+00 0. -1.
         21   -1    0    0  501  503 -0.00000000000E+00 -0.00000000000E+00 -0.12701314483E+03  0.12701314483E+03  0.00000000000E+00 0. -1.
          6    1    1    2  501    0 -0.61725232121E+02 -0.93529017958E+02  0.37773772134E+02  0.20955557578E+03  0.17300000000E+03 0. -1.
         -6    1    1    2    0  502  0.61725232121E+02  0.93529017958E+02  0.21717277189E+03  0.29941725790E+03  0.17300000000E+03 0. -1.
<mgrwt>
<rscale>  2 0.20612298E+03</rscale>
<asrwt>0</asrwt>
<pdfrwt beam="1">  1       21 0.58763029E-01 0.20612298E+03</pdfrwt>
<pdfrwt beam="2">  1       21 0.19540484E-01 0.20612298E+03</pdfrwt>
<totfact> 0.64914726E+04</totfact>
</mgrwt>
</event>
<event>
 4    1  0.4429256E+000  0.2215997E+03  0.7546771E-02  0.1132696E+00
         21   -1    0    0  503  502  0.00000000000E+00  0.00000000000E+00  0.38800692872E+03  0.38800692872E+03  0.00000000000E+00 0. -1.
         21   -1    0    0  501  503 -0.00000000000E+00 -0.00000000000E+00 -0.58430084123E+03  0.58430084123E+03  0.00000000000E+00 0. -1.
          6    1    1    2  501    0  0.13032236216E+03  0.46834934576E+02 -0.52844067224E+03  0.57302353639E+03  0.17300000000E+03 0. -1.
         -6    1    1    2    0  502 -0.13032236216E+03 -0.46834934576E+02  0.33214675973E+03  0.39928423357E+03  0.17300000000E+03 0. -1.
<mgrwt>
<rscale>  2 0.22159970E+03</rscale>
<asrwt>0</asrwt>
<pdfrwt beam="1">  1       21 0.59693374E-01 0.22159970E+03</pdfrwt>
<pdfrwt beam="2">  1       21 0.89892437E-01 0.22159970E+03</pdfrwt>
<totfact> 0.26944271E+03</totfact>
</mgrwt>
</event>
<event>
 4    1  0.4429256E+000  0.1741048E+03  0.7546771E-02  0.1173634E+00
         21   -1    0    0  503  502  0.00000000000E+00  0.00000000000E+00  0.28032577758E+02  0.28032577758E+02  0.00000000000E+00 0. -1.
         21   -1    0    0  501  503 -0.00000000000E+00 -0.00000000000E+00 -0.11643205020E+04  0.11643205020E+04  0.00000000000E+00 0. -1.
          6    1    1    2  501    0 -0.18325852862E+02 -0.69017769207E+01 -0.72731073925E+03  0.74785919988E+03  0.17300000000E+03 0. -1.
         -6    1    1    2    0  502  0.18325852862E+02  0.69017769207E+01 -0.40897718494E+03  0.44449387984E+03  0.17300000000E+03 0. -1.
<mgrwt>
<rscale>  2 0.17410477E+03</rscale>
<asrwt>0</asrwt>
<pdfrwt beam="1">  1       21 0.43127044E-02 0.17410477E+03</pdfrwt>
<pdfrwt beam="2">  1       21 0.17912623E+00 0.17410477E+03</pdfrwt>
<totfact> 0.64403871E+04</totfact>
</mgrwt>
</event>
<event>
 4    1  0.4429256E+000  0.2055675E+03  0.7546771E-02  0.1145125E+00
         21   -1    0    0  503  502  0.00000000000E+00  0.00000000000E+00  0.17153146241E+03  0.17153146241E+03  0.00000000000E+00 0.  1.
         21   -1    0    0  501  503 -0.00000000000E+00 -0.00000000000E+00 -0.26884856747E+03  0.26884856747E+03  0.00000000000E+00 0.  1.
          6    1    1    2  501    0  0.96942198018E+02 -0.54140767200E+02 -0.11234567046E+03  0.23426387280E+03  0.17300000000E+03 0.  1.
         -6    1    1    2    0  502 -0.96942198018E+02  0.54140767200E+02  0.15028565401E+02  0.20611615708E+03  0.17300000000E+03 0.  1.
<mgrwt>
<rscale>  2 0.20556754E+03</rscale>
<asrwt>0</asrwt>
<pdfrwt beam="1">  1       21 0.26389456E-01 0.20556754E+03</pdfrwt>
<pdfrwt beam="2">  1       21 0.41361318E-01 0.20556754E+03</pdfrwt>
<totfact> 0.76440451E+04</totfact>
</mgrwt>
</event>
<event>
 4    1  0.4429256E+000  0.1956462E+03  0.7546771E-02  0.1153465E+00
         21   -1    0    0  503  502  0.00000000000E+00  0.00000000000E+00  0.33693139627E+03  0.33693139627E+03  0.00000000000E+00 0.  1.
         21   -1    0    0  501  503 -0.00000000000E+00 -0.00000000000E+00 -0.14158999957E+03  0.14158999957E+03  0.00000000000E+00 0.  1.
          6    1    1    2  501    0 -0.89139133112E+02  0.20066383238E+02 -0.86969568867E+01  0.19583942874E+03  0.17300000000E+03 0.  1.
         -6    1    1    2    0  502  0.89139133112E+02 -0.20066383238E+02  0.20403835359E+03  0.28268196710E+03  0.17300000000E+03 0.  1.
<mgrwt>
<rscale>  2 0.19564622E+03</rscale>
<asrwt>0</asrwt>
<pdfrwt beam="1">  1       21 0.51835599E-01 0.19564622E+03</pdfrwt>
<pdfrwt beam="2">  1       21 0.21783077E-01 0.19564622E+03</pdfrwt>
<totfact> 0.69406988E+04</totfact>
</mgrwt>
</event>
<event>
 4    1  0.4429256E+000  0.2302347E+03  0.7546771E-02  0.1126475E+00
         21   -1    0    0  501  502  0.00000000000E+00  0.00000000000E+00  0.10648276844E+03  0.10648276844E+03  0.00000000000E+00 0.  1.
         21   -1    0    0  502  503 -0.00000000000E+00 -0.00000000000E+00 -0.50996116958E+03  0.50996116958E+03  0.00000000000E+00 0.  1.
          6    1    1    2  501    0  0.14636737741E+03  0.40689382629E+02 -0.15415863796E+03  0.27707926788E+03  0.17300000000E+03 0.  1.
         -6    1    1    2    0  503 -0.14636737741E+03 -0.40689382629E+02 -0.24931976318E+03  0.33936467015E+03  0.17300000000E+03 0.  1.
<mgrwt>
<rscale>  2 0.23023474E+03</rscale>
<asrwt>0</asrwt>
<pdfrwt beam="1">  1       21 0.16381964E-01 0.23023474E+03</pdfrwt>
<pdfrwt beam="2">  1       21 0.78455566E-01 0.23023474E+03</pdfrwt>
<totfact> 0.47132239E+04</totfact>
</mgrwt>
</event>
<event>
 4    1  0.4429256E+000  0.1862020E+03  0.7546771E-02  0.1161932E+00
         21   -1    0    0  501  502  0.00000000000E+00  0.00000000000E+00  0.31013062107E+03  0.31013062107E+03  0.00000000000E+00 0. -1.
         21   -1    0    0  502  503 -0.00000000000E+00 -0.00000000000E+00 -0.12878959679E+03  0.12878959679E+03  0.00000000000E+00 0. -1.
          6    1    1    2  501    0 -0.50669175092E+02 -0.46634869251E+02  0.17039019106E+03  0.25239650065E+03  0.17300000000E+03 0. -1.
         -6    1    1    2    0  503  0.50669175092E+02  0.46634869251E+02  0.10950833227E+02  0.18652371721E+03  0.17300000000E+03 0. -1.
<mgrwt>
<rscale>  2 0.18620198E+03</rscale>
<asrwt>0</asrwt>
<pdfrwt beam="1">  1       21 0.47712403E-01 0.18620198E+03</pdfrwt>
<pdfrwt beam="2">  1       21 0.19813784E-01 0.18620198E+03</pdfrwt>
<totfact> 0.98895091E+04</totfact>
</mgrwt>
</event>
<event>
 4    1  0.4429256E+000  0.1863990E+03  0.7546771E-02  0.1161750E+00
         21   -1    0    0  501  502  0.00000000000E+00  0.00000000000E+00  0.70657826550E+03  0.70657826550E+03  0.00000000000E+00 0. -1.
         21   -1    0    0  502  503 -0.00000000000E+00 -0.00000000000E+00 -0.58815909023E+02  0.58815909023E+02  0.00000000000E+00 0.  1.
          6    1    1    2  501    0  0.37950195256E+02 -0.58098093589E+02  0.47883801454E+03  0.51383893388E+03  0.17300000000E+03 0.  1.
         -6    1    1    2    0  503 -0.37950195256E+02  0.58098093589E+02  0.16892434194E+03  0.25155524065E+03  0.17300000000E+03 0.  1.
<mgrwt>
<rscale>  2 0.18639905E+03</rscale>
<asrwt>0</asrwt>
<pdfrwt beam="1">  1       21 0.10870434E+00 0.18639905E+03</pdfrwt>
<pdfrwt beam="2">  1       21 0.90486019E-02 0.18639905E+03</pdfrwt>
<totfact> 0.65225297E+04</totfact>
</mgrwt>
</event>
<event>
 4    1  0.4429256E+000  0.2405908E+03  0.7546771E-02  0.1119400E+00
         21   -1    0    0  501  502  0.00000000000E+00  0.00000000000E+00  0.13012943449E+03  0.13012943449E+03  0.00000000000E+00 0. -1.
         21   -1    0    0  502  503 -0.00000000000E+00 -0.00000000000E+00 -0.44705678026E+03  0.44705678026E+03  0.00000000000E+00 0. -1.
          6    1    1    2  501    0 -0.15324031562E+03  0.66875455123E+02 -0.13804131679E+03  0.27737938995E+03  0.17300000000E+03 0. -1.
         -6    1    1    2    0  503  0.15324031562E+03 -0.66875455123E+02 -0.17888602898E+03  0.29980682479E+03  0.17300000000E+03 0. -1.
<mgrwt>
<rscale>  2 0.24059077E+03</rscale>
<asrwt>0</asrwt>
<pdfrwt beam="1">  1       21 0.20019913E-01 0.24059077E+03</pdfrwt>
<pdfrwt beam="2">  1       21 0.68777966E-01 0.24059077E+03</pdfrwt>
<totfact> 0.43379988E+04</totfact>
</mgrwt>
</event>
<event>
 4    1  0.4429256E+000  0.2416575E+03  0.7546771E-02  0.1118694E+00
         21   -1    0    0  501  502  0.00000000000E+00  0.00000000000E+00  0.11341827220E+04  0.11341827220E+04  0.00000000000E+00 0. -1.
         21   -1    0    0  502  503 -0.00000000000E+00 -0.00000000000E+00 -0.53695489439E+02  0.53695489439E+02  0.00000000000E+00 0.  1.
          6    1    1    2  501    0  0.70350509027E+02  0.15336280420E+03  0.66063305669E+03  0.70344465271E+03  0.17300000000E+03 0. -1.
         -6    1    1    2    0  503 -0.70350509027E+02 -0.15336280420E+03  0.41985417591E+03  0.48443355877E+03  0.17300000000E+03 0.  1.
<mgrwt>
<rscale>  2 0.24165749E+03</rscale>
<asrwt>0</asrwt>
<pdfrwt beam="1">  1       21 0.17448963E+00 0.24165749E+03</pdfrwt>
<pdfrwt beam="2">  1       21 0.82608454E-02 0.24165749E+03</pdfrwt>
<totfact> 0.21824628E+04</totfact>
</mgrwt>
</event>
<event>
 4    1  0.4429256E+000  0.1779417E+03  0.7546771E-02  0.1169810E+00
         21   -1    0    0  503  502  0.00000000000E+00  0.00000000000E+00  0.34349410453E+03  0.34349410453E+03  0.00000000000E+00 0.  1.
         21   -1    0    0  501  503 -0.00000000000E+00 -0.00000000000E+00 -0.10026062767E+03  0.10026062767E+03  0.00000000000E+00 0.  1.
          6    1    1    2  501    0  0.20841714535E+02 -0.36053784768E+02  0.18460694137E+03  0.25640392989E+03  0.17300000000E+03 0.  1.
         -6    1    1    2    0  502 -0.20841714535E+02  0.36053784768E+02  0.58626535495E+02  0.18735080231E+03  0.17300000000E+03 0.  1.
<mgrwt>
<rscale>  2 0.17794171E+03</rscale>
<asrwt>0</asrwt>
<pdfrwt beam="1">  1       21 0.52845246E-01 0.17794171E+03</pdfrwt>
<pdfrwt beam="2">  1       21 0.15424712E-01 0.17794171E+03</pdfrwt>
<totfact> 0.12716730E+05</totfact>
</mgrwt>
</event>
<event>
 4    1  0.4429256E+000  0.1890121E+03  0.7546771E-02  0.1159355E+00
         21   -1    0    0  503  502  0.00000000000E+00  0.00000000000E+00  0.13563883902E+03  0.13563883902E+03  0.00000000000E+00 0. -1.
         21   -1    0    0  501  503 -0.00000000000E+00 -0.00000000000E+00 -0.29140992467E+03  0.29140992467E+03  0.00000000000E+00 0. -1.
          6    1    1    2  501    0  0.73867845117E+02 -0.18442537457E+02 -0.14409919296E+03  0.23767659359E+03  0.17300000000E+03 0. -1.
         -6    1    1    2    0  502 -0.73867845117E+02  0.18442537457E+02 -0.11671892694E+02  0.18937217010E+03  0.17300000000E+03 0. -1.
<mgrwt>
<rscale>  2 0.18901213E+03</rscale>
<asrwt>0</asrwt>
<pdfrwt beam="1">  1       21 0.20867514E-01 0.18901213E+03</pdfrwt>
<pdfrwt beam="2">  1       21 0.44832295E-01 0.18901213E+03</pdfrwt>
<totfact> 0.10194406E+05</totfact>
</mgrwt>
</event>
<event>
 4    1  0.4429256E+000  0.2763398E+03  0.7546771E-02  0.1097705E+00
         21   -1    0    0  503  502  0.00000000000E+00  0.00000000000E+00  0.37438212408E+03  0.37438212408E+03  0.00000000000E+00 0.  1.
         21   -1    0    0  501  503 -0.00000000000E+00 -0.00000000000E+00 -0.22373852293E+03  0.22373852293E+03  0.00000000000E+00 0.  1.
          6    1    1    2  501    0  0.18988857992E+03 -0.10186767314E+03 -0.13566981039E+02  0.27667265602E+03  0.17300000000E+03 0.  1.
         -6    1    1    2    0  502 -0.18988857992E+03  0.10186767314E+03  0.16421058219E+03  0.32144799099E+03  0.17300000000E+03 0.  1.
<mgrwt>
<rscale>  2 0.27633982E+03</rscale>
<asrwt>0</asrwt>
<pdfrwt beam="1">  1       21 0.57597250E-01 0.27633982E+03</pdfrwt>
<pdfrwt beam="2">  1       21 0.34421311E-01 0.27633982E+03</pdfrwt>
<totfact> 0.22047518E+04</totfact>
</mgrwt>
</event>
<event>
 4    1  0.4429256E+000  0.1777825E+03  0.7546771E-02  0.1169967E+00
         21   -1    0    0  503  502  0.00000000000E+00  0.00000000000E+00  0.92386294745E+03  0.92386294745E+03  0.00000000000E+00 0. -1.
         21   -1    0    0  501  503 -0.00000000000E+00 -0.00000000000E+00 -0.97389289155E+02  0.97389289155E+02  0.00000000000E+00 0. -1.
          6    1    1    2  501    0  0.16519229657E+02 -0.37479776520E+02  0.19639414961E+01  0.17779335101E+03  0.17300000000E+03 0. -1.
         -6    1    1    2    0  502 -0.16519229657E+02  0.37479776520E+02  0.82450971680E+03  0.84345888560E+03  0.17300000000E+03 0. -1.
<mgrwt>
<rscale>  2 0.17778250E+03</rscale>
<asrwt>0</asrwt>
<pdfrwt beam="1">  1       21 0.14213276E+00 0.17778250E+03</pdfrwt>
<pdfrwt beam="2">  1       21 0.14982968E-01 0.17778250E+03</pdfrwt>
<totfact> 0.13671411E+04</totfact>
</mgrwt>
</event>
<event>
 4    1  0.4429256E+000  0.2146848E+03  0.7546771E-02  0.1137909E+00
         21   -1    0    0  503  502  0.00000000000E+00  0.00000000000E+00  0.13627358561E+04  0.13627358561E+04  0.00000000000E+00 0. -1.
         21   -1    0    0  501  503 -0.00000000000E+00 -0.00000000000E+00 -0.35526772611E+02  0.35526772611E+02  0.00000000000E+00 0. -1.
          6    1    1    2  501    0  0.36442849694E+02 -0.12178874599E+03  0.51042681699E+03  0.55373740658E+03  0.17300000000E+03 0. -1.
         -6    1    1    2    0  502 -0.36442849694E+02  0.12178874599E+03  0.81678226648E+03  0.84452522211E+03  0.17300000000E+03 0. -1.
<mgrwt>
<rscale>  2 0.21468484E+03</rscale>
<asrwt>0</asrwt>
<pdfrwt beam="1">  1       21 0.20965163E+00 0.21468484E+03</pdfrwt>
<pdfrwt beam="2">  1       21 0.54656584E-02 0.21468484E+03</pdfrwt>
<totfact> 0.26536669E+04</totfact>
</mgrwt>
</event>
<event>
 4    1  0.4429256E+000  0.1914036E+03  0.7546771E-02  0.1157201E+00
         21   -1    0    0  503  502  0.00000000000E+00  0.00000000000E+00  0.39853201697E+03  0.39853201697E+03  0.00000000000E+00 0. -1.
         21   -1    0    0  501  503 -0.00000000000E+00 -0.00000000000E+00 -0.94506913884E+02  0.94506913884E+02  0.00000000000E+00 0. -1.
          6    1    1    2  501    0  0.80609358225E+02 -0.14437865577E+02  0.11127129816E+03  0.22139697918E+03  0.17300000000E+03 0. -1.
         -6    1    1    2    0  502 -0.80609358225E+02  0.14437865577E+02  0.19275380493E+03  0.27164195168E+03  0.17300000000E+03 0. -1.
<mgrwt>
<rscale>  2 0.19140355E+03</rscale>
<asrwt>0</asrwt>
<pdfrwt beam="1">  1       21 0.61312617E-01 0.19140355E+03</pdfrwt>
<pdfrwt beam="2">  1       21 0.14539525E-01 0.19140355E+03</pdfrwt>
<totfact> 0.10273853E+05</totfact>
</mgrwt>
</event>
<event>
 4    1  0.4429256E+000  0.2733032E+03  0.7546771E-02  0.1099404E+00
         21   -1    0    0  501  502  0.00000000000E+00  0.00000000000E+00  0.68001380444E+02  0.68001380444E+02  0.00000000000E+00 0.  1.
         21   -1    0    0  502  503 -0.00000000000E+00 -0.00000000000E+00 -0.11412410609E+04  0.11412410609E+04  0.00000000000E+00 0. -1.
          6    1    1    2  501    0  0.21083433573E+03  0.17734391020E+02 -0.41951295610E+03  0.50068527648E+03  0.17300000000E+03 0.  1.
         -6    1    1    2    0  503 -0.21083433573E+03 -0.17734391020E+02 -0.65372672437E+03  0.70855716488E+03  0.17300000000E+03 0. -1.
<mgrwt>
<rscale>  2 0.27330318E+03</rscale>
<asrwt>0</asrwt>
<pdfrwt beam="1">  1       21 0.10461751E-01 0.27330318E+03</pdfrwt>
<pdfrwt beam="2">  1       21 0.17557554E+00 0.27330318E+03</pdfrwt>
<totfact> 0.13869471E+04</totfact>
</mgrwt>
</event>
<event>
 4    1  0.4429256E+000  0.2118310E+03  0.7546771E-02  0.1140124E+00
         21   -1    0    0  501  502  0.00000000000E+00  0.00000000000E+00  0.89975451383E+02  0.89975451383E+02  0.00000000000E+00 0. -1.
         21   -1    0    0  502  503 -0.00000000000E+00 -0.00000000000E+00 -0.49886411306E+03  0.49886411306E+03  0.00000000000E+00 0. -1.
          6    1    1    2  501    0  0.82847096682E+02  0.89887284428E+02 -0.19940334207E+03  0.29091933274E+03  0.17300000000E+03 0. -1.
         -6    1    1    2    0  503 -0.82847096682E+02 -0.89887284428E+02 -0.20948531961E+03  0.29792023171E+03  0.17300000000E+03 0. -1.
<mgrwt>
<rscale>  2 0.21183098E+03</rscale>
<asrwt>0</asrwt>
<pdfrwt beam="1">  1       21 0.13842377E-01 0.21183098E+03</pdfrwt>
<pdfrwt beam="2">  1       21 0.76748326E-01 0.21183098E+03</pdfrwt>
<totfact> 0.67935391E+04</totfact>
</mgrwt>
</event>
<event>
 4    1  0.4429256E+000  0.2756767E+03  0.7546771E-02  0.1098074E+00
         21   -1    0    0  501  502  0.00000000000E+00  0.00000000000E+00  0.26949202127E+04  0.26949202127E+04  0.00000000000E+00 0.  1.
         21   -1    0    0  502  503 -0.00000000000E+00 -0.00000000000E+00 -0.28421617841E+02  0.28421617841E+02  0.00000000000E+00 0. -1.
          6    1    1    2  501    0  0.20347155347E+03  0.68322487129E+02  0.14534004653E+04  0.14793142154E+04  0.17300000000E+03 0.  1.
         -6    1    1    2    0  503 -0.20347155347E+03 -0.68322487129E+02  0.12130981295E+04  0.12440276151E+04  0.17300000000E+03 0. -1.
<mgrwt>
<rscale>  2 0.27567669E+03</rscale>
<asrwt>0</asrwt>
<pdfrwt beam="1">  1       21 0.41460291E+00 0.27567669E+03</pdfrwt>
<pdfrwt beam="2">  1       21 0.43725587E-02 0.27567669E+03</pdfrwt>
<totfact> 0.21508963E+03</totfact>
</mgrwt>
</event>
<event>
 4    1  0.4429256E+000  0.1812625E+03  0.7546771E-02  0.1166587E+00
         21   -1    0    0  501  502  0.00000000000E+00  0.00000000000E+00  0.62447413133E+02  0.62447413133E+02  0.00000000000E+00 0.  1.
         21   -1    0    0  502  503 -0.00000000000E+00 -0.00000000000E+00 -0.64868347745E+03  0.64868347745E+03  0.00000000000E+00 0.  1.
          6    1    1    2  501    0 -0.39169067297E+02  0.37321329229E+02 -0.13857558296E+03  0.22816504912E+03  0.17300000000E+03 0.  1.
         -6    1    1    2    0  503  0.39169067297E+02 -0.37321329229E+02 -0.44766048136E+03  0.48296584146E+03  0.17300000000E+03 0.  1.
<mgrwt>
<rscale>  2 0.18126251E+03</rscale>
<asrwt>0</asrwt>
<pdfrwt beam="1">  1       21 0.96072945E-02 0.18126251E+03</pdfrwt>
<pdfrwt beam="2">  1       21 0.99797457E-01 0.18126251E+03</pdfrwt>
<totfact> 0.72210993E+04</totfact>
</mgrwt>
</event>
<event>
 4    1  0.4429256E+000  0.2920612E+03  0.7546771E-02  0.1089278E+00
         21   -1    0    0  501  502  0.00000000000E+00  0.00000000000E+00  0.25647482789E+03  0.25647482789E+03  0.00000000000E+00 0.  1.
         21   -1    0    0  502  503 -0.00000000000E+00 -0.00000000000E+00 -0.33757465564E+03  0.33757465564E+03  0.00000000000E+00 0. -1.
          6    1    1    2  501    0  0.12153052870E+03 -0.20149711744E+03 -0.44397122943E+01  0.29209496536E+03  0.17300000000E+03 0.  1.
         -6    1    1    2    0  503 -0.12153052870E+03  0.20149711744E+03 -0.76660115449E+02  0.30195451817E+03  0.17300000000E+03 0. -1.
<mgrwt>
<rscale>  2 0.29206122E+03</rscale>
<asrwt>0</asrwt>
<pdfrwt beam="1">  1       21 0.39457666E-01 0.29206122E+03</pdfrwt>
<pdfrwt beam="2">  1       21 0.51934562E-01 0.29206122E+03</pdfrwt>
<totfact> 0.20743264E+04</totfact>
</mgrwt>
</event>
<event>
 4    1  0.4429256E+000  0.2256610E+03  0.7546771E-02  0.1129732E+00
         21   -1    0    0  503  502  0.00000000000E+00  0.00000000000E+00  0.12061474249E+03  0.12061474249E+03  0.00000000000E+00 0. -1.
         21   -1    0    0  501  503 -0.00000000000E+00 -0.00000000000E+00 -0.47631698071E+03  0.47631698071E+03  0.00000000000E+00 0. -1.
          6    1    1    2  501    0 -0.56434918776E+02 -0.13345032552E+03 -0.27845973975E+03  0.35841695844E+03  0.17300000000E+03 0. -1.
         -6    1    1    2    0  502  0.56434918776E+02  0.13345032552E+03 -0.77242498475E+02  0.23851476476E+03  0.17300000000E+03 0. -1.
<mgrwt>
<rscale>  2 0.22566101E+03</rscale>
<asrwt>0</asrwt>
<pdfrwt beam="1">  1       21 0.18556114E-01 0.22566101E+03</pdfrwt>
<pdfrwt beam="2">  1       21 0.73279536E-01 0.22566101E+03</pdfrwt>
<totfact> 0.43716866E+04</totfact>
</mgrwt>
</event>
<event>
 4    1  0.4429256E+000  0.1851306E+03  0.7546771E-02  0.1162928E+00
         21   -1    0    0  501  502  0.00000000000E+00  0.00000000000E+00  0.14818996570E+04  0.14818996570E+04  0.00000000000E+00 0. -1.
         21   -1    0    0  502  503 -0.00000000000E+00 -0.00000000000E+00 -0.32188097247E+02  0.32188097247E+02  0.00000000000E+00 0. -1.
          6    1    1    2  501    0 -0.35631474815E+02 -0.55450260949E+02  0.11264990598E+04  0.11416100320E+04  0.17300000000E+03 0. -1.
         -6    1    1    2    0  503  0.35631474815E+02  0.55450260949E+02  0.32321249988E+03  0.37247772218E+03  0.17300000000E+03 0. -1.
<mgrwt>
<rscale>  2 0.18513058E+03</rscale>
<asrwt>0</asrwt>
<pdfrwt beam="1">  1       21 0.22798451E+00 0.18513058E+03</pdfrwt>
<pdfrwt beam="2">  1       21 0.49520161E-02 0.18513058E+03</pdfrwt>
<totfact> 0.24741372E+04</totfact>
</mgrwt>
</event>
<event>
 4    1  0.4429256E+000  0.1771112E+03  0.7546771E-02  0.1170628E+00
         21   -1    0    0  503  502  0.00000000000E+00  0.00000000000E+00  0.16145856137E+04  0.16145856137E+04  0.00000000000E+00 0. -1.
         21   -1    0    0  501  503 -0.00000000000E+00 -0.00000000000E+00 -0.19471207342E+02  0.19471207342E+02  0.00000000000E+00 0. -1.
          6    1    1    2  501    0 -0.37370579482E+02  0.65431679068E+01  0.75912602347E+03  0.77951311263E+03  0.17300000000E+03 0.  1.
         -6    1    1    2    0  502  0.37370579482E+02 -0.65431679068E+01  0.83598838290E+03  0.85454370842E+03  0.17300000000E+03 0.  1.
<mgrwt>
<rscale>  2 0.17711119E+03</rscale>
<asrwt>0</asrwt>
<pdfrwt beam="1">  1       21 0.24839768E+00 0.17711119E+03</pdfrwt>
<pdfrwt beam="2">  1       21 0.29955716E-02 0.17711119E+03</pdfrwt>
<totfact> 0.43643106E+04</totfact>
</mgrwt>
</event>
<event>
 4    1  0.4429256E+000  0.2373105E+03  0.7546771E-02  0.1121598E+00
         21   -1    0    0  501  502  0.00000000000E+00  0.00000000000E+00  0.64649317262E+03  0.64649317262E+03  0.00000000000E+00 0.  1.
         21   -1    0    0  502  503 -0.00000000000E+00 -0.00000000000E+00 -0.10295502093E+03  0.10295502093E+03  0.00000000000E+00 0.  1.
          6    1    1    2  501    0  0.16040226662E+03  0.25659330261E+02  0.41877288258E+03  0.48133877420E+03  0.17300000000E+03 0.  1.
         -6    1    1    2    0  503 -0.16040226662E+03 -0.25659330261E+02  0.12476526911E+03  0.26810941935E+03  0.17300000000E+03 0.  1.
<mgrwt>
<rscale>  2 0.23731053E+03</rscale>
<asrwt>0</asrwt>
<pdfrwt beam="1">  1       21 0.99460485E-01 0.23731053E+03</pdfrwt>
<pdfrwt beam="2">  1       21 0.15839234E-01 0.23731053E+03</pdfrwt>
<totfact> 0.28831584E+04</totfact>
</mgrwt>
</event>
<event>
 4    1  0.4429256E+000  0.1825124E+03  0.7546771E-02  0.1165393E+00
         21   -1    0    0  501  502  0.00000000000E+00  0.00000000000E+00  0.68841580692E+03  0.68841580692E+03  0.00000000000E+00 0.  1.
         21   -1    0    0  502  503 -0.00000000000E+00 -0.00000000000E+00 -0.49178957372E+02  0.49178957372E+02  0.00000000000E+00 0.  1.
          6    1    1    2  501    0 -0.53067040058E+02  0.23783984279E+02  0.36640104229E+03  0.40934155963E+03  0.17300000000E+03 0. -1.
         -6    1    1    2    0  503  0.53067040058E+02 -0.23783984279E+02  0.27283580726E+03  0.32825320466E+03  0.17300000000E+03 0. -1.
<mgrwt>
<rscale>  2 0.18251243E+03</rscale>
<asrwt>0</asrwt>
<pdfrwt beam="1">  1       21 0.10591012E+00 0.18251243E+03</pdfrwt>
<pdfrwt beam="2">  1       21 0.75659939E-02 0.18251243E+03</pdfrwt>
<totfact> 0.95022737E+04</totfact>
</mgrwt>
</event>
<event>
 4    1  0.4429256E+000  0.2230701E+03  0.7546771E-02  0.1131615E+00
         21   -1    0    0  503  502  0.00000000000E+00  0.00000000000E+00  0.38105051600E+03  0.38105051600E+03  0.00000000000E+00 0.  1.
         21   -1    0    0  501  503 -0.00000000000E+00 -0.00000000000E+00 -0.13407225385E+03  0.13407225385E+03  0.00000000000E+00 0.  1.
          6    1    1    2  501    0  0.86568631173E+02 -0.11107259151E+03  0.81962401770E+02  0.23765118092E+03  0.17300000000E+03 0.  1.
         -6    1    1    2    0  502 -0.86568631173E+02  0.11107259151E+03  0.16501586038E+03  0.27747158894E+03  0.17300000000E+03 0.  1.
<mgrwt>
<rscale>  2 0.22307005E+03</rscale>
<asrwt>0</asrwt>
<pdfrwt beam="1">  1       21 0.58623156E-01 0.22307005E+03</pdfrwt>
<pdfrwt beam="2">  1       21 0.20626501E-01 0.22307005E+03</pdfrwt>
<totfact> 0.58523056E+04</totfact>
</mgrwt>
</event>
<event>
 4    1  0.4429256E+000  0.2926114E+03  0.7546771E-02  0.1088994E+00
         21   -1    0    0  501  502  0.00000000000E+00  0.00000000000E+00  0.19046931028E+03  0.19046931028E+03  0.00000000000E+00 0.  1.
         21   -1    0    0  502  503 -0.00000000000E+00 -0.00000000000E+00 -0.48763455429E+03  0.48763455429E+03  0.00000000000E+00 0.  1.
          6    1    1    2  501    0 -0.23258576975E+03 -0.39953276105E+02 -0.24336232506E+03  0.38058721184E+03  0.17300000000E+03 0.  1.
         -6    1    1    2    0  503  0.23258576975E+03  0.39953276105E+02 -0.53802918948E+02  0.29751665272E+03  0.17300000000E+03 0.  1.
<mgrwt>
<rscale>  2 0.29261135E+03</rscale>
<asrwt>0</asrwt>
<pdfrwt beam="1">  1       21 0.29302971E-01 0.29261135E+03</pdfrwt>
<pdfrwt beam="2">  1       21 0.75020700E-01 0.29261135E+03</pdfrwt>
<totfact> 0.16823769E+04</totfact>
</mgrwt>
</event>
<event>
 4    1  0.4429256E+000  0.3962292E+03  0.7546771E-02  0.1045093E+00
         21   -1    0    0  501  502  0.00000000000E+00  0.00000000000E+00  0.27010542201E+03  0.27010542201E+03  0.00000000000E+00 0.  1.
         21   -1    0    0  502  503 -0.00000000000E+00 -0.00000000000E+00 -0.86019509179E+03  0.86019509179E+03  0.00000000000E+00 0. -1.
          6    1    1    2  501    0 -0.29377961756E+03 -0.20189632960E+03  0.26786425721E+02  0.39713361001E+03  0.17300000000E+03 0.  1.
         -6    1    1    2    0  503  0.29377961756E+03  0.20189632960E+03 -0.61687609550E+03  0.73316690378E+03  0.17300000000E+03 0. -1.
<mgrwt>
<rscale>  2 0.39622922E+03</rscale>
<asrwt>0</asrwt>
<pdfrwt beam="1">  1       21 0.41554680E-01 0.39622922E+03</pdfrwt>
<pdfrwt beam="2">  1       21 0.13233771E+00 0.39622922E+03</pdfrwt>
<totfact> 0.20232513E+03</totfact>
</mgrwt>
</event>
<event>
 4    1  0.4429256E+000  0.2093536E+03  0.7546771E-02  0.1142079E+00
         21   -1    0    0  501  502  0.00000000000E+00  0.00000000000E+00  0.87407886295E+03  0.87407886295E+03  0.00000000000E+00 0.  1.
         21   -1    0    0  502  503 -0.00000000000E+00 -0.00000000000E+00 -0.11729241046E+03  0.11729241046E+03  0.00000000000E+00 0. -1.
          6    1    1    2  501    0  0.10047469872E+03 -0.61682796999E+02  0.75344609822E+03  0.78199102006E+03  0.17300000000E+03 0.  1.
         -6    1    1    2    0  503 -0.10047469872E+03  0.61682796999E+02  0.33403542690E+01  0.20938025336E+03  0.17300000000E+03 0. -1.
<mgrwt>
<rscale>  2 0.20935361E+03</rscale>
<asrwt>0</asrwt>
<pdfrwt beam="1">  1       21 0.13447367E+00 0.20935361E+03</pdfrwt>
<pdfrwt beam="2">  1       21 0.18044987E-01 0.20935361E+03</pdfrwt>
<totfact> 0.10955999E+04</totfact>
</mgrwt>
</event>
<event>
 4    1  0.4429256E+000  0.1794200E+03  0.7546771E-02  0.1168366E+00
         21   -1    0    0  503  502  0.00000000000E+00  0.00000000000E+00  0.12862107157E+03  0.12862107157E+03  0.00000000000E+00 0. -1.
         21   -1    0    0  501  503 -0.00000000000E+00 -0.00000000000E+00 -0.41210731110E+03  0.41210731110E+03  0.00000000000E+00 0. -1.
          6    1    1    2  501    0 -0.20594601518E+02 -0.42876639958E+02 -0.31116409828E+03  0.35918607980E+03  0.17300000000E+03 0. -1.
         -6    1    1    2    0  502  0.20594601518E+02  0.42876639958E+02  0.27677858756E+02  0.18154230287E+03  0.17300000000E+03 0. -1.
<mgrwt>
<rscale>  2 0.17942002E+03</rscale>
<asrwt>0</asrwt>
<pdfrwt beam="1">  1       21 0.19787857E-01 0.17942002E+03</pdfrwt>
<pdfrwt beam="2">  1       21 0.63401125E-01 0.17942002E+03</pdfrwt>
<totfact> 0.54507567E+04</totfact>
</mgrwt>
</event>
<event>
 4    1  0.4429256E+000  0.1974294E+03  0.7546771E-02  0.1151926E+00
         21   -1    0    0  501  502  0.00000000000E+00  0.00000000000E+00  0.13246647189E+03  0.13246647189E+03  0.00000000000E+00 0.  1.
         21   -1    0    0  502  503 -0.00000000000E+00 -0.00000000000E+00 -0.45776631196E+03  0.45776631196E+03  0.00000000000E+00 0. -1.
          6    1    1    2  501    0  0.65540919786E+02  0.68947563142E+02  0.13730659020E+02  0.19790631528E+03  0.17300000000E+03 0.  1.
         -6    1    1    2    0  503 -0.65540919786E+02 -0.68947563142E+02 -0.33903049909E+03  0.39232646857E+03  0.17300000000E+03 0. -1.
<mgrwt>
<rscale>  2 0.19742943E+03</rscale>
<asrwt>0</asrwt>
<pdfrwt beam="1">  1       21 0.20379457E-01 0.19742943E+03</pdfrwt>
<pdfrwt beam="2">  1       21 0.70425585E-01 0.19742943E+03</pdfrwt>
<totfact> 0.40644980E+04</totfact>
</mgrwt>
</event>
<event>
 4    1  0.4429256E+000  0.2218396E+03  0.7546771E-02  0.1132519E+00
         21   -1    0    0  503  502  0.00000000000E+00  0.00000000000E+00  0.12466206794E+03  0.12466206794E+03  0.00000000000E+00 0.  1.
         21   -1    0    0  501  503 -0.00000000000E+00 -0.00000000000E+00 -0.40296490818E+03  0.40296490818E+03  0.00000000000E+00 0.  1.
          6    1    1    2  501    0  0.11382671853E+03  0.79544367808E+02 -0.10152967959E+03  0.24396947378E+03  0.17300000000E+03 0.  1.
         -6    1    1    2    0  502 -0.11382671853E+03 -0.79544367808E+02 -0.17677316065E+03  0.28365750233E+03  0.17300000000E+03 0.  1.
<mgrwt>
<rscale>  2 0.22183965E+03</rscale>
<asrwt>0</asrwt>
<pdfrwt beam="1">  1       21 0.19178779E-01 0.22183965E+03</pdfrwt>
<pdfrwt beam="2">  1       21 0.61994602E-01 0.22183965E+03</pdfrwt>
<totfact> 0.59481577E+04</totfact>
</mgrwt>
</event>
<event>
 4    1  0.4429256E+000  0.2462787E+03  0.7546771E-02  0.1115679E+00
         21   -1    0    0  503  502  0.00000000000E+00  0.00000000000E+00  0.94628976908E+03  0.94628976908E+03  0.00000000000E+00 0.  1.
         21   -1    0    0  501  503 -0.00000000000E+00 -0.00000000000E+00 -0.74896335744E+02  0.74896335744E+02  0.00000000000E+00 0. -1.
          6    1    1    2  501    0 -0.34266459606E+02 -0.17190111228E+03  0.24180126178E+03  0.34513914999E+03  0.17300000000E+03 0. -1.
         -6    1    1    2    0  502  0.34266459606E+02  0.17190111228E+03  0.62959217155E+03  0.67604695483E+03  0.17300000000E+03 0.  1.
<mgrwt>
<rscale>  2 0.24627867E+03</rscale>
<asrwt>0</asrwt>
<pdfrwt beam="1">  1       21 0.14558303E+00 0.24627867E+03</pdfrwt>
<pdfrwt beam="2">  1       21 0.11522514E-01 0.24627867E+03</pdfrwt>
<totfact> 0.19738090E+04</totfact>
</mgrwt>
</event>
<event>
 4    1  0.4429256E+000  0.1876118E+03  0.7546771E-02  0.1160633E+00
         21   -1    0    0  501  502  0.00000000000E+00  0.00000000000E+00  0.90710352882E+02  0.90710352882E+02  0.00000000000E+00 0. -1.
         21   -1    0    0  502  503 -0.00000000000E+00 -0.00000000000E+00 -0.12063481913E+04  0.12063481913E+04  0.00000000000E+00 0. -1.
          6    1    1    2  501    0  0.20757860436E+02  0.69557919637E+02 -0.23679324747E+02  0.18910024689E+03  0.17300000000E+03 0. -1.
         -6    1    1    2    0  503 -0.20757860436E+02 -0.69557919637E+02 -0.10919585137E+04  0.11079582973E+04  0.17300000000E+03 0. -1.
<mgrwt>
<rscale>  2 0.18761181E+03</rscale>
<asrwt>0</asrwt>
<pdfrwt beam="1">  1       21 0.13955439E-01 0.18761181E+03</pdfrwt>
<pdfrwt beam="2">  1       21 0.18559202E+00 0.18761181E+03</pdfrwt>
<totfact> 0.74932403E+03</totfact>
</mgrwt>
</event>
<event>
 4    1  0.4429256E+000  0.1881074E+03  0.7546771E-02  0.1160179E+00
         21   -1    0    0  503  502  0.00000000000E+00  0.00000000000E+00  0.63262880248E+03  0.63262880248E+03  0.00000000000E+00 0. -1.
         21   -1    0    0  501  503 -0.00000000000E+00 -0.00000000000E+00 -0.60840446196E+02  0.60840446196E+02  0.00000000000E+00 0. -1.
          6    1    1    2  501    0 -0.70091708695E+02 -0.23292921195E+02  0.18741189812E+03  0.26553272371E+03  0.17300000000E+03 0. -1.
         -6    1    1    2    0  502  0.70091708695E+02  0.23292921195E+02  0.38437645817E+03  0.42793652497E+03  0.17300000000E+03 0. -1.
<mgrwt>
<rscale>  2 0.18810744E+03</rscale>
<asrwt>0</asrwt>
<pdfrwt beam="1">  1       21 0.97327504E-01 0.18810744E+03</pdfrwt>
<pdfrwt beam="2">  1       21 0.93600691E-02 0.18810744E+03</pdfrwt>
<totfact> 0.79955753E+04</totfact>
</mgrwt>
</event>
<event>
 4    1  0.4429256E+000  0.1764122E+03  0.7546771E-02  0.1171321E+00
         21   -1    0    0  503  502  0.00000000000E+00  0.00000000000E+00  0.11281115202E+03  0.11281115202E+03  0.00000000000E+00 0. -1.
         21   -1    0    0  501  503 -0.00000000000E+00 -0.00000000000E+00 -0.73863303022E+03  0.73863303022E+03  0.00000000000E+00 0. -1.
          6    1    1    2  501    0 -0.23663788084E+02 -0.25145355738E+02 -0.64988070738E+03  0.67339898842E+03  0.17300000000E+03 0. -1.
         -6    1    1    2    0  502  0.23663788084E+02  0.25145355738E+02  0.24058829172E+02  0.17804519382E+03  0.17300000000E+03 0. -1.
<mgrwt>
<rscale>  2 0.17641220E+03</rscale>
<asrwt>0</asrwt>
<pdfrwt beam="1">  1       21 0.17355563E-01 0.17641220E+03</pdfrwt>
<pdfrwt beam="2">  1       21 0.11363585E+00 0.17641220E+03</pdfrwt>
<totfact> 0.18316581E+04</totfact>
</mgrwt>
</event>
<event>
 4    1  0.4429256E+000  0.1938095E+03  0.7546771E-02  0.1155070E+00
         21   -1    0    0  503  502  0.00000000000E+00  0.00000000000E+00  0.20310036768E+03  0.20310036768E+03  0.00000000000E+00 0.  1.
         21   -1    0    0  501  503 -0.00000000000E+00 -0.00000000000E+00 -0.24220712987E+03  0.24220712987E+03  0.00000000000E+00 0.  1.
          6    1    1    2  501    0 -0.65164211036E+02 -0.58195772745E+02 -0.12781522904E+03  0.23216126968E+03  0.17300000000E+03 0.  1.
         -6    1    1    2    0  502  0.65164211036E+02  0.58195772745E+02  0.88708466846E+02  0.21314622787E+03  0.17300000000E+03 0.  1.
<mgrwt>
<rscale>  2 0.19380950E+03</rscale>
<asrwt>0</asrwt>
<pdfrwt beam="1">  1       21 0.31246210E-01 0.19380950E+03</pdfrwt>
<pdfrwt beam="2">  1       21 0.37262635E-01 0.19380950E+03</pdfrwt>
<totfact> 0.68329181E+04</totfact>
</mgrwt>
</event>
<event>
 4    1  0.4429256E+000  0.2078005E+03  0.7546771E-02  0.1143320E+00
         21   -1    0    0  503  502  0.00000000000E+00  0.00000000000E+00  0.84007918167E+03  0.84007918167E+03  0.00000000000E+00 0.  1.
         21   -1    0    0  501  503 -0.00000000000E+00 -0.00000000000E+00 -0.51729222254E+02  0.51729222254E+02  0.00000000000E+00 0.  1.
          6    1    1    2  501    0  0.82882573971E+02  0.79890755351E+02  0.35866550126E+03  0.41451416822E+03  0.17300000000E+03 0.  1.
         -6    1    1    2    0  502 -0.82882573971E+02 -0.79890755351E+02  0.42968445815E+03  0.47729423570E+03  0.17300000000E+03 0.  1.
<mgrwt>
<rscale>  2 0.20780051E+03</rscale>
<asrwt>0</asrwt>
<pdfrwt beam="1">  1       21 0.12924294E+00 0.20780051E+03</pdfrwt>
<pdfrwt beam="2">  1       21 0.79583425E-02 0.20780051E+03</pdfrwt>
<totfact> 0.52694961E+04</totfact>
</mgrwt>
</event>
<event>
 4    1  0.4429256E+000  0.1931149E+03  0.7546771E-02  0.1155682E+00
         21   -1    0    0  501  502  0.00000000000E+00  0.00000000000E+00  0.20484059939E+03  0.20484059939E+03  0.00000000000E+00 0. -1.
         21   -1    0    0  502  503 -0.00000000000E+00 -0.00000000000E+00 -0.18747155279E+03  0.18747155279E+03  0.00000000000E+00 0.  1.
          6    1    1    2  501    0 -0.76000775900E+02  0.39852623759E+02 -0.24641332211E+02  0.19468062259E+03  0.17300000000E+03 0. -1.
         -6    1    1    2    0  503  0.76000775900E+02 -0.39852623759E+02  0.42010378813E+02  0.19763152958E+03  0.17300000000E+03 0. -1.
<mgrwt>
<rscale>  2 0.19311486E+03</rscale>
<asrwt>0</asrwt>
<pdfrwt beam="1">  1       21 0.31513939E-01 0.19311486E+03</pdfrwt>
<pdfrwt beam="2">  1       21 0.28841777E-01 0.19311486E+03</pdfrwt>
<totfact> 0.11133306E+05</totfact>
</mgrwt>
</event>
<event>
 4    1  0.4429256E+000  0.1963014E+03  0.7546771E-02  0.1152898E+00
         21   -1    0    0  501  502  0.00000000000E+00  0.00000000000E+00  0.45092650760E+03  0.45092650760E+03  0.00000000000E+00 0.  1.
         21   -1    0    0  502  503 -0.00000000000E+00 -0.00000000000E+00 -0.42078614601E+03  0.42078614601E+03  0.00000000000E+00 0.  1.
          6    1    1    2  501    0 -0.60541986824E+02 -0.70284551180E+02  0.40415932791E+03  0.44930948426E+03  0.17300000000E+03 0.  1.
         -6    1    1    2    0  503  0.60541986824E+02  0.70284551180E+02 -0.37401896632E+03  0.42240316934E+03  0.17300000000E+03 0.  1.
<mgrwt>
<rscale>  2 0.19630143E+03</rscale>
<asrwt>0</asrwt>
<pdfrwt beam="1">  1       21 0.69373309E-01 0.19630143E+03</pdfrwt>
<pdfrwt beam="2">  1       21 0.64736330E-01 0.19630143E+03</pdfrwt>
<totfact> 0.41436745E+03</totfact>
</mgrwt>
</event>
<event>
 4    1  0.4429256E+000  0.1840091E+03  0.7546771E-02  0.1163978E+00
         21   -1    0    0  503  502  0.00000000000E+00  0.00000000000E+00  0.30733722879E+02  0.30733722879E+02  0.00000000000E+00 0. -1.
         21   -1    0    0  501  503 -0.00000000000E+00 -0.00000000000E+00 -0.12687021408E+04  0.12687021408E+04  0.00000000000E+00 0. -1.
          6    1    1    2  501    0  0.24699866807E+02 -0.57621641479E+02 -0.85470954806E+03  0.87429271330E+03  0.17300000000E+03 0. -1.
         -6    1    1    2    0  502 -0.24699866807E+02  0.57621641479E+02 -0.38325886988E+03  0.42514315040E+03  0.17300000000E+03 0. -1.
<mgrwt>
<rscale>  2 0.18400907E+03</rscale>
<asrwt>0</asrwt>
<pdfrwt beam="1">  1       21 0.47282638E-02 0.18400907E+03</pdfrwt>
<pdfrwt beam="2">  1       21 0.19518500E+00 0.18400907E+03</pdfrwt>
<totfact> 0.42894441E+04</totfact>
</mgrwt>
</event>
<event>
 4    1  0.4429256E+000  0.2361487E+03  0.7546771E-02  0.1122385E+00
         21   -1    0    0  501  502  0.00000000000E+00  0.00000000000E+00  0.29497421482E+02  0.29497421482E+02  0.00000000000E+00 0. -1.
         21   -1    0    0  502  503 -0.00000000000E+00 -0.00000000000E+00 -0.19187423770E+04  0.19187423770E+04  0.00000000000E+00 0.  1.
          6    1    1    2  501    0  0.44307003639E+02  0.15451247664E+03 -0.82653469695E+03  0.85960794626E+03  0.17300000000E+03 0.  1.
         -6    1    1    2    0  503 -0.44307003639E+02 -0.15451247664E+03 -0.10627102585E+04  0.10886318522E+04  0.17300000000E+03 0. -1.
<mgrwt>
<rscale>  2 0.23614872E+03</rscale>
<asrwt>0</asrwt>
<pdfrwt beam="1">  1       21 0.45380628E-02 0.23614872E+03</pdfrwt>
<pdfrwt beam="2">  1       21 0.29519127E+00 0.23614872E+03</pdfrwt>
<totfact> 0.11054201E+04</totfact>
</mgrwt>
</event>
<event>
 4    1  0.4429256E+000  0.2019179E+03  0.7546771E-02  0.1148131E+00
         21   -1    0    0  503  502  0.00000000000E+00  0.00000000000E+00  0.11854819933E+03  0.11854819933E+03  0.00000000000E+00 0.  1.
         21   -1    0    0  501  503 -0.00000000000E+00 -0.00000000000E+00 -0.41185228403E+03  0.41185228403E+03  0.00000000000E+00 0. -1.
          6    1    1    2  501    0 -0.50693021031E+02 -0.90950769955E+02 -0.25436020377E+03  0.32476135576E+03  0.17300000000E+03 0. -1.
         -6    1    1    2    0  502  0.50693021031E+02  0.90950769955E+02 -0.38943880934E+02  0.20563912760E+03  0.17300000000E+03 0. -1.
<mgrwt>
<rscale>  2 0.20191787E+03</rscale>
<asrwt>0</asrwt>
<pdfrwt beam="1">  1       21 0.18238185E-01 0.20191787E+03</pdfrwt>
<pdfrwt beam="2">  1       21 0.63361889E-01 0.20191787E+03</pdfrwt>
<totfact> 0.62852890E+04</totfact>
</mgrwt>
</event>
<event>
 4    1  0.4429256E+000  0.1777532E+03  0.7546771E-02  0.1169995E+00
         21   -1    0    0  501  502  0.00000000000E+00  0.00000000000E+00  0.41208753302E+03  0.41208753302E+03  0.00000000000E+00 0.  1.
         21   -1    0    0  502  503 -0.00000000000E+00 -0.00000000000E+00 -0.80530900822E+02  0.80530900822E+02  0.00000000000E+00 0.  1.
          6    1    1    2  501    0 -0.44132775932E+01 -0.40592164772E+02  0.21968539000E+03  0.28259135061E+03  0.17300000000E+03 0.  1.
         -6    1    1    2    0  503  0.44132775932E+01  0.40592164772E+02  0.11187124220E+03  0.21002708323E+03  0.17300000000E+03 0.  1.
<mgrwt>
<rscale>  2 0.17775320E+03</rscale>
<asrwt>0</asrwt>
<pdfrwt beam="1">  1       21 0.63398081E-01 0.17775320E+03</pdfrwt>
<pdfrwt beam="2">  1       21 0.12389370E-01 0.17775320E+03</pdfrwt>
<totfact> 0.12818730E+05</totfact>
</mgrwt>
</event>
<event>
 4    1  0.4429256E+000  0.2924540E+03  0.7546771E-02  0.1089075E+00
         21   -1    0    0  501  502  0.00000000000E+00  0.00000000000E+00  0.39385521091E+03  0.39385521091E+03  0.00000000000E+00 0.  1.
         21   -1    0    0  502  503 -0.00000000000E+00 -0.00000000000E+00 -0.22906352583E+03  0.22906352583E+03  0.00000000000E+00 0.  1.
          6    1    1    2  501    0  0.82312442772E+02  0.22096381464E+03  0.11393462250E+02  0.29267585585E+03  0.17300000000E+03 0.  1.
         -6    1    1    2    0  503 -0.82312442772E+02 -0.22096381464E+03  0.15339822282E+03  0.33024288089E+03  0.17300000000E+03 0.  1.
<mgrwt>
<rscale>  2 0.29245401E+03</rscale>
<asrwt>0</asrwt>
<pdfrwt beam="1">  1       21 0.60593109E-01 0.29245401E+03</pdfrwt>
<pdfrwt beam="2">  1       21 0.35240543E-01 0.29245401E+03</pdfrwt>
<totfact> 0.18721745E+04</totfact>
</mgrwt>
</event>
<event>
 4    1  0.4429256E+000  0.1837215E+03  0.7546771E-02  0.1164249E+00
         21   -1    0    0  503  502  0.00000000000E+00  0.00000000000E+00  0.18631941567E+03  0.18631941567E+03  0.00000000000E+00 0. -1.
         21   -1    0    0  501  503 -0.00000000000E+00 -0.00000000000E+00 -0.34073927752E+03  0.34073927752E+03  0.00000000000E+00 0. -1.
          6    1    1    2  501    0 -0.10399724563E+02  0.60962539452E+02 -0.25755589362E+03  0.31636786155E+03  0.17300000000E+03 0. -1.
         -6    1    1    2    0  502  0.10399724563E+02 -0.60962539452E+02  0.10313603176E+03  0.21069083164E+03  0.17300000000E+03 0. -1.
<mgrwt>
<rscale>  2 0.18372149E+03</rscale>
<asrwt>0</asrwt>
<pdfrwt beam="1">  1       21 0.28664526E-01 0.18372149E+03</pdfrwt>
<pdfrwt beam="2">  1       21 0.52421427E-01 0.18372149E+03</pdfrwt>
<totfact> 0.40362062E+04</totfact>
</mgrwt>
</event>
<event>
 4    1  0.4429256E+000  0.1756971E+03  0.7546771E-02  0.1172034E+00
         21   -1    0    0  503  502  0.00000000000E+00  0.00000000000E+00  0.25633998412E+03  0.25633998412E+03  0.00000000000E+00 0. -1.
         21   -1    0    0  501  503 -0.00000000000E+00 -0.00000000000E+00 -0.34207862864E+03  0.34207862864E+03  0.00000000000E+00 0. -1.
          6    1    1    2  501    0 -0.29137854172E+02 -0.95630804346E+01 -0.28372151352E+03  0.33371749173E+03  0.17300000000E+03 0. -1.
         -6    1    1    2    0  502  0.29137854172E+02  0.95630804346E+01  0.19798286900E+03  0.26470112102E+03  0.17300000000E+03 0. -1.
<mgrwt>
<rscale>  2 0.17569709E+03</rscale>
<asrwt>0</asrwt>
<pdfrwt beam="1">  1       21 0.39436921E-01 0.17569709E+03</pdfrwt>
<pdfrwt beam="2">  1       21 0.52627481E-01 0.17569709E+03</pdfrwt>
<totfact> 0.21431837E+04</totfact>
</mgrwt>
</event>
<event>
 4    1  0.4429256E+000  0.2576919E+03  0.7546771E-02  0.1108538E+00
         21   -1    0    0  503  502  0.00000000000E+00  0.00000000000E+00  0.18971312574E+03  0.18971312574E+03  0.00000000000E+00 0.  1.
         21   -1    0    0  501  503 -0.00000000000E+00 -0.00000000000E+00 -0.35822108196E+03  0.35822108196E+03  0.00000000000E+00 0. -1.
          6    1    1    2  501    0 -0.16943452351E+03 -0.88136688626E+02 -0.12568395489E+03  0.28670819688E+03  0.17300000000E+03 0. -1.
         -6    1    1    2    0  502  0.16943452351E+03  0.88136688626E+02 -0.42824001326E+02  0.26122601082E+03  0.17300000000E+03 0. -1.
<mgrwt>
<rscale>  2 0.25769194E+03</rscale>
<asrwt>0</asrwt>
<pdfrwt beam="1">  1       21 0.29186635E-01 0.25769194E+03</pdfrwt>
<pdfrwt beam="2">  1       21 0.55110935E-01 0.25769194E+03</pdfrwt>
<totfact> 0.33841966E+04</totfact>
</mgrwt>
</event>
<event>
 4    1  0.4429256E+000  0.1938669E+03  0.7546771E-02  0.1155019E+00
         21   -1    0    0  503  502  0.00000000000E+00  0.00000000000E+00  0.61474465386E+03  0.61474465386E+03  0.00000000000E+00 0.  1.
         21   -1    0    0  501  503 -0.00000000000E+00 -0.00000000000E+00 -0.61460302812E+02  0.61460302812E+02  0.00000000000E+00 0.  1.
          6    1    1    2  501    0 -0.77015631566E+02 -0.41520783223E+02  0.25216581814E+03  0.31807543568E+03  0.17300000000E+03 0.  1.
         -6    1    1    2    0  502  0.77015631566E+02  0.41520783223E+02  0.30111853291E+03  0.35812952099E+03  0.17300000000E+03 0.  1.
<mgrwt>
<rscale>  2 0.19386692E+03</rscale>
<asrwt>0</asrwt>
<pdfrwt beam="1">  1       21 0.94576096E-01 0.19386692E+03</pdfrwt>
<pdfrwt beam="2">  1       21 0.94554317E-02 0.19386692E+03</pdfrwt>
<totfact> 0.83801290E+04</totfact>
</mgrwt>
</event>
<event>
 4    1  0.4429256E+000  0.1928070E+03  0.7546771E-02  0.1155954E+00
         21   -1    0    0  501  502  0.00000000000E+00  0.00000000000E+00  0.44087934175E+03  0.44087934175E+03  0.00000000000E+00 0.  1.
         21   -1    0    0  502  503 -0.00000000000E+00 -0.00000000000E+00 -0.27693488109E+03  0.27693488109E+03  0.00000000000E+00 0.  1.
          6    1    1    2  501    0 -0.85083871094E+02 -0.25077383802E+01  0.38129458622E+03  0.42727054117E+03  0.17300000000E+03 0.  1.
         -6    1    1    2    0  503  0.85083871094E+02  0.25077383802E+01 -0.21735012556E+03  0.29054368166E+03  0.17300000000E+03 0.  1.
<mgrwt>
<rscale>  2 0.19280704E+03</rscale>
<asrwt>0</asrwt>
<pdfrwt beam="1">  1       21 0.67827591E-01 0.19280704E+03</pdfrwt>
<pdfrwt beam="2">  1       21 0.42605366E-01 0.19280704E+03</pdfrwt>
<totfact> 0.10524000E+04</totfact>
</mgrwt>
</event>
<event>
 4    1  0.4429256E+000  0.2918760E+03  0.7546771E-02  0.1089374E+00
         21   -1    0    0  503  502  0.00000000000E+00  0.00000000000E+00  0.17141475430E+03  0.17141475430E+03  0.00000000000E+00 0. -1.
         21   -1    0    0  501  503 -0.00000000000E+00 -0.00000000000E+00 -0.49945841404E+03  0.49945841404E+03  0.00000000000E+00 0.  1.
          6    1    1    2  501    0  0.24122610363E+01  0.23506763372E+03 -0.14044579024E+03  0.32390836887E+03  0.17300000000E+03 0.  1.
         -6    1    1    2    0  502 -0.24122610363E+01 -0.23506763372E+03 -0.18759786950E+03  0.34696479947E+03  0.17300000000E+03 0. -1.
<mgrwt>
<rscale>  2 0.29187602E+03</rscale>
<asrwt>0</asrwt>
<pdfrwt beam="1">  1       21 0.26371500E-01 0.29187602E+03</pdfrwt>
<pdfrwt beam="2">  1       21 0.76839757E-01 0.29187602E+03</pdfrwt>
<totfact> 0.19580682E+04</totfact>
</mgrwt>
</event>
<event>
 4    1  0.4429256E+000  0.2285978E+03  0.7546771E-02  0.1127631E+00
         21   -1    0    0  501  502  0.00000000000E+00  0.00000000000E+00  0.12055944778E+04  0.12055944778E+04  0.00000000000E+00 0.  1.
         21   -1    0    0  502  503 -0.00000000000E+00 -0.00000000000E+00 -0.14281839743E+03  0.14281839743E+03  0.00000000000E+00 0.  1.
          6    1    1    2  501    0  0.70625109240E+02 -0.13168157873E+03  0.10940576706E+04  0.11176847189E+04  0.17300000000E+03 0.  1.
         -6    1    1    2    0  503 -0.70625109240E+02  0.13168157873E+03 -0.31281590249E+02  0.23072815632E+03  0.17300000000E+03 0.  1.
<mgrwt>
<rscale>  2 0.22859778E+03</rscale>
<asrwt>0</asrwt>
<pdfrwt beam="1">  1       21 0.18547607E+00 0.22859778E+03</pdfrwt>
<pdfrwt beam="2">  1       21 0.21972062E-01 0.22859778E+03</pdfrwt>
<totfact> 0.31308739E+03</totfact>
</mgrwt>
</event>
<event>
 4    1  0.4429256E+000  0.2021072E+03  0.7546771E-02  0.1147973E+00
         21   -1    0    0  503  502  0.00000000000E+00  0.00000000000E+00  0.29729036847E+03  0.29729036847E+03  0.00000000000E+00 0.  1.
         21   -1    0    0  501  503 -0.00000000000E+00 -0.00000000000E+00 -0.14913910340E+03  0.14913910340E+03  0.00000000000E+00 0.  1.
          6    1    1    2  501    0  0.94654381951E+02 -0.44259030984E+02  0.11447656323E+02  0.20243113071E+03  0.17300000000E+03 0.  1.
         -6    1    1    2    0  502 -0.94654381951E+02  0.44259030984E+02  0.13670360875E+03  0.24399834116E+03  0.17300000000E+03 0.  1.
<mgrwt>
<rscale>  2 0.20210718E+03</rscale>
<asrwt>0</asrwt>
<pdfrwt beam="1">  1       21 0.45736980E-01 0.20210718E+03</pdfrwt>
<pdfrwt beam="2">  1       21 0.22944477E-01 0.20210718E+03</pdfrwt>
<totfact> 0.81383141E+04</totfact>
</mgrwt>
</event>
<event>
 4    1  0.4429256E+000  0.2075317E+03  0.7546771E-02  0.1143536E+00
         21   -1    0    0  501  502  0.00000000000E+00  0.00000000000E+00  0.25984777066E+03  0.25984777066E+03  0.00000000000E+00 0. -1.
         21   -1    0    0  502  503 -0.00000000000E+00 -0.00000000000E+00 -0.16672066100E+03  0.16672066100E+03  0.00000000000E+00 0.  1.
          6    1    1    2  501    0 -0.11075302068E+03  0.29566627768E+02  0.62849002511E+02  0.21683960474E+03  0.17300000000E+03 0.  1.
         -6    1    1    2    0  503  0.11075302068E+03 -0.29566627768E+02  0.30278107156E+02  0.20972882692E+03  0.17300000000E+03 0. -1.
<mgrwt>
<rscale>  2 0.20753173E+03</rscale>
<asrwt>0</asrwt>
<pdfrwt beam="1">  1       21 0.39976580E-01 0.20753173E+03</pdfrwt>
<pdfrwt beam="2">  1       21 0.25649333E-01 0.20753173E+03</pdfrwt>
<totfact> 0.86435121E+04</totfact>
</mgrwt>
</event>
<event>
 4    1  0.4429256E+000  0.1847464E+03  0.7546771E-02  0.1163287E+00
         21   -1    0    0  503  502  0.00000000000E+00  0.00000000000E+00  0.63925805765E+02  0.63925805765E+02  0.00000000000E+00 0.  1.
         21   -1    0    0  501  503 -0.00000000000E+00 -0.00000000000E+00 -0.55493334126E+03  0.55493334126E+03  0.00000000000E+00 0.  1.
          6    1    1    2  501    0 -0.62888784287E+02  0.15723875083E+02 -0.18529034778E+03  0.26165578995E+03  0.17300000000E+03 0.  1.
         -6    1    1    2    0  502  0.62888784287E+02 -0.15723875083E+02 -0.30571718772E+03  0.35720335707E+03  0.17300000000E+03 0.  1.
<mgrwt>
<rscale>  2 0.18474642E+03</rscale>
<asrwt>0</asrwt>
<pdfrwt beam="1">  1       21 0.98347394E-02 0.18474642E+03</pdfrwt>
<pdfrwt beam="2">  1       21 0.85374360E-01 0.18474642E+03</pdfrwt>
<totfact> 0.99445237E+04</totfact>
</mgrwt>
</event>
<event>
 4    1  0.4429256E+000  0.2153571E+03  0.7546771E-02  0.1137393E+00
         21   -1    0    0  503  502  0.00000000000E+00  0.00000000000E+00  0.20510109356E+04  0.20510109356E+04  0.00000000000E+00 0.  1.
         21   -1    0    0  501  503 -0.00000000000E+00 -0.00000000000E+00 -0.47774767195E+02  0.47774767195E+02  0.00000000000E+00 0. -1.
          6    1    1    2  501    0 -0.12173588623E+03 -0.40374102053E+02  0.24004284463E+03  0.32248916473E+03  0.17300000000E+03 0. -1.
         -6    1    1    2    0  502  0.12173588623E+03  0.40374102053E+02  0.17631933238E+04  0.17762965381E+04  0.17300000000E+03 0.  1.
<mgrwt>
<rscale>  2 0.21535713E+03</rscale>
<asrwt>0</asrwt>
<pdfrwt beam="1">  1       21 0.31554008E+00 0.21535713E+03</pdfrwt>
<pdfrwt beam="2">  1       21 0.73499658E-02 0.21535713E+03</pdfrwt>
<totfact> 0.37600125E+03</totfact>
</mgrwt>
</event>
<event>
 4    1  0.4429256E+000  0.2471241E+03  0.7546771E-02  0.1115136E+00
         21   -1    0    0  501  502  0.00000000000E+00  0.00000000000E+00  0.27136694746E+03  0.27136694746E+03  0.00000000000E+00 0.  1.
         21   -1    0    0  502  503 -0.00000000000E+00 -0.00000000000E+00 -0.22959212744E+03  0.22959212744E+03  0.00000000000E+00 0. -1.
          6    1    1    2  501    0  0.40425435569E+01  0.17642275990E+03  0.56129703054E+02  0.25341838120E+03  0.17300000000E+03 0.  1.
         -6    1    1    2    0  503 -0.40425435569E+01 -0.17642275990E+03 -0.14354883027E+02  0.24754069369E+03  0.17300000000E+03 0. -1.
<mgrwt>
<rscale>  2 0.24712412E+03</rscale>
<asrwt>0</asrwt>
<pdfrwt beam="1">  1       21 0.41748761E-01 0.24712412E+03</pdfrwt>
<pdfrwt beam="2">  1       21 0.35321866E-01 0.24712412E+03</pdfrwt>
<totfact> 0.41609964E+04</totfact>
</mgrwt>
</event>
<event>
 4    1  0.4429256E+000  0.1814231E+03  0.7546771E-02  0.1166433E+00
         21   -1    0    0  501  502  0.00000000000E+00  0.00000000000E+00  0.35217480851E+03  0.35217480851E+03  0.00000000000E+00 0.  1.
         21   -1    0    0  502  503 -0.00000000000E+00 -0.00000000000E+00 -0.94492392384E+02  0.94492392384E+02  0.00000000000E+00 0.  1.
          6    1    1    2  501    0 -0.38466398140E+02 -0.38803095351E+02  0.15218258318E+03  0.23679924539E+03  0.17300000000E+03 0.  1.
         -6    1    1    2    0  503  0.38466398140E+02  0.38803095351E+02  0.10549983294E+03  0.20986795550E+03  0.17300000000E+03 0.  1.
<mgrwt>
<rscale>  2 0.18142311E+03</rscale>
<asrwt>0</asrwt>
<pdfrwt beam="1">  1       21 0.54180739E-01 0.18142311E+03</pdfrwt>
<pdfrwt beam="2">  1       21 0.14537291E-01 0.18142311E+03</pdfrwt>
<totfact> 0.13422204E+05</totfact>
</mgrwt>
</event>
<event>
 4    1  0.4429256E+000  0.1960553E+03  0.7546771E-02  0.1153111E+00
         21   -1    0    0  503  502  0.00000000000E+00  0.00000000000E+00  0.12422408858E+03  0.12422408858E+03  0.00000000000E+00 0.  1.
         21   -1    0    0  501  503 -0.00000000000E+00 -0.00000000000E+00 -0.34519752270E+03  0.34519752270E+03  0.00000000000E+00 0.  1.
          6    1    1    2  501    0  0.90962677486E+02  0.15311973577E+02 -0.18604677414E+03  0.27027960966E+03  0.17300000000E+03 0.  1.
         -6    1    1    2    0  502 -0.90962677486E+02 -0.15311973577E+02 -0.34926659987E+02  0.19914200162E+03  0.17300000000E+03 0.  1.
<mgrwt>
<rscale>  2 0.19605526E+03</rscale>
<asrwt>0</asrwt>
<pdfrwt beam="1">  1       21 0.19111398E-01 0.19605526E+03</pdfrwt>
<pdfrwt beam="2">  1       21 0.53107311E-01 0.19605526E+03</pdfrwt>
<totfact> 0.84255049E+04</totfact>
</mgrwt>
</event>
<event>
 4    1  0.4429256E+000  0.2962085E+03  0.7546771E-02  0.1087151E+00
         21   -1    0    0  501  502  0.00000000000E+00  0.00000000000E+00  0.48950222893E+03  0.48950222893E+03  0.00000000000E+00 0. -1.
         21   -1    0    0  502  503 -0.00000000000E+00 -0.00000000000E+00 -0.20764853965E+03  0.20764853965E+03  0.00000000000E+00 0. -1.
          6    1    1    2  501    0 -0.22952706185E+03 -0.71608595229E+02  0.26985263686E+03  0.40069927458E+03  0.17300000000E+03 0. -1.
         -6    1    1    2    0  503  0.22952706185E+03  0.71608595229E+02  0.12001052423E+02  0.29645149400E+03  0.17300000000E+03 0. -1.
<mgrwt>
<rscale>  2 0.29620848E+03</rscale>
<asrwt>0</asrwt>
<pdfrwt beam="1">  1       21 0.75308035E-01 0.29620848E+03</pdfrwt>
<pdfrwt beam="2">  1       21 0.31945929E-01 0.29620848E+03</pdfrwt>
<totfact> 0.14044480E+04</totfact>
</mgrwt>
</event>
<event>
 4    1  0.4429256E+000  0.1960777E+03  0.7546771E-02  0.1153091E+00
         21   -1    0    0  501  502  0.00000000000E+00  0.00000000000E+00  0.84006240724E+03  0.84006240724E+03  0.00000000000E+00 0.  1.
         21   -1    0    0  502  503 -0.00000000000E+00 -0.00000000000E+00 -0.50192715088E+02  0.50192715088E+02  0.00000000000E+00 0.  1.
          6    1    1    2  501    0 -0.28599801449E+02  0.87746876991E+02  0.52712380386E+03  0.56241085308E+03  0.17300000000E+03 0. -1.
         -6    1    1    2    0  503  0.28599801449E+02 -0.87746876991E+02  0.26274588829E+03  0.32784426924E+03  0.17300000000E+03 0. -1.
<mgrwt>
<rscale>  2 0.19607770E+03</rscale>
<asrwt>0</asrwt>
<pdfrwt beam="1">  1       21 0.12924036E+00 0.19607770E+03</pdfrwt>
<pdfrwt beam="2">  1       21 0.77219568E-02 0.19607770E+03</pdfrwt>
<totfact> 0.55883050E+04</totfact>
</mgrwt>
</event>
<event>
 4    1  0.4429256E+000  0.2413723E+03  0.7546771E-02  0.1118882E+00
         21   -1    0    0  503  502  0.00000000000E+00  0.00000000000E+00  0.25735994449E+03  0.25735994449E+03  0.00000000000E+00 0.  1.
         21   -1    0    0  501  503 -0.00000000000E+00 -0.00000000000E+00 -0.34120044551E+03  0.34120044551E+03  0.00000000000E+00 0.  1.
          6    1    1    2  501    0 -0.92954632812E+02 -0.14032469803E+03 -0.21553511644E+03  0.32359847196E+03  0.17300000000E+03 0.  1.
         -6    1    1    2    0  502  0.92954632812E+02  0.14032469803E+03  0.13169461542E+03  0.27496191803E+03  0.17300000000E+03 0.  1.
<mgrwt>
<rscale>  2 0.24137229E+03</rscale>
<asrwt>0</asrwt>
<pdfrwt beam="1">  1       21 0.39593838E-01 0.24137229E+03</pdfrwt>
<pdfrwt beam="2">  1       21 0.52492376E-01 0.24137229E+03</pdfrwt>
<totfact> 0.20600461E+04</totfact>
</mgrwt>
</event>
<event>
 4    1  0.4429256E+000  0.1924538E+03  0.7546771E-02  0.1156267E+00
         21   -1    0    0  501  502  0.00000000000E+00  0.00000000000E+00  0.46985961538E+03  0.46985961538E+03  0.00000000000E+00 0.  1.
         21   -1    0    0  502  503 -0.00000000000E+00 -0.00000000000E+00 -0.11883833373E+03  0.11883833373E+03  0.00000000000E+00 0.  1.
          6    1    1    2  501    0  0.83320363131E+02  0.12930339127E+02  0.47192735768E+01  0.19251168309E+03  0.17300000000E+03 0.  1.
         -6    1    1    2    0  503 -0.83320363131E+02 -0.12930339127E+02  0.34630200808E+03  0.39618626602E+03  0.17300000000E+03 0.  1.
<mgrwt>
<rscale>  2 0.19245383E+03</rscale>
<asrwt>0</asrwt>
<pdfrwt beam="1">  1       21 0.72286094E-01 0.19245383E+03</pdfrwt>
<pdfrwt beam="2">  1       21 0.18282821E-01 0.19245383E+03</pdfrwt>
<totfact> 0.47082988E+04</totfact>
</mgrwt>
</event>
<event>
 4    1  0.4429256E+000  0.1751981E+03  0.7546771E-02  0.1172533E+00
         21   -1    0    0  501  502  0.00000000000E+00  0.00000000000E+00  0.41127220417E+03  0.41127220417E+03  0.00000000000E+00 0.  1.
         21   -1    0    0  502  503 -0.00000000000E+00 -0.00000000000E+00 -0.74734476154E+02  0.74734476154E+02  0.00000000000E+00 0.  1.
          6    1    1    2  501    0 -0.21334260793E+02  0.17613469686E+02  0.17723322323E+03  0.24921075501E+03  0.17300000000E+03 0. -1.
         -6    1    1    2    0  503  0.21334260793E+02 -0.17613469686E+02  0.15930450478E+03  0.23679592530E+03  0.17300000000E+03 0. -1.
<mgrwt>
<rscale>  2 0.17519813E+03</rscale>
<asrwt>0</asrwt>
<pdfrwt beam="1">  1       21 0.63272645E-01 0.17519813E+03</pdfrwt>
<pdfrwt beam="2">  1       21 0.11497612E-01 0.17519813E+03</pdfrwt>
<totfact> 0.14722944E+05</totfact>
</mgrwt>
</event>
<event>
 4    1  0.4429256E+000  0.1742169E+03  0.7546771E-02  0.1173520E+00
         21   -1    0    0  503  502  0.00000000000E+00  0.00000000000E+00  0.32320246284E+03  0.32320246284E+03  0.00000000000E+00 0.  1.
         21   -1    0    0  501  503 -0.00000000000E+00 -0.00000000000E+00 -0.17196017650E+03  0.17196017650E+03  0.00000000000E+00 0.  1.
          6    1    1    2  501    0  0.14859456720E+02  0.14203532044E+02 -0.91178192322E+02  0.19663419472E+03  0.17300000000E+03 0.  1.
         -6    1    1    2    0  502 -0.14859456720E+02 -0.14203532044E+02  0.24242047866E+03  0.29852844462E+03  0.17300000000E+03 0.  1.
<mgrwt>
<rscale>  2 0.17421694E+03</rscale>
<asrwt>0</asrwt>
<pdfrwt beam="1">  1       21 0.49723456E-01 0.17421694E+03</pdfrwt>
<pdfrwt beam="2">  1       21 0.26455412E-01 0.17421694E+03</pdfrwt>
<totfact> 0.52846808E+04</totfact>
</mgrwt>
</event>
<event>
 4    1  0.4429256E+000  0.2438020E+03  0.7546771E-02  0.1117286E+00
         21   -1    0    0  503  502  0.00000000000E+00  0.00000000000E+00  0.23252559476E+03  0.23252559476E+03  0.00000000000E+00 0. -1.
         21   -1    0    0  501  503 -0.00000000000E+00 -0.00000000000E+00 -0.26759759805E+03  0.26759759805E+03  0.00000000000E+00 0.  1.
          6    1    1    2  501    0  0.16942701218E+03  0.28370896442E+02 -0.70428614377E+02  0.25377078229E+03  0.17300000000E+03 0. -1.
         -6    1    1    2    0  502 -0.16942701218E+03 -0.28370896442E+02  0.35356611091E+02  0.24635241052E+03  0.17300000000E+03 0. -1.
<mgrwt>
<rscale>  2 0.24380201E+03</rscale>
<asrwt>0</asrwt>
<pdfrwt beam="1">  1       21 0.35773169E-01 0.24380201E+03</pdfrwt>
<pdfrwt beam="2">  1       21 0.41168861E-01 0.24380201E+03</pdfrwt>
<totfact> 0.41800141E+04</totfact>
</mgrwt>
</event>
<event>
 4    1  0.4429256E+000  0.2050465E+03  0.7546771E-02  0.1145550E+00
         21   -1    0    0  503  502  0.00000000000E+00  0.00000000000E+00  0.41135558589E+03  0.41135558589E+03  0.00000000000E+00 0.  1.
         21   -1    0    0  501  503 -0.00000000000E+00 -0.00000000000E+00 -0.33143636975E+03  0.33143636975E+03  0.00000000000E+00 0. -1.
          6    1    1    2  501    0 -0.65036148819E+02  0.88799626355E+02 -0.26890684343E+03  0.33816410918E+03  0.17300000000E+03 0. -1.
         -6    1    1    2    0  502  0.65036148819E+02 -0.88799626355E+02  0.34882605957E+03  0.40462784646E+03  0.17300000000E+03 0.  1.
<mgrwt>
<rscale>  2 0.20504652E+03</rscale>
<asrwt>0</asrwt>
<pdfrwt beam="1">  1       21 0.63285475E-01 0.20504652E+03</pdfrwt>
<pdfrwt beam="2">  1       21 0.50990210E-01 0.20504652E+03</pdfrwt>
<totfact> 0.83740529E+03</totfact>
</mgrwt>
</event>
<event>
 4    1  0.4429256E+000  0.2458125E+03  0.7546771E-02  0.1115980E+00
         21   -1    0    0  501  502  0.00000000000E+00  0.00000000000E+00  0.37199266857E+03  0.37199266857E+03  0.00000000000E+00 0. -1.
         21   -1    0    0  502  503 -0.00000000000E+00 -0.00000000000E+00 -0.24322195151E+03  0.24322195151E+03  0.00000000000E+00 0.  1.
          6    1    1    2  501    0 -0.17328997008E+03 -0.21572177821E+02  0.24167038913E+03  0.34471488156E+03  0.17300000000E+03 0. -1.
         -6    1    1    2    0  503  0.17328997008E+03  0.21572177821E+02 -0.11289967208E+03  0.27049973852E+03  0.17300000000E+03 0.  1.
<mgrwt>
<rscale>  2 0.24581247E+03</rscale>
<asrwt>0</asrwt>
<pdfrwt beam="1">  1       21 0.57229642E-01 0.24581247E+03</pdfrwt>
<pdfrwt beam="2">  1       21 0.37418762E-01 0.24581247E+03</pdfrwt>
<totfact> 0.19172956E+04</totfact>
</mgrwt>
</event>
<event>
 4    1  0.4429256E+000  0.2944106E+03  0.7546771E-02  0.1088069E+00
         21   -1    0    0  501  502  0.00000000000E+00  0.00000000000E+00  0.73338915025E+02  0.73338915025E+02  0.00000000000E+00 0.  1.
         21   -1    0    0  502  503 -0.00000000000E+00 -0.00000000000E+00 -0.16082925727E+04  0.16082925727E+04  0.00000000000E+00 0.  1.
          6    1    1    2  501    0  0.14265173675E+03  0.19078550700E+03 -0.33453008024E+03  0.44563213783E+03  0.17300000000E+03 0.  1.
         -6    1    1    2    0  503 -0.14265173675E+03 -0.19078550700E+03 -0.12004235774E+04  0.12359993499E+04  0.17300000000E+03 0.  1.
<mgrwt>
<rscale>  2 0.29441064E+03</rscale>
<asrwt>0</asrwt>
<pdfrwt beam="1">  1       21 0.11282911E-01 0.29441064E+03</pdfrwt>
<pdfrwt beam="2">  1       21 0.24742960E+00 0.29441064E+03</pdfrwt>
<totfact> 0.41353724E+03</totfact>
</mgrwt>
</event>
<event>
 4    1  0.4429256E+000  0.2090207E+03  0.7546771E-02  0.1142344E+00
         21   -1    0    0  503  502  0.00000000000E+00  0.00000000000E+00  0.32491717013E+03  0.32491717013E+03  0.00000000000E+00 0.  1.
         21   -1    0    0  501  503 -0.00000000000E+00 -0.00000000000E+00 -0.14501090210E+03  0.14501090210E+03  0.00000000000E+00 0. -1.
          6    1    1    2  501    0  0.13648576187E+02 -0.11650905992E+03  0.15332035258E+03  0.25922340788E+03  0.17300000000E+03 0. -1.
         -6    1    1    2    0  502 -0.13648576187E+02  0.11650905992E+03  0.26585915451E+02  0.21070466435E+03  0.17300000000E+03 0. -1.
<mgrwt>
<rscale>  2 0.20902068E+03</rscale>
<asrwt>0</asrwt>
<pdfrwt beam="1">  1       21 0.49987257E-01 0.20902068E+03</pdfrwt>
<pdfrwt beam="2">  1       21 0.22309370E-01 0.20902068E+03</pdfrwt>
<totfact> 0.71161421E+04</totfact>
</mgrwt>
</event>
<event>
 4    1  0.4429256E+000  0.1846902E+03  0.7546771E-02  0.1163339E+00
         21   -1    0    0  503  502  0.00000000000E+00  0.00000000000E+00  0.48594176560E+03  0.48594176560E+03  0.00000000000E+00 0.  1.
         21   -1    0    0  501  503 -0.00000000000E+00 -0.00000000000E+00 -0.70511460229E+02  0.70511460229E+02  0.00000000000E+00 0.  1.
          6    1    1    2  501    0  0.80558594791E+01 -0.64160666295E+02  0.18906413548E+03  0.26430235583E+03  0.17300000000E+03 0.  1.
         -6    1    1    2    0  502 -0.80558594791E+01  0.64160666295E+02  0.22636616989E+03  0.29215087000E+03  0.17300000000E+03 0.  1.
<mgrwt>
<rscale>  2 0.18469025E+03</rscale>
<asrwt>0</asrwt>
<pdfrwt beam="1">  1       21 0.74760270E-01 0.18469025E+03</pdfrwt>
<pdfrwt beam="2">  1       21 0.10847917E-01 0.18469025E+03</pdfrwt>
<totfact> 0.11282844E+05</totfact>
</mgrwt>
</event>
<event>
 4    1  0.4429256E+000  0.2903599E+03  0.7546771E-02  0.1090161E+00
         21   -1    0    0  501  502  0.00000000000E+00  0.00000000000E+00  0.50738301883E+02  0.50738301883E+02  0.00000000000E+00 0. -1.
         21   -1    0    0  502  503 -0.00000000000E+00 -0.00000000000E+00 -0.17585760275E+04  0.17585760275E+04  0.00000000000E+00 0.  1.
          6    1    1    2  501    0  0.21728914741E+03 -0.84648178406E+02 -0.10663126625E+04  0.11051387161E+04  0.17300000000E+03 0.  1.
         -6    1    1    2    0  503 -0.21728914741E+03  0.84648178406E+02 -0.64152506312E+03  0.70417561325E+03  0.17300000000E+03 0. -1.
<mgrwt>
<rscale>  2 0.29035993E+03</rscale>
<asrwt>0</asrwt>
<pdfrwt beam="1">  1       21 0.78058925E-02 0.29035993E+03</pdfrwt>
<pdfrwt beam="2">  1       21 0.27055016E+00 0.29035993E+03</pdfrwt>
<totfact> 0.58044818E+03</totfact>
</mgrwt>
</event>
<event>
 4    1  0.4429256E+000  0.1900249E+03  0.7546771E-02  0.1158439E+00
         21   -1    0    0  503  502  0.00000000000E+00  0.00000000000E+00  0.27262196336E+03  0.27262196336E+03  0.00000000000E+00 0.  1.
         21   -1    0    0  501  503 -0.00000000000E+00 -0.00000000000E+00 -0.13798375751E+03  0.13798375751E+03  0.00000000000E+00 0.  1.
          6    1    1    2  501    0 -0.55138120609E+02 -0.56037793152E+02  0.26214072781E+02  0.19182446199E+03  0.17300000000E+03 0.  1.
         -6    1    1    2    0  502  0.55138120609E+02  0.56037793152E+02  0.10842413307E+03  0.21878125888E+03  0.17300000000E+03 0.  1.
<mgrwt>
<rscale>  2 0.19002486E+03</rscale>
<asrwt>0</asrwt>
<pdfrwt beam="1">  1       21 0.41941840E-01 0.19002486E+03</pdfrwt>
<pdfrwt beam="2">  1       21 0.21228270E-01 0.19002486E+03</pdfrwt>
<totfact> 0.11307003E+05</totfact>
</mgrwt>
</event>
<event>
 4    1  0.4429256E+000  0.1812397E+03  0.7546771E-02  0.1166609E+00
         21   -1    0    0  501  502  0.00000000000E+00  0.00000000000E+00  0.32797642423E+02  0.32797642423E+02  0.00000000000E+00 0.  1.
         21   -1    0    0  502  503 -0.00000000000E+00 -0.00000000000E+00 -0.12740133154E+04  0.12740133154E+04  0.00000000000E+00 0.  1.
          6    1    1    2  501    0 -0.47234494381E+02  0.26224658756E+02 -0.31842794104E+03  0.36639348223E+03  0.17300000000E+03 0.  1.
         -6    1    1    2    0  503  0.47234494381E+02 -0.26224658756E+02 -0.92278773196E+03  0.94041747561E+03  0.17300000000E+03 0.  1.
<mgrwt>
<rscale>  2 0.18123970E+03</rscale>
<asrwt>0</asrwt>
<pdfrwt beam="1">  1       21 0.50457911E-02 0.18123970E+03</pdfrwt>
<pdfrwt beam="2">  1       21 0.19600205E+00 0.18123970E+03</pdfrwt>
<totfact> 0.38035125E+04</totfact>
</mgrwt>
</event>
<event>
 4    1  0.4429256E+000  0.2470878E+03  0.7546771E-02  0.1115159E+00
         21   -1    0    0  501  502  0.00000000000E+00  0.00000000000E+00  0.19937636517E+03  0.19937636517E+03  0.00000000000E+00 0. -1.
         21   -1    0    0  502  503 -0.00000000000E+00 -0.00000000000E+00 -0.45148571643E+03  0.45148571643E+03  0.00000000000E+00 0.  1.
          6    1    1    2  501    0 -0.25157375759E+02  0.17461525412E+03  0.58541800462E+02  0.25392818459E+03  0.17300000000E+03 0. -1.
         -6    1    1    2    0  503  0.25157375759E+02 -0.17461525412E+03 -0.31065115172E+03  0.39693389701E+03  0.17300000000E+03 0.  1.
<mgrwt>
<rscale>  2 0.24708780E+03</rscale>
<asrwt>0</asrwt>
<pdfrwt beam="1">  1       21 0.30673287E-01 0.24708780E+03</pdfrwt>
<pdfrwt beam="2">  1       21 0.69459340E-01 0.24708780E+03</pdfrwt>
<totfact> 0.18656531E+04</totfact>
</mgrwt>
</event>
<event>
 4    1  0.4429256E+000  0.2101639E+03  0.7546771E-02  0.1141436E+00
         21   -1    0    0  503  502  0.00000000000E+00  0.00000000000E+00  0.72973605086E+03  0.72973605086E+03  0.00000000000E+00 0. -1.
         21   -1    0    0  501  503 -0.00000000000E+00 -0.00000000000E+00 -0.62046421704E+02  0.62046421704E+02  0.00000000000E+00 0. -1.
          6    1    1    2  501    0  0.82048803782E+02  0.86647949596E+02  0.39579311194E+03  0.44813062920E+03  0.17300000000E+03 0. -1.
         -6    1    1    2    0  502 -0.82048803782E+02 -0.86647949596E+02  0.27189651721E+03  0.34365184336E+03  0.17300000000E+03 0. -1.
<mgrwt>
<rscale>  2 0.21016392E+03</rscale>
<asrwt>0</asrwt>
<pdfrwt beam="1">  1       21 0.11226708E+00 0.21016392E+03</pdfrwt>
<pdfrwt beam="2">  1       21 0.95456039E-02 0.21016392E+03</pdfrwt>
<totfact> 0.54264871E+04</totfact>
</mgrwt>
</event>
<event>
 4    1  0.4429256E+000  0.1805855E+03  0.7546771E-02  0.1167238E+00
         21   -1    0    0  501  502  0.00000000000E+00  0.00000000000E+00  0.89249591810E+02  0.89249591810E+02  0.00000000000E+00 0.  1.
         21   -1    0    0  502  503 -0.00000000000E+00 -0.00000000000E+00 -0.61545499671E+03  0.61545499671E+03  0.00000000000E+00 0.  1.
          6    1    1    2  501    0  0.51430510446E+02 -0.60850434365E+01 -0.38506041361E+02  0.18464517427E+03  0.17300000000E+03 0.  1.
         -6    1    1    2    0  503 -0.51430510446E+02  0.60850434365E+01 -0.48769936354E+03  0.52005941426E+03  0.17300000000E+03 0.  1.
<mgrwt>
<rscale>  2 0.18058551E+03</rscale>
<asrwt>0</asrwt>
<pdfrwt beam="1">  1       21 0.13730707E-01 0.18058551E+03</pdfrwt>
<pdfrwt beam="2">  1       21 0.94685380E-01 0.18058551E+03</pdfrwt>
<totfact> 0.43262192E+04</totfact>
</mgrwt>
</event>
<event>
 4    1  0.4429256E+000  0.2027295E+03  0.7546771E-02  0.1147456E+00
         21   -1    0    0  501  502  0.00000000000E+00  0.00000000000E+00  0.10966050021E+03  0.10966050021E+03  0.00000000000E+00 0.  1.
         21   -1    0    0  502  503 -0.00000000000E+00 -0.00000000000E+00 -0.37515432547E+03  0.37515432547E+03  0.00000000000E+00 0.  1.
          6    1    1    2  501    0  0.69963096347E+02 -0.79217452265E+02 -0.12515322586E+03  0.23824896545E+03  0.17300000000E+03 0.  1.
         -6    1    1    2    0  503 -0.69963096347E+02  0.79217452265E+02 -0.14034059940E+03  0.24656586024E+03  0.17300000000E+03 0.  1.
<mgrwt>
<rscale>  2 0.20272947E+03</rscale>
<asrwt>0</asrwt>
<pdfrwt beam="1">  1       21 0.16870846E-01 0.20272947E+03</pdfrwt>
<pdfrwt beam="2">  1       21 0.57716050E-01 0.20272947E+03</pdfrwt>
<totfact> 0.88702011E+04</totfact>
</mgrwt>
</event>
<event>
 4    1  0.4429256E+000  0.1758216E+03  0.7546771E-02  0.1171909E+00
         21   -1    0    0  501  502  0.00000000000E+00  0.00000000000E+00  0.14435680350E+04  0.14435680350E+04  0.00000000000E+00 0.  1.
         21   -1    0    0  502  503 -0.00000000000E+00 -0.00000000000E+00 -0.26604085346E+02  0.26604085346E+02  0.00000000000E+00 0.  1.
          6    1    1    2  501    0  0.27136751873E+02 -0.15743031243E+02  0.10331440414E+04  0.10479980232E+04  0.17300000000E+03 0.  1.
         -6    1    1    2    0  503 -0.27136751873E+02  0.15743031243E+02  0.38381990826E+03  0.42217409715E+03  0.17300000000E+03 0.  1.
<mgrwt>
<rscale>  2 0.17582163E+03</rscale>
<asrwt>0</asrwt>
<pdfrwt beam="1">  1       21 0.22208733E+00 0.17582163E+03</pdfrwt>
<pdfrwt beam="2">  1       21 0.40929373E-02 0.17582163E+03</pdfrwt>
<totfact> 0.37299739E+04</totfact>
</mgrwt>
</event>
<event>
 4    1  0.4429256E+000  0.1918922E+03  0.7546771E-02  0.1156766E+00
         21   -1    0    0  503  502  0.00000000000E+00  0.00000000000E+00  0.17953062549E+03  0.17953062549E+03  0.00000000000E+00 0.  1.
         21   -1    0    0  501  503 -0.00000000000E+00 -0.00000000000E+00 -0.21544743594E+03  0.21544743594E+03  0.00000000000E+00 0.  1.
          6    1    1    2  501    0  0.64553868282E+02  0.52215235321E+02 -0.61228046266E+02  0.20142369860E+03  0.17300000000E+03 0.  1.
         -6    1    1    2    0  502 -0.64553868282E+02 -0.52215235321E+02  0.25311235818E+02  0.19355436282E+03  0.17300000000E+03 0.  1.
<mgrwt>
<rscale>  2 0.19189224E+03</rscale>
<asrwt>0</asrwt>
<pdfrwt beam="1">  1       21 0.27620096E-01 0.19189224E+03</pdfrwt>
<pdfrwt beam="2">  1       21 0.33145759E-01 0.19189224E+03</pdfrwt>
<totfact> 0.10967016E+05</totfact>
</mgrwt>
</event>
<event>
 4    1  0.4429256E+000  0.1796937E+03  0.7546771E-02  0.1168100E+00
         21   -1    0    0  501  502  0.00000000000E+00  0.00000000000E+00  0.43412748779E+03  0.43412748779E+03  0.00000000000E+00 0. -1.
         21   -1    0    0  502  503 -0.00000000000E+00 -0.00000000000E+00 -0.77213052152E+02  0.77213052152E+02  0.00000000000E+00 0. -1.
          6    1    1    2  501    0  0.76885728443E+01  0.47976092830E+02  0.22744243591E+03  0.28986183138E+03  0.17300000000E+03 0.  1.
         -6    1    1    2    0  503 -0.76885728443E+01 -0.47976092830E+02  0.12947199973E+03  0.22147870857E+03  0.17300000000E+03 0.  1.
<mgrwt>
<rscale>  2 0.17969368E+03</rscale>
<asrwt>0</asrwt>
<pdfrwt beam="1">  1       21 0.66788843E-01 0.17969368E+03</pdfrwt>
<pdfrwt beam="2">  1       21 0.11878931E-01 0.17969368E+03</pdfrwt>
<totfact> 0.12332084E+05</totfact>
</mgrwt>
</event>
<event>
 4    1  0.4429256E+000  0.2083091E+03  0.7546771E-02  0.1142912E+00
         21   -1    0    0  503  502  0.00000000000E+00  0.00000000000E+00  0.48976227959E+03  0.48976227959E+03  0.00000000000E+00 0. -1.
         21   -1    0    0  501  503 -0.00000000000E+00 -0.00000000000E+00 -0.13655191426E+03  0.13655191426E+03  0.00000000000E+00 0. -1.
          6    1    1    2  501    0 -0.10992006937E+03  0.37165091607E+02 -0.89695545099E+01  0.20850208294E+03  0.17300000000E+03 0. -1.
         -6    1    1    2    0  502  0.10992006937E+03 -0.37165091607E+02  0.36217991984E+03  0.41781211090E+03  0.17300000000E+03 0. -1.
<mgrwt>
<rscale>  2 0.20830906E+03</rscale>
<asrwt>0</asrwt>
<pdfrwt beam="1">  1       21 0.75348043E-01 0.20830906E+03</pdfrwt>
<pdfrwt beam="2">  1       21 0.21007987E-01 0.20830906E+03</pdfrwt>
<totfact> 0.32847603E+04</totfact>
</mgrwt>
</event>
<event>
 4    1  0.4429256E+000  0.2331172E+03  0.7546771E-02  0.1124465E+00
         21   -1    0    0  501  502  0.00000000000E+00  0.00000000000E+00  0.97452351584E+02  0.97452351584E+02  0.00000000000E+00 0. -1.
         21   -1    0    0  502  503 -0.00000000000E+00 -0.00000000000E+00 -0.15706062370E+04  0.15706062370E+04  0.00000000000E+00 0.  1.
          6    1    1    2  501    0  0.11588837640E+03  0.10480712830E+03 -0.66778048813E+02  0.24249321172E+03  0.17300000000E+03 0. -1.
         -6    1    1    2    0  503 -0.11588837640E+03 -0.10480712830E+03 -0.14063758366E+04  0.14255653769E+04  0.17300000000E+03 0.  1.
<mgrwt>
<rscale>  2 0.23311725E+03</rscale>
<asrwt>0</asrwt>
<pdfrwt beam="1">  1       21 0.14992672E-01 0.23311725E+03</pdfrwt>
<pdfrwt beam="2">  1       21 0.24163170E+00 0.23311725E+03</pdfrwt>
<totfact> 0.28083923E+03</totfact>
</mgrwt>
</event>
<event>
 4    1  0.4429256E+000  0.2063955E+03  0.7546771E-02  0.1144453E+00
         21   -1    0    0  501  502  0.00000000000E+00  0.00000000000E+00  0.15613182681E+03  0.15613182681E+03  0.00000000000E+00 0.  1.
         21   -1    0    0  502  503 -0.00000000000E+00 -0.00000000000E+00 -0.27321209541E+03  0.27321209541E+03  0.00000000000E+00 0. -1.
          6    1    1    2  501    0  0.77790218843E+02 -0.81355880323E+02 -0.66456332657E+02  0.21683067486E+03  0.17300000000E+03 0. -1.
         -6    1    1    2    0  503 -0.77790218843E+02  0.81355880323E+02 -0.50623935939E+02  0.21251324735E+03  0.17300000000E+03 0.  1.
<mgrwt>
<rscale>  2 0.20639549E+03</rscale>
<asrwt>0</asrwt>
<pdfrwt beam="1">  1       21 0.24020281E-01 0.20639549E+03</pdfrwt>
<pdfrwt beam="2">  1       21 0.42032630E-01 0.20639549E+03</pdfrwt>
<totfact> 0.88535294E+04</totfact>
</mgrwt>
</event>
<event>
 4    1  0.4429256E+000  0.1778965E+03  0.7546771E-02  0.1169854E+00
         21   -1    0    0  503  502  0.00000000000E+00  0.00000000000E+00  0.49504403456E+03  0.49504403456E+03  0.00000000000E+00 0.  1.
         21   -1    0    0  501  503 -0.00000000000E+00 -0.00000000000E+00 -0.13970530838E+03  0.13970530838E+03  0.00000000000E+00 0.  1.
          6    1    1    2  501    0  0.46265467078E+01 -0.41191830410E+02 -0.56071916001E+02  0.18652407778E+03  0.17300000000E+03 0.  1.
         -6    1    1    2    0  502 -0.46265467078E+01  0.41191830410E+02  0.41141064218E+03  0.44822526516E+03  0.17300000000E+03 0.  1.
<mgrwt>
<rscale>  2 0.17789652E+03</rscale>
<asrwt>0</asrwt>
<pdfrwt beam="1">  1       21 0.76160620E-01 0.17789652E+03</pdfrwt>
<pdfrwt beam="2">  1       21 0.21493125E-01 0.17789652E+03</pdfrwt>
<totfact> 0.31235821E+04</totfact>
</mgrwt>
</event>
<event>
 4    1  0.4429256E+000  0.1781781E+03  0.7546771E-02  0.1169578E+00
         21   -1    0    0  503  502  0.00000000000E+00  0.00000000000E+00  0.14611368939E+03  0.14611368939E+03  0.00000000000E+00 0.  1.
         21   -1    0    0  501  503 -0.00000000000E+00 -0.00000000000E+00 -0.29059074889E+03  0.29059074889E+03  0.00000000000E+00 0. -1.
          6    1    1    2  501    0  0.42085654300E+02 -0.68733071157E+01 -0.18191244284E+03  0.25463617478E+03  0.17300000000E+03 0. -1.
         -6    1    1    2    0  502 -0.42085654300E+02  0.68733071157E+01  0.37435383339E+02  0.18206826350E+03  0.17300000000E+03 0.  1.
<mgrwt>
<rscale>  2 0.17817813E+03</rscale>
<asrwt>0</asrwt>
<pdfrwt beam="1">  1       21 0.22479030E-01 0.17817813E+03</pdfrwt>
<pdfrwt beam="2">  1       21 0.44706268E-01 0.17817813E+03</pdfrwt>
<totfact> 0.89524494E+04</totfact>
</mgrwt>
</event>
<event>
 4    1  0.4429256E+000  0.1836043E+03  0.7546771E-02  0.1164360E+00
         21   -1    0    0  503  502  0.00000000000E+00  0.00000000000E+00  0.51491164585E+03  0.51491164585E+03  0.00000000000E+00 0. -1.
         21   -1    0    0  501  503 -0.00000000000E+00 -0.00000000000E+00 -0.69954536513E+02  0.69954536513E+02  0.00000000000E+00 0. -1.
          6    1    1    2  501    0  0.75167060954E+01  0.61032967171E+02  0.14842480158E+03  0.23609414579E+03  0.17300000000E+03 0. -1.
         -6    1    1    2    0  502 -0.75167060954E+01 -0.61032967171E+02  0.29653230775E+03  0.34877203657E+03  0.17300000000E+03 0. -1.
<mgrwt>
<rscale>  2 0.18360426E+03</rscale>
<asrwt>0</asrwt>
<pdfrwt beam="1">  1       21 0.79217174E-01 0.18360426E+03</pdfrwt>
<pdfrwt beam="2">  1       21 0.10762237E-01 0.18360426E+03</pdfrwt>
<totfact> 0.10054454E+05</totfact>
</mgrwt>
</event>
<event>
 4    1  0.4429256E+000  0.1798222E+03  0.7546771E-02  0.1167975E+00
         21   -1    0    0  503  502  0.00000000000E+00  0.00000000000E+00  0.66154371006E+03  0.66154371006E+03  0.00000000000E+00 0.  1.
         21   -1    0    0  501  503 -0.00000000000E+00 -0.00000000000E+00 -0.51146158689E+02  0.51146158689E+02  0.00000000000E+00 0.  1.
          6    1    1    2  501    0  0.42613027283E+02  0.24313809087E+02  0.23018485828E+03  0.29209775827E+03  0.17300000000E+03 0.  1.
         -6    1    1    2    0  502 -0.42613027283E+02 -0.24313809087E+02  0.38021269309E+03  0.42059211048E+03  0.17300000000E+03 0.  1.
<mgrwt>
<rscale>  2 0.17982222E+03</rscale>
<asrwt>0</asrwt>
<pdfrwt beam="1">  1       21 0.10177595E+00 0.17982222E+03</pdfrwt>
<pdfrwt beam="2">  1       21 0.78686403E-02 0.17982222E+03</pdfrwt>
<totfact> 0.97753138E+04</totfact>
</mgrwt>
</event>
<event>
 4    1  0.4429256E+000  0.3363272E+03  0.7546771E-02  0.1068371E+00
         21   -1    0    0  503  502  0.00000000000E+00  0.00000000000E+00  0.18397221959E+04  0.18397221959E+04  0.00000000000E+00 0.  1.
         21   -1    0    0  501  503 -0.00000000000E+00 -0.00000000000E+00 -0.11108078011E+03  0.11108078011E+03  0.00000000000E+00 0. -1.
          6    1    1    2  501    0 -0.26750999113E+03  0.10782097567E+03  0.21256507165E+03  0.39786915919E+03  0.17300000000E+03 0. -1.
         -6    1    1    2    0  502  0.26750999113E+03 -0.10782097567E+03  0.15160763441E+04  0.15529338168E+04  0.17300000000E+03 0.  1.
<mgrwt>
<rscale>  2 0.33632716E+03</rscale>
<asrwt>0</asrwt>
<pdfrwt beam="1">  1       21 0.28303416E+00 0.33632716E+03</pdfrwt>
<pdfrwt beam="2">  1       21 0.17089352E-01 0.33632716E+03</pdfrwt>
<totfact> 0.11508732E+03</totfact>
</mgrwt>
</event>
<event>
 4    1  0.4429256E+000  0.1731879E+03  0.7546771E-02  0.1174564E+00
         21   -1    0    0  501  502  0.00000000000E+00  0.00000000000E+00  0.33169809291E+03  0.33169809291E+03  0.00000000000E+00 0.  1.
         21   -1    0    0  502  503 -0.00000000000E+00 -0.00000000000E+00 -0.10142963191E+03  0.10142963191E+03  0.00000000000E+00 0.  1.
          6    1    1    2  501    0  0.45663312505E+01 -0.66477221774E+01  0.18646498793E+03  0.25448621832E+03  0.17300000000E+03 0.  1.
         -6    1    1    2    0  503 -0.45663312505E+01  0.66477221774E+01  0.43803473079E+02  0.17864150650E+03  0.17300000000E+03 0.  1.
<mgrwt>
<rscale>  2 0.17318789E+03</rscale>
<asrwt>0</asrwt>
<pdfrwt beam="1">  1       21 0.51030475E-01 0.17318789E+03</pdfrwt>
<pdfrwt beam="2">  1       21 0.15604559E-01 0.17318789E+03</pdfrwt>
<totfact> 0.13418174E+05</totfact>
</mgrwt>
</event>
<event>
 4    1  0.4429256E+000  0.1774143E+03  0.7546771E-02  0.1170329E+00
         21   -1    0    0  501  502  0.00000000000E+00  0.00000000000E+00  0.58766803635E+03  0.58766803635E+03  0.00000000000E+00 0.  1.
         21   -1    0    0  502  503 -0.00000000000E+00 -0.00000000000E+00 -0.56970744884E+02  0.56970744884E+02  0.00000000000E+00 0.  1.
          6    1    1    2  501    0  0.21198467051E+02  0.33127791969E+02  0.34420738466E+03  0.38723965353E+03  0.17300000000E+03 0.  1.
         -6    1    1    2    0  503 -0.21198467051E+02 -0.33127791969E+02  0.18648990680E+03  0.25739912771E+03  0.17300000000E+03 0.  1.
<mgrwt>
<rscale>  2 0.17741428E+03</rscale>
<asrwt>0</asrwt>
<pdfrwt beam="1">  1       21 0.90410463E-01 0.17741428E+03</pdfrwt>
<pdfrwt beam="2">  1       21 0.87647304E-02 0.17741428E+03</pdfrwt>
<totfact> 0.10701625E+05</totfact>
</mgrwt>
</event>
<event>
 4    1  0.4429256E+000  0.1790853E+03  0.7546771E-02  0.1168691E+00
         21   -1    0    0  503  502  0.00000000000E+00  0.00000000000E+00  0.28264130892E+03  0.28264130892E+03  0.00000000000E+00 0.  1.
         21   -1    0    0  501  503 -0.00000000000E+00 -0.00000000000E+00 -0.11510095319E+03  0.11510095319E+03  0.00000000000E+00 0.  1.
          6    1    1    2  501    0 -0.41484577245E+02 -0.20532565491E+02  0.60103537339E+02  0.18890206880E+03  0.17300000000E+03 0. -1.
         -6    1    1    2    0  502  0.41484577245E+02  0.20532565491E+02  0.10743681839E+03  0.20884019331E+03  0.17300000000E+03 0. -1.
<mgrwt>
<rscale>  2 0.17908533E+03</rscale>
<asrwt>0</asrwt>
<pdfrwt beam="1">  1       21 0.43483278E-01 0.17908533E+03</pdfrwt>
<pdfrwt beam="2">  1       21 0.17707839E-01 0.17908533E+03</pdfrwt>
<totfact> 0.14775445E+05</totfact>
</mgrwt>
</event>
<event>
 4    1  0.4429256E+000  0.1887946E+03  0.7546771E-02  0.1159553E+00
         21   -1    0    0  503  502  0.00000000000E+00  0.00000000000E+00  0.34487486855E+03  0.34487486855E+03  0.00000000000E+00 0. -1.
         21   -1    0    0  501  503 -0.00000000000E+00 -0.00000000000E+00 -0.11394729937E+03  0.11394729937E+03  0.00000000000E+00 0. -1.
          6    1    1    2  501    0  0.34119251445E+02  0.67455707057E+02  0.45507677906E+02  0.19420181380E+03  0.17300000000E+03 0.  1.
         -6    1    1    2    0  502 -0.34119251445E+02 -0.67455707057E+02  0.18541989128E+03  0.26462035412E+03  0.17300000000E+03 0.  1.
<mgrwt>
<rscale>  2 0.18879459E+03</rscale>
<asrwt>0</asrwt>
<pdfrwt beam="1">  1       21 0.53057672E-01 0.18879459E+03</pdfrwt>
<pdfrwt beam="2">  1       21 0.17530354E-01 0.18879459E+03</pdfrwt>
<totfact> 0.99348125E+04</totfact>
</mgrwt>
</event>
<event>
 4    1  0.4429256E+000  0.3265936E+03  0.7546771E-02  0.1072654E+00
         21   -1    0    0  501  502  0.00000000000E+00  0.00000000000E+00  0.29863858515E+03  0.29863858515E+03  0.00000000000E+00 0.  1.
         21   -1    0    0  502  503 -0.00000000000E+00 -0.00000000000E+00 -0.36313471315E+03  0.36313471315E+03  0.00000000000E+00 0. -1.
          6    1    1    2  501    0 -0.27420142805E+03 -0.39344306218E+02  0.10175206822E+02  0.32675209626E+03  0.17300000000E+03 0.  1.
         -6    1    1    2    0  503  0.27420142805E+03  0.39344306218E+02 -0.74671334822E+02  0.33502120205E+03  0.17300000000E+03 0. -1.
<mgrwt>
<rscale>  2 0.32659363E+03</rscale>
<asrwt>0</asrwt>
<pdfrwt beam="1">  1       21 0.45944398E-01 0.32659363E+03</pdfrwt>
<pdfrwt beam="2">  1       21 0.55866879E-01 0.32659363E+03</pdfrwt>
<totfact> 0.12793538E+04</totfact>
</mgrwt>
</event>
<event>
 4    1  0.4429256E+000  0.2293856E+03  0.7546771E-02  0.1127073E+00
         21   -1    0    0  503  502  0.00000000000E+00  0.00000000000E+00  0.38192061785E+03  0.38192061785E+03  0.00000000000E+00 0. -1.
         21   -1    0    0  501  503 -0.00000000000E+00 -0.00000000000E+00 -0.17365067876E+03  0.17365067876E+03  0.00000000000E+00 0.  1.
          6    1    1    2  501    0  0.59395944395E+02  0.13842275563E+03 -0.22133066430E+02  0.23045088439E+03  0.17300000000E+03 0.  1.
         -6    1    1    2    0  502 -0.59395944395E+02 -0.13842275563E+03  0.23040300552E+03  0.32512041222E+03  0.17300000000E+03 0. -1.
<mgrwt>
<rscale>  2 0.22938557E+03</rscale>
<asrwt>0</asrwt>
<pdfrwt beam="1">  1       21 0.58757018E-01 0.22938557E+03</pdfrwt>
<pdfrwt beam="2">  1       21 0.26715489E-01 0.22938557E+03</pdfrwt>
<totfact> 0.35482547E+04</totfact>
</mgrwt>
</event>
<event>
 4    1  0.4429256E+000  0.1748033E+03  0.7546771E-02  0.1172929E+00
         21   -1    0    0  503  502  0.00000000000E+00  0.00000000000E+00  0.34066237505E+03  0.34066237505E+03  0.00000000000E+00 0. -1.
         21   -1    0    0  501  503 -0.00000000000E+00 -0.00000000000E+00 -0.25106724094E+03  0.25106724094E+03  0.00000000000E+00 0. -1.
          6    1    1    2  501    0 -0.21944282625E+02  0.12067683422E+02 -0.19240033788E+03  0.25995013087E+03  0.17300000000E+03 0. -1.
         -6    1    1    2    0  502  0.21944282625E+02 -0.12067683422E+02  0.28199547199E+03  0.33177948512E+03  0.17300000000E+03 0. -1.
<mgrwt>
<rscale>  2 0.17480326E+03</rscale>
<asrwt>0</asrwt>
<pdfrwt beam="1">  1       21 0.52409596E-01 0.17480326E+03</pdfrwt>
<pdfrwt beam="2">  1       21 0.38625729E-01 0.17480326E+03</pdfrwt>
<totfact> 0.22552475E+04</totfact>
</mgrwt>
</event>
<event>
 4    1  0.4429256E+000  0.1857922E+03  0.7546771E-02  0.1162312E+00
         21   -1    0    0  501  502  0.00000000000E+00  0.00000000000E+00  0.15793425690E+03  0.15793425690E+03  0.00000000000E+00 0. -1.
         21   -1    0    0  502  503 -0.00000000000E+00 -0.00000000000E+00 -0.43969637280E+03  0.43969637280E+03  0.00000000000E+00 0. -1.
          6    1    1    2  501    0  0.53896525554E+02  0.41047433809E+02  0.71029537037E+02  0.19890681844E+03  0.17300000000E+03 0. -1.
         -6    1    1    2    0  503 -0.53896525554E+02 -0.41047433809E+02 -0.35279165293E+03  0.39872381126E+03  0.17300000000E+03 0. -1.
<mgrwt>
<rscale>  2 0.18579216E+03</rscale>
<asrwt>0</asrwt>
<pdfrwt beam="1">  1       21 0.24297578E-01 0.18579216E+03</pdfrwt>
<pdfrwt beam="2">  1       21 0.67645595E-01 0.18579216E+03</pdfrwt>
<totfact> 0.32063989E+04</totfact>
</mgrwt>
</event>
<event>
 4    1  0.4429256E+000  0.2235155E+03  0.7546771E-02  0.1131289E+00
         21   -1    0    0  501  502  0.00000000000E+00  0.00000000000E+00  0.22781138779E+04  0.22781138779E+04  0.00000000000E+00 0. -1.
         21   -1    0    0  502  503 -0.00000000000E+00 -0.00000000000E+00 -0.81928566707E+02  0.81928566707E+02  0.00000000000E+00 0.  1.
          6    1    1    2  501    0  0.12285690799E+03  0.70259266462E+02  0.21079088791E+04  0.21197261680E+04  0.17300000000E+03 0. -1.
         -6    1    1    2    0  503 -0.12285690799E+03 -0.70259266462E+02  0.88276432047E+02  0.24031627664E+03  0.17300000000E+03 0.  1.
<mgrwt>
<rscale>  2 0.22351551E+03</rscale>
<asrwt>0</asrwt>
<pdfrwt beam="1">  1       21 0.35047901E+00 0.22351551E+03</pdfrwt>
<pdfrwt beam="2">  1       21 0.12604397E-01 0.22351551E+03</pdfrwt>
<totfact> 0.89467397E+02</totfact>
</mgrwt>
</event>
<event>
 4    1  0.4429256E+000  0.2222713E+03  0.7546771E-02  0.1132201E+00
         21   -1    0    0  501  502  0.00000000000E+00  0.00000000000E+00  0.11469387722E+03  0.11469387722E+03  0.00000000000E+00 0.  1.
         21   -1    0    0  502  503 -0.00000000000E+00 -0.00000000000E+00 -0.45932239163E+03  0.45932239163E+03  0.00000000000E+00 0. -1.
          6    1    1    2  501    0  0.16506705762E+02  0.13857515979E+03 -0.24389532659E+03  0.32998405504E+03  0.17300000000E+03 0. -1.
         -6    1    1    2    0  503 -0.16506705762E+02 -0.13857515979E+03 -0.10073318782E+03  0.24403221381E+03  0.17300000000E+03 0.  1.
<mgrwt>
<rscale>  2 0.22227133E+03</rscale>
<asrwt>0</asrwt>
<pdfrwt beam="1">  1       21 0.17645212E-01 0.22227133E+03</pdfrwt>
<pdfrwt beam="2">  1       21 0.70664985E-01 0.22227133E+03</pdfrwt>
<totfact> 0.52119228E+04</totfact>
</mgrwt>
</event>
<event>
 4    1  0.4429256E+000  0.1953561E+03  0.7546771E-02  0.1153717E+00
         21   -1    0    0  503  502  0.00000000000E+00  0.00000000000E+00  0.36797332980E+03  0.36797332980E+03  0.00000000000E+00 0.  1.
         21   -1    0    0  501  503 -0.00000000000E+00 -0.00000000000E+00 -0.22088015641E+03  0.22088015641E+03  0.00000000000E+00 0. -1.
          6    1    1    2  501    0 -0.31940438826E+02  0.84940147084E+02 -0.14089046292E+03  0.24086125210E+03  0.17300000000E+03 0. -1.
         -6    1    1    2    0  502  0.31940438826E+02 -0.84940147084E+02  0.28798363631E+03  0.34799223411E+03  0.17300000000E+03 0.  1.
<mgrwt>
<rscale>  2 0.19535614E+03</rscale>
<asrwt>0</asrwt>
<pdfrwt beam="1">  1       21 0.56611281E-01 0.19535614E+03</pdfrwt>
<pdfrwt beam="2">  1       21 0.33981563E-01 0.19535614E+03</pdfrwt>
<totfact> 0.24442044E+04</totfact>
</mgrwt>
</event>
<event>
 4    1  0.4429256E+000  0.2049691E+03  0.7546771E-02  0.1145613E+00
         21   -1    0    0  503  502  0.00000000000E+00  0.00000000000E+00  0.38789283558E+03  0.38789283558E+03  0.00000000000E+00 0. -1.
         21   -1    0    0  501  503 -0.00000000000E+00 -0.00000000000E+00 -0.27340566177E+03  0.27340566177E+03  0.00000000000E+00 0. -1.
          6    1    1    2  501    0  0.16097464173E+02 -0.10873915163E+03 -0.19969703870E+03  0.28616645281E+03  0.17300000000E+03 0. -1.
         -6    1    1    2    0  502 -0.16097464173E+02  0.10873915163E+03  0.31418421251E+03  0.37513204454E+03  0.17300000000E+03 0. -1.
<mgrwt>
<rscale>  2 0.20496910E+03</rscale>
<asrwt>0</asrwt>
<pdfrwt beam="1">  1       21 0.59675821E-01 0.20496910E+03</pdfrwt>
<pdfrwt beam="2">  1       21 0.42062409E-01 0.20496910E+03</pdfrwt>
<totfact> 0.14147851E+04</totfact>
</mgrwt>
</event>
<event>
 4    1  0.4429256E+000  0.2508581E+03  0.7546771E-02  0.1112764E+00
         21   -1    0    0  503  502  0.00000000000E+00  0.00000000000E+00  0.85992363418E+03  0.85992363418E+03  0.00000000000E+00 0.  1.
         21   -1    0    0  501  503 -0.00000000000E+00 -0.00000000000E+00 -0.83742418287E+02  0.83742418287E+02  0.00000000000E+00 0. -1.
          6    1    1    2  501    0 -0.12020083828E+03  0.13620778081E+03  0.22052566081E+03  0.33400803605E+03  0.17300000000E+03 0. -1.
         -6    1    1    2    0  502  0.12020083828E+03 -0.13620778081E+03  0.55565555509E+03  0.60965801641E+03  0.17300000000E+03 0.  1.
<mgrwt>
<rscale>  2 0.25085813E+03</rscale>
<asrwt>0</asrwt>
<pdfrwt beam="1">  1       21 0.13229594E+00 0.25085813E+03</pdfrwt>
<pdfrwt beam="2">  1       21 0.12883450E-01 0.25085813E+03</pdfrwt>
<totfact> 0.20647114E+04</totfact>
</mgrwt>
</event>
<event>
 4    1  0.4429256E+000  0.2172070E+03  0.7546771E-02  0.1135983E+00
         21   -1    0    0  501  502  0.00000000000E+00  0.00000000000E+00  0.22318530812E+03  0.22318530812E+03  0.00000000000E+00 0.  1.
         21   -1    0    0  502  503 -0.00000000000E+00 -0.00000000000E+00 -0.26145090351E+03  0.26145090351E+03  0.00000000000E+00 0.  1.
          6    1    1    2  501    0  0.72323773443E+02  0.10963190810E+03  0.86901206874E+02  0.23394594084E+03  0.17300000000E+03 0.  1.
         -6    1    1    2    0  503 -0.72323773443E+02 -0.10963190810E+03 -0.12516680226E+03  0.25069027079E+03  0.17300000000E+03 0.  1.
<mgrwt>
<rscale>  2 0.21720701E+03</rscale>
<asrwt>0</asrwt>
<pdfrwt beam="1">  1       21 0.34336201E-01 0.21720701E+03</pdfrwt>
<pdfrwt beam="2">  1       21 0.40223216E-01 0.21720701E+03</pdfrwt>
<totfact> 0.48113885E+04</totfact>
</mgrwt>
</event>
<event>
 4    1  0.4429256E+000  0.2106061E+03  0.7546771E-02  0.1141087E+00
         21   -1    0    0  503  502  0.00000000000E+00  0.00000000000E+00  0.18769153884E+03  0.18769153884E+03  0.00000000000E+00 0.  1.
         21   -1    0    0  501  503 -0.00000000000E+00 -0.00000000000E+00 -0.37257095995E+03  0.37257095995E+03  0.00000000000E+00 0.  1.
          6    1    1    2  501    0  0.97204435479E+02  0.70549594028E+02 -0.26184600177E+03  0.33603314738E+03  0.17300000000E+03 0.  1.
         -6    1    1    2    0  502 -0.97204435479E+02 -0.70549594028E+02  0.76966580670E+02  0.22422935141E+03  0.17300000000E+03 0.  1.
<mgrwt>
<rscale>  2 0.21060614E+03</rscale>
<asrwt>0</asrwt>
<pdfrwt beam="1">  1       21 0.28875622E-01 0.21060614E+03</pdfrwt>
<pdfrwt beam="2">  1       21 0.57318608E-01 0.21060614E+03</pdfrwt>
<totfact> 0.32483342E+04</totfact>
</mgrwt>
</event>
<event>
 4    1  0.4429256E+000  0.1870045E+03  0.7546771E-02  0.1161191E+00
         21   -1    0    0  503  502  0.00000000000E+00  0.00000000000E+00  0.12862099652E+04  0.12862099652E+04  0.00000000000E+00 0.  1.
         21   -1    0    0  501  503 -0.00000000000E+00 -0.00000000000E+00 -0.35226492027E+02  0.35226492027E+02  0.00000000000E+00 0.  1.
          6    1    1    2  501    0 -0.21081680207E+01  0.70973569233E+02  0.30988711375E+03  0.36194020939E+03  0.17300000000E+03 0.  1.
         -6    1    1    2    0  502  0.21081680207E+01 -0.70973569233E+02  0.94109635940E+03  0.95949624782E+03  0.17300000000E+03 0.  1.
<mgrwt>
<rscale>  2 0.18700452E+03</rscale>
<asrwt>0</asrwt>
<pdfrwt beam="1">  1       21 0.19787842E+00 0.18700452E+03</pdfrwt>
<pdfrwt beam="2">  1       21 0.54194613E-02 0.18700452E+03</pdfrwt>
<totfact> 0.32632243E+04</totfact>
</mgrwt>
</event>
<event>
 4    1  0.4429256E+000  0.2052872E+03  0.7546771E-02  0.1145353E+00
         21   -1    0    0  501  502  0.00000000000E+00  0.00000000000E+00  0.16640121884E+03  0.16640121884E+03  0.00000000000E+00 0.  1.
         21   -1    0    0  502  503 -0.00000000000E+00 -0.00000000000E+00 -0.27705092982E+03  0.27705092982E+03  0.00000000000E+00 0.  1.
          6    1    1    2  501    0 -0.43966279545E+02  0.10139426819E+03  0.96491216623E+01  0.20551383629E+03  0.17300000000E+03 0.  1.
         -6    1    1    2    0  503  0.43966279545E+02 -0.10139426819E+03 -0.12029883264E+03  0.23793831237E+03  0.17300000000E+03 0.  1.
<mgrwt>
<rscale>  2 0.20528719E+03</rscale>
<asrwt>0</asrwt>
<pdfrwt beam="1">  1       21 0.25600188E-01 0.20528719E+03</pdfrwt>
<pdfrwt beam="2">  1       21 0.42623219E-01 0.20528719E+03</pdfrwt>
<totfact> 0.76226096E+04</totfact>
</mgrwt>
</event>
<event>
 4    1  0.4429256E+000  0.1838628E+03  0.7546771E-02  0.1164116E+00
         21   -1    0    0  503  502  0.00000000000E+00  0.00000000000E+00  0.54921027798E+03  0.54921027798E+03  0.00000000000E+00 0.  1.
         21   -1    0    0  501  503 -0.00000000000E+00 -0.00000000000E+00 -0.95444792096E+02  0.95444792096E+02  0.00000000000E+00 0.  1.
          6    1    1    2  501    0 -0.30926638827E+02 -0.54037657848E+02  0.34808677769E+02  0.18712875114E+03  0.17300000000E+03 0.  1.
         -6    1    1    2    0  502  0.30926638827E+02  0.54037657848E+02  0.41895680812E+03  0.45752631894E+03  0.17300000000E+03 0.  1.
<mgrwt>
<rscale>  2 0.18386279E+03</rscale>
<asrwt>0</asrwt>
<pdfrwt beam="1">  1       21 0.84493887E-01 0.18386279E+03</pdfrwt>
<pdfrwt beam="2">  1       21 0.14683815E-01 0.18386279E+03</pdfrwt>
<totfact> 0.49746506E+04</totfact>
</mgrwt>
</event>
<event>
 4    1  0.4429256E+000  0.1886635E+03  0.7546771E-02  0.1159672E+00
         21   -1    0    0  501  502  0.00000000000E+00  0.00000000000E+00  0.12263413533E+03  0.12263413533E+03  0.00000000000E+00 0. -1.
         21   -1    0    0  502  503 -0.00000000000E+00 -0.00000000000E+00 -0.16006372611E+04  0.16006372611E+04  0.00000000000E+00 0. -1.
          6    1    1    2  501    0 -0.36257598971E+02 -0.65956856214E+02  0.40609359671E+02  0.19298456015E+03  0.17300000000E+03 0. -1.
         -6    1    1    2    0  503  0.36257598971E+02  0.65956856214E+02 -0.15186124854E+04  0.15302868363E+04  0.17300000000E+03 0. -1.
<mgrwt>
<rscale>  2 0.18866351E+03</rscale>
<asrwt>0</asrwt>
<pdfrwt beam="1">  1       21 0.18866790E-01 0.18866351E+03</pdfrwt>
<pdfrwt beam="2">  1       21 0.24625189E+00 0.18866351E+03</pdfrwt>
<totfact> 0.18087487E+03</totfact>
</mgrwt>
</event>
<event>
 4    1  0.4429256E+000  0.2502550E+03  0.7546771E-02  0.1113144E+00
         21   -1    0    0  501  502  0.00000000000E+00  0.00000000000E+00  0.36646683104E+03  0.36646683104E+03  0.00000000000E+00 0. -1.
         21   -1    0    0  502  503 -0.00000000000E+00 -0.00000000000E+00 -0.17147874023E+03  0.17147874023E+03  0.00000000000E+00 0. -1.
          6    1    1    2  501    0  0.14064287831E+03  0.11365808019E+03  0.81809204837E+02  0.26328753181E+03  0.17300000000E+03 0. -1.
         -6    1    1    2    0  503 -0.14064287831E+03 -0.11365808019E+03  0.11317888597E+03  0.27465803946E+03  0.17300000000E+03 0. -1.
<mgrwt>
<rscale>  2 0.25025503E+03</rscale>
<asrwt>0</asrwt>
<pdfrwt beam="1">  1       21 0.56379512E-01 0.25025503E+03</pdfrwt>
<pdfrwt beam="2">  1       21 0.26381345E-01 0.25025503E+03</pdfrwt>
<totfact> 0.39358310E+04</totfact>
</mgrwt>
</event>
<event>
 4    1  0.4429256E+000  0.2918559E+03  0.7546771E-02  0.1089384E+00
         21   -1    0    0  503  502  0.00000000000E+00  0.00000000000E+00  0.15328087301E+03  0.15328087301E+03  0.00000000000E+00 0. -1.
         21   -1    0    0  501  503 -0.00000000000E+00 -0.00000000000E+00 -0.62827035390E+03  0.62827035390E+03  0.00000000000E+00 0.  1.
          6    1    1    2  501    0 -0.15519438978E+02  0.23454210216E+03 -0.10469378597E+03  0.31006554064E+03  0.17300000000E+03 0. -1.
         -6    1    1    2    0  502  0.15519438978E+02 -0.23454210216E+03 -0.37029569493E+03  0.47148568627E+03  0.17300000000E+03 0.  1.
<mgrwt>
<rscale>  2 0.29185587E+03</rscale>
<asrwt>0</asrwt>
<pdfrwt beam="1">  1       21 0.23581673E-01 0.29185587E+03</pdfrwt>
<pdfrwt beam="2">  1       21 0.96656977E-01 0.29185587E+03</pdfrwt>
<totfact> 0.14259906E+04</totfact>
</mgrwt>
</event>
<event>
 4    1  0.4429256E+000  0.2001141E+03  0.7546771E-02  0.1149643E+00
         21   -1    0    0  501  502  0.00000000000E+00  0.00000000000E+00  0.68762488762E+03  0.68762488762E+03  0.00000000000E+00 0.  1.
         21   -1    0    0  502  503 -0.00000000000E+00 -0.00000000000E+00 -0.61171488732E+02  0.61171488732E+02  0.00000000000E+00 0.  1.
          6    1    1    2  501    0  0.93623366420E+02 -0.36760515103E+02  0.23123385216E+03  0.30580183877E+03  0.17300000000E+03 0.  1.
         -6    1    1    2    0  503 -0.93623366420E+02  0.36760515103E+02  0.39521954673E+03  0.44299453758E+03  0.17300000000E+03 0.  1.
<mgrwt>
<rscale>  2 0.20011414E+03</rscale>
<asrwt>0</asrwt>
<pdfrwt beam="1">  1       21 0.10578844E+00 0.20011414E+03</pdfrwt>
<pdfrwt beam="2">  1       21 0.94109988E-02 0.20011414E+03</pdfrwt>
<totfact> 0.64571296E+04</totfact>
</mgrwt>
</event>
<event>
 4    1  0.4429256E+000  0.1736262E+03  0.7546771E-02  0.1174118E+00
         21   -1    0    0  503  502  0.00000000000E+00  0.00000000000E+00  0.18673513332E+04  0.18673513332E+04  0.00000000000E+00 0.  1.
         21   -1    0    0  501  503 -0.00000000000E+00 -0.00000000000E+00 -0.31681974266E+02  0.31681974266E+02  0.00000000000E+00 0.  1.
          6    1    1    2  501    0 -0.13557689158E+02  0.57668745205E+01  0.15827970207E+04  0.15922915802E+04  0.17300000000E+03 0.  1.
         -6    1    1    2    0  502  0.13557689158E+02 -0.57668745205E+01  0.25287233825E+03  0.30674172724E+03  0.17300000000E+03 0.  1.
<mgrwt>
<rscale>  2 0.17362623E+03</rscale>
<asrwt>0</asrwt>
<pdfrwt beam="1">  1       21 0.28728473E+00 0.17362623E+03</pdfrwt>
<pdfrwt beam="2">  1       21 0.48741514E-02 0.17362623E+03</pdfrwt>
<totfact> 0.11581884E+04</totfact>
</mgrwt>
</event>
<event>
 4    1  0.4429256E+000  0.2101015E+03  0.7546771E-02  0.1141486E+00
         21   -1    0    0  501  502  0.00000000000E+00  0.00000000000E+00  0.30867975113E+03  0.30867975113E+03  0.00000000000E+00 0.  1.
         21   -1    0    0  502  503 -0.00000000000E+00 -0.00000000000E+00 -0.15743500533E+03  0.15743500533E+03  0.00000000000E+00 0.  1.
          6    1    1    2  501    0  0.54048064012E+02 -0.10626594166E+03  0.14618106661E+03  0.25595223737E+03  0.17300000000E+03 0.  1.
         -6    1    1    2    0  503 -0.54048064012E+02  0.10626594166E+03  0.50636791900E+01  0.21016251908E+03  0.17300000000E+03 0.  1.
<mgrwt>
<rscale>  2 0.21010151E+03</rscale>
<asrwt>0</asrwt>
<pdfrwt beam="1">  1       21 0.47489192E-01 0.21010151E+03</pdfrwt>
<pdfrwt beam="2">  1       21 0.24220770E-01 0.21010151E+03</pdfrwt>
<totfact> 0.67700720E+04</totfact>
</mgrwt>
</event>
<event>
 4    1  0.4429256E+000  0.2261197E+03  0.7546771E-02  0.1129401E+00
         21   -1    0    0  501  502  0.00000000000E+00  0.00000000000E+00  0.77672799828E+03  0.77672799828E+03  0.00000000000E+00 0. -1.
         21   -1    0    0  502  503 -0.00000000000E+00 -0.00000000000E+00 -0.10788873564E+03  0.10788873564E+03  0.00000000000E+00 0. -1.
          6    1    1    2  501    0 -0.12205029722E+03  0.79402925563E+02  0.61059050148E+03  0.65111508978E+03  0.17300000000E+03 0. -1.
         -6    1    1    2    0  503  0.12205029722E+03 -0.79402925563E+02  0.58248761157E+02  0.23350164414E+03  0.17300000000E+03 0. -1.
<mgrwt>
<rscale>  2 0.22611966E+03</rscale>
<asrwt>0</asrwt>
<pdfrwt beam="1">  1       21 0.11949661E+00 0.22611966E+03</pdfrwt>
<pdfrwt beam="2">  1       21 0.16598268E-01 0.22611966E+03</pdfrwt>
<totfact> 0.17033699E+04</totfact>
</mgrwt>
</event>
<event>
 4    1  0.4429256E+000  0.2023778E+03  0.7546771E-02  0.1147748E+00
         21   -1    0    0  503  502  0.00000000000E+00  0.00000000000E+00  0.63117081201E+03  0.63117081201E+03  0.00000000000E+00 0. -1.
         21   -1    0    0  501  503 -0.00000000000E+00 -0.00000000000E+00 -0.18291537565E+03  0.18291537565E+03  0.00000000000E+00 0. -1.
          6    1    1    2  501    0  0.10295502747E+03  0.20688607520E+02 -0.10283839160E+03  0.22700768919E+03  0.17300000000E+03 0. -1.
         -6    1    1    2    0  502 -0.10295502747E+03 -0.20688607520E+02  0.55109382795E+03  0.58707849848E+03  0.17300000000E+03 0. -1.
<mgrwt>
<rscale>  2 0.20237776E+03</rscale>
<asrwt>0</asrwt>
<pdfrwt beam="1">  1       21 0.97103201E-01 0.20237776E+03</pdfrwt>
<pdfrwt beam="2">  1       21 0.28140827E-01 0.20237776E+03</pdfrwt>
<totfact> 0.10545579E+04</totfact>
</mgrwt>
</event>
<event>
 4    1  0.4429256E+000  0.1737347E+03  0.7546771E-02  0.1174008E+00
         21   -1    0    0  503  502  0.00000000000E+00  0.00000000000E+00  0.46233259160E+02  0.46233259160E+02  0.00000000000E+00 0.  1.
         21   -1    0    0  501  503 -0.00000000000E+00 -0.00000000000E+00 -0.77972337403E+03  0.77972337403E+03  0.00000000000E+00 0.  1.
          6    1    1    2  501    0 -0.14887122595E+02  0.57535094090E+01 -0.53332756947E+03  0.56091178063E+03  0.17300000000E+03 0.  1.
         -6    1    1    2    0  502  0.14887122595E+02 -0.57535094090E+01 -0.20016254541E+03  0.26504485257E+03  0.17300000000E+03 0.  1.
<mgrwt>
<rscale>  2 0.17373465E+03</rscale>
<asrwt>0</asrwt>
<pdfrwt beam="1">  1       21 0.71128089E-02 0.17373465E+03</pdfrwt>
<pdfrwt beam="2">  1       21 0.11995745E+00 0.17373465E+03</pdfrwt>
<totfact> 0.78468353E+04</totfact>
</mgrwt>
</event>
<event>
 4    1  0.4429256E+000  0.1753903E+03  0.7546771E-02  0.1172340E+00
         21   -1    0    0  503  502  0.00000000000E+00  0.00000000000E+00  0.12232260916E+03  0.12232260916E+03  0.00000000000E+00 0.  1.
         21   -1    0    0  501  503 -0.00000000000E+00 -0.00000000000E+00 -0.25380848231E+03  0.25380848231E+03  0.00000000000E+00 0.  1.
          6    1    1    2  501    0  0.18668293975E+02  0.22005644849E+02 -0.83754190859E+02  0.19436182262E+03  0.17300000000E+03 0.  1.
         -6    1    1    2    0  502 -0.18668293975E+02 -0.22005644849E+02 -0.47731682294E+02  0.18176926885E+03  0.17300000000E+03 0.  1.
<mgrwt>
<rscale>  2 0.17539029E+03</rscale>
<asrwt>0</asrwt>
<pdfrwt beam="1">  1       21 0.18818863E-01 0.17539029E+03</pdfrwt>
<pdfrwt beam="2">  1       21 0.39047459E-01 0.17539029E+03</pdfrwt>
<totfact> 0.16437584E+05</totfact>
</mgrwt>
</event>
<event>
 4    1  0.4429256E+000  0.1751588E+03  0.7546771E-02  0.1172572E+00
         21   -1    0    0  503  502  0.00000000000E+00  0.00000000000E+00  0.46215948164E+03  0.46215948164E+03  0.00000000000E+00 0.  1.
         21   -1    0    0  501  503 -0.00000000000E+00 -0.00000000000E+00 -0.84647583443E+02  0.84647583443E+02  0.00000000000E+00 0.  1.
          6    1    1    2  501    0  0.26296982277E+02  0.77506953340E+01  0.61764594803E+02  0.18572956072E+03  0.17300000000E+03 0.  1.
         -6    1    1    2    0  502 -0.26296982277E+02 -0.77506953340E+01  0.31574730339E+03  0.36107750436E+03  0.17300000000E+03 0.  1.
<mgrwt>
<rscale>  2 0.17515880E+03</rscale>
<asrwt>0</asrwt>
<pdfrwt beam="1">  1       21 0.71101458E-01 0.17515880E+03</pdfrwt>
<pdfrwt beam="2">  1       21 0.13022705E-01 0.17515880E+03</pdfrwt>
<totfact> 0.91351827E+04</totfact>
</mgrwt>
</event>
<event>
 4    1  0.4429256E+000  0.1962887E+03  0.7546771E-02  0.1152909E+00
         21   -1    0    0  501  502  0.00000000000E+00  0.00000000000E+00  0.39203630651E+02  0.39203630651E+02  0.00000000000E+00 0. -1.
         21   -1    0    0  502  503 -0.00000000000E+00 -0.00000000000E+00 -0.18705201932E+04  0.18705201932E+04  0.00000000000E+00 0. -1.
          6    1    1    2  501    0  0.57533457767E+02 -0.72733457441E+02 -0.25785220837E+03  0.32406329004E+03  0.17300000000E+03 0. -1.
         -6    1    1    2    0  503 -0.57533457767E+02  0.72733457441E+02 -0.15734643541E+04  0.15856605338E+04  0.17300000000E+03 0. -1.
<mgrwt>
<rscale>  2 0.19628870E+03</rscale>
<asrwt>0</asrwt>
<pdfrwt beam="1">  1       21 0.60313271E-02 0.19628870E+03</pdfrwt>
<pdfrwt beam="2">  1       21 0.28777237E+00 0.19628870E+03</pdfrwt>
<totfact> 0.78141613E+03</totfact>
</mgrwt>
</event>
<event>
 4    1  0.4429256E+000  0.2063400E+03  0.7546771E-02  0.1144498E+00
         21   -1    0    0  503  502  0.00000000000E+00  0.00000000000E+00  0.71863524837E+02  0.71863524837E+02  0.00000000000E+00 0. -1.
         21   -1    0    0  501  503 -0.00000000000E+00 -0.00000000000E+00 -0.66461484482E+03  0.66461484482E+03  0.00000000000E+00 0. -1.
          6    1    1    2  501    0 -0.92412851406E+02 -0.64086273791E+02 -0.41770923964E+03  0.46589397343E+03  0.17300000000E+03 0. -1.
         -6    1    1    2    0  502  0.92412851406E+02  0.64086273791E+02 -0.17504208034E+03  0.27058439623E+03  0.17300000000E+03 0. -1.
<mgrwt>
<rscale>  2 0.20633998E+03</rscale>
<asrwt>0</asrwt>
<pdfrwt beam="1">  1       21 0.11055927E-01 0.20633998E+03</pdfrwt>
<pdfrwt beam="2">  1       21 0.10224844E+00 0.20633998E+03</pdfrwt>
<totfact> 0.52514265E+04</totfact>
</mgrwt>
</event>
<event>
 4    1  0.4429256E+000  0.2434027E+03  0.7546771E-02  0.1117547E+00
         21   -1    0    0  503  502  0.00000000000E+00  0.00000000000E+00  0.18753611243E+03  0.18753611243E+03  0.00000000000E+00 0.  1.
         21   -1    0    0  501  503 -0.00000000000E+00 -0.00000000000E+00 -0.47501888705E+03  0.47501888705E+03  0.00000000000E+00 0. -1.
          6    1    1    2  501    0  0.17102474022E+03  0.81492288813E+01 -0.33546749562E+03  0.41446750453E+03  0.17300000000E+03 0. -1.
         -6    1    1    2    0  502 -0.17102474022E+03 -0.81492288813E+01  0.47984720994E+02  0.24808749494E+03  0.17300000000E+03 0.  1.
<mgrwt>
<rscale>  2 0.24340269E+03</rscale>
<asrwt>0</asrwt>
<pdfrwt beam="1">  1       21 0.28851710E-01 0.24340269E+03</pdfrwt>
<pdfrwt beam="2">  1       21 0.73079828E-01 0.24340269E+03</pdfrwt>
<totfact> 0.18818380E+04</totfact>
</mgrwt>
</event>
<event>
 4    1  0.4429256E+000  0.2136425E+03  0.7546771E-02  0.1138714E+00
         21   -1    0    0  503  502  0.00000000000E+00  0.00000000000E+00  0.18919772715E+03  0.18919772715E+03  0.00000000000E+00 0.  1.
         21   -1    0    0  501  503 -0.00000000000E+00 -0.00000000000E+00 -0.30252876824E+03  0.30252876824E+03  0.00000000000E+00 0.  1.
          6    1    1    2  501    0 -0.12041315896E+03 -0.34853622954E+02 -0.16732310002E+03  0.27136713818E+03  0.17300000000E+03 0.  1.
         -6    1    1    2    0  502  0.12041315896E+03  0.34853622954E+02  0.53992058925E+02  0.22035935721E+03  0.17300000000E+03 0.  1.
<mgrwt>
<rscale>  2 0.21364247E+03</rscale>
<asrwt>0</asrwt>
<pdfrwt beam="1">  1       21 0.29107343E-01 0.21364247E+03</pdfrwt>
<pdfrwt beam="2">  1       21 0.46542888E-01 0.21364247E+03</pdfrwt>
<totfact> 0.49460150E+04</totfact>
</mgrwt>
</event>
<event>
 4    1  0.4429256E+000  0.1730682E+03  0.7546771E-02  0.1174685E+00
         21   -1    0    0  503  502  0.00000000000E+00  0.00000000000E+00  0.12624445131E+04  0.12624445131E+04  0.00000000000E+00 0. -1.
         21   -1    0    0  501  503 -0.00000000000E+00 -0.00000000000E+00 -0.37565652263E+02  0.37565652263E+02  0.00000000000E+00 0. -1.
          6    1    1    2  501    0 -0.48142038797E+01 -0.65865529560E+00  0.21790426754E+03  0.27827123494E+03  0.17300000000E+03 0. -1.
         -6    1    1    2    0  502  0.48142038797E+01  0.65865529560E+00  0.10069745933E+04  0.10217389304E+04  0.17300000000E+03 0. -1.
<mgrwt>
<rscale>  2 0.17306822E+03</rscale>
<asrwt>0</asrwt>
<pdfrwt beam="1">  1       21 0.19422220E+00 0.17306822E+03</pdfrwt>
<pdfrwt beam="2">  1       21 0.57793321E-02 0.17306822E+03</pdfrwt>
<totfact> 0.31198019E+04</totfact>
</mgrwt>
</event>
<event>
 4    1  0.4429256E+000  0.2055567E+03  0.7546771E-02  0.1145134E+00
         21   -1    0    0  503  502  0.00000000000E+00  0.00000000000E+00  0.15934737630E+03  0.15934737630E+03  0.00000000000E+00 0. -1.
         21   -1    0    0  501  503 -0.00000000000E+00 -0.00000000000E+00 -0.27662483150E+03  0.27662483150E+03  0.00000000000E+00 0. -1.
          6    1    1    2  501    0 -0.14037131342E+02  0.11012494053E+03 -0.14272860808E+02  0.20605159096E+03  0.17300000000E+03 0. -1.
         -6    1    1    2    0  502  0.14037131342E+02 -0.11012494053E+03 -0.10300459439E+03  0.22992061684E+03  0.17300000000E+03 0. -1.
<mgrwt>
<rscale>  2 0.20555667E+03</rscale>
<asrwt>0</asrwt>
<pdfrwt beam="1">  1       21 0.24514981E-01 0.20555667E+03</pdfrwt>
<pdfrwt beam="2">  1       21 0.42557666E-01 0.20555667E+03</pdfrwt>
<totfact> 0.83060580E+04</totfact>
</mgrwt>
</event>
<event>
 4    1  0.4429256E+000  0.1978005E+03  0.7546771E-02  0.1151608E+00
         21   -1    0    0  503  502  0.00000000000E+00  0.00000000000E+00  0.55597792843E+02  0.55597792843E+02  0.00000000000E+00 0.  1.
         21   -1    0    0  501  503 -0.00000000000E+00 -0.00000000000E+00 -0.10534007950E+04  0.10534007950E+04  0.00000000000E+00 0.  1.
          6    1    1    2  501    0 -0.91622470619E+02 -0.28308400872E+02 -0.81838078620E+03  0.84194545779E+03  0.17300000000E+03 0.  1.
         -6    1    1    2    0  502  0.91622470619E+02  0.28308400872E+02 -0.17942221592E+03  0.26705313001E+03  0.17300000000E+03 0.  1.
<mgrwt>
<rscale>  2 0.19780051E+03</rscale>
<asrwt>0</asrwt>
<pdfrwt beam="1">  1       21 0.85535072E-02 0.19780051E+03</pdfrwt>
<pdfrwt beam="2">  1       21 0.16206165E+00 0.19780051E+03</pdfrwt>
<totfact> 0.25874467E+04</totfact>
</mgrwt>
</event>
<event>
 4    1  0.4429256E+000  0.2223946E+03  0.7546771E-02  0.1132110E+00
         21   -1    0    0  503  502  0.00000000000E+00  0.00000000000E+00  0.26821002059E+03  0.26821002059E+03  0.00000000000E+00 0. -1.
         21   -1    0    0  501  503 -0.00000000000E+00 -0.00000000000E+00 -0.24862141493E+03  0.24862141493E+03  0.00000000000E+00 0.  1.
          6    1    1    2  501    0  0.78775480873E+02 -0.11543296533E+03 -0.12153804721E+03  0.25343804527E+03  0.17300000000E+03 0.  1.
         -6    1    1    2    0  502 -0.78775480873E+02  0.11543296533E+03  0.14112665288E+03  0.26339339024E+03  0.17300000000E+03 0. -1.
<mgrwt>
<rscale>  2 0.22239457E+03</rscale>
<asrwt>0</asrwt>
<pdfrwt beam="1">  1       21 0.41263080E-01 0.22239457E+03</pdfrwt>
<pdfrwt beam="2">  1       21 0.38249449E-01 0.22239457E+03</pdfrwt>
<totfact> 0.36723777E+04</totfact>
</mgrwt>
</event>
<event>
 4    1  0.4429256E+000  0.1841892E+03  0.7546771E-02  0.1163809E+00
         21   -1    0    0  501  502  0.00000000000E+00  0.00000000000E+00  0.34944856988E+03  0.34944856988E+03  0.00000000000E+00 0. -1.
         21   -1    0    0  502  503 -0.00000000000E+00 -0.00000000000E+00 -0.25328632215E+03  0.25328632215E+03  0.00000000000E+00 0. -1.
          6    1    1    2  501    0  0.48155929831E+02 -0.40959389202E+02  0.28474665301E+03  0.33912581963E+03  0.17300000000E+03 0. -1.
         -6    1    1    2    0  503 -0.48155929831E+02  0.40959389202E+02 -0.18858440528E+03  0.26360907241E+03  0.17300000000E+03 0. -1.
<mgrwt>
<rscale>  2 0.18418921E+03</rscale>
<asrwt>0</asrwt>
<pdfrwt beam="1">  1       21 0.53761319E-01 0.18418921E+03</pdfrwt>
<pdfrwt beam="2">  1       21 0.38967126E-01 0.18418921E+03</pdfrwt>
<totfact> 0.20885682E+04</totfact>
</mgrwt>
</event>
<event>
 4    1  0.4429256E+000  0.1942794E+03  0.7546771E-02  0.1154657E+00
         21   -1    0    0  501  502  0.00000000000E+00  0.00000000000E+00  0.24383476435E+04  0.24383476435E+04  0.00000000000E+00 0. -1.
         21   -1    0    0  502  503 -0.00000000000E+00 -0.00000000000E+00 -0.81294454216E+02  0.81294454216E+02  0.00000000000E+00 0. -1.
          6    1    1    2  501    0  0.87113010468E+02 -0.15060807447E+02  0.23120762620E+04  0.23202243741E+04  0.17300000000E+03 0. -1.
         -6    1    1    2    0  503 -0.87113010468E+02  0.15060807447E+02  0.44976927216E+02  0.19941772362E+03  0.17300000000E+03 0. -1.
<mgrwt>
<rscale>  2 0.19427945E+03</rscale>
<asrwt>0</asrwt>
<pdfrwt beam="1">  1       21 0.37513035E+00 0.19427945E+03</pdfrwt>
<pdfrwt beam="2">  1       21 0.12506841E-01 0.19427945E+03</pdfrwt>
<totfact> 0.67271259E+02</totfact>
</mgrwt>
</event>
<event>
 4    1  0.4429256E+000  0.2136841E+03  0.7546771E-02  0.1138681E+00
         21   -1    0    0  503  502  0.00000000000E+00  0.00000000000E+00  0.19232928534E+03  0.19232928534E+03  0.00000000000E+00 0. -1.
         21   -1    0    0  501  503 -0.00000000000E+00 -0.00000000000E+00 -0.28400805991E+03  0.28400805991E+03  0.00000000000E+00 0.  1.
          6    1    1    2  501    0  0.84860821355E+02 -0.92360966922E+02 -0.14231175573E+03  0.25673632979E+03  0.17300000000E+03 0.  1.
         -6    1    1    2    0  502 -0.84860821355E+02  0.92360966922E+02  0.50632981170E+02  0.21960101547E+03  0.17300000000E+03 0.  1.
<mgrwt>
<rscale>  2 0.21368413E+03</rscale>
<asrwt>0</asrwt>
<pdfrwt beam="1">  1       21 0.29589121E-01 0.21368413E+03</pdfrwt>
<pdfrwt beam="2">  1       21 0.43693548E-01 0.21368413E+03</pdfrwt>
<totfact> 0.54557899E+04</totfact>
</mgrwt>
</event>
<event>
 4    1  0.4429256E+000  0.1979945E+03  0.7546771E-02  0.1151442E+00
         21   -1    0    0  501  502  0.00000000000E+00  0.00000000000E+00  0.24039078096E+02  0.24039078096E+02  0.00000000000E+00 0. -1.
         21   -1    0    0  502  503 -0.00000000000E+00 -0.00000000000E+00 -0.16458992166E+04  0.16458992166E+04  0.00000000000E+00 0. -1.
          6    1    1    2  501    0  0.90653894512E+01  0.95867921193E+02 -0.73083670972E+03  0.75718170598E+03  0.17300000000E+03 0. -1.
         -6    1    1    2    0  503 -0.90653894512E+01 -0.95867921193E+02 -0.89102342879E+03  0.91275658872E+03  0.17300000000E+03 0. -1.
<mgrwt>
<rscale>  2 0.19799454E+03</rscale>
<asrwt>0</asrwt>
<pdfrwt beam="1">  1       21 0.36983192E-02 0.19799454E+03</pdfrwt>
<pdfrwt beam="2">  1       21 0.25321530E+00 0.19799454E+03</pdfrwt>
<totfact> 0.28317762E+04</totfact>
</mgrwt>
</event>
<event>
 4    1  0.4429256E+000  0.1904113E+03  0.7546771E-02  0.1158091E+00
         21   -1    0    0  501  502  0.00000000000E+00  0.00000000000E+00  0.21787568621E+03  0.21787568621E+03  0.00000000000E+00 0.  1.
         21   -1    0    0  502  503 -0.00000000000E+00 -0.00000000000E+00 -0.19533599449E+03  0.19533599449E+03  0.00000000000E+00 0.  1.
          6    1    1    2  501    0  0.70476514396E+02  0.36885287906E+02  0.90776505664E+02  0.21094273518E+03  0.17300000000E+03 0.  1.
         -6    1    1    2    0  503 -0.70476514396E+02 -0.36885287906E+02 -0.68236813941E+02  0.20226894552E+03  0.17300000000E+03 0.  1.
<mgrwt>
<rscale>  2 0.19041130E+03</rscale>
<asrwt>0</asrwt>
<pdfrwt beam="1">  1       21 0.33519336E-01 0.19041130E+03</pdfrwt>
<pdfrwt beam="2">  1       21 0.30051692E-01 0.19041130E+03</pdfrwt>
<totfact> 0.91125463E+04</totfact>
</mgrwt>
</event>
<event>
 4    1  0.4429256E+000  0.1739303E+03  0.7546771E-02  0.1173810E+00
         21   -1    0    0  503  502  0.00000000000E+00  0.00000000000E+00  0.17775600717E+03  0.17775600717E+03  0.00000000000E+00 0.  1.
         21   -1    0    0  501  503 -0.00000000000E+00 -0.00000000000E+00 -0.37651117654E+03  0.37651117654E+03  0.00000000000E+00 0.  1.
          6    1    1    2  501    0 -0.16856328744E+02  0.62149498518E+01 -0.30452936756E+03  0.35069915473E+03  0.17300000000E+03 0.  1.
         -6    1    1    2    0  502  0.16856328744E+02 -0.62149498518E+01  0.10577419819E+03  0.20356802898E+03  0.17300000000E+03 0.  1.
<mgrwt>
<rscale>  2 0.17393033E+03</rscale>
<asrwt>0</asrwt>
<pdfrwt beam="1">  1       21 0.27347078E-01 0.17393033E+03</pdfrwt>
<pdfrwt beam="2">  1       21 0.57924796E-01 0.17393033E+03</pdfrwt>
<totfact> 0.35979883E+04</totfact>
</mgrwt>
</event>
<event>
 4    1  0.4429256E+000  0.1899958E+03  0.7546771E-02  0.1158465E+00
         21   -1    0    0  501  502  0.00000000000E+00  0.00000000000E+00  0.40654313076E+03  0.40654313076E+03  0.00000000000E+00 0. -1.
         21   -1    0    0  502  503 -0.00000000000E+00 -0.00000000000E+00 -0.91799043886E+02  0.91799043886E+02  0.00000000000E+00 0. -1.
          6    1    1    2  501    0  0.76601507572E+02 -0.17366492564E+02  0.11228618284E+03  0.22069565669E+03  0.17300000000E+03 0. -1.
         -6    1    1    2    0  503 -0.76601507572E+02  0.17366492564E+02  0.20245790404E+03  0.27764651796E+03  0.17300000000E+03 0. -1.
<mgrwt>
<rscale>  2 0.18999575E+03</rscale>
<asrwt>0</asrwt>
<pdfrwt beam="1">  1       21 0.62545096E-01 0.18999575E+03</pdfrwt>
<pdfrwt beam="2">  1       21 0.14122930E-01 0.18999575E+03</pdfrwt>
<totfact> 0.10380184E+05</totfact>
</mgrwt>
</event>
<event>
 4    1  0.4429256E+000  0.2384303E+03  0.7546771E-02  0.1120843E+00
         21   -1    0    0  501  502  0.00000000000E+00  0.00000000000E+00  0.16322048256E+04  0.16322048256E+04  0.00000000000E+00 0.  1.
         21   -1    0    0  502  503 -0.00000000000E+00 -0.00000000000E+00 -0.76422210969E+02  0.76422210969E+02  0.00000000000E+00 0. -1.
          6    1    1    2  501    0  0.13327808231E+02 -0.16353103127E+03  0.14081453085E+04  0.14281884465E+04  0.17300000000E+03 0.  1.
         -6    1    1    2    0  503 -0.13327808231E+02  0.16353103127E+03  0.14763730606E+03  0.28043859007E+03  0.17300000000E+03 0. -1.
<mgrwt>
<rscale>  2 0.23843034E+03</rscale>
<asrwt>0</asrwt>
<pdfrwt beam="1">  1       21 0.25110841E+00 0.23843034E+03</pdfrwt>
<pdfrwt beam="2">  1       21 0.11757264E-01 0.23843034E+03</pdfrwt>
<totfact> 0.38120073E+03</totfact>
</mgrwt>
</event>
<event>
 4    1  0.4429256E+000  0.1853934E+03  0.7546771E-02  0.1162683E+00
         21   -1    0    0  503  502  0.00000000000E+00  0.00000000000E+00  0.88179084999E+03  0.88179084999E+03  0.00000000000E+00 0. -1.
         21   -1    0    0  501  503 -0.00000000000E+00 -0.00000000000E+00 -0.39013108219E+02  0.39013108219E+02  0.00000000000E+00 0. -1.
          6    1    1    2  501    0  0.64461208655E+02  0.16925129183E+02  0.40763645628E+03  0.44781490362E+03  0.17300000000E+03 0.  1.
         -6    1    1    2    0  502 -0.64461208655E+02 -0.16925129183E+02  0.43514128550E+03  0.47298905459E+03  0.17300000000E+03 0.  1.
<mgrwt>
<rscale>  2 0.18539339E+03</rscale>
<asrwt>0</asrwt>
<pdfrwt beam="1">  1       21 0.13566012E+00 0.18539339E+03</pdfrwt>
<pdfrwt beam="2">  1       21 0.60020173E-02 0.18539339E+03</pdfrwt>
<totfact> 0.76727940E+04</totfact>
</mgrwt>
</event>
<event>
 4    1  0.4429256E+000  0.2406294E+03  0.7546771E-02  0.1119374E+00
         21   -1    0    0  501  502  0.00000000000E+00  0.00000000000E+00  0.47686506132E+03  0.47686506132E+03  0.00000000000E+00 0.  1.
         21   -1    0    0  502  503 -0.00000000000E+00 -0.00000000000E+00 -0.13032561521E+03  0.13032561521E+03  0.00000000000E+00 0. -1.
          6    1    1    2  501    0  0.52012272112E+01 -0.16717189758E+03  0.25261724966E+03  0.34888102690E+03  0.17300000000E+03 0. -1.
         -6    1    1    2    0  503 -0.52012272112E+01  0.16717189758E+03  0.93922196451E+02  0.25830964963E+03  0.17300000000E+03 0.  1.
<mgrwt>
<rscale>  2 0.24062937E+03</rscale>
<asrwt>0</asrwt>
<pdfrwt beam="1">  1       21 0.73363855E-01 0.24062937E+03</pdfrwt>
<pdfrwt beam="2">  1       21 0.20050095E-01 0.24062937E+03</pdfrwt>
<totfact> 0.37472934E+04</totfact>
</mgrwt>
</event>
<event>
 4    1  0.4429256E+000  0.1998257E+03  0.7546771E-02  0.1149886E+00
         21   -1    0    0  503  502  0.00000000000E+00  0.00000000000E+00  0.66480411357E+02  0.66480411357E+02  0.00000000000E+00 0. -1.
         21   -1    0    0  501  503 -0.00000000000E+00 -0.00000000000E+00 -0.62856466891E+03  0.62856466891E+03  0.00000000000E+00 0. -1.
          6    1    1    2  501    0 -0.75380788907E+02  0.65719436721E+02 -0.35430078000E+03  0.40676694852E+03  0.17300000000E+03 0. -1.
         -6    1    1    2    0  502  0.75380788907E+02 -0.65719436721E+02 -0.20778347755E+03  0.28827813174E+03  0.17300000000E+03 0. -1.
<mgrwt>
<rscale>  2 0.19982569E+03</rscale>
<asrwt>0</asrwt>
<pdfrwt beam="1">  1       21 0.10227755E-01 0.19982569E+03</pdfrwt>
<pdfrwt beam="2">  1       21 0.96702262E-01 0.19982569E+03</pdfrwt>
<totfact> 0.69052242E+04</totfact>
</mgrwt>
</event>
<event>
 4    1  0.4429256E+000  0.2356175E+03  0.7546771E-02  0.1122747E+00
         21   -1    0    0  503  502  0.00000000000E+00  0.00000000000E+00  0.53805645001E+03  0.53805645001E+03  0.00000000000E+00 0. -1.
         21   -1    0    0  501  503 -0.00000000000E+00 -0.00000000000E+00 -0.10333797608E+03  0.10333797608E+03  0.00000000000E+00 0.  1.
          6    1    1    2  501    0  0.13387952745E+03 -0.87537901699E+02  0.20474291048E+03  0.31214623415E+03  0.17300000000E+03 0.  1.
         -6    1    1    2    0  502 -0.13387952745E+03  0.87537901699E+02  0.22997556345E+03  0.32924819193E+03  0.17300000000E+03 0. -1.
<mgrwt>
<rscale>  2 0.23561751E+03</rscale>
<asrwt>0</asrwt>
<pdfrwt beam="1">  1       21 0.82777914E-01 0.23561751E+03</pdfrwt>
<pdfrwt beam="2">  1       21 0.15898150E-01 0.23561751E+03</pdfrwt>
<totfact> 0.43979170E+04</totfact>
</mgrwt>
</event>
<event>
 4    1  0.4429256E+000  0.1775880E+03  0.7546771E-02  0.1170158E+00
         21   -1    0    0  503  502  0.00000000000E+00  0.00000000000E+00  0.10994817158E+03  0.10994817158E+03  0.00000000000E+00 0.  1.
         21   -1    0    0  501  503 -0.00000000000E+00 -0.00000000000E+00 -0.34020184221E+03  0.34020184221E+03  0.00000000000E+00 0.  1.
          6    1    1    2  501    0  0.36800183441E+02  0.15944944624E+02 -0.20426748272E+03  0.27067083193E+03  0.17300000000E+03 0. -1.
         -6    1    1    2    0  502 -0.36800183441E+02 -0.15944944624E+02 -0.25986187909E+02  0.17947918186E+03  0.17300000000E+03 0. -1.
<mgrwt>
<rscale>  2 0.17758799E+03</rscale>
<asrwt>0</asrwt>
<pdfrwt beam="1">  1       21 0.16915104E-01 0.17758799E+03</pdfrwt>
<pdfrwt beam="2">  1       21 0.52338744E-01 0.17758799E+03</pdfrwt>
<totfact> 0.10963834E+05</totfact>
</mgrwt>
</event>
<event>
 4    1  0.4429256E+000  0.2735343E+03  0.7546771E-02  0.1099274E+00
         21   -1    0    0  503  502  0.00000000000E+00  0.00000000000E+00  0.90855172720E+03  0.90855172720E+03  0.00000000000E+00 0.  1.
         21   -1    0    0  501  503 -0.00000000000E+00 -0.00000000000E+00 -0.16317278771E+03  0.16317278771E+03  0.00000000000E+00 0. -1.
          6    1    1    2  501    0  0.20061068774E+03 -0.68171509023E+02 -0.44404489991E+01  0.27357032052E+03  0.17300000000E+03 0. -1.
         -6    1    1    2    0  502 -0.20061068774E+03  0.68171509023E+02  0.74981938848E+03  0.79815419439E+03  0.17300000000E+03 0.  1.
<mgrwt>
<rscale>  2 0.27353428E+03</rscale>
<asrwt>0</asrwt>
<pdfrwt beam="1">  1       21 0.13977719E+00 0.27353428E+03</pdfrwt>
<pdfrwt beam="2">  1       21 0.25103506E-01 0.27353428E+03</pdfrwt>
<totfact> 0.50992738E+03</totfact>
</mgrwt>
</event>
<event>
 4    1  0.4429256E+000  0.2076369E+03  0.7546771E-02  0.1143451E+00
         21   -1    0    0  503  502  0.00000000000E+00  0.00000000000E+00  0.28625960311E+02  0.28625960311E+02  0.00000000000E+00 0. -1.
         21   -1    0    0  501  503 -0.00000000000E+00 -0.00000000000E+00 -0.19163078938E+04  0.19163078938E+04  0.00000000000E+00 0. -1.
          6    1    1    2  501    0 -0.40911768548E+02  0.10728617982E+03 -0.13937790347E+04  0.14091604220E+04  0.17300000000E+03 0. -1.
         -6    1    1    2    0  502  0.40911768548E+02 -0.10728617982E+03 -0.49390289873E+03  0.53577343211E+03  0.17300000000E+03 0. -1.
<mgrwt>
<rscale>  2 0.20763694E+03</rscale>
<asrwt>0</asrwt>
<pdfrwt beam="1">  1       21 0.44039923E-02 0.20763694E+03</pdfrwt>
<pdfrwt beam="2">  1       21 0.29481671E+00 0.20763694E+03</pdfrwt>
<totfact> 0.12004382E+04</totfact>
</mgrwt>
</event>
<event>
 4    1  0.4429256E+000  0.1841758E+03  0.7546771E-02  0.1163822E+00
         21   -1    0    0  501  502  0.00000000000E+00  0.00000000000E+00  0.93545816394E+02  0.93545816394E+02  0.00000000000E+00 0.  1.
         21   -1    0    0  502  503 -0.00000000000E+00 -0.00000000000E+00 -0.37094397641E+03  0.37094397641E+03  0.00000000000E+00 0.  1.
          6    1    1    2  501    0 -0.53053231253E+02 -0.34308752516E+02 -0.10388989813E+03  0.21145648909E+03  0.17300000000E+03 0. -1.
         -6    1    1    2    0  503  0.53053231253E+02  0.34308752516E+02 -0.17350826189E+03  0.25303330371E+03  0.17300000000E+03 0. -1.
<mgrwt>
<rscale>  2 0.18417583E+03</rscale>
<asrwt>0</asrwt>
<pdfrwt beam="1">  1       21 0.14391664E-01 0.18417583E+03</pdfrwt>
<pdfrwt beam="2">  1       21 0.57068304E-01 0.18417583E+03</pdfrwt>
<totfact> 0.12235194E+05</totfact>
</mgrwt>
</event>
<event>
 4    1  0.4429256E+000  0.2404171E+03  0.7546771E-02  0.1119515E+00
         21   -1    0    0  501  502  0.00000000000E+00  0.00000000000E+00  0.33167584231E+03  0.33167584231E+03  0.00000000000E+00 0.  1.
         21   -1    0    0  502  503 -0.00000000000E+00 -0.00000000000E+00 -0.17487791150E+03  0.17487791150E+03  0.00000000000E+00 0.  1.
          6    1    1    2  501    0  0.15350016839E+03 -0.65643520023E+02  0.93360700419E+02  0.25790811115E+03  0.17300000000E+03 0.  1.
         -6    1    1    2    0  503 -0.15350016839E+03  0.65643520023E+02  0.63437230394E+02  0.24864564266E+03  0.17300000000E+03 0.  1.
<mgrwt>
<rscale>  2 0.24041708E+03</rscale>
<asrwt>0</asrwt>
<pdfrwt beam="1">  1       21 0.51027052E-01 0.24041708E+03</pdfrwt>
<pdfrwt beam="2">  1       21 0.26904294E-01 0.24041708E+03</pdfrwt>
<totfact> 0.47009431E+04</totfact>
</mgrwt>
</event>
<event>
 4    1  0.4429256E+000  0.1899079E+03  0.7546771E-02  0.1158544E+00
         21   -1    0    0  501  502  0.00000000000E+00  0.00000000000E+00  0.64788862568E+02  0.64788862568E+02  0.00000000000E+00 0. -1.
         21   -1    0    0  502  503 -0.00000000000E+00 -0.00000000000E+00 -0.11432373625E+04  0.11432373625E+04  0.00000000000E+00 0. -1.
          6    1    1    2  501    0  0.41593115326E+02 -0.66377820627E+02 -0.10656807922E+03  0.21776537333E+03  0.17300000000E+03 0. -1.
         -6    1    1    2    0  503 -0.41593115326E+02  0.66377820627E+02 -0.97188042068E+03  0.99026085171E+03  0.17300000000E+03 0. -1.
<mgrwt>
<rscale>  2 0.18990788E+03</rscale>
<asrwt>0</asrwt>
<pdfrwt beam="1">  1       21 0.99675170E-02 0.18990788E+03</pdfrwt>
<pdfrwt beam="2">  1       21 0.17588268E+00 0.18990788E+03</pdfrwt>
<totfact> 0.15879728E+04</totfact>
</mgrwt>
</event>
<event>
 4    1  0.4429256E+000  0.1822838E+03  0.7546771E-02  0.1165611E+00
         21   -1    0    0  501  502  0.00000000000E+00  0.00000000000E+00  0.38237905783E+03  0.38237905783E+03  0.00000000000E+00 0. -1.
         21   -1    0    0  502  503 -0.00000000000E+00 -0.00000000000E+00 -0.10830871522E+03  0.10830871522E+03  0.00000000000E+00 0. -1.
          6    1    1    2  501    0 -0.44331025064E+02 -0.36512320587E+02  0.27947751666E+02  0.18441384482E+03  0.17300000000E+03 0. -1.
         -6    1    1    2    0  503  0.44331025064E+02  0.36512320587E+02  0.24612259095E+03  0.30627392823E+03  0.17300000000E+03 0. -1.
<mgrwt>
<rscale>  2 0.18228382E+03</rscale>
<asrwt>0</asrwt>
<pdfrwt beam="1">  1       21 0.58827547E-01 0.18228382E+03</pdfrwt>
<pdfrwt beam="2">  1       21 0.16662879E-01 0.18228382E+03</pdfrwt>
<totfact> 0.87855574E+04</totfact>
</mgrwt>
</event>
<event>
 4    1  0.4429256E+000  0.2464147E+03  0.7546771E-02  0.1115592E+00
         21   -1    0    0  503  502  0.00000000000E+00  0.00000000000E+00  0.44651311208E+02  0.44651311208E+02  0.00000000000E+00 0. -1.
         21   -1    0    0  501  503 -0.00000000000E+00 -0.00000000000E+00 -0.14216744373E+04  0.14216744373E+04  0.00000000000E+00 0.  1.
          6    1    1    2  501    0  0.76873051697E+02  0.15773951194E+03 -0.53565248303E+03  0.58961326501E+03  0.17300000000E+03 0. -1.
         -6    1    1    2    0  502 -0.76873051697E+02 -0.15773951194E+03 -0.84137064302E+03  0.87671248345E+03  0.17300000000E+03 0.  1.
<mgrwt>
<rscale>  2 0.24641473E+03</rscale>
<asrwt>0</asrwt>
<pdfrwt beam="1">  1       21 0.68694321E-02 0.24641473E+03</pdfrwt>
<pdfrwt beam="2">  1       21 0.21871916E+00 0.24641473E+03</pdfrwt>
<totfact> 0.15372466E+04</totfact>
</mgrwt>
</event>
<event>
 4    1  0.4429256E+000  0.2013820E+03  0.7546771E-02  0.1148578E+00
         21   -1    0    0  501  502  0.00000000000E+00  0.00000000000E+00  0.69640692460E+03  0.69640692460E+03  0.00000000000E+00 0. -1.
         21   -1    0    0  502  503 -0.00000000000E+00 -0.00000000000E+00 -0.10544193788E+03  0.10544193788E+03  0.00000000000E+00 0. -1.
          6    1    1    2  501    0 -0.53411647699E+02 -0.88164081066E+02  0.56374647535E+03  0.59863578056E+03  0.17300000000E+03 0. -1.
         -6    1    1    2    0  503  0.53411647699E+02  0.88164081066E+02  0.27218511375E+02  0.20321308192E+03  0.17300000000E+03 0. -1.
<mgrwt>
<rscale>  2 0.20138200E+03</rscale>
<asrwt>0</asrwt>
<pdfrwt beam="1">  1       21 0.10713952E+00 0.20138200E+03</pdfrwt>
<pdfrwt beam="2">  1       21 0.16221837E-01 0.20138200E+03</pdfrwt>
<totfact> 0.23538764E+04</totfact>
</mgrwt>
</event>
<event>
 4    1  0.4429256E+000  0.1821481E+03  0.7546771E-02  0.1165740E+00
         21   -1    0    0  503  502  0.00000000000E+00  0.00000000000E+00  0.11539203826E+03  0.11539203826E+03  0.00000000000E+00 0.  1.
         21   -1    0    0  501  503 -0.00000000000E+00 -0.00000000000E+00 -0.67761885978E+03  0.67761885978E+03  0.00000000000E+00 0.  1.
          6    1    1    2  501    0 -0.38971260308E+02 -0.41595381251E+02 -0.58195768556E+03  0.60979724717E+03  0.17300000000E+03 0.  1.
         -6    1    1    2    0  502  0.38971260308E+02  0.41595381251E+02  0.19730864041E+02  0.18321365088E+03  0.17300000000E+03 0.  1.
<mgrwt>
<rscale>  2 0.18214811E+03</rscale>
<asrwt>0</asrwt>
<pdfrwt beam="1">  1       21 0.17752621E-01 0.18214811E+03</pdfrwt>
<pdfrwt beam="2">  1       21 0.10424906E+00 0.18214811E+03</pdfrwt>
<totfact> 0.21547080E+04</totfact>
</mgrwt>
</event>
<event>
 4    1  0.4429256E+000  0.1838294E+03  0.7546771E-02  0.1164148E+00
         21   -1    0    0  503  502  0.00000000000E+00  0.00000000000E+00  0.55040989608E+02  0.55040989608E+02  0.00000000000E+00 0.  1.
         21   -1    0    0  501  503 -0.00000000000E+00 -0.00000000000E+00 -0.64893812195E+03  0.64893812195E+03  0.00000000000E+00 0.  1.
          6    1    1    2  501    0 -0.44238848990E+02  0.43671180958E+02 -0.37866221195E+03  0.42092554991E+03  0.17300000000E+03 0.  1.
         -6    1    1    2    0  502  0.44238848990E+02 -0.43671180958E+02 -0.21523492039E+03  0.28305356165E+03  0.17300000000E+03 0.  1.
<mgrwt>
<rscale>  2 0.18382940E+03</rscale>
<asrwt>0</asrwt>
<pdfrwt beam="1">  1       21 0.84678446E-02 0.18382940E+03</pdfrwt>
<pdfrwt beam="2">  1       21 0.99836633E-01 0.18382940E+03</pdfrwt>
<totfact> 0.89903291E+04</totfact>
</mgrwt>
</event>
<event>
 4    1  0.4429256E+000  0.3179507E+03  0.7546771E-02  0.1076596E+00
         21   -1    0    0  501  502  0.00000000000E+00  0.00000000000E+00  0.79339383942E+03  0.79339383942E+03  0.00000000000E+00 0. -1.
         21   -1    0    0  502  503 -0.00000000000E+00 -0.00000000000E+00 -0.20069058545E+03  0.20069058545E+03  0.00000000000E+00 0. -1.
          6    1    1    2  501    0 -0.18045712840E+03 -0.19646593375E+03 -0.39796749585E+01  0.31797559045E+03  0.17300000000E+03 0. -1.
         -6    1    1    2    0  503  0.18045712840E+03  0.19646593375E+03  0.59668292893E+03  0.67610883442E+03  0.17300000000E+03 0. -1.
<mgrwt>
<rscale>  2 0.31795069E+03</rscale>
<asrwt>0</asrwt>
<pdfrwt beam="1">  1       21 0.12206059E+00 0.31795069E+03</pdfrwt>
<pdfrwt beam="2">  1       21 0.30875475E-01 0.31795069E+03</pdfrwt>
<totfact> 0.47062182E+03</totfact>
</mgrwt>
</event>
<event>
 4    1  0.4429256E+000  0.1828190E+03  0.7546771E-02  0.1165102E+00
         21   -1    0    0  503  502  0.00000000000E+00  0.00000000000E+00  0.33714419033E+02  0.33714419033E+02  0.00000000000E+00 0. -1.
         21   -1    0    0  501  503 -0.00000000000E+00 -0.00000000000E+00 -0.10515365706E+04  0.10515365706E+04  0.00000000000E+00 0. -1.
          6    1    1    2  501    0  0.44777995711E+02  0.38583711034E+02 -0.63873050417E+03  0.66437897966E+03  0.17300000000E+03 0. -1.
         -6    1    1    2    0  502 -0.44777995711E+02 -0.38583711034E+02 -0.37909164745E+03  0.42087201002E+03  0.17300000000E+03 0. -1.
<mgrwt>
<rscale>  2 0.18281896E+03</rscale>
<asrwt>0</asrwt>
<pdfrwt beam="1">  1       21 0.51868336E-02 0.18281896E+03</pdfrwt>
<pdfrwt beam="2">  1       21 0.16177486E+00 0.18281896E+03</pdfrwt>
<totfact> 0.62085496E+04</totfact>
</mgrwt>
</event>
<event>
 4    1  0.4429256E+000  0.1957833E+03  0.7546771E-02  0.1153346E+00
         21   -1    0    0  501  502  0.00000000000E+00  0.00000000000E+00  0.44710155010E+02  0.44710155010E+02  0.00000000000E+00 0. -1.
         21   -1    0    0  502  503 -0.00000000000E+00 -0.00000000000E+00 -0.86860022125E+03  0.86860022125E+03  0.00000000000E+00 0.  1.
          6    1    1    2  501    0 -0.58038687722E+02 -0.70947986561E+02 -0.46397491526E+03  0.50359093326E+03  0.17300000000E+03 0.  1.
         -6    1    1    2    0  503  0.58038687722E+02  0.70947986561E+02 -0.35991515099E+03  0.40971944301E+03  0.17300000000E+03 0.  1.
<mgrwt>
<rscale>  2 0.19578331E+03</rscale>
<asrwt>0</asrwt>
<pdfrwt beam="1">  1       21 0.68784862E-02 0.19578331E+03</pdfrwt>
<pdfrwt beam="2">  1       21 0.13363079E+00 0.19578331E+03</pdfrwt>
<totfact> 0.62752874E+04</totfact>
</mgrwt>
</event>
<event>
 4    1  0.4429256E+000  0.1913328E+03  0.7546771E-02  0.1157265E+00
         21   -1    0    0  501  502  0.00000000000E+00  0.00000000000E+00  0.59151045286E+02  0.59151045286E+02  0.00000000000E+00 0. -1.
         21   -1    0    0  502  503 -0.00000000000E+00 -0.00000000000E+00 -0.63795595103E+03  0.63795595103E+03  0.00000000000E+00 0.  1.
          6    1    1    2  501    0  0.44947911555E+00  0.81725337999E+02 -0.22915250973E+03  0.29852823253E+03  0.17300000000E+03 0.  1.
         -6    1    1    2    0  503 -0.44947911555E+00 -0.81725337999E+02 -0.34965239602E+03  0.39857876379E+03  0.17300000000E+03 0.  1.
<mgrwt>
<rscale>  2 0.19133278E+03</rscale>
<asrwt>0</asrwt>
<pdfrwt beam="1">  1       21 0.91001610E-02 0.19133278E+03</pdfrwt>
<pdfrwt beam="2">  1       21 0.98147068E-01 0.19133278E+03</pdfrwt>
<totfact> 0.82255542E+04</totfact>
</mgrwt>
</event>
<event>
 4    1  0.4429256E+000  0.1905087E+03  0.7546771E-02  0.1158003E+00
         21   -1    0    0  501  502  0.00000000000E+00  0.00000000000E+00  0.43714846098E+02  0.43714846098E+02  0.00000000000E+00 0. -1.
         21   -1    0    0  502  503 -0.00000000000E+00 -0.00000000000E+00 -0.92955883906E+03  0.92955883906E+03  0.00000000000E+00 0.  1.
          6    1    1    2  501    0 -0.56511159109E+02  0.56312264226E+02 -0.28384992217E+03  0.34185429721E+03  0.17300000000E+03 0. -1.
         -6    1    1    2    0  503  0.56511159109E+02 -0.56312264226E+02 -0.60199407079E+03  0.63141938794E+03  0.17300000000E+03 0.  1.
<mgrwt>
<rscale>  2 0.19050875E+03</rscale>
<asrwt>0</asrwt>
<pdfrwt beam="1">  1       21 0.67253619E-02 0.19050875E+03</pdfrwt>
<pdfrwt beam="2">  1       21 0.14300903E+00 0.19050875E+03</pdfrwt>
<totfact> 0.54951018E+04</totfact>
</mgrwt>
</event>
<event>
 4    1  0.4429256E+000  0.1744501E+03  0.7546771E-02  0.1173285E+00
         21   -1    0    0  501  502  0.00000000000E+00  0.00000000000E+00  0.13745150765E+03  0.13745150765E+03  0.00000000000E+00 0.  1.
         21   -1    0    0  502  503 -0.00000000000E+00 -0.00000000000E+00 -0.22152536663E+03  0.22152536663E+03  0.00000000000E+00 0.  1.
          6    1    1    2  501    0  0.19917287990E+02 -0.10351566473E+02 -0.46169622989E+02  0.18045633094E+03  0.17300000000E+03 0.  1.
         -6    1    1    2    0  503 -0.19917287990E+02  0.10351566473E+02 -0.37904235988E+02  0.17852054334E+03  0.17300000000E+03 0.  1.
<mgrwt>
<rscale>  2 0.17445015E+03</rscale>
<asrwt>0</asrwt>
<pdfrwt beam="1">  1       21 0.21146386E-01 0.17445015E+03</pdfrwt>
<pdfrwt beam="2">  1       21 0.34080825E-01 0.17445015E+03</pdfrwt>
<totfact> 0.17346620E+05</totfact>
</mgrwt>
</event>
<event>
 4    1  0.4429256E+000  0.1838390E+03  0.7546771E-02  0.1164139E+00
         21   -1    0    0  501  502  0.00000000000E+00  0.00000000000E+00  0.69730393284E+03  0.69730393284E+03  0.00000000000E+00 0. -1.
         21   -1    0    0  502  503 -0.00000000000E+00 -0.00000000000E+00 -0.18202424133E+03  0.18202424133E+03  0.00000000000E+00 0. -1.
          6    1    1    2  501    0 -0.60031200680E+02 -0.16248524535E+02  0.63424725716E+03  0.66035319551E+03  0.17300000000E+03 0. -1.
         -6    1    1    2    0  503  0.60031200680E+02  0.16248524535E+02 -0.11896756564E+03  0.21897497866E+03  0.17300000000E+03 0. -1.
<mgrwt>
<rscale>  2 0.18383895E+03</rscale>
<asrwt>0</asrwt>
<pdfrwt beam="1">  1       21 0.10727753E+00 0.18383895E+03</pdfrwt>
<pdfrwt beam="2">  1       21 0.28003730E-01 0.18383895E+03</pdfrwt>
<totfact> 0.85062948E+03</totfact>
</mgrwt>
</event>
<event>
 4    1  0.4429256E+000  0.3059108E+03  0.7546771E-02  0.1082323E+00
         21   -1    0    0  501  502  0.00000000000E+00  0.00000000000E+00  0.40545125421E+03  0.40545125421E+03  0.00000000000E+00 0. -1.
         21   -1    0    0  502  503 -0.00000000000E+00 -0.00000000000E+00 -0.38196327032E+03  0.38196327032E+03  0.00000000000E+00 0. -1.
          6    1    1    2  501    0  0.90530042741E+02  0.23549249412E+03  0.25941446563E+03  0.40109508649E+03  0.17300000000E+03 0. -1.
         -6    1    1    2    0  503 -0.90530042741E+02 -0.23549249412E+03 -0.23592648174E+03  0.38631943805E+03  0.17300000000E+03 0. -1.
<mgrwt>
<rscale>  2 0.30591078E+03</rscale>
<asrwt>0</asrwt>
<pdfrwt beam="1">  1       21 0.62377116E-01 0.30591078E+03</pdfrwt>
<pdfrwt beam="2">  1       21 0.58763580E-01 0.30591078E+03</pdfrwt>
<totfact> 0.60284907E+03</totfact>
</mgrwt>
</event>
<event>
 4    1  0.4429256E+000  0.1885774E+03  0.7546771E-02  0.1159751E+00
         21   -1    0    0  501  502  0.00000000000E+00  0.00000000000E+00  0.16636011425E+03  0.16636011425E+03  0.00000000000E+00 0.  1.
         21   -1    0    0  502  503 -0.00000000000E+00 -0.00000000000E+00 -0.21571377002E+03  0.21571377002E+03  0.00000000000E+00 0.  1.
          6    1    1    2  501    0  0.43239568372E+02 -0.61341348604E+02 -0.65038627605E+01  0.18868948448E+03  0.17300000000E+03 0. -1.
         -6    1    1    2    0  503 -0.43239568372E+02  0.61341348604E+02 -0.42849793008E+02  0.19338439979E+03  0.17300000000E+03 0. -1.
<mgrwt>
<rscale>  2 0.18857736E+03</rscale>
<asrwt>0</asrwt>
<pdfrwt beam="1">  1       21 0.25593864E-01 0.18857736E+03</pdfrwt>
<pdfrwt beam="2">  1       21 0.33186734E-01 0.18857736E+03</pdfrwt>
<totfact> 0.12679263E+05</totfact>
</mgrwt>
</event>
<event>
 4    1  0.4429256E+000  0.2112044E+03  0.7546771E-02  0.1140616E+00
         21   -1    0    0  501  502  0.00000000000E+00  0.00000000000E+00  0.35996366255E+03  0.35996366255E+03  0.00000000000E+00 0.  1.
         21   -1    0    0  502  503 -0.00000000000E+00 -0.00000000000E+00 -0.13775627207E+03  0.13775627207E+03  0.00000000000E+00 0. -1.
          6    1    1    2  501    0  0.88717337511E+02  0.82507763924E+02  0.18996840944E+03  0.28406917057E+03  0.17300000000E+03 0.  1.
         -6    1    1    2    0  503 -0.88717337511E+02 -0.82507763924E+02  0.32238981039E+02  0.21365076405E+03  0.17300000000E+03 0.  1.
<mgrwt>
<rscale>  2 0.21120440E+03</rscale>
<asrwt>0</asrwt>
<pdfrwt beam="1">  1       21 0.55379025E-01 0.21120440E+03</pdfrwt>
<pdfrwt beam="2">  1       21 0.21193273E-01 0.21120440E+03</pdfrwt>
<totfact> 0.63125145E+04</totfact>
</mgrwt>
</event>
<event>
 4    1  0.4429256E+000  0.2757902E+03  0.7546771E-02  0.1098011E+00
         21   -1    0    0  503  502  0.00000000000E+00  0.00000000000E+00  0.25640929614E+03  0.25640929614E+03  0.00000000000E+00 0. -1.
         21   -1    0    0  501  503 -0.00000000000E+00 -0.00000000000E+00 -0.31544804530E+03  0.31544804530E+03  0.00000000000E+00 0. -1.
          6    1    1    2  501    0 -0.20856951911E+03 -0.51283584594E+02 -0.99344348994E+02  0.29313742516E+03  0.17300000000E+03 0. -1.
         -6    1    1    2    0  502  0.20856951911E+03  0.51283584594E+02  0.40305599836E+02  0.27871991628E+03  0.17300000000E+03 0. -1.
<mgrwt>
<rscale>  2 0.27579023E+03</rscale>
<asrwt>0</asrwt>
<pdfrwt beam="1">  1       21 0.39447584E-01 0.27579023E+03</pdfrwt>
<pdfrwt beam="2">  1       21 0.48530468E-01 0.27579023E+03</pdfrwt>
<totfact> 0.24100333E+04</totfact>
</mgrwt>
</event>
<event>
 4    1  0.4429256E+000  0.2230870E+03  0.7546771E-02  0.1131602E+00
         21   -1    0    0  503  502  0.00000000000E+00  0.00000000000E+00  0.70200125329E+03  0.70200125329E+03  0.00000000000E+00 0.  1.
         21   -1    0    0  501  503 -0.00000000000E+00 -0.00000000000E+00 -0.10907085358E+03  0.10907085358E+03  0.00000000000E+00 0.  1.
          6    1    1    2  501    0 -0.30528283248E+02  0.13750204212E+03  0.56540874232E+02  0.23014051821E+03  0.17300000000E+03 0.  1.
         -6    1    1    2    0  502  0.30528283248E+02 -0.13750204212E+03  0.53638952547E+03  0.58093158866E+03  0.17300000000E+03 0.  1.
<mgrwt>
<rscale>  2 0.22308695E+03</rscale>
<asrwt>0</asrwt>
<pdfrwt beam="1">  1       21 0.10800019E+00 0.22308695E+03</pdfrwt>
<pdfrwt beam="2">  1       21 0.16780132E-01 0.22308695E+03</pdfrwt>
<totfact> 0.21421788E+04</totfact>
</mgrwt>
</event>
<event>
 4    1  0.4429256E+000  0.2714823E+03  0.7546771E-02  0.1100434E+00
         21   -1    0    0  501  502  0.00000000000E+00  0.00000000000E+00  0.34860149074E+03  0.34860149074E+03  0.00000000000E+00 0. -1.
         21   -1    0    0  502  503 -0.00000000000E+00 -0.00000000000E+00 -0.24376082662E+03  0.24376082662E+03  0.00000000000E+00 0.  1.
          6    1    1    2  501    0  0.86120517837E+02 -0.19067484136E+03  0.16029656340E+03  0.31527389197E+03  0.17300000000E+03 0. -1.
         -6    1    1    2    0  503 -0.86120517837E+02  0.19067484136E+03 -0.55455899282E+02  0.27708842539E+03  0.17300000000E+03 0. -1.
<mgrwt>
<rscale>  2 0.27148230E+03</rscale>
<asrwt>0</asrwt>
<pdfrwt beam="1">  1       21 0.53630999E-01 0.27148230E+03</pdfrwt>
<pdfrwt beam="2">  1       21 0.37501665E-01 0.27148230E+03</pdfrwt>
<totfact> 0.21665306E+04</totfact>
</mgrwt>
</event>
<event>
 4    1  0.4429256E+000  0.1856905E+03  0.7546771E-02  0.1162407E+00
         21   -1    0    0  501  502  0.00000000000E+00  0.00000000000E+00  0.14616648242E+04  0.14616648242E+04  0.00000000000E+00 0.  1.
         21   -1    0    0  502  503 -0.00000000000E+00 -0.00000000000E+00 -0.30980257616E+02  0.30980257616E+02  0.00000000000E+00 0.  1.
          6    1    1    2  501    0 -0.35320782909E+01  0.67375845447E+02  0.10798507875E+04  0.10957000974E+04  0.17300000000E+03 0.  1.
         -6    1    1    2    0  503  0.35320782909E+01 -0.67375845447E+02  0.35083377910E+03  0.39694498445E+03  0.17300000000E+03 0.  1.
<mgrwt>
<rscale>  2 0.18569055E+03</rscale>
<asrwt>0</asrwt>
<pdfrwt beam="1">  1       21 0.22487146E+00 0.18569055E+03</pdfrwt>
<pdfrwt beam="2">  1       21 0.47661946E-02 0.18569055E+03</pdfrwt>
<totfact> 0.27552175E+04</totfact>
</mgrwt>
</event>
<event>
 4    1  0.4429256E+000  0.2928956E+03  0.7546771E-02  0.1088847E+00
         21   -1    0    0  503  502  0.00000000000E+00  0.00000000000E+00  0.10191572627E+04  0.10191572627E+04  0.00000000000E+00 0. -1.
         21   -1    0    0  501  503 -0.00000000000E+00 -0.00000000000E+00 -0.28650887557E+03  0.28650887557E+03  0.00000000000E+00 0.  1.
          6    1    1    2  501    0  0.12783263846E+03 -0.19879050021E+03 -0.18229008485E+03  0.34498916138E+03  0.17300000000E+03 0.  1.
         -6    1    1    2    0  502 -0.12783263846E+03  0.19879050021E+03  0.91493847202E+03  0.96067697694E+03  0.17300000000E+03 0. -1.
<mgrwt>
<rscale>  2 0.29289562E+03</rscale>
<asrwt>0</asrwt>
<pdfrwt beam="1">  1       21 0.15679342E+00 0.29289562E+03</pdfrwt>
<pdfrwt beam="2">  1       21 0.44078289E-01 0.29289562E+03</pdfrwt>
<totfact> 0.12079149E+03</totfact>
</mgrwt>
</event>
<event>
 4    1  0.4429256E+000  0.2100463E+03  0.7546771E-02  0.1141529E+00
         21   -1    0    0  501  502  0.00000000000E+00  0.00000000000E+00  0.35606220837E+03  0.35606220837E+03  0.00000000000E+00 0. -1.
         21   -1    0    0  502  503 -0.00000000000E+00 -0.00000000000E+00 -0.13983337375E+03  0.13983337375E+03  0.00000000000E+00 0. -1.
          6    1    1    2  501    0 -0.94987470293E+02 -0.71887467923E+02  0.19178669432E+03  0.28443200185E+03  0.17300000000E+03 0. -1.
         -6    1    1    2    0  503  0.94987470293E+02  0.71887467923E+02  0.24442140295E+02  0.21146358027E+03  0.17300000000E+03 0. -1.
<mgrwt>
<rscale>  2 0.21004625E+03</rscale>
<asrwt>0</asrwt>
<pdfrwt beam="1">  1       21 0.54778801E-01 0.21004625E+03</pdfrwt>
<pdfrwt beam="2">  1       21 0.21512827E-01 0.21004625E+03</pdfrwt>
<totfact> 0.62837851E+04</totfact>
</mgrwt>
</event>
<event>
 4    1  0.4429256E+000  0.4604778E+03  0.7546771E-02  0.1024643E+00
         21   -1    0    0  503  502  0.00000000000E+00  0.00000000000E+00  0.29822108888E+03  0.29822108888E+03  0.00000000000E+00 0.  1.
         21   -1    0    0  501  503 -0.00000000000E+00 -0.00000000000E+00 -0.71501232903E+03  0.71501232903E+03  0.00000000000E+00 0. -1.
          6    1    1    2  501    0  0.33858386332E+03 -0.25975335029E+03 -0.24627275255E+03  0.52219738044E+03  0.17300000000E+03 0.  1.
         -6    1    1    2    0  502 -0.33858386332E+03  0.25975335029E+03 -0.17051848760E+03  0.49103603748E+03  0.17300000000E+03 0. -1.
<mgrwt>
<rscale>  2 0.46047783E+03</rscale>
<asrwt>0</asrwt>
<pdfrwt beam="1">  1       21 0.45880168E-01 0.46047783E+03</pdfrwt>
<pdfrwt beam="2">  1       21 0.11000190E+00 0.46047783E+03</pdfrwt>
<totfact> 0.25652874E+03</totfact>
</mgrwt>
</event>
<event>
 4    1  0.4429256E+000  0.1984250E+03  0.7546771E-02  0.1151075E+00
         21   -1    0    0  503  502  0.00000000000E+00  0.00000000000E+00  0.82804032101E+03  0.82804032101E+03  0.00000000000E+00 0. -1.
         21   -1    0    0  501  503 -0.00000000000E+00 -0.00000000000E+00 -0.56987525197E+02  0.56987525197E+02  0.00000000000E+00 0.  1.
          6    1    1    2  501    0 -0.91868025290E+02  0.31681666712E+02  0.20543628716E+03  0.28561605375E+03  0.17300000000E+03 0.  1.
         -6    1    1    2    0  502  0.91868025290E+02 -0.31681666712E+02  0.56561650865E+03  0.59941179246E+03  0.17300000000E+03 0. -1.
<mgrwt>
<rscale>  2 0.19842495E+03</rscale>
<asrwt>0</asrwt>
<pdfrwt beam="1">  1       21 0.12739081E+00 0.19842495E+03</pdfrwt>
<pdfrwt beam="2">  1       21 0.87673122E-02 0.19842495E+03</pdfrwt>
<totfact> 0.46375203E+04</totfact>
</mgrwt>
</event>
<event>
 4    1  0.4429256E+000  0.2556099E+03  0.7546771E-02  0.1109810E+00
         21   -1    0    0  501  502  0.00000000000E+00  0.00000000000E+00  0.18306310013E+03  0.18306310013E+03  0.00000000000E+00 0. -1.
         21   -1    0    0  502  503 -0.00000000000E+00 -0.00000000000E+00 -0.43701958169E+03  0.43701958169E+03  0.00000000000E+00 0.  1.
          6    1    1    2  501    0  0.18601940702E+03 -0.28358576870E+02  0.57675031429E+01  0.25567497484E+03  0.17300000000E+03 0. -1.
         -6    1    1    2    0  503 -0.18601940702E+03  0.28358576870E+02 -0.25972398470E+03  0.36440770697E+03  0.17300000000E+03 0.  1.
<mgrwt>
<rscale>  2 0.25560992E+03</rscale>
<asrwt>0</asrwt>
<pdfrwt beam="1">  1       21 0.28163554E-01 0.25560992E+03</pdfrwt>
<pdfrwt beam="2">  1       21 0.67233781E-01 0.25560992E+03</pdfrwt>
<totfact> 0.23598426E+04</totfact>
</mgrwt>
</event>
<event>
 4    1  0.4429256E+000  0.1855428E+03  0.7546771E-02  0.1162544E+00
         21   -1    0    0  503  502  0.00000000000E+00  0.00000000000E+00  0.87501627321E+03  0.87501627321E+03  0.00000000000E+00 0. -1.
         21   -1    0    0  501  503 -0.00000000000E+00 -0.00000000000E+00 -0.39505323516E+02  0.39505323516E+02  0.00000000000E+00 0. -1.
          6    1    1    2  501    0  0.67058542630E+02  0.53823171181E+00  0.38848319837E+03  0.43051751794E+03  0.17300000000E+03 0.  1.
         -6    1    1    2    0  502 -0.67058542630E+02 -0.53823171181E+00  0.44702775132E+03  0.48400407879E+03  0.17300000000E+03 0.  1.
<mgrwt>
<rscale>  2 0.18554282E+03</rscale>
<asrwt>0</asrwt>
<pdfrwt beam="1">  1       21 0.13461787E+00 0.18554282E+03</pdfrwt>
<pdfrwt beam="2">  1       21 0.60777428E-02 0.18554282E+03</pdfrwt>
<totfact> 0.76580719E+04</totfact>
</mgrwt>
</event>
<event>
 4    1  0.4429256E+000  0.1912730E+03  0.7546771E-02  0.1157318E+00
         21   -1    0    0  503  502  0.00000000000E+00  0.00000000000E+00  0.15874186240E+03  0.15874186240E+03  0.00000000000E+00 0. -1.
         21   -1    0    0  501  503 -0.00000000000E+00 -0.00000000000E+00 -0.23477440967E+03  0.23477440967E+03  0.00000000000E+00 0. -1.
          6    1    1    2  501    0 -0.32728261471E+02 -0.74734246892E+02 -0.64655968443E+02  0.20190527733E+03  0.17300000000E+03 0. -1.
         -6    1    1    2    0  502  0.32728261471E+02  0.74734246892E+02 -0.11376578824E+02  0.19161099473E+03  0.17300000000E+03 0. -1.
<mgrwt>
<rscale>  2 0.19127296E+03</rscale>
<asrwt>0</asrwt>
<pdfrwt beam="1">  1       21 0.24421825E-01 0.19127296E+03</pdfrwt>
<pdfrwt beam="2">  1       21 0.36119140E-01 0.19127296E+03</pdfrwt>
<totfact> 0.11713426E+05</totfact>
</mgrwt>
</event>
<event>
 4    1  0.4429256E+000  0.1947669E+03  0.7546771E-02  0.1154231E+00
         21   -1    0    0  501  502  0.00000000000E+00  0.00000000000E+00  0.84221184714E+03  0.84221184714E+03  0.00000000000E+00 0.  1.
         21   -1    0    0  502  503 -0.00000000000E+00 -0.00000000000E+00 -0.46922336828E+02  0.46922336828E+02  0.00000000000E+00 0.  1.
          6    1    1    2  501    0 -0.11234957269E+01 -0.89464510637E+02  0.48666063045E+03  0.52418768599E+03  0.17300000000E+03 0.  1.
         -6    1    1    2    0  503  0.11234957269E+01  0.89464510637E+02  0.30862887986E+03  0.36494649798E+03  0.17300000000E+03 0.  1.
<mgrwt>
<rscale>  2 0.19476694E+03</rscale>
<asrwt>0</asrwt>
<pdfrwt beam="1">  1       21 0.12957104E+00 0.19476694E+03</pdfrwt>
<pdfrwt beam="2">  1       21 0.72188217E-02 0.19476694E+03</pdfrwt>
<totfact> 0.62449703E+04</totfact>
</mgrwt>
</event>
<event>
 4    1  0.4429256E+000  0.2374432E+03  0.7546771E-02  0.1121508E+00
         21   -1    0    0  501  502  0.00000000000E+00  0.00000000000E+00  0.80043351757E+02  0.80043351757E+02  0.00000000000E+00 0. -1.
         21   -1    0    0  502  503 -0.00000000000E+00 -0.00000000000E+00 -0.82385738640E+03  0.82385738640E+03  0.00000000000E+00 0. -1.
          6    1    1    2  501    0  0.11691739608E+03  0.11305130901E+03 -0.19978149373E+03  0.31030939595E+03  0.17300000000E+03 0. -1.
         -6    1    1    2    0  503 -0.11691739608E+03 -0.11305130901E+03 -0.54403254091E+03  0.59359134221E+03  0.17300000000E+03 0. -1.
<mgrwt>
<rscale>  2 0.23744321E+03</rscale>
<asrwt>0</asrwt>
<pdfrwt beam="1">  1       21 0.12314362E-01 0.23744321E+03</pdfrwt>
<pdfrwt beam="2">  1       21 0.12674729E+00 0.23744321E+03</pdfrwt>
<totfact> 0.25152659E+04</totfact>
</mgrwt>
</event>
<event>
 4    1  0.4429256E+000  0.2473553E+03  0.7546771E-02  0.1114988E+00
         21   -1    0    0  503  502  0.00000000000E+00  0.00000000000E+00  0.49795302230E+03  0.49795302230E+03  0.00000000000E+00 0.  1.
         21   -1    0    0  501  503 -0.00000000000E+00 -0.00000000000E+00 -0.17469497412E+03  0.17469497412E+03  0.00000000000E+00 0. -1.
          6    1    1    2  501    0 -0.17678202410E+03 -0.19426251081E+01 -0.21550680277E+02  0.24829234716E+03  0.17300000000E+03 0. -1.
         -6    1    1    2    0  502  0.17678202410E+03  0.19426251081E+01  0.34480872846E+03  0.42435564926E+03  0.17300000000E+03 0.  1.
<mgrwt>
<rscale>  2 0.24735533E+03</rscale>
<asrwt>0</asrwt>
<pdfrwt beam="1">  1       21 0.76608157E-01 0.24735533E+03</pdfrwt>
<pdfrwt beam="2">  1       21 0.26876150E-01 0.24735533E+03</pdfrwt>
<totfact> 0.19391329E+04</totfact>
</mgrwt>
</event>
<event>
 4    1  0.4429256E+000  0.2403640E+03  0.7546771E-02  0.1119551E+00
         21   -1    0    0  503  502  0.00000000000E+00  0.00000000000E+00  0.55216816649E+03  0.55216816649E+03  0.00000000000E+00 0.  1.
         21   -1    0    0  501  503 -0.00000000000E+00 -0.00000000000E+00 -0.10558681401E+03  0.10558681401E+03  0.00000000000E+00 0. -1.
          6    1    1    2  501    0  0.31580257014E+02 -0.16385519731E+03  0.19202753186E+03  0.30765144451E+03  0.17300000000E+03 0. -1.
         -6    1    1    2    0  502 -0.31580257014E+02  0.16385519731E+03  0.25455382062E+03  0.35010353599E+03  0.17300000000E+03 0. -1.
<mgrwt>
<rscale>  2 0.24036397E+03</rscale>
<asrwt>0</asrwt>
<pdfrwt beam="1">  1       21 0.84948947E-01 0.24036397E+03</pdfrwt>
<pdfrwt beam="2">  1       21 0.16244126E-01 0.24036397E+03</pdfrwt>
<totfact> 0.39749370E+04</totfact>
</mgrwt>
</event>
<event>
 4    1  0.4429256E+000  0.1884321E+03  0.7546771E-02  0.1159883E+00
         21   -1    0    0  501  502  0.00000000000E+00  0.00000000000E+00  0.26501111838E+03  0.26501111838E+03  0.00000000000E+00 0.  1.
         21   -1    0    0  502  503 -0.00000000000E+00 -0.00000000000E+00 -0.14089964524E+03  0.14089964524E+03  0.00000000000E+00 0.  1.
          6    1    1    2  501    0 -0.68113650852E+02 -0.30629577048E+02  0.17084570260E+02  0.18920497605E+03  0.17300000000E+03 0.  1.
         -6    1    1    2    0  503  0.68113650852E+02  0.30629577048E+02  0.10702690288E+03  0.21670578756E+03  0.17300000000E+03 0.  1.
<mgrwt>
<rscale>  2 0.18843206E+03</rscale>
<asrwt>0</asrwt>
<pdfrwt beam="1">  1       21 0.40770941E-01 0.18843206E+03</pdfrwt>
<pdfrwt beam="2">  1       21 0.21676869E-01 0.18843206E+03</pdfrwt>
<totfact> 0.11520383E+05</totfact>
</mgrwt>
</event>
<event>
 4    1  0.4429256E+000  0.2148772E+03  0.7546771E-02  0.1137761E+00
         21   -1    0    0  501  502  0.00000000000E+00  0.00000000000E+00  0.63305055979E+03  0.63305055979E+03  0.00000000000E+00 0. -1.
         21   -1    0    0  502  503 -0.00000000000E+00 -0.00000000000E+00 -0.80709589651E+02  0.80709589651E+02  0.00000000000E+00 0. -1.
          6    1    1    2  501    0  0.45022287357E+02 -0.11923175902E+03  0.38692683531E+03  0.44258851612E+03  0.17300000000E+03 0. -1.
         -6    1    1    2    0  503 -0.45022287357E+02  0.11923175902E+03  0.16541413483E+03  0.27117163332E+03  0.17300000000E+03 0. -1.
<mgrwt>
<rscale>  2 0.21487722E+03</rscale>
<asrwt>0</asrwt>
<pdfrwt beam="1">  1       21 0.97392391E-01 0.21487722E+03</pdfrwt>
<pdfrwt beam="2">  1       21 0.12416860E-01 0.21487722E+03</pdfrwt>
<totfact> 0.47694062E+04</totfact>
</mgrwt>
</event>
<event>
 4    1  0.4429256E+000  0.2460499E+03  0.7546771E-02  0.1115827E+00
         21   -1    0    0  501  502  0.00000000000E+00  0.00000000000E+00  0.27905718492E+03  0.27905718492E+03  0.00000000000E+00 0.  1.
         21   -1    0    0  502  503 -0.00000000000E+00 -0.00000000000E+00 -0.22663822561E+03  0.22663822561E+03  0.00000000000E+00 0. -1.
          6    1    1    2  501    0 -0.17317734022E+03 -0.24923160319E+02  0.78495661293E+02  0.25826754331E+03  0.17300000000E+03 0. -1.
         -6    1    1    2    0  503  0.17317734022E+03  0.24923160319E+02 -0.26076701979E+02  0.24742786721E+03  0.17300000000E+03 0. -1.
<mgrwt>
<rscale>  2 0.24604990E+03</rscale>
<asrwt>0</asrwt>
<pdfrwt beam="1">  1       21 0.42931875E-01 0.24604990E+03</pdfrwt>
<pdfrwt beam="2">  1       21 0.34867419E-01 0.24604990E+03</pdfrwt>
<totfact> 0.40342406E+04</totfact>
</mgrwt>
</event>
<event>
 4    1  0.4429256E+000  0.1780558E+03  0.7546771E-02  0.1169698E+00
         21   -1    0    0  501  502  0.00000000000E+00  0.00000000000E+00  0.21507197335E+02  0.21507197335E+02  0.00000000000E+00 0. -1.
         21   -1    0    0  502  503 -0.00000000000E+00 -0.00000000000E+00 -0.18830350932E+04  0.18830350932E+04  0.00000000000E+00 0. -1.
          6    1    1    2  501    0  0.38197517492E+02 -0.17771372651E+02 -0.48699610053E+03  0.51852586624E+03  0.17300000000E+03 0. -1.
         -6    1    1    2    0  503 -0.38197517492E+02  0.17771372651E+02 -0.13745317953E+04  0.13860164243E+04  0.17300000000E+03 0. -1.
<mgrwt>
<rscale>  2 0.17805581E+03</rscale>
<asrwt>0</asrwt>
<pdfrwt beam="1">  1       21 0.33088010E-02 0.17805581E+03</pdfrwt>
<pdfrwt beam="2">  1       21 0.28969758E+00 0.17805581E+03</pdfrwt>
<totfact> 0.21354014E+04</totfact>
</mgrwt>
</event>
<event>
 4    1  0.4429256E+000  0.2773624E+03  0.7546771E-02  0.1097138E+00
         21   -1    0    0  501  502  0.00000000000E+00  0.00000000000E+00  0.19232823434E+03  0.19232823434E+03  0.00000000000E+00 0.  1.
         21   -1    0    0  502  503 -0.00000000000E+00 -0.00000000000E+00 -0.45276662980E+03  0.45276662980E+03  0.00000000000E+00 0.  1.
          6    1    1    2  501    0 -0.20380577070E+03 -0.73919743662E+02 -0.20099391366E+02  0.27808974488E+03  0.17300000000E+03 0.  1.
         -6    1    1    2    0  503  0.20380577070E+03  0.73919743662E+02 -0.24033900409E+03  0.36700511926E+03  0.17300000000E+03 0.  1.
<mgrwt>
<rscale>  2 0.27736244E+03</rscale>
<asrwt>0</asrwt>
<pdfrwt beam="1">  1       21 0.29588960E-01 0.27736244E+03</pdfrwt>
<pdfrwt beam="2">  1       21 0.69656403E-01 0.27736244E+03</pdfrwt>
<totfact> 0.19618931E+04</totfact>
</mgrwt>
</event>
<event>
 4    1  0.4429256E+000  0.2417569E+03  0.7546771E-02  0.1118628E+00
         21   -1    0    0  501  502  0.00000000000E+00  0.00000000000E+00  0.56689497849E+02  0.56689497849E+02  0.00000000000E+00 0.  1.
         21   -1    0    0  502  503 -0.00000000000E+00 -0.00000000000E+00 -0.15508405671E+04  0.15508405671E+04  0.00000000000E+00 0.  1.
          6    1    1    2  501    0 -0.49756050855E+02 -0.16137446122E+03 -0.12124303727E+04  0.12362984227E+04  0.17300000000E+03 0.  1.
         -6    1    1    2    0  503  0.49756050855E+02  0.16137446122E+03 -0.28172069649E+03  0.37123164219E+03  0.17300000000E+03 0.  1.
<mgrwt>
<rscale>  2 0.24175686E+03</rscale>
<asrwt>0</asrwt>
<pdfrwt beam="1">  1       21 0.87214608E-02 0.24175686E+03</pdfrwt>
<pdfrwt beam="2">  1       21 0.23859087E+00 0.24175686E+03</pdfrwt>
<totfact> 0.76808611E+03</totfact>
</mgrwt>
</event>
<event>
 4    1  0.4429256E+000  0.1802452E+03  0.7546771E-02  0.1167566E+00
         21   -1    0    0  503  502  0.00000000000E+00  0.00000000000E+00  0.20915949762E+04  0.20915949762E+04  0.00000000000E+00 0.  1.
         21   -1    0    0  501  503 -0.00000000000E+00 -0.00000000000E+00 -0.23049738496E+02  0.23049738496E+02  0.00000000000E+00 0.  1.
          6    1    1    2  501    0  0.38452510220E+02 -0.32874333612E+02  0.16380753016E+04  0.16479620782E+04  0.17300000000E+03 0.  1.
         -6    1    1    2    0  502 -0.38452510220E+02  0.32874333612E+02  0.43046993613E+03  0.46668263656E+03  0.17300000000E+03 0.  1.
<mgrwt>
<rscale>  2 0.18024516E+03</rscale>
<asrwt>0</asrwt>
<pdfrwt beam="1">  1       21 0.32178369E+00 0.18024516E+03</pdfrwt>
<pdfrwt beam="2">  1       21 0.35461153E-02 0.18024516E+03</pdfrwt>
<totfact> 0.12423886E+04</totfact>
</mgrwt>
</event>
<event>
 4    1  0.4429256E+000  0.2355527E+03  0.7546771E-02  0.1122791E+00
         21   -1    0    0  503  502  0.00000000000E+00  0.00000000000E+00  0.90589112560E+02  0.90589112560E+02  0.00000000000E+00 0. -1.
         21   -1    0    0  501  503 -0.00000000000E+00 -0.00000000000E+00 -0.11268113708E+04  0.11268113708E+04  0.00000000000E+00 0. -1.
          6    1    1    2  501    0  0.15788527828E+03 -0.25066415871E+02 -0.92935022884E+03  0.95873715593E+03  0.17300000000E+03 0. -1.
         -6    1    1    2    0  502 -0.15788527828E+03  0.25066415871E+02 -0.10687202944E+03  0.25866332747E+03  0.17300000000E+03 0. -1.
<mgrwt>
<rscale>  2 0.23555273E+03</rscale>
<asrwt>0</asrwt>
<pdfrwt beam="1">  1       21 0.13936785E-01 0.23555273E+03</pdfrwt>
<pdfrwt beam="2">  1       21 0.17335561E+00 0.23555273E+03</pdfrwt>
<totfact> 0.87747171E+03</totfact>
</mgrwt>
</event>
<event>
 4    1  0.4429256E+000  0.2253236E+03  0.7546771E-02  0.1129975E+00
         21   -1    0    0  501  502  0.00000000000E+00  0.00000000000E+00  0.18017931082E+03  0.18017931082E+03  0.00000000000E+00 0.  1.
         21   -1    0    0  502  503 -0.00000000000E+00 -0.00000000000E+00 -0.34982655103E+03  0.34982655103E+03  0.00000000000E+00 0.  1.
          6    1    1    2  501    0  0.13958030326E+03 -0.36865676409E+02  0.32053812939E+02  0.22759214854E+03  0.17300000000E+03 0.  1.
         -6    1    1    2    0  503 -0.13958030326E+03  0.36865676409E+02 -0.20170105315E+03  0.30241371331E+03  0.17300000000E+03 0.  1.
<mgrwt>
<rscale>  2 0.22532363E+03</rscale>
<asrwt>0</asrwt>
<pdfrwt beam="1">  1       21 0.27719894E-01 0.22532363E+03</pdfrwt>
<pdfrwt beam="2">  1       21 0.53819469E-01 0.22532363E+03</pdfrwt>
<totfact> 0.39913446E+04</totfact>
</mgrwt>
</event>
<event>
 4    1  0.4429256E+000  0.2597882E+03  0.7546771E-02  0.1107271E+00
         21   -1    0    0  503  502  0.00000000000E+00  0.00000000000E+00  0.21654404282E+03  0.21654404282E+03  0.00000000000E+00 0. -1.
         21   -1    0    0  501  503 -0.00000000000E+00 -0.00000000000E+00 -0.32705554884E+03  0.32705554884E+03  0.00000000000E+00 0.  1.
          6    1    1    2  501    0  0.19171718294E+03  0.28379729082E+02 -0.11421074395E+03  0.28378509702E+03  0.17300000000E+03 0.  1.
         -6    1    1    2    0  502 -0.19171718294E+03 -0.28379729082E+02  0.36992379350E+01  0.25981449463E+03  0.17300000000E+03 0.  1.
<mgrwt>
<rscale>  2 0.25978816E+03</rscale>
<asrwt>0</asrwt>
<pdfrwt beam="1">  1       21 0.33314468E-01 0.25978816E+03</pdfrwt>
<pdfrwt beam="2">  1       21 0.50316238E-01 0.25978816E+03</pdfrwt>
<totfact> 0.31585465E+04</totfact>
</mgrwt>
</event>
<event>
 4    1  0.4429256E+000  0.1764700E+03  0.7546771E-02  0.1171264E+00
         21   -1    0    0  503  502  0.00000000000E+00  0.00000000000E+00  0.16799028774E+04  0.16799028774E+04  0.00000000000E+00 0.  1.
         21   -1    0    0  501  503 -0.00000000000E+00 -0.00000000000E+00 -0.25373936699E+02  0.25373936699E+02  0.00000000000E+00 0.  1.
          6    1    1    2  501    0 -0.13520937251E+02  0.32091029418E+02  0.38469918082E+03  0.42324355829E+03  0.17300000000E+03 0.  1.
         -6    1    1    2    0  502  0.13520937251E+02 -0.32091029418E+02  0.12698297599E+04  0.12820332558E+04  0.17300000000E+03 0.  1.
<mgrwt>
<rscale>  2 0.17646997E+03</rscale>
<asrwt>0</asrwt>
<pdfrwt beam="1">  1       21 0.25844651E+00 0.17646997E+03</pdfrwt>
<pdfrwt beam="2">  1       21 0.39036839E-02 0.17646997E+03</pdfrwt>
<totfact> 0.24574077E+04</totfact>
</mgrwt>
</event>
<event>
 4    1  0.4429256E+000  0.2222807E+03  0.7546771E-02  0.1132194E+00
         21   -1    0    0  501  502  0.00000000000E+00  0.00000000000E+00  0.32405044678E+03  0.32405044678E+03  0.00000000000E+00 0.  1.
         21   -1    0    0  502  503 -0.00000000000E+00 -0.00000000000E+00 -0.19908655753E+03  0.19908655753E+03  0.00000000000E+00 0.  1.
          6    1    1    2  501    0 -0.78737871472E+02 -0.11523907248E+03 -0.64086126080E+02  0.23133466620E+03  0.17300000000E+03 0.  1.
         -6    1    1    2    0  503  0.78737871472E+02  0.11523907248E+03  0.18905001533E+03  0.29180233811E+03  0.17300000000E+03 0.  1.
<mgrwt>
<rscale>  2 0.22228067E+03</rscale>
<asrwt>0</asrwt>
<pdfrwt beam="1">  1       21 0.49853915E-01 0.22228067E+03</pdfrwt>
<pdfrwt beam="2">  1       21 0.30628701E-01 0.22228067E+03</pdfrwt>
<totfact> 0.38653431E+04</totfact>
</mgrwt>
</event>
<event>
 4    1  0.4429256E+000  0.2329650E+03  0.7546771E-02  0.1124570E+00
         21   -1    0    0  501  502  0.00000000000E+00  0.00000000000E+00  0.21942376745E+03  0.21942376745E+03  0.00000000000E+00 0. -1.
         21   -1    0    0  502  503 -0.00000000000E+00 -0.00000000000E+00 -0.24851266067E+03  0.24851266067E+03  0.00000000000E+00 0.  1.
          6    1    1    2  501    0  0.12517582298E+03  0.93138206844E+02  0.15138389366E+01  0.23296996360E+03  0.17300000000E+03 0.  1.
         -6    1    1    2    0  503 -0.12517582298E+03 -0.93138206844E+02 -0.30602732151E+02  0.23496646452E+03  0.17300000000E+03 0.  1.
<mgrwt>
<rscale>  2 0.23296505E+03</rscale>
<asrwt>0</asrwt>
<pdfrwt beam="1">  1       21 0.33757503E-01 0.23296505E+03</pdfrwt>
<pdfrwt beam="2">  1       21 0.38232717E-01 0.23296505E+03</pdfrwt>
<totfact> 0.54767207E+04</totfact>
</mgrwt>
</event>
<event>
 4    1  0.4429256E+000  0.2084260E+03  0.7546771E-02  0.1142818E+00
         21   -1    0    0  503  502  0.00000000000E+00  0.00000000000E+00  0.34894609577E+03  0.34894609577E+03  0.00000000000E+00 0.  1.
         21   -1    0    0  501  503 -0.00000000000E+00 -0.00000000000E+00 -0.14152187366E+03  0.14152187366E+03  0.00000000000E+00 0.  1.
          6    1    1    2  501    0 -0.46969294134E+02  0.10633108122E+03  0.18645451551E+02  0.20925837208E+03  0.17300000000E+03 0.  1.
         -6    1    1    2    0  502  0.46969294134E+02 -0.10633108122E+03  0.18877877056E+03  0.28120959735E+03  0.17300000000E+03 0.  1.
<mgrwt>
<rscale>  2 0.20842604E+03</rscale>
<asrwt>0</asrwt>
<pdfrwt beam="1">  1       21 0.53684014E-01 0.20842604E+03</pdfrwt>
<pdfrwt beam="2">  1       21 0.21772596E-01 0.20842604E+03</pdfrwt>
<totfact> 0.64158125E+04</totfact>
</mgrwt>
</event>
<event>
 4    1  0.4429256E+000  0.1994205E+03  0.7546771E-02  0.1150229E+00
         21   -1    0    0  501  502  0.00000000000E+00  0.00000000000E+00  0.44881984989E+02  0.44881984989E+02  0.00000000000E+00 0.  1.
         21   -1    0    0  502  503 -0.00000000000E+00 -0.00000000000E+00 -0.88713657916E+03  0.88713657916E+03  0.00000000000E+00 0.  1.
          6    1    1    2  501    0 -0.60290320877E+02  0.78769314524E+02 -0.40496009150E+03  0.45139916195E+03  0.17300000000E+03 0.  1.
         -6    1    1    2    0  503  0.60290320877E+02 -0.78769314524E+02 -0.43729450267E+03  0.48061940220E+03  0.17300000000E+03 0.  1.
<mgrwt>
<rscale>  2 0.19942048E+03</rscale>
<asrwt>0</asrwt>
<pdfrwt beam="1">  1       21 0.69049212E-02 0.19942048E+03</pdfrwt>
<pdfrwt beam="2">  1       21 0.13648254E+00 0.19942048E+03</pdfrwt>
<totfact> 0.58960156E+04</totfact>
</mgrwt>
</event>
<event>
 4    1  0.4429256E+000  0.1859394E+03  0.7546771E-02  0.1162176E+00
         21   -1    0    0  503  502  0.00000000000E+00  0.00000000000E+00  0.22879139345E+03  0.22879139345E+03  0.00000000000E+00 0. -1.
         21   -1    0    0  501  503 -0.00000000000E+00 -0.00000000000E+00 -0.16467015740E+03  0.16467015740E+03  0.00000000000E+00 0. -1.
          6    1    1    2  501    0  0.32198145978E+02 -0.60064577937E+02 -0.24386367146E+02  0.18753178139E+03  0.17300000000E+03 0. -1.
         -6    1    1    2    0  502 -0.32198145978E+02  0.60064577937E+02  0.88507603200E+02  0.20592976946E+03  0.17300000000E+03 0. -1.
<mgrwt>
<rscale>  2 0.18593944E+03</rscale>
<asrwt>0</asrwt>
<pdfrwt beam="1">  1       21 0.35198676E-01 0.18593944E+03</pdfrwt>
<pdfrwt beam="2">  1       21 0.25333870E-01 0.18593944E+03</pdfrwt>
<totfact> 0.11518832E+05</totfact>
</mgrwt>
</event>
<event>
 4    1  0.4429256E+000  0.1875478E+03  0.7546771E-02  0.1160692E+00
         21   -1    0    0  501  502  0.00000000000E+00  0.00000000000E+00  0.27720347491E+04  0.27720347491E+04  0.00000000000E+00 0.  1.
         21   -1    0    0  502  503 -0.00000000000E+00 -0.00000000000E+00 -0.22821364768E+02  0.22821364768E+02  0.00000000000E+00 0.  1.
          6    1    1    2  501    0  0.48482565581E+02 -0.53801699496E+02  0.23057474792E+04  0.23133624057E+04  0.17300000000E+03 0.  1.
         -6    1    1    2    0  503 -0.48482565581E+02  0.53801699496E+02  0.44346590506E+03  0.48149370814E+03  0.17300000000E+03 0.  1.
<mgrwt>
<rscale>  2 0.18754781E+03</rscale>
<asrwt>0</asrwt>
<pdfrwt beam="1">  1       21 0.42646662E+00 0.18754781E+03</pdfrwt>
<pdfrwt beam="2">  1       21 0.35109814E-02 0.18754781E+03</pdfrwt>
<totfact> 0.29098440E+03</totfact>
</mgrwt>
</event>
<event>
 4    1  0.4429256E+000  0.2343924E+03  0.7546771E-02  0.1123586E+00
         21   -1    0    0  501  502  0.00000000000E+00  0.00000000000E+00  0.62636881677E+02  0.62636881677E+02  0.00000000000E+00 0.  1.
         21   -1    0    0  502  503 -0.00000000000E+00 -0.00000000000E+00 -0.88376158615E+03  0.88376158615E+03  0.00000000000E+00 0. -1.
          6    1    1    2  501    0  0.91467872508E+02  0.12901332782E+03 -0.45159631487E+03  0.50880157435E+03  0.17300000000E+03 0.  1.
         -6    1    1    2    0  503 -0.91467872508E+02 -0.12901332782E+03 -0.36952838960E+03  0.43759689347E+03  0.17300000000E+03 0. -1.
<mgrwt>
<rscale>  2 0.23439243E+03</rscale>
<asrwt>0</asrwt>
<pdfrwt beam="1">  1       21 0.96364429E-02 0.23439243E+03</pdfrwt>
<pdfrwt beam="2">  1       21 0.13596333E+00 0.23439243E+03</pdfrwt>
<totfact> 0.32640860E+04</totfact>
</mgrwt>
</event>
<event>
 4    1  0.4429256E+000  0.1748913E+03  0.7546771E-02  0.1172841E+00
         21   -1    0    0  501  502  0.00000000000E+00  0.00000000000E+00  0.24836292853E+03  0.24836292853E+03  0.00000000000E+00 0.  1.
         21   -1    0    0  502  503 -0.00000000000E+00 -0.00000000000E+00 -0.27603420686E+03  0.27603420686E+03  0.00000000000E+00 0.  1.
          6    1    1    2  501    0 -0.21695657180E+02 -0.13683915900E+02  0.18129440075E+03  0.25190198657E+03  0.17300000000E+03 0.  1.
         -6    1    1    2    0  503  0.21695657180E+02  0.13683915900E+02 -0.20896567909E+03  0.27249514882E+03  0.17300000000E+03 0.  1.
<mgrwt>
<rscale>  2 0.17489126E+03</rscale>
<asrwt>0</asrwt>
<pdfrwt beam="1">  1       21 0.38209681E-01 0.17489126E+03</pdfrwt>
<pdfrwt beam="2">  1       21 0.42466801E-01 0.17489126E+03</pdfrwt>
<totfact> 0.35566438E+04</totfact>
</mgrwt>
</event>
<event>
 4    1  0.4429256E+000  0.2602246E+03  0.7546771E-02  0.1107008E+00
         21   -1    0    0  501  502  0.00000000000E+00  0.00000000000E+00  0.12241526785E+03  0.12241526785E+03  0.00000000000E+00 0. -1.
         21   -1    0    0  502  503 -0.00000000000E+00 -0.00000000000E+00 -0.92252804282E+03  0.92252804282E+03  0.00000000000E+00 0.  1.
          6    1    1    2  501    0  0.72335871225E+02 -0.18043107820E+03 -0.69462505399E+02  0.26933602043E+03  0.17300000000E+03 0. -1.
         -6    1    1    2    0  503 -0.72335871225E+02  0.18043107820E+03 -0.73065026957E+03  0.77560729024E+03  0.17300000000E+03 0.  1.
<mgrwt>
<rscale>  2 0.26022462E+03</rscale>
<asrwt>0</asrwt>
<pdfrwt beam="1">  1       21 0.18833119E-01 0.26022462E+03</pdfrwt>
<pdfrwt beam="2">  1       21 0.14192739E+00 0.26022462E+03</pdfrwt>
<totfact> 0.85191326E+03</totfact>
</mgrwt>
</event>
<event>
 4    1  0.4429256E+000  0.2634178E+03  0.7546771E-02  0.1105107E+00
         21   -1    0    0  503  502  0.00000000000E+00  0.00000000000E+00  0.44938469886E+03  0.44938469886E+03  0.00000000000E+00 0.  1.
         21   -1    0    0  501  503 -0.00000000000E+00 -0.00000000000E+00 -0.27497823563E+03  0.27497823563E+03  0.00000000000E+00 0.  1.
          6    1    1    2  501    0 -0.17099308228E+03  0.10110039350E+03 -0.15262250709E+03  0.30443809457E+03  0.17300000000E+03 0.  1.
         -6    1    1    2    0  502  0.17099308228E+03 -0.10110039350E+03  0.32702897032E+03  0.41992483992E+03  0.17300000000E+03 0.  1.
<mgrwt>
<rscale>  2 0.26341777E+03</rscale>
<asrwt>0</asrwt>
<pdfrwt beam="1">  1       21 0.69136107E-01 0.26341777E+03</pdfrwt>
<pdfrwt beam="2">  1       21 0.42304344E-01 0.26341777E+03</pdfrwt>
<totfact> 0.98070099E+03</totfact>
</mgrwt>
</event>
<event>
 4    1  0.4429256E+000  0.1790802E+03  0.7546771E-02  0.1168696E+00
         21   -1    0    0  501  502  0.00000000000E+00  0.00000000000E+00  0.21446331835E+03  0.21446331835E+03  0.00000000000E+00 0.  1.
         21   -1    0    0  502  503 -0.00000000000E+00 -0.00000000000E+00 -0.15353440846E+03  0.15353440846E+03  0.00000000000E+00 0.  1.
          6    1    1    2  501    0  0.14728467101E+02  0.43861089087E+02  0.60162145271E+02  0.18891587176E+03  0.17300000000E+03 0. -1.
         -6    1    1    2    0  503 -0.14728467101E+02 -0.43861089087E+02  0.76676462494E+00  0.17908185505E+03  0.17300000000E+03 0. -1.
<mgrwt>
<rscale>  2 0.17908021E+03</rscale>
<asrwt>0</asrwt>
<pdfrwt beam="1">  1       21 0.32994357E-01 0.17908021E+03</pdfrwt>
<pdfrwt beam="2">  1       21 0.23620678E-01 0.17908021E+03</pdfrwt>
<totfact> 0.14988610E+05</totfact>
</mgrwt>
</event>
<event>
 4    1  0.4429256E+000  0.2110800E+03  0.7546771E-02  0.1140714E+00
         21   -1    0    0  501  502  0.00000000000E+00  0.00000000000E+00  0.70421295080E+02  0.70421295080E+02  0.00000000000E+00 0. -1.
         21   -1    0    0  502  503 -0.00000000000E+00 -0.00000000000E+00 -0.64456201851E+03  0.64456201851E+03  0.00000000000E+00 0. -1.
          6    1    1    2  501    0 -0.66596862371E+02 -0.10094861965E+03 -0.23855073272E+03  0.31852977564E+03  0.17300000000E+03 0. -1.
         -6    1    1    2    0  503  0.66596862371E+02  0.10094861965E+03 -0.33558999072E+03  0.39645353795E+03  0.17300000000E+03 0. -1.
<mgrwt>
<rscale>  2 0.21108000E+03</rscale>
<asrwt>0</asrwt>
<pdfrwt beam="1">  1       21 0.10834046E-01 0.21108000E+03</pdfrwt>
<pdfrwt beam="2">  1       21 0.99163385E-01 0.21108000E+03</pdfrwt>
<totfact> 0.58436221E+04</totfact>
</mgrwt>
</event>
<event>
 4    1  0.4429256E+000  0.2044078E+03  0.7546771E-02  0.1146073E+00
         21   -1    0    0  503  502  0.00000000000E+00  0.00000000000E+00  0.13296591514E+03  0.13296591514E+03  0.00000000000E+00 0. -1.
         21   -1    0    0  501  503 -0.00000000000E+00 -0.00000000000E+00 -0.64096621509E+03  0.64096621509E+03  0.00000000000E+00 0. -1.
          6    1    1    2  501    0 -0.10448426516E+03 -0.30603708387E+02 -0.53028088610E+03  0.56831361659E+03  0.17300000000E+03 0. -1.
         -6    1    1    2    0  502  0.10448426516E+03  0.30603708387E+02  0.22280586157E+02  0.20561851364E+03  0.17300000000E+03 0. -1.
<mgrwt>
<rscale>  2 0.20440780E+03</rscale>
<asrwt>0</asrwt>
<pdfrwt beam="1">  1       21 0.20456295E-01 0.20440780E+03</pdfrwt>
<pdfrwt beam="2">  1       21 0.98610186E-01 0.20440780E+03</pdfrwt>
<totfact> 0.18640907E+04</totfact>
</mgrwt>
</event>
<event>
 4    1  0.4429256E+000  0.2432182E+03  0.7546771E-02  0.1117667E+00
         21   -1    0    0  501  502  0.00000000000E+00  0.00000000000E+00  0.44289372187E+03  0.44289372187E+03  0.00000000000E+00 0.  1.
         21   -1    0    0  502  503 -0.00000000000E+00 -0.00000000000E+00 -0.13809619776E+03  0.13809619776E+03  0.00000000000E+00 0.  1.
          6    1    1    2  501    0  0.45829364760E+02 -0.16469896597E+03  0.20501943555E+03  0.31810069007E+03  0.17300000000E+03 0.  1.
         -6    1    1    2    0  503 -0.45829364760E+02  0.16469896597E+03  0.99778088550E+02  0.26288922956E+03  0.17300000000E+03 0.  1.
<mgrwt>
<rscale>  2 0.24321817E+03</rscale>
<asrwt>0</asrwt>
<pdfrwt beam="1">  1       21 0.68137495E-01 0.24321817E+03</pdfrwt>
<pdfrwt beam="2">  1       21 0.21245569E-01 0.24321817E+03</pdfrwt>
<totfact> 0.39552428E+04</totfact>
</mgrwt>
</event>
<event>
 4    1  0.4429256E+000  0.1737745E+03  0.7546771E-02  0.1173968E+00
         21   -1    0    0  501  502  0.00000000000E+00  0.00000000000E+00  0.34484175206E+03  0.34484175206E+03  0.00000000000E+00 0.  1.
         21   -1    0    0  502  503 -0.00000000000E+00 -0.00000000000E+00 -0.23934324341E+03  0.23934324341E+03  0.00000000000E+00 0.  1.
          6    1    1    2  501    0 -0.64669371916E+01  0.15058942341E+02  0.28534847246E+03  0.33409780567E+03  0.17300000000E+03 0.  1.
         -6    1    1    2    0  503  0.64669371916E+01 -0.15058942341E+02 -0.17984996381E+03  0.25008718980E+03  0.17300000000E+03 0.  1.
<mgrwt>
<rscale>  2 0.17377455E+03</rscale>
<asrwt>0</asrwt>
<pdfrwt beam="1">  1       21 0.53052577E-01 0.17377455E+03</pdfrwt>
<pdfrwt beam="2">  1       21 0.36822037E-01 0.17377455E+03</pdfrwt>
<totfact> 0.24203041E+04</totfact>
</mgrwt>
</event>
<event>
 4    1  0.4429256E+000  0.2058392E+03  0.7546771E-02  0.1144904E+00
         21   -1    0    0  501  502  0.00000000000E+00  0.00000000000E+00  0.13289933163E+04  0.13289933163E+04  0.00000000000E+00 0.  1.
         21   -1    0    0  502  503 -0.00000000000E+00 -0.00000000000E+00 -0.40872097331E+02  0.40872097331E+02  0.00000000000E+00 0.  1.
          6    1    1    2  501    0 -0.22270296690E+02  0.10929223361E+03  0.96530722885E+03  0.98700952605E+03  0.17300000000E+03 0.  1.
         -6    1    1    2    0  503  0.22270296690E+02 -0.10929223361E+03  0.32281399014E+03  0.38285588760E+03  0.17300000000E+03 0.  1.
<mgrwt>
<rscale>  2 0.20583916E+03</rscale>
<asrwt>0</asrwt>
<pdfrwt beam="1">  1       21 0.20446048E+00 0.20583916E+03</pdfrwt>
<pdfrwt beam="2">  1       21 0.62880160E-02 0.20583916E+03</pdfrwt>
<totfact> 0.22656249E+04</totfact>
</mgrwt>
</event>
<event>
 4    1  0.4429256E+000  0.2392018E+03  0.7546771E-02  0.1120326E+00
         21   -1    0    0  501  502  0.00000000000E+00  0.00000000000E+00  0.70279758677E+03  0.70279758677E+03  0.00000000000E+00 0.  1.
         21   -1    0    0  502  503 -0.00000000000E+00 -0.00000000000E+00 -0.83489750298E+02  0.83489750298E+02  0.00000000000E+00 0.  1.
          6    1    1    2  501    0  0.13963001199E+03  0.88272165677E+02  0.24766282551E+03  0.34431728191E+03  0.17300000000E+03 0.  1.
         -6    1    1    2    0  503 -0.13963001199E+03 -0.88272165677E+02  0.37164501096E+03  0.44197005515E+03  0.17300000000E+03 0.  1.
<mgrwt>
<rscale>  2 0.23920183E+03</rscale>
<asrwt>0</asrwt>
<pdfrwt beam="1">  1       21 0.10812270E+00 0.23920183E+03</pdfrwt>
<pdfrwt beam="2">  1       21 0.12844577E-01 0.23920183E+03</pdfrwt>
<totfact> 0.34511548E+04</totfact>
</mgrwt>
</event>
<event>
 4    1  0.4429256E+000  0.1737533E+03  0.7546771E-02  0.1173989E+00
         21   -1    0    0  501  502  0.00000000000E+00  0.00000000000E+00  0.21383224930E+03  0.21383224930E+03  0.00000000000E+00 0. -1.
         21   -1    0    0  502  503 -0.00000000000E+00 -0.00000000000E+00 -0.15639144355E+03  0.15639144355E+03  0.00000000000E+00 0. -1.
          6    1    1    2  501    0 -0.14850554911E+02 -0.63770778711E+01  0.86439763465E+02  0.19406709873E+03  0.17300000000E+03 0. -1.
         -6    1    1    2    0  503  0.14850554911E+02  0.63770778711E+01 -0.28998957711E+02  0.17615659412E+03  0.17300000000E+03 0. -1.
<mgrwt>
<rscale>  2 0.17375329E+03</rscale>
<asrwt>0</asrwt>
<pdfrwt beam="1">  1       21 0.32897269E-01 0.17375329E+03</pdfrwt>
<pdfrwt beam="2">  1       21 0.24060222E-01 0.17375329E+03</pdfrwt>
<totfact> 0.14583874E+05</totfact>
</mgrwt>
</event>
<event>
 4    1  0.4429256E+000  0.1863378E+03  0.7546771E-02  0.1161806E+00
         21   -1    0    0  501  502  0.00000000000E+00  0.00000000000E+00  0.18414028063E+03  0.18414028063E+03  0.00000000000E+00 0. -1.
         21   -1    0    0  502  503 -0.00000000000E+00 -0.00000000000E+00 -0.28977905220E+03  0.28977905220E+03  0.00000000000E+00 0. -1.
          6    1    1    2  501    0  0.68980902813E+02 -0.58672258956E+01  0.87225933341E+02  0.20574292877E+03  0.17300000000E+03 0. -1.
         -6    1    1    2    0  503 -0.68980902813E+02  0.58672258956E+01 -0.19286470491E+03  0.26817640406E+03  0.17300000000E+03 0. -1.
<mgrwt>
<rscale>  2 0.18633784E+03</rscale>
<asrwt>0</asrwt>
<pdfrwt beam="1">  1       21 0.28329274E-01 0.18633784E+03</pdfrwt>
<pdfrwt beam="2">  1       21 0.44581392E-01 0.18633784E+03</pdfrwt>
<totfact> 0.57698122E+04</totfact>
</mgrwt>
</event>
<event>
 4    1  0.4429256E+000  0.1916399E+03  0.7546771E-02  0.1156991E+00
         21   -1    0    0  503  502  0.00000000000E+00  0.00000000000E+00  0.37401110384E+03  0.37401110384E+03  0.00000000000E+00 0.  1.
         21   -1    0    0  501  503 -0.00000000000E+00 -0.00000000000E+00 -0.13010346614E+03  0.13010346614E+03  0.00000000000E+00 0.  1.
          6    1    1    2  501    0  0.68116105025E+02  0.46444093602E+02 -0.28738170936E+01  0.19166146305E+03  0.17300000000E+03 0.  1.
         -6    1    1    2    0  502 -0.68116105025E+02 -0.46444093602E+02  0.24678145479E+03  0.31245310692E+03  0.17300000000E+03 0.  1.
<mgrwt>
<rscale>  2 0.19163992E+03</rscale>
<asrwt>0</asrwt>
<pdfrwt beam="1">  1       21 0.57540169E-01 0.19163992E+03</pdfrwt>
<pdfrwt beam="2">  1       21 0.20015918E-01 0.19163992E+03</pdfrwt>
<totfact> 0.65352867E+04</totfact>
</mgrwt>
</event>
<event>
 4    1  0.4429256E+000  0.1793253E+03  0.7546771E-02  0.1168458E+00
         21   -1    0    0  503  502  0.00000000000E+00  0.00000000000E+00  0.15328767044E+03  0.15328767044E+03  0.00000000000E+00 0.  1.
         21   -1    0    0  501  503 -0.00000000000E+00 -0.00000000000E+00 -0.21176862520E+03  0.21176862520E+03  0.00000000000E+00 0.  1.
          6    1    1    2  501    0 -0.10008046757E+02 -0.46134518372E+02 -0.46903166252E+02  0.18535765911E+03  0.17300000000E+03 0.  1.
         -6    1    1    2    0  502  0.10008046757E+02  0.46134518372E+02 -0.11577788499E+02  0.17969863653E+03  0.17300000000E+03 0.  1.
<mgrwt>
<rscale>  2 0.17932528E+03</rscale>
<asrwt>0</asrwt>
<pdfrwt beam="1">  1       21 0.23582718E-01 0.17932528E+03</pdfrwt>
<pdfrwt beam="2">  1       21 0.32579789E-01 0.17932528E+03</pdfrwt>
<totfact> 0.15411477E+05</totfact>
</mgrwt>
</event>
<event>
 4    1  0.4429256E+000  0.1738648E+03  0.7546771E-02  0.1173876E+00
         21   -1    0    0  501  502  0.00000000000E+00  0.00000000000E+00  0.58629156768E+02  0.58629156768E+02  0.00000000000E+00 0.  1.
         21   -1    0    0  502  503 -0.00000000000E+00 -0.00000000000E+00 -0.51700053451E+03  0.51700053451E+03  0.00000000000E+00 0.  1.
          6    1    1    2  501    0 -0.86212819467E+01 -0.15021392010E+02 -0.24418625022E+03  0.29975972631E+03  0.17300000000E+03 0.  1.
         -6    1    1    2    0  503  0.86212819467E+01  0.15021392010E+02 -0.21418512752E+03  0.27586996497E+03  0.17300000000E+03 0.  1.
<mgrwt>
<rscale>  2 0.17386480E+03</rscale>
<asrwt>0</asrwt>
<pdfrwt beam="1">  1       21 0.90198702E-02 0.17386480E+03</pdfrwt>
<pdfrwt beam="2">  1       21 0.79538544E-01 0.17386480E+03</pdfrwt>
<totfact> 0.13650540E+05</totfact>
</mgrwt>
</event>
<event>
 4    1  0.4429256E+000  0.1943600E+03  0.7546771E-02  0.1154587E+00
         21   -1    0    0  501  502  0.00000000000E+00  0.00000000000E+00  0.17115111460E+04  0.17115111460E+04  0.00000000000E+00 0. -1.
         21   -1    0    0  502  503 -0.00000000000E+00 -0.00000000000E+00 -0.75503114214E+02  0.75503114214E+02  0.00000000000E+00 0.  1.
          6    1    1    2  501    0  0.30687611153E+02 -0.83096757255E+02  0.15696516669E+04  0.15816390725E+04  0.17300000000E+03 0. -1.
         -6    1    1    2    0  503 -0.30687611153E+02  0.83096757255E+02  0.66356364938E+02  0.20537518767E+03  0.17300000000E+03 0.  1.
<mgrwt>
<rscale>  2 0.19435998E+03</rscale>
<asrwt>0</asrwt>
<pdfrwt beam="1">  1       21 0.26330938E+00 0.19435998E+03</pdfrwt>
<pdfrwt beam="2">  1       21 0.11615865E-01 0.19435998E+03</pdfrwt>
<totfact> 0.34507340E+03</totfact>
</mgrwt>
</event>
<event>
 4    1  0.4429256E+000  0.2377476E+03  0.7546771E-02  0.1121302E+00
         21   -1    0    0  501  502  0.00000000000E+00  0.00000000000E+00  0.20571122986E+03  0.20571122986E+03  0.00000000000E+00 0. -1.
         21   -1    0    0  502  503 -0.00000000000E+00 -0.00000000000E+00 -0.78130142465E+03  0.78130142465E+03  0.00000000000E+00 0.  1.
          6    1    1    2  501    0  0.15121171068E+03 -0.61073170617E+02  0.10956594132E+03  0.26177969576E+03  0.17300000000E+03 0. -1.
         -6    1    1    2    0  503 -0.15121171068E+03  0.61073170617E+02 -0.68515613611E+03  0.72523295876E+03  0.17300000000E+03 0.  1.
<mgrwt>
<rscale>  2 0.23774758E+03</rscale>
<asrwt>0</asrwt>
<pdfrwt beam="1">  1       21 0.31647881E-01 0.23774758E+03</pdfrwt>
<pdfrwt beam="2">  1       21 0.12020022E+00 0.23774758E+03</pdfrwt>
<totfact> 0.48798269E+03</totfact>
</mgrwt>
</event>
<event>
 4    1  0.4429256E+000  0.2347665E+03  0.7546771E-02  0.1123329E+00
         21   -1    0    0  503  502  0.00000000000E+00  0.00000000000E+00  0.48141416785E+03  0.48141416785E+03  0.00000000000E+00 0.  1.
         21   -1    0    0  501  503 -0.00000000000E+00 -0.00000000000E+00 -0.12480539450E+03  0.12480539450E+03  0.00000000000E+00 0.  1.
          6    1    1    2  501    0 -0.15544919575E+03 -0.31966282252E+02  0.91146753113E+02  0.25183928658E+03  0.17300000000E+03 0.  1.
         -6    1    1    2    0  502  0.15544919575E+03  0.31966282252E+02  0.26546202024E+03  0.35438027577E+03  0.17300000000E+03 0.  1.
<mgrwt>
<rscale>  2 0.23476647E+03</rscale>
<asrwt>0</asrwt>
<pdfrwt beam="1">  1       21 0.74063717E-01 0.23476647E+03</pdfrwt>
<pdfrwt beam="2">  1       21 0.19200830E-01 0.23476647E+03</pdfrwt>
<totfact> 0.39888095E+04</totfact>
</mgrwt>
</event>
<event>
 4    1  0.4429256E+000  0.2169326E+03  0.7546771E-02  0.1136191E+00
         21   -1    0    0  501  502  0.00000000000E+00  0.00000000000E+00  0.28954803645E+03  0.28954803645E+03  0.00000000000E+00 0. -1.
         21   -1    0    0  502  503 -0.00000000000E+00 -0.00000000000E+00 -0.24432761098E+03  0.24432761098E+03  0.00000000000E+00 0.  1.
          6    1    1    2  501    0  0.34130089960E+02  0.12635617941E+03  0.17706404614E+03  0.28002039846E+03  0.17300000000E+03 0. -1.
         -6    1    1    2    0  503 -0.34130089960E+02 -0.12635617941E+03 -0.13184362067E+03  0.25385524897E+03  0.17300000000E+03 0.  1.
<mgrwt>
<rscale>  2 0.21693259E+03</rscale>
<asrwt>0</asrwt>
<pdfrwt beam="1">  1       21 0.44545852E-01 0.21693259E+03</pdfrwt>
<pdfrwt beam="2">  1       21 0.37588863E-01 0.21693259E+03</pdfrwt>
<totfact> 0.32605415E+04</totfact>
</mgrwt>
</event>
<event>
 4    1  0.4429256E+000  0.2382307E+03  0.7546771E-02  0.1120977E+00
         21   -1    0    0  501  502  0.00000000000E+00  0.00000000000E+00  0.73654435610E+02  0.73654435610E+02  0.00000000000E+00 0.  1.
         21   -1    0    0  502  503 -0.00000000000E+00 -0.00000000000E+00 -0.10293403897E+04  0.10293403897E+04  0.00000000000E+00 0. -1.
          6    1    1    2  501    0  0.86592361187E+02 -0.13902032299E+03 -0.20131175366E+03  0.31189791500E+03  0.17300000000E+03 0.  1.
         -6    1    1    2    0  503 -0.86592361187E+02  0.13902032299E+03 -0.75437420046E+03  0.79109691033E+03  0.17300000000E+03 0. -1.
<mgrwt>
<rscale>  2 0.23823074E+03</rscale>
<asrwt>0</asrwt>
<pdfrwt beam="1">  1       21 0.11331451E-01 0.23823074E+03</pdfrwt>
<pdfrwt beam="2">  1       21 0.15836007E+00 0.23823074E+03</pdfrwt>
<totfact> 0.16322770E+04</totfact>
</mgrwt>
</event>
<event>
 4    1  0.4429256E+000  0.1910315E+03  0.7546771E-02  0.1157534E+00
         21   -1    0    0  503  502  0.00000000000E+00  0.00000000000E+00  0.29267762612E+03  0.29267762612E+03  0.00000000000E+00 0.  1.
         21   -1    0    0  501  503 -0.00000000000E+00 -0.00000000000E+00 -0.14943935111E+03  0.14943935111E+03  0.00000000000E+00 0.  1.
          6    1    1    2  501    0 -0.77968422006E+01  0.80642618057E+02 -0.18348250838E+02  0.19191060654E+03  0.17300000000E+03 0.  1.
         -6    1    1    2    0  502  0.77968422006E+01 -0.80642618057E+02  0.16158652585E+03  0.25020637069E+03  0.17300000000E+03 0.  1.
<mgrwt>
<rscale>  2 0.19103147E+03</rscale>
<asrwt>0</asrwt>
<pdfrwt beam="1">  1       21 0.45027327E-01 0.19103147E+03</pdfrwt>
<pdfrwt beam="2">  1       21 0.22990669E-01 0.19103147E+03</pdfrwt>
<totfact> 0.84121250E+04</totfact>
</mgrwt>
</event>
<event>
 4    1  0.4429256E+000  0.1739393E+03  0.7546771E-02  0.1173801E+00
         21   -1    0    0  501  502  0.00000000000E+00  0.00000000000E+00  0.45545352408E+03  0.45545352408E+03  0.00000000000E+00 0.  1.
         21   -1    0    0  502  503 -0.00000000000E+00 -0.00000000000E+00 -0.72728751220E+02  0.72728751220E+02  0.00000000000E+00 0. -1.
          6    1    1    2  501    0 -0.17211726882E+02  0.54440151697E+01  0.26909367332E+03  0.32041580152E+03  0.17300000000E+03 0.  1.
         -6    1    1    2    0  503  0.17211726882E+02 -0.54440151697E+01  0.11363109954E+03  0.20776647378E+03  0.17300000000E+03 0. -1.
<mgrwt>
<rscale>  2 0.17393930E+03</rscale>
<asrwt>0</asrwt>
<pdfrwt beam="1">  1       21 0.70069771E-01 0.17393930E+03</pdfrwt>
<pdfrwt beam="2">  1       21 0.11189039E-01 0.17393930E+03</pdfrwt>
<totfact> 0.12376580E+05</totfact>
</mgrwt>
</event>
<event>
 4    1  0.4429256E+000  0.1925505E+03  0.7546771E-02  0.1156181E+00
         21   -1    0    0  503  502  0.00000000000E+00  0.00000000000E+00  0.39776357553E+02  0.39776357553E+02  0.00000000000E+00 0. -1.
         21   -1    0    0  501  503 -0.00000000000E+00 -0.00000000000E+00 -0.96425738915E+03  0.96425738915E+03  0.00000000000E+00 0.  1.
          6    1    1    2  501    0  0.58138156245E+02 -0.61372900752E+02 -0.55391305267E+03  0.58642591013E+03  0.17300000000E+03 0. -1.
         -6    1    1    2    0  502 -0.58138156245E+02  0.61372900752E+02 -0.37056797893E+03  0.41760783657E+03  0.17300000000E+03 0. -1.
<mgrwt>
<rscale>  2 0.19255046E+03</rscale>
<asrwt>0</asrwt>
<pdfrwt beam="1">  1       21 0.61194392E-02 0.19255046E+03</pdfrwt>
<pdfrwt beam="2">  1       21 0.14834730E+00 0.19255046E+03</pdfrwt>
<totfact> 0.58670017E+04</totfact>
</mgrwt>
</event>
<event>
 4    1  0.4429256E+000  0.1910743E+03  0.7546771E-02  0.1157496E+00
         21   -1    0    0  501  502  0.00000000000E+00  0.00000000000E+00  0.24225652609E+03  0.24225652609E+03  0.00000000000E+00 0.  1.
         21   -1    0    0  502  503 -0.00000000000E+00 -0.00000000000E+00 -0.15481999192E+03  0.15481999192E+03  0.00000000000E+00 0.  1.
          6    1    1    2  501    0  0.80990675535E+02 -0.45715116826E+01  0.76084292649E+02  0.20566528105E+03  0.17300000000E+03 0.  1.
         -6    1    1    2    0  503 -0.80990675535E+02  0.45715116826E+01  0.11352241520E+02  0.19141123695E+03  0.17300000000E+03 0.  1.
<mgrwt>
<rscale>  2 0.19107430E+03</rscale>
<asrwt>0</asrwt>
<pdfrwt beam="1">  1       21 0.37270235E-01 0.19107430E+03</pdfrwt>
<pdfrwt beam="2">  1       21 0.23818460E-01 0.19107430E+03</pdfrwt>
<totfact> 0.11539250E+05</totfact>
</mgrwt>
</event>
<event>
 4    1  0.4429256E+000  0.1876271E+03  0.7546771E-02  0.1160619E+00
         21   -1    0    0  503  502  0.00000000000E+00  0.00000000000E+00  0.32071330716E+03  0.32071330716E+03  0.00000000000E+00 0.  1.
         21   -1    0    0  501  503 -0.00000000000E+00 -0.00000000000E+00 -0.13403393883E+03  0.13403393883E+03  0.00000000000E+00 0.  1.
          6    1    1    2  501    0  0.72534854939E+02  0.36905821483E+01 -0.34067449437E+01  0.18765801738E+03  0.17300000000E+03 0.  1.
         -6    1    1    2    0  502 -0.72534854939E+02 -0.36905821483E+01  0.19008611328E+03  0.26708922861E+03  0.17300000000E+03 0.  1.
<mgrwt>
<rscale>  2 0.18762709E+03</rscale>
<asrwt>0</asrwt>
<pdfrwt beam="1">  1       21 0.49340508E-01 0.18762709E+03</pdfrwt>
<pdfrwt beam="2">  1       21 0.20620606E-01 0.18762709E+03</pdfrwt>
<totfact> 0.85570570E+04</totfact>
</mgrwt>
</event>
<event>
 4    1  0.4429256E+000  0.1857828E+03  0.7546771E-02  0.1162321E+00
         21   -1    0    0  501  502  0.00000000000E+00  0.00000000000E+00  0.14916784688E+04  0.14916784688E+04  0.00000000000E+00 0.  1.
         21   -1    0    0  502  503 -0.00000000000E+00 -0.00000000000E+00 -0.23164655198E+02  0.23164655198E+02  0.00000000000E+00 0.  1.
          6    1    1    2  501    0  0.45575586309E+02  0.50091140964E+02  0.75969015131E+03  0.78207696710E+03  0.17300000000E+03 0.  1.
         -6    1    1    2    0  503 -0.45575586309E+02 -0.50091140964E+02  0.70882366229E+03  0.73276615690E+03  0.17300000000E+03 0.  1.
<mgrwt>
<rscale>  2 0.18578282E+03</rscale>
<asrwt>0</asrwt>
<pdfrwt beam="1">  1       21 0.22948892E+00 0.18578282E+03</pdfrwt>
<pdfrwt beam="2">  1       21 0.35637943E-02 0.18578282E+03</pdfrwt>
<totfact> 0.42078340E+04</totfact>
</mgrwt>
</event>
<event>
 4    1  0.4429256E+000  0.1886121E+03  0.7546771E-02  0.1159719E+00
         21   -1    0    0  501  502  0.00000000000E+00  0.00000000000E+00  0.36998044129E+03  0.36998044129E+03  0.00000000000E+00 0. -1.
         21   -1    0    0  502  503 -0.00000000000E+00 -0.00000000000E+00 -0.99893981651E+02  0.99893981651E+02  0.00000000000E+00 0.  1.
          6    1    1    2  501    0 -0.31323400757E+02  0.68296237858E+02  0.18051124245E+03  0.26107248072E+03  0.17300000000E+03 0.  1.
         -6    1    1    2    0  503  0.31323400757E+02 -0.68296237858E+02  0.89575217197E+02  0.20880194222E+03  0.17300000000E+03 0. -1.
<mgrwt>
<rscale>  2 0.18861212E+03</rscale>
<asrwt>0</asrwt>
<pdfrwt beam="1">  1       21 0.56920067E-01 0.18861212E+03</pdfrwt>
<pdfrwt beam="2">  1       21 0.15368305E-01 0.18861212E+03</pdfrwt>
<totfact> 0.10901304E+05</totfact>
</mgrwt>
</event>
<event>
 4    1  0.4429256E+000  0.1765701E+03  0.7546771E-02  0.1171164E+00
         21   -1    0    0  501  502  0.00000000000E+00  0.00000000000E+00  0.43464281690E+03  0.43464281690E+03  0.00000000000E+00 0.  1.
         21   -1    0    0  502  503 -0.00000000000E+00 -0.00000000000E+00 -0.72601319143E+02  0.72601319143E+02  0.00000000000E+00 0.  1.
          6    1    1    2  501    0  0.32486974876E+02 -0.13877300041E+02  0.20880333041E+03  0.27345166626E+03  0.17300000000E+03 0. -1.
         -6    1    1    2    0  503 -0.32486974876E+02  0.13877300041E+02  0.15323816735E+03  0.23379246978E+03  0.17300000000E+03 0. -1.
<mgrwt>
<rscale>  2 0.17657005E+03</rscale>
<asrwt>0</asrwt>
<pdfrwt beam="1">  1       21 0.66868124E-01 0.17657005E+03</pdfrwt>
<pdfrwt beam="2">  1       21 0.11169434E-01 0.17657005E+03</pdfrwt>
<totfact> 0.13741195E+05</totfact>
</mgrwt>
</event>
<event>
 4    1  0.4429256E+000  0.2489064E+03  0.7546771E-02  0.1113998E+00
         21   -1    0    0  503  502  0.00000000000E+00  0.00000000000E+00  0.35012862181E+03  0.35012862181E+03  0.00000000000E+00 0. -1.
         21   -1    0    0  501  503 -0.00000000000E+00 -0.00000000000E+00 -0.31471863910E+03  0.31471863910E+03  0.00000000000E+00 0.  1.
          6    1    1    2  501    0  0.17808659483E+03  0.17622905494E+02 -0.20223778383E+03  0.32070940626E+03  0.17300000000E+03 0.  1.
         -6    1    1    2    0  502 -0.17808659483E+03 -0.17622905494E+02  0.23764776654E+03  0.34413785464E+03  0.17300000000E+03 0. -1.
<mgrwt>
<rscale>  2 0.24890641E+03</rscale>
<asrwt>0</asrwt>
<pdfrwt beam="1">  1       21 0.53865942E-01 0.24890641E+03</pdfrwt>
<pdfrwt beam="2">  1       21 0.48418252E-01 0.24890641E+03</pdfrwt>
<totfact> 0.12841346E+04</totfact>
</mgrwt>
</event>
<event>
 4    1  0.4429256E+000  0.1976375E+03  0.7546771E-02  0.1151748E+00
         21   -1    0    0  503  502  0.00000000000E+00  0.00000000000E+00  0.39765304558E+02  0.39765304558E+02  0.00000000000E+00 0.  1.
         21   -1    0    0  501  503 -0.00000000000E+00 -0.00000000000E+00 -0.10061376525E+04  0.10061376525E+04  0.00000000000E+00 0.  1.
          6    1    1    2  501    0 -0.32580488455E+02 -0.89833694931E+02 -0.56371760287E+03  0.59735928616E+03  0.17300000000E+03 0.  1.
         -6    1    1    2    0  502  0.32580488455E+02  0.89833694931E+02 -0.40265474504E+03  0.44854367087E+03  0.17300000000E+03 0.  1.
<mgrwt>
<rscale>  2 0.19763750E+03</rscale>
<asrwt>0</asrwt>
<pdfrwt beam="1">  1       21 0.61177398E-02 0.19763750E+03</pdfrwt>
<pdfrwt beam="2">  1       21 0.15479039E+00 0.19763750E+03</pdfrwt>
<totfact> 0.52312332E+04</totfact>
</mgrwt>
</event>
<event>
 4    1  0.4429256E+000  0.1940197E+03  0.7546771E-02  0.1154885E+00
         21   -1    0    0  503  502  0.00000000000E+00  0.00000000000E+00  0.37995618427E+03  0.37995618427E+03  0.00000000000E+00 0.  1.
         21   -1    0    0  501  503 -0.00000000000E+00 -0.00000000000E+00 -0.13084819093E+03  0.13084819093E+03  0.00000000000E+00 0.  1.
          6    1    1    2  501    0  0.87248094436E+02  0.10119592620E+02 -0.13039295551E+01  0.19402406132E+03  0.17300000000E+03 0.  1.
         -6    1    1    2    0  502 -0.87248094436E+02 -0.10119592620E+02  0.25041192289E+03  0.31678031389E+03  0.17300000000E+03 0.  1.
<mgrwt>
<rscale>  2 0.19401968E+03</rscale>
<asrwt>0</asrwt>
<pdfrwt beam="1">  1       21 0.58454797E-01 0.19401968E+03</pdfrwt>
<pdfrwt beam="2">  1       21 0.20130491E-01 0.19401968E+03</pdfrwt>
<totfact> 0.62452159E+04</totfact>
</mgrwt>
</event>
<event>
 4    1  0.4429256E+000  0.1942495E+03  0.7546771E-02  0.1154683E+00
         21   -1    0    0  501  502  0.00000000000E+00  0.00000000000E+00  0.12363430797E+03  0.12363430797E+03  0.00000000000E+00 0.  1.
         21   -1    0    0  502  503 -0.00000000000E+00 -0.00000000000E+00 -0.33224956412E+03  0.33224956412E+03  0.00000000000E+00 0.  1.
          6    1    1    2  501    0 -0.17572456124E+02 -0.86574016332E+02 -0.39265583176E+02  0.19817829735E+03  0.17300000000E+03 0.  1.
         -6    1    1    2    0  503  0.17572456124E+02  0.86574016332E+02 -0.16934967297E+03  0.25770557474E+03  0.17300000000E+03 0.  1.
<mgrwt>
<rscale>  2 0.19424946E+03</rscale>
<asrwt>0</asrwt>
<pdfrwt beam="1">  1       21 0.19020663E-01 0.19424946E+03</pdfrwt>
<pdfrwt beam="2">  1       21 0.51115317E-01 0.19424946E+03</pdfrwt>
<totfact> 0.92178213E+04</totfact>
</mgrwt>
</event>
<event>
 4    1  0.4429256E+000  0.1791409E+03  0.7546771E-02  0.1168637E+00
         21   -1    0    0  501  502  0.00000000000E+00  0.00000000000E+00  0.41520686652E+03  0.41520686652E+03  0.00000000000E+00 0. -1.
         21   -1    0    0  502  503 -0.00000000000E+00 -0.00000000000E+00 -0.79882994035E+02  0.79882994035E+02  0.00000000000E+00 0. -1.
          6    1    1    2  501    0  0.78524685086E+01 -0.45834523599E+02  0.21225858175E+03  0.27775019414E+03  0.17300000000E+03 0. -1.
         -6    1    1    2    0  503 -0.78524685086E+01  0.45834523599E+02  0.12306529073E+03  0.21733966641E+03  0.17300000000E+03 0. -1.
<mgrwt>
<rscale>  2 0.17914091E+03</rscale>
<asrwt>0</asrwt>
<pdfrwt beam="1">  1       21 0.63877978E-01 0.17914091E+03</pdfrwt>
<pdfrwt beam="2">  1       21 0.12289692E-01 0.17914091E+03</pdfrwt>
<totfact> 0.12788426E+05</totfact>
</mgrwt>
</event>
<event>
 4    1  0.4429256E+000  0.1949432E+03  0.7546771E-02  0.1154077E+00
         21   -1    0    0  503  502  0.00000000000E+00  0.00000000000E+00  0.37085109094E+02  0.37085109094E+02  0.00000000000E+00 0.  1.
         21   -1    0    0  501  503 -0.00000000000E+00 -0.00000000000E+00 -0.10711805569E+04  0.10711805569E+04  0.00000000000E+00 0.  1.
          6    1    1    2  501    0 -0.40591828158E+02 -0.80163322843E+02 -0.40167624771E+03  0.44648254481E+03  0.17300000000E+03 0.  1.
         -6    1    1    2    0  502  0.40591828158E+02  0.80163322843E+02 -0.63241920014E+03  0.66178312123E+03  0.17300000000E+03 0.  1.
<mgrwt>
<rscale>  2 0.19494321E+03</rscale>
<asrwt>0</asrwt>
<pdfrwt beam="1">  1       21 0.57054017E-02 0.19494321E+03</pdfrwt>
<pdfrwt beam="2">  1       21 0.16479700E+00 0.19494321E+03</pdfrwt>
<totfact> 0.49860689E+04</totfact>
</mgrwt>
</event>
<event>
 4    1  0.4429256E+000  0.2043840E+03  0.7546771E-02  0.1146092E+00
         21   -1    0    0  503  502  0.00000000000E+00  0.00000000000E+00  0.53432876726E+03  0.53432876726E+03  0.00000000000E+00 0.  1.
         21   -1    0    0  501  503 -0.00000000000E+00 -0.00000000000E+00 -0.23812161794E+03  0.23812161794E+03  0.00000000000E+00 0. -1.
          6    1    1    2  501    0 -0.72977841068E+02  0.80734539950E+02 -0.16843340096E+03  0.26484456156E+03  0.17300000000E+03 0. -1.
         -6    1    1    2    0  502  0.72977841068E+02 -0.80734539950E+02  0.46464055028E+03  0.50760582364E+03  0.17300000000E+03 0.  1.
<mgrwt>
<rscale>  2 0.20438403E+03</rscale>
<asrwt>0</asrwt>
<pdfrwt beam="1">  1       21 0.82204426E-01 0.20438403E+03</pdfrwt>
<pdfrwt beam="2">  1       21 0.36634095E-01 0.20438403E+03</pdfrwt>
<totfact> 0.92166627E+03</totfact>
</mgrwt>
</event>
<event>
 4    1  0.4429256E+000  0.2209704E+03  0.7546771E-02  0.1133162E+00
         21   -1    0    0  501  502  0.00000000000E+00  0.00000000000E+00  0.81597226325E+03  0.81597226325E+03  0.00000000000E+00 0. -1.
         21   -1    0    0  502  503 -0.00000000000E+00 -0.00000000000E+00 -0.84270139775E+02  0.84270139775E+02  0.00000000000E+00 0. -1.
          6    1    1    2  501    0 -0.13700315432E+03  0.11360420378E+02  0.60820720247E+03  0.64710426098E+03  0.17300000000E+03 0. -1.
         -6    1    1    2    0  503  0.13700315432E+03 -0.11360420378E+02  0.12349492101E+03  0.25313814204E+03  0.17300000000E+03 0. -1.
<mgrwt>
<rscale>  2 0.22097041E+03</rscale>
<asrwt>0</asrwt>
<pdfrwt beam="1">  1       21 0.12553419E+00 0.22097041E+03</pdfrwt>
<pdfrwt beam="2">  1       21 0.12964637E-01 0.22097041E+03</pdfrwt>
<totfact> 0.23699348E+04</totfact>
</mgrwt>
</event>
<event>
 4    1  0.4429256E+000  0.2170796E+03  0.7546771E-02  0.1136079E+00
         21   -1    0    0  503  502  0.00000000000E+00  0.00000000000E+00  0.73491249917E+02  0.73491249917E+02  0.00000000000E+00 0.  1.
         21   -1    0    0  501  503 -0.00000000000E+00 -0.00000000000E+00 -0.64322860443E+03  0.64322860443E+03  0.00000000000E+00 0. -1.
          6    1    1    2  501    0 -0.60811120498E+02 -0.11617469964E+03 -0.30492850194E+03  0.37430595041E+03  0.17300000000E+03 0.  1.
         -6    1    1    2    0  502  0.60811120498E+02  0.11617469964E+03 -0.26480885257E+03  0.34241390394E+03  0.17300000000E+03 0. -1.
<mgrwt>
<rscale>  2 0.21707960E+03</rscale>
<asrwt>0</asrwt>
<pdfrwt beam="1">  1       21 0.11306346E-01 0.21707960E+03</pdfrwt>
<pdfrwt beam="2">  1       21 0.98958248E-01 0.21707960E+03</pdfrwt>
<totfact> 0.54267567E+04</totfact>
</mgrwt>
</event>
<event>
 4    1  0.4429256E+000  0.1872630E+03  0.7546771E-02  0.1160953E+00
         21   -1    0    0  503  502  0.00000000000E+00  0.00000000000E+00  0.69073620859E+03  0.69073620859E+03  0.00000000000E+00 0. -1.
         21   -1    0    0  501  503 -0.00000000000E+00 -0.00000000000E+00 -0.50944591257E+02  0.50944591257E+02  0.00000000000E+00 0. -1.
          6    1    1    2  501    0 -0.34546281186E+02  0.62809265390E+02  0.34171552593E+03  0.38966261051E+03  0.17300000000E+03 0. -1.
         -6    1    1    2    0  502  0.34546281186E+02 -0.62809265390E+02  0.29807609139E+03  0.35201818934E+03  0.17300000000E+03 0. -1.
<mgrwt>
<rscale>  2 0.18726305E+03</rscale>
<asrwt>0</asrwt>
<pdfrwt beam="1">  1       21 0.10626710E+00 0.18726305E+03</pdfrwt>
<pdfrwt beam="2">  1       21 0.78376299E-02 0.18726305E+03</pdfrwt>
<totfact> 0.88482333E+04</totfact>
</mgrwt>
</event>
<event>
 4    1  0.4429256E+000  0.1748269E+03  0.7546771E-02  0.1172906E+00
         21   -1    0    0  501  502  0.00000000000E+00  0.00000000000E+00  0.10346817687E+03  0.10346817687E+03  0.00000000000E+00 0. -1.
         21   -1    0    0  502  503 -0.00000000000E+00 -0.00000000000E+00 -0.58645169015E+03  0.58645169015E+03  0.00000000000E+00 0. -1.
          6    1    1    2  501    0 -0.20820287510E+02  0.14211527260E+02  0.15259623334E+01  0.17483357927E+03  0.17300000000E+03 0. -1.
         -6    1    1    2    0  503  0.20820287510E+02 -0.14211527260E+02 -0.48450947560E+03  0.51508628775E+03  0.17300000000E+03 0. -1.
<mgrwt>
<rscale>  2 0.17482692E+03</rscale>
<asrwt>0</asrwt>
<pdfrwt beam="1">  1       21 0.15918182E-01 0.17482692E+03</pdfrwt>
<pdfrwt beam="2">  1       21 0.90223334E-01 0.17482692E+03</pdfrwt>
<totfact> 0.37118695E+04</totfact>
</mgrwt>
</event>
<event>
 4    1  0.4429256E+000  0.1909895E+03  0.7546771E-02  0.1157572E+00
         21   -1    0    0  503  502  0.00000000000E+00  0.00000000000E+00  0.88821283738E+02  0.88821283738E+02  0.00000000000E+00 0. -1.
         21   -1    0    0  501  503 -0.00000000000E+00 -0.00000000000E+00 -0.56965318067E+03  0.56965318067E+03  0.00000000000E+00 0. -1.
          6    1    1    2  501    0  0.80918645496E+02  0.37991461110E+00 -0.41434333360E+03  0.45624266528E+03  0.17300000000E+03 0. -1.
         -6    1    1    2    0  502 -0.80918645496E+02 -0.37991461110E+00 -0.66488563330E+02  0.20223179913E+03  0.17300000000E+03 0. -1.
<mgrwt>
<rscale>  2 0.19098945E+03</rscale>
<asrwt>0</asrwt>
<pdfrwt beam="1">  1       21 0.13664813E-01 0.19098945E+03</pdfrwt>
<pdfrwt beam="2">  1       21 0.87638951E-01 0.19098945E+03</pdfrwt>
<totfact> 0.51938895E+04</totfact>
</mgrwt>
</event>
<event>
 4    1  0.4429256E+000  0.1807473E+03  0.7546771E-02  0.1167082E+00
         21   -1    0    0  501  502  0.00000000000E+00  0.00000000000E+00  0.17466130876E+04  0.17466130876E+04  0.00000000000E+00 0. -1.
         21   -1    0    0  502  503 -0.00000000000E+00 -0.00000000000E+00 -0.21320862272E+02  0.21320862272E+02  0.00000000000E+00 0. -1.
          6    1    1    2  501    0 -0.31776279415E+02 -0.41603473036E+02  0.11723024099E+04  0.11861545098E+04  0.17300000000E+03 0.  1.
         -6    1    1    2    0  503  0.31776279415E+02  0.41603473036E+02  0.55298981540E+03  0.58177944003E+03  0.17300000000E+03 0.  1.
<mgrwt>
<rscale>  2 0.18074728E+03</rscale>
<asrwt>0</asrwt>
<pdfrwt beam="1">  1       21 0.26870959E+00 0.18074728E+03</pdfrwt>
<pdfrwt beam="2">  1       21 0.32801340E-02 0.18074728E+03</pdfrwt>
<totfact> 0.28525022E+04</totfact>
</mgrwt>
</event>
<event>
 4    1  0.4429256E+000  0.2752071E+03  0.7546771E-02  0.1098336E+00
         21   -1    0    0  501  502  0.00000000000E+00  0.00000000000E+00  0.76044008535E+03  0.76044008535E+03  0.00000000000E+00 0.  1.
         21   -1    0    0  502  503 -0.00000000000E+00 -0.00000000000E+00 -0.12007475567E+03  0.12007475567E+03  0.00000000000E+00 0.  1.
          6    1    1    2  501    0  0.16477886855E+03  0.13659376522E+03  0.13837895191E+03  0.30803841733E+03  0.17300000000E+03 0.  1.
         -6    1    1    2    0  503 -0.16477886855E+03 -0.13659376522E+03  0.50198637777E+03  0.57247642369E+03  0.17300000000E+03 0.  1.
<mgrwt>
<rscale>  2 0.27520707E+03</rscale>
<asrwt>0</asrwt>
<pdfrwt beam="1">  1       21 0.11699078E+00 0.27520707E+03</pdfrwt>
<pdfrwt beam="2">  1       21 0.18473040E-01 0.27520707E+03</pdfrwt>
<totfact> 0.14340002E+04</totfact>
</mgrwt>
</event>
<event>
 4    1  0.4429256E+000  0.1909275E+03  0.7546771E-02  0.1157627E+00
         21   -1    0    0  501  502  0.00000000000E+00  0.00000000000E+00  0.88197325497E+03  0.88197325497E+03  0.00000000000E+00 0.  1.
         21   -1    0    0  502  503 -0.00000000000E+00 -0.00000000000E+00 -0.42824601546E+02  0.42824601546E+02  0.00000000000E+00 0.  1.
          6    1    1    2  501    0  0.44182007245E+02 -0.67618471664E+02  0.50591389995E+03  0.54074225065E+03  0.17300000000E+03 0.  1.
         -6    1    1    2    0  503 -0.44182007245E+02  0.67618471664E+02  0.33323475347E+03  0.38405560587E+03  0.17300000000E+03 0.  1.
<mgrwt>
<rscale>  2 0.19092749E+03</rscale>
<asrwt>0</asrwt>
<pdfrwt beam="1">  1       21 0.13568818E+00 0.19092749E+03</pdfrwt>
<pdfrwt beam="2">  1       21 0.65884009E-02 0.19092749E+03</pdfrwt>
<totfact> 0.65177333E+04</totfact>
</mgrwt>
</event>
<event>
 4    1  0.4429256E+000  0.1876842E+03  0.7546771E-02  0.1160567E+00
         21   -1    0    0  503  502  0.00000000000E+00  0.00000000000E+00  0.11687694353E+04  0.11687694353E+04  0.00000000000E+00 0.  1.
         21   -1    0    0  501  503 -0.00000000000E+00 -0.00000000000E+00 -0.31398075096E+02  0.31398075096E+02  0.00000000000E+00 0. -1.
          6    1    1    2  501    0  0.62242213194E+02 -0.37712711536E+02  0.44851023782E+03  0.48619623111E+03  0.17300000000E+03 0. -1.
         -6    1    1    2    0  502 -0.62242213194E+02  0.37712711536E+02  0.68886112234E+03  0.71397127924E+03  0.17300000000E+03 0. -1.
<mgrwt>
<rscale>  2 0.18768415E+03</rscale>
<asrwt>0</asrwt>
<pdfrwt beam="1">  1       21 0.17981065E+00 0.18768415E+03</pdfrwt>
<pdfrwt beam="2">  1       21 0.48304740E-02 0.18768415E+03</pdfrwt>
<totfact> 0.52201533E+04</totfact>
</mgrwt>
</event>
<event>
 4    1  0.4429256E+000  0.1888922E+03  0.7546771E-02  0.1159464E+00
         21   -1    0    0  501  502  0.00000000000E+00  0.00000000000E+00  0.25276650348E+03  0.25276650348E+03  0.00000000000E+00 0. -1.
         21   -1    0    0  502  503 -0.00000000000E+00 -0.00000000000E+00 -0.21800876720E+03  0.21800876720E+03  0.00000000000E+00 0. -1.
          6    1    1    2  501    0  0.73171528088E+02  0.19929831549E+02  0.15713404422E+03  0.24570587816E+03  0.17300000000E+03 0. -1.
         -6    1    1    2    0  503 -0.73171528088E+02 -0.19929831549E+02 -0.12237630794E+03  0.22506939253E+03  0.17300000000E+03 0. -1.
<mgrwt>
<rscale>  2 0.18889222E+03</rscale>
<asrwt>0</asrwt>
<pdfrwt beam="1">  1       21 0.38887154E-01 0.18889222E+03</pdfrwt>
<pdfrwt beam="2">  1       21 0.33539810E-01 0.18889222E+03</pdfrwt>
<totfact> 0.54687127E+04</totfact>
</mgrwt>
</event>
<event>
 4    1  0.4429256E+000  0.1804738E+03  0.7546771E-02  0.1167345E+00
         21   -1    0    0  501  502  0.00000000000E+00  0.00000000000E+00  0.18689144028E+03  0.18689144028E+03  0.00000000000E+00 0.  1.
         21   -1    0    0  502  503 -0.00000000000E+00 -0.00000000000E+00 -0.39893314797E+03  0.39893314797E+03  0.00000000000E+00 0.  1.
          6    1    1    2  501    0  0.51364026467E+02 -0.18767228990E+01  0.11378901123E+03  0.21335117619E+03  0.17300000000E+03 0.  1.
         -6    1    1    2    0  503 -0.51364026467E+02  0.18767228990E+01 -0.32583071891E+03  0.37247341206E+03  0.17300000000E+03 0.  1.
<mgrwt>
<rscale>  2 0.18047378E+03</rscale>
<asrwt>0</asrwt>
<pdfrwt beam="1">  1       21 0.28752529E-01 0.18047378E+03</pdfrwt>
<pdfrwt beam="2">  1       21 0.61374330E-01 0.18047378E+03</pdfrwt>
<totfact> 0.28754641E+04</totfact>
</mgrwt>
</event>
<event>
 4    1  0.4429256E+000  0.1896081E+03  0.7546771E-02  0.1158815E+00
         21   -1    0    0  501  502  0.00000000000E+00  0.00000000000E+00  0.10605989189E+03  0.10605989189E+03  0.00000000000E+00 0.  1.
         21   -1    0    0  502  503 -0.00000000000E+00 -0.00000000000E+00 -0.33914200090E+03  0.33914200090E+03  0.00000000000E+00 0.  1.
          6    1    1    2  501    0  0.57366909350E+02 -0.52261705281E+02 -0.11154543128E+03  0.21998552536E+03  0.17300000000E+03 0.  1.
         -6    1    1    2    0  503 -0.57366909350E+02  0.52261705281E+02 -0.12153667773E+03  0.22521636743E+03  0.17300000000E+03 0.  1.
<mgrwt>
<rscale>  2 0.18960814E+03</rscale>
<asrwt>0</asrwt>
<pdfrwt beam="1">  1       21 0.16316906E-01 0.18960814E+03</pdfrwt>
<pdfrwt beam="2">  1       21 0.52175693E-01 0.18960814E+03</pdfrwt>
<totfact> 0.11737799E+05</totfact>
</mgrwt>
</event>
<event>
 4    1  0.4429256E+000  0.1786465E+03  0.7546771E-02  0.1169119E+00
         21   -1    0    0  501  502  0.00000000000E+00  0.00000000000E+00  0.99266891319E+02  0.99266891319E+02  0.00000000000E+00 0.  1.
         21   -1    0    0  502  503 -0.00000000000E+00 -0.00000000000E+00 -0.54733824093E+03  0.54733824093E+03  0.00000000000E+00 0.  1.
          6    1    1    2  501    0 -0.37260610667E+02 -0.24438221448E+02 -0.16363963950E+02  0.17939442324E+03  0.17300000000E+03 0.  1.
         -6    1    1    2    0  503  0.37260610667E+02  0.24438221448E+02 -0.43170738566E+03  0.46721070901E+03  0.17300000000E+03 0.  1.
<mgrwt>
<rscale>  2 0.17864652E+03</rscale>
<asrwt>0</asrwt>
<pdfrwt beam="1">  1       21 0.15271829E-01 0.17864652E+03</pdfrwt>
<pdfrwt beam="2">  1       21 0.84205886E-01 0.17864652E+03</pdfrwt>
<totfact> 0.46803051E+04</totfact>
</mgrwt>
</event>
<event>
 4    1  0.4429256E+000  0.2296942E+03  0.7546771E-02  0.1126855E+00
         21   -1    0    0  503  502  0.00000000000E+00  0.00000000000E+00  0.21535620010E+03  0.21535620010E+03  0.00000000000E+00 0. -1.
         21   -1    0    0  501  503 -0.00000000000E+00 -0.00000000000E+00 -0.35989333413E+03  0.35989333413E+03  0.00000000000E+00 0.  1.
          6    1    1    2  501    0 -0.64755387862E+02 -0.13651801884E+03 -0.23479039987E+03  0.32845998477E+03  0.17300000000E+03 0.  1.
         -6    1    1    2    0  502  0.64755387862E+02  0.13651801884E+03  0.90253265836E+02  0.24678954945E+03  0.17300000000E+03 0. -1.
<mgrwt>
<rscale>  2 0.22969421E+03</rscale>
<asrwt>0</asrwt>
<pdfrwt beam="1">  1       21 0.33131723E-01 0.22969421E+03</pdfrwt>
<pdfrwt beam="2">  1       21 0.55368205E-01 0.22969421E+03</pdfrwt>
<totfact> 0.26442924E+04</totfact>
</mgrwt>
</event>
<event>
 4    1  0.4429256E+000  0.2072385E+03  0.7546771E-02  0.1143772E+00
         21   -1    0    0  503  502  0.00000000000E+00  0.00000000000E+00  0.52867024007E+02  0.52867024007E+02  0.00000000000E+00 0. -1.
         21   -1    0    0  501  503 -0.00000000000E+00 -0.00000000000E+00 -0.11925259638E+04  0.11925259638E+04  0.00000000000E+00 0. -1.
          6    1    1    2  501    0  0.10911473733E+02 -0.11357706940E+03 -0.92140687290E+03  0.94442492363E+03  0.17300000000E+03 0. -1.
         -6    1    1    2    0  502 -0.10911473733E+02  0.11357706940E+03 -0.21825206692E+03  0.30096806420E+03  0.17300000000E+03 0. -1.
<mgrwt>
<rscale>  2 0.20723854E+03</rscale>
<asrwt>0</asrwt>
<pdfrwt beam="1">  1       21 0.81333883E-02 0.20723854E+03</pdfrwt>
<pdfrwt beam="2">  1       21 0.18346553E+00 0.20723854E+03</pdfrwt>
<totfact> 0.19890258E+04</totfact>
</mgrwt>
</event>
<event>
 4    1  0.4429256E+000  0.1978789E+03  0.7546771E-02  0.1151541E+00
         21   -1    0    0  501  502  0.00000000000E+00  0.00000000000E+00  0.12140398744E+03  0.12140398744E+03  0.00000000000E+00 0.  1.
         21   -1    0    0  502  503 -0.00000000000E+00 -0.00000000000E+00 -0.43393176396E+03  0.43393176396E+03  0.00000000000E+00 0.  1.
          6    1    1    2  501    0  0.16324572385E+01  0.96043639833E+02 -0.15572637615E+02  0.19849068671E+03  0.17300000000E+03 0.  1.
         -6    1    1    2    0  503 -0.16324572385E+01 -0.96043639833E+02 -0.29695513890E+03  0.35684506468E+03  0.17300000000E+03 0.  1.
<mgrwt>
<rscale>  2 0.19787887E+03</rscale>
<asrwt>0</asrwt>
<pdfrwt beam="1">  1       21 0.18677537E-01 0.19787887E+03</pdfrwt>
<pdfrwt beam="2">  1       21 0.66758732E-01 0.19787887E+03</pdfrwt>
<totfact> 0.53774789E+04</totfact>
</mgrwt>
</event>
<event>
 4    1  0.4429256E+000  0.2355546E+03  0.7546771E-02  0.1122790E+00
         21   -1    0    0  503  502  0.00000000000E+00  0.00000000000E+00  0.30711414620E+03  0.30711414620E+03  0.00000000000E+00 0.  1.
         21   -1    0    0  501  503 -0.00000000000E+00 -0.00000000000E+00 -0.19794005220E+03  0.19794005220E+03  0.00000000000E+00 0.  1.
          6    1    1    2  501    0 -0.15853804800E+03  0.20558084620E+02 -0.20006786971E+02  0.23640266291E+03  0.17300000000E+03 0.  1.
         -6    1    1    2    0  502  0.15853804800E+03 -0.20558084620E+02  0.12918088098E+03  0.26865153548E+03  0.17300000000E+03 0.  1.
<mgrwt>
<rscale>  2 0.23555455E+03</rscale>
<asrwt>0</asrwt>
<pdfrwt beam="1">  1       21 0.47248331E-01 0.23555455E+03</pdfrwt>
<pdfrwt beam="2">  1       21 0.30452315E-01 0.23555455E+03</pdfrwt>
<totfact> 0.43461691E+04</totfact>
</mgrwt>
</event>
<event>
 4    1  0.4429256E+000  0.1913746E+03  0.7546771E-02  0.1157227E+00
         21   -1    0    0  503  502  0.00000000000E+00  0.00000000000E+00  0.39923505955E+03  0.39923505955E+03  0.00000000000E+00 0.  1.
         21   -1    0    0  501  503 -0.00000000000E+00 -0.00000000000E+00 -0.43134862061E+03  0.43134862061E+03  0.00000000000E+00 0.  1.
          6    1    1    2  501    0 -0.13106079361E+02  0.80767898081E+02 -0.38455136461E+03  0.42953925862E+03  0.17300000000E+03 0.  1.
         -6    1    1    2    0  502  0.13106079361E+02 -0.80767898081E+02  0.35243780354E+03  0.40104442153E+03  0.17300000000E+03 0.  1.
<mgrwt>
<rscale>  2 0.19137456E+03</rscale>
<asrwt>0</asrwt>
<pdfrwt beam="1">  1       21 0.61420778E-01 0.19137456E+03</pdfrwt>
<pdfrwt beam="2">  1       21 0.66361327E-01 0.19137456E+03</pdfrwt>
<totfact> 0.51382231E+03</totfact>
</mgrwt>
</event>
<event>
 4    1  0.4429256E+000  0.2113995E+03  0.7546771E-02  0.1140462E+00
         21   -1    0    0  503  502  0.00000000000E+00  0.00000000000E+00  0.48111443419E+02  0.48111443419E+02  0.00000000000E+00 0. -1.
         21   -1    0    0  501  503 -0.00000000000E+00 -0.00000000000E+00 -0.97265471733E+03  0.97265471733E+03  0.00000000000E+00 0. -1.
          6    1    1    2  501    0  0.43435539234E+02 -0.11346413378E+03 -0.35399648924E+03  0.41231452814E+03  0.17300000000E+03 0. -1.
         -6    1    1    2    0  502 -0.43435539234E+02  0.11346413378E+03 -0.57054678468E+03  0.60845163261E+03  0.17300000000E+03 0. -1.
<mgrwt>
<rscale>  2 0.21139952E+03</rscale>
<asrwt>0</asrwt>
<pdfrwt beam="1">  1       21 0.74017617E-02 0.21139952E+03</pdfrwt>
<pdfrwt beam="2">  1       21 0.14963916E+00 0.21139952E+03</pdfrwt>
<totfact> 0.40864521E+04</totfact>
</mgrwt>
</event>
<event>
 4    1  0.4429256E+000  0.2474273E+03  0.7546771E-02  0.1114942E+00
         21   -1    0    0  501  502  0.00000000000E+00  0.00000000000E+00  0.17154313269E+04  0.17154313269E+04  0.00000000000E+00 0. -1.
         21   -1    0    0  502  503 -0.00000000000E+00 -0.00000000000E+00 -0.12130282734E+03  0.12130282734E+03  0.00000000000E+00 0.  1.
          6    1    1    2  501    0 -0.15056716709E+03 -0.92848328271E+02  0.15685988022E+04  0.15879932261E+04  0.17300000000E+03 0. -1.
         -6    1    1    2    0  503  0.15056716709E+03  0.92848328271E+02  0.25529697323E+02  0.24874092810E+03  0.17300000000E+03 0.  1.
<mgrwt>
<rscale>  2 0.24742733E+03</rscale>
<asrwt>0</asrwt>
<pdfrwt beam="1">  1       21 0.26391249E+00 0.24742733E+03</pdfrwt>
<pdfrwt beam="2">  1       21 0.18661975E-01 0.24742733E+03</pdfrwt>
<totfact> 0.13639720E+03</totfact>
</mgrwt>
</event>
<event>
 4    1  0.4429256E+000  0.2123960E+03  0.7546771E-02  0.1139683E+00
         21   -1    0    0  501  502  0.00000000000E+00  0.00000000000E+00  0.15161982977E+03  0.15161982977E+03  0.00000000000E+00 0.  1.
         21   -1    0    0  502  503 -0.00000000000E+00 -0.00000000000E+00 -0.54694699640E+03  0.54694699640E+03  0.00000000000E+00 0.  1.
          6    1    1    2  501    0 -0.10646374362E+02  0.12275880923E+03  0.38202116244E+02  0.21580424513E+03  0.17300000000E+03 0.  1.
         -6    1    1    2    0  503  0.10646374362E+02 -0.12275880923E+03 -0.43352928288E+03  0.48276258103E+03  0.17300000000E+03 0.  1.
<mgrwt>
<rscale>  2 0.21239602E+03</rscale>
<asrwt>0</asrwt>
<pdfrwt beam="1">  1       21 0.23326127E-01 0.21239602E+03</pdfrwt>
<pdfrwt beam="2">  1       21 0.84145692E-01 0.21239602E+03</pdfrwt>
<totfact> 0.20942990E+04</totfact>
</mgrwt>
</event>
<event>
 4    1  0.4429256E+000  0.1936497E+03  0.7546771E-02  0.1155210E+00
         21   -1    0    0  501  502  0.00000000000E+00  0.00000000000E+00  0.15406511603E+03  0.15406511603E+03  0.00000000000E+00 0. -1.
         21   -1    0    0  502  503 -0.00000000000E+00 -0.00000000000E+00 -0.27254398329E+03  0.27254398329E+03  0.00000000000E+00 0.  1.
          6    1    1    2  501    0  0.20217180226E+02  0.84631363765E+02  0.10506655581E+02  0.19393450420E+03  0.17300000000E+03 0. -1.
         -6    1    1    2    0  503 -0.20217180226E+02 -0.84631363765E+02 -0.12898552285E+03  0.23267459512E+03  0.17300000000E+03 0.  1.
<mgrwt>
<rscale>  2 0.19364969E+03</rscale>
<asrwt>0</asrwt>
<pdfrwt beam="1">  1       21 0.23702326E-01 0.19364969E+03</pdfrwt>
<pdfrwt beam="2">  1       21 0.41929843E-01 0.19364969E+03</pdfrwt>
<totfact> 0.91751983E+04</totfact>
</mgrwt>
</event>
<event>
 4    1  0.4429256E+000  0.1943927E+03  0.7546771E-02  0.1154558E+00
         21   -1    0    0  501  502  0.00000000000E+00  0.00000000000E+00  0.65449816778E+02  0.65449816778E+02  0.00000000000E+00 0.  1.
         21   -1    0    0  502  503 -0.00000000000E+00 -0.00000000000E+00 -0.57890369233E+03  0.57890369233E+03  0.00000000000E+00 0.  1.
          6    1    1    2  501    0  0.53383986256E+02 -0.70778943936E+02 -0.27333061315E+03  0.33540741342E+03  0.17300000000E+03 0.  1.
         -6    1    1    2    0  503 -0.53383986256E+02  0.70778943936E+02 -0.24012326240E+03  0.30894609569E+03  0.17300000000E+03 0.  1.
<mgrwt>
<rscale>  2 0.19439267E+03</rscale>
<asrwt>0</asrwt>
<pdfrwt beam="1">  1       21 0.10069203E-01 0.19439267E+03</pdfrwt>
<pdfrwt beam="2">  1       21 0.89062101E-01 0.19439267E+03</pdfrwt>
<totfact> 0.86219832E+04</totfact>
</mgrwt>
</event>
<event>
 4    1  0.4429256E+000  0.2406660E+03  0.7546771E-02  0.1119350E+00
         21   -1    0    0  501  502  0.00000000000E+00  0.00000000000E+00  0.14926168905E+04  0.14926168905E+04  0.00000000000E+00 0. -1.
         21   -1    0    0  502  503 -0.00000000000E+00 -0.00000000000E+00 -0.40081056956E+02  0.40081056956E+02  0.00000000000E+00 0.  1.
          6    1    1    2  501    0 -0.77613541121E+02  0.14821358485E+03  0.86303802303E+03  0.89596582396E+03  0.17300000000E+03 0.  1.
         -6    1    1    2    0  503  0.77613541121E+02 -0.14821358485E+03  0.58949781053E+03  0.63673212352E+03  0.17300000000E+03 0.  1.
<mgrwt>
<rscale>  2 0.24066601E+03</rscale>
<asrwt>0</asrwt>
<pdfrwt beam="1">  1       21 0.22963333E+00 0.24066601E+03</pdfrwt>
<pdfrwt beam="2">  1       21 0.61663176E-02 0.24066601E+03</pdfrwt>
<totfact> 0.15930449E+04</totfact>
</mgrwt>
</event>
<event>
 4    1  0.4429256E+000  0.1995993E+03  0.7546771E-02  0.1150077E+00
         21   -1    0    0  501  502  0.00000000000E+00  0.00000000000E+00  0.91528246439E+02  0.91528246439E+02  0.00000000000E+00 0.  1.
         21   -1    0    0  502  503 -0.00000000000E+00 -0.00000000000E+00 -0.43705685974E+03  0.43705685974E+03  0.00000000000E+00 0.  1.
          6    1    1    2  501    0 -0.90290535118E+02  0.41934698772E+02 -0.15588597077E+03  0.25325942347E+03  0.17300000000E+03 0. -1.
         -6    1    1    2    0  503  0.90290535118E+02 -0.41934698772E+02 -0.18964264253E+03  0.27532568271E+03  0.17300000000E+03 0. -1.
<mgrwt>
<rscale>  2 0.19959935E+03</rscale>
<asrwt>0</asrwt>
<pdfrwt beam="1">  1       21 0.14081269E-01 0.19959935E+03</pdfrwt>
<pdfrwt beam="2">  1       21 0.67239517E-01 0.19959935E+03</pdfrwt>
<totfact> 0.88800774E+04</totfact>
</mgrwt>
</event>
<event>
 4    1  0.4429256E+000  0.1770030E+03  0.7546771E-02  0.1170735E+00
         21   -1    0    0  503  502  0.00000000000E+00  0.00000000000E+00  0.48856633149E+03  0.48856633149E+03  0.00000000000E+00 0.  1.
         21   -1    0    0  501  503 -0.00000000000E+00 -0.00000000000E+00 -0.15617826679E+03  0.15617826679E+03  0.00000000000E+00 0.  1.
          6    1    1    2  501    0 -0.29985515932E+02  0.22403952153E+02 -0.81299234249E+02  0.19478098913E+03  0.17300000000E+03 0.  1.
         -6    1    1    2    0  502  0.29985515932E+02 -0.22403952153E+02  0.41368729895E+03  0.44996360914E+03  0.17300000000E+03 0.  1.
<mgrwt>
<rscale>  2 0.17700302E+03</rscale>
<asrwt>0</asrwt>
<pdfrwt beam="1">  1       21 0.75164051E-01 0.17700302E+03</pdfrwt>
<pdfrwt beam="2">  1       21 0.24027426E-01 0.17700302E+03</pdfrwt>
<totfact> 0.26079043E+04</totfact>
</mgrwt>
</event>
<event>
 4    1  0.4429256E+000  0.1967544E+03  0.7546771E-02  0.1152507E+00
         21   -1    0    0  501  502  0.00000000000E+00  0.00000000000E+00  0.36311901929E+03  0.36311901929E+03  0.00000000000E+00 0.  1.
         21   -1    0    0  502  503 -0.00000000000E+00 -0.00000000000E+00 -0.12334679007E+03  0.12334679007E+03  0.00000000000E+00 0.  1.
          6    1    1    2  501    0 -0.80203091951E+02  0.48484661814E+02  0.20948199932E+03  0.28739346971E+03  0.17300000000E+03 0.  1.
         -6    1    1    2    0  503  0.80203091951E+02 -0.48484661814E+02  0.30290229903E+02  0.19907233966E+03  0.17300000000E+03 0.  1.
<mgrwt>
<rscale>  2 0.19675441E+03</rscale>
<asrwt>0</asrwt>
<pdfrwt beam="1">  1       21 0.55864464E-01 0.19675441E+03</pdfrwt>
<pdfrwt beam="2">  1       21 0.18976429E-01 0.19675441E+03</pdfrwt>
<totfact> 0.76688507E+04</totfact>
</mgrwt>
</event>
<event>
 4    1  0.4429256E+000  0.1974701E+03  0.7546771E-02  0.1151891E+00
         21   -1    0    0  503  502  0.00000000000E+00  0.00000000000E+00  0.16536011051E+03  0.16536011051E+03  0.00000000000E+00 0. -1.
         21   -1    0    0  501  503 -0.00000000000E+00 -0.00000000000E+00 -0.73175192823E+03  0.73175192823E+03  0.00000000000E+00 0. -1.
          6    1    1    2  501    0  0.69641047444E+02  0.64927398566E+02 -0.65246915807E+03  0.68169673961E+03  0.17300000000E+03 0. -1.
         -6    1    1    2    0  502 -0.69641047444E+02 -0.64927398566E+02  0.86077340352E+02  0.21541529912E+03  0.17300000000E+03 0. -1.
<mgrwt>
<rscale>  2 0.19747011E+03</rscale>
<asrwt>0</asrwt>
<pdfrwt beam="1">  1       21 0.25440017E-01 0.19747011E+03</pdfrwt>
<pdfrwt beam="2">  1       21 0.11257722E+00 0.19747011E+03</pdfrwt>
<totfact> 0.90138844E+03</totfact>
</mgrwt>
</event>
<event>
 4    1  0.4429256E+000  0.1983657E+03  0.7546771E-02  0.1151125E+00
         21   -1    0    0  501  502  0.00000000000E+00  0.00000000000E+00  0.28302528491E+03  0.28302528491E+03  0.00000000000E+00 0. -1.
         21   -1    0    0  502  503 -0.00000000000E+00 -0.00000000000E+00 -0.18672844681E+03  0.18672844681E+03  0.00000000000E+00 0. -1.
          6    1    1    2  501    0 -0.16022506460E+02 -0.95724684051E+02  0.16685867397E+03  0.25921179165E+03  0.17300000000E+03 0. -1.
         -6    1    1    2    0  503  0.16022506460E+02  0.95724684051E+02 -0.70561835874E+02  0.21054194008E+03  0.17300000000E+03 0. -1.
<mgrwt>
<rscale>  2 0.19836566E+03</rscale>
<asrwt>0</asrwt>
<pdfrwt beam="1">  1       21 0.43542352E-01 0.19836566E+03</pdfrwt>
<pdfrwt beam="2">  1       21 0.28727453E-01 0.19836566E+03</pdfrwt>
<totfact> 0.58613406E+04</totfact>
</mgrwt>
</event>
<event>
 4    1  0.4429256E+000  0.1769567E+03  0.7546771E-02  0.1170781E+00
         21   -1    0    0  503  502  0.00000000000E+00  0.00000000000E+00  0.17653021798E+02  0.17653021798E+02  0.00000000000E+00 0. -1.
         21   -1    0    0  501  503 -0.00000000000E+00 -0.00000000000E+00 -0.18055233974E+04  0.18055233974E+04  0.00000000000E+00 0. -1.
          6    1    1    2  501    0 -0.36032143029E+02 -0.92929945362E+01 -0.10146881827E+04  0.10300028074E+04  0.17300000000E+03 0.  1.
         -6    1    1    2    0  502  0.36032143029E+02  0.92929945362E+01 -0.77318219290E+03  0.79317361183E+03  0.17300000000E+03 0.  1.
<mgrwt>
<rscale>  2 0.17695670E+03</rscale>
<asrwt>0</asrwt>
<pdfrwt beam="1">  1       21 0.27158476E-02 0.17695670E+03</pdfrwt>
<pdfrwt beam="2">  1       21 0.27777303E+00 0.17695670E+03</pdfrwt>
<totfact> 0.34674606E+04</totfact>
</mgrwt>
</event>
<event>
 4    1  0.4429256E+000  0.2289235E+03  0.7546771E-02  0.1127400E+00
         21   -1    0    0  503  502  0.00000000000E+00  0.00000000000E+00  0.22553499381E+03  0.22553499381E+03  0.00000000000E+00 0. -1.
         21   -1    0    0  501  503 -0.00000000000E+00 -0.00000000000E+00 -0.38238470815E+03  0.38238470815E+03  0.00000000000E+00 0.  1.
          6    1    1    2  501    0 -0.92451360802E+02 -0.11802415021E+03 -0.26881446251E+03  0.35308238330E+03  0.17300000000E+03 0.  1.
         -6    1    1    2    0  502  0.92451360802E+02  0.11802415021E+03  0.11196474818E+03  0.25483731866E+03  0.17300000000E+03 0. -1.
<mgrwt>
<rscale>  2 0.22892347E+03</rscale>
<asrwt>0</asrwt>
<pdfrwt beam="1">  1       21 0.34697691E-01 0.22892347E+03</pdfrwt>
<pdfrwt beam="2">  1       21 0.58828417E-01 0.22892347E+03</pdfrwt>
<totfact> 0.21201261E+04</totfact>
</mgrwt>
</event>
<event>
 4    1  0.4429256E+000  0.1983058E+03  0.7546771E-02  0.1151176E+00
         21   -1    0    0  501  502  0.00000000000E+00  0.00000000000E+00  0.38722209736E+03  0.38722209736E+03  0.00000000000E+00 0.  1.
         21   -1    0    0  502  503 -0.00000000000E+00 -0.00000000000E+00 -0.10235497615E+03  0.10235497615E+03  0.00000000000E+00 0.  1.
          6    1    1    2  501    0  0.93780975683E+02  0.24521457437E+02  0.16404532733E+03  0.25736363903E+03  0.17300000000E+03 0.  1.
         -6    1    1    2    0  503 -0.93780975683E+02 -0.24521457437E+02  0.12082179389E+03  0.23221343448E+03  0.17300000000E+03 0.  1.
<mgrwt>
<rscale>  2 0.19830576E+03</rscale>
<asrwt>0</asrwt>
<pdfrwt beam="1">  1       21 0.59572630E-01 0.19830576E+03</pdfrwt>
<pdfrwt beam="2">  1       21 0.15746920E-01 0.19830576E+03</pdfrwt>
<totfact> 0.94241760E+04</totfact>
</mgrwt>
</event>
<event>
 4    1  0.4429256E+000  0.2353023E+03  0.7546771E-02  0.1122962E+00
         21   -1    0    0  501  502  0.00000000000E+00  0.00000000000E+00  0.21768878577E+04  0.21768878577E+04  0.00000000000E+00 0. -1.
         21   -1    0    0  502  503 -0.00000000000E+00 -0.00000000000E+00 -0.86575017456E+02  0.86575017456E+02  0.00000000000E+00 0.  1.
          6    1    1    2  501    0 -0.10991653667E+03  0.11557047780E+03  0.19962276992E+04  0.20100478122E+04  0.17300000000E+03 0. -1.
         -6    1    1    2    0  503  0.10991653667E+03 -0.11557047780E+03  0.94085141099E+02  0.25341506299E+03  0.17300000000E+03 0.  1.
<mgrwt>
<rscale>  2 0.23530232E+03</rscale>
<asrwt>0</asrwt>
<pdfrwt beam="1">  1       21 0.33490578E+00 0.23530232E+03</pdfrwt>
<pdfrwt beam="2">  1       21 0.13319235E-01 0.23530232E+03</pdfrwt>
<totfact> 0.98675631E+02</totfact>
</mgrwt>
</event>
<event>
 4    1  0.4429256E+000  0.2365738E+03  0.7546771E-02  0.1122097E+00
         21   -1    0    0  503  502  0.00000000000E+00  0.00000000000E+00  0.11477574346E+03  0.11477574346E+03  0.00000000000E+00 0. -1.
         21   -1    0    0  501  503 -0.00000000000E+00 -0.00000000000E+00 -0.51190101734E+03  0.51190101734E+03  0.00000000000E+00 0. -1.
          6    1    1    2  501    0  0.63666777313E+02 -0.14827245348E+03 -0.13032310485E+03  0.27009496599E+03  0.17300000000E+03 0. -1.
         -6    1    1    2    0  502 -0.63666777313E+02  0.14827245348E+03 -0.26680216904E+03  0.35658179482E+03  0.17300000000E+03 0. -1.
<mgrwt>
<rscale>  2 0.23657383E+03</rscale>
<asrwt>0</asrwt>
<pdfrwt beam="1">  1       21 0.17657807E-01 0.23657383E+03</pdfrwt>
<pdfrwt beam="2">  1       21 0.78754003E-01 0.23657383E+03</pdfrwt>
<totfact> 0.40566197E+04</totfact>
</mgrwt>
</event>
<event>
 4    1  0.4429256E+000  0.2620784E+03  0.7546771E-02  0.1105901E+00
         21   -1    0    0  501  502  0.00000000000E+00  0.00000000000E+00  0.83180188938E+02  0.83180188938E+02  0.00000000000E+00 0.  1.
         21   -1    0    0  502  503 -0.00000000000E+00 -0.00000000000E+00 -0.10168789092E+04  0.10168789092E+04  0.00000000000E+00 0.  1.
          6    1    1    2  501    0  0.17857504347E+03 -0.82867530466E+02 -0.22838262636E+03  0.34762580137E+03  0.17300000000E+03 0.  1.
         -6    1    1    2    0  503 -0.17857504347E+03  0.82867530466E+02 -0.70531609386E+03  0.75243329673E+03  0.17300000000E+03 0.  1.
<mgrwt>
<rscale>  2 0.26207837E+03</rscale>
<asrwt>0</asrwt>
<pdfrwt beam="1">  1       21 0.12796951E-01 0.26207837E+03</pdfrwt>
<pdfrwt beam="2">  1       21 0.15644292E+00 0.26207837E+03</pdfrwt>
<totfact> 0.13369612E+04</totfact>
</mgrwt>
</event>
<event>
 4    1  0.4429256E+000  0.1758031E+03  0.7546771E-02  0.1171928E+00
         21   -1    0    0  501  502  0.00000000000E+00  0.00000000000E+00  0.36521768356E+02  0.36521768356E+02  0.00000000000E+00 0.  1.
         21   -1    0    0  502  503 -0.00000000000E+00 -0.00000000000E+00 -0.19200382197E+04  0.19200382197E+04  0.00000000000E+00 0.  1.
          6    1    1    2  501    0  0.68175501734E+01  0.30516517383E+02 -0.21017035093E+03  0.27400422120E+03  0.17300000000E+03 0.  1.
         -6    1    1    2    0  503 -0.68175501734E+01 -0.30516517383E+02 -0.16733461004E+04  0.16825557669E+04  0.17300000000E+03 0.  1.
<mgrwt>
<rscale>  2 0.17580312E+03</rscale>
<asrwt>0</asrwt>
<pdfrwt beam="1">  1       21 0.56187325E-02 0.17580312E+03</pdfrwt>
<pdfrwt beam="2">  1       21 0.29539055E+00 0.17580312E+03</pdfrwt>
<totfact> 0.81587199E+03</totfact>
</mgrwt>
</event>
<event>
 4    1  0.4429256E+000  0.2197616E+03  0.7546771E-02  0.1134061E+00
         21   -1    0    0  503  502  0.00000000000E+00  0.00000000000E+00  0.21940080902E+03  0.21940080902E+03  0.00000000000E+00 0.  1.
         21   -1    0    0  501  503 -0.00000000000E+00 -0.00000000000E+00 -0.23721980988E+03  0.23721980988E+03  0.00000000000E+00 0.  1.
          6    1    1    2  501    0  0.15364086490E+02 -0.13464808964E+03 -0.70202044778E+02  0.23070216793E+03  0.17300000000E+03 0.  1.
         -6    1    1    2    0  502 -0.15364086490E+02  0.13464808964E+03  0.52383043920E+02  0.22591845097E+03  0.17300000000E+03 0.  1.
<mgrwt>
<rscale>  2 0.21976161E+03</rscale>
<asrwt>0</asrwt>
<pdfrwt beam="1">  1       21 0.33753971E-01 0.21976161E+03</pdfrwt>
<pdfrwt beam="2">  1       21 0.36495355E-01 0.21976161E+03</pdfrwt>
<totfact> 0.60477835E+04</totfact>
</mgrwt>
</event>
<event>
 4    1  0.4429256E+000  0.2189269E+03  0.7546771E-02  0.1134686E+00
         21   -1    0    0  503  502  0.00000000000E+00  0.00000000000E+00  0.14799686810E+03  0.14799686810E+03  0.00000000000E+00 0.  1.
         21   -1    0    0  501  503 -0.00000000000E+00 -0.00000000000E+00 -0.33010048981E+03  0.33010048981E+03  0.00000000000E+00 0.  1.
          6    1    1    2  501    0 -0.47975092468E+02 -0.12529309333E+03 -0.12394282981E+03  0.25157661615E+03  0.17300000000E+03 0.  1.
         -6    1    1    2    0  502  0.47975092468E+02  0.12529309333E+03 -0.58160791898E+02  0.22652074176E+03  0.17300000000E+03 0.  1.
<mgrwt>
<rscale>  2 0.21892686E+03</rscale>
<asrwt>0</asrwt>
<pdfrwt beam="1">  1       21 0.22768749E-01 0.21892686E+03</pdfrwt>
<pdfrwt beam="2">  1       21 0.50784691E-01 0.21892686E+03</pdfrwt>
<totfact> 0.65956715E+04</totfact>
</mgrwt>
</event>
<event>
 4    1  0.4429256E+000  0.1810441E+03  0.7546771E-02  0.1166796E+00
         21   -1    0    0  503  502  0.00000000000E+00  0.00000000000E+00  0.73966598933E+02  0.73966598933E+02  0.00000000000E+00 0.  1.
         21   -1    0    0  501  503 -0.00000000000E+00 -0.00000000000E+00 -0.49329208147E+03  0.49329208147E+03  0.00000000000E+00 0.  1.
          6    1    1    2  501    0  0.23979932907E+02 -0.47675236581E+02 -0.30010643489E+03  0.35048657268E+03  0.17300000000E+03 0.  1.
         -6    1    1    2    0  502 -0.23979932907E+02  0.47675236581E+02 -0.11921904765E+03  0.21677210772E+03  0.17300000000E+03 0.  1.
<mgrwt>
<rscale>  2 0.18104410E+03</rscale>
<asrwt>0</asrwt>
<pdfrwt beam="1">  1       21 0.11379477E-01 0.18104410E+03</pdfrwt>
<pdfrwt beam="2">  1       21 0.75891089E-01 0.18104410E+03</pdfrwt>
<totfact> 0.10035966E+05</totfact>
</mgrwt>
</event>
<event>
 4    1  0.4429256E+000  0.1872963E+03  0.7546771E-02  0.1160923E+00
         21   -1    0    0  503  502  0.00000000000E+00  0.00000000000E+00  0.77153587325E+02  0.77153587325E+02  0.00000000000E+00 0.  1.
         21   -1    0    0  501  503 -0.00000000000E+00 -0.00000000000E+00 -0.86917366800E+03  0.86917366800E+03  0.00000000000E+00 0.  1.
          6    1    1    2  501    0 -0.54162863640E+02 -0.47088109986E+02 -0.72276258068E+03  0.74663622597E+03  0.17300000000E+03 0.  1.
         -6    1    1    2    0  502  0.54162863640E+02  0.47088109986E+02 -0.69257499997E+02  0.19969102936E+03  0.17300000000E+03 0.  1.
<mgrwt>
<rscale>  2 0.18729631E+03</rscale>
<asrwt>0</asrwt>
<pdfrwt beam="1">  1       21 0.11869782E-01 0.18729631E+03</pdfrwt>
<pdfrwt beam="2">  1       21 0.13371903E+00 0.18729631E+03</pdfrwt>
<totfact> 0.24163863E+04</totfact>
</mgrwt>
</event>
<event>
 4    1  0.4429256E+000  0.2181839E+03  0.7546771E-02  0.1135244E+00
         21   -1    0    0  501  502  0.00000000000E+00  0.00000000000E+00  0.33702288090E+02  0.33702288090E+02  0.00000000000E+00 0. -1.
         21   -1    0    0  502  503 -0.00000000000E+00 -0.00000000000E+00 -0.18069805491E+04  0.18069805491E+04  0.00000000000E+00 0. -1.
          6    1    1    2  501    0 -0.80930269508E+02  0.10547751679E+03 -0.45661840856E+03  0.50606776829E+03  0.17300000000E+03 0. -1.
         -6    1    1    2    0  503  0.80930269508E+02 -0.10547751679E+03 -0.13166598525E+04  0.13346150689E+04  0.17300000000E+03 0. -1.
<mgrwt>
<rscale>  2 0.21818390E+03</rscale>
<asrwt>0</asrwt>
<pdfrwt beam="1">  1       21 0.51849682E-02 0.21818390E+03</pdfrwt>
<pdfrwt beam="2">  1       21 0.27799696E+00 0.21818390E+03</pdfrwt>
<totfact> 0.11277478E+04</totfact>
</mgrwt>
</event>
<event>
 4    1  0.4429256E+000  0.1977738E+03  0.7546771E-02  0.1151631E+00
         21   -1    0    0  503  502  0.00000000000E+00  0.00000000000E+00  0.21886756937E+03  0.21886756937E+03  0.00000000000E+00 0.  1.
         21   -1    0    0  501  503 -0.00000000000E+00 -0.00000000000E+00 -0.18264672675E+03  0.18264672675E+03  0.00000000000E+00 0. -1.
          6    1    1    2  501    0 -0.95644360267E+02 -0.61356138034E+01  0.47572594195E+02  0.20341494814E+03  0.17300000000E+03 0.  1.
         -6    1    1    2    0  502  0.95644360267E+02  0.61356138034E+01 -0.11351751581E+02  0.19809934798E+03  0.17300000000E+03 0. -1.
<mgrwt>
<rscale>  2 0.19777383E+03</rscale>
<asrwt>0</asrwt>
<pdfrwt beam="1">  1       21 0.33671934E-01 0.19777383E+03</pdfrwt>
<pdfrwt beam="2">  1       21 0.28099496E-01 0.19777383E+03</pdfrwt>
<totfact> 0.10259376E+05</totfact>
</mgrwt>
</event>
<event>
 4    1  0.4429256E+000  0.1849235E+03  0.7546771E-02  0.1163121E+00
         21   -1    0    0  503  502  0.00000000000E+00  0.00000000000E+00  0.21521129103E+03  0.21521129103E+03  0.00000000000E+00 0. -1.
         21   -1    0    0  501  503 -0.00000000000E+00 -0.00000000000E+00 -0.23234932158E+03  0.23234932158E+03  0.00000000000E+00 0. -1.
          6    1    1    2  501    0  0.55623657477E+02 -0.34259408873E+02 -0.13438917034E+03  0.22859822281E+03  0.17300000000E+03 0. -1.
         -6    1    1    2    0  502 -0.55623657477E+02  0.34259408873E+02  0.11725113978E+03  0.21896238980E+03  0.17300000000E+03 0. -1.
<mgrwt>
<rscale>  2 0.18492349E+03</rscale>
<asrwt>0</asrwt>
<pdfrwt beam="1">  1       21 0.33109429E-01 0.18492349E+03</pdfrwt>
<pdfrwt beam="2">  1       21 0.35746050E-01 0.18492349E+03</pdfrwt>
<totfact> 0.66499913E+04</totfact>
</mgrwt>
</event>
<event>
 4    1  0.4429256E+000  0.1781418E+03  0.7546771E-02  0.1169614E+00
         21   -1    0    0  501  502  0.00000000000E+00  0.00000000000E+00  0.56302557700E+03  0.56302557700E+03  0.00000000000E+00 0.  1.
         21   -1    0    0  502  503 -0.00000000000E+00 -0.00000000000E+00 -0.70965990498E+02  0.70965990498E+02  0.00000000000E+00 0.  1.
          6    1    1    2  501    0 -0.10655928656E+02  0.41133421685E+02  0.38982051187E+03  0.42859600869E+03  0.17300000000E+03 0.  1.
         -6    1    1    2    0  503  0.10655928656E+02 -0.41133421685E+02  0.10223907464E+03  0.20539555881E+03  0.17300000000E+03 0.  1.
<mgrwt>
<rscale>  2 0.17814182E+03</rscale>
<asrwt>0</asrwt>
<pdfrwt beam="1">  1       21 0.86619316E-01 0.17814182E+03</pdfrwt>
<pdfrwt beam="2">  1       21 0.10917845E-01 0.17814182E+03</pdfrwt>
<totfact> 0.80196639E+04</totfact>
</mgrwt>
</event>
<event>
 4    1  0.4429256E+000  0.1955793E+03  0.7546771E-02  0.1153523E+00
         21   -1    0    0  503  502  0.00000000000E+00  0.00000000000E+00  0.16327868267E+03  0.16327868267E+03  0.00000000000E+00 0.  1.
         21   -1    0    0  501  503 -0.00000000000E+00 -0.00000000000E+00 -0.35651329529E+03  0.35651329529E+03  0.00000000000E+00 0.  1.
          6    1    1    2  501    0  0.65152108919E+02 -0.63854974798E+02 -0.24880330261E+03  0.31647170251E+03  0.17300000000E+03 0.  1.
         -6    1    1    2    0  502 -0.65152108919E+02  0.63854974798E+02  0.55568689987E+02  0.20332027545E+03  0.17300000000E+03 0.  1.
<mgrwt>
<rscale>  2 0.19557928E+03</rscale>
<asrwt>0</asrwt>
<pdfrwt beam="1">  1       21 0.25119797E-01 0.19557928E+03</pdfrwt>
<pdfrwt beam="2">  1       21 0.54848200E-01 0.19557928E+03</pdfrwt>
<totfact> 0.47023833E+04</totfact>
</mgrwt>
</event>
<event>
 4    1  0.4429256E+000  0.1756021E+03  0.7546771E-02  0.1172129E+00
         21   -1    0    0  501  502  0.00000000000E+00  0.00000000000E+00  0.53102369572E+02  0.53102369572E+02  0.00000000000E+00 0. -1.
         21   -1    0    0  502  503 -0.00000000000E+00 -0.00000000000E+00 -0.58950680294E+03  0.58950680294E+03  0.00000000000E+00 0. -1.
          6    1    1    2  501    0 -0.18815074999E+02 -0.23517821823E+02 -0.22891140756E+03  0.28850741325E+03  0.17300000000E+03 0. -1.
         -6    1    1    2    0  503  0.18815074999E+02  0.23517821823E+02 -0.30749302581E+03  0.35410175926E+03  0.17300000000E+03 0. -1.
<mgrwt>
<rscale>  2 0.17560209E+03</rscale>
<asrwt>0</asrwt>
<pdfrwt beam="1">  1       21 0.81695949E-02 0.17560209E+03</pdfrwt>
<pdfrwt beam="2">  1       21 0.90693359E-01 0.17560209E+03</pdfrwt>
<totfact> 0.12018837E+05</totfact>
</mgrwt>
</event>
<event>
 4    1  0.4429256E+000  0.1807655E+03  0.7546771E-02  0.1167064E+00
         21   -1    0    0  501  502  0.00000000000E+00  0.00000000000E+00  0.63158077258E+02  0.63158077258E+02  0.00000000000E+00 0. -1.
         21   -1    0    0  502  503 -0.00000000000E+00 -0.00000000000E+00 -0.57980851108E+03  0.57980851108E+03  0.00000000000E+00 0. -1.
          6    1    1    2  501    0 -0.42816717053E+02  0.30230925264E+02 -0.15282880997E+03  0.23671253718E+03  0.17300000000E+03 0. -1.
         -6    1    1    2    0  503  0.42816717053E+02 -0.30230925264E+02 -0.36382162385E+03  0.40625405116E+03  0.17300000000E+03 0. -1.
<mgrwt>
<rscale>  2 0.18076554E+03</rscale>
<asrwt>0</asrwt>
<pdfrwt beam="1">  1       21 0.97166271E-02 0.18076554E+03</pdfrwt>
<pdfrwt beam="2">  1       21 0.89201311E-01 0.18076554E+03</pdfrwt>
<totfact> 0.92003166E+04</totfact>
</mgrwt>
</event>
<event>
 4    1  0.4429256E+000  0.1802451E+03  0.7546771E-02  0.1167566E+00
         21   -1    0    0  503  502  0.00000000000E+00  0.00000000000E+00  0.12229207163E+04  0.12229207163E+04  0.00000000000E+00 0. -1.
         21   -1    0    0  501  503 -0.00000000000E+00 -0.00000000000E+00 -0.68112168971E+02  0.68112168971E+02  0.00000000000E+00 0. -1.
          6    1    1    2  501    0 -0.45629740943E+02  0.21845647664E+02  0.73254452894E+02  0.19456238190E+03  0.17300000000E+03 0. -1.
         -6    1    1    2    0  502  0.45629740943E+02 -0.21845647664E+02  0.10815540944E+04  0.10964705034E+04  0.17300000000E+03 0. -1.
<mgrwt>
<rscale>  2 0.18024513E+03</rscale>
<asrwt>0</asrwt>
<pdfrwt beam="1">  1       21 0.18814163E+00 0.18024513E+03</pdfrwt>
<pdfrwt beam="2">  1       21 0.10478796E-01 0.18024513E+03</pdfrwt>
<totfact> 0.12106198E+04</totfact>
</mgrwt>
</event>
<event>
 4    1  0.4429256E+000  0.1861694E+03  0.7546771E-02  0.1161962E+00
         21   -1    0    0  501  502  0.00000000000E+00  0.00000000000E+00  0.57823041929E+03  0.57823041929E+03  0.00000000000E+00 0.  1.
         21   -1    0    0  502  503 -0.00000000000E+00 -0.00000000000E+00 -0.14009536226E+03  0.14009536226E+03  0.00000000000E+00 0.  1.
          6    1    1    2  501    0 -0.57361003220E+02 -0.37944188421E+02  0.49074039737E+03  0.52486682477E+03  0.17300000000E+03 0.  1.
         -6    1    1    2    0  503  0.57361003220E+02  0.37944188421E+02 -0.52605340340E+02  0.19345895678E+03  0.17300000000E+03 0.  1.
<mgrwt>
<rscale>  2 0.18616940E+03</rscale>
<asrwt>0</asrwt>
<pdfrwt beam="1">  1       21 0.88958524E-01 0.18616940E+03</pdfrwt>
<pdfrwt beam="2">  1       21 0.21553133E-01 0.18616940E+03</pdfrwt>
<totfact> 0.21737081E+04</totfact>
</mgrwt>
</event>
<event>
 4    1  0.4429256E+000  0.2828539E+03  0.7546771E-02  0.1094140E+00
         21   -1    0    0  501  502  0.00000000000E+00  0.00000000000E+00  0.16095804776E+03  0.16095804776E+03  0.00000000000E+00 0.  1.
         21   -1    0    0  502  503 -0.00000000000E+00 -0.00000000000E+00 -0.57090359713E+03  0.57090359713E+03  0.00000000000E+00 0. -1.
          6    1    1    2  501    0  0.22295109832E+03  0.19239364529E+02 -0.73370258827E+02  0.29221488715E+03  0.17300000000E+03 0.  1.
         -6    1    1    2    0  503 -0.22295109832E+03 -0.19239364529E+02 -0.33657529055E+03  0.43964675775E+03  0.17300000000E+03 0. -1.
<mgrwt>
<rscale>  2 0.28285393E+03</rscale>
<asrwt>0</asrwt>
<pdfrwt beam="1">  1       21 0.24762776E-01 0.28285393E+03</pdfrwt>
<pdfrwt beam="2">  1       21 0.87831323E-01 0.28285393E+03</pdfrwt>
<totfact> 0.16327768E+04</totfact>
</mgrwt>
</event>
<event>
 4    1  0.4429256E+000  0.2631216E+03  0.7546771E-02  0.1105282E+00
         21   -1    0    0  501  502  0.00000000000E+00  0.00000000000E+00  0.34976750454E+03  0.34976750454E+03  0.00000000000E+00 0.  1.
         21   -1    0    0  502  503 -0.00000000000E+00 -0.00000000000E+00 -0.26251266483E+03  0.26251266483E+03  0.00000000000E+00 0.  1.
          6    1    1    2  501    0  0.77014139328E+02  0.18268221208E+03  0.19546159477E+03  0.32777767358E+03  0.17300000000E+03 0.  1.
         -6    1    1    2    0  503 -0.77014139328E+02 -0.18268221208E+03 -0.10820675506E+03  0.28450249578E+03  0.17300000000E+03 0.  1.
<mgrwt>
<rscale>  2 0.26312158E+03</rscale>
<asrwt>0</asrwt>
<pdfrwt beam="1">  1       21 0.53810386E-01 0.26312158E+03</pdfrwt>
<pdfrwt beam="2">  1       21 0.40386564E-01 0.26312158E+03</pdfrwt>
<totfact> 0.18579530E+04</totfact>
</mgrwt>
</event>
<event>
 4    1  0.4429256E+000  0.2565856E+03  0.7546771E-02  0.1109212E+00
         21   -1    0    0  501  502  0.00000000000E+00  0.00000000000E+00  0.33711709611E+03  0.33711709611E+03  0.00000000000E+00 0.  1.
         21   -1    0    0  502  503 -0.00000000000E+00 -0.00000000000E+00 -0.19568762189E+03  0.19568762189E+03  0.00000000000E+00 0. -1.
          6    1    1    2  501    0  0.35556551912E+01  0.18945856825E+03  0.82696674027E+02  0.26958288459E+03  0.17300000000E+03 0. -1.
         -6    1    1    2    0  503 -0.35556551912E+01 -0.18945856825E+03  0.58732800191E+02  0.26322183342E+03  0.17300000000E+03 0.  1.
<mgrwt>
<rscale>  2 0.25658564E+03</rscale>
<asrwt>0</asrwt>
<pdfrwt beam="1">  1       21 0.51864168E-01 0.25658564E+03</pdfrwt>
<pdfrwt beam="2">  1       21 0.30105788E-01 0.25658564E+03</pdfrwt>
<totfact> 0.36241817E+04</totfact>
</mgrwt>
</event>
<event>
 4    1  0.4429256E+000  0.1872431E+03  0.7546771E-02  0.1160972E+00
         21   -1    0    0  503  502  0.00000000000E+00  0.00000000000E+00  0.45472173866E+03  0.45472173866E+03  0.00000000000E+00 0. -1.
         21   -1    0    0  501  503 -0.00000000000E+00 -0.00000000000E+00 -0.86407395138E+02  0.86407395138E+02  0.00000000000E+00 0. -1.
          6    1    1    2  501    0 -0.43948464124E+02 -0.56564082196E+02  0.95367491034E+02  0.21013072417E+03  0.17300000000E+03 0. -1.
         -6    1    1    2    0  502  0.43948464124E+02  0.56564082196E+02  0.27294685249E+03  0.33099840963E+03  0.17300000000E+03 0. -1.
<mgrwt>
<rscale>  2 0.18724306E+03</rscale>
<asrwt>0</asrwt>
<pdfrwt beam="1">  1       21 0.69957189E-01 0.18724306E+03</pdfrwt>
<pdfrwt beam="2">  1       21 0.13293446E-01 0.18724306E+03</pdfrwt>
<totfact> 0.90789608E+04</totfact>
</mgrwt>
</event>
<event>
 4    1  0.4429256E+000  0.2298006E+03  0.7546771E-02  0.1126780E+00
         21   -1    0    0  503  502  0.00000000000E+00  0.00000000000E+00  0.77965996746E+02  0.77965996746E+02  0.00000000000E+00 0. -1.
         21   -1    0    0  501  503 -0.00000000000E+00 -0.00000000000E+00 -0.68322973136E+03  0.68322973136E+03  0.00000000000E+00 0. -1.
          6    1    1    2  501    0 -0.57104416696E+02  0.14006571592E+03 -0.33801390451E+03  0.40873184219E+03  0.17300000000E+03 0. -1.
         -6    1    1    2    0  502  0.57104416696E+02 -0.14006571592E+03 -0.26724983011E+03  0.35246388591E+03  0.17300000000E+03 0. -1.
<mgrwt>
<rscale>  2 0.22980061E+03</rscale>
<asrwt>0</asrwt>
<pdfrwt beam="1">  1       21 0.11994768E-01 0.22980061E+03</pdfrwt>
<pdfrwt beam="2">  1       21 0.10511227E+00 0.22980061E+03</pdfrwt>
<totfact> 0.41990696E+04</totfact>
</mgrwt>
</event>
<event>
 4    1  0.4429256E+000  0.1748061E+03  0.7546771E-02  0.1172927E+00
         21   -1    0    0  501  502  0.00000000000E+00  0.00000000000E+00  0.12851936819E+03  0.12851936819E+03  0.00000000000E+00 0.  1.
         21   -1    0    0  502  503 -0.00000000000E+00 -0.00000000000E+00 -0.42480421002E+03  0.42480421002E+03  0.00000000000E+00 0.  1.
          6    1    1    2  501    0  0.14407581828E+02 -0.20508059553E+02  0.35436727522E+02  0.17836176882E+03  0.17300000000E+03 0.  1.
         -6    1    1    2    0  503 -0.14407581828E+02  0.20508059553E+02 -0.33172156935E+03  0.37496180938E+03  0.17300000000E+03 0.  1.
<mgrwt>
<rscale>  2 0.17480606E+03</rscale>
<asrwt>0</asrwt>
<pdfrwt beam="1">  1       21 0.19772211E-01 0.17480606E+03</pdfrwt>
<pdfrwt beam="2">  1       21 0.65354494E-01 0.17480606E+03</pdfrwt>
<totfact> 0.51227327E+04</totfact>
</mgrwt>
</event>
<event>
 4    1  0.4429256E+000  0.1803854E+03  0.7546771E-02  0.1167431E+00
         21   -1    0    0  501  502  0.00000000000E+00  0.00000000000E+00  0.63604564465E+03  0.63604564465E+03  0.00000000000E+00 0. -1.
         21   -1    0    0  502  503 -0.00000000000E+00 -0.00000000000E+00 -0.18963279891E+03  0.18963279891E+03  0.00000000000E+00 0. -1.
          6    1    1    2  501    0  0.50008998559E+02  0.10440300880E+02  0.57599084969E+03  0.60357630731E+03  0.17300000000E+03 0. -1.
         -6    1    1    2    0  503 -0.50008998559E+02 -0.10440300880E+02 -0.12957800395E+03  0.22210213625E+03  0.17300000000E+03 0. -1.
<mgrwt>
<rscale>  2 0.18038542E+03</rscale>
<asrwt>0</asrwt>
<pdfrwt beam="1">  1       21 0.97853175E-01 0.18038542E+03</pdfrwt>
<pdfrwt beam="2">  1       21 0.29174277E-01 0.18038542E+03</pdfrwt>
<totfact> 0.98078574E+03</totfact>
</mgrwt>
</event>
<event>
 4    1  0.4429256E+000  0.2250889E+03  0.7546771E-02  0.1130145E+00
         21   -1    0    0  501  502  0.00000000000E+00  0.00000000000E+00  0.51916823486E+03  0.51916823486E+03  0.00000000000E+00 0. -1.
         21   -1    0    0  502  503 -0.00000000000E+00 -0.00000000000E+00 -0.11281419607E+03  0.11281419607E+03  0.00000000000E+00 0.  1.
          6    1    1    2  501    0  0.14196676775E+03  0.24113703621E+02  0.31926216250E+03  0.39063200362E+03  0.17300000000E+03 0. -1.
         -6    1    1    2    0  503 -0.14196676775E+03 -0.24113703621E+02  0.87091876291E+02  0.24135042731E+03  0.17300000000E+03 0.  1.
<mgrwt>
<rscale>  2 0.22508895E+03</rscale>
<asrwt>0</asrwt>
<pdfrwt beam="1">  1       21 0.79872035E-01 0.22508895E+03</pdfrwt>
<pdfrwt beam="2">  1       21 0.17356030E-01 0.22508895E+03</pdfrwt>
<totfact> 0.40778917E+04</totfact>
</mgrwt>
</event>
<event>
 4    1  0.4429256E+000  0.2397926E+03  0.7546771E-02  0.1119931E+00
         21   -1    0    0  503  502  0.00000000000E+00  0.00000000000E+00  0.60810685552E+03  0.60810685552E+03  0.00000000000E+00 0.  1.
         21   -1    0    0  501  503 -0.00000000000E+00 -0.00000000000E+00 -0.10769968924E+03  0.10769968924E+03  0.00000000000E+00 0.  1.
          6    1    1    2  501    0 -0.10151755819E+02  0.16573603622E+03  0.37523174538E+03  0.44530815689E+03  0.17300000000E+03 0.  1.
         -6    1    1    2    0  502  0.10151755819E+02 -0.16573603622E+03  0.12517542089E+03  0.27049838787E+03  0.17300000000E+03 0.  1.
<mgrwt>
<rscale>  2 0.23979260E+03</rscale>
<asrwt>0</asrwt>
<pdfrwt beam="1">  1       21 0.93554899E-01 0.23979260E+03</pdfrwt>
<pdfrwt beam="2">  1       21 0.16569183E-01 0.23979260E+03</pdfrwt>
<totfact> 0.30630754E+04</totfact>
</mgrwt>
</event>
<event>
 4    1  0.4429256E+000  0.3068604E+03  0.7546771E-02  0.1081861E+00
         21   -1    0    0  503  502  0.00000000000E+00  0.00000000000E+00  0.64796650120E+03  0.64796650120E+03  0.00000000000E+00 0. -1.
         21   -1    0    0  501  503 -0.00000000000E+00 -0.00000000000E+00 -0.25925295763E+03  0.25925295763E+03  0.00000000000E+00 0. -1.
          6    1    1    2  501    0  0.20304064804E+03 -0.15168655757E+03 -0.10634969077E+03  0.32476695219E+03  0.17300000000E+03 0. -1.
         -6    1    1    2    0  502 -0.20304064804E+03  0.15168655757E+03  0.49506323434E+03  0.58245250665E+03  0.17300000000E+03 0. -1.
<mgrwt>
<rscale>  2 0.30686042E+03</rscale>
<asrwt>0</asrwt>
<pdfrwt beam="1">  1       21 0.99687154E-01 0.30686042E+03</pdfrwt>
<pdfrwt beam="2">  1       21 0.39885071E-01 0.30686042E+03</pdfrwt>
<totfact> 0.46570335E+03</totfact>
</mgrwt>
</event>
<event>
 4    1  0.4429256E+000  0.1843818E+03  0.7546771E-02  0.1163628E+00
         21   -1    0    0  501  502  0.00000000000E+00  0.00000000000E+00  0.19009745653E+03  0.19009745653E+03  0.00000000000E+00 0.  1.
         21   -1    0    0  502  503 -0.00000000000E+00 -0.00000000000E+00 -0.23643967300E+03  0.23643967300E+03  0.00000000000E+00 0.  1.
          6    1    1    2  501    0 -0.26624783610E+02 -0.57954958981E+02  0.82093910565E+02  0.20183177779E+03  0.17300000000E+03 0.  1.
         -6    1    1    2    0  503  0.26624783610E+02  0.57954958981E+02 -0.12843612703E+03  0.22470535174E+03  0.17300000000E+03 0.  1.
<mgrwt>
<rscale>  2 0.18438182E+03</rscale>
<asrwt>0</asrwt>
<pdfrwt beam="1">  1       21 0.29245763E-01 0.18438182E+03</pdfrwt>
<pdfrwt beam="2">  1       21 0.36375334E-01 0.18438182E+03</pdfrwt>
<totfact> 0.81884012E+04</totfact>
</mgrwt>
</event>
<event>
 4    1  0.4429256E+000  0.1797626E+03  0.7546771E-02  0.1168033E+00
         21   -1    0    0  501  502  0.00000000000E+00  0.00000000000E+00  0.87748870695E+02  0.87748870695E+02  0.00000000000E+00 0. -1.
         21   -1    0    0  502  503 -0.00000000000E+00 -0.00000000000E+00 -0.38176910286E+03  0.38176910286E+03  0.00000000000E+00 0. -1.
          6    1    1    2  501    0  0.19832371234E+02 -0.44634646244E+02 -0.19116746035E+03  0.26241107540E+03  0.17300000000E+03 0. -1.
         -6    1    1    2    0  503 -0.19832371234E+02  0.44634646244E+02 -0.10285277181E+03  0.20710689815E+03  0.17300000000E+03 0. -1.
<mgrwt>
<rscale>  2 0.17976255E+03</rscale>
<asrwt>0</asrwt>
<pdfrwt beam="1">  1       21 0.13499826E-01 0.17976255E+03</pdfrwt>
<pdfrwt beam="2">  1       21 0.58733709E-01 0.17976255E+03</pdfrwt>
<totfact> 0.12938754E+05</totfact>
</mgrwt>
</event>
<event>
 4    1  0.4429256E+000  0.2518129E+03  0.7546771E-02  0.1112164E+00
         21   -1    0    0  501  502  0.00000000000E+00  0.00000000000E+00  0.24249341169E+03  0.24249341169E+03  0.00000000000E+00 0.  1.
         21   -1    0    0  502  503 -0.00000000000E+00 -0.00000000000E+00 -0.27165983717E+03  0.27165983717E+03  0.00000000000E+00 0. -1.
          6    1    1    2  501    0  0.16941067756E+03  0.69143153621E+02  0.35155387816E+02  0.25425509760E+03  0.17300000000E+03 0. -1.
         -6    1    1    2    0  503 -0.16941067756E+03 -0.69143153621E+02 -0.64321813291E+02  0.25989815126E+03  0.17300000000E+03 0. -1.
<mgrwt>
<rscale>  2 0.25181293E+03</rscale>
<asrwt>0</asrwt>
<pdfrwt beam="1">  1       21 0.37306679E-01 0.25181293E+03</pdfrwt>
<pdfrwt beam="2">  1       21 0.41793821E-01 0.25181293E+03</pdfrwt>
<totfact> 0.37132550E+04</totfact>
</mgrwt>
</event>
<event>
 4    1  0.4429256E+000  0.2008544E+03  0.7546771E-02  0.1149020E+00
         21   -1    0    0  503  502  0.00000000000E+00  0.00000000000E+00  0.84522895886E+03  0.84522895886E+03  0.00000000000E+00 0. -1.
         21   -1    0    0  501  503 -0.00000000000E+00 -0.00000000000E+00 -0.10912974655E+03  0.10912974655E+03  0.00000000000E+00 0. -1.
          6    1    1    2  501    0 -0.97232468367E+02  0.30973013986E+02  0.10122486695E+02  0.20110928680E+03  0.17300000000E+03 0. -1.
         -6    1    1    2    0  502  0.97232468367E+02 -0.30973013986E+02  0.72597672561E+03  0.75324941861E+03  0.17300000000E+03 0. -1.
<mgrwt>
<rscale>  2 0.20085438E+03</rscale>
<asrwt>0</asrwt>
<pdfrwt beam="1">  1       21 0.13003522E+00 0.20085438E+03</pdfrwt>
<pdfrwt beam="2">  1       21 0.16789192E-01 0.20085438E+03</pdfrwt>
<totfact> 0.13710144E+04</totfact>
</mgrwt>
</event>
<event>
 4    1  0.4429256E+000  0.1811816E+03  0.7546771E-02  0.1166664E+00
         21   -1    0    0  501  502  0.00000000000E+00  0.00000000000E+00  0.37927911116E+03  0.37927911116E+03  0.00000000000E+00 0. -1.
         21   -1    0    0  502  503 -0.00000000000E+00 -0.00000000000E+00 -0.13579278550E+03  0.13579278550E+03  0.00000000000E+00 0. -1.
          6    1    1    2  501    0 -0.45876924318E+02 -0.28161537075E+02  0.27682787468E+03  0.33084805660E+03  0.17300000000E+03 0. -1.
         -6    1    1    2    0  503  0.45876924318E+02  0.28161537075E+02 -0.33341549028E+02  0.18422384006E+03  0.17300000000E+03 0. -1.
<mgrwt>
<rscale>  2 0.18118158E+03</rscale>
<asrwt>0</asrwt>
<pdfrwt beam="1">  1       21 0.58350632E-01 0.18118158E+03</pdfrwt>
<pdfrwt beam="2">  1       21 0.20891198E-01 0.18118158E+03</pdfrwt>
<totfact> 0.58821848E+04</totfact>
</mgrwt>
</event>
<event>
 4    1  0.4429256E+000  0.1897285E+03  0.7546771E-02  0.1158706E+00
         21   -1    0    0  503  502  0.00000000000E+00  0.00000000000E+00  0.76142511925E+02  0.76142511925E+02  0.00000000000E+00 0.  1.
         21   -1    0    0  501  503 -0.00000000000E+00 -0.00000000000E+00 -0.55020997702E+03  0.55020997702E+03  0.00000000000E+00 0.  1.
          6    1    1    2  501    0  0.38980613530E+02 -0.67441873773E+02 -0.35453540325E+03  0.40210974463E+03  0.17300000000E+03 0.  1.
         -6    1    1    2    0  502 -0.38980613530E+02  0.67441873773E+02 -0.11953206185E+03  0.22424274432E+03  0.17300000000E+03 0.  1.
<mgrwt>
<rscale>  2 0.18972848E+03</rscale>
<asrwt>0</asrwt>
<pdfrwt beam="1">  1       21 0.11714233E-01 0.18972848E+03</pdfrwt>
<pdfrwt beam="2">  1       21 0.84647687E-01 0.18972848E+03</pdfrwt>
<totfact> 0.74207674E+04</totfact>
</mgrwt>
</event>
<event>
 4    1  0.4429256E+000  0.1834127E+03  0.7546771E-02  0.1164541E+00
         21   -1    0    0  501  502  0.00000000000E+00  0.00000000000E+00  0.17128291430E+03  0.17128291430E+03  0.00000000000E+00 0. -1.
         21   -1    0    0  502  503 -0.00000000000E+00 -0.00000000000E+00 -0.25116891066E+03  0.25116891066E+03  0.00000000000E+00 0. -1.
          6    1    1    2  501    0 -0.32654640237E+02 -0.51428370936E+02  0.58690806233E+02  0.19257417688E+03  0.17300000000E+03 0. -1.
         -6    1    1    2    0  503  0.32654640237E+02  0.51428370936E+02 -0.13857680259E+03  0.22987764807E+03  0.17300000000E+03 0. -1.
<mgrwt>
<rscale>  2 0.18341266E+03</rscale>
<asrwt>0</asrwt>
<pdfrwt beam="1">  1       21 0.26351218E-01 0.18341266E+03</pdfrwt>
<pdfrwt beam="2">  1       21 0.38641371E-01 0.18341266E+03</pdfrwt>
<totfact> 0.88759115E+04</totfact>
</mgrwt>
</event>
<event>
 4    1  0.4429256E+000  0.1813352E+03  0.7546771E-02  0.1166517E+00
         21   -1    0    0  501  502  0.00000000000E+00  0.00000000000E+00  0.38200007305E+02  0.38200007305E+02  0.00000000000E+00 0. -1.
         21   -1    0    0  502  503 -0.00000000000E+00 -0.00000000000E+00 -0.10858796589E+04  0.10858796589E+04  0.00000000000E+00 0. -1.
          6    1    1    2  501    0 -0.51600232265E+01  0.54100222300E+02 -0.26795351178E+03  0.32354527406E+03  0.17300000000E+03 0. -1.
         -6    1    1    2    0  503  0.51600232265E+01 -0.54100222300E+02 -0.77972613980E+03  0.80053439212E+03  0.17300000000E+03 0. -1.
<mgrwt>
<rscale>  2 0.18133521E+03</rscale>
<asrwt>0</asrwt>
<pdfrwt beam="1">  1       21 0.58769248E-02 0.18133521E+03</pdfrwt>
<pdfrwt beam="2">  1       21 0.16705839E+00 0.18133521E+03</pdfrwt>
<totfact> 0.46042728E+04</totfact>
</mgrwt>
</event>
<event>
 4    1  0.4429256E+000  0.1982786E+03  0.7546771E-02  0.1151200E+00
         21   -1    0    0  503  502  0.00000000000E+00  0.00000000000E+00  0.18416384153E+04  0.18416384153E+04  0.00000000000E+00 0.  1.
         21   -1    0    0  501  503 -0.00000000000E+00 -0.00000000000E+00 -0.23048039650E+02  0.23048039650E+02  0.00000000000E+00 0.  1.
          6    1    1    2  501    0 -0.74288425959E+02 -0.62182259090E+02  0.65604469554E+03  0.68535322726E+03  0.17300000000E+03 0. -1.
         -6    1    1    2    0  502  0.74288425959E+02  0.62182259090E+02  0.11625456801E+04  0.11793332277E+04  0.17300000000E+03 0. -1.
<mgrwt>
<rscale>  2 0.19827860E+03</rscale>
<asrwt>0</asrwt>
<pdfrwt beam="1">  1       21 0.28332887E+00 0.19827860E+03</pdfrwt>
<pdfrwt beam="2">  1       21 0.35458537E-02 0.19827860E+03</pdfrwt>
<totfact> 0.20300112E+04</totfact>
</mgrwt>
</event>
<event>
 4    1  0.4429256E+000  0.1820618E+03  0.7546771E-02  0.1165822E+00
         21   -1    0    0  501  502  0.00000000000E+00  0.00000000000E+00  0.39826021442E+02  0.39826021442E+02  0.00000000000E+00 0.  1.
         21   -1    0    0  502  503 -0.00000000000E+00 -0.00000000000E+00 -0.12322081078E+04  0.12322081078E+04  0.00000000000E+00 0.  1.
          6    1    1    2  501    0  0.56310206951E+02  0.68314667496E+01 -0.23385107697E+03  0.29636604823E+03  0.17300000000E+03 0.  1.
         -6    1    1    2    0  503 -0.56310206951E+02 -0.68314667496E+01 -0.95853100939E+03  0.97566808102E+03  0.17300000000E+03 0.  1.
<mgrwt>
<rscale>  2 0.18206183E+03</rscale>
<asrwt>0</asrwt>
<pdfrwt beam="1">  1       21 0.61270797E-02 0.18206183E+03</pdfrwt>
<pdfrwt beam="2">  1       21 0.18957049E+00 0.18206183E+03</pdfrwt>
<totfact> 0.30084795E+04</totfact>
</mgrwt>
</event>
<event>
 4    1  0.4429256E+000  0.1758062E+03  0.7546771E-02  0.1171925E+00
         21   -1    0    0  503  502  0.00000000000E+00  0.00000000000E+00  0.51825011452E+02  0.51825011452E+02  0.00000000000E+00 0.  1.
         21   -1    0    0  501  503 -0.00000000000E+00 -0.00000000000E+00 -0.66881680661E+03  0.66881680661E+03  0.00000000000E+00 0.  1.
          6    1    1    2  501    0 -0.22464681320E+00  0.31285193834E+02 -0.42707048018E+03  0.46184089128E+03  0.17300000000E+03 0.  1.
         -6    1    1    2    0  502  0.22464681320E+00 -0.31285193834E+02 -0.18992131498E+03  0.25880092678E+03  0.17300000000E+03 0.  1.
<mgrwt>
<rscale>  2 0.17580618E+03</rscale>
<asrwt>0</asrwt>
<pdfrwt beam="1">  1       21 0.79730788E-02 0.17580618E+03</pdfrwt>
<pdfrwt beam="2">  1       21 0.10289489E+00 0.17580618E+03</pdfrwt>
<totfact> 0.93244364E+04</totfact>
</mgrwt>
</event>
<event>
 4    1  0.4429256E+000  0.1885514E+03  0.7546771E-02  0.1159774E+00
         21   -1    0    0  503  502  0.00000000000E+00  0.00000000000E+00  0.64810882588E+03  0.64810882588E+03  0.00000000000E+00 0.  1.
         21   -1    0    0  501  503 -0.00000000000E+00 -0.00000000000E+00 -0.74553070384E+02  0.74553070384E+02  0.00000000000E+00 0. -1.
          6    1    1    2  501    0  0.71012227171E+02 -0.24080894636E+02  0.10104415516E+03  0.21391948763E+03  0.17300000000E+03 0. -1.
         -6    1    1    2    0  502 -0.71012227171E+02  0.24080894636E+02  0.47251160034E+03  0.50874240864E+03  0.17300000000E+03 0.  1.
<mgrwt>
<rscale>  2 0.18855139E+03</rscale>
<asrwt>0</asrwt>
<pdfrwt beam="1">  1       21 0.99709046E-01 0.18855139E+03</pdfrwt>
<pdfrwt beam="2">  1       21 0.11469704E-01 0.18855139E+03</pdfrwt>
<totfact> 0.52694390E+04</totfact>
</mgrwt>
</event>
<event>
 4    1  0.4429256E+000  0.1955502E+03  0.7546771E-02  0.1153549E+00
         21   -1    0    0  503  502  0.00000000000E+00  0.00000000000E+00  0.14083706765E+03  0.14083706765E+03  0.00000000000E+00 0. -1.
         21   -1    0    0  501  503 -0.00000000000E+00 -0.00000000000E+00 -0.29648066234E+03  0.29648066234E+03  0.00000000000E+00 0. -1.
          6    1    1    2  501    0 -0.49713644841E+02 -0.76416216637E+02 -0.14126850052E+03  0.24123986795E+03  0.17300000000E+03 0. -1.
         -6    1    1    2    0  502  0.49713644841E+02  0.76416216637E+02 -0.14375094175E+02  0.19607786204E+03  0.17300000000E+03 0. -1.
<mgrwt>
<rscale>  2 0.19555021E+03</rscale>
<asrwt>0</asrwt>
<pdfrwt beam="1">  1       21 0.21667241E-01 0.19555021E+03</pdfrwt>
<pdfrwt beam="2">  1       21 0.45612409E-01 0.19555021E+03</pdfrwt>
<totfact> 0.91448777E+04</totfact>
</mgrwt>
</event>
<event>
 4    1  0.4429256E+000  0.2241095E+03  0.7546771E-02  0.1130856E+00
         21   -1    0    0  501  502  0.00000000000E+00  0.00000000000E+00  0.39875305278E+03  0.39875305278E+03  0.00000000000E+00 0. -1.
         21   -1    0    0  502  503 -0.00000000000E+00 -0.00000000000E+00 -0.12843117923E+03  0.12843117923E+03  0.00000000000E+00 0.  1.
          6    1    1    2  501    0 -0.69336132862E+02  0.12445308027E+03  0.98562703315E+02  0.24482580541E+03  0.17300000000E+03 0.  1.
         -6    1    1    2    0  503  0.69336132862E+02 -0.12445308027E+03  0.17175917024E+03  0.28235842660E+03  0.17300000000E+03 0. -1.
<mgrwt>
<rscale>  2 0.22410950E+03</rscale>
<asrwt>0</asrwt>
<pdfrwt beam="1">  1       21 0.61346623E-01 0.22410950E+03</pdfrwt>
<pdfrwt beam="2">  1       21 0.19758643E-01 0.22410950E+03</pdfrwt>
<totfact> 0.57497995E+04</totfact>
</mgrwt>
</event>
<event>
 4    1  0.4429256E+000  0.2757663E+03  0.7546771E-02  0.1098024E+00
         21   -1    0    0  503  502  0.00000000000E+00  0.00000000000E+00  0.36965076363E+03  0.36965076363E+03  0.00000000000E+00 0. -1.
         21   -1    0    0  501  503 -0.00000000000E+00 -0.00000000000E+00 -0.44449558872E+03  0.44449558872E+03  0.00000000000E+00 0.  1.
          6    1    1    2  501    0  0.13130189430E+03 -0.16993484535E+03 -0.33577348897E+03  0.43450071923E+03  0.17300000000E+03 0.  1.
         -6    1    1    2    0  502 -0.13130189430E+03  0.16993484535E+03  0.26092866389E+03  0.37964563313E+03  0.17300000000E+03 0. -1.
<mgrwt>
<rscale>  2 0.27576628E+03</rscale>
<asrwt>0</asrwt>
<pdfrwt beam="1">  1       21 0.56869348E-01 0.27576628E+03</pdfrwt>
<pdfrwt beam="2">  1       21 0.68383937E-01 0.27576628E+03</pdfrwt>
<totfact> 0.53666061E+03</totfact>
</mgrwt>
</event>
<event>
 4    1  0.4429256E+000  0.4026771E+03  0.7546771E-02  0.1042857E+00
         21   -1    0    0  503  502  0.00000000000E+00  0.00000000000E+00  0.69735274271E+03  0.69735274271E+03  0.00000000000E+00 0. -1.
         21   -1    0    0  501  503 -0.00000000000E+00 -0.00000000000E+00 -0.23786880550E+03  0.23786880550E+03  0.00000000000E+00 0.  1.
          6    1    1    2  501    0  0.26049558071E+03  0.25369650795E+03  0.15962542002E+03  0.43316179475E+03  0.17300000000E+03 0.  1.
         -6    1    1    2    0  502 -0.26049558071E+03 -0.25369650795E+03  0.29985851718E+03  0.50205975346E+03  0.17300000000E+03 0. -1.
<mgrwt>
<rscale>  2 0.40267712E+03</rscale>
<asrwt>0</asrwt>
<pdfrwt beam="1">  1       21 0.10728504E+00 0.40267712E+03</pdfrwt>
<pdfrwt beam="2">  1       21 0.36595201E-01 0.40267712E+03</pdfrwt>
<totfact> 0.44475920E+03</totfact>
</mgrwt>
</event>
<event>
 4    1  0.4429256E+000  0.1761593E+03  0.7546771E-02  0.1171573E+00
         21   -1    0    0  503  502  0.00000000000E+00  0.00000000000E+00  0.11578431107E+03  0.11578431107E+03  0.00000000000E+00 0. -1.
         21   -1    0    0  501  503 -0.00000000000E+00 -0.00000000000E+00 -0.10957361688E+04  0.10957361688E+04  0.00000000000E+00 0. -1.
          6    1    1    2  501    0  0.20111642896E+02  0.26431174786E+02 -0.10164651085E+04  0.10316168872E+04  0.17300000000E+03 0. -1.
         -6    1    1    2    0  502 -0.20111642896E+02 -0.26431174786E+02  0.36513250748E+02  0.17990359268E+03  0.17300000000E+03 0. -1.
<mgrwt>
<rscale>  2 0.17615926E+03</rscale>
<asrwt>0</asrwt>
<pdfrwt beam="1">  1       21 0.17812971E-01 0.17615926E+03</pdfrwt>
<pdfrwt beam="2">  1       21 0.16857480E+00 0.17615926E+03</pdfrwt>
<totfact> 0.63403724E+03</totfact>
</mgrwt>
</event>
<event>
 4    1  0.4429256E+000  0.1942301E+03  0.7546771E-02  0.1154700E+00
         21   -1    0    0  503  502  0.00000000000E+00  0.00000000000E+00  0.17040087242E+03  0.17040087242E+03  0.00000000000E+00 0.  1.
         21   -1    0    0  501  503 -0.00000000000E+00 -0.00000000000E+00 -0.42643798902E+03  0.42643798902E+03  0.00000000000E+00 0.  1.
          6    1    1    2  501    0 -0.39630984534E+02  0.78903331289E+02 -0.33494931114E+03  0.38719038167E+03  0.17300000000E+03 0.  1.
         -6    1    1    2    0  502  0.39630984534E+02 -0.78903331289E+02  0.78912194542E+02  0.20964847977E+03  0.17300000000E+03 0.  1.
<mgrwt>
<rscale>  2 0.19423015E+03</rscale>
<asrwt>0</asrwt>
<pdfrwt beam="1">  1       21 0.26215519E-01 0.19423015E+03</pdfrwt>
<pdfrwt beam="2">  1       21 0.65605845E-01 0.19423015E+03</pdfrwt>
<totfact> 0.29517563E+04</totfact>
</mgrwt>
</event>
<event>
 4    1  0.4429256E+000  0.1823695E+03  0.7546771E-02  0.1165529E+00
         21   -1    0    0  501  502  0.00000000000E+00  0.00000000000E+00  0.62876045802E+03  0.62876045802E+03  0.00000000000E+00 0.  1.
         21   -1    0    0  502  503 -0.00000000000E+00 -0.00000000000E+00 -0.74920032533E+02  0.74920032533E+02  0.00000000000E+00 0.  1.
          6    1    1    2  501    0  0.22388764452E+02  0.53182642867E+02  0.46768538047E+03  0.50198432783E+03  0.17300000000E+03 0.  1.
         -6    1    1    2    0  503 -0.22388764452E+02 -0.53182642867E+02  0.86155045011E+02  0.20169616272E+03  0.17300000000E+03 0.  1.
<mgrwt>
<rscale>  2 0.18236954E+03</rscale>
<asrwt>0</asrwt>
<pdfrwt beam="1">  1       21 0.96732375E-01 0.18236954E+03</pdfrwt>
<pdfrwt beam="2">  1       21 0.11526159E-01 0.18236954E+03</pdfrwt>
<totfact> 0.56268809E+04</totfact>
</mgrwt>
</event>
<event>
 4    1  0.4429256E+000  0.2477433E+03  0.7546771E-02  0.1114739E+00
         21   -1    0    0  501  502  0.00000000000E+00  0.00000000000E+00  0.76263932062E+02  0.76263932062E+02  0.00000000000E+00 0.  1.
         21   -1    0    0  502  503 -0.00000000000E+00 -0.00000000000E+00 -0.10383951176E+04  0.10383951176E+04  0.00000000000E+00 0. -1.
          6    1    1    2  501    0 -0.83138091550E+02 -0.15663909339E+03 -0.21672231153E+03  0.32915848487E+03  0.17300000000E+03 0. -1.
         -6    1    1    2    0  503  0.83138091550E+02  0.15663909339E+03 -0.74540887396E+03  0.78550056475E+03  0.17300000000E+03 0. -1.
<mgrwt>
<rscale>  2 0.24774331E+03</rscale>
<asrwt>0</asrwt>
<pdfrwt beam="1">  1       21 0.11732913E-01 0.24774331E+03</pdfrwt>
<pdfrwt beam="2">  1       21 0.15975309E+00 0.24774331E+03</pdfrwt>
<totfact> 0.14891150E+04</totfact>
</mgrwt>
</event>
<event>
 4    1  0.4429256E+000  0.2090172E+03  0.7546771E-02  0.1142347E+00
         21   -1    0    0  503  502  0.00000000000E+00  0.00000000000E+00  0.74224425434E+02  0.74224425434E+02  0.00000000000E+00 0. -1.
         21   -1    0    0  501  503 -0.00000000000E+00 -0.00000000000E+00 -0.66310919744E+03  0.66310919744E+03  0.00000000000E+00 0.  1.
          6    1    1    2  501    0  0.91784892570E+02  0.73039081132E+02 -0.41802550139E+03  0.46736869139E+03  0.17300000000E+03 0.  1.
         -6    1    1    2    0  502 -0.91784892570E+02 -0.73039081132E+02 -0.17085927061E+03  0.26996493148E+03  0.17300000000E+03 0. -1.
<mgrwt>
<rscale>  2 0.20901716E+03</rscale>
<asrwt>0</asrwt>
<pdfrwt beam="1">  1       21 0.11419142E-01 0.20901716E+03</pdfrwt>
<pdfrwt beam="2">  1       21 0.10201680E+00 0.20901716E+03</pdfrwt>
<totfact> 0.49775426E+04</totfact>
</mgrwt>
</event>
<event>
 4    1  0.4429256E+000  0.2714773E+03  0.7546771E-02  0.1100437E+00
         21   -1    0    0  503  502  0.00000000000E+00  0.00000000000E+00  0.27995072853E+03  0.27995072853E+03  0.00000000000E+00 0.  1.
         21   -1    0    0  501  503 -0.00000000000E+00 -0.00000000000E+00 -0.26348256187E+03  0.26348256187E+03  0.00000000000E+00 0.  1.
          6    1    1    2  501    0  0.19794038502E+02 -0.20827649530E+03  0.34168834524E+00  0.27147747458E+03  0.17300000000E+03 0.  1.
         -6    1    1    2    0  502 -0.19794038502E+02  0.20827649530E+03  0.16126478316E+02  0.27195581582E+03  0.17300000000E+03 0.  1.
<mgrwt>
<rscale>  2 0.27147726E+03</rscale>
<asrwt>0</asrwt>
<pdfrwt beam="1">  1       21 0.43069343E-01 0.27147726E+03</pdfrwt>
<pdfrwt beam="2">  1       21 0.40535779E-01 0.27147726E+03</pdfrwt>
<totfact> 0.29265325E+04</totfact>
</mgrwt>
</event>
<event>
 4    1  0.4429256E+000  0.1987052E+03  0.7546771E-02  0.1150836E+00
         21   -1    0    0  503  502  0.00000000000E+00  0.00000000000E+00  0.39255805397E+03  0.39255805397E+03  0.00000000000E+00 0. -1.
         21   -1    0    0  501  503 -0.00000000000E+00 -0.00000000000E+00 -0.11416194701E+03  0.11416194701E+03  0.00000000000E+00 0. -1.
          6    1    1    2  501    0 -0.85011554533E+02  0.48247077736E+02  0.51810825469E+02  0.20534874373E+03  0.17300000000E+03 0. -1.
         -6    1    1    2    0  502  0.85011554533E+02 -0.48247077736E+02  0.22658528148E+03  0.30137125725E+03  0.17300000000E+03 0. -1.
<mgrwt>
<rscale>  2 0.19870517E+03</rscale>
<asrwt>0</asrwt>
<pdfrwt beam="1">  1       21 0.60393546E-01 0.19870517E+03</pdfrwt>
<pdfrwt beam="2">  1       21 0.17563377E-01 0.19870517E+03</pdfrwt>
<totfact> 0.74862814E+04</totfact>
</mgrwt>
</event>
<event>
 4    1  0.4429256E+000  0.2598609E+03  0.7546771E-02  0.1107227E+00
         21   -1    0    0  503  502  0.00000000000E+00  0.00000000000E+00  0.31897934436E+03  0.31897934436E+03  0.00000000000E+00 0.  1.
         21   -1    0    0  501  503 -0.00000000000E+00 -0.00000000000E+00 -0.21187417513E+03  0.21187417513E+03  0.00000000000E+00 0.  1.
          6    1    1    2  501    0  0.45390041111E+02 -0.18851637724E+03  0.61179721533E+02  0.26696561323E+03  0.17300000000E+03 0.  1.
         -6    1    1    2    0  502 -0.45390041111E+02  0.18851637724E+03  0.45925447699E+02  0.26388790625E+03  0.17300000000E+03 0.  1.
<mgrwt>
<rscale>  2 0.25986089E+03</rscale>
<asrwt>0</asrwt>
<pdfrwt beam="1">  1       21 0.49073745E-01 0.25986089E+03</pdfrwt>
<pdfrwt beam="2">  1       21 0.32596027E-01 0.25986089E+03</pdfrwt>
<totfact> 0.34757945E+04</totfact>
</mgrwt>
</event>
<event>
 4    1  0.4429256E+000  0.2591913E+03  0.7546771E-02  0.1107630E+00
         21   -1    0    0  501  502  0.00000000000E+00  0.00000000000E+00  0.99136129288E+02  0.99136129288E+02  0.00000000000E+00 0.  1.
         21   -1    0    0  502  503 -0.00000000000E+00 -0.00000000000E+00 -0.69876914787E+03  0.69876914787E+03  0.00000000000E+00 0. -1.
          6    1    1    2  501    0 -0.79667409522E+02 -0.17579605509E+03 -0.23046825876E+03  0.34683680229E+03  0.17300000000E+03 0.  1.
         -6    1    1    2    0  503  0.79667409522E+02  0.17579605509E+03 -0.36916475983E+03  0.45106847487E+03  0.17300000000E+03 0. -1.
<mgrwt>
<rscale>  2 0.25919134E+03</rscale>
<asrwt>0</asrwt>
<pdfrwt beam="1">  1       21 0.15251712E-01 0.25919134E+03</pdfrwt>
<pdfrwt beam="2">  1       21 0.10750295E+00 0.25919134E+03</pdfrwt>
<totfact> 0.25355707E+04</totfact>
</mgrwt>
</event>
<event>
 4    1  0.4429256E+000  0.1933544E+03  0.7546771E-02  0.1155470E+00
         21   -1    0    0  503  502  0.00000000000E+00  0.00000000000E+00  0.62464733192E+03  0.62464733192E+03  0.00000000000E+00 0.  1.
         21   -1    0    0  501  503 -0.00000000000E+00 -0.00000000000E+00 -0.11966133949E+03  0.11966133949E+03  0.00000000000E+00 0.  1.
          6    1    1    2  501    0 -0.66290866925E+02 -0.55339266143E+02 -0.10614631259E+02  0.19364551069E+03  0.17300000000E+03 0.  1.
         -6    1    1    2    0  502  0.66290866925E+02  0.55339266143E+02  0.51560062369E+03  0.55066316071E+03  0.17300000000E+03 0.  1.
<mgrwt>
<rscale>  2 0.19335437E+03</rscale>
<asrwt>0</asrwt>
<pdfrwt beam="1">  1       21 0.96099587E-01 0.19335437E+03</pdfrwt>
<pdfrwt beam="2">  1       21 0.18409437E-01 0.19335437E+03</pdfrwt>
<totfact> 0.24274950E+04</totfact>
</mgrwt>
</event>
