<event>
 4    1  0.3211568E-002  0.1781646E+03  0.7818608E-02  0.1169591E+00
         -2   -1    0    0    0  501 -0.00000000000E+00  0.00000000000E+00  0.31455619747E+02  0.31455619747E+02  0.00000000000E+00 0.  1.
          2   -1    0    0  502    0  0.00000000000E+00 -0.00000000000E+00 -0.10280699082E+04  0.10280699082E+04  0.00000000000E+00 0. -1.
          6    1    1    2  502    0 -0.38656526898E+02 -0.25773789110E+02 -0.57022385893E+03  0.59740929401E+03  0.17200000000E+03 0. -1.
         -6    1    1    2    0  501  0.38656526898E+02  0.25773789110E+02 -0.42639042948E+03  0.46211623390E+03  0.17200000000E+03 0.  1.
</event>
<event>
 4    1  0.3211568E-002  0.4383960E+03  0.7818608E-02  0.1031240E+00
         -2   -1    0    0    0  501 -0.00000000000E+00  0.00000000000E+00  0.17925958242E+03  0.17925958242E+03  0.00000000000E+00 0.  1.
          2   -1    0    0  502    0  0.00000000000E+00 -0.00000000000E+00 -0.16542793107E+04  0.16542793107E+04  0.00000000000E+00 0. -1.
          6    1    1    2  502    0  0.28914714175E+03 -0.28107116887E+03 -0.12813481694E+04  0.13542688813E+04  0.17200000000E+03 0. -1.
         -6    1    1    2    0  501 -0.28914714175E+03  0.28107116887E+03 -0.19367155888E+03  0.47927001186E+03  0.17200000000E+03 0.  1.
</event>
<event>
 4    1  0.3211568E-002  0.2925970E+03  0.7818608E-02  0.1089001E+00
         -2   -1    0    0    0  501 -0.00000000000E+00  0.00000000000E+00  0.18964001097E+03  0.18964001097E+03  0.00000000000E+00 0.  1.
          2   -1    0    0  502    0  0.00000000000E+00 -0.00000000000E+00 -0.46521991962E+03  0.46521991962E+03  0.00000000000E+00 0. -1.
          6    1    1    2  502    0 -0.59217444376E+02 -0.22917738731E+03 -0.19412195444E+03  0.35113574835E+03  0.17200000000E+03 0. -1.
         -6    1    1    2    0  501  0.59217444376E+02  0.22917738731E+03 -0.81457954207E+02  0.30372418224E+03  0.17200000000E+03 0.  1.
</event>
<event>
 4    1  0.3211568E-002  0.2936240E+03  0.7818608E-02  0.1088472E+00
         -2   -1    0    0    0  501 -0.00000000000E+00  0.00000000000E+00  0.21799079538E+04  0.21799079538E+04  0.00000000000E+00 0.  1.
          2   -1    0    0  502    0  0.00000000000E+00 -0.00000000000E+00 -0.58943956628E+02  0.58943956628E+02  0.00000000000E+00 0. -1.
          6    1    1    2  502    0  0.14184084699E+03 -0.19108179593E+03  0.41837059457E+03  0.51112526157E+03  0.17200000000E+03 0. -1.
         -6    1    1    2    0  501 -0.14184084699E+03  0.19108179593E+03  0.17025934026E+04  0.17277266488E+04  0.17200000000E+03 0.  1.
</event>
<event>
 4    1  0.3211568E-002  0.3852131E+03  0.7818608E-02  0.1049024E+00
          1   -1    0    0  502    0  0.00000000000E+00  0.00000000000E+00  0.62010660534E+03  0.62010660534E+03  0.00000000000E+00 0. -1.
         -1   -1    0    0    0  501 -0.00000000000E+00 -0.00000000000E+00 -0.36710235528E+03  0.36710235528E+03  0.00000000000E+00 0.  1.
          6    1    1    2  502    0 -0.32218454343E+03 -0.12248381669E+03  0.41774905911E+03  0.56824593422E+03  0.17200000000E+03 0. -1.
         -6    1    1    2    0  501  0.32218454343E+03  0.12248381669E+03 -0.16474480905E+03  0.41896302639E+03  0.17200000000E+03 0.  1.
</event>
<event>
 4    1  0.3211568E-002  0.1743391E+03  0.7818608E-02  0.1173397E+00
          2   -1    0    0  502    0  0.00000000000E+00  0.00000000000E+00  0.84741515670E+03  0.84741515670E+03  0.00000000000E+00 0. -1.
         -2   -1    0    0    0  501 -0.00000000000E+00 -0.00000000000E+00 -0.93134273983E+02  0.93134273983E+02  0.00000000000E+00 0.  1.
          6    1    1    2  502    0  0.28461010834E+02  0.29691098539E+00  0.74590626448E+03  0.76600931631E+03  0.17200000000E+03 0. -1.
         -6    1    1    2    0  501 -0.28461010834E+02 -0.29691098539E+00  0.83746182415E+01  0.17454011437E+03  0.17200000000E+03 0.  1.
</event>
<event>
 4    1  0.3211568E-002  0.2807916E+03  0.7818608E-02  0.1095257E+00
          1   -1    0    0  502    0  0.00000000000E+00  0.00000000000E+00  0.92360857844E+03  0.92360857844E+03  0.00000000000E+00 0. -1.
         -1   -1    0    0    0  501 -0.00000000000E+00 -0.00000000000E+00 -0.86563586557E+02  0.86563586557E+02  0.00000000000E+00 0.  1.
          6    1    1    2  502    0  0.20230430433E+03 -0.91284689144E+02  0.35909097514E+03  0.45584016327E+03  0.17200000000E+03 0. -1.
         -6    1    1    2    0  501 -0.20230430433E+03  0.91284689144E+02  0.47795401674E+03  0.55433200173E+03  0.17200000000E+03 0.  1.
</event>
<event>
 4    1  0.3211568E-002  0.2738048E+03  0.7818608E-02  0.1099122E+00
          4   -1    0    0  502    0  0.00000000000E+00  0.00000000000E+00  0.44253253078E+03  0.44253253078E+03  0.00000000000E+00 0. -1.
         -4   -1    0    0    0  501 -0.00000000000E+00 -0.00000000000E+00 -0.17772274037E+03  0.17772274037E+03  0.00000000000E+00 0.  1.
          6    1    1    2  502    0 -0.15598608905E+03  0.14509790649E+03  0.65329517385E+02  0.28149068952E+03  0.17200000000E+03 0.  1.
         -6    1    1    2    0  501  0.15598608905E+03 -0.14509790649E+03  0.19948027303E+03  0.33876458164E+03  0.17200000000E+03 0. -1.
</event>
<event>
 4    1  0.3211568E-002  0.1763944E+03  0.7818608E-02  0.1171339E+00
         -2   -1    0    0    0  501 -0.00000000000E+00  0.00000000000E+00  0.79099306425E+02  0.79099306425E+02  0.00000000000E+00 0.  1.
          2   -1    0    0  502    0  0.00000000000E+00 -0.00000000000E+00 -0.13415481905E+04  0.13415481905E+04  0.00000000000E+00 0. -1.
          6    1    1    2  502    0  0.38130221918E+02 -0.87792400170E+01 -0.12283959253E+04  0.12409961878E+04  0.17200000000E+03 0. -1.
         -6    1    1    2    0  501 -0.38130221918E+02  0.87792400170E+01 -0.34052958828E+02  0.17965130916E+03  0.17200000000E+03 0.  1.
</event>
<event>
 4    1  0.3211568E-002  0.1895352E+03  0.7818608E-02  0.1158881E+00
         -2   -1    0    0    0  501 -0.00000000000E+00  0.00000000000E+00  0.37732491812E+02  0.37732491812E+02  0.00000000000E+00 0.  1.
          2   -1    0    0  502    0  0.00000000000E+00 -0.00000000000E+00 -0.10444873552E+04  0.10444873552E+04  0.00000000000E+00 0. -1.
          6    1    1    2  502    0 -0.47587636906E+02 -0.63835767050E+02 -0.66434361797E+03  0.69085167082E+03  0.17200000000E+03 0. -1.
         -6    1    1    2    0  501  0.47587636906E+02  0.63835767050E+02 -0.34241124538E+03  0.39136817615E+03  0.17200000000E+03 0.  1.
</event>
<event>
 4    1  0.3211568E-002  0.1750424E+03  0.7818608E-02  0.1172689E+00
          2   -1    0    0  502    0  0.00000000000E+00  0.00000000000E+00  0.48460784342E+03  0.48460784342E+03  0.00000000000E+00 0. -1.
         -2   -1    0    0    0  501 -0.00000000000E+00 -0.00000000000E+00 -0.64612677123E+02  0.64612677123E+02  0.00000000000E+00 0.  1.
          6    1    1    2  502    0 -0.32456900994E+02 -0.15426403131E+01  0.25022673089E+03  0.30537394619E+03  0.17200000000E+03 0. -1.
         -6    1    1    2    0  501  0.32456900994E+02  0.15426403131E+01  0.16976843540E+03  0.24384657435E+03  0.17200000000E+03 0.  1.
</event>
<event>
 4    1  0.3211568E-002  0.3392525E+03  0.7818608E-02  0.1067115E+00
          2   -1    0    0  502    0  0.00000000000E+00  0.00000000000E+00  0.12261008885E+04  0.12261008885E+04  0.00000000000E+00 0. -1.
         -2   -1    0    0    0  501 -0.00000000000E+00 -0.00000000000E+00 -0.11158227442E+03  0.11158227442E+03  0.00000000000E+00 0.  1.
          6    1    1    2  502    0 -0.27221744183E+03 -0.10679840570E+03  0.29076902485E+03  0.44680964729E+03  0.17200000000E+03 0.  1.
         -6    1    1    2    0  501  0.27221744183E+03  0.10679840570E+03  0.82374958921E+03  0.89087351561E+03  0.17200000000E+03 0.  1.
</event>
<event>
 4    1  0.3211568E-002  0.2308510E+03  0.7818608E-02  0.1126042E+00
          1   -1    0    0  502    0  0.00000000000E+00  0.00000000000E+00  0.22417866115E+03  0.22417866115E+03  0.00000000000E+00 0. -1.
         -1   -1    0    0    0  501 -0.00000000000E+00 -0.00000000000E+00 -0.46833382565E+03  0.46833382565E+03  0.00000000000E+00 0.  1.
          6    1    1    2  502    0 -0.12397758036E+03 -0.91311219199E+02  0.12089693225E+03  0.26059210926E+03  0.17200000000E+03 0. -1.
         -6    1    1    2    0  501  0.12397758036E+03  0.91311219199E+02 -0.36505209676E+03  0.43192037754E+03  0.17200000000E+03 0.  1.
</event>
<event>
 4    1  0.3211568E-002  0.2748312E+03  0.7818608E-02  0.1098546E+00
         -4   -1    0    0    0  501 -0.00000000000E+00  0.00000000000E+00  0.59326161345E+03  0.59326161345E+03  0.00000000000E+00 0.  1.
          4   -1    0    0  502    0  0.00000000000E+00 -0.00000000000E+00 -0.14997748943E+03  0.14997748943E+03  0.00000000000E+00 0. -1.
          6    1    1    2  502    0  0.19123464852E+03 -0.96837551305E+02  0.77190727503E+02  0.28546560309E+03  0.17200000000E+03 0. -1.
         -6    1    1    2    0  501 -0.19123464852E+03  0.96837551305E+02  0.36609339652E+03  0.45777349979E+03  0.17200000000E+03 0.  1.
</event>
<event>
 4    1  0.3211568E-002  0.6071423E+03  0.7818608E-02  0.9890698E-01
         -2   -1    0    0    0  501 -0.00000000000E+00  0.00000000000E+00  0.33502722034E+03  0.33502722034E+03  0.00000000000E+00 0.  1.
          2   -1    0    0  502    0  0.00000000000E+00 -0.00000000000E+00 -0.11505586704E+04  0.11505586704E+04  0.00000000000E+00 0. -1.
          6    1    1    2  502    0 -0.44391981028E+03 -0.37679306092E+03 -0.56305100935E+03  0.82803879610E+03  0.17200000000E+03 0. -1.
         -6    1    1    2    0  501  0.44391981028E+03  0.37679306092E+03 -0.25248044068E+03  0.65754709462E+03  0.17200000000E+03 0.  1.
</event>
<event>
 4    1  0.3211568E-002  0.2074626E+03  0.7818608E-02  0.1143591E+00
         -1   -1    0    0    0  501 -0.00000000000E+00  0.00000000000E+00  0.12241729976E+03  0.12241729976E+03  0.00000000000E+00 0.  1.
          1   -1    0    0  502    0  0.00000000000E+00 -0.00000000000E+00 -0.68604303902E+03  0.68604303902E+03  0.00000000000E+00 0. -1.
          6    1    1    2  502    0  0.11579865485E+03  0.68854957274E+01 -0.56405406524E+03  0.60099727706E+03  0.17200000000E+03 0. -1.
         -6    1    1    2    0  501 -0.11579865485E+03 -0.68854957274E+01  0.42832598636E+00  0.20746306172E+03  0.17200000000E+03 0.  1.
</event>
<event>
 4    1  0.3211568E-002  0.2421983E+03  0.7818608E-02  0.1118337E+00
         -2   -1    0    0    0  501 -0.00000000000E+00  0.00000000000E+00  0.73530713931E+02  0.73530713931E+02  0.00000000000E+00 0.  1.
          2   -1    0    0  502    0  0.00000000000E+00 -0.00000000000E+00 -0.99636182529E+03  0.99636182529E+03  0.00000000000E+00 0. -1.
          6    1    1    2  502    0  0.11395867324E+03 -0.12684413057E+03 -0.22258438569E+03  0.32894349275E+03  0.17200000000E+03 0.  1.
         -6    1    1    2    0  501 -0.11395867324E+03  0.12684413057E+03 -0.70024672567E+03  0.74094904648E+03  0.17200000000E+03 0. -1.
</event>
<event>
 4    1  0.3211568E-002  0.2354360E+03  0.7818608E-02  0.1122871E+00
          2   -1    0    0  502    0  0.00000000000E+00  0.00000000000E+00  0.13358749102E+04  0.13358749102E+04  0.00000000000E+00 0. -1.
         -2   -1    0    0    0  501 -0.00000000000E+00 -0.00000000000E+00 -0.44213082125E+02  0.44213082125E+02  0.00000000000E+00 0.  1.
          6    1    1    2  502    0 -0.10584097310E+03  0.12101162791E+03  0.47469054279E+03  0.52986907543E+03  0.17200000000E+03 0.  1.
         -6    1    1    2    0  501  0.10584097310E+03 -0.12101162791E+03  0.81697128532E+03  0.85021891693E+03  0.17200000000E+03 0.  1.
</event>
<event>
 4    1  0.3211568E-002  0.2944757E+03  0.7818608E-02  0.1088035E+00
         -2   -1    0    0    0  501 -0.00000000000E+00  0.00000000000E+00  0.80183144634E+02  0.80183144634E+02  0.00000000000E+00 0.  1.
          2   -1    0    0  502    0  0.00000000000E+00 -0.00000000000E+00 -0.12707114799E+04  0.12707114799E+04  0.00000000000E+00 0. -1.
          6    1    1    2  502    0 -0.20136875775E+03 -0.12877321138E+03 -0.85592307773E+03  0.90516309666E+03  0.17200000000E+03 0. -1.
         -6    1    1    2    0  501  0.20136875775E+03  0.12877321138E+03 -0.33460525753E+03  0.44573152787E+03  0.17200000000E+03 0.  1.
</event>
<event>
 4    1  0.3211568E-002  0.2166604E+03  0.7818608E-02  0.1136398E+00
         -2   -1    0    0    0  501 -0.00000000000E+00  0.00000000000E+00  0.11068029157E+03  0.11068029157E+03  0.00000000000E+00 0.  1.
          2   -1    0    0  502    0  0.00000000000E+00 -0.00000000000E+00 -0.57847941858E+03  0.57847941858E+03  0.00000000000E+00 0. -1.
          6    1    1    2  502    0 -0.10595882258E+03  0.78297368678E+02 -0.41189635759E+03  0.46540343727E+03  0.17200000000E+03 0. -1.
         -6    1    1    2    0  501  0.10595882258E+03 -0.78297368678E+02 -0.55902769413E+02  0.22375627288E+03  0.17200000000E+03 0.  1.
</event>
<event>
 4    1  0.3211568E-002  0.2286433E+03  0.7818608E-02  0.1127598E+00
         -3   -1    0    0    0  501 -0.00000000000E+00  0.00000000000E+00  0.38786171119E+02  0.38786171119E+02  0.00000000000E+00 0.  1.
          3   -1    0    0  502    0  0.00000000000E+00 -0.00000000000E+00 -0.14281273708E+04  0.14281273708E+04  0.00000000000E+00 0. -1.
          6    1    1    2  502    0 -0.12600928480E+03 -0.82555589727E+02 -0.86857071089E+03  0.89816081248E+03  0.17200000000E+03 0. -1.
         -6    1    1    2    0  501  0.12600928480E+03  0.82555589727E+02 -0.52077048877E+03  0.56875272942E+03  0.17200000000E+03 0.  1.
</event>
<event>
 4    1  0.3211568E-002  0.1830582E+03  0.7818608E-02  0.1164876E+00
          1   -1    0    0  502    0  0.00000000000E+00  0.00000000000E+00  0.26329091024E+04  0.26329091024E+04  0.00000000000E+00 0. -1.
         -1   -1    0    0    0  501 -0.00000000000E+00 -0.00000000000E+00 -0.16239650293E+03  0.16239650293E+03  0.00000000000E+00 0.  1.
          6    1    1    2  502    0  0.56236533490E+02  0.27636400149E+02  0.25770227046E+04  0.25835162741E+04  0.17200000000E+03 0. -1.
         -6    1    1    2    0  501 -0.56236533490E+02 -0.27636400149E+02 -0.10651010518E+03  0.21178933122E+03  0.17200000000E+03 0.  1.
</event>
<event>
 4    1  0.3211568E-002  0.2457303E+03  0.7818608E-02  0.1116033E+00
         -1   -1    0    0    0  501 -0.00000000000E+00  0.00000000000E+00  0.16386017936E+04  0.16386017936E+04  0.00000000000E+00 0.  1.
          1   -1    0    0  502    0  0.00000000000E+00 -0.00000000000E+00 -0.37391817073E+02  0.37391817073E+02  0.00000000000E+00 0. -1.
          6    1    1    2  502    0  0.99720956353E+02  0.14441302482E+03  0.69978269651E+03  0.74167325233E+03  0.17200000000E+03 0. -1.
         -6    1    1    2    0  501 -0.99720956353E+02 -0.14441302482E+03  0.90142728004E+03  0.93432035837E+03  0.17200000000E+03 0.  1.
</event>
<event>
 4    1  0.3211568E-002  0.2027926E+03  0.7818608E-02  0.1147404E+00
          1   -1    0    0  502    0  0.00000000000E+00  0.00000000000E+00  0.50911678797E+03  0.50911678797E+03  0.00000000000E+00 0. -1.
         -1   -1    0    0    0  501 -0.00000000000E+00 -0.00000000000E+00 -0.84028649514E+02  0.84028649514E+02  0.00000000000E+00 0.  1.
          6    1    1    2  502    0 -0.23314267455E+02 -0.10486787104E+03  0.27088625058E+03  0.33838467193E+03  0.17200000000E+03 0. -1.
         -6    1    1    2    0  501  0.23314267455E+02  0.10486787104E+03  0.15420188788E+03  0.25476076556E+03  0.17200000000E+03 0.  1.
</event>
<event>
 4    1  0.3211568E-002  0.6553751E+03  0.7818608E-02  0.9796745E-01
          2   -1    0    0  502    0  0.00000000000E+00  0.00000000000E+00  0.16185876062E+04  0.16185876062E+04  0.00000000000E+00 0. -1.
         -2   -1    0    0    0  501 -0.00000000000E+00 -0.00000000000E+00 -0.60307188520E+03  0.60307188520E+03  0.00000000000E+00 0.  1.
          6    1    1    2  502    0 -0.33011771298E+03 -0.53940224227E+03  0.13390102826E+04  0.14907934197E+04  0.17200000000E+03 0. -1.
         -6    1    1    2    0  501  0.33011771298E+03  0.53940224227E+03 -0.32349456157E+03  0.73086607170E+03  0.17200000000E+03 0.  1.
</event>
<event>
 4    1  0.3211568E-002  0.2512647E+03  0.7818608E-02  0.1112508E+00
          2   -1    0    0  502    0  0.00000000000E+00  0.00000000000E+00  0.61230059388E+03  0.61230059388E+03  0.00000000000E+00 0. -1.
         -2   -1    0    0    0  501 -0.00000000000E+00 -0.00000000000E+00 -0.10379185887E+03  0.10379185887E+03  0.00000000000E+00 0.  1.
          6    1    1    2  502    0 -0.74503106159E+02 -0.16732977804E+03  0.22522182992E+03  0.33742975583E+03  0.17200000000E+03 0.  1.
         -6    1    1    2    0  501  0.74503106159E+02  0.16732977804E+03  0.28328690509E+03  0.37866269692E+03  0.17200000000E+03 0.  1.
</event>
<event>
 4    1  0.3211568E-002  0.3632881E+03  0.7818608E-02  0.1057289E+00
          2   -1    0    0  502    0  0.00000000000E+00  0.00000000000E+00  0.25666239470E+04  0.25666239470E+04  0.00000000000E+00 0. -1.
         -2   -1    0    0    0  501 -0.00000000000E+00 -0.00000000000E+00 -0.51421096230E+02  0.51421096230E+02  0.00000000000E+00 0.  1.
          6    1    1    2  502    0 -0.30425700976E+03  0.99105609173E+02  0.12554179472E+04  0.13069248149E+04  0.17200000000E+03 0. -1.
         -6    1    1    2    0  501  0.30425700976E+03 -0.99105609173E+02  0.12597849036E+04  0.13111202283E+04  0.17200000000E+03 0.  1.
</event>
<event>
 4    1  0.3211568E-002  0.2092942E+03  0.7818608E-02  0.1142126E+00
          1   -1    0    0  502    0  0.00000000000E+00  0.00000000000E+00  0.89077541869E+02  0.89077541869E+02  0.00000000000E+00 0. -1.
         -1   -1    0    0    0  501 -0.00000000000E+00 -0.00000000000E+00 -0.78856596214E+03  0.78856596214E+03  0.00000000000E+00 0.  1.
          6    1    1    2  502    0 -0.11551062658E+03  0.29619871722E+02 -0.80521654769E+02  0.22424936687E+03  0.17200000000E+03 0. -1.
         -6    1    1    2    0  501  0.11551062658E+03 -0.29619871722E+02 -0.61896676550E+03  0.65339413714E+03  0.17200000000E+03 0.  1.
</event>
<event>
 4    1  0.3211568E-002  0.1990300E+03  0.7818608E-02  0.1150560E+00
         -2   -1    0    0    0  501 -0.00000000000E+00  0.00000000000E+00  0.45227474932E+02  0.45227474932E+02  0.00000000000E+00 0.  1.
          2   -1    0    0  502    0  0.00000000000E+00 -0.00000000000E+00 -0.96766242965E+03  0.96766242965E+03  0.00000000000E+00 0. -1.
          6    1    1    2  502    0  0.69190283993E+02  0.72399129578E+02 -0.61720783440E+03  0.64850477270E+03  0.17200000000E+03 0. -1.
         -6    1    1    2    0  501 -0.69190283993E+02 -0.72399129578E+02 -0.30522712032E+03  0.36438513189E+03  0.17200000000E+03 0.  1.
</event>
<event>
 4    1  0.3211568E-002  0.3992982E+03  0.7818608E-02  0.1044023E+00
         -2   -1    0    0    0  501 -0.00000000000E+00  0.00000000000E+00  0.14834170160E+03  0.14834170160E+03  0.00000000000E+00 0.  1.
          2   -1    0    0  502    0  0.00000000000E+00 -0.00000000000E+00 -0.12341060527E+04  0.12341060527E+04  0.00000000000E+00 0. -1.
          6    1    1    2  502    0 -0.26993637040E+03  0.23872449002E+03 -0.79122183592E+03  0.88626802934E+03  0.17200000000E+03 0. -1.
         -6    1    1    2    0  501  0.26993637040E+03 -0.23872449002E+03 -0.29454251515E+03  0.49617972493E+03  0.17200000000E+03 0.  1.
</event>
<event>
 4    1  0.3211568E-002  0.1733571E+03  0.7818608E-02  0.1174391E+00
          2   -1    0    0  502    0  0.00000000000E+00  0.00000000000E+00  0.30627088867E+04  0.30627088867E+04  0.00000000000E+00 0. -1.
         -2   -1    0    0    0  501 -0.00000000000E+00 -0.00000000000E+00 -0.99499669173E+01  0.99499669173E+01  0.00000000000E+00 0.  1.
          6    1    1    2  502    0  0.22116775089E+01 -0.21536073169E+02  0.17069900737E+04  0.17157703243E+04  0.17200000000E+03 0. -1.
         -6    1    1    2    0  501 -0.22116775089E+01  0.21536073169E+02  0.13457688461E+04  0.13568885294E+04  0.17200000000E+03 0.  1.
</event>
<event>
 4    1  0.3211568E-002  0.2128666E+03  0.7818608E-02  0.1139316E+00
          2   -1    0    0  502    0  0.00000000000E+00  0.00000000000E+00  0.51633149806E+03  0.51633149806E+03  0.00000000000E+00 0. -1.
         -2   -1    0    0    0  501 -0.00000000000E+00 -0.00000000000E+00 -0.92923472556E+02  0.92923472556E+02  0.00000000000E+00 0.  1.
          6    1    1    2  502    0 -0.58555337245E+02  0.11090303423E+03  0.28352678081E+03  0.35454145873E+03  0.17200000000E+03 0. -1.
         -6    1    1    2    0  501  0.58555337245E+02 -0.11090303423E+03  0.13988124469E+03  0.25471351189E+03  0.17200000000E+03 0.  1.
</event>
<event>
 4    1  0.3211568E-002  0.3917359E+03  0.7818608E-02  0.1046679E+00
         -2   -1    0    0    0  501 -0.00000000000E+00  0.00000000000E+00  0.96279180805E+02  0.96279180805E+02  0.00000000000E+00 0.  1.
          2   -1    0    0  502    0  0.00000000000E+00 -0.00000000000E+00 -0.15987383603E+04  0.15987383603E+04  0.00000000000E+00 0. -1.
          6    1    1    2  502    0 -0.35172257108E+03  0.12816108392E+02 -0.70448783433E+03  0.80607699903E+03  0.17200000000E+03 0. -1.
         -6    1    1    2    0  501  0.35172257108E+03 -0.12816108392E+02 -0.79797134516E+03  0.88894054207E+03  0.17200000000E+03 0.  1.
</event>
<event>
 4    1  0.3211568E-002  0.1866090E+03  0.7818608E-02  0.1161556E+00
          1   -1    0    0  502    0  0.00000000000E+00  0.00000000000E+00  0.17272981049E+04  0.17272981049E+04  0.00000000000E+00 0. -1.
         -1   -1    0    0    0  501 -0.00000000000E+00 -0.00000000000E+00 -0.20716424976E+02  0.20716424976E+02  0.00000000000E+00 0.  1.
          6    1    1    2  502    0  0.49563247572E+02  0.52748444958E+02  0.99648619252E+03  0.10138084858E+04  0.17200000000E+03 0. -1.
         -6    1    1    2    0  501 -0.49563247572E+02 -0.52748444958E+02  0.71009548741E+03  0.73420604410E+03  0.17200000000E+03 0.  1.
</event>
<event>
 4    1  0.3211568E-002  0.2298038E+03  0.7818608E-02  0.1126778E+00
          2   -1    0    0  502    0  0.00000000000E+00  0.00000000000E+00  0.24900566270E+04  0.24900566270E+04  0.00000000000E+00 0. -1.
         -2   -1    0    0    0  501 -0.00000000000E+00 -0.00000000000E+00 -0.22078601724E+02  0.22078601724E+02  0.00000000000E+00 0.  1.
          6    1    1    2  502    0  0.14812566346E+03  0.35841234249E+02  0.14833728717E+04  0.15010679141E+04  0.17200000000E+03 0. -1.
         -6    1    1    2    0  501 -0.14812566346E+03 -0.35841234249E+02  0.98460515351E+03  0.10110673146E+04  0.17200000000E+03 0.  1.
</event>
<event>
 4    1  0.3211568E-002  0.1978070E+03  0.7818608E-02  0.1151603E+00
         -2   -1    0    0    0  501 -0.00000000000E+00  0.00000000000E+00  0.68005089362E+02  0.68005089362E+02  0.00000000000E+00 0.  1.
          2   -1    0    0  502    0  0.00000000000E+00 -0.00000000000E+00 -0.79902990647E+03  0.79902990647E+03  0.00000000000E+00 0. -1.
          6    1    1    2  502    0 -0.28203467606E+02  0.93531625361E+02 -0.13614793701E+03  0.24013300748E+03  0.17200000000E+03 0.  1.
         -6    1    1    2    0  501  0.28203467606E+02 -0.93531625361E+02 -0.59487688010E+03  0.62690198835E+03  0.17200000000E+03 0.  1.
</event>
<event>
 4    1  0.3211568E-002  0.5081826E+03  0.7818608E-02  0.1011665E+00
         -2   -1    0    0    0  501 -0.00000000000E+00  0.00000000000E+00  0.27458194540E+03  0.27458194540E+03  0.00000000000E+00 0.  1.
          2   -1    0    0  502    0  0.00000000000E+00 -0.00000000000E+00 -0.10743513990E+04  0.10743513990E+04  0.00000000000E+00 0. -1.
          6    1    1    2  502    0 -0.39436888877E+03 -0.27044164578E+03 -0.16183475126E+03  0.53332915814E+03  0.17200000000E+03 0.  1.
         -6    1    1    2    0  501  0.39436888877E+03  0.27044164578E+03 -0.63793470237E+03  0.81560418629E+03  0.17200000000E+03 0.  1.
</event>
<event>
 4    1  0.3211568E-002  0.3308253E+03  0.7818608E-02  0.1070772E+00
          2   -1    0    0  502    0  0.00000000000E+00  0.00000000000E+00  0.13032671801E+04  0.13032671801E+04  0.00000000000E+00 0. -1.
         -2   -1    0    0    0  501 -0.00000000000E+00 -0.00000000000E+00 -0.10233531585E+03  0.10233531585E+03  0.00000000000E+00 0.  1.
          6    1    1    2  502    0 -0.49190371363E+02 -0.27828342549E+03  0.89813115798E+03  0.95712325981E+03  0.17200000000E+03 0. -1.
         -6    1    1    2    0  501  0.49190371363E+02  0.27828342549E+03  0.30280070626E+03  0.44847923614E+03  0.17200000000E+03 0.  1.
</event>
<event>
 4    1  0.3211568E-002  0.1818049E+03  0.7818608E-02  0.1166068E+00
         -2   -1    0    0    0  501 -0.00000000000E+00  0.00000000000E+00  0.10712665445E+03  0.10712665445E+03  0.00000000000E+00 0.  1.
          2   -1    0    0  502    0  0.00000000000E+00 -0.00000000000E+00 -0.31505929624E+03  0.31505929624E+03  0.00000000000E+00 0. -1.
          6    1    1    2  502    0  0.58757396439E+02  0.40716415576E+01 -0.13432834661E+03  0.22604670890E+03  0.17200000000E+03 0. -1.
         -6    1    1    2    0  501 -0.58757396439E+02 -0.40716415576E+01 -0.73604295173E+02  0.19613924179E+03  0.17200000000E+03 0.  1.
</event>
<event>
 4    1  0.3211568E-002  0.1834891E+03  0.7818608E-02  0.1164468E+00
          3   -1    0    0  502    0  0.00000000000E+00  0.00000000000E+00  0.38543269763E+02  0.38543269763E+02  0.00000000000E+00 0. -1.
         -3   -1    0    0    0  501 -0.00000000000E+00 -0.00000000000E+00 -0.94176780597E+03  0.94176780597E+03  0.00000000000E+00 0.  1.
          6    1    1    2  502    0  0.32657372848E+02 -0.54934169771E+02 -0.31966194206E+03  0.36858109584E+03  0.17200000000E+03 0. -1.
         -6    1    1    2    0  501 -0.32657372848E+02  0.54934169771E+02 -0.58356259415E+03  0.61172997989E+03  0.17200000000E+03 0.  1.
</event>
<event>
 4    1  0.3211568E-002  0.5455909E+03  0.7818608E-02  0.1002520E+00
         -2   -1    0    0    0  501 -0.00000000000E+00  0.00000000000E+00  0.40024691409E+03  0.40024691409E+03  0.00000000000E+00 0.  1.
          2   -1    0    0  502    0  0.00000000000E+00 -0.00000000000E+00 -0.14974258626E+04  0.14974258626E+04  0.00000000000E+00 0. -1.
          6    1    1    2  502    0 -0.46652567681E+03  0.22458686801E+03  0.12457497637E+03  0.55963237321E+03  0.17200000000E+03 0. -1.
         -6    1    1    2    0  501  0.46652567681E+03 -0.22458686801E+03 -0.12217539249E+04  0.13380404035E+04  0.17200000000E+03 0. -1.
</event>
<event>
 4    1  0.3211568E-002  0.3848938E+03  0.7818608E-02  0.1049140E+00
          2   -1    0    0  502    0  0.00000000000E+00  0.00000000000E+00  0.11646948102E+04  0.11646948102E+04  0.00000000000E+00 0. -1.
         -2   -1    0    0    0  501 -0.00000000000E+00 -0.00000000000E+00 -0.23089636828E+03  0.23089636828E+03  0.00000000000E+00 0.  1.
          6    1    1    2  502    0 -0.28588780705E+03 -0.19190467679E+03  0.93453972057E+03  0.10106966570E+04  0.17200000000E+03 0. -1.
         -6    1    1    2    0  501  0.28588780705E+03  0.19190467679E+03 -0.74127861395E+00  0.38489452150E+03  0.17200000000E+03 0.  1.
</event>
<event>
 4    1  0.3211568E-002  0.2965952E+03  0.7818608E-02  0.1086955E+00
          2   -1    0    0  502    0  0.00000000000E+00  0.00000000000E+00  0.46566327109E+03  0.46566327109E+03  0.00000000000E+00 0. -1.
         -2   -1    0    0    0  501 -0.00000000000E+00 -0.00000000000E+00 -0.26621340680E+03  0.26621340680E+03  0.00000000000E+00 0.  1.
          6    1    1    2  502    0  0.23596465743E+03  0.52013589240E+02  0.29691750419E+03  0.41967694399E+03  0.17200000000E+03 0. -1.
         -6    1    1    2    0  501 -0.23596465743E+03 -0.52013589240E+02 -0.97467639902E+02  0.31219973390E+03  0.17200000000E+03 0.  1.
</event>
<event>
 4    1  0.3211568E-002  0.1966236E+03  0.7818608E-02  0.1152619E+00
          1   -1    0    0  502    0  0.00000000000E+00  0.00000000000E+00  0.91996059741E+03  0.91996059741E+03  0.00000000000E+00 0. -1.
         -1   -1    0    0    0  501 -0.00000000000E+00 -0.00000000000E+00 -0.69669991615E+02  0.69669991615E+02  0.00000000000E+00 0.  1.
          6    1    1    2  502    0 -0.33889201411E+02  0.89041374344E+02  0.73684238335E+03  0.76262542720E+03  0.17200000000E+03 0. -1.
         -6    1    1    2    0  501  0.33889201411E+02 -0.89041374344E+02  0.11344822245E+03  0.22700516182E+03  0.17200000000E+03 0.  1.
</event>
<event>
 4    1  0.3211568E-002  0.2326397E+03  0.7818608E-02  0.1124796E+00
          2   -1    0    0  502    0  0.00000000000E+00  0.00000000000E+00  0.97782793234E+03  0.97782793234E+03  0.00000000000E+00 0. -1.
         -2   -1    0    0    0  501 -0.00000000000E+00 -0.00000000000E+00 -0.61174918146E+02  0.61174918146E+02  0.00000000000E+00 0.  1.
          6    1    1    2  502    0 -0.14835720500E+03  0.50272809701E+02  0.29800032940E+03  0.37805477380E+03  0.17200000000E+03 0.  1.
         -6    1    1    2    0  501  0.14835720500E+03 -0.50272809701E+02  0.61865268479E+03  0.66094807669E+03  0.17200000000E+03 0. -1.
</event>
<event>
 4    1  0.3211568E-002  0.3307416E+03  0.7818608E-02  0.1070809E+00
         -1   -1    0    0    0  501 -0.00000000000E+00  0.00000000000E+00  0.52910895721E+02  0.52910895721E+02  0.00000000000E+00 0.  1.
          1   -1    0    0  502    0  0.00000000000E+00 -0.00000000000E+00 -0.28530843012E+04  0.28530843012E+04  0.00000000000E+00 0. -1.
          6    1    1    2  502    0 -0.26348777981E+03 -0.10188310363E+03 -0.21625540180E+04  0.21876996726E+04  0.17200000000E+03 0. -1.
         -6    1    1    2    0  501  0.26348777981E+03  0.10188310363E+03 -0.63761938752E+03  0.71829552432E+03  0.17200000000E+03 0.  1.
</event>
<event>
 4    1  0.3211568E-002  0.2402564E+03  0.7818608E-02  0.1119622E+00
         -2   -1    0    0    0  501 -0.00000000000E+00  0.00000000000E+00  0.17493125616E+03  0.17493125616E+03  0.00000000000E+00 0.  1.
          2   -1    0    0  502    0  0.00000000000E+00 -0.00000000000E+00 -0.33666145604E+03  0.33666145604E+03  0.00000000000E+00 0. -1.
          6    1    1    2  502    0  0.16299685764E+03 -0.39637674822E+02 -0.11691153366E+03  0.26719174308E+03  0.17200000000E+03 0. -1.
         -6    1    1    2    0  501 -0.16299685764E+03  0.39637674822E+02 -0.44818666222E+02  0.24440096912E+03  0.17200000000E+03 0.  1.
</event>
<event>
 4    1  0.3211568E-002  0.1869471E+03  0.7818608E-02  0.1161244E+00
          2   -1    0    0  502    0  0.00000000000E+00  0.00000000000E+00  0.12599880259E+04  0.12599880259E+04  0.00000000000E+00 0. -1.
         -2   -1    0    0    0  501 -0.00000000000E+00 -0.00000000000E+00 -0.29284179161E+02  0.29284179161E+02  0.00000000000E+00 0.  1.
          6    1    1    2  502    0  0.64099908865E+02 -0.35446089519E+02  0.76348912865E+03  0.78604381121E+03  0.17200000000E+03 0. -1.
         -6    1    1    2    0  501 -0.64099908865E+02  0.35446089519E+02  0.46721471812E+03  0.50322839388E+03  0.17200000000E+03 0.  1.
</event>
<event>
 4    1  0.3211568E-002  0.1811315E+03  0.7818608E-02  0.1166712E+00
          1   -1    0    0  502    0  0.00000000000E+00  0.00000000000E+00  0.51746102556E+02  0.51746102556E+02  0.00000000000E+00 0. -1.
         -1   -1    0    0    0  501 -0.00000000000E+00 -0.00000000000E+00 -0.88043568159E+03  0.88043568159E+03  0.00000000000E+00 0.  1.
          6    1    1    2  502    0 -0.29450288369E+02  0.48552105693E+02 -0.16777129481E+03  0.24689235269E+03  0.17200000000E+03 0. -1.
         -6    1    1    2    0  501  0.29450288369E+02 -0.48552105693E+02 -0.66091828422E+03  0.68528943146E+03  0.17200000000E+03 0.  1.
</event>
<event>
 4    1  0.3211568E-002  0.4194399E+03  0.7818608E-02  0.1037249E+00
         -1   -1    0    0    0  501 -0.00000000000E+00  0.00000000000E+00  0.45571102083E+03  0.45571102083E+03  0.00000000000E+00 0.  1.
          1   -1    0    0  502    0  0.00000000000E+00 -0.00000000000E+00 -0.90093246529E+03  0.90093246529E+03  0.00000000000E+00 0. -1.
          6    1    1    2  502    0  0.37735886949E+03  0.62818004132E+02 -0.73540277323E+03  0.84660915238E+03  0.17200000000E+03 0. -1.
         -6    1    1    2    0  501 -0.37735886949E+03 -0.62818004132E+02  0.29018132877E+03  0.51003433374E+03  0.17200000000E+03 0.  1.
</event>
<event>
 4    1  0.3211568E-002  0.2258072E+03  0.7818608E-02  0.1129626E+00
          2   -1    0    0  502    0  0.00000000000E+00  0.00000000000E+00  0.17207387880E+03  0.17207387880E+03  0.00000000000E+00 0. -1.
         -2   -1    0    0    0  501 -0.00000000000E+00 -0.00000000000E+00 -0.34010258951E+03  0.34010258951E+03  0.00000000000E+00 0.  1.
          6    1    1    2  502    0 -0.10612520696E+03  0.10070903502E+03  0.78690704269E+01  0.22594422222E+03  0.17200000000E+03 0. -1.
         -6    1    1    2    0  501  0.10612520696E+03 -0.10070903502E+03 -0.17589778114E+03  0.28623224608E+03  0.17200000000E+03 0.  1.
</event>
<event>
 4    1  0.3211568E-002  0.6467250E+03  0.7818608E-02  0.9812944E-01
         -1   -1    0    0    0  501 -0.00000000000E+00  0.00000000000E+00  0.67447398143E+03  0.67447398143E+03  0.00000000000E+00 0.  1.
          1   -1    0    0  502    0  0.00000000000E+00 -0.00000000000E+00 -0.69178772349E+03  0.69178772349E+03  0.00000000000E+00 0. -1.
          6    1    1    2  502    0 -0.59757397476E+03 -0.17769246027E+03 -0.22853710761E+03  0.68591725106E+03  0.17200000000E+03 0. -1.
         -6    1    1    2    0  501  0.59757397476E+03  0.17769246027E+03  0.21122336555E+03  0.68034445386E+03  0.17200000000E+03 0.  1.
</event>
<event>
 4    1  0.3211568E-002  0.4424271E+03  0.7818608E-02  0.1030005E+00
         -2   -1    0    0    0  501 -0.00000000000E+00  0.00000000000E+00  0.18537756730E+03  0.18537756730E+03  0.00000000000E+00 0.  1.
          2   -1    0    0  502    0  0.00000000000E+00 -0.00000000000E+00 -0.10976487630E+04  0.10976487630E+04  0.00000000000E+00 0. -1.
          6    1    1    2  502    0 -0.15517610238E+03 -0.37693254665E+03 -0.58123376603E+03  0.73046181163E+03  0.17200000000E+03 0. -1.
         -6    1    1    2    0  501  0.15517610238E+03  0.37693254665E+03 -0.33103742969E+03  0.55256451870E+03  0.17200000000E+03 0.  1.
</event>
<event>
 4    1  0.3211568E-002  0.2467176E+03  0.7818608E-02  0.1115397E+00
         -2   -1    0    0    0  501 -0.00000000000E+00  0.00000000000E+00  0.15508446667E+03  0.15508446667E+03  0.00000000000E+00 0.  1.
          2   -1    0    0  502    0  0.00000000000E+00 -0.00000000000E+00 -0.41030797409E+03  0.41030797409E+03  0.00000000000E+00 0. -1.
          6    1    1    2  502    0  0.13092886768E+03 -0.11892524979E+03 -0.18651732536E+03  0.30928675382E+03  0.17200000000E+03 0. -1.
         -6    1    1    2    0  501 -0.13092886768E+03  0.11892524979E+03 -0.68706182059E+02  0.25610568694E+03  0.17200000000E+03 0. -1.
</event>
<event>
 4    1  0.3211568E-002  0.4486054E+03  0.7818608E-02  0.1028139E+00
         -1   -1    0    0    0  501 -0.00000000000E+00  0.00000000000E+00  0.77810707451E+03  0.77810707451E+03  0.00000000000E+00 0.  1.
          1   -1    0    0  502    0  0.00000000000E+00 -0.00000000000E+00 -0.57150593134E+03  0.57150593134E+03  0.00000000000E+00 0. -1.
          6    1    1    2  502    0  0.15462134057E+03 -0.38438924320E+03 -0.39598669601E+03  0.59837472596E+03  0.17200000000E+03 0. -1.
         -6    1    1    2    0  501 -0.15462134057E+03  0.38438924320E+03  0.60258783918E+03  0.75123827990E+03  0.17200000000E+03 0.  1.
</event>
<event>
 4    1  0.3211568E-002  0.2270218E+03  0.7818608E-02  0.1128754E+00
          1   -1    0    0  502    0  0.00000000000E+00  0.00000000000E+00  0.18466953926E+03  0.18466953926E+03  0.00000000000E+00 0. -1.
         -1   -1    0    0    0  501 -0.00000000000E+00 -0.00000000000E+00 -0.27950079791E+03  0.27950079791E+03  0.00000000000E+00 0.  1.
          6    1    1    2  502    0 -0.32842553331E+02  0.14448621015E+03 -0.38487443098E+02  0.23026111593E+03  0.17200000000E+03 0. -1.
         -6    1    1    2    0  501  0.32842553331E+02 -0.14448621015E+03 -0.56343815550E+02  0.23390922124E+03  0.17200000000E+03 0.  1.
</event>
<event>
 4    1  0.3211568E-002  0.2250313E+03  0.7818608E-02  0.1130187E+00
         -2   -1    0    0    0  501 -0.00000000000E+00  0.00000000000E+00  0.96319657809E+02  0.96319657809E+02  0.00000000000E+00 0.  1.
          2   -1    0    0  502    0  0.00000000000E+00 -0.00000000000E+00 -0.18270609167E+04  0.18270609167E+04  0.00000000000E+00 0. -1.
          6    1    1    2  502    0 -0.86441376443E+02 -0.11654609576E+03 -0.16769872069E+04  0.16920180838E+04  0.17200000000E+03 0. -1.
         -6    1    1    2    0  501  0.86441376443E+02  0.11654609576E+03 -0.53754052061E+02  0.23136249072E+03  0.17200000000E+03 0.  1.
</event>
<event>
 4    1  0.3211568E-002  0.1750851E+03  0.7818608E-02  0.1172646E+00
          2   -1    0    0  502    0  0.00000000000E+00  0.00000000000E+00  0.61435201848E+02  0.61435201848E+02  0.00000000000E+00 0. -1.
         -2   -1    0    0    0  501 -0.00000000000E+00 -0.00000000000E+00 -0.52892211155E+03  0.52892211155E+03  0.00000000000E+00 0.  1.
          6    1    1    2  502    0 -0.24533109436E+02 -0.21654556374E+02 -0.16350947627E+03  0.23956239709E+03  0.17200000000E+03 0. -1.
         -6    1    1    2    0  501  0.24533109436E+02  0.21654556374E+02 -0.30397743343E+03  0.35079491630E+03  0.17200000000E+03 0.  1.
</event>
<event>
 4    1  0.3211568E-002  0.2975260E+03  0.7818608E-02  0.1086484E+00
          2   -1    0    0  502    0  0.00000000000E+00  0.00000000000E+00  0.74815418757E+03  0.74815418757E+03  0.00000000000E+00 0. -1.
         -2   -1    0    0    0  501 -0.00000000000E+00 -0.00000000000E+00 -0.11852636130E+03  0.11852636130E+03  0.00000000000E+00 0.  1.
          6    1    1    2  502    0  0.24142809660E+03 -0.25498858157E+02  0.33288878146E+03  0.44647134109E+03  0.17200000000E+03 0. -1.
         -6    1    1    2    0  501 -0.24142809660E+03  0.25498858157E+02  0.29673904481E+03  0.42020920779E+03  0.17200000000E+03 0.  1.
</event>
<event>
 4    1  0.3211568E-002  0.1964787E+03  0.7818608E-02  0.1152744E+00
         -1   -1    0    0    0  501 -0.00000000000E+00  0.00000000000E+00  0.50884260637E+03  0.50884260637E+03  0.00000000000E+00 0.  1.
          1   -1    0    0  502    0  0.00000000000E+00 -0.00000000000E+00 -0.94750150558E+02  0.94750150558E+02  0.00000000000E+00 0. -1.
          6    1    1    2  502    0 -0.92396642645E+02  0.21971595387E+02  0.72313857202E+02  0.20936376124E+03  0.17200000000E+03 0. -1.
         -6    1    1    2    0  501  0.92396642645E+02 -0.21971595387E+02  0.34177859861E+03  0.39422899569E+03  0.17200000000E+03 0.  1.
</event>
<event>
 4    1  0.3211568E-002  0.1834824E+03  0.7818608E-02  0.1164475E+00
          2   -1    0    0  502    0  0.00000000000E+00  0.00000000000E+00  0.31563640303E+03  0.31563640303E+03  0.00000000000E+00 0. -1.
         -2   -1    0    0    0  501 -0.00000000000E+00 -0.00000000000E+00 -0.12109249499E+03  0.12109249499E+03  0.00000000000E+00 0.  1.
          6    1    1    2  502    0  0.43207923357E+02  0.47062276696E+02  0.17265850041E+03  0.25194590747E+03  0.17200000000E+03 0. -1.
         -6    1    1    2    0  501 -0.43207923357E+02 -0.47062276696E+02  0.21885407641E+02  0.18478299055E+03  0.17200000000E+03 0.  1.
</event>
<event>
 4    1  0.3211568E-002  0.1859537E+03  0.7818608E-02  0.1162162E+00
          2   -1    0    0  502    0  0.00000000000E+00  0.00000000000E+00  0.97495697154E+02  0.97495697154E+02  0.00000000000E+00 0. -1.
         -2   -1    0    0    0  501 -0.00000000000E+00 -0.00000000000E+00 -0.35468859078E+03  0.35468859078E+03  0.00000000000E+00 0.  1.
          6    1    1    2  502    0 -0.52978813299E+02  0.46776504480E+02 -0.12695829038E+03  0.22516039511E+03  0.17200000000E+03 0.  1.
         -6    1    1    2    0  501  0.52978813299E+02 -0.46776504480E+02 -0.13023460324E+03  0.22702389282E+03  0.17200000000E+03 0. -1.
</event>
<event>
 4    1  0.3211568E-002  0.1828422E+03  0.7818608E-02  0.1165080E+00
          2   -1    0    0  502    0  0.00000000000E+00  0.00000000000E+00  0.68257872330E+03  0.68257872330E+03  0.00000000000E+00 0. -1.
         -2   -1    0    0    0  501 -0.00000000000E+00 -0.00000000000E+00 -0.51815802255E+02  0.51815802255E+02  0.00000000000E+00 0.  1.
          6    1    1    2  502    0  0.99128868444E+01  0.61229085765E+02  0.22944692549E+03  0.29338908958E+03  0.17200000000E+03 0.  1.
         -6    1    1    2    0  501 -0.99128868444E+01 -0.61229085765E+02  0.40131599555E+03  0.44100543597E+03  0.17200000000E+03 0. -1.
</event>
<event>
 4    1  0.3211568E-002  0.1861575E+03  0.7818608E-02  0.1161973E+00
          1   -1    0    0  502    0  0.00000000000E+00  0.00000000000E+00  0.30351569568E+04  0.30351569568E+04  0.00000000000E+00 0. -1.
         -1   -1    0    0    0  501 -0.00000000000E+00 -0.00000000000E+00 -0.11870877534E+02  0.11870877534E+02  0.00000000000E+00 0.  1.
          6    1    1    2  502    0 -0.71039180993E+02 -0.49026871855E+01  0.18093061338E+04  0.18188576875E+04  0.17200000000E+03 0. -1.
         -6    1    1    2    0  501  0.71039180993E+02  0.49026871855E+01  0.12139799455E+04  0.12281701469E+04  0.17200000000E+03 0.  1.
</event>
<event>
 4    1  0.3211568E-002  0.3927781E+03  0.7818608E-02  0.1046309E+00
          2   -1    0    0  502    0  0.00000000000E+00  0.00000000000E+00  0.30696332548E+03  0.30696332548E+03  0.00000000000E+00 0. -1.
         -2   -1    0    0    0  501 -0.00000000000E+00 -0.00000000000E+00 -0.53191065096E+03  0.53191065096E+03  0.00000000000E+00 0.  1.
          6    1    1    2  502    0 -0.11095233088E+03 -0.33523161024E+03 -0.13985614150E+02  0.39302703423E+03  0.17200000000E+03 0. -1.
         -6    1    1    2    0  501  0.11095233088E+03  0.33523161024E+03 -0.21096171133E+03  0.44584694221E+03  0.17200000000E+03 0.  1.
</event>
<event>
 4    1  0.3211568E-002  0.2268065E+03  0.7818608E-02  0.1128908E+00
          2   -1    0    0  502    0  0.00000000000E+00  0.00000000000E+00  0.27038473479E+04  0.27038473479E+04  0.00000000000E+00 0. -1.
         -2   -1    0    0    0  501 -0.00000000000E+00 -0.00000000000E+00 -0.45757788916E+02  0.45757788916E+02  0.00000000000E+00 0.  1.
          6    1    1    2  502    0 -0.12822194813E+03 -0.73595717400E+02  0.23798650616E+04  0.23906482194E+04  0.17200000000E+03 0. -1.
         -6    1    1    2    0  501  0.12822194813E+03  0.73595717400E+02  0.27822449739E+03  0.35895691740E+03  0.17200000000E+03 0.  1.
</event>
<event>
 4    1  0.3211568E-002  0.1860322E+03  0.7818608E-02  0.1162089E+00
          1   -1    0    0  502    0  0.00000000000E+00  0.00000000000E+00  0.19829626578E+04  0.19829626578E+04  0.00000000000E+00 0. -1.
         -1   -1    0    0    0  501 -0.00000000000E+00 -0.00000000000E+00 -0.25805371821E+02  0.25805371821E+02  0.00000000000E+00 0.  1.
          6    1    1    2  502    0  0.56209568981E+02  0.43179630496E+02  0.15500022497E+04  0.15611261865E+04  0.17200000000E+03 0. -1.
         -6    1    1    2    0  501 -0.56209568981E+02 -0.43179630496E+02  0.40715503626E+03  0.44764184309E+03  0.17200000000E+03 0. -1.
</event>
<event>
 4    1  0.3211568E-002  0.2773337E+03  0.7818608E-02  0.1097154E+00
         -1   -1    0    0    0  501 -0.00000000000E+00  0.00000000000E+00  0.13133176925E+03  0.13133176925E+03  0.00000000000E+00 0.  1.
          1   -1    0    0  502    0  0.00000000000E+00 -0.00000000000E+00 -0.64131877769E+03  0.64131877769E+03  0.00000000000E+00 0. -1.
          6    1    1    2  502    0  0.21529561576E+03  0.31269348853E+02 -0.14116890436E+03  0.31119549145E+03  0.17200000000E+03 0. -1.
         -6    1    1    2    0  501 -0.21529561576E+03 -0.31269348853E+02 -0.36881810408E+03  0.46145505549E+03  0.17200000000E+03 0.  1.
</event>
<event>
 4    1  0.3211568E-002  0.2439707E+03  0.7818608E-02  0.1117176E+00
         -2   -1    0    0    0  501 -0.00000000000E+00  0.00000000000E+00  0.54031653987E+02  0.54031653987E+02  0.00000000000E+00 0.  1.
          2   -1    0    0  502    0  0.00000000000E+00 -0.00000000000E+00 -0.15263948842E+04  0.15263948842E+04  0.00000000000E+00 0. -1.
          6    1    1    2  502    0  0.43088087646E+02 -0.16757422847E+03 -0.11530475311E+04  0.11785755446E+04  0.17200000000E+03 0. -1.
         -6    1    1    2    0  501 -0.43088087646E+02  0.16757422847E+03 -0.31931569908E+03  0.40185099355E+03  0.17200000000E+03 0.  1.
</event>
<event>
 4    1  0.3211568E-002  0.2195234E+03  0.7818608E-02  0.1134239E+00
          2   -1    0    0  502    0  0.00000000000E+00  0.00000000000E+00  0.10829803025E+04  0.10829803025E+04  0.00000000000E+00 0. -1.
         -2   -1    0    0    0  501 -0.00000000000E+00 -0.00000000000E+00 -0.45211290044E+02  0.45211290044E+02  0.00000000000E+00 0.  1.
          6    1    1    2  502    0  0.11855392647E+03  0.67464755361E+02  0.44803398619E+03  0.49892382131E+03  0.17200000000E+03 0. -1.
         -6    1    1    2    0  501 -0.11855392647E+03 -0.67464755361E+02  0.58973502624E+03  0.62926777120E+03  0.17200000000E+03 0. -1.
</event>
<event>
 4    1  0.3211568E-002  0.2904055E+03  0.7818608E-02  0.1090138E+00
         -1   -1    0    0    0  501 -0.00000000000E+00  0.00000000000E+00  0.26219705117E+03  0.26219705117E+03  0.00000000000E+00 0.  1.
          1   -1    0    0  502    0  0.00000000000E+00 -0.00000000000E+00 -0.37370749126E+03  0.37370749126E+03  0.00000000000E+00 0. -1.
          6    1    1    2  502    0 -0.21368637412E+03 -0.95338819061E+02 -0.17442573072E+03  0.33876199970E+03  0.17200000000E+03 0. -1.
         -6    1    1    2    0  501  0.21368637412E+03  0.95338819061E+02  0.62915290628E+02  0.29714254273E+03  0.17200000000E+03 0.  1.
</event>
<event>
 4    1  0.3211568E-002  0.2157304E+03  0.7818608E-02  0.1137107E+00
          2   -1    0    0  502    0  0.00000000000E+00  0.00000000000E+00  0.11637106353E+04  0.11637106353E+04  0.00000000000E+00 0. -1.
         -2   -1    0    0    0  501 -0.00000000000E+00 -0.00000000000E+00 -0.42439306929E+02  0.42439306929E+02  0.00000000000E+00 0.  1.
          6    1    1    2  502    0 -0.42784211812E+02 -0.12298422950E+03  0.41582727168E+03  0.46845696639E+03  0.17200000000E+03 0.  1.
         -6    1    1    2    0  501  0.42784211812E+02  0.12298422950E+03  0.70544405669E+03  0.73769297584E+03  0.17200000000E+03 0. -1.
</event>
<event>
 4    1  0.3211568E-002  0.1734638E+03  0.7818608E-02  0.1174283E+00
          1   -1    0    0  502    0  0.00000000000E+00  0.00000000000E+00  0.60487326504E+03  0.60487326504E+03  0.00000000000E+00 0. -1.
         -1   -1    0    0    0  501 -0.00000000000E+00 -0.00000000000E+00 -0.49957081086E+02  0.49957081086E+02  0.00000000000E+00 0.  1.
          6    1    1    2  502    0  0.17284087051E+02 -0.14386281971E+02  0.29876741377E+03  0.34547311372E+03  0.17200000000E+03 0. -1.
         -6    1    1    2    0  501 -0.17284087051E+02  0.14386281971E+02  0.25614877018E+03  0.30935723240E+03  0.17200000000E+03 0. -1.
</event>
<event>
 4    1  0.3211568E-002  0.2468818E+03  0.7818608E-02  0.1115291E+00
         -2   -1    0    0    0  501 -0.00000000000E+00  0.00000000000E+00  0.57150120793E+02  0.57150120793E+02  0.00000000000E+00 0.  1.
          2   -1    0    0  502    0  0.00000000000E+00 -0.00000000000E+00 -0.10683756039E+04  0.10683756039E+04  0.00000000000E+00 0. -1.
          6    1    1    2  502    0  0.10580466301E+03  0.14202822200E+03 -0.48203753358E+03  0.54158178176E+03  0.17200000000E+03 0. -1.
         -6    1    1    2    0  501 -0.10580466301E+03 -0.14202822200E+03 -0.52918794953E+03  0.58394394293E+03  0.17200000000E+03 0.  1.
</event>
<event>
 4    1  0.3211568E-002  0.2410258E+03  0.7818608E-02  0.1119111E+00
         -2   -1    0    0    0  501 -0.00000000000E+00  0.00000000000E+00  0.46630501282E+02  0.46630501282E+02  0.00000000000E+00 0.  1.
          2   -1    0    0  502    0  0.00000000000E+00 -0.00000000000E+00 -0.24188678736E+04  0.24188678736E+04  0.00000000000E+00 0. -1.
          6    1    1    2  502    0 -0.12378609203E+03 -0.11483232198E+03 -0.20445895045E+04  0.20587471191E+04  0.17200000000E+03 0. -1.
         -6    1    1    2    0  501  0.12378609203E+03  0.11483232198E+03 -0.32764786788E+03  0.40675125577E+03  0.17200000000E+03 0.  1.
</event>
<event>
 4    1  0.3211568E-002  0.3591643E+03  0.7818608E-02  0.1058915E+00
          2   -1    0    0  502    0  0.00000000000E+00  0.00000000000E+00  0.36284678920E+03  0.36284678920E+03  0.00000000000E+00 0. -1.
         -2   -1    0    0    0  501 -0.00000000000E+00 -0.00000000000E+00 -0.35596292592E+03  0.35596292592E+03  0.00000000000E+00 0.  1.
          6    1    1    2  502    0 -0.20062191394E+03  0.24324028214E+03  0.16131781922E+02  0.35952638512E+03  0.17200000000E+03 0. -1.
         -6    1    1    2    0  501  0.20062191394E+03 -0.24324028214E+03 -0.92479186396E+01  0.35928332999E+03  0.17200000000E+03 0.  1.
</event>
<event>
 4    1  0.3211568E-002  0.1813649E+03  0.7818608E-02  0.1166489E+00
          1   -1    0    0  502    0  0.00000000000E+00  0.00000000000E+00  0.10429358626E+03  0.10429358626E+03  0.00000000000E+00 0. -1.
         -1   -1    0    0    0  501 -0.00000000000E+00 -0.00000000000E+00 -0.90896728857E+03  0.90896728857E+03  0.00000000000E+00 0.  1.
          6    1    1    2  502    0 -0.49915739451E+02  0.28594810154E+02  0.70703456141E+01  0.18150271072E+03  0.17200000000E+03 0. -1.
         -6    1    1    2    0  501  0.49915739451E+02 -0.28594810154E+02 -0.81174404792E+03  0.83175816410E+03  0.17200000000E+03 0.  1.
</event>
<event>
 4    1  0.3211568E-002  0.2275106E+03  0.7818608E-02  0.1128404E+00
         -2   -1    0    0    0  501 -0.00000000000E+00  0.00000000000E+00  0.67879244867E+02  0.67879244867E+02  0.00000000000E+00 0.  1.
          2   -1    0    0  502    0  0.00000000000E+00 -0.00000000000E+00 -0.76567032065E+03  0.76567032065E+03  0.00000000000E+00 0. -1.
          6    1    1    2  502    0 -0.14849259198E+03  0.11270007642E+02 -0.37551759722E+03  0.43906096248E+03  0.17200000000E+03 0. -1.
         -6    1    1    2    0  501  0.14849259198E+03 -0.11270007642E+02 -0.32227347856E+03  0.39448860304E+03  0.17200000000E+03 0. -1.
</event>
<event>
 4    1  0.3211568E-002  0.2559035E+03  0.7818608E-02  0.1109630E+00
         -2   -1    0    0    0  501 -0.00000000000E+00  0.00000000000E+00  0.21363441055E+03  0.21363441055E+03  0.00000000000E+00 0.  1.
          2   -1    0    0  502    0  0.00000000000E+00 -0.00000000000E+00 -0.63683182208E+03  0.63683182208E+03  0.00000000000E+00 0. -1.
          6    1    1    2  502    0 -0.18853374832E+03  0.18911545346E+02 -0.51784179205E+03  0.57762162563E+03  0.17200000000E+03 0. -1.
         -6    1    1    2    0  501  0.18853374832E+03 -0.18911545346E+02  0.94644380524E+02  0.27284460700E+03  0.17200000000E+03 0.  1.
</event>
<event>
 4    1  0.3211568E-002  0.9443743E+03  0.7818608E-02  0.9371750E-01
          1   -1    0    0  502    0  0.00000000000E+00  0.00000000000E+00  0.90928893652E+03  0.90928893652E+03  0.00000000000E+00 0. -1.
         -1   -1    0    0    0  501 -0.00000000000E+00 -0.00000000000E+00 -0.14868067048E+04  0.14868067048E+04  0.00000000000E+00 0.  1.
          6    1    1    2  502    0  0.91330717538E+03 -0.16771675284E+03  0.41014784310E+03  0.10295941720E+04  0.17200000000E+03 0. -1.
         -6    1    1    2    0  501 -0.91330717538E+03  0.16771675284E+03 -0.98766561138E+03  0.13665014693E+04  0.17200000000E+03 0.  1.
</event>
<event>
 4    1  0.3211568E-002  0.2127409E+03  0.7818608E-02  0.1139414E+00
          2   -1    0    0  502    0  0.00000000000E+00  0.00000000000E+00  0.11090048327E+04  0.11090048327E+04  0.00000000000E+00 0. -1.
         -2   -1    0    0    0  501 -0.00000000000E+00 -0.00000000000E+00 -0.40831851243E+02  0.40831851243E+02  0.00000000000E+00 0.  1.
          6    1    1    2  502    0  0.37443863902E+02  0.11946827540E+03  0.54732451633E+03  0.58721617650E+03  0.17200000000E+03 0. -1.
         -6    1    1    2    0  501 -0.37443863902E+02 -0.11946827540E+03  0.52084846515E+03  0.56262050746E+03  0.17200000000E+03 0. -1.
</event>
<event>
 4    1  0.3211568E-002  0.3336032E+03  0.7818608E-02  0.1069554E+00
         -1   -1    0    0    0  501 -0.00000000000E+00  0.00000000000E+00  0.18624161066E+03  0.18624161066E+03  0.00000000000E+00 0.  1.
          1   -1    0    0  502    0  0.00000000000E+00 -0.00000000000E+00 -0.89812552318E+03  0.89812552318E+03  0.00000000000E+00 0. -1.
          6    1    1    2  502    0  0.56191278450E+02  0.28026710724E+03 -0.42292033699E+02  0.33627329256E+03  0.17200000000E+03 0.  1.
         -6    1    1    2    0  501 -0.56191278450E+02 -0.28026710724E+03 -0.66959187882E+03  0.74809384128E+03  0.17200000000E+03 0. -1.
</event>
<event>
 4    1  0.3211568E-002  0.3982755E+03  0.7818608E-02  0.1044378E+00
         -2   -1    0    0    0  501 -0.00000000000E+00  0.00000000000E+00  0.34155318568E+03  0.34155318568E+03  0.00000000000E+00 0.  1.
          2   -1    0    0  502    0  0.00000000000E+00 -0.00000000000E+00 -0.51422741217E+03  0.51422741217E+03  0.00000000000E+00 0. -1.
          6    1    1    2  502    0 -0.21586417948E+03  0.28712714899E+03 -0.21950878765E+03  0.45476087291E+03  0.17200000000E+03 0. -1.
         -6    1    1    2    0  501  0.21586417948E+03 -0.28712714899E+03  0.46834561167E+02  0.40101972494E+03  0.17200000000E+03 0.  1.
</event>
<event>
 4    1  0.3211568E-002  0.2838191E+03  0.7818608E-02  0.1093621E+00
          2   -1    0    0  502    0  0.00000000000E+00  0.00000000000E+00  0.41165569749E+03  0.41165569749E+03  0.00000000000E+00 0. -1.
         -2   -1    0    0    0  501 -0.00000000000E+00 -0.00000000000E+00 -0.22835428414E+03  0.22835428414E+03  0.00000000000E+00 0.  1.
          6    1    1    2  502    0  0.76191459471E+02 -0.21251850532E+03  0.21269593545E+03  0.35467282749E+03  0.17200000000E+03 0. -1.
         -6    1    1    2    0  501 -0.76191459471E+02  0.21251850532E+03 -0.29394522102E+02  0.28533715414E+03  0.17200000000E+03 0.  1.
</event>
<event>
 4    1  0.3211568E-002  0.2025290E+03  0.7818608E-02  0.1147623E+00
         -4   -1    0    0    0  501 -0.00000000000E+00  0.00000000000E+00  0.58394843468E+03  0.58394843468E+03  0.00000000000E+00 0.  1.
          4   -1    0    0  502    0  0.00000000000E+00 -0.00000000000E+00 -0.73456145481E+02  0.73456145481E+02  0.00000000000E+00 0. -1.
          6    1    1    2  502    0 -0.23718620667E+02 -0.10426618455E+03  0.18649400420E+03  0.27531440901E+03  0.17200000000E+03 0. -1.
         -6    1    1    2    0  501  0.23718620667E+02  0.10426618455E+03  0.32399828500E+03  0.38209017115E+03  0.17200000000E+03 0.  1.
</event>
<event>
 4    1  0.3211568E-002  0.1758748E+03  0.7818608E-02  0.1171856E+00
         -1   -1    0    0    0  501 -0.00000000000E+00  0.00000000000E+00  0.52614209047E+03  0.52614209047E+03  0.00000000000E+00 0.  1.
          1   -1    0    0  502    0  0.00000000000E+00 -0.00000000000E+00 -0.12432787200E+03  0.12432787200E+03  0.00000000000E+00 0. -1.
          6    1    1    2  502    0 -0.32861326755E+02 -0.16373168050E+02 -0.35227056586E+02  0.17936803769E+03  0.17200000000E+03 0. -1.
         -6    1    1    2    0  501  0.32861326755E+02  0.16373168050E+02  0.43704127505E+03  0.47110192478E+03  0.17200000000E+03 0.  1.
</event>
<event>
 4    1  0.3211568E-002  0.1871298E+03  0.7818608E-02  0.1161076E+00
         -3   -1    0    0    0  501 -0.00000000000E+00  0.00000000000E+00  0.21151214120E+03  0.21151214120E+03  0.00000000000E+00 0.  1.
          3   -1    0    0  502    0  0.00000000000E+00 -0.00000000000E+00 -0.30110600348E+03  0.30110600348E+03  0.00000000000E+00 0. -1.
          6    1    1    2  502    0  0.60480949186E+02 -0.42138152182E+02 -0.21676606974E+03  0.28636532275E+03  0.17200000000E+03 0. -1.
         -6    1    1    2    0  501 -0.60480949186E+02  0.42138152182E+02  0.12717220746E+03  0.22625282193E+03  0.17200000000E+03 0.  1.
</event>
<event>
 4    1  0.3211568E-002  0.2797310E+03  0.7818608E-02  0.1095836E+00
         -2   -1    0    0    0  501 -0.00000000000E+00  0.00000000000E+00  0.93959370690E+02  0.93959370690E+02  0.00000000000E+00 0.  1.
          2   -1    0    0  502    0  0.00000000000E+00 -0.00000000000E+00 -0.85442884229E+03  0.85442884229E+03  0.00000000000E+00 0. -1.
          6    1    1    2  502    0 -0.13739996762E+03 -0.17258820455E+03 -0.45567909378E+03  0.53468951361E+03  0.17200000000E+03 0. -1.
         -6    1    1    2    0  501  0.13739996762E+03  0.17258820455E+03 -0.30479037782E+03  0.41369869937E+03  0.17200000000E+03 0.  1.
</event>
<event>
 4    1  0.3211568E-002  0.2670395E+03  0.7818608E-02  0.1102986E+00
          2   -1    0    0  502    0  0.00000000000E+00  0.00000000000E+00  0.42210569709E+03  0.42210569709E+03  0.00000000000E+00 0. -1.
         -2   -1    0    0    0  501 -0.00000000000E+00 -0.00000000000E+00 -0.22041099037E+03  0.22041099037E+03  0.00000000000E+00 0.  1.
          6    1    1    2  502    0  0.18469878257E+03  0.87249246028E+02  0.25609452808E+03  0.36999253847E+03  0.17200000000E+03 0. -1.
         -6    1    1    2    0  501 -0.18469878257E+03 -0.87249246028E+02 -0.54399821359E+02  0.27252414898E+03  0.17200000000E+03 0.  1.
</event>
<event>
 4    1  0.3211568E-002  0.1900255E+03  0.7818608E-02  0.1158438E+00
          3   -1    0    0  502    0  0.00000000000E+00  0.00000000000E+00  0.15575799989E+03  0.15575799989E+03  0.00000000000E+00 0. -1.
         -3   -1    0    0    0  501 -0.00000000000E+00 -0.00000000000E+00 -0.23976099793E+03  0.23976099793E+03  0.00000000000E+00 0.  1.
          6    1    1    2  502    0 -0.51883513095E+02  0.61917727772E+02 -0.77964385643E+02  0.20539753984E+03  0.17200000000E+03 0. -1.
         -6    1    1    2    0  501  0.51883513095E+02 -0.61917727772E+02 -0.60386123993E+01  0.19012145798E+03  0.17200000000E+03 0. -1.
</event>
<event>
 4    1  0.3211568E-002  0.2320710E+03  0.7818608E-02  0.1125191E+00
          1   -1    0    0  502    0  0.00000000000E+00  0.00000000000E+00  0.24544746946E+03  0.24544746946E+03  0.00000000000E+00 0. -1.
         -1   -1    0    0    0  501 -0.00000000000E+00 -0.00000000000E+00 -0.34225958932E+03  0.34225958932E+03  0.00000000000E+00 0.  1.
          6    1    1    2  502    0  0.59553902595E+02 -0.14396621385E+03  0.12763587118E+03  0.26485440086E+03  0.17200000000E+03 0. -1.
         -6    1    1    2    0  501 -0.59553902595E+02  0.14396621385E+03 -0.22444799104E+03  0.32285265792E+03  0.17200000000E+03 0.  1.
</event>
<event>
 4    1  0.3211568E-002  0.2221010E+03  0.7818608E-02  0.1132326E+00
          2   -1    0    0  502    0  0.00000000000E+00  0.00000000000E+00  0.45569450100E+03  0.45569450100E+03  0.00000000000E+00 0. -1.
         -2   -1    0    0    0  501 -0.00000000000E+00 -0.00000000000E+00 -0.16453543476E+03  0.16453543476E+03  0.00000000000E+00 0.  1.
          6    1    1    2  502    0 -0.13049904757E+03 -0.52104104229E+02  0.32696053087E+03  0.39526197368E+03  0.17200000000E+03 0. -1.
         -6    1    1    2    0  501  0.13049904757E+03  0.52104104229E+02 -0.35801464619E+02  0.22496796208E+03  0.17200000000E+03 0.  1.
</event>
<event>
 4    1  0.3211568E-002  0.2957449E+03  0.7818608E-02  0.1087387E+00
          2   -1    0    0  502    0  0.00000000000E+00  0.00000000000E+00  0.99267313503E+03  0.99267313503E+03  0.00000000000E+00 0. -1.
         -2   -1    0    0    0  501 -0.00000000000E+00 -0.00000000000E+00 -0.89791840961E+02  0.89791840961E+02  0.00000000000E+00 0.  1.
          6    1    1    2  502    0 -0.21617229826E+03  0.10559644495E+03  0.37738223582E+03  0.47946055483E+03  0.17200000000E+03 0. -1.
         -6    1    1    2    0  501  0.21617229826E+03 -0.10559644495E+03  0.52549905825E+03  0.60300442116E+03  0.17200000000E+03 0. -1.
</event>
<event>
 4    1  0.3211568E-002  0.3217259E+03  0.7818608E-02  0.1074858E+00
          3   -1    0    0  502    0  0.00000000000E+00  0.00000000000E+00  0.22063176137E+03  0.22063176137E+03  0.00000000000E+00 0. -1.
         -3   -1    0    0    0  501 -0.00000000000E+00 -0.00000000000E+00 -0.49982614683E+03  0.49982614683E+03  0.00000000000E+00 0.  1.
          6    1    1    2  502    0 -0.27172745093E+03  0.93680678002E+01 -0.50343128226E+02  0.32564090475E+03  0.17200000000E+03 0. -1.
         -6    1    1    2    0  501  0.27172745093E+03 -0.93680678002E+01 -0.22885125723E+03  0.39481700346E+03  0.17200000000E+03 0.  1.
</event>
<event>
 4    1  0.3211568E-002  0.1983851E+03  0.7818608E-02  0.1151109E+00
         -2   -1    0    0    0  501 -0.00000000000E+00  0.00000000000E+00  0.14099771000E+02  0.14099771000E+02  0.00000000000E+00 0.  1.
          2   -1    0    0  502    0  0.00000000000E+00 -0.00000000000E+00 -0.28104981893E+04  0.28104981893E+04  0.00000000000E+00 0. -1.
          6    1    1    2  502    0  0.16653970557E+02 -0.97443855013E+02 -0.15149312648E+04  0.15278656344E+04  0.17200000000E+03 0.  1.
         -6    1    1    2    0  501 -0.16653970557E+02  0.97443855013E+02 -0.12814671535E+04  0.12967323259E+04  0.17200000000E+03 0.  1.
</event>
<event>
 4    1  0.3211568E-002  0.3441100E+03  0.7818608E-02  0.1065059E+00
          2   -1    0    0  502    0  0.00000000000E+00  0.00000000000E+00  0.14059844560E+04  0.14059844560E+04  0.00000000000E+00 0. -1.
         -2   -1    0    0    0  501 -0.00000000000E+00 -0.00000000000E+00 -0.89621462758E+02  0.89621462758E+02  0.00000000000E+00 0.  1.
          6    1    1    2  502    0 -0.28529691100E+03 -0.86216790184E+02  0.84177056760E+03  0.90938954844E+03  0.17200000000E+03 0. -1.
         -6    1    1    2    0  501  0.28529691100E+03  0.86216790184E+02  0.47459242559E+03  0.58621637027E+03  0.17200000000E+03 0.  1.
</event>
<event>
 4    1  0.3211568E-002  0.2920566E+03  0.7818608E-02  0.1089280E+00
          2   -1    0    0  502    0  0.00000000000E+00  0.00000000000E+00  0.19132660734E+03  0.19132660734E+03  0.00000000000E+00 0. -1.
         -2   -1    0    0    0  501 -0.00000000000E+00 -0.00000000000E+00 -0.83113408905E+03  0.83113408905E+03  0.00000000000E+00 0.  1.
          6    1    1    2  502    0 -0.22618271385E+03  0.67486560711E+02  0.28184242651E+02  0.29341337300E+03  0.17200000000E+03 0. -1.
         -6    1    1    2    0  501  0.22618271385E+03 -0.67486560711E+02 -0.66799172436E+03  0.72904732338E+03  0.17200000000E+03 0.  1.
</event>
<event>
 4    1  0.3211568E-002  0.3393275E+03  0.7818608E-02  0.1067083E+00
          4   -1    0    0  502    0  0.00000000000E+00  0.00000000000E+00  0.10445315138E+04  0.10445315138E+04  0.00000000000E+00 0. -1.
         -4   -1    0    0    0  501 -0.00000000000E+00 -0.00000000000E+00 -0.11953193777E+03  0.11953193777E+03  0.00000000000E+00 0.  1.
          6    1    1    2  502    0 -0.24188523874E+03  0.16447086319E+03  0.62482743021E+03  0.71102211717E+03  0.17200000000E+03 0. -1.
         -6    1    1    2    0  501  0.24188523874E+03 -0.16447086319E+03  0.30017214586E+03  0.45304133444E+03  0.17200000000E+03 0.  1.
</event>
<event>
 4    1  0.3211568E-002  0.2260491E+03  0.7818608E-02  0.1129452E+00
         -2   -1    0    0    0  501 -0.00000000000E+00  0.00000000000E+00  0.20009261218E+03  0.20009261218E+03  0.00000000000E+00 0.  1.
          2   -1    0    0  502    0  0.00000000000E+00 -0.00000000000E+00 -0.50463810507E+03  0.50463810507E+03  0.00000000000E+00 0. -1.
          6    1    1    2  502    0 -0.27212721636E+02 -0.14413074684E+03 -0.39992034987E+03  0.45938490468E+03  0.17200000000E+03 0. -1.
         -6    1    1    2    0  501  0.27212721636E+02  0.14413074684E+03  0.95374856978E+02  0.24534581257E+03  0.17200000000E+03 0.  1.
</event>
<event>
 4    1  0.3211568E-002  0.2767673E+03  0.7818608E-02  0.1097468E+00
          1   -1    0    0  502    0  0.00000000000E+00  0.00000000000E+00  0.17737041945E+04  0.17737041945E+04  0.00000000000E+00 0. -1.
         -1   -1    0    0    0  501 -0.00000000000E+00 -0.00000000000E+00 -0.47699546824E+02  0.47699546824E+02  0.00000000000E+00 0.  1.
          6    1    1    2  502    0 -0.20984517949E+03 -0.54599787208E+02  0.11431276637E+04  0.11761551732E+04  0.17200000000E+03 0. -1.
         -6    1    1    2    0  501  0.20984517949E+03  0.54599787208E+02  0.58287698405E+03  0.64524856811E+03  0.17200000000E+03 0.  1.
</event>
<event>
 4    1  0.3211568E-002  0.7446198E+03  0.7818608E-02  0.9643829E-01
         -2   -1    0    0    0  501 -0.00000000000E+00  0.00000000000E+00  0.21706571274E+04  0.21706571274E+04  0.00000000000E+00 0.  1.
          2   -1    0    0  502    0  0.00000000000E+00 -0.00000000000E+00 -0.26097628328E+03  0.26097628328E+03  0.00000000000E+00 0. -1.
          6    1    1    2  502    0 -0.22044945628E+02 -0.72414687663E+03  0.11320263253E+04  0.13549694755E+04  0.17200000000E+03 0. -1.
         -6    1    1    2    0  501  0.22044945628E+02  0.72414687663E+03  0.77765451887E+03  0.10766639352E+04  0.17200000000E+03 0.  1.
</event>
<event>
 4    1  0.3211568E-002  0.1895186E+03  0.7818608E-02  0.1158896E+00
          2   -1    0    0  502    0  0.00000000000E+00  0.00000000000E+00  0.36394226680E+03  0.36394226680E+03  0.00000000000E+00 0. -1.
         -2   -1    0    0    0  501 -0.00000000000E+00 -0.00000000000E+00 -0.10822443197E+03  0.10822443197E+03  0.00000000000E+00 0.  1.
          6    1    1    2  502    0 -0.40817439291E+02 -0.68317063664E+02  0.57784219028E+02  0.19813202797E+03  0.17200000000E+03 0.  1.
         -6    1    1    2    0  501  0.40817439291E+02  0.68317063664E+02  0.19793361580E+03  0.27403467080E+03  0.17200000000E+03 0. -1.
</event>
<event>
 4    1  0.3211568E-002  0.2071768E+03  0.7818608E-02  0.1143821E+00
         -2   -1    0    0    0  501 -0.00000000000E+00  0.00000000000E+00  0.17860818782E+02  0.17860818782E+02  0.00000000000E+00 0.  1.
          2   -1    0    0  502    0  0.00000000000E+00 -0.00000000000E+00 -0.24712344515E+04  0.24712344515E+04  0.00000000000E+00 0. -1.
          6    1    1    2  502    0 -0.11481026498E+03  0.12523150973E+02 -0.14332622116E+04  0.14481584145E+04  0.17200000000E+03 0. -1.
         -6    1    1    2    0  501  0.11481026498E+03 -0.12523150973E+02 -0.10201114211E+04  0.10409368558E+04  0.17200000000E+03 0. -1.
</event>
<event>
 4    1  0.3211568E-002  0.5886525E+03  0.7818608E-02  0.9929232E-01
          2   -1    0    0  502    0  0.00000000000E+00  0.00000000000E+00  0.22889124064E+04  0.22889124064E+04  0.00000000000E+00 0. -1.
         -2   -1    0    0    0  501 -0.00000000000E+00 -0.00000000000E+00 -0.15166549238E+03  0.15166549238E+03  0.00000000000E+00 0.  1.
          6    1    1    2  502    0  0.49038201898E+03  0.27650178174E+03  0.11209070601E+04  0.12660744043E+04  0.17200000000E+03 0. -1.
         -6    1    1    2    0  501 -0.49038201898E+03 -0.27650178174E+03  0.10163398539E+04  0.11745034945E+04  0.17200000000E+03 0.  1.
</event>
<event>
 4    1  0.3211568E-002  0.2034076E+03  0.7818608E-02  0.1146895E+00
         -3   -1    0    0    0  501 -0.00000000000E+00  0.00000000000E+00  0.11554058597E+03  0.11554058597E+03  0.00000000000E+00 0.  1.
          3   -1    0    0  502    0  0.00000000000E+00 -0.00000000000E+00 -0.35900132272E+03  0.35900132272E+03  0.00000000000E+00 0. -1.
          6    1    1    2  502    0 -0.61422876641E+02  0.89542684879E+02 -0.13364317609E+03  0.24338274529E+03  0.17200000000E+03 0. -1.
         -6    1    1    2    0  501  0.61422876641E+02 -0.89542684879E+02 -0.10981756066E+03  0.23115916339E+03  0.17200000000E+03 0.  1.
</event>
<event>
 4    1  0.3211568E-002  0.2467238E+03  0.7818608E-02  0.1115393E+00
         -1   -1    0    0    0  501 -0.00000000000E+00  0.00000000000E+00  0.86653781266E+02  0.86653781266E+02  0.00000000000E+00 0.  1.
          1   -1    0    0  502    0  0.00000000000E+00 -0.00000000000E+00 -0.79759142699E+03  0.79759142699E+03  0.00000000000E+00 0. -1.
          6    1    1    2  502    0 -0.16791735197E+03 -0.55609374675E+02 -0.50814329316E+03  0.56487365493E+03  0.17200000000E+03 0. -1.
         -6    1    1    2    0  501  0.16791735197E+03  0.55609374675E+02 -0.20279435256E+03  0.31937155332E+03  0.17200000000E+03 0.  1.
</event>
<event>
 4    1  0.3211568E-002  0.3074139E+03  0.7818608E-02  0.1081592E+00
         -2   -1    0    0    0  501 -0.00000000000E+00  0.00000000000E+00  0.50914394850E+03  0.50914394850E+03  0.00000000000E+00 0.  1.
          2   -1    0    0  502    0  0.00000000000E+00 -0.00000000000E+00 -0.39190539975E+03  0.39190539975E+03  0.00000000000E+00 0. -1.
          6    1    1    2  502    0 -0.24334666979E+03 -0.75509594588E+02 -0.26824726956E+03  0.40799497326E+03  0.17200000000E+03 0. -1.
         -6    1    1    2    0  501  0.24334666979E+03  0.75509594588E+02  0.38548581831E+03  0.49305437499E+03  0.17200000000E+03 0.  1.
</event>
<event>
 4    1  0.3211568E-002  0.3670070E+03  0.7818608E-02  0.1055843E+00
          3   -1    0    0  502    0  0.00000000000E+00  0.00000000000E+00  0.32011682411E+03  0.32011682411E+03  0.00000000000E+00 0. -1.
         -3   -1    0    0    0  501 -0.00000000000E+00 -0.00000000000E+00 -0.47423466642E+03  0.47423466642E+03  0.00000000000E+00 0.  1.
          6    1    1    2  502    0  0.27575634689E+03  0.17049515918E+03  0.56304640676E+02  0.37130092205E+03  0.17200000000E+03 0. -1.
         -6    1    1    2    0  501 -0.27575634689E+03 -0.17049515918E+03 -0.21042248298E+03  0.42305056848E+03  0.17200000000E+03 0.  1.
</event>
<event>
 4    1  0.3211568E-002  0.1830362E+03  0.7818608E-02  0.1164896E+00
          2   -1    0    0  502    0  0.00000000000E+00  0.00000000000E+00  0.34813987482E+02  0.34813987482E+02  0.00000000000E+00 0. -1.
         -2   -1    0    0    0  501 -0.00000000000E+00 -0.00000000000E+00 -0.98650187044E+03  0.98650187044E+03  0.00000000000E+00 0.  1.
          6    1    1    2  502    0  0.50957523566E+02  0.36353742502E+02 -0.39589574138E+03  0.43616017911E+03  0.17200000000E+03 0. -1.
         -6    1    1    2    0  501 -0.50957523566E+02 -0.36353742502E+02 -0.55579214158E+03  0.58515567881E+03  0.17200000000E+03 0. -1.
</event>
<event>
 4    1  0.3211568E-002  0.1947478E+03  0.7818608E-02  0.1154247E+00
         -4   -1    0    0    0  501 -0.00000000000E+00  0.00000000000E+00  0.53516366341E+03  0.53516366341E+03  0.00000000000E+00 0.  1.
          4   -1    0    0  502    0  0.00000000000E+00 -0.00000000000E+00 -0.71048452562E+02  0.71048452562E+02  0.00000000000E+00 0. -1.
          6    1    1    2  502    0  0.46969670725E+02 -0.78336202017E+02  0.21683999092E+03  0.29145547203E+03  0.17200000000E+03 0.  1.
         -6    1    1    2    0  501 -0.46969670725E+02  0.78336202017E+02  0.24727521993E+03  0.31475664394E+03  0.17200000000E+03 0.  1.
</event>
<event>
 4    1  0.3211568E-002  0.1741549E+03  0.7818608E-02  0.1173583E+00
         -2   -1    0    0    0  501 -0.00000000000E+00  0.00000000000E+00  0.19417379736E+03  0.19417379736E+03  0.00000000000E+00 0.  1.
          2   -1    0    0  502    0  0.00000000000E+00 -0.00000000000E+00 -0.15636969985E+03  0.15636969985E+03  0.00000000000E+00 0. -1.
          6    1    1    2  502    0 -0.27306601933E+02 -0.53525532249E+00  0.13127166116E+02  0.17464896077E+03  0.17200000000E+03 0. -1.
         -6    1    1    2    0  501  0.27306601933E+02  0.53525532249E+00  0.24676931398E+02  0.17589453644E+03  0.17200000000E+03 0.  1.
</event>
<event>
 4    1  0.3211568E-002  0.2460069E+03  0.7818608E-02  0.1115855E+00
          2   -1    0    0  502    0  0.00000000000E+00  0.00000000000E+00  0.34001548547E+03  0.34001548547E+03  0.00000000000E+00 0. -1.
         -2   -1    0    0    0  501 -0.00000000000E+00 -0.00000000000E+00 -0.30134805106E+03  0.30134805106E+03  0.00000000000E+00 0.  1.
          6    1    1    2  502    0  0.91202410503E+02 -0.15039124058E+03 -0.18584087261E+03  0.30831191164E+03  0.17200000000E+03 0.  1.
         -6    1    1    2    0  501 -0.91202410503E+02  0.15039124058E+03  0.22450830702E+03  0.33305162490E+03  0.17200000000E+03 0. -1.
</event>
<event>
 4    1  0.3211568E-002  0.3024121E+03  0.7818608E-02  0.1084041E+00
         -2   -1    0    0    0  501 -0.00000000000E+00  0.00000000000E+00  0.74992494897E+02  0.74992494897E+02  0.00000000000E+00 0.  1.
          2   -1    0    0  502    0  0.00000000000E+00 -0.00000000000E+00 -0.13051109051E+04  0.13051109051E+04  0.00000000000E+00 0. -1.
          6    1    1    2  502    0  0.20301990674E+03 -0.14370802190E+03 -0.79179787327E+03  0.84758300491E+03  0.17200000000E+03 0. -1.
         -6    1    1    2    0  501 -0.20301990674E+03  0.14370802190E+03 -0.43832053694E+03  0.53252039510E+03  0.17200000000E+03 0.  1.
</event>
<event>
 4    1  0.3211568E-002  0.7743182E+03  0.7818608E-02  0.9597953E-01
          2   -1    0    0  502    0  0.00000000000E+00  0.00000000000E+00  0.29809789047E+04  0.29809789047E+04  0.00000000000E+00 0. -1.
         -2   -1    0    0    0  501 -0.00000000000E+00 -0.00000000000E+00 -0.39080786801E+03  0.39080786801E+03  0.00000000000E+00 0.  1.
          6    1    1    2  502    0 -0.45915546993E+03  0.59930042204E+03  0.24695910775E+04  0.25881361694E+04  0.17200000000E+03 0. -1.
         -6    1    1    2    0  501  0.45915546993E+03 -0.59930042204E+03  0.12057995916E+03  0.78365060325E+03  0.17200000000E+03 0.  1.
</event>
<event>
 4    1  0.3211568E-002  0.1802513E+03  0.7818608E-02  0.1167560E+00
         -1   -1    0    0    0  501 -0.00000000000E+00  0.00000000000E+00  0.67022223255E+02  0.67022223255E+02  0.00000000000E+00 0.  1.
          1   -1    0    0  502    0  0.00000000000E+00 -0.00000000000E+00 -0.63895774539E+03  0.63895774539E+03  0.00000000000E+00 0. -1.
          6    1    1    2  502    0  0.48446666839E+02  0.23653013063E+02 -0.45936709742E+03  0.49346598135E+03  0.17200000000E+03 0. -1.
         -6    1    1    2    0  501 -0.48446666839E+02 -0.23653013063E+02 -0.11256842472E+03  0.21251398730E+03  0.17200000000E+03 0.  1.
</event>
<event>
 4    1  0.3211568E-002  0.2187493E+03  0.7818608E-02  0.1134819E+00
          1   -1    0    0  502    0  0.00000000000E+00  0.00000000000E+00  0.19546180727E+04  0.19546180727E+04  0.00000000000E+00 0. -1.
         -1   -1    0    0    0  501 -0.00000000000E+00 -0.00000000000E+00 -0.85018106676E+02  0.85018106676E+02  0.00000000000E+00 0.  1.
          6    1    1    2  502    0 -0.93208530996E+02 -0.97874460065E+02  0.17953525320E+04  0.18086298555E+04  0.17200000000E+03 0. -1.
         -6    1    1    2    0  501  0.93208530996E+02  0.97874460065E+02  0.74247433991E+02  0.23100632380E+03  0.17200000000E+03 0.  1.
</event>
<event>
 4    1  0.3211568E-002  0.2985848E+03  0.7818608E-02  0.1085950E+00
         -2   -1    0    0    0  501 -0.00000000000E+00  0.00000000000E+00  0.67651916873E+02  0.67651916873E+02  0.00000000000E+00 0.  1.
          2   -1    0    0  502    0  0.00000000000E+00 -0.00000000000E+00 -0.15376501794E+04  0.15376501794E+04  0.00000000000E+00 0. -1.
          6    1    1    2  502    0 -0.39198606215E+02 -0.24089899992E+03 -0.10384891691E+04  0.10805612492E+04  0.17200000000E+03 0. -1.
         -6    1    1    2    0  501  0.39198606215E+02  0.24089899992E+03 -0.43150909338E+03  0.52474084705E+03  0.17200000000E+03 0.  1.
</event>
<event>
 4    1  0.3211568E-002  0.2552378E+03  0.7818608E-02  0.1110039E+00
         -2   -1    0    0    0  501 -0.00000000000E+00  0.00000000000E+00  0.11200197886E+03  0.11200197886E+03  0.00000000000E+00 0.  1.
          2   -1    0    0  502    0  0.00000000000E+00 -0.00000000000E+00 -0.63302177412E+03  0.63302177412E+03  0.00000000000E+00 0. -1.
          6    1    1    2  502    0 -0.10138610909E+03 -0.15900686061E+03 -0.36662543369E+03  0.44672198677E+03  0.17200000000E+03 0. -1.
         -6    1    1    2    0  501  0.10138610909E+03  0.15900686061E+03 -0.15439436158E+03  0.29830176621E+03  0.17200000000E+03 0.  1.
</event>
<event>
 4    1  0.3211568E-002  0.3161863E+03  0.7818608E-02  0.1077418E+00
         -1   -1    0    0    0  501 -0.00000000000E+00  0.00000000000E+00  0.16171635293E+03  0.16171635293E+03  0.00000000000E+00 0.  1.
          1   -1    0    0  502    0  0.00000000000E+00 -0.00000000000E+00 -0.67933589093E+03  0.67933589093E+03  0.00000000000E+00 0. -1.
          6    1    1    2  502    0  0.16153941931E+03 -0.21046333282E+03 -0.38495834951E+03  0.49816335605E+03  0.17200000000E+03 0. -1.
         -6    1    1    2    0  501 -0.16153941931E+03  0.21046333282E+03 -0.13266118849E+03  0.34288888781E+03  0.17200000000E+03 0. -1.
</event>
<event>
 4    1  0.3211568E-002  0.1846767E+03  0.7818608E-02  0.1163352E+00
          2   -1    0    0  502    0  0.00000000000E+00  0.00000000000E+00  0.64727659801E+03  0.64727659801E+03  0.00000000000E+00 0. -1.
         -2   -1    0    0    0  501 -0.00000000000E+00 -0.00000000000E+00 -0.56475791324E+02  0.56475791324E+02  0.00000000000E+00 0.  1.
          6    1    1    2  502    0 -0.50951531162E+02 -0.43879697102E+02  0.20430545199E+03  0.27540189552E+03  0.17200000000E+03 0.  1.
         -6    1    1    2    0  501  0.50951531162E+02  0.43879697102E+02  0.38649535470E+03  0.42835049382E+03  0.17200000000E+03 0. -1.
</event>
<event>
 4    1  0.3211568E-002  0.5348582E+03  0.7818608E-02  0.1005061E+00
          1   -1    0    0  502    0  0.00000000000E+00  0.00000000000E+00  0.12921800995E+04  0.12921800995E+04  0.00000000000E+00 0. -1.
         -1   -1    0    0    0  501 -0.00000000000E+00 -0.00000000000E+00 -0.23765575289E+03  0.23765575289E+03  0.00000000000E+00 0.  1.
          6    1    1    2  502    0  0.23782393139E+03 -0.44713431201E+03  0.72738790528E+03  0.90286570434E+03  0.17200000000E+03 0. -1.
         -6    1    1    2    0  501 -0.23782393139E+03  0.44713431201E+03  0.32713644135E+03  0.62697014807E+03  0.17200000000E+03 0. -1.
</event>
<event>
 4    1  0.3211568E-002  0.2010905E+03  0.7818608E-02  0.1148822E+00
         -1   -1    0    0    0  501 -0.00000000000E+00  0.00000000000E+00  0.88527524433E+02  0.88527524433E+02  0.00000000000E+00 0.  1.
          1   -1    0    0  502    0  0.00000000000E+00 -0.00000000000E+00 -0.64751271627E+03  0.64751271627E+03  0.00000000000E+00 0. -1.
          6    1    1    2  502    0  0.99130695440E+02  0.32039143926E+02 -0.79753722956E+02  0.21632858768E+03  0.17200000000E+03 0. -1.
         -6    1    1    2    0  501 -0.99130695440E+02 -0.32039143926E+02 -0.47923146888E+03  0.51971165302E+03  0.17200000000E+03 0. -1.
</event>
<event>
 4    1  0.3211568E-002  0.2262507E+03  0.7818608E-02  0.1129307E+00
         -2   -1    0    0    0  501 -0.00000000000E+00  0.00000000000E+00  0.92053198019E+02  0.92053198019E+02  0.00000000000E+00 0.  1.
          2   -1    0    0  502    0  0.00000000000E+00 -0.00000000000E+00 -0.99090943139E+03  0.99090943139E+03  0.00000000000E+00 0. -1.
          6    1    1    2  502    0  0.41936585717E+02  0.14087826801E+03 -0.80812175492E+03  0.83919612392E+03  0.17200000000E+03 0. -1.
         -6    1    1    2    0  501 -0.41936585717E+02 -0.14087826801E+03 -0.90734478449E+02  0.24376650549E+03  0.17200000000E+03 0.  1.
</event>
<event>
 4    1  0.3211568E-002  0.6925010E+03  0.7818608E-02  0.9730143E-01
         -2   -1    0    0    0  501 -0.00000000000E+00  0.00000000000E+00  0.15535491089E+03  0.15535491089E+03  0.00000000000E+00 0.  1.
          2   -1    0    0  502    0  0.00000000000E+00 -0.00000000000E+00 -0.43879950411E+04  0.43879950411E+04  0.00000000000E+00 0. -1.
          6    1    1    2  502    0  0.40458971597E+03  0.53505210049E+03 -0.33533371067E+04  0.34240951125E+04  0.17200000000E+03 0. -1.
         -6    1    1    2    0  501 -0.40458971597E+03 -0.53505210049E+03 -0.87930302353E+03  0.11192548395E+04  0.17200000000E+03 0.  1.
</event>
<event>
 4    1  0.3211568E-002  0.2971962E+03  0.7818608E-02  0.1086651E+00
         -1   -1    0    0    0  501 -0.00000000000E+00  0.00000000000E+00  0.29402359925E+03  0.29402359925E+03  0.00000000000E+00 0.  1.
          1   -1    0    0  502    0  0.00000000000E+00 -0.00000000000E+00 -0.34758163388E+03  0.34758163388E+03  0.00000000000E+00 0. -1.
          6    1    1    2  502    0  0.11492943310E+03 -0.21338416448E+03  0.91411353333E+02  0.31093666841E+03  0.17200000000E+03 0.  1.
         -6    1    1    2    0  501 -0.11492943310E+03  0.21338416448E+03 -0.14496938796E+03  0.33066856471E+03  0.17200000000E+03 0. -1.
</event>
<event>
 4    1  0.3211568E-002  0.1893301E+03  0.7818608E-02  0.1159067E+00
          2   -1    0    0  502    0  0.00000000000E+00  0.00000000000E+00  0.31412300081E+03  0.31412300081E+03  0.00000000000E+00 0. -1.
         -2   -1    0    0    0  501 -0.00000000000E+00 -0.00000000000E+00 -0.11439648248E+03  0.11439648248E+03  0.00000000000E+00 0.  1.
          6    1    1    2  502    0  0.31504756083E+01 -0.79069383392E+02  0.89219838339E+02  0.20929900248E+03  0.17200000000E+03 0.  1.
         -6    1    1    2    0  501 -0.31504756083E+01  0.79069383392E+02  0.11050667999E+03  0.21922048082E+03  0.17200000000E+03 0. -1.
</event>
<event>
 4    1  0.3211568E-002  0.3298883E+03  0.7818608E-02  0.1071186E+00
          2   -1    0    0  502    0  0.00000000000E+00  0.00000000000E+00  0.38361484404E+03  0.38361484404E+03  0.00000000000E+00 0. -1.
         -2   -1    0    0    0  501 -0.00000000000E+00 -0.00000000000E+00 -0.29868714797E+03  0.29868714797E+03  0.00000000000E+00 0.  1.
          6    1    1    2  502    0 -0.13883911159E+03  0.24487955184E+03  0.11891703571E+03  0.35066729987E+03  0.17200000000E+03 0. -1.
         -6    1    1    2    0  501  0.13883911159E+03 -0.24487955184E+03 -0.33989339646E+02  0.33163469213E+03  0.17200000000E+03 0.  1.
</event>
<event>
 4    1  0.3211568E-002  0.4802091E+03  0.7818608E-02  0.1019078E+00
          2   -1    0    0  502    0  0.00000000000E+00  0.00000000000E+00  0.17516842194E+04  0.17516842194E+04  0.00000000000E+00 0. -1.
         -2   -1    0    0    0  501 -0.00000000000E+00 -0.00000000000E+00 -0.13240901253E+03  0.13240901253E+03  0.00000000000E+00 0.  1.
          6    1    1    2  502    0 -0.38678814749E+03  0.22674146105E+03  0.88118872666E+03  0.10035408976E+04  0.17200000000E+03 0. -1.
         -6    1    1    2    0  501  0.38678814749E+03 -0.22674146105E+03  0.73808648023E+03  0.88055233433E+03  0.17200000000E+03 0.  1.
</event>
<event>
 4    1  0.3211568E-002  0.2037717E+03  0.7818608E-02  0.1146595E+00
          2   -1    0    0  502    0  0.00000000000E+00  0.00000000000E+00  0.36449319748E+04  0.36449319748E+04  0.00000000000E+00 0. -1.
         -2   -1    0    0    0  501 -0.00000000000E+00 -0.00000000000E+00 -0.12191297383E+02  0.12191297383E+02  0.00000000000E+00 0.  1.
          6    1    1    2  502    0  0.10923113553E+03  0.27289857864E+01  0.22845925463E+04  0.22936621353E+04  0.17200000000E+03 0. -1.
         -6    1    1    2    0  501 -0.10923113553E+03 -0.27289857864E+01  0.13481481311E+04  0.13634611369E+04  0.17200000000E+03 0.  1.
</event>
<event>
 4    1  0.3211568E-002  0.1935986E+03  0.7818608E-02  0.1155255E+00
          2   -1    0    0  502    0  0.00000000000E+00  0.00000000000E+00  0.55677679663E+03  0.55677679663E+03  0.00000000000E+00 0. -1.
         -2   -1    0    0    0  501 -0.00000000000E+00 -0.00000000000E+00 -0.93665692244E+02  0.93665692244E+02  0.00000000000E+00 0.  1.
          6    1    1    2  502    0 -0.39912021236E+02  0.79394317950E+02  0.40404792242E+03  0.44803476514E+03  0.17200000000E+03 0. -1.
         -6    1    1    2    0  501  0.39912021236E+02 -0.79394317950E+02  0.59063181960E+02  0.20240772373E+03  0.17200000000E+03 0.  1.
</event>
<event>
 4    1  0.3211568E-002  0.2136720E+03  0.7818608E-02  0.1138691E+00
         -2   -1    0    0    0  501 -0.00000000000E+00  0.00000000000E+00  0.72748679760E+02  0.72748679760E+02  0.00000000000E+00 0.  1.
          2   -1    0    0  502    0  0.00000000000E+00 -0.00000000000E+00 -0.79704464605E+03  0.79704464605E+03  0.00000000000E+00 0. -1.
          6    1    1    2  502    0 -0.44965331720E+02  0.11853206879E+03 -0.56267932642E+03  0.60188350764E+03  0.17200000000E+03 0. -1.
         -6    1    1    2    0  501  0.44965331720E+02 -0.11853206879E+03 -0.16161663987E+03  0.26790981817E+03  0.17200000000E+03 0.  1.
</event>
<event>
 4    1  0.3211568E-002  0.3895996E+03  0.7818608E-02  0.1047442E+00
         -1   -1    0    0    0  501 -0.00000000000E+00  0.00000000000E+00  0.58351084681E+03  0.58351084681E+03  0.00000000000E+00 0.  1.
          1   -1    0    0  502    0  0.00000000000E+00 -0.00000000000E+00 -0.40333821115E+03  0.40333821115E+03  0.00000000000E+00 0. -1.
          6    1    1    2  502    0 -0.25762040673E+03  0.23629555921E+03 -0.20393046387E+03  0.43974481164E+03  0.17200000000E+03 0. -1.
         -6    1    1    2    0  501  0.25762040673E+03 -0.23629555921E+03  0.38410309953E+03  0.54710424632E+03  0.17200000000E+03 0.  1.
</event>
<event>
 4    1  0.3211568E-002  0.2858383E+03  0.7818608E-02  0.1092542E+00
          1   -1    0    0  502    0  0.00000000000E+00  0.00000000000E+00  0.14964550572E+03  0.14964550572E+03  0.00000000000E+00 0. -1.
         -1   -1    0    0    0  501 -0.00000000000E+00 -0.00000000000E+00 -0.61145663661E+03  0.61145663661E+03  0.00000000000E+00 0.  1.
          6    1    1    2  502    0  0.11599468355E+03  0.19663356163E+03 -0.35543491679E+03  0.45611128493E+03  0.17200000000E+03 0.  1.
         -6    1    1    2    0  501 -0.11599468355E+03 -0.19663356163E+03 -0.10637621410E+03  0.30499085740E+03  0.17200000000E+03 0.  1.
</event>
<event>
 4    1  0.3211568E-002  0.1755953E+03  0.7818608E-02  0.1172135E+00
          3   -1    0    0  502    0  0.00000000000E+00  0.00000000000E+00  0.16678127268E+03  0.16678127268E+03  0.00000000000E+00 0. -1.
         -3   -1    0    0    0  501 -0.00000000000E+00 -0.00000000000E+00 -0.18877409005E+03  0.18877409005E+03  0.00000000000E+00 0.  1.
          6    1    1    2  502    0  0.36876046870E+01  0.35158434006E+02 -0.36545705665E+02  0.17935802885E+03  0.17200000000E+03 0.  1.
         -6    1    1    2    0  501 -0.36876046870E+01 -0.35158434006E+02  0.14552888290E+02  0.17619733388E+03  0.17200000000E+03 0. -1.
</event>
<event>
 4    1  0.3211568E-002  0.2886691E+03  0.7818608E-02  0.1091046E+00
         -4   -1    0    0    0  501 -0.00000000000E+00  0.00000000000E+00  0.21661028712E+03  0.21661028712E+03  0.00000000000E+00 0.  1.
          4   -1    0    0  502    0  0.00000000000E+00 -0.00000000000E+00 -0.11401018078E+04  0.11401018078E+04  0.00000000000E+00 0. -1.
          6    1    1    2  502    0  0.22384474839E+03 -0.60327054146E+02 -0.10139186708E+04  0.10542110300E+04  0.17200000000E+03 0. -1.
         -6    1    1    2    0  501 -0.22384474839E+03  0.60327054146E+02  0.90427150036E+02  0.30250106497E+03  0.17200000000E+03 0.  1.
</event>
<event>
 4    1  0.3211568E-002  0.1890717E+03  0.7818608E-02  0.1159301E+00
          1   -1    0    0  502    0  0.00000000000E+00  0.00000000000E+00  0.42483928770E+03  0.42483928770E+03  0.00000000000E+00 0. -1.
         -1   -1    0    0    0  501 -0.00000000000E+00 -0.00000000000E+00 -0.10509869338E+03  0.10509869338E+03  0.00000000000E+00 0.  1.
          6    1    1    2  502    0 -0.63381335244E+02 -0.46334619205E+02  0.27818179699E+03  0.33635279510E+03  0.17200000000E+03 0. -1.
         -6    1    1    2    0  501  0.63381335244E+02  0.46334619205E+02  0.41558797326E+02  0.19358518598E+03  0.17200000000E+03 0.  1.
</event>
<event>
 4    1  0.3211568E-002  0.2681971E+03  0.7818608E-02  0.1102316E+00
          2   -1    0    0  502    0  0.00000000000E+00  0.00000000000E+00  0.59036347118E+03  0.59036347118E+03  0.00000000000E+00 0. -1.
         -2   -1    0    0    0  501 -0.00000000000E+00 -0.00000000000E+00 -0.12889238781E+03  0.12889238781E+03  0.00000000000E+00 0.  1.
          6    1    1    2  502    0 -0.81856520470E+02  0.18879929437E+03  0.31485944981E+03  0.41360142243E+03  0.17200000000E+03 0. -1.
         -6    1    1    2    0  501  0.81856520470E+02 -0.18879929437E+03  0.14661163355E+03  0.30565443656E+03  0.17200000000E+03 0.  1.
</event>
<event>
 4    1  0.3211568E-002  0.1770674E+03  0.7818608E-02  0.1170672E+00
         -3   -1    0    0    0  501 -0.00000000000E+00  0.00000000000E+00  0.11706745359E+03  0.11706745359E+03  0.00000000000E+00 0.  1.
          3   -1    0    0  502    0  0.00000000000E+00 -0.00000000000E+00 -0.37872456203E+03  0.37872456203E+03  0.00000000000E+00 0. -1.
          6    1    1    2  502    0  0.19761700983E+02 -0.37125800274E+02 -0.26497683275E+03  0.31869353895E+03  0.17200000000E+03 0. -1.
         -6    1    1    2    0  501 -0.19761700983E+02  0.37125800274E+02  0.33197243102E+01  0.17709847668E+03  0.17200000000E+03 0.  1.
</event>
<event>
 4    1  0.3211568E-002  0.2056693E+03  0.7818608E-02  0.1145042E+00
         -1   -1    0    0    0  501 -0.00000000000E+00  0.00000000000E+00  0.10907590497E+03  0.10907590497E+03  0.00000000000E+00 0.  1.
          1   -1    0    0  502    0  0.00000000000E+00 -0.00000000000E+00 -0.46836385095E+03  0.46836385095E+03  0.00000000000E+00 0. -1.
          6    1    1    2  502    0 -0.11264432164E+03 -0.52056377605E+01 -0.59901004113E+02  0.21421478043E+03  0.17200000000E+03 0. -1.
         -6    1    1    2    0  501  0.11264432164E+03  0.52056377605E+01 -0.29938694186E+03  0.36322497549E+03  0.17200000000E+03 0. -1.
</event>
<event>
 4    1  0.3211568E-002  0.2136898E+03  0.7818608E-02  0.1138677E+00
         -2   -1    0    0    0  501 -0.00000000000E+00  0.00000000000E+00  0.19670103263E+03  0.19670103263E+03  0.00000000000E+00 0.  1.
          2   -1    0    0  502    0  0.00000000000E+00 -0.00000000000E+00 -0.23565685384E+03  0.23565685384E+03  0.00000000000E+00 0. -1.
          6    1    1    2  502    0 -0.10806652771E+03 -0.66339589781E+02  0.69092729978E+01  0.21380143507E+03  0.17200000000E+03 0.  1.
         -6    1    1    2    0  501  0.10806652771E+03  0.66339589781E+02 -0.45865094200E+02  0.21855645140E+03  0.17200000000E+03 0.  1.
</event>
<event>
 4    1  0.3211568E-002  0.2245409E+03  0.7818608E-02  0.1130542E+00
          2   -1    0    0  502    0  0.00000000000E+00  0.00000000000E+00  0.25973250077E+04  0.25973250077E+04  0.00000000000E+00 0. -1.
         -2   -1    0    0    0  501 -0.00000000000E+00 -0.00000000000E+00 -0.19412131355E+02  0.19412131355E+02  0.00000000000E+00 0.  1.
          6    1    1    2  502    0 -0.14165265520E+03 -0.27733385523E+02  0.12831330676E+04  0.13026315997E+04  0.17200000000E+03 0. -1.
         -6    1    1    2    0  501  0.14165265520E+03  0.27733385523E+02  0.12947798088E+04  0.13141055394E+04  0.17200000000E+03 0.  1.
</event>
<event>
 4    1  0.3211568E-002  0.1879331E+03  0.7818608E-02  0.1160339E+00
          1   -1    0    0  502    0  0.00000000000E+00  0.00000000000E+00  0.31298076599E+03  0.31298076599E+03  0.00000000000E+00 0. -1.
         -1   -1    0    0    0  501 -0.00000000000E+00 -0.00000000000E+00 -0.11352410402E+03  0.11352410402E+03  0.00000000000E+00 0.  1.
          6    1    1    2  502    0  0.30832631993E+02 -0.69167798137E+02  0.11620180605E+03  0.22095631972E+03  0.17200000000E+03 0. -1.
         -6    1    1    2    0  501 -0.30832631993E+02  0.69167798137E+02  0.83254855915E+02  0.20554855029E+03  0.17200000000E+03 0.  1.
</event>
<event>
 4    1  0.3211568E-002  0.2675421E+03  0.7818608E-02  0.1102695E+00
          2   -1    0    0  502    0  0.00000000000E+00  0.00000000000E+00  0.17352698071E+03  0.17352698071E+03  0.00000000000E+00 0. -1.
         -2   -1    0    0    0  501 -0.00000000000E+00 -0.00000000000E+00 -0.49155149873E+03  0.49155149873E+03  0.00000000000E+00 0.  1.
          6    1    1    2  502    0  0.15475806644E+03 -0.13433066578E+03 -0.25650677524E+02  0.26876894195E+03  0.17200000000E+03 0. -1.
         -6    1    1    2    0  501 -0.15475806644E+03  0.13433066578E+03 -0.29237384049E+03  0.39630953749E+03  0.17200000000E+03 0.  1.
</event>
<event>
 4    1  0.3211568E-002  0.3269638E+03  0.7818608E-02  0.1072488E+00
         -2   -1    0    0    0  501 -0.00000000000E+00  0.00000000000E+00  0.54801828686E+03  0.54801828686E+03  0.00000000000E+00 0.  1.
          2   -1    0    0  502    0  0.00000000000E+00 -0.00000000000E+00 -0.21471090521E+03  0.21471090521E+03  0.00000000000E+00 0. -1.
          6    1    1    2  502    0  0.26848207741E+03 -0.72378885823E+02  0.28197921358E+03  0.43176105185E+03  0.17200000000E+03 0.  1.
         -6    1    1    2    0  501 -0.26848207741E+03  0.72378885823E+02  0.51328168067E+02  0.33096814022E+03  0.17200000000E+03 0.  1.
</event>
<event>
 4    1  0.3211568E-002  0.1929375E+03  0.7818608E-02  0.1155838E+00
         -2   -1    0    0    0  501 -0.00000000000E+00  0.00000000000E+00  0.36643853614E+02  0.36643853614E+02  0.00000000000E+00 0.  1.
          2   -1    0    0  502    0  0.00000000000E+00 -0.00000000000E+00 -0.12563712731E+04  0.12563712731E+04  0.00000000000E+00 0. -1.
          6    1    1    2  502    0 -0.78246252215E+02 -0.38966758000E+02 -0.89273300062E+03  0.91334390819E+03  0.17200000000E+03 0. -1.
         -6    1    1    2    0  501  0.78246252215E+02  0.38966758000E+02 -0.32699441888E+03  0.37967121855E+03  0.17200000000E+03 0. -1.
</event>
<event>
 4    1  0.3211568E-002  0.2060615E+03  0.7818608E-02  0.1144723E+00
         -2   -1    0    0    0  501 -0.00000000000E+00  0.00000000000E+00  0.85453734475E+02  0.85453734475E+02  0.00000000000E+00 0.  1.
          2   -1    0    0  502    0  0.00000000000E+00 -0.00000000000E+00 -0.61653463697E+03  0.61653463697E+03  0.00000000000E+00 0. -1.
          6    1    1    2  502    0  0.11221317203E+03 -0.16898639278E+02 -0.11092161202E+03  0.23401915306E+03  0.17200000000E+03 0.  1.
         -6    1    1    2    0  501 -0.11221317203E+03  0.16898639278E+02 -0.42015929048E+03  0.46796921839E+03  0.17200000000E+03 0. -1.
</event>
<event>
 4    1  0.3211568E-002  0.2051198E+03  0.7818608E-02  0.1145490E+00
          2   -1    0    0  502    0  0.00000000000E+00  0.00000000000E+00  0.58458168379E+03  0.58458168379E+03  0.00000000000E+00 0. -1.
         -2   -1    0    0    0  501 -0.00000000000E+00 -0.00000000000E+00 -0.17160522130E+03  0.17160522130E+03  0.00000000000E+00 0.  1.
          6    1    1    2  502    0 -0.11124244731E+03  0.10735074083E+02  0.49458190127E+03  0.53543008971E+03  0.17200000000E+03 0. -1.
         -6    1    1    2    0  501  0.11124244731E+03 -0.10735074083E+02 -0.81605438783E+02  0.22075681538E+03  0.17200000000E+03 0.  1.
</event>
<event>
 4    1  0.3211568E-002  0.2716407E+03  0.7818608E-02  0.1100344E+00
          2   -1    0    0  502    0  0.00000000000E+00  0.00000000000E+00  0.16536342565E+04  0.16536342565E+04  0.00000000000E+00 0. -1.
         -2   -1    0    0    0  501 -0.00000000000E+00 -0.00000000000E+00 -0.57603761607E+02  0.57603761607E+02  0.00000000000E+00 0.  1.
          6    1    1    2  502    0 -0.20013098933E+03  0.64438048994E+02  0.39183413870E+03  0.47678366929E+03  0.17200000000E+03 0.  1.
         -6    1    1    2    0  501  0.20013098933E+03 -0.64438048994E+02  0.12041963562E+04  0.12344543488E+04  0.17200000000E+03 0. -1.
</event>
<event>
 4    1  0.3211568E-002  0.3269609E+03  0.7818608E-02  0.1072490E+00
         -2   -1    0    0    0  501 -0.00000000000E+00  0.00000000000E+00  0.19547928101E+03  0.19547928101E+03  0.00000000000E+00 0.  1.
          2   -1    0    0  502    0  0.00000000000E+00 -0.00000000000E+00 -0.92238785105E+03  0.92238785105E+03  0.00000000000E+00 0. -1.
          6    1    1    2  502    0 -0.18390504808E+03 -0.20856254644E+03 -0.68276116694E+01  0.32703213721E+03  0.17200000000E+03 0.  1.
         -6    1    1    2    0  501  0.18390504808E+03  0.20856254644E+03 -0.72008095837E+03  0.79083499486E+03  0.17200000000E+03 0. -1.
</event>
<event>
 4    1  0.3211568E-002  0.3720871E+03  0.7818608E-02  0.1053898E+00
         -2   -1    0    0    0  501 -0.00000000000E+00  0.00000000000E+00  0.20935488109E+03  0.20935488109E+03  0.00000000000E+00 0.  1.
          2   -1    0    0  502    0  0.00000000000E+00 -0.00000000000E+00 -0.16132952965E+04  0.16132952965E+04  0.00000000000E+00 0. -1.
          6    1    1    2  502    0  0.16160509179E+02 -0.32955069377E+03 -0.14020235554E+04  0.14505581242E+04  0.17200000000E+03 0. -1.
         -6    1    1    2    0  501 -0.16160509179E+02  0.32955069377E+03 -0.19168599919E+01  0.37209205336E+03  0.17200000000E+03 0.  1.
</event>
<event>
 4    1  0.3211568E-002  0.1878845E+03  0.7818608E-02  0.1160383E+00
         -2   -1    0    0    0  501 -0.00000000000E+00  0.00000000000E+00  0.18690053853E+02  0.18690053853E+02  0.00000000000E+00 0.  1.
          2   -1    0    0  502    0  0.00000000000E+00 -0.00000000000E+00 -0.25258136501E+04  0.25258136501E+04  0.00000000000E+00 0. -1.
          6    1    1    2  502    0 -0.41655475896E+02 -0.63098522190E+02 -0.18925137108E+04  0.19018172225E+04  0.17200000000E+03 0. -1.
         -6    1    1    2    0  501  0.41655475896E+02  0.63098522190E+02 -0.61460988547E+03  0.64268648149E+03  0.17200000000E+03 0.  1.
</event>
<event>
 4    1  0.3211568E-002  0.1876051E+03  0.7818608E-02  0.1160639E+00
         -1   -1    0    0    0  501 -0.00000000000E+00  0.00000000000E+00  0.11456103658E+03  0.11456103658E+03  0.00000000000E+00 0.  1.
          1   -1    0    0  502    0  0.00000000000E+00 -0.00000000000E+00 -0.30970027779E+03  0.30970027779E+03  0.00000000000E+00 0. -1.
          6    1    1    2  502    0  0.70041168271E+02  0.26568651635E+02 -0.78593081001E+02  0.20340238662E+03  0.17200000000E+03 0. -1.
         -6    1    1    2    0  501 -0.70041168271E+02 -0.26568651635E+02 -0.11654616021E+03  0.22085892774E+03  0.17200000000E+03 0.  1.
</event>
<event>
 4    1  0.3211568E-002  0.1737404E+03  0.7818608E-02  0.1174002E+00
         -1   -1    0    0    0  501 -0.00000000000E+00  0.00000000000E+00  0.13939161330E+03  0.13939161330E+03  0.00000000000E+00 0.  1.
          1   -1    0    0  502    0  0.00000000000E+00 -0.00000000000E+00 -0.23085263203E+03  0.23085263203E+03  0.00000000000E+00 0. -1.
          6    1    1    2  502    0 -0.20367663633E+02  0.13670450065E+02 -0.91803647390E+02  0.19650351804E+03  0.17200000000E+03 0. -1.
         -6    1    1    2    0  501  0.20367663633E+02 -0.13670450065E+02  0.34262866483E+00  0.17374072730E+03  0.17200000000E+03 0.  1.
</event>
<event>
 4    1  0.3211568E-002  0.2411871E+03  0.7818608E-02  0.1119005E+00
          2   -1    0    0  502    0  0.00000000000E+00  0.00000000000E+00  0.18817384726E+04  0.18817384726E+04  0.00000000000E+00 0. -1.
         -2   -1    0    0    0  501 -0.00000000000E+00 -0.00000000000E+00 -0.12661708682E+03  0.12661708682E+03  0.00000000000E+00 0.  1.
          6    1    1    2  502    0 -0.16640746716E+03 -0.29929301911E+02  0.17505892548E+04  0.17671259002E+04  0.17200000000E+03 0. -1.
         -6    1    1    2    0  501  0.16640746716E+03  0.29929301911E+02  0.45321309282E+01  0.24122965915E+03  0.17200000000E+03 0.  1.
</event>
<event>
 4    1  0.3211568E-002  0.4863021E+03  0.7818608E-02  0.1017417E+00
         -2   -1    0    0    0  501 -0.00000000000E+00  0.00000000000E+00  0.86340841313E+02  0.86340841313E+02  0.00000000000E+00 0.  1.
          2   -1    0    0  502    0  0.00000000000E+00 -0.00000000000E+00 -0.32502565015E+04  0.32502565015E+04  0.00000000000E+00 0. -1.
          6    1    1    2  502    0  0.43673330099E+03  0.12716049151E+03 -0.22436006035E+04  0.22956988990E+04  0.17200000000E+03 0. -1.
         -6    1    1    2    0  501 -0.43673330099E+03 -0.12716049151E+03 -0.92031505668E+03  0.10408984438E+04  0.17200000000E+03 0.  1.
</event>
<event>
 4    1  0.3211568E-002  0.5534883E+03  0.7818608E-02  0.1000690E+00
         -1   -1    0    0    0  501 -0.00000000000E+00  0.00000000000E+00  0.63757539834E+03  0.63757539834E+03  0.00000000000E+00 0.  1.
          1   -1    0    0  502    0  0.00000000000E+00 -0.00000000000E+00 -0.48096200566E+03  0.48096200566E+03  0.00000000000E+00 0. -1.
          6    1    1    2  502    0  0.35381574664E+03 -0.38933236305E+03  0.60805975222E+02  0.55681831697E+03  0.17200000000E+03 0. -1.
         -6    1    1    2    0  501 -0.35381574664E+03  0.38933236305E+03  0.95807417455E+02  0.56171908703E+03  0.17200000000E+03 0.  1.
</event>
<event>
 4    1  0.3211568E-002  0.1929211E+03  0.7818608E-02  0.1155853E+00
         -2   -1    0    0    0  501 -0.00000000000E+00  0.00000000000E+00  0.50230606154E+03  0.50230606154E+03  0.00000000000E+00 0.  1.
          2   -1    0    0  502    0  0.00000000000E+00 -0.00000000000E+00 -0.75447850116E+02  0.75447850116E+02  0.00000000000E+00 0. -1.
          6    1    1    2  502    0 -0.79404395248E+02  0.36462160644E+02  0.17475173570E+03  0.26030120298E+03  0.17200000000E+03 0. -1.
         -6    1    1    2    0  501  0.79404395248E+02 -0.36462160644E+02  0.25210647573E+03  0.31745270868E+03  0.17200000000E+03 0.  1.
</event>
<event>
 4    1  0.3211568E-002  0.1751670E+03  0.7818608E-02  0.1172564E+00
         -1   -1    0    0    0  501 -0.00000000000E+00  0.00000000000E+00  0.96872163974E+03  0.96872163974E+03  0.00000000000E+00 0.  1.
          1   -1    0    0  502    0  0.00000000000E+00 -0.00000000000E+00 -0.68743281070E+02  0.68743281070E+02  0.00000000000E+00 0. -1.
          6    1    1    2  502    0  0.18324918615E+02  0.27634914150E+02  0.69068844233E+02  0.18829231627E+03  0.17200000000E+03 0. -1.
         -6    1    1    2    0  501 -0.18324918615E+02 -0.27634914150E+02  0.83090951444E+03  0.84917260454E+03  0.17200000000E+03 0.  1.
</event>
<event>
 4    1  0.3211568E-002  0.2250075E+03  0.7818608E-02  0.1130204E+00
         -1   -1    0    0    0  501 -0.00000000000E+00  0.00000000000E+00  0.42638586591E+03  0.42638586591E+03  0.00000000000E+00 0.  1.
          1   -1    0    0  502    0  0.00000000000E+00 -0.00000000000E+00 -0.25208561471E+03  0.25208561471E+03  0.00000000000E+00 0. -1.
          6    1    1    2  502    0  0.10313772055E+03  0.10201468579E+03 -0.15957848082E+03  0.27585082392E+03  0.17200000000E+03 0. -1.
         -6    1    1    2    0  501 -0.10313772055E+03 -0.10201468579E+03  0.33387873202E+03  0.40262065671E+03  0.17200000000E+03 0.  1.
</event>
<event>
 4    1  0.3211568E-002  0.2668724E+03  0.7818608E-02  0.1103083E+00
          2   -1    0    0  502    0  0.00000000000E+00  0.00000000000E+00  0.17009692069E+04  0.17009692069E+04  0.00000000000E+00 0. -1.
         -2   -1    0    0    0  501 -0.00000000000E+00 -0.00000000000E+00 -0.29924657300E+03  0.29924657300E+03  0.00000000000E+00 0.  1.
          6    1    1    2  502    0  0.55478421723E+02  0.19636456453E+03  0.16283660074E+04  0.16500899223E+04  0.17200000000E+03 0. -1.
         -6    1    1    2    0  501 -0.55478421723E+02 -0.19636456453E+03 -0.22664337346E+03  0.35012585768E+03  0.17200000000E+03 0.  1.
</event>
<event>
 4    1  0.3211568E-002  0.1878585E+03  0.7818608E-02  0.1160407E+00
          2   -1    0    0  502    0  0.00000000000E+00  0.00000000000E+00  0.73736194977E+03  0.73736194977E+03  0.00000000000E+00 0. -1.
         -2   -1    0    0    0  501 -0.00000000000E+00 -0.00000000000E+00 -0.55007017469E+02  0.55007017469E+02  0.00000000000E+00 0.  1.
          6    1    1    2  502    0 -0.69403990367E+02 -0.29831443852E+02  0.48397561151E+03  0.51915625919E+03  0.17200000000E+03 0. -1.
         -6    1    1    2    0  501  0.69403990367E+02  0.29831443852E+02  0.19837932079E+03  0.27321270805E+03  0.17200000000E+03 0.  1.
</event>
<event>
 4    1  0.3211568E-002  0.1965385E+03  0.7818608E-02  0.1152693E+00
         -2   -1    0    0    0  501 -0.00000000000E+00  0.00000000000E+00  0.58358191982E+03  0.58358191982E+03  0.00000000000E+00 0.  1.
          2   -1    0    0  502    0  0.00000000000E+00 -0.00000000000E+00 -0.69664837411E+02  0.69664837411E+02  0.00000000000E+00 0. -1.
          6    1    1    2  502    0 -0.94784753054E+02  0.76974957309E+01  0.18401354021E+03  0.26923666881E+03  0.17200000000E+03 0.  1.
         -6    1    1    2    0  501  0.94784753054E+02 -0.76974957309E+01  0.32990354220E+03  0.38401008842E+03  0.17200000000E+03 0. -1.
</event>
<event>
 4    1  0.3211568E-002  0.2343491E+03  0.7818608E-02  0.1123616E+00
          1   -1    0    0  502    0  0.00000000000E+00  0.00000000000E+00  0.37823976931E+03  0.37823976931E+03  0.00000000000E+00 0. -1.
         -1   -1    0    0    0  501 -0.00000000000E+00 -0.00000000000E+00 -0.14731082469E+03  0.14731082469E+03  0.00000000000E+00 0.  1.
          6    1    1    2  502    0 -0.40425466999E+02  0.15395225909E+03  0.14693741854E+03  0.27660463016E+03  0.17200000000E+03 0. -1.
         -6    1    1    2    0  501  0.40425466999E+02 -0.15395225909E+03  0.83991526078E+02  0.24894596384E+03  0.17200000000E+03 0. -1.
</event>
<event>
 4    1  0.3211568E-002  0.2223894E+03  0.7818608E-02  0.1132114E+00
          1   -1    0    0  502    0  0.00000000000E+00  0.00000000000E+00  0.40709370375E+03  0.40709370375E+03  0.00000000000E+00 0. -1.
         -1   -1    0    0    0  501 -0.00000000000E+00 -0.00000000000E+00 -0.12152235562E+03  0.12152235562E+03  0.00000000000E+00 0.  1.
          6    1    1    2  502    0 -0.13798417282E+03 -0.28869031761E+02  0.14722130844E+03  0.26670426806E+03  0.17200000000E+03 0. -1.
         -6    1    1    2    0  501  0.13798417282E+03  0.28869031761E+02  0.13835003969E+03  0.26191179131E+03  0.17200000000E+03 0.  1.
</event>
<event>
 4    1  0.3211568E-002  0.5048956E+03  0.7818608E-02  0.1012509E+00
         -1   -1    0    0    0  501 -0.00000000000E+00  0.00000000000E+00  0.77571649721E+03  0.77571649721E+03  0.00000000000E+00 0.  1.
          1   -1    0    0  502    0  0.00000000000E+00 -0.00000000000E+00 -0.75478280999E+03  0.75478280999E+03  0.00000000000E+00 0. -1.
          6    1    1    2  502    0  0.23876563772E+03  0.41027618721E+03 -0.56454598559E+03  0.75738480932E+03  0.17200000000E+03 0. -1.
         -6    1    1    2    0  501 -0.23876563772E+03 -0.41027618721E+03  0.58547967282E+03  0.77311449788E+03  0.17200000000E+03 0.  1.
</event>
<event>
 4    1  0.3211568E-002  0.1759528E+03  0.7818608E-02  0.1171778E+00
          2   -1    0    0  502    0  0.00000000000E+00  0.00000000000E+00  0.10906933478E+04  0.10906933478E+04  0.00000000000E+00 0. -1.
         -2   -1    0    0    0  501 -0.00000000000E+00 -0.00000000000E+00 -0.35983328055E+02  0.35983328055E+02  0.00000000000E+00 0.  1.
          6    1    1    2  502    0 -0.11086460635E+02  0.35390251878E+02  0.26848819282E+03  0.32100668096E+03  0.17200000000E+03 0.  1.
         -6    1    1    2    0  501  0.11086460635E+02 -0.35390251878E+02  0.78622182690E+03  0.80566999487E+03  0.17200000000E+03 0. -1.
</event>
<event>
 4    1  0.3211568E-002  0.2655267E+03  0.7818608E-02  0.1103867E+00
          2   -1    0    0  502    0  0.00000000000E+00  0.00000000000E+00  0.69631865685E+03  0.69631865685E+03  0.00000000000E+00 0. -1.
         -2   -1    0    0    0  501 -0.00000000000E+00 -0.00000000000E+00 -0.10883313027E+03  0.10883313027E+03  0.00000000000E+00 0.  1.
          6    1    1    2  502    0  0.15323944261E+03  0.13205335613E+03  0.18749911840E+03  0.32505435705E+03  0.17200000000E+03 0.  1.
         -6    1    1    2    0  501 -0.15323944261E+03 -0.13205335613E+03  0.39998640817E+03  0.48009743007E+03  0.17200000000E+03 0.  1.
</event>
<event>
 4    1  0.3211568E-002  0.1955416E+03  0.7818608E-02  0.1153556E+00
         -1   -1    0    0    0  501 -0.00000000000E+00  0.00000000000E+00  0.38259913729E+02  0.38259913729E+02  0.00000000000E+00 0.  1.
          1   -1    0    0  502    0  0.00000000000E+00 -0.00000000000E+00 -0.10531425458E+04  0.10531425458E+04  0.00000000000E+00 0. -1.
          6    1    1    2  502    0  0.46037366298E+02  0.80827391323E+02 -0.38415407126E+03  0.43105783457E+03  0.17200000000E+03 0. -1.
         -6    1    1    2    0  501 -0.46037366298E+02 -0.80827391323E+02 -0.63072856084E+03  0.66034462498E+03  0.17200000000E+03 0.  1.
</event>
<event>
 4    1  0.3211568E-002  0.2543452E+03  0.7818608E-02  0.1110589E+00
         -2   -1    0    0    0  501 -0.00000000000E+00  0.00000000000E+00  0.15405821690E+04  0.15405821690E+04  0.00000000000E+00 0.  1.
          2   -1    0    0  502    0  0.00000000000E+00 -0.00000000000E+00 -0.75753282810E+02  0.75753282810E+02  0.00000000000E+00 0. -1.
          6    1    1    2  502    0 -0.58410163751E+02  0.17803299456E+03  0.19288781653E+03  0.31921341473E+03  0.17200000000E+03 0. -1.
         -6    1    1    2    0  501  0.58410163751E+02 -0.17803299456E+03  0.12719410697E+04  0.12971220371E+04  0.17200000000E+03 0.  1.
</event>
<event>
 4    1  0.3211568E-002  0.1841117E+03  0.7818608E-02  0.1163882E+00
          2   -1    0    0  502    0  0.00000000000E+00  0.00000000000E+00  0.16335801524E+04  0.16335801524E+04  0.00000000000E+00 0. -1.
         -2   -1    0    0    0  501 -0.00000000000E+00 -0.00000000000E+00 -0.20750217484E+02  0.20750217484E+02  0.00000000000E+00 0.  1.
          6    1    1    2  502    0 -0.45513071447E+02  0.47346485939E+02  0.80694724899E+03  0.82768411369E+03  0.17200000000E+03 0. -1.
         -6    1    1    2    0  501  0.45513071447E+02 -0.47346485939E+02  0.80588268593E+03  0.82664625619E+03  0.17200000000E+03 0.  1.
</event>
<event>
 4    1  0.3211568E-002  0.3805772E+03  0.7818608E-02  0.1050721E+00
         -1   -1    0    0    0  501 -0.00000000000E+00  0.00000000000E+00  0.21995994076E+03  0.21995994076E+03  0.00000000000E+00 0.  1.
          1   -1    0    0  502    0  0.00000000000E+00 -0.00000000000E+00 -0.80417553442E+03  0.80417553442E+03  0.00000000000E+00 0. -1.
          6    1    1    2  502    0 -0.33673722047E+03 -0.43162819453E+02 -0.51006775379E+03  0.63640246550E+03  0.17200000000E+03 0. -1.
         -6    1    1    2    0  501  0.33673722047E+03  0.43162819453E+02 -0.74147839873E+02  0.38773300968E+03  0.17200000000E+03 0.  1.
</event>
<event>
 4    1  0.3211568E-002  0.2601860E+03  0.7818608E-02  0.1107032E+00
          3   -1    0    0  502    0  0.00000000000E+00  0.00000000000E+00  0.79580744168E+03  0.79580744168E+03  0.00000000000E+00 0. -1.
         -3   -1    0    0    0  501 -0.00000000000E+00 -0.00000000000E+00 -0.85840596714E+02  0.85840596714E+02  0.00000000000E+00 0.  1.
          6    1    1    2  502    0 -0.18961254288E+02 -0.19430188763E+03  0.39683832679E+03  0.47452861907E+03  0.17200000000E+03 0. -1.
         -6    1    1    2    0  501  0.18961254288E+02  0.19430188763E+03  0.31312851818E+03  0.40711941933E+03  0.17200000000E+03 0.  1.
</event>
<event>
 4    1  0.3211568E-002  0.2228382E+03  0.7818608E-02  0.1131785E+00
         -2   -1    0    0    0  501 -0.00000000000E+00  0.00000000000E+00  0.26423172514E+02  0.26423172514E+02  0.00000000000E+00 0.  1.
          2   -1    0    0  502    0  0.00000000000E+00 -0.00000000000E+00 -0.19053768500E+04  0.19053768500E+04  0.00000000000E+00 0. -1.
          6    1    1    2  502    0 -0.19718196316E+01  0.14166497943E+03 -0.10524919741E+04  0.10758235032E+04  0.17200000000E+03 0. -1.
         -6    1    1    2    0  501  0.19718196316E+01 -0.14166497943E+03 -0.82646170338E+03  0.85597651932E+03  0.17200000000E+03 0.  1.
</event>
<event>
 4    1  0.3211568E-002  0.2807376E+03  0.7818608E-02  0.1095287E+00
          2   -1    0    0  502    0  0.00000000000E+00  0.00000000000E+00  0.30582812816E+03  0.30582812816E+03  0.00000000000E+00 0. -1.
         -2   -1    0    0    0  501 -0.00000000000E+00 -0.00000000000E+00 -0.26436294173E+03  0.26436294173E+03  0.00000000000E+00 0.  1.
          6    1    1    2  502    0 -0.18481192588E+03  0.12277686429E+03 -0.24509443029E+02  0.28180546331E+03  0.17200000000E+03 0. -1.
         -6    1    1    2    0  501  0.18481192588E+03 -0.12277686429E+03  0.65974629457E+02  0.28838560658E+03  0.17200000000E+03 0.  1.
</event>
<event>
 4    1  0.3211568E-002  0.6370272E+03  0.7818608E-02  0.9831431E-01
         -2   -1    0    0    0  501 -0.00000000000E+00  0.00000000000E+00  0.40042956622E+03  0.40042956622E+03  0.00000000000E+00 0.  1.
          2   -1    0    0  502    0  0.00000000000E+00 -0.00000000000E+00 -0.10272031862E+04  0.10272031862E+04  0.00000000000E+00 0. -1.
          6    1    1    2  502    0  0.60495616474E+03  0.10123115171E+03 -0.39607021124E+03  0.75011687061E+03  0.17200000000E+03 0. -1.
         -6    1    1    2    0  501 -0.60495616474E+03 -0.10123115171E+03 -0.23070340877E+03  0.67751588185E+03  0.17200000000E+03 0.  1.
</event>
<event>
 4    1  0.3211568E-002  0.2153700E+03  0.7818608E-02  0.1137383E+00
         -2   -1    0    0    0  501 -0.00000000000E+00  0.00000000000E+00  0.26331989539E+03  0.26331989539E+03  0.00000000000E+00 0.  1.
          2   -1    0    0  502    0  0.00000000000E+00 -0.00000000000E+00 -0.42522348030E+03  0.42522348030E+03  0.00000000000E+00 0. -1.
          6    1    1    2  502    0 -0.11224720312E+03 -0.64813579791E+02 -0.34443624492E+03  0.40622722896E+03  0.17200000000E+03 0. -1.
         -6    1    1    2    0  501  0.11224720312E+03  0.64813579791E+02  0.18253266001E+03  0.28231614673E+03  0.17200000000E+03 0.  1.
</event>
<event>
 4    1  0.3211568E-002  0.1837793E+03  0.7818608E-02  0.1164195E+00
          1   -1    0    0  502    0  0.00000000000E+00  0.00000000000E+00  0.21265359533E+03  0.21265359533E+03  0.00000000000E+00 0. -1.
         -1   -1    0    0    0  501 -0.00000000000E+00 -0.00000000000E+00 -0.41234965964E+03  0.41234965964E+03  0.00000000000E+00 0.  1.
          6    1    1    2  502    0 -0.32875018193E+02  0.55767845165E+02  0.14518752862E+03  0.23420981585E+03  0.17200000000E+03 0. -1.
         -6    1    1    2    0  501  0.32875018193E+02 -0.55767845165E+02 -0.34488359294E+03  0.39079343911E+03  0.17200000000E+03 0.  1.
</event>
<event>
 4    1  0.3211568E-002  0.2009050E+03  0.7818608E-02  0.1148978E+00
          1   -1    0    0  502    0  0.00000000000E+00  0.00000000000E+00  0.25309376852E+03  0.25309376852E+03  0.00000000000E+00 0. -1.
         -1   -1    0    0    0  501 -0.00000000000E+00 -0.00000000000E+00 -0.20942447191E+03  0.20942447191E+03  0.00000000000E+00 0.  1.
          6    1    1    2  502    0 -0.40893474686E+02 -0.95428252124E+02  0.13477226040E+03  0.24192228039E+03  0.17200000000E+03 0. -1.
         -6    1    1    2    0  501  0.40893474686E+02  0.95428252124E+02 -0.91102963785E+02  0.22059596004E+03  0.17200000000E+03 0.  1.
</event>
<event>
 4    1  0.3211568E-002  0.1889569E+03  0.7818608E-02  0.1159406E+00
         -1   -1    0    0    0  501 -0.00000000000E+00  0.00000000000E+00  0.44466325878E+02  0.44466325878E+02  0.00000000000E+00 0.  1.
          1   -1    0    0  502    0  0.00000000000E+00 -0.00000000000E+00 -0.10676623776E+04  0.10676623776E+04  0.00000000000E+00 0. -1.
          6    1    1    2  502    0  0.71095700463E+02 -0.32651327916E+02 -0.78847479013E+03  0.81080034689E+03  0.17200000000E+03 0. -1.
         -6    1    1    2    0  501 -0.71095700463E+02  0.32651327916E+02 -0.23472126156E+03  0.30132835656E+03  0.17200000000E+03 0.  1.
</event>
<event>
 4    1  0.3211568E-002  0.1996464E+03  0.7818608E-02  0.1150038E+00
         -2   -1    0    0    0  501 -0.00000000000E+00  0.00000000000E+00  0.77694898115E+02  0.77694898115E+02  0.00000000000E+00 0.  1.
          2   -1    0    0  502    0  0.00000000000E+00 -0.00000000000E+00 -0.52212133891E+03  0.52212133891E+03  0.00000000000E+00 0. -1.
          6    1    1    2  502    0 -0.82350269422E+02 -0.59102762724E+02 -0.26181889718E+03  0.32925345611E+03  0.17200000000E+03 0. -1.
         -6    1    1    2    0  501  0.82350269422E+02  0.59102762724E+02 -0.18260754361E+03  0.27056278092E+03  0.17200000000E+03 0.  1.
</event>
<event>
 4    1  0.3211568E-002  0.2822307E+03  0.7818608E-02  0.1094477E+00
          2   -1    0    0  502    0  0.00000000000E+00  0.00000000000E+00  0.66679099121E+03  0.66679099121E+03  0.00000000000E+00 0. -1.
         -2   -1    0    0    0  501 -0.00000000000E+00 -0.00000000000E+00 -0.12043344798E+03  0.12043344798E+03  0.00000000000E+00 0.  1.
          6    1    1    2  502    0 -0.16292962385E+03 -0.15337567049E+03  0.30858528502E+03  0.41818540954E+03  0.17200000000E+03 0. -1.
         -6    1    1    2    0  501  0.16292962385E+03  0.15337567049E+03  0.23777225822E+03  0.36903902965E+03  0.17200000000E+03 0.  1.
</event>
<event>
 4    1  0.3211568E-002  0.2119810E+03  0.7818608E-02  0.1140007E+00
         -1   -1    0    0    0  501 -0.00000000000E+00  0.00000000000E+00  0.12608897531E+03  0.12608897531E+03  0.00000000000E+00 0.  1.
          1   -1    0    0  502    0  0.00000000000E+00 -0.00000000000E+00 -0.90636695516E+03  0.90636695516E+03  0.00000000000E+00 0. -1.
          6    1    1    2  502    0  0.25187437599E+01  0.12387730868E+03 -0.79226727088E+03  0.82013618392E+03  0.17200000000E+03 0. -1.
         -6    1    1    2    0  501 -0.25187437599E+01 -0.12387730868E+03  0.11989291029E+02  0.21231974655E+03  0.17200000000E+03 0.  1.
</event>
<event>
 4    1  0.3211568E-002  0.2104416E+03  0.7818608E-02  0.1141217E+00
         -1   -1    0    0    0  501 -0.00000000000E+00  0.00000000000E+00  0.11153869115E+03  0.11153869115E+03  0.00000000000E+00 0.  1.
          1   -1    0    0  502    0  0.00000000000E+00 -0.00000000000E+00 -0.41921544569E+03  0.41921544569E+03  0.00000000000E+00 0. -1.
          6    1    1    2  502    0 -0.76681353290E+02  0.93923621170E+02 -0.92807473991E+02  0.22999761691E+03  0.17200000000E+03 0. -1.
         -6    1    1    2    0  501  0.76681353290E+02 -0.93923621170E+02 -0.21486928055E+03  0.30075651993E+03  0.17200000000E+03 0. -1.
</event>
<event>
 4    1  0.3211568E-002  0.2814119E+03  0.7818608E-02  0.1094920E+00
          2   -1    0    0  502    0  0.00000000000E+00  0.00000000000E+00  0.15908169646E+04  0.15908169646E+04  0.00000000000E+00 0. -1.
         -2   -1    0    0    0  501 -0.00000000000E+00 -0.00000000000E+00 -0.84669499851E+02  0.84669499851E+02  0.00000000000E+00 0.  1.
          6    1    1    2  502    0 -0.19220035277E+03  0.11255068203E+03  0.12908330012E+04  0.13211519476E+04  0.17200000000E+03 0. -1.
         -6    1    1    2    0  501  0.19220035277E+03 -0.11255068203E+03  0.21531446357E+03  0.35433451688E+03  0.17200000000E+03 0.  1.
</event>
<event>
 4    1  0.3211568E-002  0.1850577E+03  0.7818608E-02  0.1162996E+00
          2   -1    0    0  502    0  0.00000000000E+00  0.00000000000E+00  0.15823780036E+03  0.15823780036E+03  0.00000000000E+00 0. -1.
         -2   -1    0    0    0  501 -0.00000000000E+00 -0.00000000000E+00 -0.26316943565E+03  0.26316943565E+03  0.00000000000E+00 0.  1.
          6    1    1    2  502    0 -0.67262237848E+02 -0.11753845959E+02 -0.14126862539E+03  0.23281577707E+03  0.17200000000E+03 0.  1.
         -6    1    1    2    0  501  0.67262237848E+02  0.11753845959E+02  0.36336990100E+02  0.18859145894E+03  0.17200000000E+03 0. -1.
</event>
<event>
 4    1  0.3211568E-002  0.2261093E+03  0.7818608E-02  0.1129409E+00
         -4   -1    0    0    0  501 -0.00000000000E+00  0.00000000000E+00  0.20964233701E+04  0.20964233701E+04  0.00000000000E+00 0.  1.
          4   -1    0    0  502    0  0.00000000000E+00 -0.00000000000E+00 -0.28015412679E+02  0.28015412679E+02  0.00000000000E+00 0. -1.
          6    1    1    2  502    0  0.14093429110E+03  0.40975156737E+02  0.65192962715E+03  0.69002730136E+03  0.17200000000E+03 0. -1.
         -6    1    1    2    0  501 -0.14093429110E+03 -0.40975156737E+02  0.14164783303E+04  0.14344114814E+04  0.17200000000E+03 0.  1.
</event>
<event>
 4    1  0.3211568E-002  0.3311366E+03  0.7818608E-02  0.1070635E+00
          2   -1    0    0  502    0  0.00000000000E+00  0.00000000000E+00  0.76447943631E+03  0.76447943631E+03  0.00000000000E+00 0. -1.
         -2   -1    0    0    0  501 -0.00000000000E+00 -0.00000000000E+00 -0.14779346595E+03  0.14779346595E+03  0.00000000000E+00 0.  1.
          6    1    1    2  502    0 -0.25237522017E+03  0.12796175091E+03  0.38669339425E+03  0.50910042487E+03  0.17200000000E+03 0. -1.
         -6    1    1    2    0  501  0.25237522017E+03 -0.12796175091E+03  0.22999257612E+03  0.40317247738E+03  0.17200000000E+03 0. -1.
</event>
<event>
 4    1  0.3211568E-002  0.3439882E+03  0.7818608E-02  0.1065110E+00
         -2   -1    0    0    0  501 -0.00000000000E+00  0.00000000000E+00  0.14149300468E+03  0.14149300468E+03  0.00000000000E+00 0.  1.
          2   -1    0    0  502    0  0.00000000000E+00 -0.00000000000E+00 -0.10848513914E+04  0.10848513914E+04  0.00000000000E+00 0. -1.
          6    1    1    2  502    0 -0.29787661913E+03 -0.36621585964E+01 -0.76518868513E+03  0.83895268965E+03  0.17200000000E+03 0. -1.
         -6    1    1    2    0  501  0.29787661913E+03  0.36621585964E+01 -0.17816970157E+03  0.38739170640E+03  0.17200000000E+03 0.  1.
</event>
<event>
 4    1  0.3211568E-002  0.2130326E+03  0.7818608E-02  0.1139187E+00
         -2   -1    0    0    0  501 -0.00000000000E+00  0.00000000000E+00  0.95223177605E+02  0.95223177605E+02  0.00000000000E+00 0.  1.
          2   -1    0    0  502    0  0.00000000000E+00 -0.00000000000E+00 -0.84510243305E+03  0.84510243305E+03  0.00000000000E+00 0. -1.
          6    1    1    2  502    0 -0.92761848364E+02 -0.84818126634E+02 -0.68540760577E+03  0.71775097434E+03  0.17200000000E+03 0. -1.
         -6    1    1    2    0  501  0.92761848364E+02  0.84818126634E+02 -0.64471649669E+02  0.22257463631E+03  0.17200000000E+03 0.  1.
</event>
<event>
 4    1  0.3211568E-002  0.3952584E+03  0.7818608E-02  0.1045434E+00
         -2   -1    0    0    0  501 -0.00000000000E+00  0.00000000000E+00  0.22227596044E+03  0.22227596044E+03  0.00000000000E+00 0.  1.
          2   -1    0    0  502    0  0.00000000000E+00 -0.00000000000E+00 -0.12281705400E+04  0.12281705400E+04  0.00000000000E+00 0. -1.
          6    1    1    2  502    0 -0.53202607052E+02  0.35187308431E+03 -0.97724373997E+03  0.10541510860E+04  0.17200000000E+03 0. -1.
         -6    1    1    2    0  501  0.53202607052E+02 -0.35187308431E+03 -0.28650839558E+02  0.39629541439E+03  0.17200000000E+03 0.  1.
</event>
<event>
 4    1  0.3211568E-002  0.2085037E+03  0.7818608E-02  0.1142756E+00
          2   -1    0    0  502    0  0.00000000000E+00  0.00000000000E+00  0.48628935069E+03  0.48628935069E+03  0.00000000000E+00 0. -1.
         -2   -1    0    0    0  501 -0.00000000000E+00 -0.00000000000E+00 -0.20117608322E+03  0.20117608322E+03  0.00000000000E+00 0.  1.
          6    1    1    2  502    0 -0.68299270871E+02  0.96046900409E+02  0.39877426970E+03  0.44999412847E+03  0.17200000000E+03 0. -1.
         -6    1    1    2    0  501  0.68299270871E+02 -0.96046900409E+02 -0.11366100223E+03  0.23747130544E+03  0.17200000000E+03 0.  1.
</event>
<event>
 4    1  0.3211568E-002  0.4658424E+03  0.7818608E-02  0.1023100E+00
          2   -1    0    0  502    0  0.00000000000E+00  0.00000000000E+00  0.39217309691E+04  0.39217309691E+04  0.00000000000E+00 0. -1.
         -2   -1    0    0    0  501 -0.00000000000E+00 -0.00000000000E+00 -0.62801678866E+02  0.62801678866E+02  0.00000000000E+00 0.  1.
          6    1    1    2  502    0  0.21095501351E+03 -0.37805171037E+03  0.26164137116E+04  0.26575608786E+04  0.17200000000E+03 0. -1.
         -6    1    1    2    0  501 -0.21095501351E+03  0.37805171037E+03  0.12425155787E+04  0.13269717694E+04  0.17200000000E+03 0.  1.
</event>
<event>
 4    1  0.3211568E-002  0.1990442E+03  0.7818608E-02  0.1150548E+00
         -2   -1    0    0    0  501 -0.00000000000E+00  0.00000000000E+00  0.11490219895E+03  0.11490219895E+03  0.00000000000E+00 0.  1.
          2   -1    0    0  502    0  0.00000000000E+00 -0.00000000000E+00 -0.68154859085E+03  0.68154859085E+03  0.00000000000E+00 0. -1.
          6    1    1    2  502    0 -0.11940350069E+02  0.99458553013E+02 -0.56324179977E+03  0.59737751944E+03  0.17200000000E+03 0.  1.
         -6    1    1    2    0  501  0.11940350069E+02 -0.99458553013E+02 -0.34045921304E+01  0.19907327037E+03  0.17200000000E+03 0.  1.
</event>
<event>
 4    1  0.3211568E-002  0.1730867E+03  0.7818608E-02  0.1174667E+00
          1   -1    0    0  502    0  0.00000000000E+00  0.00000000000E+00  0.24921751873E+03  0.24921751873E+03  0.00000000000E+00 0. -1.
         -1   -1    0    0    0  501 -0.00000000000E+00 -0.00000000000E+00 -0.12195420497E+03  0.12195420497E+03  0.00000000000E+00 0.  1.
          6    1    1    2  502    0  0.10742643875E+02  0.16112352755E+02  0.85811482986E+02  0.19319063880E+03  0.17200000000E+03 0. -1.
         -6    1    1    2    0  501 -0.10742643875E+02 -0.16112352755E+02  0.41451830770E+02  0.17798108490E+03  0.17200000000E+03 0.  1.
</event>
<event>
 4    1  0.3211568E-002  0.4589743E+03  0.7818608E-02  0.1025079E+00
         -1   -1    0    0    0  501 -0.00000000000E+00  0.00000000000E+00  0.16228654685E+03  0.16228654685E+03  0.00000000000E+00 0.  1.
          1   -1    0    0  502    0  0.00000000000E+00 -0.00000000000E+00 -0.20538112703E+04  0.20538112703E+04  0.00000000000E+00 0. -1.
          6    1    1    2  502    0  0.12968005607E+02  0.42532960300E+03 -0.16179159513E+04  0.16817578499E+04  0.17200000000E+03 0. -1.
         -6    1    1    2    0  501 -0.12968005607E+02 -0.42532960300E+03 -0.27360877212E+03  0.53433996719E+03  0.17200000000E+03 0.  1.
</event>
<event>
 4    1  0.3211568E-002  0.1912616E+03  0.7818608E-02  0.1157328E+00
         -2   -1    0    0    0  501 -0.00000000000E+00  0.00000000000E+00  0.24196842530E+02  0.24196842530E+02  0.00000000000E+00 0.  1.
          2   -1    0    0  502    0  0.00000000000E+00 -0.00000000000E+00 -0.16125110774E+04  0.16125110774E+04  0.00000000000E+00 0. -1.
          6    1    1    2  502    0  0.82459269772E+02  0.14052535919E+02 -0.99866450169E+03  0.10168145317E+04  0.17200000000E+03 0. -1.
         -6    1    1    2    0  501 -0.82459269772E+02 -0.14052535919E+02 -0.58964973322E+03  0.61989338828E+03  0.17200000000E+03 0.  1.
</event>
<event>
 4    1  0.3211568E-002  0.2956113E+03  0.7818608E-02  0.1087455E+00
          2   -1    0    0  502    0  0.00000000000E+00  0.00000000000E+00  0.64707561321E+03  0.64707561321E+03  0.00000000000E+00 0. -1.
         -2   -1    0    0    0  501 -0.00000000000E+00 -0.00000000000E+00 -0.16913823375E+03  0.16913823375E+03  0.00000000000E+00 0.  1.
          6    1    1    2  502    0  0.24032376369E+03  0.68202743924E+01  0.42218765153E+03  0.51539154110E+03  0.17200000000E+03 0. -1.
         -6    1    1    2    0  501 -0.24032376369E+03 -0.68202743924E+01  0.55749727936E+02  0.30082230586E+03  0.17200000000E+03 0.  1.
</event>
<event>
 4    1  0.3211568E-002  0.2769752E+03  0.7818608E-02  0.1097353E+00
         -2   -1    0    0    0  501 -0.00000000000E+00  0.00000000000E+00  0.15040900861E+03  0.15040900861E+03  0.00000000000E+00 0.  1.
          2   -1    0    0  502    0  0.00000000000E+00 -0.00000000000E+00 -0.53810792637E+03  0.53810792637E+03  0.00000000000E+00 0. -1.
          6    1    1    2  502    0 -0.21706734840E+03 -0.36125385254E+01 -0.27246718157E+03  0.38852753983E+03  0.17200000000E+03 0. -1.
         -6    1    1    2    0  501  0.21706734840E+03  0.36125385254E+01 -0.11523173620E+03  0.29998939515E+03  0.17200000000E+03 0.  1.
</event>
<event>
 4    1  0.3211568E-002  0.3142143E+03  0.7818608E-02  0.1078343E+00
          1   -1    0    0  502    0  0.00000000000E+00  0.00000000000E+00  0.59668438770E+03  0.59668438770E+03  0.00000000000E+00 0. -1.
         -1   -1    0    0    0  501 -0.00000000000E+00 -0.00000000000E+00 -0.28608922295E+03  0.28608922295E+03  0.00000000000E+00 0.  1.
          6    1    1    2  502    0 -0.18876424490E+03  0.18307024252E+03  0.44190342671E+03  0.54222623728E+03  0.17200000000E+03 0. -1.
         -6    1    1    2    0  501  0.18876424490E+03 -0.18307024252E+03 -0.13130826196E+03  0.34054737337E+03  0.17200000000E+03 0.  1.
</event>
<event>
 4    1  0.3211568E-002  0.2701712E+03  0.7818608E-02  0.1101182E+00
          1   -1    0    0  502    0  0.00000000000E+00  0.00000000000E+00  0.29543660626E+03  0.29543660626E+03  0.00000000000E+00 0. -1.
         -1   -1    0    0    0  501 -0.00000000000E+00 -0.00000000000E+00 -0.42222941295E+03  0.42222941295E+03  0.00000000000E+00 0.  1.
          6    1    1    2  502    0  0.19247601697E+03 -0.79758783143E+02  0.16772451665E+03  0.31799999069E+03  0.17200000000E+03 0. -1.
         -6    1    1    2    0  501 -0.19247601697E+03  0.79758783143E+02 -0.29451732334E+03  0.39966602851E+03  0.17200000000E+03 0.  1.
</event>
<event>
 4    1  0.3211568E-002  0.5157582E+03  0.7818608E-02  0.1009746E+00
          1   -1    0    0  502    0  0.00000000000E+00  0.00000000000E+00  0.15512934056E+04  0.15512934056E+04  0.00000000000E+00 0. -1.
         -1   -1    0    0    0  501 -0.00000000000E+00 -0.00000000000E+00 -0.24377708760E+03  0.24377708760E+03  0.00000000000E+00 0.  1.
          6    1    1    2  502    0  0.38486486122E+03  0.29715576792E+03  0.11425606845E+04  0.12535754583E+04  0.17200000000E+03 0. -1.
         -6    1    1    2    0  501 -0.38486486122E+03 -0.29715576792E+03  0.16495563349E+03  0.54149503491E+03  0.17200000000E+03 0.  1.
</event>
<event>
 4    1  0.3211568E-002  0.1954503E+03  0.7818608E-02  0.1153635E+00
         -2   -1    0    0    0  501 -0.00000000000E+00  0.00000000000E+00  0.35811877270E+02  0.35811877270E+02  0.00000000000E+00 0.  1.
          2   -1    0    0  502    0  0.00000000000E+00 -0.00000000000E+00 -0.12765444493E+04  0.12765444493E+04  0.00000000000E+00 0. -1.
          6    1    1    2  502    0  0.90587310275E+02  0.20267512723E+02 -0.88640435055E+03  0.90769681366E+03  0.17200000000E+03 0. -1.
         -6    1    1    2    0  501 -0.90587310275E+02 -0.20267512723E+02 -0.35432822151E+03  0.40465951294E+03  0.17200000000E+03 0.  1.
</event>
<event>
 4    1  0.3211568E-002  0.3163057E+03  0.7818608E-02  0.1077362E+00
          2   -1    0    0  502    0  0.00000000000E+00  0.00000000000E+00  0.32382627210E+04  0.32382627210E+04  0.00000000000E+00 0. -1.
         -2   -1    0    0    0  501 -0.00000000000E+00 -0.00000000000E+00 -0.98990010050E+02  0.98990010050E+02  0.00000000000E+00 0.  1.
          6    1    1    2  502    0 -0.17526515890E+03  0.19936751177E+03  0.29535785660E+04  0.29704672404E+04  0.17200000000E+03 0. -1.
         -6    1    1    2    0  501  0.17526515890E+03 -0.19936751177E+03  0.18569414490E+03  0.36678549061E+03  0.17200000000E+03 0.  1.
</event>
<event>
 4    1  0.3211568E-002  0.2566417E+03  0.7818608E-02  0.1109178E+00
          4   -1    0    0  502    0  0.00000000000E+00  0.00000000000E+00  0.90096530490E+03  0.90096530490E+03  0.00000000000E+00 0. -1.
         -4   -1    0    0    0  501 -0.00000000000E+00 -0.00000000000E+00 -0.10467609716E+03  0.10467609716E+03  0.00000000000E+00 0.  1.
          6    1    1    2  502    0 -0.13325361072E+03 -0.13610454692E+03  0.67428818955E+03  0.72147732814E+03  0.17200000000E+03 0. -1.
         -6    1    1    2    0  501  0.13325361072E+03  0.13610454692E+03  0.12200101819E+03  0.28416407391E+03  0.17200000000E+03 0.  1.
</event>
<event>
 4    1  0.3211568E-002  0.2885384E+03  0.7818608E-02  0.1091115E+00
         -3   -1    0    0    0  501 -0.00000000000E+00  0.00000000000E+00  0.72509550254E+02  0.72509550254E+02  0.00000000000E+00 0.  1.
          3   -1    0    0  502    0  0.00000000000E+00 -0.00000000000E+00 -0.11566764068E+04  0.11566764068E+04  0.00000000000E+00 0. -1.
          6    1    1    2  502    0 -0.72489857542E+02 -0.22003550783E+03 -0.59474117138E+03  0.66103817218E+03  0.17200000000E+03 0. -1.
         -6    1    1    2    0  501  0.72489857542E+02  0.22003550783E+03 -0.48942568517E+03  0.56814778487E+03  0.17200000000E+03 0.  1.
</event>
<event>
 4    1  0.3211568E-002  0.1979389E+03  0.7818608E-02  0.1151490E+00
         -2   -1    0    0    0  501 -0.00000000000E+00  0.00000000000E+00  0.27593453897E+03  0.27593453897E+03  0.00000000000E+00 0.  1.
          2   -1    0    0  502    0  0.00000000000E+00 -0.00000000000E+00 -0.40019218615E+03  0.40019218615E+03  0.00000000000E+00 0. -1.
          6    1    1    2  502    0 -0.51864230148E+02 -0.83101725660E+02 -0.33367532971E+03  0.38796780902E+03  0.17200000000E+03 0. -1.
         -6    1    1    2    0  501  0.51864230148E+02  0.83101725660E+02  0.20941768252E+03  0.28815891610E+03  0.17200000000E+03 0.  1.
</event>
<event>
 4    1  0.3211568E-002  0.1852345E+03  0.7818608E-02  0.1162831E+00
          1   -1    0    0  502    0  0.00000000000E+00  0.00000000000E+00  0.28056903504E+03  0.28056903504E+03  0.00000000000E+00 0. -1.
         -1   -1    0    0    0  501 -0.00000000000E+00 -0.00000000000E+00 -0.12435095071E+03  0.12435095071E+03  0.00000000000E+00 0.  1.
          6    1    1    2  502    0  0.38943857867E+02  0.56667289290E+02  0.52067561807E+02  0.19241319272E+03  0.17200000000E+03 0.  1.
         -6    1    1    2    0  501 -0.38943857867E+02 -0.56667289290E+02  0.10415052252E+03  0.21250679303E+03  0.17200000000E+03 0. -1.
</event>
<event>
 4    1  0.3211568E-002  0.1761118E+03  0.7818608E-02  0.1171620E+00
         -2   -1    0    0    0  501 -0.00000000000E+00  0.00000000000E+00  0.38701386378E+02  0.38701386378E+02  0.00000000000E+00 0.  1.
          2   -1    0    0  502    0  0.00000000000E+00 -0.00000000000E+00 -0.80152748786E+03  0.80152748786E+03  0.00000000000E+00 0. -1.
          6    1    1    2  502    0  0.43020630105E+01  0.37588212935E+02 -0.37616346655E+03  0.41534845018E+03  0.17200000000E+03 0.  1.
         -6    1    1    2    0  501 -0.43020630105E+01 -0.37588212935E+02 -0.38666263493E+03  0.42488042406E+03  0.17200000000E+03 0.  1.
</event>
<event>
 4    1  0.3211568E-002  0.1884530E+03  0.7818608E-02  0.1159864E+00
         -1   -1    0    0    0  501 -0.00000000000E+00  0.00000000000E+00  0.23883734440E+03  0.23883734440E+03  0.00000000000E+00 0.  1.
          1   -1    0    0  502    0  0.00000000000E+00 -0.00000000000E+00 -0.14877099560E+03  0.14877099560E+03  0.00000000000E+00 0. -1.
          6    1    1    2  502    0 -0.67810539278E+02  0.36500367948E+02  0.49337074976E+02  0.19480424293E+03  0.17200000000E+03 0.  1.
         -6    1    1    2    0  501  0.67810539278E+02 -0.36500367948E+02  0.40729273828E+02  0.19280409706E+03  0.17200000000E+03 0. -1.
</event>
<event>
 4    1  0.3211568E-002  0.4458443E+03  0.7818608E-02  0.1028969E+00
         -1   -1    0    0    0  501 -0.00000000000E+00  0.00000000000E+00  0.15220995639E+04  0.15220995639E+04  0.00000000000E+00 0.  1.
          1   -1    0    0  502    0  0.00000000000E+00 -0.00000000000E+00 -0.18492710325E+03  0.18492710325E+03  0.00000000000E+00 0. -1.
          6    1    1    2  502    0  0.40693585197E+03 -0.59969277683E+02  0.20594727419E+03  0.49111239205E+03  0.17200000000E+03 0. -1.
         -6    1    1    2    0  501 -0.40693585197E+03  0.59969277683E+02  0.11312251865E+04  0.12159142751E+04  0.17200000000E+03 0.  1.
</event>
<event>
 4    1  0.3211568E-002  0.1929207E+03  0.7818608E-02  0.1155853E+00
         -1   -1    0    0    0  501 -0.00000000000E+00  0.00000000000E+00  0.30960502608E+02  0.30960502608E+02  0.00000000000E+00 0.  1.
          1   -1    0    0  502    0  0.00000000000E+00 -0.00000000000E+00 -0.12222865503E+04  0.12222865503E+04  0.00000000000E+00 0. -1.
          6    1    1    2  502    0 -0.55004761559E+02  0.67888810316E+02 -0.51518540326E+03  0.55012218106E+03  0.17200000000E+03 0. -1.
         -6    1    1    2    0  501  0.55004761559E+02 -0.67888810316E+02 -0.67614064441E+03  0.70312487183E+03  0.17200000000E+03 0. -1.
</event>
<event>
 4    1  0.3211568E-002  0.1746791E+03  0.7818608E-02  0.1173054E+00
         -1   -1    0    0    0  501 -0.00000000000E+00  0.00000000000E+00  0.13171764158E+02  0.13171764158E+02  0.00000000000E+00 0.  1.
          1   -1    0    0  502    0  0.00000000000E+00 -0.00000000000E+00 -0.25161966769E+04  0.25161966769E+04  0.00000000000E+00 0. -1.
          6    1    1    2  502    0 -0.29797176247E+02 -0.63979068927E+01 -0.16077675711E+04  0.16172289162E+04  0.17200000000E+03 0. -1.
         -6    1    1    2    0  501  0.29797176247E+02  0.63979068927E+01 -0.89525734165E+03  0.91213952480E+03  0.17200000000E+03 0.  1.
</event>
<event>
 4    1  0.3211568E-002  0.1189758E+04  0.7818608E-02  0.9121869E-01
          2   -1    0    0  502    0  0.00000000000E+00  0.00000000000E+00  0.11423770320E+04  0.11423770320E+04  0.00000000000E+00 0. -1.
         -2   -1    0    0    0  501 -0.00000000000E+00 -0.00000000000E+00 -0.23586522949E+04  0.23586522949E+04  0.00000000000E+00 0.  1.
          6    1    1    2  502    0 -0.10609509058E+04  0.51021959014E+03  0.59788387988E+03  0.13315367019E+04  0.17200000000E+03 0. -1.
         -6    1    1    2    0  501  0.10609509058E+04 -0.51021959014E+03 -0.18141591428E+04  0.21694926251E+04  0.17200000000E+03 0.  1.
</event>
<event>
 4    1  0.3211568E-002  0.1770374E+03  0.7818608E-02  0.1170701E+00
          2   -1    0    0  502    0  0.00000000000E+00  0.00000000000E+00  0.19174016586E+02  0.19174016586E+02  0.00000000000E+00 0. -1.
         -2   -1    0    0    0  501 -0.00000000000E+00 -0.00000000000E+00 -0.16892625656E+04  0.16892625656E+04  0.00000000000E+00 0.  1.
          6    1    1    2  502    0 -0.20632094824E+02 -0.36504157524E+02 -0.68141123823E+03  0.70403374382E+03  0.17200000000E+03 0. -1.
         -6    1    1    2    0  501  0.20632094824E+02  0.36504157524E+02 -0.98867731078E+03  0.10044028384E+04  0.17200000000E+03 0.  1.
</event>
<event>
 4    1  0.3211568E-002  0.1969096E+03  0.7818608E-02  0.1152373E+00
          3   -1    0    0  502    0  0.00000000000E+00  0.00000000000E+00  0.34526925158E+02  0.34526925158E+02  0.00000000000E+00 0. -1.
         -3   -1    0    0    0  501 -0.00000000000E+00 -0.00000000000E+00 -0.25321407401E+04  0.25321407401E+04  0.00000000000E+00 0.  1.
          6    1    1    2  502    0 -0.90382287056E+02  0.31944153233E+02 -0.29144868429E+03  0.35173245843E+03  0.17200000000E+03 0. -1.
         -6    1    1    2    0  501  0.90382287056E+02 -0.31944153233E+02 -0.22061651307E+04  0.22149352068E+04  0.17200000000E+03 0.  1.
</event>
<event>
 4    1  0.3211568E-002  0.6286724E+03  0.7818608E-02  0.9847643E-01
         -1   -1    0    0    0  501 -0.00000000000E+00  0.00000000000E+00  0.30167182604E+03  0.30167182604E+03  0.00000000000E+00 0.  1.
          1   -1    0    0  502    0  0.00000000000E+00 -0.00000000000E+00 -0.16761542225E+04  0.16761542225E+04  0.00000000000E+00 0. -1.
          6    1    1    2  502    0 -0.60374370235E+03 -0.33741276357E+02 -0.11493633266E+04  0.13100629712E+04  0.17200000000E+03 0. -1.
         -6    1    1    2    0  501  0.60374370235E+03  0.33741276357E+02 -0.22511906979E+03  0.66776307733E+03  0.17200000000E+03 0.  1.
</event>
<event>
 4    1  0.3211568E-002  0.3664454E+03  0.7818608E-02  0.1056061E+00
          1   -1    0    0  502    0  0.00000000000E+00  0.00000000000E+00  0.97430064175E+03  0.97430064175E+03  0.00000000000E+00 0. -1.
         -1   -1    0    0    0  501 -0.00000000000E+00 -0.00000000000E+00 -0.21092979952E+03  0.21092979952E+03  0.00000000000E+00 0.  1.
          6    1    1    2  502    0  0.30330530650E+03 -0.11271255176E+03  0.73056784168E+03  0.81731976580E+03  0.17200000000E+03 0. -1.
         -6    1    1    2    0  501 -0.30330530650E+03  0.11271255176E+03  0.32803000552E+02  0.36791067547E+03  0.17200000000E+03 0.  1.
</event>
<event>
 4    1  0.3211568E-002  0.1794158E+03  0.7818608E-02  0.1168370E+00
          2   -1    0    0  502    0  0.00000000000E+00  0.00000000000E+00  0.14902941481E+04  0.14902941481E+04  0.00000000000E+00 0. -1.
         -2   -1    0    0    0  501 -0.00000000000E+00 -0.00000000000E+00 -0.23025668695E+02  0.23025668695E+02  0.00000000000E+00 0.  1.
          6    1    1    2  502    0  0.46899531321E+02 -0.20160767094E+02  0.54533969655E+03  0.57409529453E+03  0.17200000000E+03 0.  1.
         -6    1    1    2    0  501 -0.46899531321E+02  0.20160767094E+02  0.92192878283E+03  0.93922452224E+03  0.17200000000E+03 0.  1.
</event>
<event>
 4    1  0.3211568E-002  0.2326081E+03  0.7818608E-02  0.1124817E+00
          4   -1    0    0  502    0  0.00000000000E+00  0.00000000000E+00  0.10603235133E+04  0.10603235133E+04  0.00000000000E+00 0. -1.
         -4   -1    0    0    0  501 -0.00000000000E+00 -0.00000000000E+00 -0.76208401198E+02  0.76208401198E+02  0.00000000000E+00 0.  1.
          6    1    1    2  502    0 -0.10034763574E+03  0.12022015471E+03  0.81870459711E+03  0.85110736744E+03  0.17200000000E+03 0. -1.
         -6    1    1    2    0  501  0.10034763574E+03 -0.12022015471E+03  0.16541051502E+03  0.28542454708E+03  0.17200000000E+03 0. -1.
</event>
<event>
 4    1  0.3211568E-002  0.2546412E+03  0.7818608E-02  0.1110406E+00
         -1   -1    0    0    0  501 -0.00000000000E+00  0.00000000000E+00  0.13088688513E+03  0.13088688513E+03  0.00000000000E+00 0.  1.
          1   -1    0    0  502    0  0.00000000000E+00 -0.00000000000E+00 -0.11319825452E+04  0.11319825452E+04  0.00000000000E+00 0. -1.
          6    1    1    2  502    0  0.15502559602E+03 -0.10594899421E+03 -0.97406307668E+03  0.10067973988E+04  0.17200000000E+03 0. -1.
         -6    1    1    2    0  501 -0.15502559602E+03  0.10594899421E+03 -0.27032583405E+02  0.25607203159E+03  0.17200000000E+03 0.  1.
</event>
<event>
 4    1  0.3211568E-002  0.4839526E+03  0.7818608E-02  0.1018055E+00
          3   -1    0    0  502    0  0.00000000000E+00  0.00000000000E+00  0.20350708648E+03  0.20350708648E+03  0.00000000000E+00 0. -1.
         -3   -1    0    0    0  501 -0.00000000000E+00 -0.00000000000E+00 -0.11559442795E+04  0.11559442795E+04  0.00000000000E+00 0.  1.
          6    1    1    2  502    0 -0.38137917254E+03  0.24326130745E+03 -0.43118197459E+03  0.64817284127E+03  0.17200000000E+03 0. -1.
         -6    1    1    2    0  501  0.38137917254E+03 -0.24326130745E+03 -0.52125521839E+03  0.71127852467E+03  0.17200000000E+03 0.  1.
</event>
<event>
 4    1  0.3211568E-002  0.1885876E+03  0.7818608E-02  0.1159741E+00
          2   -1    0    0  502    0  0.00000000000E+00  0.00000000000E+00  0.18969689174E+03  0.18969689174E+03  0.00000000000E+00 0. -1.
         -2   -1    0    0    0  501 -0.00000000000E+00 -0.00000000000E+00 -0.18921925317E+03  0.18921925317E+03  0.00000000000E+00 0.  1.
          6    1    1    2  502    0  0.14013268901E+02  0.76058527544E+02 -0.17900458244E+02  0.18943520719E+03  0.17200000000E+03 0.  1.
         -6    1    1    2    0  501 -0.14013268901E+02 -0.76058527544E+02  0.18378096807E+02  0.18948093772E+03  0.17200000000E+03 0. -1.
</event>
<event>
 4    1  0.3211568E-002  0.2355342E+03  0.7818608E-02  0.1122804E+00
          1   -1    0    0  502    0  0.00000000000E+00  0.00000000000E+00  0.19357721324E+03  0.19357721324E+03  0.00000000000E+00 0. -1.
         -1   -1    0    0    0  501 -0.00000000000E+00 -0.00000000000E+00 -0.52396038613E+03  0.52396038613E+03  0.00000000000E+00 0.  1.
          6    1    1    2  502    0 -0.89427097695E+02 -0.13377268729E+03  0.76289558424E+02  0.24758116728E+03  0.17200000000E+03 0. -1.
         -6    1    1    2    0  501  0.89427097695E+02  0.13377268729E+03 -0.40667273131E+03  0.46995643209E+03  0.17200000000E+03 0.  1.
</event>
<event>
 4    1  0.3211568E-002  0.1988599E+03  0.7818608E-02  0.1150704E+00
         -2   -1    0    0    0  501 -0.00000000000E+00  0.00000000000E+00  0.63643080526E+02  0.63643080526E+02  0.00000000000E+00 0.  1.
          2   -1    0    0  502    0  0.00000000000E+00 -0.00000000000E+00 -0.77337295437E+03  0.77337295437E+03  0.00000000000E+00 0. -1.
          6    1    1    2  502    0  0.76906256040E+02  0.63613614677E+02 -0.54041008373E+03  0.57583706270E+03  0.17200000000E+03 0. -1.
         -6    1    1    2    0  501 -0.76906256040E+02 -0.63613614677E+02 -0.16931979012E+03  0.26117897219E+03  0.17200000000E+03 0.  1.
</event>
<event>
 4    1  0.3211568E-002  0.4640005E+03  0.7818608E-02  0.1023627E+00
         -2   -1    0    0    0  501 -0.00000000000E+00  0.00000000000E+00  0.37978153360E+03  0.37978153360E+03  0.00000000000E+00 0.  1.
          2   -1    0    0  502    0  0.00000000000E+00 -0.00000000000E+00 -0.59203645650E+03  0.59203645650E+03  0.00000000000E+00 0. -1.
          6    1    1    2  502    0  0.79644214427E+02 -0.42352014024E+03 -0.59961113413E+01  0.46403929083E+03  0.17200000000E+03 0. -1.
         -6    1    1    2    0  501 -0.79644214427E+02  0.42352014024E+03 -0.20625881156E+03  0.50777869927E+03  0.17200000000E+03 0.  1.
</event>
<event>
 4    1  0.3211568E-002  0.2666998E+03  0.7818608E-02  0.1103183E+00
         -1   -1    0    0    0  501 -0.00000000000E+00  0.00000000000E+00  0.15384669979E+03  0.15384669979E+03  0.00000000000E+00 0.  1.
          1   -1    0    0  502    0  0.00000000000E+00 -0.00000000000E+00 -0.48247373287E+03  0.48247373287E+03  0.00000000000E+00 0. -1.
          6    1    1    2  502    0 -0.15128540428E+03  0.13659240581E+03 -0.99312229173E+02  0.28459036831E+03  0.17200000000E+03 0. -1.
         -6    1    1    2    0  501  0.15128540428E+03 -0.13659240581E+03 -0.22931480390E+03  0.35173006434E+03  0.17200000000E+03 0.  1.
</event>
<event>
 4    1  0.3211568E-002  0.1829737E+03  0.7818608E-02  0.1164956E+00
          1   -1    0    0  502    0  0.00000000000E+00  0.00000000000E+00  0.25813693471E+04  0.25813693471E+04  0.00000000000E+00 0. -1.
         -1   -1    0    0    0  501 -0.00000000000E+00 -0.00000000000E+00 -0.17062539856E+02  0.17062539856E+02  0.00000000000E+00 0.  1.
          6    1    1    2  502    0  0.43275749101E+02  0.44973245533E+02  0.19184740944E+04  0.19271798655E+04  0.17200000000E+03 0. -1.
         -6    1    1    2    0  501 -0.43275749101E+02 -0.44973245533E+02  0.64583271292E+03  0.67125202149E+03  0.17200000000E+03 0.  1.
</event>
<event>
 4    1  0.3211568E-002  0.2992973E+03  0.7818608E-02  0.1085592E+00
         -2   -1    0    0    0  501 -0.00000000000E+00  0.00000000000E+00  0.77259029161E+02  0.77259029161E+02  0.00000000000E+00 0.  1.
          2   -1    0    0  502    0  0.00000000000E+00 -0.00000000000E+00 -0.11921016600E+04  0.11921016600E+04  0.00000000000E+00 0. -1.
          6    1    1    2  502    0  0.24471502636E+03  0.10460208668E+02 -0.66244212974E+03  0.72691707598E+03  0.17200000000E+03 0. -1.
         -6    1    1    2    0  501 -0.24471502636E+03 -0.10460208668E+02 -0.45240050110E+03  0.54244361319E+03  0.17200000000E+03 0.  1.
</event>
<event>
 4    1  0.3211568E-002  0.2547630E+03  0.7818608E-02  0.1110331E+00
         -2   -1    0    0    0  501 -0.00000000000E+00  0.00000000000E+00  0.83053523664E+02  0.83053523664E+02  0.00000000000E+00 0.  1.
          2   -1    0    0  502    0  0.00000000000E+00 -0.00000000000E+00 -0.14935232370E+04  0.14935232370E+04  0.00000000000E+00 0. -1.
          6    1    1    2  502    0 -0.62007786458E+02  0.17741259884E+03 -0.12495294853E+04  0.12752364998E+04  0.17200000000E+03 0. -1.
         -6    1    1    2    0  501  0.62007786458E+02 -0.17741259884E+03 -0.16094022802E+03  0.30134026084E+03  0.17200000000E+03 0.  1.
</event>
<event>
 4    1  0.3211568E-002  0.3072054E+03  0.7818608E-02  0.1081693E+00
         -2   -1    0    0    0  501 -0.00000000000E+00  0.00000000000E+00  0.25742991585E+03  0.25742991585E+03  0.00000000000E+00 0.  1.
          2   -1    0    0  502    0  0.00000000000E+00 -0.00000000000E+00 -0.13223705531E+04  0.13223705531E+04  0.00000000000E+00 0. -1.
          6    1    1    2  502    0  0.24515338539E+03  0.68490494809E+02 -0.12040094323E+04  0.12425835357E+04  0.17200000000E+03 0. -1.
         -6    1    1    2    0  501 -0.24515338539E+03 -0.68490494809E+02  0.13906879509E+03  0.33721693317E+03  0.17200000000E+03 0.  1.
</event>
<event>
 4    1  0.3211568E-002  0.2717591E+03  0.7818608E-02  0.1100277E+00
         -1   -1    0    0    0  501 -0.00000000000E+00  0.00000000000E+00  0.71903663898E+03  0.71903663898E+03  0.00000000000E+00 0.  1.
          1   -1    0    0  502    0  0.00000000000E+00 -0.00000000000E+00 -0.17005457480E+03  0.17005457480E+03  0.00000000000E+00 0. -1.
          6    1    1    2  502    0 -0.12288056571E+03  0.17079042528E+03 -0.52589767781E+01  0.27180996971E+03  0.17200000000E+03 0. -1.
         -6    1    1    2    0  501  0.12288056571E+03 -0.17079042528E+03  0.55424104096E+03  0.61728124407E+03  0.17200000000E+03 0.  1.
</event>
<event>
 4    1  0.3211568E-002  0.5484638E+03  0.7818608E-02  0.1001850E+00
         -2   -1    0    0    0  501 -0.00000000000E+00  0.00000000000E+00  0.59151778811E+03  0.59151778811E+03  0.00000000000E+00 0.  1.
          2   -1    0    0  502    0  0.00000000000E+00 -0.00000000000E+00 -0.13819727316E+04  0.13819727316E+04  0.00000000000E+00 0. -1.
          6    1    1    2  502    0 -0.34174034410E+03  0.39299124421E+03 -0.11796844853E+04  0.13009489097E+04  0.17200000000E+03 0. -1.
         -6    1    1    2    0  501  0.34174034410E+03 -0.39299124421E+03  0.38922954189E+03  0.67254160993E+03  0.17200000000E+03 0.  1.
</event>
<event>
 4    1  0.3211568E-002  0.2007900E+03  0.7818608E-02  0.1149074E+00
         -2   -1    0    0    0  501 -0.00000000000E+00  0.00000000000E+00  0.21544230637E+03  0.21544230637E+03  0.00000000000E+00 0.  1.
          2   -1    0    0  502    0  0.00000000000E+00 -0.00000000000E+00 -0.21236351652E+03  0.21236351652E+03  0.00000000000E+00 0. -1.
          6    1    1    2  502    0 -0.78879997756E+02 -0.67160629995E+02  0.75267022392E+02  0.21443350701E+03  0.17200000000E+03 0. -1.
         -6    1    1    2    0  501  0.78879997756E+02  0.67160629995E+02 -0.72188232549E+02  0.21337231588E+03  0.17200000000E+03 0. -1.
</event>
<event>
 4    1  0.3211568E-002  0.1995842E+03  0.7818608E-02  0.1150090E+00
         -1   -1    0    0    0  501 -0.00000000000E+00  0.00000000000E+00  0.63147014919E+02  0.63147014919E+02  0.00000000000E+00 0.  1.
          1   -1    0    0  502    0  0.00000000000E+00 -0.00000000000E+00 -0.14737911041E+04  0.14737911041E+04  0.00000000000E+00 0. -1.
          6    1    1    2  502    0  0.54896005788E+02 -0.85066450865E+02 -0.12865104164E+04  0.13018997366E+04  0.17200000000E+03 0. -1.
         -6    1    1    2    0  501 -0.54896005788E+02  0.85066450865E+02 -0.12413367277E+03  0.23503838246E+03  0.17200000000E+03 0.  1.
</event>
<event>
 4    1  0.3211568E-002  0.2913137E+03  0.7818608E-02  0.1089665E+00
          1   -1    0    0  502    0  0.00000000000E+00  0.00000000000E+00  0.20295627073E+03  0.20295627073E+03  0.00000000000E+00 0. -1.
         -1   -1    0    0    0  501 -0.00000000000E+00 -0.00000000000E+00 -0.55495448161E+03  0.55495448161E+03  0.00000000000E+00 0.  1.
          6    1    1    2  502    0  0.13475888768E+03  0.19266481192E+03  0.12161596787E+02  0.29156747418E+03  0.17200000000E+03 0. -1.
         -6    1    1    2    0  501 -0.13475888768E+03 -0.19266481192E+03 -0.36415980767E+03  0.46634327816E+03  0.17200000000E+03 0.  1.
</event>
<event>
 4    1  0.3211568E-002  0.2938417E+03  0.7818608E-02  0.1088360E+00
          1   -1    0    0  502    0  0.00000000000E+00  0.00000000000E+00  0.12753198279E+04  0.12753198279E+04  0.00000000000E+00 0. -1.
         -1   -1    0    0    0  501 -0.00000000000E+00 -0.00000000000E+00 -0.68577340072E+02  0.68577340072E+02  0.00000000000E+00 0.  1.
          6    1    1    2  502    0 -0.21432267891E+03 -0.10404201641E+03  0.52749757875E+03  0.60381838947E+03  0.17200000000E+03 0. -1.
         -6    1    1    2    0  501  0.21432267891E+03  0.10404201641E+03  0.67924490903E+03  0.74007877845E+03  0.17200000000E+03 0.  1.
</event>
<event>
 4    1  0.3211568E-002  0.1975871E+03  0.7818608E-02  0.1151791E+00
          2   -1    0    0  502    0  0.00000000000E+00  0.00000000000E+00  0.31431708833E+03  0.31431708833E+03  0.00000000000E+00 0. -1.
         -2   -1    0    0    0  501 -0.00000000000E+00 -0.00000000000E+00 -0.31197272882E+03  0.31197272882E+03  0.00000000000E+00 0.  1.
          6    1    1    2  502    0  0.97239369792E+02  0.10760094553E+01  0.24410948420E+03  0.31405428370E+03  0.17200000000E+03 0. -1.
         -6    1    1    2    0  501 -0.97239369792E+02 -0.10760094553E+01 -0.24176512468E+03  0.31223553345E+03  0.17200000000E+03 0.  1.
</event>
<event>
 4    1  0.3211568E-002  0.2106703E+03  0.7818608E-02  0.1141036E+00
          2   -1    0    0  502    0  0.00000000000E+00  0.00000000000E+00  0.70580216015E+03  0.70580216015E+03  0.00000000000E+00 0. -1.
         -2   -1    0    0    0  501 -0.00000000000E+00 -0.00000000000E+00 -0.65089429288E+02  0.65089429288E+02  0.00000000000E+00 0.  1.
          6    1    1    2  502    0 -0.12018568073E+03 -0.18798502843E+02  0.39134504377E+03  0.44444676266E+03  0.17200000000E+03 0. -1.
         -6    1    1    2    0  501  0.12018568073E+03  0.18798502843E+02  0.24936768710E+03  0.32644482678E+03  0.17200000000E+03 0.  1.
</event>
<event>
 4    1  0.3211568E-002  0.1900713E+03  0.7818608E-02  0.1158397E+00
          2   -1    0    0  502    0  0.00000000000E+00  0.00000000000E+00  0.18184590572E+04  0.18184590572E+04  0.00000000000E+00 0. -1.
         -2   -1    0    0    0  501 -0.00000000000E+00 -0.00000000000E+00 -0.19965267812E+02  0.19965267812E+02  0.00000000000E+00 0.  1.
          6    1    1    2  502    0  0.34400693407E+02  0.73209963605E+02  0.96377524112E+03  0.98233895468E+03  0.17200000000E+03 0.  1.
         -6    1    1    2    0  501 -0.34400693407E+02 -0.73209963605E+02  0.83471854823E+03  0.85608537030E+03  0.17200000000E+03 0.  1.
</event>
<event>
 4    1  0.3211568E-002  0.3018511E+03  0.7818608E-02  0.1084319E+00
          4   -1    0    0  502    0  0.00000000000E+00  0.00000000000E+00  0.60232543783E+03  0.60232543783E+03  0.00000000000E+00 0. -1.
         -4   -1    0    0    0  501 -0.00000000000E+00 -0.00000000000E+00 -0.15218245615E+03  0.15218245615E+03  0.00000000000E+00 0.  1.
          6    1    1    2  502    0  0.24784673519E+03  0.10104094037E+02  0.19586846077E+03  0.35983128100E+03  0.17200000000E+03 0. -1.
         -6    1    1    2    0  501 -0.24784673519E+03 -0.10104094037E+02  0.25427452091E+03  0.39467661299E+03  0.17200000000E+03 0.  1.
</event>
<event>
 4    1  0.3211568E-002  0.3933692E+03  0.7818608E-02  0.1046100E+00
         -2   -1    0    0    0  501 -0.00000000000E+00  0.00000000000E+00  0.35177870410E+03  0.35177870410E+03  0.00000000000E+00 0.  1.
          2   -1    0    0  502    0  0.00000000000E+00 -0.00000000000E+00 -0.45247792205E+03  0.45247792205E+03  0.00000000000E+00 0. -1.
          6    1    1    2  502    0 -0.13101069697E+03 -0.32862065913E+03  0.16757438534E+02  0.39372598603E+03  0.17200000000E+03 0.  1.
         -6    1    1    2    0  501  0.13101069697E+03  0.32862065913E+03 -0.11745665649E+03  0.41053064012E+03  0.17200000000E+03 0.  1.
</event>
<event>
 4    1  0.3211568E-002  0.2130676E+03  0.7818608E-02  0.1139160E+00
         -1   -1    0    0    0  501 -0.00000000000E+00  0.00000000000E+00  0.62701295566E+03  0.62701295566E+03  0.00000000000E+00 0.  1.
          1   -1    0    0  502    0  0.00000000000E+00 -0.00000000000E+00 -0.74430139326E+02  0.74430139326E+02  0.00000000000E+00 0. -1.
          6    1    1    2  502    0  0.11585802784E+03 -0.48895047543E+02  0.33416727333E+03  0.39631499448E+03  0.17200000000E+03 0.  1.
         -6    1    1    2    0  501 -0.11585802784E+03  0.48895047543E+02  0.21841554301E+03  0.30512810050E+03  0.17200000000E+03 0.  1.
</event>
<event>
 4    1  0.3211568E-002  0.2918373E+03  0.7818608E-02  0.1089394E+00
         -2   -1    0    0    0  501 -0.00000000000E+00  0.00000000000E+00  0.98678172275E+02  0.98678172275E+02  0.00000000000E+00 0.  1.
          2   -1    0    0  502    0  0.00000000000E+00 -0.00000000000E+00 -0.86859027478E+03  0.86859027478E+03  0.00000000000E+00 0. -1.
          6    1    1    2  502    0 -0.21823165851E+03  0.89218619002E+02 -0.34650117963E+03  0.45302548078E+03  0.17200000000E+03 0. -1.
         -6    1    1    2    0  501  0.21823165851E+03 -0.89218619002E+02 -0.42341092288E+03  0.51424296627E+03  0.17200000000E+03 0. -1.
</event>
<event>
 4    1  0.3211568E-002  0.2104508E+03  0.7818608E-02  0.1141210E+00
          2   -1    0    0  502    0  0.00000000000E+00  0.00000000000E+00  0.55204548966E+03  0.55204548966E+03  0.00000000000E+00 0. -1.
         -2   -1    0    0    0  501 -0.00000000000E+00 -0.00000000000E+00 -0.11319204387E+03  0.11319204387E+03  0.00000000000E+00 0.  1.
          6    1    1    2  502    0 -0.16963545962E+02 -0.12007403666E+03  0.39929111246E+02  0.21420520558E+03  0.17200000000E+03 0.  1.
         -6    1    1    2    0  501  0.16963545962E+02  0.12007403666E+03  0.39892433454E+03  0.45103232796E+03  0.17200000000E+03 0. -1.
</event>
<event>
 4    1  0.3211568E-002  0.2042763E+03  0.7818608E-02  0.1146180E+00
         -2   -1    0    0    0  501 -0.00000000000E+00  0.00000000000E+00  0.54940175230E+02  0.54940175230E+02  0.00000000000E+00 0.  1.
          2   -1    0    0  502    0  0.00000000000E+00 -0.00000000000E+00 -0.83552504331E+03  0.83552504331E+03  0.00000000000E+00 0. -1.
          6    1    1    2  502    0  0.18260549264E+02 -0.10868000841E+03 -0.52456759167E+03  0.56293867350E+03  0.17200000000E+03 0. -1.
         -6    1    1    2    0  501 -0.18260549264E+02  0.10868000841E+03 -0.25601727641E+03  0.32752654504E+03  0.17200000000E+03 0. -1.
</event>
<event>
 4    1  0.3211568E-002  0.2448803E+03  0.7818608E-02  0.1116584E+00
          1   -1    0    0  502    0  0.00000000000E+00  0.00000000000E+00  0.42331765466E+03  0.42331765466E+03  0.00000000000E+00 0. -1.
         -1   -1    0    0    0  501 -0.00000000000E+00 -0.00000000000E+00 -0.37591260598E+03  0.37591260598E+03  0.00000000000E+00 0.  1.
          6    1    1    2  502    0 -0.10159623795E+03  0.14163527598E+03  0.33916122903E+03  0.41832605255E+03  0.17200000000E+03 0. -1.
         -6    1    1    2    0  501  0.10159623795E+03 -0.14163527598E+03 -0.29175618035E+03  0.38090420809E+03  0.17200000000E+03 0.  1.
</event>
<event>
 4    1  0.3211568E-002  0.3943754E+03  0.7818608E-02  0.1045745E+00
         -1   -1    0    0    0  501 -0.00000000000E+00  0.00000000000E+00  0.10013796464E+04  0.10013796464E+04  0.00000000000E+00 0.  1.
          1   -1    0    0  502    0  0.00000000000E+00 -0.00000000000E+00 -0.15534679995E+03  0.15534679995E+03  0.00000000000E+00 0. -1.
          6    1    1    2  502    0  0.30488244230E+03  0.18164429617E+03  0.41509659508E+03  0.57257063949E+03  0.17200000000E+03 0. -1.
         -6    1    1    2    0  501 -0.30488244230E+03 -0.18164429617E+03  0.43093625140E+03  0.58415580689E+03  0.17200000000E+03 0.  1.
</event>
<event>
 4    1  0.3211568E-002  0.1771888E+03  0.7818608E-02  0.1170552E+00
         -2   -1    0    0    0  501 -0.00000000000E+00  0.00000000000E+00  0.65372121096E+02  0.65372121096E+02  0.00000000000E+00 0.  1.
          2   -1    0    0  502    0  0.00000000000E+00 -0.00000000000E+00 -0.89667169201E+03  0.89667169201E+03  0.00000000000E+00 0. -1.
          6    1    1    2  502    0 -0.18905913934E+02  0.38136908489E+02 -0.74344880398E+03  0.76427219072E+03  0.17200000000E+03 0. -1.
         -6    1    1    2    0  501  0.18905913934E+02 -0.38136908489E+02 -0.87850766939E+02  0.19777162239E+03  0.17200000000E+03 0.  1.
</event>
<event>
 4    1  0.3211568E-002  0.2335085E+03  0.7818608E-02  0.1124194E+00
          2   -1    0    0  502    0  0.00000000000E+00  0.00000000000E+00  0.79344496891E+03  0.79344496891E+03  0.00000000000E+00 0. -1.
         -2   -1    0    0    0  501 -0.00000000000E+00 -0.00000000000E+00 -0.69376534526E+02  0.69376534526E+02  0.00000000000E+00 0.  1.
          6    1    1    2  502    0 -0.29829901399E+00 -0.15793083874E+03  0.40397352227E+03  0.46660566381E+03  0.17200000000E+03 0.  1.
         -6    1    1    2    0  501  0.29829901399E+00  0.15793083874E+03  0.32009491212E+03  0.39621583962E+03  0.17200000000E+03 0. -1.
</event>
<event>
 4    1  0.3211568E-002  0.2060061E+03  0.7818608E-02  0.1144768E+00
         -2   -1    0    0    0  501 -0.00000000000E+00  0.00000000000E+00  0.62298167596E+02  0.62298167596E+02  0.00000000000E+00 0.  1.
          2   -1    0    0  502    0  0.00000000000E+00 -0.00000000000E+00 -0.13913261618E+04  0.13913261618E+04  0.00000000000E+00 0. -1.
          6    1    1    2  502    0  0.55476428889E+02  0.98878137054E+02 -0.11837568394E+04  0.12015484905E+04  0.17200000000E+03 0. -1.
         -6    1    1    2    0  501 -0.55476428889E+02 -0.98878137054E+02 -0.14527115482E+03  0.25207583893E+03  0.17200000000E+03 0.  1.
</event>
<event>
 4    1  0.3211568E-002  0.1888977E+03  0.7818608E-02  0.1159459E+00
          1   -1    0    0  502    0  0.00000000000E+00  0.00000000000E+00  0.67617926574E+03  0.67617926574E+03  0.00000000000E+00 0. -1.
         -1   -1    0    0    0  501 -0.00000000000E+00 -0.00000000000E+00 -0.11654849807E+03  0.11654849807E+03  0.00000000000E+00 0.  1.
          6    1    1    2  502    0 -0.74484745801E+02  0.23460066806E+02  0.57302350974E+03  0.60335586084E+03  0.17200000000E+03 0. -1.
         -6    1    1    2    0  501  0.74484745801E+02 -0.23460066806E+02 -0.13392742073E+02  0.18937190296E+03  0.17200000000E+03 0.  1.
</event>
<event>
 4    1  0.3211568E-002  0.4869453E+03  0.7818608E-02  0.1017244E+00
         -1   -1    0    0    0  501 -0.00000000000E+00  0.00000000000E+00  0.22352919944E+03  0.22352919944E+03  0.00000000000E+00 0.  1.
          1   -1    0    0  502    0  0.00000000000E+00 -0.00000000000E+00 -0.13649143737E+04  0.13649143737E+04  0.00000000000E+00 0. -1.
          6    1    1    2  502    0 -0.12011320718E+03  0.43943659074E+03 -0.94559702609E+03  0.10636115059E+04  0.17200000000E+03 0. -1.
         -6    1    1    2    0  501  0.12011320718E+03 -0.43943659074E+03 -0.19578814821E+03  0.52483206724E+03  0.17200000000E+03 0.  1.
</event>
<event>
 4    1  0.3211568E-002  0.1730758E+03  0.7818608E-02  0.1174678E+00
          1   -1    0    0  502    0  0.00000000000E+00  0.00000000000E+00  0.56797292437E+03  0.56797292437E+03  0.00000000000E+00 0. -1.
         -1   -1    0    0    0  501 -0.00000000000E+00 -0.00000000000E+00 -0.70052827605E+02  0.70052827605E+02  0.00000000000E+00 0.  1.
          6    1    1    2  502    0 -0.12138857082E+02  0.14963121771E+02  0.90371602269E+02  0.19524925957E+03  0.17200000000E+03 0.  1.
         -6    1    1    2    0  501  0.12138857082E+02 -0.14963121771E+02  0.40754849449E+03  0.44277649241E+03  0.17200000000E+03 0. -1.
</event>
<event>
 4    1  0.3211568E-002  0.4313556E+03  0.7818608E-02  0.1033433E+00
          2   -1    0    0  502    0  0.00000000000E+00  0.00000000000E+00  0.99623667786E+03  0.99623667786E+03  0.00000000000E+00 0. -1.
         -2   -1    0    0    0  501 -0.00000000000E+00 -0.00000000000E+00 -0.18752194051E+03  0.18752194051E+03  0.00000000000E+00 0.  1.
          6    1    1    2  502    0  0.27788084894E+03  0.28154194360E+03  0.44182459824E+03  0.61747599777E+03  0.17200000000E+03 0. -1.
         -6    1    1    2    0  501 -0.27788084894E+03 -0.28154194360E+03  0.36689013910E+03  0.56628262059E+03  0.17200000000E+03 0.  1.
</event>
<event>
 4    1  0.3211568E-002  0.7994221E+03  0.7818608E-02  0.9560854E-01
         -2   -1    0    0    0  501 -0.00000000000E+00  0.00000000000E+00  0.37217846368E+03  0.37217846368E+03  0.00000000000E+00 0.  1.
          2   -1    0    0  502    0  0.00000000000E+00 -0.00000000000E+00 -0.20668252079E+04  0.20668252079E+04  0.00000000000E+00 0. -1.
          6    1    1    2  502    0  0.75888906665E+03  0.18324609866E+03 -0.13489499337E+04  0.15680375224E+04  0.17200000000E+03 0. -1.
         -6    1    1    2    0  501 -0.75888906665E+03 -0.18324609866E+03 -0.34569681056E+03  0.87096614917E+03  0.17200000000E+03 0.  1.
</event>
<event>
 4    1  0.3211568E-002  0.2176727E+03  0.7818608E-02  0.1135630E+00
         -2   -1    0    0    0  501 -0.00000000000E+00  0.00000000000E+00  0.44172237664E+02  0.44172237664E+02  0.00000000000E+00 0.  1.
          2   -1    0    0  502    0  0.00000000000E+00 -0.00000000000E+00 -0.12577889112E+04  0.12577889112E+04  0.00000000000E+00 0. -1.
          6    1    1    2  502    0 -0.12643277619E+03  0.42569280079E+02 -0.85656204487E+03  0.88378726355E+03  0.17200000000E+03 0. -1.
         -6    1    1    2    0  501  0.12643277619E+03 -0.42569280079E+02 -0.35705462862E+03  0.41817388527E+03  0.17200000000E+03 0.  1.
</event>
<event>
 4    1  0.3211568E-002  0.2403067E+03  0.7818608E-02  0.1119589E+00
          3   -1    0    0  502    0  0.00000000000E+00  0.00000000000E+00  0.66520092656E+03  0.66520092656E+03  0.00000000000E+00 0. -1.
         -3   -1    0    0    0  501 -0.00000000000E+00 -0.00000000000E+00 -0.90211541770E+02  0.90211541770E+02  0.00000000000E+00 0.  1.
          6    1    1    2  502    0 -0.65366440582E+01 -0.16769198813E+03  0.36081801694E+03  0.43351698000E+03  0.17200000000E+03 0.  1.
         -6    1    1    2    0  501  0.65366440582E+01  0.16769198813E+03  0.21417136785E+03  0.32189548833E+03  0.17200000000E+03 0.  1.
</event>
<event>
 4    1  0.3211568E-002  0.2023985E+03  0.7818608E-02  0.1147731E+00
         -2   -1    0    0    0  501 -0.00000000000E+00  0.00000000000E+00  0.96575380141E+02  0.96575380141E+02  0.00000000000E+00 0.  1.
          2   -1    0    0  502    0  0.00000000000E+00 -0.00000000000E+00 -0.44505527091E+03  0.44505527091E+03  0.00000000000E+00 0. -1.
          6    1    1    2  502    0 -0.71980034647E+02 -0.78740361207E+02 -0.23289442127E+03  0.30855304460E+03  0.17200000000E+03 0. -1.
         -6    1    1    2    0  501  0.71980034647E+02  0.78740361207E+02 -0.11558546950E+03  0.23307760645E+03  0.17200000000E+03 0.  1.
</event>
<event>
 4    1  0.3211568E-002  0.5811639E+03  0.7818608E-02  0.9945274E-01
         -1   -1    0    0    0  501 -0.00000000000E+00  0.00000000000E+00  0.40880259420E+03  0.40880259420E+03  0.00000000000E+00 0.  1.
          1   -1    0    0  502    0  0.00000000000E+00 -0.00000000000E+00 -0.11780706143E+04  0.11780706143E+04  0.00000000000E+00 0. -1.
          6    1    1    2  502    0 -0.93689378657E+02 -0.54716521685E+03 -0.81826461429E+03  0.10036475742E+04  0.17200000000E+03 0. -1.
         -6    1    1    2    0  501  0.93689378657E+02  0.54716521685E+03  0.48996594243E+02  0.58322563425E+03  0.17200000000E+03 0.  1.
</event>
<event>
 4    1  0.3211568E-002  0.2392184E+03  0.7818608E-02  0.1120315E+00
          2   -1    0    0  502    0  0.00000000000E+00  0.00000000000E+00  0.14878420003E+04  0.14878420003E+04  0.00000000000E+00 0. -1.
         -2   -1    0    0    0  501 -0.00000000000E+00 -0.00000000000E+00 -0.39793547248E+02  0.39793547248E+02  0.00000000000E+00 0.  1.
          6    1    1    2  502    0  0.15147018787E+03  0.68543757567E+02  0.86374222386E+03  0.89625671199E+03  0.17200000000E+03 0. -1.
         -6    1    1    2    0  501 -0.15147018787E+03 -0.68543757567E+02  0.58430622921E+03  0.63137883558E+03  0.17200000000E+03 0. -1.
</event>
<event>
 4    1  0.3211568E-002  0.4867156E+03  0.7818608E-02  0.1017306E+00
          2   -1    0    0  502    0  0.00000000000E+00  0.00000000000E+00  0.12912707789E+04  0.12912707789E+04  0.00000000000E+00 0. -1.
         -2   -1    0    0    0  501 -0.00000000000E+00 -0.00000000000E+00 -0.29211886240E+03  0.29211886240E+03  0.00000000000E+00 0.  1.
          6    1    1    2  502    0  0.39630587605E+03  0.22416453083E+03  0.98243177955E+03  0.10963869234E+04  0.17200000000E+03 0. -1.
         -6    1    1    2    0  501 -0.39630587605E+03 -0.22416453083E+03  0.16720136943E+02  0.48700271791E+03  0.17200000000E+03 0.  1.
</event>
<event>
 4    1  0.3211568E-002  0.2246576E+03  0.7818608E-02  0.1130458E+00
          2   -1    0    0  502    0  0.00000000000E+00  0.00000000000E+00  0.12188419184E+04  0.12188419184E+04  0.00000000000E+00 0. -1.
         -2   -1    0    0    0  501 -0.00000000000E+00 -0.00000000000E+00 -0.42482488195E+02  0.42482488195E+02  0.00000000000E+00 0.  1.
          6    1    1    2  502    0  0.39211715894E+02  0.13910235687E+03  0.68843114492E+03  0.72416052478E+03  0.17200000000E+03 0.  1.
         -6    1    1    2    0  501 -0.39211715894E+02 -0.13910235687E+03  0.48792828528E+03  0.53716388182E+03  0.17200000000E+03 0. -1.
</event>
<event>
 4    1  0.3211568E-002  0.2173514E+03  0.7818608E-02  0.1135873E+00
         -1   -1    0    0    0  501 -0.00000000000E+00  0.00000000000E+00  0.30201505575E+03  0.30201505575E+03  0.00000000000E+00 0.  1.
          1   -1    0    0  502    0  0.00000000000E+00 -0.00000000000E+00 -0.67959678001E+03  0.67959678001E+03  0.00000000000E+00 0. -1.
          6    1    1    2  502    0  0.19813678327E+02 -0.13139645935E+03 -0.61942434313E+03  0.65645116212E+03  0.17200000000E+03 0. -1.
         -6    1    1    2    0  501 -0.19813678327E+02  0.13139645935E+03  0.24184261888E+03  0.32516067364E+03  0.17200000000E+03 0.  1.
</event>
<event>
 4    1  0.3211568E-002  0.2210999E+03  0.7818608E-02  0.1133066E+00
          2   -1    0    0  502    0  0.00000000000E+00  0.00000000000E+00  0.66020966037E+03  0.66020966037E+03  0.00000000000E+00 0. -1.
         -2   -1    0    0    0  501 -0.00000000000E+00 -0.00000000000E+00 -0.85007104489E+02  0.85007104489E+02  0.00000000000E+00 0.  1.
          6    1    1    2  502    0  0.13424898214E+03 -0.35754214573E+02  0.42140682412E+03  0.47588744938E+03  0.17200000000E+03 0. -1.
         -6    1    1    2    0  501 -0.13424898214E+03  0.35754214573E+02  0.15379573176E+03  0.26932931547E+03  0.17200000000E+03 0.  1.
</event>
<event>
 4    1  0.3211568E-002  0.2439253E+03  0.7818608E-02  0.1117205E+00
         -1   -1    0    0    0  501 -0.00000000000E+00  0.00000000000E+00  0.41462232578E+02  0.41462232578E+02  0.00000000000E+00 0.  1.
          1   -1    0    0  502    0  0.00000000000E+00 -0.00000000000E+00 -0.15149024017E+04  0.15149024017E+04  0.00000000000E+00 0. -1.
          6    1    1    2  502    0  0.15401562901E+03  0.78706531629E+02 -0.55803495146E+03  0.60901768378E+03  0.17200000000E+03 0.  1.
         -6    1    1    2    0  501 -0.15401562901E+03 -0.78706531629E+02 -0.91540521768E+03  0.94734695051E+03  0.17200000000E+03 0. -1.
</event>
<event>
 4    1  0.3211568E-002  0.2191551E+03  0.7818608E-02  0.1134515E+00
          1   -1    0    0  502    0  0.00000000000E+00  0.00000000000E+00  0.96546027538E+03  0.96546027538E+03  0.00000000000E+00 0. -1.
         -1   -1    0    0    0  501 -0.00000000000E+00 -0.00000000000E+00 -0.60450075234E+02  0.60450075234E+02  0.00000000000E+00 0.  1.
          6    1    1    2  502    0 -0.59507512955E+02 -0.12208117309E+03  0.66834462803E+03  0.70335872692E+03  0.17200000000E+03 0. -1.
         -6    1    1    2    0  501  0.59507512955E+02  0.12208117309E+03  0.23666557212E+03  0.32255162369E+03  0.17200000000E+03 0.  1.
</event>
<event>
 4    1  0.3211568E-002  0.5802806E+03  0.7818608E-02  0.9947184E-01
          2   -1    0    0  502    0  0.00000000000E+00  0.00000000000E+00  0.16259385955E+04  0.16259385955E+04  0.00000000000E+00 0. -1.
         -2   -1    0    0    0  501 -0.00000000000E+00 -0.00000000000E+00 -0.20722112560E+03  0.20722112560E+03  0.00000000000E+00 0.  1.
          6    1    1    2  502    0 -0.12256049763E+03  0.54048174609E+03  0.73186988999E+03  0.93400167522E+03  0.17200000000E+03 0. -1.
         -6    1    1    2    0  501  0.12256049763E+03 -0.54048174609E+03  0.68684757989E+03  0.89915804586E+03  0.17200000000E+03 0.  1.
</event>
<event>
 4    1  0.3211568E-002  0.2828126E+03  0.7818608E-02  0.1094163E+00
         -2   -1    0    0    0  501 -0.00000000000E+00  0.00000000000E+00  0.35311788653E+02  0.35311788653E+02  0.00000000000E+00 0.  1.
          2   -1    0    0  502    0  0.00000000000E+00 -0.00000000000E+00 -0.26542629901E+04  0.26542629901E+04  0.00000000000E+00 0. -1.
          6    1    1    2  502    0  0.15005162507E+03  0.16698348480E+03 -0.79451358386E+03  0.84334738354E+03  0.17200000000E+03 0. -1.
         -6    1    1    2    0  501 -0.15005162507E+03 -0.16698348480E+03 -0.18244376176E+04  0.18462273952E+04  0.17200000000E+03 0.  1.
</event>
<event>
 4    1  0.3211568E-002  0.2204198E+03  0.7818608E-02  0.1133570E+00
          2   -1    0    0  502    0  0.00000000000E+00  0.00000000000E+00  0.10697162637E+04  0.10697162637E+04  0.00000000000E+00 0. -1.
         -2   -1    0    0    0  501 -0.00000000000E+00 -0.00000000000E+00 -0.50926138256E+02  0.50926138256E+02  0.00000000000E+00 0.  1.
          6    1    1    2  502    0  0.13783175806E+03 -0.18136863228E+01  0.32512689675E+03  0.39280068989E+03  0.17200000000E+03 0.  1.
         -6    1    1    2    0  501 -0.13783175806E+03  0.18136863228E+01  0.69366322874E+03  0.72784171211E+03  0.17200000000E+03 0.  1.
</event>
<event>
 4    1  0.3211568E-002  0.1979458E+03  0.7818608E-02  0.1151484E+00
         -2   -1    0    0    0  501 -0.00000000000E+00  0.00000000000E+00  0.32195938500E+03  0.32195938500E+03  0.00000000000E+00 0.  1.
          2   -1    0    0  502    0  0.00000000000E+00 -0.00000000000E+00 -0.13961073152E+03  0.13961073152E+03  0.00000000000E+00 0. -1.
          6    1    1    2  502    0 -0.96908598663E+02 -0.14396920602E+02  0.85131593476E+01  0.19812880078E+03  0.17200000000E+03 0. -1.
         -6    1    1    2    0  501  0.96908598663E+02  0.14396920602E+02  0.17383549413E+03  0.26344131573E+03  0.17200000000E+03 0.  1.
</event>
<event>
 4    1  0.3211568E-002  0.2608214E+03  0.7818608E-02  0.1106651E+00
         -2   -1    0    0    0  501 -0.00000000000E+00  0.00000000000E+00  0.10618562606E+03  0.10618562606E+03  0.00000000000E+00 0.  1.
          2   -1    0    0  502    0  0.00000000000E+00 -0.00000000000E+00 -0.12682227244E+04  0.12682227244E+04  0.00000000000E+00 0. -1.
          6    1    1    2  502    0 -0.19991923389E+02  0.19504902122E+03 -0.10644335593E+04  0.10959227162E+04  0.17200000000E+03 0. -1.
         -6    1    1    2    0  501  0.19991923389E+02 -0.19504902122E+03 -0.97603539076E+02  0.27848563432E+03  0.17200000000E+03 0.  1.
</event>
<event>
 4    1  0.3211568E-002  0.2568542E+03  0.7818608E-02  0.1109048E+00
         -1   -1    0    0    0  501 -0.00000000000E+00  0.00000000000E+00  0.24848523226E+03  0.24848523226E+03  0.00000000000E+00 0.  1.
          1   -1    0    0  502    0  0.00000000000E+00 -0.00000000000E+00 -0.34850091241E+03  0.34850091241E+03  0.00000000000E+00 0. -1.
          6    1    1    2  502    0 -0.11565446110E+03 -0.15170408171E+03  0.95658943379E+02  0.27408888381E+03  0.17200000000E+03 0.  1.
         -6    1    1    2    0  501  0.11565446110E+03  0.15170408171E+03 -0.19567462352E+03  0.32289726086E+03  0.17200000000E+03 0.  1.
</event>
<event>
 4    1  0.3211568E-002  0.1941153E+03  0.7818608E-02  0.1154801E+00
         -2   -1    0    0    0  501 -0.00000000000E+00  0.00000000000E+00  0.20743928098E+02  0.20743928098E+02  0.00000000000E+00 0.  1.
          2   -1    0    0  502    0  0.00000000000E+00 -0.00000000000E+00 -0.18595060960E+04  0.18595060960E+04  0.00000000000E+00 0. -1.
          6    1    1    2  502    0 -0.46244567966E+02 -0.77189386461E+02 -0.10624001386E+04  0.10799883407E+04  0.17200000000E+03 0. -1.
         -6    1    1    2    0  501  0.46244567966E+02  0.77189386461E+02 -0.77636202930E+03  0.80026168344E+03  0.17200000000E+03 0. -1.
</event>
<event>
 4    1  0.3211568E-002  0.1886780E+03  0.7818608E-02  0.1159659E+00
          2   -1    0    0  502    0  0.00000000000E+00  0.00000000000E+00  0.15061105766E+04  0.15061105766E+04  0.00000000000E+00 0. -1.
         -2   -1    0    0    0  501 -0.00000000000E+00 -0.00000000000E+00 -0.24631140364E+02  0.24631140364E+02  0.00000000000E+00 0.  1.
          6    1    1    2  502    0 -0.71609132670E+02 -0.29791464888E+02  0.89453085258E+03  0.91421269159E+03  0.17200000000E+03 0. -1.
         -6    1    1    2    0  501  0.71609132670E+02  0.29791464888E+02  0.58694858363E+03  0.61652902534E+03  0.17200000000E+03 0.  1.
</event>
<event>
 4    1  0.3211568E-002  0.1764710E+03  0.7818608E-02  0.1171263E+00
          2   -1    0    0  502    0  0.00000000000E+00  0.00000000000E+00  0.20179894155E+04  0.20179894155E+04  0.00000000000E+00 0. -1.
         -2   -1    0    0    0  501 -0.00000000000E+00 -0.00000000000E+00 -0.23905373422E+02  0.23905373422E+02  0.00000000000E+00 0.  1.
          6    1    1    2  502    0  0.39405243113E+02  0.22917556126E+01  0.38921705920E+03  0.42735458872E+03  0.17200000000E+03 0.  1.
         -6    1    1    2    0  501 -0.39405243113E+02 -0.22917556126E+01  0.16048669828E+04  0.16145402002E+04  0.17200000000E+03 0. -1.
</event>
<event>
 4    1  0.3211568E-002  0.4173460E+03  0.7818608E-02  0.1037934E+00
          1   -1    0    0  502    0  0.00000000000E+00  0.00000000000E+00  0.18395759828E+04  0.18395759828E+04  0.00000000000E+00 0. -1.
         -1   -1    0    0    0  501 -0.00000000000E+00 -0.00000000000E+00 -0.51608230810E+03  0.51608230810E+03  0.00000000000E+00 0.  1.
          6    1    1    2  502    0 -0.24228369504E+03 -0.29307383322E+03  0.17260599566E+04  0.17757985906E+04  0.17200000000E+03 0. -1.
         -6    1    1    2    0  501  0.24228369504E+03  0.29307383322E+03 -0.40256628196E+03  0.57985970025E+03  0.17200000000E+03 0.  1.
</event>
<event>
 4    1  0.3211568E-002  0.1935501E+03  0.7818608E-02  0.1155298E+00
          2   -1    0    0  502    0  0.00000000000E+00  0.00000000000E+00  0.78002661055E+03  0.78002661055E+03  0.00000000000E+00 0. -1.
         -2   -1    0    0    0  501 -0.00000000000E+00 -0.00000000000E+00 -0.91323887237E+02  0.91323887237E+02  0.00000000000E+00 0.  1.
          6    1    1    2  502    0  0.99828612606E+01 -0.88192826528E+02  0.64433914507E+03  0.67278121707E+03  0.17200000000E+03 0. -1.
         -6    1    1    2    0  501 -0.99828612606E+01  0.88192826528E+02  0.44363578240E+02  0.19856928072E+03  0.17200000000E+03 0.  1.
</event>
<event>
 4    1  0.3211568E-002  0.1771604E+03  0.7818608E-02  0.1170580E+00
         -4   -1    0    0    0  501 -0.00000000000E+00  0.00000000000E+00  0.43702776688E+03  0.43702776688E+03  0.00000000000E+00 0.  1.
          4   -1    0    0  502    0  0.00000000000E+00 -0.00000000000E+00 -0.72912969652E+02  0.72912969652E+02  0.00000000000E+00 0. -1.
          6    1    1    2  502    0 -0.44085964185E+01  0.42218117840E+02  0.21332433750E+03  0.27729601181E+03  0.17200000000E+03 0.  1.
         -6    1    1    2    0  501  0.44085964185E+01 -0.42218117840E+02  0.15079045973E+03  0.23264472473E+03  0.17200000000E+03 0. -1.
</event>
<event>
 4    1  0.3211568E-002  0.2284124E+03  0.7818608E-02  0.1127762E+00
          2   -1    0    0  502    0  0.00000000000E+00  0.00000000000E+00  0.18275719911E+04  0.18275719911E+04  0.00000000000E+00 0. -1.
         -2   -1    0    0    0  501 -0.00000000000E+00 -0.00000000000E+00 -0.30253718002E+02  0.30253718002E+02  0.00000000000E+00 0.  1.
          6    1    1    2  502    0 -0.43530931813E+02 -0.14385155665E+03  0.11192719038E+04  0.11423404952E+04  0.17200000000E+03 0.  1.
         -6    1    1    2    0  501  0.43530931813E+02  0.14385155665E+03  0.67804636935E+03  0.71548521394E+03  0.17200000000E+03 0.  1.
</event>
<event>
 4    1  0.3211568E-002  0.3805407E+03  0.7818608E-02  0.1050734E+00
         -2   -1    0    0    0  501 -0.00000000000E+00  0.00000000000E+00  0.75571245291E+03  0.75571245291E+03  0.00000000000E+00 0.  1.
          2   -1    0    0  502    0  0.00000000000E+00 -0.00000000000E+00 -0.19185150509E+03  0.19185150509E+03  0.00000000000E+00 0. -1.
          6    1    1    2  502    0 -0.15705734269E+03 -0.30093228692E+03  0.26554935275E+03  0.46403416787E+03  0.17200000000E+03 0. -1.
         -6    1    1    2    0  501  0.15705734269E+03  0.30093228692E+03  0.29831159507E+03  0.48352979014E+03  0.17200000000E+03 0.  1.
</event>
<event>
 4    1  0.3211568E-002  0.2213827E+03  0.7818608E-02  0.1132856E+00
         -2   -1    0    0    0  501 -0.00000000000E+00  0.00000000000E+00  0.61664917321E+02  0.61664917321E+02  0.00000000000E+00 0.  1.
          2   -1    0    0  502    0  0.00000000000E+00 -0.00000000000E+00 -0.79724982418E+03  0.79724982418E+03  0.00000000000E+00 0. -1.
          6    1    1    2  502    0 -0.60441316585E+02  0.12559126747E+03 -0.39167395717E+03  0.44990977755E+03  0.17200000000E+03 0.  1.
         -6    1    1    2    0  501  0.60441316585E+02 -0.12559126747E+03 -0.34391094969E+03  0.40900496395E+03  0.17200000000E+03 0.  1.
</event>
<event>
 4    1  0.3211568E-002  0.1745507E+03  0.7818608E-02  0.1173184E+00
          1   -1    0    0  502    0  0.00000000000E+00  0.00000000000E+00  0.32824218766E+03  0.32824218766E+03  0.00000000000E+00 0. -1.
         -1   -1    0    0    0  501 -0.00000000000E+00 -0.00000000000E+00 -0.15538192138E+03  0.15538192138E+03  0.00000000000E+00 0.  1.
          6    1    1    2  502    0 -0.20765526190E+02  0.21277548131E+02  0.23986619446E+03  0.29665423034E+03  0.17200000000E+03 0. -1.
         -6    1    1    2    0  501  0.20765526190E+02 -0.21277548131E+02 -0.67005928182E+02  0.18696987871E+03  0.17200000000E+03 0.  1.
</event>
<event>
 4    1  0.3211568E-002  0.2352278E+03  0.7818608E-02  0.1123013E+00
          1   -1    0    0  502    0  0.00000000000E+00  0.00000000000E+00  0.11684552376E+04  0.11684552376E+04  0.00000000000E+00 0. -1.
         -1   -1    0    0    0  501 -0.00000000000E+00 -0.00000000000E+00 -0.47358931849E+02  0.47358931849E+02  0.00000000000E+00 0.  1.
          6    1    1    2  502    0 -0.16010027091E+03 -0.10771203559E+02  0.55495977494E+03  0.60275406873E+03  0.17200000000E+03 0. -1.
         -6    1    1    2    0  501  0.16010027091E+03  0.10771203559E+02  0.56613653081E+03  0.61306010071E+03  0.17200000000E+03 0.  1.
</event>
<event>
 4    1  0.3211568E-002  0.2019900E+03  0.7818608E-02  0.1148071E+00
          2   -1    0    0  502    0  0.00000000000E+00  0.00000000000E+00  0.20102611923E+04  0.20102611923E+04  0.00000000000E+00 0. -1.
         -2   -1    0    0    0  501 -0.00000000000E+00 -0.00000000000E+00 -0.20805633915E+02  0.20805633915E+02  0.00000000000E+00 0.  1.
          6    1    1    2  502    0  0.43365459254E+02 -0.96619900706E+02  0.83576517377E+03  0.85982753733E+03  0.17200000000E+03 0.  1.
         -6    1    1    2    0  501 -0.43365459254E+02  0.96619900706E+02  0.11536903846E+04  0.11712392889E+04  0.17200000000E+03 0. -1.
</event>
<event>
 4    1  0.3211568E-002  0.2344832E+03  0.7818608E-02  0.1123524E+00
          2   -1    0    0  502    0  0.00000000000E+00  0.00000000000E+00  0.78954093386E+03  0.78954093386E+03  0.00000000000E+00 0. -1.
         -2   -1    0    0    0  501 -0.00000000000E+00 -0.00000000000E+00 -0.79969421513E+02  0.79969421513E+02  0.00000000000E+00 0.  1.
          6    1    1    2  502    0 -0.12184355051E+03 -0.10272535709E+03  0.51104829878E+03  0.56227458903E+03  0.17200000000E+03 0. -1.
         -6    1    1    2    0  501  0.12184355051E+03  0.10272535709E+03  0.19852321357E+03  0.30723576633E+03  0.17200000000E+03 0.  1.
</event>
<event>
 4    1  0.3211568E-002  0.1793828E+03  0.7818608E-02  0.1168402E+00
          1   -1    0    0  502    0  0.00000000000E+00  0.00000000000E+00  0.11990550978E+03  0.11990550978E+03  0.00000000000E+00 0. -1.
         -1   -1    0    0    0  501 -0.00000000000E+00 -0.00000000000E+00 -0.45801285689E+03  0.45801285689E+03  0.00000000000E+00 0.  1.
          6    1    1    2  502    0 -0.44067550110E+02 -0.25539233462E+02  0.16886800925E+02  0.18017592920E+03  0.17200000000E+03 0. -1.
         -6    1    1    2    0  501  0.44067550110E+02  0.25539233462E+02 -0.35499414804E+03  0.39774243747E+03  0.17200000000E+03 0.  1.
</event>
<event>
 4    1  0.3211568E-002  0.5000530E+03  0.7818608E-02  0.1013765E+00
         -1   -1    0    0    0  501 -0.00000000000E+00  0.00000000000E+00  0.12368534955E+04  0.12368534955E+04  0.00000000000E+00 0.  1.
          1   -1    0    0  502    0  0.00000000000E+00 -0.00000000000E+00 -0.23098915347E+03  0.23098915347E+03  0.00000000000E+00 0. -1.
          6    1    1    2  502    0  0.46913276056E+03 -0.19581518662E+02  0.24369062223E+03  0.55627160836E+03  0.17200000000E+03 0. -1.
         -6    1    1    2    0  501 -0.46913276056E+03  0.19581518662E+02  0.76217371976E+03  0.91157104057E+03  0.17200000000E+03 0.  1.
</event>
<event>
 4    1  0.3211568E-002  0.2446239E+03  0.7818608E-02  0.1116750E+00
          1   -1    0    0  502    0  0.00000000000E+00  0.00000000000E+00  0.23787690589E+03  0.23787690589E+03  0.00000000000E+00 0. -1.
         -1   -1    0    0    0  501 -0.00000000000E+00 -0.00000000000E+00 -0.27946904804E+03  0.27946904804E+03  0.00000000000E+00 0.  1.
          6    1    1    2  502    0  0.17181192919E+03 -0.27157063853E+02  0.60944817927E+02  0.25210140015E+03  0.17200000000E+03 0. -1.
         -6    1    1    2    0  501 -0.17181192919E+03  0.27157063853E+02 -0.10253696007E+03  0.26524455378E+03  0.17200000000E+03 0.  1.
</event>
<event>
 4    1  0.3211568E-002  0.2211951E+03  0.7818608E-02  0.1132995E+00
         -2   -1    0    0    0  501 -0.00000000000E+00  0.00000000000E+00  0.25495439185E+03  0.25495439185E+03  0.00000000000E+00 0.  1.
          2   -1    0    0  502    0  0.00000000000E+00 -0.00000000000E+00 -0.20194877629E+03  0.20194877629E+03  0.00000000000E+00 0. -1.
          6    1    1    2  502    0 -0.12511360178E+03  0.60744258244E+02 -0.24442054499E+02  0.22254143949E+03  0.17200000000E+03 0. -1.
         -6    1    1    2    0  501  0.12511360178E+03 -0.60744258244E+02  0.77447670055E+02  0.23436172865E+03  0.17200000000E+03 0.  1.
</event>
<event>
 4    1  0.3211568E-002  0.4219820E+03  0.7818608E-02  0.1036423E+00
          2   -1    0    0  502    0  0.00000000000E+00  0.00000000000E+00  0.87667165622E+03  0.87667165622E+03  0.00000000000E+00 0. -1.
         -2   -1    0    0    0  501 -0.00000000000E+00 -0.00000000000E+00 -0.35946381674E+03  0.35946381674E+03  0.00000000000E+00 0.  1.
          6    1    1    2  502    0 -0.19898237985E+03  0.32998609153E+03 -0.14901094042E+03  0.44751879118E+03  0.17200000000E+03 0.  1.
         -6    1    1    2    0  501  0.19898237985E+03 -0.32998609153E+03  0.66621877990E+03  0.78861668178E+03  0.17200000000E+03 0. -1.
</event>
<event>
 4    1  0.3211568E-002  0.2606044E+03  0.7818608E-02  0.1106781E+00
          2   -1    0    0  502    0  0.00000000000E+00  0.00000000000E+00  0.15256302952E+04  0.15256302952E+04  0.00000000000E+00 0. -1.
         -2   -1    0    0    0  501 -0.00000000000E+00 -0.00000000000E+00 -0.95088684535E+02  0.95088684535E+02  0.00000000000E+00 0.  1.
          6    1    1    2  502    0  0.18915653696E+03  0.50502190731E+02  0.13062499116E+04  0.13319923041E+04  0.17200000000E+03 0. -1.
         -6    1    1    2    0  501 -0.18915653696E+03 -0.50502190731E+02  0.12429169907E+03  0.28872667560E+03  0.17200000000E+03 0.  1.
</event>
<event>
 4    1  0.3211568E-002  0.3077842E+03  0.7818608E-02  0.1081413E+00
         -1   -1    0    0    0  501 -0.00000000000E+00  0.00000000000E+00  0.11271973163E+03  0.11271973163E+03  0.00000000000E+00 0.  1.
          1   -1    0    0  502    0  0.00000000000E+00 -0.00000000000E+00 -0.85954755537E+03  0.85954755537E+03  0.00000000000E+00 0. -1.
          6    1    1    2  502    0  0.15510114744E+03  0.20270857088E+03 -0.44594590745E+03  0.54184765665E+03  0.17200000000E+03 0. -1.
         -6    1    1    2    0  501 -0.15510114744E+03 -0.20270857088E+03 -0.30088191628E+03  0.43041963035E+03  0.17200000000E+03 0.  1.
</event>
<event>
 4    1  0.3211568E-002  0.1820690E+03  0.7818608E-02  0.1165816E+00
         -2   -1    0    0    0  501 -0.00000000000E+00  0.00000000000E+00  0.19818808386E+02  0.19818808386E+02  0.00000000000E+00 0.  1.
          2   -1    0    0  502    0  0.00000000000E+00 -0.00000000000E+00 -0.17616789410E+04  0.17616789410E+04  0.00000000000E+00 0. -1.
          6    1    1    2  502    0 -0.59376432481E+02 -0.62908927370E+01 -0.10712181778E+04  0.10865806553E+04  0.17200000000E+03 0. -1.
         -6    1    1    2    0  501  0.59376432481E+02  0.62908927370E+01 -0.67064195476E+03  0.69491709401E+03  0.17200000000E+03 0.  1.
</event>
<event>
 4    1  0.3211568E-002  0.2457324E+03  0.7818608E-02  0.1116032E+00
          1   -1    0    0  502    0  0.00000000000E+00  0.00000000000E+00  0.24792657716E+04  0.24792657716E+04  0.00000000000E+00 0. -1.
         -1   -1    0    0    0  501 -0.00000000000E+00 -0.00000000000E+00 -0.25906565908E+02  0.25906565908E+02  0.00000000000E+00 0.  1.
          6    1    1    2  502    0  0.96060673117E+02 -0.14687662920E+03  0.15331451743E+04  0.15527132777E+04  0.17200000000E+03 0. -1.
         -6    1    1    2    0  501 -0.96060673117E+02  0.14687662920E+03  0.92021403138E+03  0.95245905984E+03  0.17200000000E+03 0.  1.
</event>
<event>
 4    1  0.3211568E-002  0.5595605E+03  0.7818608E-02  0.9993050E-01
          1   -1    0    0  502    0  0.00000000000E+00  0.00000000000E+00  0.79997874214E+03  0.79997874214E+03  0.00000000000E+00 0. -1.
         -1   -1    0    0    0  501 -0.00000000000E+00 -0.00000000000E+00 -0.64985228601E+03  0.64985228601E+03  0.00000000000E+00 0.  1.
          6    1    1    2  502    0 -0.43589073804E+03 -0.30581566717E+03  0.53222948354E+03  0.77225396143E+03  0.17200000000E+03 0. -1.
         -6    1    1    2    0  501  0.43589073804E+03  0.30581566717E+03 -0.38210302741E+03  0.67757706673E+03  0.17200000000E+03 0.  1.
</event>
<event>
 4    1  0.3211568E-002  0.2295800E+03  0.7818608E-02  0.1126936E+00
         -2   -1    0    0    0  501 -0.00000000000E+00  0.00000000000E+00  0.17932856792E+02  0.17932856792E+02  0.00000000000E+00 0.  1.
          2   -1    0    0  502    0  0.00000000000E+00 -0.00000000000E+00 -0.41966394376E+04  0.41966394376E+04  0.00000000000E+00 0. -1.
          6    1    1    2  502    0  0.15163919453E+03 -0.11337518037E+02 -0.32428820660E+04  0.32509984741E+04  0.17200000000E+03 0. -1.
         -6    1    1    2    0  501 -0.15163919453E+03  0.11337518037E+02 -0.93582451486E+03  0.96357382034E+03  0.17200000000E+03 0.  1.
</event>
<event>
 4    1  0.3211568E-002  0.2925010E+03  0.7818608E-02  0.1089051E+00
         -2   -1    0    0    0  501 -0.00000000000E+00  0.00000000000E+00  0.76709326584E+02  0.76709326584E+02  0.00000000000E+00 0.  1.
          2   -1    0    0  502    0  0.00000000000E+00 -0.00000000000E+00 -0.11336238624E+04  0.11336238624E+04  0.00000000000E+00 0. -1.
          6    1    1    2  502    0 -0.23634898631E+03  0.10581431212E+02 -0.45159719471E+03  0.53804910211E+03  0.17200000000E+03 0.  1.
         -6    1    1    2    0  501  0.23634898631E+03 -0.10581431212E+02 -0.60531734109E+03  0.67228408686E+03  0.17200000000E+03 0. -1.
</event>
<event>
 4    1  0.3211568E-002  0.3468424E+03  0.7818608E-02  0.1063919E+00
         -2   -1    0    0    0  501 -0.00000000000E+00  0.00000000000E+00  0.25810626416E+03  0.25810626416E+03  0.00000000000E+00 0.  1.
          2   -1    0    0  502    0  0.00000000000E+00 -0.00000000000E+00 -0.47478258182E+03  0.47478258182E+03  0.00000000000E+00 0. -1.
          6    1    1    2  502    0  0.52569034920E+02  0.29656726634E+03 -0.58742720943E+02  0.35178168537E+03  0.17200000000E+03 0. -1.
         -6    1    1    2    0  501 -0.52569034920E+02 -0.29656726634E+03 -0.15793359671E+03  0.38110716061E+03  0.17200000000E+03 0.  1.
</event>
<event>
 4    1  0.3211568E-002  0.2248764E+03  0.7818608E-02  0.1130299E+00
         -2   -1    0    0    0  501 -0.00000000000E+00  0.00000000000E+00  0.64066266022E+02  0.64066266022E+02  0.00000000000E+00 0.  1.
          2   -1    0    0  502    0  0.00000000000E+00 -0.00000000000E+00 -0.78952204758E+03  0.78952204758E+03  0.00000000000E+00 0. -1.
          6    1    1    2  502    0  0.14195661840E+03  0.28874411024E+02 -0.35606805216E+03  0.42113402960E+03  0.17200000000E+03 0.  1.
         -6    1    1    2    0  501 -0.14195661840E+03 -0.28874411024E+02 -0.36938772940E+03  0.43245428400E+03  0.17200000000E+03 0.  1.
</event>
<event>
 4    1  0.3211568E-002  0.2601145E+03  0.7818608E-02  0.1107074E+00
          1   -1    0    0  502    0  0.00000000000E+00  0.00000000000E+00  0.47319423557E+02  0.47319423557E+02  0.00000000000E+00 0. -1.
         -1   -1    0    0    0  501 -0.00000000000E+00 -0.00000000000E+00 -0.17835869570E+04  0.17835869570E+04  0.00000000000E+00 0.  1.
          6    1    1    2  502    0 -0.15452944085E+03 -0.11914787642E+03 -0.12758243546E+04  0.13020704084E+04  0.17200000000E+03 0.  1.
         -6    1    1    2    0  501  0.15452944085E+03  0.11914787642E+03 -0.46044317884E+03  0.52883597219E+03  0.17200000000E+03 0.  1.
</event>
<event>
 4    1  0.3211568E-002  0.1873048E+03  0.7818608E-02  0.1160915E+00
          2   -1    0    0  502    0  0.00000000000E+00  0.00000000000E+00  0.46421232609E+02  0.46421232609E+02  0.00000000000E+00 0. -1.
         -2   -1    0    0    0  501 -0.00000000000E+00 -0.00000000000E+00 -0.21000419172E+04  0.21000419172E+04  0.00000000000E+00 0.  1.
          6    1    1    2  502    0 -0.72527909987E+02 -0.15453103466E+02 -0.16814213184E+03  0.25170393846E+03  0.17200000000E+03 0. -1.
         -6    1    1    2    0  501  0.72527909987E+02  0.15453103466E+02 -0.18854785527E+04  0.18947592114E+04  0.17200000000E+03 0.  1.
</event>
<event>
 4    1  0.3211568E-002  0.1950308E+03  0.7818608E-02  0.1154001E+00
         -2   -1    0    0    0  501 -0.00000000000E+00  0.00000000000E+00  0.21690659072E+02  0.21690659072E+02  0.00000000000E+00 0.  1.
          2   -1    0    0  502    0  0.00000000000E+00 -0.00000000000E+00 -0.20378395847E+04  0.20378395847E+04  0.00000000000E+00 0. -1.
          6    1    1    2  502    0  0.45948652541E+02 -0.79635121572E+02 -0.13926531333E+04  0.14062431444E+04  0.17200000000E+03 0. -1.
         -6    1    1    2    0  501 -0.45948652541E+02  0.79635121572E+02 -0.62349579230E+03  0.65328709943E+03  0.17200000000E+03 0.  1.
</event>
<event>
 4    1  0.3211568E-002  0.2776009E+03  0.7818608E-02  0.1097007E+00
          2   -1    0    0  502    0  0.00000000000E+00  0.00000000000E+00  0.24850465377E+04  0.24850465377E+04  0.00000000000E+00 0. -1.
         -2   -1    0    0    0  501 -0.00000000000E+00 -0.00000000000E+00 -0.31072182902E+02  0.31072182902E+02  0.00000000000E+00 0.  1.
          6    1    1    2  502    0 -0.21405820097E+03  0.40710399333E+02  0.12830922227E+04  0.13127786950E+04  0.17200000000E+03 0. -1.
         -6    1    1    2    0  501  0.21405820097E+03 -0.40710399333E+02  0.11708821321E+04  0.12033400256E+04  0.17200000000E+03 0.  1.
</event>
<event>
 4    1  0.3211568E-002  0.1774683E+03  0.7818608E-02  0.1170276E+00
          2   -1    0    0  502    0  0.00000000000E+00  0.00000000000E+00  0.13714296887E+04  0.13714296887E+04  0.00000000000E+00 0. -1.
         -2   -1    0    0    0  501 -0.00000000000E+00 -0.00000000000E+00 -0.24885436239E+02  0.24885436239E+02  0.00000000000E+00 0.  1.
          6    1    1    2  502    0 -0.25930511490E+02  0.35193705752E+02  0.86721421166E+03  0.88518669062E+03  0.17200000000E+03 0. -1.
         -6    1    1    2    0  501  0.25930511490E+02 -0.35193705752E+02  0.47933004077E+03  0.51112843428E+03  0.17200000000E+03 0.  1.
</event>
<event>
 4    1  0.3211568E-002  0.1729754E+03  0.7818608E-02  0.1174780E+00
          2   -1    0    0  502    0  0.00000000000E+00  0.00000000000E+00  0.84989562683E+03  0.84989562683E+03  0.00000000000E+00 0. -1.
         -2   -1    0    0    0  501 -0.00000000000E+00 -0.00000000000E+00 -0.36563599608E+02  0.36563599608E+02  0.00000000000E+00 0.  1.
          6    1    1    2  502    0  0.87982445120E+01 -0.16095967013E+02  0.32122502501E+03  0.36483695805E+03  0.17200000000E+03 0.  1.
         -6    1    1    2    0  501 -0.87982445120E+01  0.16095967013E+02  0.49210700221E+03  0.52162226840E+03  0.17200000000E+03 0. -1.
</event>
<event>
 4    1  0.3211568E-002  0.2410408E+03  0.7818608E-02  0.1119101E+00
         -1   -1    0    0    0  501 -0.00000000000E+00  0.00000000000E+00  0.15325479332E+03  0.15325479332E+03  0.00000000000E+00 0.  1.
          1   -1    0    0  502    0  0.00000000000E+00 -0.00000000000E+00 -0.42896724272E+03  0.42896724272E+03  0.00000000000E+00 0. -1.
          6    1    1    2  502    0  0.14424362894E+03 -0.87809114874E+02 -0.23710013631E+03  0.33810817763E+03  0.17200000000E+03 0. -1.
         -6    1    1    2    0  501 -0.14424362894E+03  0.87809114874E+02 -0.38612313080E+02  0.24411385841E+03  0.17200000000E+03 0.  1.
</event>
<event>
 4    1  0.3211568E-002  0.1733944E+03  0.7818608E-02  0.1174354E+00
         -2   -1    0    0    0  501 -0.00000000000E+00  0.00000000000E+00  0.23658499612E+02  0.23658499612E+02  0.00000000000E+00 0.  1.
          2   -1    0    0  502    0  0.00000000000E+00 -0.00000000000E+00 -0.12958340748E+04  0.12958340748E+04  0.00000000000E+00 0. -1.
          6    1    1    2  502    0  0.16555687607E+02 -0.14406044031E+02 -0.72775626310E+03  0.74812753149E+03  0.17200000000E+03 0. -1.
         -6    1    1    2    0  501 -0.16555687607E+02  0.14406044031E+02 -0.54441931211E+03  0.57136504294E+03  0.17200000000E+03 0. -1.
</event>
<event>
 4    1  0.3211568E-002  0.2344066E+03  0.7818608E-02  0.1123576E+00
         -2   -1    0    0    0  501 -0.00000000000E+00  0.00000000000E+00  0.49981545362E+02  0.49981545362E+02  0.00000000000E+00 0.  1.
          2   -1    0    0  502    0  0.00000000000E+00 -0.00000000000E+00 -0.27043779266E+04  0.27043779266E+04  0.00000000000E+00 0. -1.
          6    1    1    2  502    0  0.50966852570E+02  0.15088019742E+03 -0.23881612932E+04  0.23996376427E+04  0.17200000000E+03 0. -1.
         -6    1    1    2    0  501 -0.50966852570E+02 -0.15088019742E+03 -0.26623508803E+03  0.35472182923E+03  0.17200000000E+03 0.  1.
</event>
<event>
 4    1  0.3211568E-002  0.3915545E+03  0.7818608E-02  0.1046744E+00
         -2   -1    0    0    0  501 -0.00000000000E+00  0.00000000000E+00  0.11691906947E+03  0.11691906947E+03  0.00000000000E+00 0.  1.
          2   -1    0    0  502    0  0.00000000000E+00 -0.00000000000E+00 -0.14140737468E+04  0.14140737468E+04  0.00000000000E+00 0. -1.
          6    1    1    2  502    0  0.14061301273E+03 -0.32242658930E+03 -0.44219752607E+03  0.59063827923E+03  0.17200000000E+03 0. -1.
         -6    1    1    2    0  501 -0.14061301273E+03  0.32242658930E+03 -0.85495715128E+03  0.94035453706E+03  0.17200000000E+03 0.  1.
</event>
<event>
 4    1  0.3211568E-002  0.2188876E+03  0.7818608E-02  0.1134715E+00
          2   -1    0    0  502    0  0.00000000000E+00  0.00000000000E+00  0.10024720461E+04  0.10024720461E+04  0.00000000000E+00 0. -1.
         -2   -1    0    0    0  501 -0.00000000000E+00 -0.00000000000E+00 -0.10992512222E+03  0.10992512222E+03  0.00000000000E+00 0.  1.
          6    1    1    2  502    0 -0.31668572793E+02  0.13162405517E+03  0.86442841898E+03  0.89171087351E+03  0.17200000000E+03 0. -1.
         -6    1    1    2    0  501  0.31668572793E+02 -0.13162405517E+03  0.28118504920E+02  0.22068629482E+03  0.17200000000E+03 0.  1.
</event>
<event>
 4    1  0.3211568E-002  0.1941387E+03  0.7818608E-02  0.1154781E+00
         -2   -1    0    0    0  501 -0.00000000000E+00  0.00000000000E+00  0.80005619058E+02  0.80005619058E+02  0.00000000000E+00 0.  1.
          2   -1    0    0  502    0  0.00000000000E+00 -0.00000000000E+00 -0.70193915594E+03  0.70193915594E+03  0.00000000000E+00 0. -1.
          6    1    1    2  502    0 -0.85269797975E+02  0.28894668207E+02 -0.53517965867E+03  0.56930405528E+03  0.17200000000E+03 0. -1.
         -6    1    1    2    0  501  0.85269797975E+02 -0.28894668207E+02 -0.86753878203E+02  0.21264071971E+03  0.17200000000E+03 0.  1.
</event>
<event>
 4    1  0.3211568E-002  0.3534013E+03  0.7818608E-02  0.1061228E+00
          2   -1    0    0  502    0  0.00000000000E+00  0.00000000000E+00  0.16965139365E+03  0.16965139365E+03  0.00000000000E+00 0. -1.
         -2   -1    0    0    0  501 -0.00000000000E+00 -0.00000000000E+00 -0.11618055978E+04  0.11618055978E+04  0.00000000000E+00 0.  1.
          6    1    1    2  502    0  0.18803949196E+03  0.24484619169E+03 -0.93129422504E+02  0.36546627403E+03  0.17200000000E+03 0. -1.
         -6    1    1    2    0  501 -0.18803949196E+03 -0.24484619169E+03 -0.89902478161E+03  0.96599071738E+03  0.17200000000E+03 0.  1.
</event>
<event>
 4    1  0.3211568E-002  0.1775889E+03  0.7818608E-02  0.1170157E+00
         -2   -1    0    0    0  501 -0.00000000000E+00  0.00000000000E+00  0.49274900479E+02  0.49274900479E+02  0.00000000000E+00 0.  1.
          2   -1    0    0  502    0  0.00000000000E+00 -0.00000000000E+00 -0.82476588106E+03  0.82476588106E+03  0.00000000000E+00 0. -1.
          6    1    1    2  502    0  0.22096095674E+02  0.38283037121E+02 -0.59457005257E+03  0.62052508071E+03  0.17200000000E+03 0. -1.
         -6    1    1    2    0  501 -0.22096095674E+02 -0.38283037121E+02 -0.18092092801E+03  0.25351570083E+03  0.17200000000E+03 0.  1.
</event>
<event>
 4    1  0.3211568E-002  0.2145256E+03  0.7818608E-02  0.1138032E+00
         -1   -1    0    0    0  501 -0.00000000000E+00  0.00000000000E+00  0.39381318096E+02  0.39381318096E+02  0.00000000000E+00 0.  1.
          1   -1    0    0  502    0  0.00000000000E+00 -0.00000000000E+00 -0.14345395096E+04  0.14345395096E+04  0.00000000000E+00 0. -1.
          6    1    1    2  502    0 -0.56266287337E+02  0.11520124160E+03 -0.10148826393E+04  0.10373080510E+04  0.17200000000E+03 0. -1.
         -6    1    1    2    0  501  0.56266287337E+02 -0.11520124160E+03 -0.38027555224E+03  0.43661277671E+03  0.17200000000E+03 0.  1.
</event>
<event>
 4    1  0.3211568E-002  0.1787861E+03  0.7818608E-02  0.1168983E+00
          2   -1    0    0  502    0  0.00000000000E+00  0.00000000000E+00  0.64105626978E+03  0.64105626978E+03  0.00000000000E+00 0. -1.
         -2   -1    0    0    0  501 -0.00000000000E+00 -0.00000000000E+00 -0.68631136814E+02  0.68631136814E+02  0.00000000000E+00 0.  1.
          6    1    1    2  502    0  0.26683866874E+02 -0.40846402001E+02  0.47177782844E+03  0.50451836113E+03  0.17200000000E+03 0. -1.
         -6    1    1    2    0  501 -0.26683866874E+02  0.40846402001E+02  0.10064730452E+03  0.20516904546E+03  0.17200000000E+03 0.  1.
</event>
<event>
 4    1  0.3211568E-002  0.3268402E+03  0.7818608E-02  0.1072544E+00
         -2   -1    0    0    0  501 -0.00000000000E+00  0.00000000000E+00  0.76605013445E+02  0.76605013445E+02  0.00000000000E+00 0.  1.
          2   -1    0    0  502    0  0.00000000000E+00 -0.00000000000E+00 -0.14719695267E+04  0.14719695267E+04  0.00000000000E+00 0. -1.
          6    1    1    2  502    0  0.21349558614E+03  0.17793307350E+03 -0.87533018081E+03  0.93435938984E+03  0.17200000000E+03 0. -1.
         -6    1    1    2    0  501 -0.21349558614E+03 -0.17793307350E+03 -0.52003433249E+03  0.61421515035E+03  0.17200000000E+03 0.  1.
</event>
<event>
 4    1  0.3211568E-002  0.1829481E+03  0.7818608E-02  0.1164980E+00
         -4   -1    0    0    0  501 -0.00000000000E+00  0.00000000000E+00  0.52976767938E+03  0.52976767938E+03  0.00000000000E+00 0.  1.
          4   -1    0    0  502    0  0.00000000000E+00 -0.00000000000E+00 -0.65403301522E+02  0.65403301522E+02  0.00000000000E+00 0. -1.
          6    1    1    2  502    0 -0.42997054384E+02 -0.45136075626E+02  0.28706570819E+03  0.34040671677E+03  0.17200000000E+03 0. -1.
         -6    1    1    2    0  501  0.42997054384E+02  0.45136075626E+02  0.17729866967E+03  0.25476426412E+03  0.17200000000E+03 0.  1.
</event>
<event>
 4    1  0.3211568E-002  0.2665374E+03  0.7818608E-02  0.1103278E+00
          1   -1    0    0  502    0  0.00000000000E+00  0.00000000000E+00  0.43048921873E+03  0.43048921873E+03  0.00000000000E+00 0. -1.
         -1   -1    0    0    0  501 -0.00000000000E+00 -0.00000000000E+00 -0.33384399730E+03  0.33384399730E+03  0.00000000000E+00 0.  1.
          6    1    1    2  502    0 -0.59659737176E+02 -0.19467636005E+03  0.32008513012E+03  0.41652930260E+03  0.17200000000E+03 0. -1.
         -6    1    1    2    0  501  0.59659737176E+02  0.19467636005E+03 -0.22343990870E+03  0.34780391343E+03  0.17200000000E+03 0.  1.
</event>
<event>
 4    1  0.3211568E-002  0.1960332E+03  0.7818608E-02  0.1153130E+00
          1   -1    0    0  502    0  0.00000000000E+00  0.00000000000E+00  0.11318704739E+04  0.11318704739E+04  0.00000000000E+00 0. -1.
         -1   -1    0    0    0  501 -0.00000000000E+00 -0.00000000000E+00 -0.55476096523E+02  0.55476096523E+02  0.00000000000E+00 0.  1.
          6    1    1    2  502    0  0.51713864511E+02 -0.78553808208E+02  0.90799060873E+03  0.92891117450E+03  0.17200000000E+03 0. -1.
         -6    1    1    2    0  501 -0.51713864511E+02  0.78553808208E+02  0.16840376862E+03  0.25843539589E+03  0.17200000000E+03 0.  1.
</event>
<event>
 4    1  0.3211568E-002  0.1743790E+03  0.7818608E-02  0.1173357E+00
         -2   -1    0    0    0  501 -0.00000000000E+00  0.00000000000E+00  0.88875567504E+02  0.88875567504E+02  0.00000000000E+00 0.  1.
          2   -1    0    0  502    0  0.00000000000E+00 -0.00000000000E+00 -0.36877989713E+03  0.36877989713E+03  0.00000000000E+00 0. -1.
          6    1    1    2  502    0  0.24822745881E+02  0.14417472107E+02 -0.78451762096E+02  0.19121378400E+03  0.17200000000E+03 0.  1.
         -6    1    1    2    0  501 -0.24822745881E+02 -0.14417472107E+02 -0.20145256753E+03  0.26644168064E+03  0.17200000000E+03 0. -1.
</event>
<event>
 4    1  0.3211568E-002  0.3428635E+03  0.7818608E-02  0.1065583E+00
          2   -1    0    0  502    0  0.00000000000E+00  0.00000000000E+00  0.44079209289E+03  0.44079209289E+03  0.00000000000E+00 0. -1.
         -2   -1    0    0    0  501 -0.00000000000E+00 -0.00000000000E+00 -0.31646306853E+03  0.31646306853E+03  0.00000000000E+00 0.  1.
          6    1    1    2  502    0 -0.21397689812E+03  0.20539044365E+03 -0.87991576979E+02  0.35397438451E+03  0.17200000000E+03 0.  1.
         -6    1    1    2    0  501  0.21397689812E+03 -0.20539044365E+03  0.21232060134E+03  0.40328077691E+03  0.17200000000E+03 0.  1.
</event>
<event>
 4    1  0.3211568E-002  0.2029867E+03  0.7818608E-02  0.1147243E+00
          2   -1    0    0  502    0  0.00000000000E+00  0.00000000000E+00  0.73495973183E+03  0.73495973183E+03  0.00000000000E+00 0. -1.
         -2   -1    0    0    0  501 -0.00000000000E+00 -0.00000000000E+00 -0.87579789381E+02  0.87579789381E+02  0.00000000000E+00 0.  1.
          6    1    1    2  502    0  0.84702110019E+02 -0.66672009027E+02  0.57040747923E+03  0.60544883895E+03  0.17200000000E+03 0. -1.
         -6    1    1    2    0  501 -0.84702110019E+02  0.66672009027E+02  0.76972463220E+02  0.21709068226E+03  0.17200000000E+03 0.  1.
</event>
<event>
 4    1  0.3211568E-002  0.2379397E+03  0.7818608E-02  0.1121173E+00
          2   -1    0    0  502    0  0.00000000000E+00  0.00000000000E+00  0.11449096184E+04  0.11449096184E+04  0.00000000000E+00 0. -1.
         -2   -1    0    0    0  501 -0.00000000000E+00 -0.00000000000E+00 -0.57689867247E+02  0.57689867247E+02  0.00000000000E+00 0.  1.
          6    1    1    2  502    0  0.75218006191E+01  0.16423985756E+03  0.31635551382E+03  0.39584860669E+03  0.17200000000E+03 0. -1.
         -6    1    1    2    0  501 -0.75218006191E+01 -0.16423985756E+03  0.77086423730E+03  0.80675087892E+03  0.17200000000E+03 0.  1.
</event>
<event>
 4    1  0.3211568E-002  0.2178403E+03  0.7818608E-02  0.1135504E+00
          4   -1    0    0  502    0  0.00000000000E+00  0.00000000000E+00  0.10998077298E+03  0.10998077298E+03  0.00000000000E+00 0. -1.
         -4   -1    0    0    0  501 -0.00000000000E+00 -0.00000000000E+00 -0.61715444552E+03  0.61715444552E+03  0.00000000000E+00 0.  1.
          6    1    1    2  502    0  0.74626697779E+02 -0.11091097224E+03 -0.54168285237E+02  0.22447403170E+03  0.17200000000E+03 0. -1.
         -6    1    1    2    0  501 -0.74626697779E+02  0.11091097224E+03 -0.45300538730E+03  0.50266118679E+03  0.17200000000E+03 0.  1.
</event>
<event>
 4    1  0.3211568E-002  0.2881790E+03  0.7818608E-02  0.1091304E+00
         -1   -1    0    0    0  501 -0.00000000000E+00  0.00000000000E+00  0.10993987860E+04  0.10993987860E+04  0.00000000000E+00 0.  1.
          1   -1    0    0  502    0  0.00000000000E+00 -0.00000000000E+00 -0.14477338793E+03  0.14477338793E+03  0.00000000000E+00 0. -1.
          6    1    1    2  502    0 -0.14074778452E+02 -0.23079221727E+03  0.47115070255E+02  0.29200509719E+03  0.17200000000E+03 0. -1.
         -6    1    1    2    0  501  0.14074778452E+02  0.23079221727E+03  0.90751032779E+03  0.95216707672E+03  0.17200000000E+03 0.  1.
</event>
<event>
 4    1  0.3211568E-002  0.1750520E+03  0.7818608E-02  0.1172679E+00
         -3   -1    0    0    0  501 -0.00000000000E+00  0.00000000000E+00  0.25678690715E+03  0.25678690715E+03  0.00000000000E+00 0.  1.
          3   -1    0    0  502    0  0.00000000000E+00 -0.00000000000E+00 -0.11936387748E+03  0.11936387748E+03  0.00000000000E+00 0. -1.
          6    1    1    2  502    0 -0.12616654355E+02  0.30000602660E+02  0.65698836214E+02  0.18697473949E+03  0.17200000000E+03 0. -1.
         -6    1    1    2    0  501  0.12616654355E+02 -0.30000602660E+02  0.71724193461E+02  0.18917604514E+03  0.17200000000E+03 0. -1.
</event>
<event>
 4    1  0.3211568E-002  0.3166786E+03  0.7818608E-02  0.1077188E+00
          2   -1    0    0  502    0  0.00000000000E+00  0.00000000000E+00  0.18626253209E+04  0.18626253209E+04  0.00000000000E+00 0. -1.
         -2   -1    0    0    0  501 -0.00000000000E+00 -0.00000000000E+00 -0.60264940475E+02  0.60264940475E+02  0.00000000000E+00 0.  1.
          6    1    1    2  502    0 -0.85727436325E+02  0.25169847395E+03  0.12150851964E+04  0.12556740618E+04  0.17200000000E+03 0.  1.
         -6    1    1    2    0  501  0.85727436325E+02 -0.25169847395E+03  0.58727518409E+03  0.66721619957E+03  0.17200000000E+03 0.  1.
</event>
<event>
 4    1  0.3211568E-002  0.3836868E+03  0.7818608E-02  0.1049579E+00
         -2   -1    0    0    0  501 -0.00000000000E+00  0.00000000000E+00  0.16307358664E+03  0.16307358664E+03  0.00000000000E+00 0.  1.
          2   -1    0    0  502    0  0.00000000000E+00 -0.00000000000E+00 -0.90277844843E+03  0.90277844843E+03  0.00000000000E+00 0. -1.
          6    1    1    2  502    0  0.10204064887E+03  0.32744350288E+03 -0.36715275658E+03  0.53105243457E+03  0.17200000000E+03 0. -1.
         -6    1    1    2    0  501 -0.10204064887E+03 -0.32744350288E+03 -0.37255210521E+03  0.53479960050E+03  0.17200000000E+03 0.  1.
</event>
<event>
 4    1  0.3211568E-002  0.2327583E+03  0.7818608E-02  0.1124713E+00
          2   -1    0    0  502    0  0.00000000000E+00  0.00000000000E+00  0.23662533826E+04  0.23662533826E+04  0.00000000000E+00 0. -1.
         -2   -1    0    0    0  501 -0.00000000000E+00 -0.00000000000E+00 -0.24039866256E+02  0.24039866256E+02  0.00000000000E+00 0.  1.
          6    1    1    2  502    0  0.11678261078E+03 -0.10466243812E+03  0.14318720169E+04  0.14506667008E+04  0.17200000000E+03 0. -1.
         -6    1    1    2    0  501 -0.11678261078E+03  0.10466243812E+03  0.91034149950E+03  0.93962654807E+03  0.17200000000E+03 0.  1.
</event>
<event>
 4    1  0.3211568E-002  0.2448307E+03  0.7818608E-02  0.1116616E+00
          2   -1    0    0  502    0  0.00000000000E+00  0.00000000000E+00  0.21160090980E+03  0.21160090980E+03  0.00000000000E+00 0. -1.
         -2   -1    0    0    0  501 -0.00000000000E+00 -0.00000000000E+00 -0.34771644442E+03  0.34771644442E+03  0.00000000000E+00 0.  1.
          6    1    1    2  502    0 -0.26146966967E+02  0.17226266740E+03  0.52330703021E+02  0.25036092535E+03  0.17200000000E+03 0. -1.
         -6    1    1    2    0  501  0.26146966967E+02 -0.17226266740E+03 -0.18844623764E+03  0.30895642887E+03  0.17200000000E+03 0.  1.
</event>
<event>
 4    1  0.3211568E-002  0.1744188E+03  0.7818608E-02  0.1173317E+00
          2   -1    0    0  502    0  0.00000000000E+00  0.00000000000E+00  0.42074631540E+04  0.42074631540E+04  0.00000000000E+00 0. -1.
         -2   -1    0    0    0  501 -0.00000000000E+00 -0.00000000000E+00 -0.72523809273E+01  0.72523809273E+01  0.00000000000E+00 0.  1.
          6    1    1    2  502    0 -0.22520572721E+02  0.18186074444E+02  0.22159540482E+04  0.22228077409E+04  0.17200000000E+03 0. -1.
         -6    1    1    2    0  501  0.22520572721E+02 -0.18186074444E+02  0.19842567249E+04  0.19919077940E+04  0.17200000000E+03 0.  1.
</event>
<event>
 4    1  0.3211568E-002  0.1816556E+03  0.7818608E-02  0.1166210E+00
         -2   -1    0    0    0  501 -0.00000000000E+00  0.00000000000E+00  0.40291771733E+02  0.40291771733E+02  0.00000000000E+00 0.  1.
          2   -1    0    0  502    0  0.00000000000E+00 -0.00000000000E+00 -0.95583242470E+03  0.95583242470E+03  0.00000000000E+00 0. -1.
          6    1    1    2  502    0  0.50660408326E+02  0.29124955632E+02 -0.26932046114E+03  0.32485727759E+03  0.17200000000E+03 0.  1.
         -6    1    1    2    0  501 -0.50660408326E+02 -0.29124955632E+02 -0.64622019182E+03  0.67126691884E+03  0.17200000000E+03 0.  1.
</event>
<event>
 4    1  0.3211568E-002  0.3881719E+03  0.7818608E-02  0.1047954E+00
         -2   -1    0    0    0  501 -0.00000000000E+00  0.00000000000E+00  0.11438891671E+03  0.11438891671E+03  0.00000000000E+00 0.  1.
          2   -1    0    0  502    0  0.00000000000E+00 -0.00000000000E+00 -0.13790822190E+04  0.13790822190E+04  0.00000000000E+00 0. -1.
          6    1    1    2  502    0  0.20566110794E+03  0.28070797448E+03 -0.47421442674E+03  0.61282687668E+03  0.17200000000E+03 0. -1.
         -6    1    1    2    0  501 -0.20566110794E+03 -0.28070797448E+03 -0.79047887550E+03  0.88064425898E+03  0.17200000000E+03 0.  1.
</event>
<event>
 4    1  0.3211568E-002  0.2106183E+03  0.7818608E-02  0.1141077E+00
         -2   -1    0    0    0  501 -0.00000000000E+00  0.00000000000E+00  0.56142669124E+02  0.56142669124E+02  0.00000000000E+00 0.  1.
          2   -1    0    0  502    0  0.00000000000E+00 -0.00000000000E+00 -0.79028532962E+03  0.79028532962E+03  0.00000000000E+00 0. -1.
          6    1    1    2  502    0 -0.69536627831E+02 -0.99703126403E+02 -0.37298796682E+03  0.42834574752E+03  0.17200000000E+03 0. -1.
         -6    1    1    2    0  501  0.69536627831E+02  0.99703126403E+02 -0.36115469368E+03  0.41808225123E+03  0.17200000000E+03 0. -1.
</event>
<event>
 4    1  0.3211568E-002  0.3546120E+03  0.7818608E-02  0.1060738E+00
         -1   -1    0    0    0  501 -0.00000000000E+00  0.00000000000E+00  0.13781916369E+03  0.13781916369E+03  0.00000000000E+00 0.  1.
          1   -1    0    0  502    0  0.00000000000E+00 -0.00000000000E+00 -0.23341486568E+04  0.23341486568E+04  0.00000000000E+00 0. -1.
          6    1    1    2  502    0  0.60795699852E+02  0.30408807924E+03 -0.20627844459E+04  0.20930430830E+04  0.17200000000E+03 0. -1.
         -6    1    1    2    0  501 -0.60795699852E+02 -0.30408807924E+03 -0.13354504721E+03  0.37892473750E+03  0.17200000000E+03 0.  1.
</event>
<event>
 4    1  0.3211568E-002  0.1773231E+03  0.7818608E-02  0.1170419E+00
          2   -1    0    0  502    0  0.00000000000E+00  0.00000000000E+00  0.16266580803E+04  0.16266580803E+04  0.00000000000E+00 0. -1.
         -2   -1    0    0    0  501 -0.00000000000E+00 -0.00000000000E+00 -0.22698365022E+02  0.22698365022E+02  0.00000000000E+00 0.  1.
          6    1    1    2  502    0 -0.29868103534E+00  0.43120859129E+02  0.48430049343E+03  0.51574263508E+03  0.17200000000E+03 0.  1.
         -6    1    1    2    0  501  0.29868103534E+00 -0.43120859129E+02  0.11196592218E+04  0.11336138102E+04  0.17200000000E+03 0. -1.
</event>
<event>
 4    1  0.3211568E-002  0.2235733E+03  0.7818608E-02  0.1131247E+00
         -1   -1    0    0    0  501 -0.00000000000E+00  0.00000000000E+00  0.37106937981E+03  0.37106937981E+03  0.00000000000E+00 0.  1.
          1   -1    0    0  502    0  0.00000000000E+00 -0.00000000000E+00 -0.26217657878E+03  0.26217657878E+03  0.00000000000E+00 0. -1.
          6    1    1    2  502    0  0.47473977236E+02  0.13471178057E+03 -0.16632942523E+03  0.27865842897E+03  0.17200000000E+03 0. -1.
         -6    1    1    2    0  501 -0.47473977236E+02 -0.13471178057E+03  0.27522222625E+03  0.35458752962E+03  0.17200000000E+03 0.  1.
</event>
<event>
 4    1  0.3211568E-002  0.2006900E+03  0.7818608E-02  0.1149158E+00
          2   -1    0    0  502    0  0.00000000000E+00  0.00000000000E+00  0.83890527727E+03  0.83890527727E+03  0.00000000000E+00 0. -1.
         -2   -1    0    0    0  501 -0.00000000000E+00 -0.00000000000E+00 -0.16096945150E+03  0.16096945150E+03  0.00000000000E+00 0.  1.
          6    1    1    2  502    0  0.94120326675E+02 -0.42823169943E+02  0.75776508150E+03  0.78389053989E+03  0.17200000000E+03 0. -1.
         -6    1    1    2    0  501 -0.94120326675E+02  0.42823169943E+02 -0.79829255735E+02  0.21598418889E+03  0.17200000000E+03 0.  1.
</event>
<event>
 4    1  0.3211568E-002  0.3533713E+03  0.7818608E-02  0.1061240E+00
          2   -1    0    0  502    0  0.00000000000E+00  0.00000000000E+00  0.29660719183E+04  0.29660719183E+04  0.00000000000E+00 0. -1.
         -2   -1    0    0    0  501 -0.00000000000E+00 -0.00000000000E+00 -0.68130533366E+02  0.68130533366E+02  0.00000000000E+00 0.  1.
          6    1    1    2  502    0 -0.29339648893E+03  0.95946770786E+02  0.23867187413E+04  0.24127365444E+04  0.17200000000E+03 0. -1.
         -6    1    1    2    0  501  0.29339648893E+03 -0.95946770786E+02  0.51122264359E+03  0.62146590723E+03  0.17200000000E+03 0.  1.
</event>
<event>
 4    1  0.3211568E-002  0.1965550E+03  0.7818608E-02  0.1152679E+00
          3   -1    0    0  502    0  0.00000000000E+00  0.00000000000E+00  0.11432798957E+03  0.11432798957E+03  0.00000000000E+00 0. -1.
         -3   -1    0    0    0  501 -0.00000000000E+00 -0.00000000000E+00 -0.68611810412E+03  0.68611810412E+03  0.00000000000E+00 0.  1.
          6    1    1    2  502    0 -0.35252681533E+02 -0.88357873794E+02 -0.78336304840E+00  0.19655655439E+03  0.17200000000E+03 0. -1.
         -6    1    1    2    0  501  0.35252681533E+02  0.88357873794E+02 -0.57100675150E+03  0.60388953930E+03  0.17200000000E+03 0.  1.
</event>
<event>
 4    1  0.3211568E-002  0.2205876E+03  0.7818608E-02  0.1133446E+00
          1   -1    0    0  502    0  0.00000000000E+00  0.00000000000E+00  0.32451898095E+02  0.32451898095E+02  0.00000000000E+00 0. -1.
         -1   -1    0    0    0  501 -0.00000000000E+00 -0.00000000000E+00 -0.15429209775E+04  0.15429209775E+04  0.00000000000E+00 0.  1.
          6    1    1    2  502    0  0.93688574210E+02  0.10147572530E+03 -0.62296659342E+03  0.66086779939E+03  0.17200000000E+03 0.  1.
         -6    1    1    2    0  501 -0.93688574210E+02 -0.10147572530E+03 -0.88750248599E+03  0.91450507620E+03  0.17200000000E+03 0.  1.
</event>
<event>
 4    1  0.3211568E-002  0.2182199E+03  0.7818608E-02  0.1135217E+00
         -2   -1    0    0    0  501 -0.00000000000E+00  0.00000000000E+00  0.16832547106E+02  0.16832547106E+02  0.00000000000E+00 0.  1.
          2   -1    0    0  502    0  0.00000000000E+00 -0.00000000000E+00 -0.30004008517E+04  0.30004008517E+04  0.00000000000E+00 0. -1.
          6    1    1    2  502    0  0.13374150639E+03 -0.12212300560E+02 -0.18523183380E+04  0.18651281875E+04  0.17200000000E+03 0. -1.
         -6    1    1    2    0  501 -0.13374150639E+03  0.12212300560E+02 -0.11312499667E+04  0.11521052113E+04  0.17200000000E+03 0.  1.
</event>
<event>
 4    1  0.3211568E-002  0.1753504E+03  0.7818608E-02  0.1172380E+00
         -1   -1    0    0    0  501 -0.00000000000E+00  0.00000000000E+00  0.43912067835E+02  0.43912067835E+02  0.00000000000E+00 0.  1.
          1   -1    0    0  502    0  0.00000000000E+00 -0.00000000000E+00 -0.14398648695E+04  0.14398648695E+04  0.00000000000E+00 0. -1.
          6    1    1    2  502    0  0.15953701870E+02  0.30153784479E+02 -0.12297069709E+04  0.12421461289E+04  0.17200000000E+03 0. -1.
         -6    1    1    2    0  501 -0.15953701870E+02 -0.30153784479E+02 -0.16624583074E+03  0.24163080838E+03  0.17200000000E+03 0.  1.
</event>
<event>
 4    1  0.3211568E-002  0.2847217E+03  0.7818608E-02  0.1093138E+00
          1   -1    0    0  502    0  0.00000000000E+00  0.00000000000E+00  0.11817044791E+04  0.11817044791E+04  0.00000000000E+00 0. -1.
         -1   -1    0    0    0  501 -0.00000000000E+00 -0.00000000000E+00 -0.22936988678E+03  0.22936988678E+03  0.00000000000E+00 0.  1.
          6    1    1    2  502    0  0.66064666245E+02 -0.21706663480E+03  0.10668473462E+04  0.11041873592E+04  0.17200000000E+03 0. -1.
         -6    1    1    2    0  501 -0.66064666245E+02  0.21706663480E+03 -0.11451275390E+03  0.30688700669E+03  0.17200000000E+03 0.  1.
</event>
<event>
 4    1  0.3211568E-002  0.2146489E+03  0.7818608E-02  0.1137937E+00
          1   -1    0    0  502    0  0.00000000000E+00  0.00000000000E+00  0.89275267329E+03  0.89275267329E+03  0.00000000000E+00 0. -1.
         -1   -1    0    0    0  501 -0.00000000000E+00 -0.00000000000E+00 -0.52141855382E+02  0.52141855382E+02  0.00000000000E+00 0.  1.
          6    1    1    2  502    0  0.10105212523E+03  0.79237797774E+02  0.46806104702E+03  0.51493232987E+03  0.17200000000E+03 0.  1.
         -6    1    1    2    0  501 -0.10105212523E+03 -0.79237797774E+02  0.37254977088E+03  0.42996219880E+03  0.17200000000E+03 0.  1.
</event>
<event>
 4    1  0.3211568E-002  0.2638894E+03  0.7818608E-02  0.1104829E+00
          2   -1    0    0  502    0  0.00000000000E+00  0.00000000000E+00  0.30693552351E+03  0.30693552351E+03  0.00000000000E+00 0. -1.
         -2   -1    0    0    0  501 -0.00000000000E+00 -0.00000000000E+00 -0.28819766828E+03  0.28819766828E+03  0.00000000000E+00 0.  1.
          6    1    1    2  502    0 -0.60131000716E+02  0.19088710513E+03  0.14662472371E+03  0.30188811463E+03  0.17200000000E+03 0. -1.
         -6    1    1    2    0  501  0.60131000716E+02 -0.19088710513E+03 -0.12788686848E+03  0.29324507716E+03  0.17200000000E+03 0.  1.
</event>
<event>
 4    1  0.3211568E-002  0.2257014E+03  0.7818608E-02  0.1129702E+00
          2   -1    0    0  502    0  0.00000000000E+00  0.00000000000E+00  0.64427700536E+03  0.64427700536E+03  0.00000000000E+00 0. -1.
         -2   -1    0    0    0  501 -0.00000000000E+00 -0.00000000000E+00 -0.80483794312E+02  0.80483794312E+02  0.00000000000E+00 0.  1.
          6    1    1    2  502    0 -0.13501088620E+03  0.55939138593E+02  0.32997452318E+03  0.39978033039E+03  0.17200000000E+03 0.  1.
         -6    1    1    2    0  501  0.13501088620E+03 -0.55939138593E+02  0.23381868786E+03  0.32498046928E+03  0.17200000000E+03 0.  1.
</event>
<event>
 4    1  0.3211568E-002  0.2962250E+03  0.7818608E-02  0.1087143E+00
         -2   -1    0    0    0  501 -0.00000000000E+00  0.00000000000E+00  0.28148657900E+03  0.28148657900E+03  0.00000000000E+00 0.  1.
          2   -1    0    0  502    0  0.00000000000E+00 -0.00000000000E+00 -0.12443910181E+04  0.12443910181E+04  0.00000000000E+00 0. -1.
          6    1    1    2  502    0  0.17684545700E+03  0.16398451586E+03  0.17904653109E+03  0.34613132970E+03  0.17200000000E+03 0.  1.
         -6    1    1    2    0  501 -0.17684545700E+03 -0.16398451586E+03 -0.11419509702E+04  0.11797462674E+04  0.17200000000E+03 0. -1.
</event>
<event>
 4    1  0.3211568E-002  0.2227823E+03  0.7818608E-02  0.1131826E+00
         -1   -1    0    0    0  501 -0.00000000000E+00  0.00000000000E+00  0.15288986203E+04  0.15288986203E+04  0.00000000000E+00 0.  1.
          1   -1    0    0  502    0  0.00000000000E+00 -0.00000000000E+00 -0.45946369039E+02  0.45946369039E+02  0.00000000000E+00 0. -1.
          6    1    1    2  502    0 -0.13899252558E+03  0.27000500125E+02  0.31490774188E+03  0.38574452047E+03  0.17200000000E+03 0. -1.
         -6    1    1    2    0  501  0.13899252558E+03 -0.27000500125E+02  0.11680445093E+04  0.11891004688E+04  0.17200000000E+03 0.  1.
</event>
<event>
 4    1  0.3211568E-002  0.1825088E+03  0.7818608E-02  0.1165397E+00
         -1   -1    0    0    0  501 -0.00000000000E+00  0.00000000000E+00  0.93719980115E+02  0.93719980115E+02  0.00000000000E+00 0.  1.
          1   -1    0    0  502    0  0.00000000000E+00 -0.00000000000E+00 -0.15820893169E+04  0.15820893169E+04  0.00000000000E+00 0. -1.
          6    1    1    2  502    0 -0.60652694617E+02  0.68358452170E+01 -0.14819933366E+04  0.14931891132E+04  0.17200000000E+03 0. -1.
         -6    1    1    2    0  501  0.60652694617E+02 -0.68358452170E+01 -0.63760001761E+01  0.18262018378E+03  0.17200000000E+03 0.  1.
</event>
<event>
 4    1  0.3211568E-002  0.1801140E+03  0.7818608E-02  0.1167693E+00
          1   -1    0    0  502    0  0.00000000000E+00  0.00000000000E+00  0.18762998461E+03  0.18762998461E+03  0.00000000000E+00 0. -1.
         -1   -1    0    0    0  501 -0.00000000000E+00 -0.00000000000E+00 -0.21476032319E+03  0.21476032319E+03  0.00000000000E+00 0.  1.
          6    1    1    2  502    0 -0.33117493913E+02 -0.41955670871E+02 -0.10239251614E+03  0.20718415500E+03  0.17200000000E+03 0. -1.
         -6    1    1    2    0  501  0.33117493913E+02  0.41955670871E+02  0.75262177566E+02  0.19520615281E+03  0.17200000000E+03 0. -1.
</event>
<event>
 4    1  0.3211568E-002  0.2301582E+03  0.7818608E-02  0.1126528E+00
         -1   -1    0    0    0  501 -0.00000000000E+00  0.00000000000E+00  0.33294375034E+02  0.33294375034E+02  0.00000000000E+00 0.  1.
          1   -1    0    0  502    0  0.00000000000E+00 -0.00000000000E+00 -0.15966268942E+04  0.15966268942E+04  0.00000000000E+00 0. -1.
          6    1    1    2  502    0  0.20923600743E+02  0.15149588249E+03 -0.73347331345E+03  0.76873656153E+03  0.17200000000E+03 0.  1.
         -6    1    1    2    0  501 -0.20923600743E+02 -0.15149588249E+03 -0.82985920569E+03  0.86118470768E+03  0.17200000000E+03 0.  1.
</event>
<event>
 4    1  0.3211568E-002  0.2373667E+03  0.7818608E-02  0.1121560E+00
          2   -1    0    0  502    0  0.00000000000E+00  0.00000000000E+00  0.38858983555E+03  0.38858983555E+03  0.00000000000E+00 0. -1.
         -2   -1    0    0    0  501 -0.00000000000E+00 -0.00000000000E+00 -0.15772409705E+03  0.15772409705E+03  0.00000000000E+00 0.  1.
          6    1    1    2  502    0 -0.11264836581E+03  0.11861405187E+03  0.19303791426E+03  0.30595193080E+03  0.17200000000E+03 0. -1.
         -6    1    1    2    0  501  0.11264836581E+03 -0.11861405187E+03  0.37827824246E+02  0.24036200180E+03  0.17200000000E+03 0.  1.
</event>
<event>
 4    1  0.3211568E-002  0.2375555E+03  0.7818608E-02  0.1121432E+00
          1   -1    0    0  502    0  0.00000000000E+00  0.00000000000E+00  0.11478901434E+04  0.11478901434E+04  0.00000000000E+00 0. -1.
         -1   -1    0    0    0  501 -0.00000000000E+00 -0.00000000000E+00 -0.55205237701E+02  0.55205237701E+02  0.00000000000E+00 0.  1.
          6    1    1    2  502    0  0.15900375403E+03 -0.39577961012E+02  0.74537023780E+03  0.78231029661E+03  0.17200000000E+03 0. -1.
         -6    1    1    2    0  501 -0.15900375403E+03  0.39577961012E+02  0.34731466793E+03  0.42078508452E+03  0.17200000000E+03 0.  1.
</event>
<event>
 4    1  0.3211568E-002  0.2007673E+03  0.7818608E-02  0.1149093E+00
         -1   -1    0    0    0  501 -0.00000000000E+00  0.00000000000E+00  0.52027836445E+02  0.52027836445E+02  0.00000000000E+00 0.  1.
          1   -1    0    0  502    0  0.00000000000E+00 -0.00000000000E+00 -0.95946092908E+03  0.95946092908E+03  0.00000000000E+00 0. -1.
          6    1    1    2  502    0 -0.15196117248E+02 -0.10243336262E+03 -0.67563195232E+03  0.70483051208E+03  0.17200000000E+03 0. -1.
         -6    1    1    2    0  501  0.15196117248E+02  0.10243336262E+03 -0.23180114031E+03  0.30665825344E+03  0.17200000000E+03 0.  1.
</event>
<event>
 4    1  0.3211568E-002  0.1730120E+03  0.7818608E-02  0.1174743E+00
          1   -1    0    0  502    0  0.00000000000E+00  0.00000000000E+00  0.39888225536E+03  0.39888225536E+03  0.00000000000E+00 0. -1.
         -1   -1    0    0    0  501 -0.00000000000E+00 -0.00000000000E+00 -0.81224490212E+02  0.81224490212E+02  0.00000000000E+00 0.  1.
          6    1    1    2  502    0 -0.16835916427E+02  0.81060943957E+01  0.92603363364E+02  0.19623592881E+03  0.17200000000E+03 0.  1.
         -6    1    1    2    0  501  0.16835916427E+02 -0.81060943957E+01  0.22505440178E+03  0.28387081676E+03  0.17200000000E+03 0. -1.
</event>
<event>
 4    1  0.3211568E-002  0.3622616E+03  0.7818608E-02  0.1057692E+00
          2   -1    0    0  502    0  0.00000000000E+00  0.00000000000E+00  0.17458683079E+04  0.17458683079E+04  0.00000000000E+00 0. -1.
         -2   -1    0    0    0  501 -0.00000000000E+00 -0.00000000000E+00 -0.13793543218E+03  0.13793543218E+03  0.00000000000E+00 0.  1.
          6    1    1    2  502    0  0.24140431093E+03  0.20826279967E+03  0.14393484389E+04  0.14842362897E+04  0.17200000000E+03 0. -1.
         -6    1    1    2    0  501 -0.24140431093E+03 -0.20826279967E+03  0.16858443681E+03  0.39956745037E+03  0.17200000000E+03 0.  1.
</event>
<event>
 4    1  0.3211568E-002  0.2027911E+03  0.7818608E-02  0.1147405E+00
          2   -1    0    0  502    0  0.00000000000E+00  0.00000000000E+00  0.15761119345E+04  0.15761119345E+04  0.00000000000E+00 0. -1.
         -2   -1    0    0    0  501 -0.00000000000E+00 -0.00000000000E+00 -0.40389550824E+02  0.40389550824E+02  0.00000000000E+00 0.  1.
          6    1    1    2  502    0 -0.10742477739E+03  0.36245220312E+00  0.12487442968E+04  0.12651033685E+04  0.17200000000E+03 0. -1.
         -6    1    1    2    0  501  0.10742477739E+03 -0.36245220312E+00  0.28697808688E+03  0.35139811684E+03  0.17200000000E+03 0.  1.
</event>
<event>
 4    1  0.3211568E-002  0.1815946E+03  0.7818608E-02  0.1166269E+00
          1   -1    0    0  502    0  0.00000000000E+00  0.00000000000E+00  0.28349892547E+03  0.28349892547E+03  0.00000000000E+00 0. -1.
         -1   -1    0    0    0  501 -0.00000000000E+00 -0.00000000000E+00 -0.11667070259E+03  0.11667070259E+03  0.00000000000E+00 0.  1.
          6    1    1    2  502    0 -0.32185980606E+02  0.48545556986E+02  0.94383270925E+02  0.20465778823E+03  0.17200000000E+03 0. -1.
         -6    1    1    2    0  501  0.32185980606E+02 -0.48545556986E+02  0.72444951957E+02  0.19551183983E+03  0.17200000000E+03 0.  1.
</event>
<event>
 4    1  0.3211568E-002  0.1819015E+03  0.7818608E-02  0.1165975E+00
          1   -1    0    0  502    0  0.00000000000E+00  0.00000000000E+00  0.15652954977E+03  0.15652954977E+03  0.00000000000E+00 0. -1.
         -1   -1    0    0    0  501 -0.00000000000E+00 -0.00000000000E+00 -0.22946842047E+03  0.22946842047E+03  0.00000000000E+00 0.  1.
          6    1    1    2  502    0  0.85220212751E+01 -0.58579400876E+02 -0.90647145274E+02  0.20323650263E+03  0.17200000000E+03 0.  1.
         -6    1    1    2    0  501 -0.85220212751E+01  0.58579400876E+02  0.17708274575E+02  0.18276146761E+03  0.17200000000E+03 0. -1.
</event>
<event>
 4    1  0.3211568E-002  0.1779676E+03  0.7818608E-02  0.1169785E+00
          3   -1    0    0  502    0  0.00000000000E+00  0.00000000000E+00  0.60029262483E+03  0.60029262483E+03  0.00000000000E+00 0. -1.
         -3   -1    0    0    0  501 -0.00000000000E+00 -0.00000000000E+00 -0.53102846772E+02  0.53102846772E+02  0.00000000000E+00 0.  1.
          6    1    1    2  502    0  0.37447375108E+02 -0.26194582033E+02  0.29978003803E+03  0.34862663873E+03  0.17200000000E+03 0.  1.
         -6    1    1    2    0  501 -0.37447375108E+02  0.26194582033E+02  0.24740974003E+03  0.30476883288E+03  0.17200000000E+03 0.  1.
</event>
<event>
 4    1  0.3211568E-002  0.1922695E+03  0.7818608E-02  0.1156430E+00
         -2   -1    0    0    0  501 -0.00000000000E+00  0.00000000000E+00  0.46444725013E+03  0.46444725013E+03  0.00000000000E+00 0.  1.
          2   -1    0    0  502    0  0.00000000000E+00 -0.00000000000E+00 -0.10032272100E+03  0.10032272100E+03  0.00000000000E+00 0. -1.
          6    1    1    2  502    0 -0.50658200964E+02  0.69406784244E+02  0.53704980028E+02  0.19962910585E+03  0.17200000000E+03 0. -1.
         -6    1    1    2    0  501  0.50658200964E+02 -0.69406784244E+02  0.31041954911E+03  0.36514086527E+03  0.17200000000E+03 0.  1.
</event>
<event>
 4    1  0.3211568E-002  0.1851781E+03  0.7818608E-02  0.1162884E+00
         -2   -1    0    0    0  501 -0.00000000000E+00  0.00000000000E+00  0.52758092850E+02  0.52758092850E+02  0.00000000000E+00 0.  1.
          2   -1    0    0  502    0  0.00000000000E+00 -0.00000000000E+00 -0.97267399907E+03  0.97267399907E+03  0.00000000000E+00 0. -1.
          6    1    1    2  502    0 -0.56805249341E+02 -0.38471881058E+02 -0.16463398853E+03  0.24778069369E+03  0.17200000000E+03 0.  1.
         -6    1    1    2    0  501  0.56805249341E+02  0.38471881058E+02 -0.75528191769E+03  0.77765139823E+03  0.17200000000E+03 0. -1.
</event>
<event>
 4    1  0.3211568E-002  0.2215738E+03  0.7818608E-02  0.1132715E+00
         -1   -1    0    0    0  501 -0.00000000000E+00  0.00000000000E+00  0.77325775999E+02  0.77325775999E+02  0.00000000000E+00 0.  1.
          1   -1    0    0  502    0  0.00000000000E+00 -0.00000000000E+00 -0.80270921609E+03  0.80270921609E+03  0.00000000000E+00 0. -1.
          6    1    1    2  502    0 -0.10335935209E+03 -0.93956415411E+02 -0.56387174623E+03  0.60584346977E+03  0.17200000000E+03 0. -1.
         -6    1    1    2    0  501  0.10335935209E+03  0.93956415411E+02 -0.16151169386E+03  0.27419152233E+03  0.17200000000E+03 0.  1.
</event>
<event>
 4    1  0.3211568E-002  0.2152877E+03  0.7818608E-02  0.1137446E+00
         -1   -1    0    0    0  501 -0.00000000000E+00  0.00000000000E+00  0.10271238357E+03  0.10271238357E+03  0.00000000000E+00 0.  1.
          1   -1    0    0  502    0  0.00000000000E+00 -0.00000000000E+00 -0.20911358710E+04  0.20911358710E+04  0.00000000000E+00 0. -1.
          6    1    1    2  502    0  0.12072115321E+03  0.46810177612E+02 -0.19655992175E+04  0.19773540587E+04  0.17200000000E+03 0. -1.
         -6    1    1    2    0  501 -0.12072115321E+03 -0.46810177612E+02 -0.22824269949E+02  0.21649419590E+03  0.17200000000E+03 0.  1.
</event>
<event>
 4    1  0.3211568E-002  0.1756367E+03  0.7818608E-02  0.1172094E+00
         -1   -1    0    0    0  501 -0.00000000000E+00  0.00000000000E+00  0.28656053958E+02  0.28656053958E+02  0.00000000000E+00 0.  1.
          1   -1    0    0  502    0  0.00000000000E+00 -0.00000000000E+00 -0.12984889617E+04  0.12984889617E+04  0.00000000000E+00 0. -1.
          6    1    1    2  502    0 -0.99806481200E+01  0.34126865614E+02 -0.36054782143E+03  0.40105235049E+03  0.17200000000E+03 0.  1.
         -6    1    1    2    0  501  0.99806481200E+01 -0.34126865614E+02 -0.90928508636E+03  0.92609266521E+03  0.17200000000E+03 0. -1.
</event>
<event>
 4    1  0.3211568E-002  0.2412226E+03  0.7818608E-02  0.1118981E+00
         -2   -1    0    0    0  501 -0.00000000000E+00  0.00000000000E+00  0.60127621317E+02  0.60127621317E+02  0.00000000000E+00 0.  1.
          2   -1    0    0  502    0  0.00000000000E+00 -0.00000000000E+00 -0.31841093235E+04  0.31841093235E+04  0.00000000000E+00 0. -1.
          6    1    1    2  502    0 -0.76249440216E+02  0.15096481987E+03 -0.20864462179E+03  0.31893719158E+03  0.17200000000E+03 0.  1.
         -6    1    1    2    0  501  0.76249440216E+02 -0.15096481987E+03 -0.29153370804E+04  0.29252997532E+04  0.17200000000E+03 0. -1.
</event>
<event>
 4    1  0.3211568E-002  0.1945220E+03  0.7818608E-02  0.1154445E+00
         -1   -1    0    0    0  501 -0.00000000000E+00  0.00000000000E+00  0.21914422970E+03  0.21914422970E+03  0.00000000000E+00 0.  1.
          1   -1    0    0  502    0  0.00000000000E+00 -0.00000000000E+00 -0.18450388509E+03  0.18450388509E+03  0.00000000000E+00 0. -1.
          6    1    1    2  502    0 -0.90763360966E+02 -0.41015922767E+01  0.68441577507E+02  0.20621120310E+03  0.17200000000E+03 0.  1.
         -6    1    1    2    0  501  0.90763360966E+02  0.41015922767E+01 -0.33801232893E+02  0.19743691169E+03  0.17200000000E+03 0.  1.
</event>
<event>
 4    1  0.3211568E-002  0.2696933E+03  0.7818608E-02  0.1101455E+00
          2   -1    0    0  502    0  0.00000000000E+00  0.00000000000E+00  0.95917419074E+03  0.95917419074E+03  0.00000000000E+00 0. -1.
         -2   -1    0    0    0  501 -0.00000000000E+00 -0.00000000000E+00 -0.85424274540E+02  0.85424274540E+02  0.00000000000E+00 0.  1.
          6    1    1    2  502    0  0.11112772305E+03 -0.17550248465E+03  0.26183895085E+03  0.37589111340E+03  0.17200000000E+03 0. -1.
         -6    1    1    2    0  501 -0.11112772305E+03  0.17550248465E+03  0.61191096535E+03  0.66870735188E+03  0.17200000000E+03 0.  1.
</event>
<event>
 4    1  0.3211568E-002  0.1903830E+03  0.7818608E-02  0.1158116E+00
         -1   -1    0    0    0  501 -0.00000000000E+00  0.00000000000E+00  0.14260425875E+03  0.14260425875E+03  0.00000000000E+00 0.  1.
          1   -1    0    0  502    0  0.00000000000E+00 -0.00000000000E+00 -0.33625197734E+03  0.33625197734E+03  0.00000000000E+00 0. -1.
          6    1    1    2  502    0 -0.92453972977E+01  0.81093802760E+02 -0.21511913937E+03  0.28726629865E+03  0.17200000000E+03 0. -1.
         -6    1    1    2    0  501  0.92453972977E+01 -0.81093802760E+02  0.21471420786E+02  0.19158993744E+03  0.17200000000E+03 0.  1.
</event>
<event>
 4    1  0.3211568E-002  0.1851377E+03  0.7818608E-02  0.1162921E+00
         -2   -1    0    0    0  501 -0.00000000000E+00  0.00000000000E+00  0.26312586598E+03  0.26312586598E+03  0.00000000000E+00 0.  1.
          2   -1    0    0  502    0  0.00000000000E+00 -0.00000000000E+00 -0.17214264082E+03  0.17214264082E+03  0.00000000000E+00 0. -1.
          6    1    1    2  502    0 -0.32175622690E+02 -0.60470710451E+02 -0.61852037331E+02  0.19519644474E+03  0.17200000000E+03 0. -1.
         -6    1    1    2    0  501  0.32175622690E+02  0.60470710451E+02  0.15283526249E+03  0.24007206205E+03  0.17200000000E+03 0.  1.
</event>
<event>
 4    1  0.3211568E-002  0.6509364E+03  0.7818608E-02  0.9805024E-01
         -2   -1    0    0    0  501 -0.00000000000E+00  0.00000000000E+00  0.59707022855E+03  0.59707022855E+03  0.00000000000E+00 0.  1.
          2   -1    0    0  502    0  0.00000000000E+00 -0.00000000000E+00 -0.12234306244E+04  0.12234306244E+04  0.00000000000E+00 0. -1.
          6    1    1    2  502    0 -0.23095503425E+03  0.58377556390E+03 -0.90304834794E+03  0.11132000968E+04  0.17200000000E+03 0. -1.
         -6    1    1    2    0  501  0.23095503425E+03 -0.58377556390E+03  0.27668795205E+03  0.70730075616E+03  0.17200000000E+03 0.  1.
</event>
<event>
 4    1  0.3211568E-002  0.2270934E+03  0.7818608E-02  0.1128702E+00
          2   -1    0    0  502    0  0.00000000000E+00  0.00000000000E+00  0.17094368556E+04  0.17094368556E+04  0.00000000000E+00 0. -1.
         -2   -1    0    0    0  501 -0.00000000000E+00 -0.00000000000E+00 -0.30693139147E+02  0.30693139147E+02  0.00000000000E+00 0.  1.
          6    1    1    2  502    0 -0.44003198835E+02 -0.14160195011E+03  0.95310874429E+03  0.97978960610E+03  0.17200000000E+03 0. -1.
         -6    1    1    2    0  501  0.44003198835E+02  0.14160195011E+03  0.72563497220E+03  0.76034038869E+03  0.17200000000E+03 0.  1.
</event>
<event>
 4    1  0.3211568E-002  0.3415451E+03  0.7818608E-02  0.1066140E+00
         -1   -1    0    0    0  501 -0.00000000000E+00  0.00000000000E+00  0.36530757215E+03  0.36530757215E+03  0.00000000000E+00 0.  1.
          1   -1    0    0  502    0  0.00000000000E+00 -0.00000000000E+00 -0.33543884500E+03  0.33543884500E+03  0.00000000000E+00 0. -1.
          6    1    1    2  502    0  0.23002046564E+03 -0.18482335854E+03  0.91719606379E+02  0.35364611502E+03  0.17200000000E+03 0. -1.
         -6    1    1    2    0  501 -0.23002046564E+03  0.18482335854E+03 -0.61850879237E+02  0.34710030213E+03  0.17200000000E+03 0.  1.
</event>
<event>
 4    1  0.3211568E-002  0.2039642E+03  0.7818608E-02  0.1146437E+00
          2   -1    0    0  502    0  0.00000000000E+00  0.00000000000E+00  0.90014350596E+03  0.90014350596E+03  0.00000000000E+00 0. -1.
         -2   -1    0    0    0  501 -0.00000000000E+00 -0.00000000000E+00 -0.81881330041E+02  0.81881330041E+02  0.00000000000E+00 0.  1.
          6    1    1    2  502    0 -0.94016332748E+02  0.56376554532E+02  0.73318760338E+03  0.76102920343E+03  0.17200000000E+03 0. -1.
         -6    1    1    2    0  501  0.94016332748E+02 -0.56376554532E+02  0.85074572545E+02  0.22099563258E+03  0.17200000000E+03 0.  1.
</event>
<event>
 4    1  0.3211568E-002  0.1940066E+03  0.7818608E-02  0.1154897E+00
          2   -1    0    0  502    0  0.00000000000E+00  0.00000000000E+00  0.93837973242E+03  0.93837973242E+03  0.00000000000E+00 0. -1.
         -2   -1    0    0    0  501 -0.00000000000E+00 -0.00000000000E+00 -0.21614729578E+03  0.21614729578E+03  0.00000000000E+00 0.  1.
          6    1    1    2  502    0 -0.80864586391E+02 -0.38929027618E+02  0.88207260483E+03  0.90315592824E+03  0.17200000000E+03 0. -1.
         -6    1    1    2    0  501  0.80864586391E+02  0.38929027618E+02 -0.15984016819E+03  0.25137109995E+03  0.17200000000E+03 0.  1.
</event>
<event>
 4    1  0.3211568E-002  0.2793187E+03  0.7818608E-02  0.1096062E+00
         -2   -1    0    0    0  501 -0.00000000000E+00  0.00000000000E+00  0.81544641435E+02  0.81544641435E+02  0.00000000000E+00 0.  1.
          2   -1    0    0  502    0  0.00000000000E+00 -0.00000000000E+00 -0.24124430892E+04  0.24124430892E+04  0.00000000000E+00 0. -1.
          6    1    1    2  502    0  0.13514212798E+03 -0.17369959629E+03 -0.21341031882E+04  0.21523046630E+04  0.17200000000E+03 0. -1.
         -6    1    1    2    0  501 -0.13514212798E+03  0.17369959629E+03 -0.19679525953E+03  0.34168306760E+03  0.17200000000E+03 0.  1.
</event>
<event>
 4    1  0.3211568E-002  0.7157912E+03  0.7818608E-02  0.9690602E-01
         -1   -1    0    0    0  501 -0.00000000000E+00  0.00000000000E+00  0.38096152978E+03  0.38096152978E+03  0.00000000000E+00 0.  1.
          1   -1    0    0  502    0  0.00000000000E+00 -0.00000000000E+00 -0.13840818782E+04  0.13840818782E+04  0.00000000000E+00 0. -1.
          6    1    1    2  502    0  0.47209858516E+03  0.50979994157E+03 -0.35308303663E+03  0.79813826201E+03  0.17200000000E+03 0. -1.
         -6    1    1    2    0  501 -0.47209858516E+03 -0.50979994157E+03 -0.65003731175E+03  0.96690514592E+03  0.17200000000E+03 0.  1.
</event>
<event>
 4    1  0.3211568E-002  0.1936502E+03  0.7818608E-02  0.1155210E+00
         -1   -1    0    0    0  501 -0.00000000000E+00  0.00000000000E+00  0.10130645294E+03  0.10130645294E+03  0.00000000000E+00 0.  1.
          1   -1    0    0  502    0  0.00000000000E+00 -0.00000000000E+00 -0.45126513205E+03  0.45126513205E+03  0.00000000000E+00 0. -1.
          6    1    1    2  502    0 -0.84287743053E+02  0.28495370001E+02 -0.29210318991E+03  0.35046352634E+03  0.17200000000E+03 0. -1.
         -6    1    1    2    0  501  0.84287743053E+02 -0.28495370001E+02 -0.57855489201E+02  0.20210805865E+03  0.17200000000E+03 0.  1.
</event>
<event>
 4    1  0.3211568E-002  0.4349791E+03  0.7818608E-02  0.1032299E+00
          2   -1    0    0  502    0  0.00000000000E+00  0.00000000000E+00  0.11325913832E+04  0.11325913832E+04  0.00000000000E+00 0. -1.
         -2   -1    0    0    0  501 -0.00000000000E+00 -0.00000000000E+00 -0.20778290480E+03  0.20778290480E+03  0.00000000000E+00 0.  1.
          6    1    1    2  502    0 -0.38661566956E+03  0.10075291210E+03  0.75911198212E+03  0.87490446716E+03  0.17200000000E+03 0. -1.
         -6    1    1    2    0  501  0.38661566956E+03 -0.10075291210E+03  0.16569649629E+03  0.46546982086E+03  0.17200000000E+03 0.  1.
</event>
<event>
 4    1  0.3211568E-002  0.2183900E+03  0.7818608E-02  0.1135089E+00
          2   -1    0    0  502    0  0.00000000000E+00  0.00000000000E+00  0.17643897851E+04  0.17643897851E+04  0.00000000000E+00 0. -1.
         -2   -1    0    0    0  501 -0.00000000000E+00 -0.00000000000E+00 -0.27233483756E+02  0.27233483756E+02  0.00000000000E+00 0.  1.
          6    1    1    2  502    0 -0.95906292263E+02 -0.94404241495E+02  0.79143853415E+03  0.82101713200E+03  0.17200000000E+03 0. -1.
         -6    1    1    2    0  501  0.95906292263E+02  0.94404241495E+02  0.94571776720E+03  0.97060613686E+03  0.17200000000E+03 0. -1.
</event>
<event>
 4    1  0.3211568E-002  0.3778840E+03  0.7818608E-02  0.1051719E+00
         -1   -1    0    0    0  501 -0.00000000000E+00  0.00000000000E+00  0.96498102048E+02  0.96498102048E+02  0.00000000000E+00 0.  1.
          1   -1    0    0  502    0  0.00000000000E+00 -0.00000000000E+00 -0.16145069923E+04  0.16145069923E+04  0.00000000000E+00 0. -1.
          6    1    1    2  502    0  0.33442226158E+03  0.37068647941E+02 -0.10061327166E+04  0.10747554964E+04  0.17200000000E+03 0. -1.
         -6    1    1    2    0  501 -0.33442226158E+03 -0.37068647941E+02 -0.51187617366E+03  0.63624959793E+03  0.17200000000E+03 0.  1.
</event>
<event>
 4    1  0.3211568E-002  0.3147757E+03  0.7818608E-02  0.1078079E+00
          2   -1    0    0  502    0  0.00000000000E+00  0.00000000000E+00  0.44214802715E+03  0.44214802715E+03  0.00000000000E+00 0. -1.
         -2   -1    0    0    0  501 -0.00000000000E+00 -0.00000000000E+00 -0.29680372912E+03  0.29680372912E+03  0.00000000000E+00 0.  1.
          6    1    1    2  502    0  0.22324394627E+03  0.14022077083E+03  0.25554148767E+03  0.40544441794E+03  0.17200000000E+03 0. -1.
         -6    1    1    2    0  501 -0.22324394627E+03 -0.14022077083E+03 -0.11019718964E+03  0.33350733833E+03  0.17200000000E+03 0.  1.
</event>
<event>
 4    1  0.3211568E-002  0.2580318E+03  0.7818608E-02  0.1108332E+00
         -2   -1    0    0    0  501 -0.00000000000E+00  0.00000000000E+00  0.55168305602E+02  0.55168305602E+02  0.00000000000E+00 0.  1.
          2   -1    0    0  502    0  0.00000000000E+00 -0.00000000000E+00 -0.12105888423E+04  0.12105888423E+04  0.00000000000E+00 0. -1.
          6    1    1    2  502    0 -0.16338364016E+03 -0.10149978269E+03 -0.54258572430E+03  0.60081585196E+03  0.17200000000E+03 0. -1.
         -6    1    1    2    0  501  0.16338364016E+03  0.10149978269E+03 -0.61283481243E+03  0.66494129597E+03  0.17200000000E+03 0.  1.
</event>
<event>
 4    1  0.3211568E-002  0.5702353E+03  0.7818608E-02  0.9969158E-01
         -1   -1    0    0    0  501 -0.00000000000E+00  0.00000000000E+00  0.35441568777E+03  0.35441568777E+03  0.00000000000E+00 0.  1.
          1   -1    0    0  502    0  0.00000000000E+00 -0.00000000000E+00 -0.95111339655E+03  0.95111339655E+03  0.00000000000E+00 0. -1.
          6    1    1    2  502    0 -0.35760620281E+03 -0.40951441111E+03 -0.17559221051E+03  0.59665808768E+03  0.17200000000E+03 0. -1.
         -6    1    1    2    0  501  0.35760620281E+03  0.40951441111E+03 -0.42110549828E+03  0.70887099664E+03  0.17200000000E+03 0.  1.
</event>
<event>
 4    1  0.3211568E-002  0.1930786E+03  0.7818608E-02  0.1155714E+00
          1   -1    0    0  502    0  0.00000000000E+00  0.00000000000E+00  0.72328213024E+03  0.72328213024E+03  0.00000000000E+00 0. -1.
         -1   -1    0    0    0  501 -0.00000000000E+00 -0.00000000000E+00 -0.63854961561E+02  0.63854961561E+02  0.00000000000E+00 0.  1.
          6    1    1    2  502    0  0.65285804055E+02  0.58592606575E+02  0.50253844569E+03  0.53835324756E+03  0.17200000000E+03 0. -1.
         -6    1    1    2    0  501 -0.65285804055E+02 -0.58592606575E+02  0.15688872299E+03  0.24878384424E+03  0.17200000000E+03 0.  1.
</event>
<event>
 4    1  0.3211568E-002  0.1830156E+03  0.7818608E-02  0.1164916E+00
         -2   -1    0    0    0  501 -0.00000000000E+00  0.00000000000E+00  0.28864332939E+02  0.28864332939E+02  0.00000000000E+00 0.  1.
          2   -1    0    0  502    0  0.00000000000E+00 -0.00000000000E+00 -0.11685057051E+04  0.11685057051E+04  0.00000000000E+00 0. -1.
          6    1    1    2  502    0 -0.38934541913E+02 -0.48936679605E+02 -0.61962768277E+03  0.64609067662E+03  0.17200000000E+03 0.  1.
         -6    1    1    2    0  501  0.38934541913E+02  0.48936679605E+02 -0.52001368934E+03  0.55127936137E+03  0.17200000000E+03 0.  1.
</event>
<event>
 4    1  0.3211568E-002  0.2007145E+03  0.7818608E-02  0.1149138E+00
          1   -1    0    0  502    0  0.00000000000E+00  0.00000000000E+00  0.71614431327E+03  0.71614431327E+03  0.00000000000E+00 0. -1.
         -1   -1    0    0    0  501 -0.00000000000E+00 -0.00000000000E+00 -0.58144243813E+02  0.58144243813E+02  0.00000000000E+00 0.  1.
          6    1    1    2  502    0 -0.14968807177E+02  0.10236325418E+03  0.25920456247E+03  0.32783121602E+03  0.17200000000E+03 0.  1.
         -6    1    1    2    0  501  0.14968807177E+02 -0.10236325418E+03  0.39879550699E+03  0.44645734107E+03  0.17200000000E+03 0. -1.
</event>
<event>
 4    1  0.3211568E-002  0.6795822E+03  0.7818608E-02  0.9752801E-01
         -1   -1    0    0    0  501 -0.00000000000E+00  0.00000000000E+00  0.16836940985E+04  0.16836940985E+04  0.00000000000E+00 0.  1.
          1   -1    0    0  502    0  0.00000000000E+00 -0.00000000000E+00 -0.27530216169E+03  0.27530216169E+03  0.00000000000E+00 0. -1.
          6    1    1    2  502    0  0.62320422942E+03  0.20943854549E+03  0.64500635071E+03  0.93694461328E+03  0.17200000000E+03 0. -1.
         -6    1    1    2    0  501 -0.62320422942E+03 -0.20943854549E+03  0.76338558611E+03  0.10220516469E+04  0.17200000000E+03 0.  1.
</event>
<event>
 4    1  0.3211568E-002  0.2101939E+03  0.7818608E-02  0.1141413E+00
         -1   -1    0    0    0  501 -0.00000000000E+00  0.00000000000E+00  0.21851822246E+03  0.21851822246E+03  0.00000000000E+00 0.  1.
          1   -1    0    0  502    0  0.00000000000E+00 -0.00000000000E+00 -0.31538709815E+03  0.31538709815E+03  0.00000000000E+00 0. -1.
          6    1    1    2  502    0 -0.11315284065E+03  0.42354555844E+02 -0.20836678412E+03  0.29596991481E+03  0.17200000000E+03 0. -1.
         -6    1    1    2    0  501  0.11315284065E+03 -0.42354555844E+02  0.11149790843E+03  0.23793540580E+03  0.17200000000E+03 0.  1.
</event>
<event>
 4    1  0.3211568E-002  0.2373184E+03  0.7818608E-02  0.1121592E+00
          2   -1    0    0  502    0  0.00000000000E+00  0.00000000000E+00  0.81469693101E+03  0.81469693101E+03  0.00000000000E+00 0. -1.
         -2   -1    0    0    0  501 -0.00000000000E+00 -0.00000000000E+00 -0.10015166608E+04  0.10015166608E+04  0.00000000000E+00 0.  1.
          6    1    1    2  502    0  0.12030499439E+03 -0.11073714237E+03  0.78279540367E+03  0.81797839236E+03  0.17200000000E+03 0. -1.
         -6    1    1    2    0  501 -0.12030499439E+03  0.11073714237E+03 -0.96961513345E+03  0.99823519943E+03  0.17200000000E+03 0.  1.
</event>
<event>
 4    1  0.3211568E-002  0.4027378E+03  0.7818608E-02  0.1042836E+00
          2   -1    0    0  502    0  0.00000000000E+00  0.00000000000E+00  0.49467333277E+03  0.49467333277E+03  0.00000000000E+00 0. -1.
         -2   -1    0    0    0  501 -0.00000000000E+00 -0.00000000000E+00 -0.48197335695E+03  0.48197335695E+03  0.00000000000E+00 0.  1.
          6    1    1    2  502    0  0.32805564735E+03 -0.15809243386E+03  0.28245600427E+03  0.49191373202E+03  0.17200000000E+03 0. -1.
         -6    1    1    2    0  501 -0.32805564735E+03  0.15809243386E+03 -0.26975602844E+03  0.48473295770E+03  0.17200000000E+03 0.  1.
</event>
<event>
 4    1  0.3211568E-002  0.2775376E+03  0.7818608E-02  0.1097042E+00
          1   -1    0    0  502    0  0.00000000000E+00  0.00000000000E+00  0.52671330139E+03  0.52671330139E+03  0.00000000000E+00 0. -1.
         -1   -1    0    0    0  501 -0.00000000000E+00 -0.00000000000E+00 -0.14649138389E+03  0.14649138389E+03  0.00000000000E+00 0.  1.
          6    1    1    2  502    0  0.20374653665E+03  0.77009409727E+02  0.17619604344E+03  0.32874328299E+03  0.17200000000E+03 0. -1.
         -6    1    1    2    0  501 -0.20374653665E+03 -0.77009409727E+02  0.20402587406E+03  0.34446140230E+03  0.17200000000E+03 0.  1.
</event>
<event>
 4    1  0.3211568E-002  0.2241668E+03  0.7818608E-02  0.1130814E+00
         -2   -1    0    0    0  501 -0.00000000000E+00  0.00000000000E+00  0.14417555474E+02  0.14417555474E+02  0.00000000000E+00 0.  1.
          2   -1    0    0  502    0  0.00000000000E+00 -0.00000000000E+00 -0.35034716441E+04  0.35034716441E+04  0.00000000000E+00 0. -1.
          6    1    1    2  502    0  0.67118598455E+02  0.12712917686E+03 -0.16181465777E+04  0.16336000370E+04  0.17200000000E+03 0. -1.
         -6    1    1    2    0  501 -0.67118598455E+02 -0.12712917686E+03 -0.18709075109E+04  0.18842891626E+04  0.17200000000E+03 0. -1.
</event>
<event>
 4    1  0.3211568E-002  0.1742681E+03  0.7818608E-02  0.1173469E+00
         -2   -1    0    0    0  501 -0.00000000000E+00  0.00000000000E+00  0.17345789134E+03  0.17345789134E+03  0.00000000000E+00 0.  1.
          2   -1    0    0  502    0  0.00000000000E+00 -0.00000000000E+00 -0.98354028593E+03  0.98354028593E+03  0.00000000000E+00 0. -1.
          6    1    1    2  502    0  0.15698827653E+02 -0.23214486529E+02 -0.92952900086E+03  0.94572381223E+03  0.17200000000E+03 0. -1.
         -6    1    1    2    0  501 -0.15698827653E+02  0.23214486529E+02  0.11944660627E+03  0.21127436504E+03  0.17200000000E+03 0.  1.
</event>
<event>
 4    1  0.3211568E-002  0.2405370E+03  0.7818608E-02  0.1119436E+00
          2   -1    0    0  502    0  0.00000000000E+00  0.00000000000E+00  0.60752237679E+03  0.60752237679E+03  0.00000000000E+00 0. -1.
         -2   -1    0    0    0  501 -0.00000000000E+00 -0.00000000000E+00 -0.95702475693E+02  0.95702475693E+02  0.00000000000E+00 0.  1.
          6    1    1    2  502    0 -0.16647259406E+03 -0.23683401776E+02  0.28045683819E+03  0.36947809973E+03  0.17200000000E+03 0. -1.
         -6    1    1    2    0  501  0.16647259406E+03  0.23683401776E+02  0.23136306291E+03  0.33374675275E+03  0.17200000000E+03 0.  1.
</event>
<event>
 4    1  0.3211568E-002  0.2347074E+03  0.7818608E-02  0.1123370E+00
          2   -1    0    0  502    0  0.00000000000E+00  0.00000000000E+00  0.16287952630E+04  0.16287952630E+04  0.00000000000E+00 0. -1.
         -2   -1    0    0    0  501 -0.00000000000E+00 -0.00000000000E+00 -0.33900157925E+02  0.33900157925E+02  0.00000000000E+00 0.  1.
          6    1    1    2  502    0 -0.17474126443E+01 -0.15968874069E+03  0.75728481464E+03  0.79282270265E+03  0.17200000000E+03 0. -1.
         -6    1    1    2    0  501  0.17474126443E+01  0.15968874069E+03  0.83761029041E+03  0.86987271825E+03  0.17200000000E+03 0.  1.
</event>
<event>
 4    1  0.3211568E-002  0.3596365E+03  0.7818608E-02  0.1058728E+00
         -2   -1    0    0    0  501 -0.00000000000E+00  0.00000000000E+00  0.30643026431E+03  0.30643026431E+03  0.00000000000E+00 0.  1.
          2   -1    0    0  502    0  0.00000000000E+00 -0.00000000000E+00 -0.54383235814E+03  0.54383235814E+03  0.00000000000E+00 0. -1.
          6    1    1    2  502    0 -0.92910158643E+01  0.31570249326E+03 -0.31985450694E+03  0.48129543197E+03  0.17200000000E+03 0. -1.
         -6    1    1    2    0  501  0.92910158643E+01 -0.31570249326E+03  0.82452413116E+02  0.36896719048E+03  0.17200000000E+03 0.  1.
</event>
<event>
 4    1  0.3211568E-002  0.2067564E+03  0.7818608E-02  0.1144161E+00
          2   -1    0    0  502    0  0.00000000000E+00  0.00000000000E+00  0.95075616653E+03  0.95075616653E+03  0.00000000000E+00 0. -1.
         -2   -1    0    0    0  501 -0.00000000000E+00 -0.00000000000E+00 -0.48321873770E+02  0.48321873770E+02  0.00000000000E+00 0.  1.
          6    1    1    2  502    0  0.10615307343E+03 -0.43540044807E+02  0.58293293085E+03  0.61851355067E+03  0.17200000000E+03 0. -1.
         -6    1    1    2    0  501 -0.10615307343E+03  0.43540044807E+02  0.31950136191E+03  0.38056448963E+03  0.17200000000E+03 0.  1.
</event>
<event>
 4    1  0.3211568E-002  0.2370991E+03  0.7818608E-02  0.1121741E+00
          1   -1    0    0  502    0  0.00000000000E+00  0.00000000000E+00  0.35131815747E+04  0.35131815747E+04  0.00000000000E+00 0. -1.
         -1   -1    0    0    0  501 -0.00000000000E+00 -0.00000000000E+00 -0.24152502081E+02  0.24152502081E+02  0.00000000000E+00 0.  1.
          6    1    1    2  502    0  0.92153900758E+02 -0.13468341226E+03  0.27719915806E+04  0.27821130973E+04  0.17200000000E+03 0. -1.
         -6    1    1    2    0  501 -0.92153900758E+02  0.13468341226E+03  0.71703749200E+03  0.75522097951E+03  0.17200000000E+03 0.  1.
</event>
<event>
 4    1  0.3211568E-002  0.2140530E+03  0.7818608E-02  0.1138396E+00
          1   -1    0    0  502    0  0.00000000000E+00  0.00000000000E+00  0.25421239964E+04  0.25421239964E+04  0.00000000000E+00 0. -1.
         -1   -1    0    0    0  501 -0.00000000000E+00 -0.00000000000E+00 -0.19215899234E+02  0.19215899234E+02  0.00000000000E+00 0.  1.
          6    1    1    2  502    0 -0.70965075939E+02  0.10582368808E+03  0.15804358445E+04  0.15948655597E+04  0.17200000000E+03 0. -1.
         -6    1    1    2    0  501  0.70965075939E+02 -0.10582368808E+03  0.94247225269E+03  0.96647433595E+03  0.17200000000E+03 0. -1.
</event>
<event>
 4    1  0.3211568E-002  0.3308905E+03  0.7818608E-02  0.1070744E+00
         -1   -1    0    0    0  501 -0.00000000000E+00  0.00000000000E+00  0.19213006138E+03  0.19213006138E+03  0.00000000000E+00 0.  1.
          1   -1    0    0  502    0  0.00000000000E+00 -0.00000000000E+00 -0.57280924896E+03  0.57280924896E+03  0.00000000000E+00 0. -1.
          6    1    1    2  502    0 -0.15536823940E+03  0.23614670020E+03 -0.21775169850E+03  0.39611154494E+03  0.17200000000E+03 0. -1.
         -6    1    1    2    0  501  0.15536823940E+03 -0.23614670020E+03 -0.16292748909E+03  0.36882776540E+03  0.17200000000E+03 0.  1.
</event>
<event>
 4    1  0.3211568E-002  0.4987524E+03  0.7818608E-02  0.1014105E+00
          1   -1    0    0  502    0  0.00000000000E+00  0.00000000000E+00  0.23659534818E+04  0.23659534818E+04  0.00000000000E+00 0. -1.
         -1   -1    0    0    0  501 -0.00000000000E+00 -0.00000000000E+00 -0.10513914519E+03  0.10513914519E+03  0.00000000000E+00 0.  1.
          6    1    1    2  502    0 -0.14583865496E+03 -0.44486066439E+03  0.11319790481E+04  0.12369844337E+04  0.17200000000E+03 0. -1.
         -6    1    1    2    0  501  0.14583865496E+03  0.44486066439E+03  0.11288352885E+04  0.12341081932E+04  0.17200000000E+03 0.  1.
</event>
<event>
 4    1  0.3211568E-002  0.3050755E+03  0.7818608E-02  0.1082731E+00
         -2   -1    0    0    0  501 -0.00000000000E+00  0.00000000000E+00  0.35693379965E+02  0.35693379965E+02  0.00000000000E+00 0.  1.
          2   -1    0    0  502    0  0.00000000000E+00 -0.00000000000E+00 -0.29545442041E+04  0.29545442041E+04  0.00000000000E+00 0. -1.
          6    1    1    2  502    0 -0.22331958048E+03  0.11668514821E+03 -0.19718298111E+04  0.19952904206E+04  0.17200000000E+03 0. -1.
         -6    1    1    2    0  501  0.22331958048E+03 -0.11668514821E+03 -0.94702101302E+03  0.99494716339E+03  0.17200000000E+03 0.  1.
</event>
<event>
 4    1  0.3211568E-002  0.3008739E+03  0.7818608E-02  0.1084805E+00
         -2   -1    0    0    0  501 -0.00000000000E+00  0.00000000000E+00  0.72260323236E+02  0.72260323236E+02  0.00000000000E+00 0.  1.
          2   -1    0    0  502    0  0.00000000000E+00 -0.00000000000E+00 -0.27194381762E+04  0.27194381762E+04  0.00000000000E+00 0. -1.
          6    1    1    2  502    0  0.16643439053E+03 -0.18232036053E+03 -0.23486878288E+04  0.23678808326E+04  0.17200000000E+03 0. -1.
         -6    1    1    2    0  501 -0.16643439053E+03  0.18232036053E+03 -0.29849002422E+03  0.42381766690E+03  0.17200000000E+03 0.  1.
</event>
<event>
 4    1  0.3211568E-002  0.3209697E+03  0.7818608E-02  0.1075204E+00
         -2   -1    0    0    0  501 -0.00000000000E+00  0.00000000000E+00  0.82306997793E+02  0.82306997793E+02  0.00000000000E+00 0.  1.
          2   -1    0    0  502    0  0.00000000000E+00 -0.00000000000E+00 -0.15038823137E+04  0.15038823137E+04  0.00000000000E+00 0. -1.
          6    1    1    2  502    0  0.26370801033E+03 -0.62415076228E+02 -0.10355738154E+04  0.10841746555E+04  0.17200000000E+03 0. -1.
         -6    1    1    2    0  501 -0.26370801033E+03  0.62415076228E+02 -0.38600150050E+03  0.50201465600E+03  0.17200000000E+03 0.  1.
</event>
<event>
 4    1  0.3211568E-002  0.2017863E+03  0.7818608E-02  0.1148241E+00
          1   -1    0    0  502    0  0.00000000000E+00  0.00000000000E+00  0.44167753853E+03  0.44167753853E+03  0.00000000000E+00 0. -1.
         -1   -1    0    0    0  501 -0.00000000000E+00 -0.00000000000E+00 -0.98076213134E+02  0.98076213134E+02  0.00000000000E+00 0.  1.
          6    1    1    2  502    0 -0.98330422801E+02 -0.38273244952E+02  0.23792279223E+03  0.31196949913E+03  0.17200000000E+03 0. -1.
         -6    1    1    2    0  501  0.98330422801E+02  0.38273244952E+02  0.10567853316E+03  0.22778425253E+03  0.17200000000E+03 0.  1.
</event>
<event>
 4    1  0.3211568E-002  0.2497454E+03  0.7818608E-02  0.1113466E+00
         -2   -1    0    0    0  501 -0.00000000000E+00  0.00000000000E+00  0.13436691616E+03  0.13436691616E+03  0.00000000000E+00 0.  1.
          2   -1    0    0  502    0  0.00000000000E+00 -0.00000000000E+00 -0.20104689561E+04  0.20104689561E+04  0.00000000000E+00 0. -1.
          6    1    1    2  502    0 -0.24242209780E+02  0.17944665263E+03 -0.18785498364E+04  0.18950784348E+04  0.17200000000E+03 0. -1.
         -6    1    1    2    0  501  0.24242209780E+02 -0.17944665263E+03  0.24477965177E+01  0.24975743749E+03  0.17200000000E+03 0. -1.
</event>
<event>
 4    1  0.3211568E-002  0.2048441E+03  0.7818608E-02  0.1145715E+00
         -1   -1    0    0    0  501 -0.00000000000E+00  0.00000000000E+00  0.31455746635E+02  0.31455746635E+02  0.00000000000E+00 0.  1.
          1   -1    0    0  502    0  0.00000000000E+00 -0.00000000000E+00 -0.14699040434E+04  0.14699040434E+04  0.00000000000E+00 0. -1.
          6    1    1    2  502    0 -0.84112253099E+02 -0.72816556954E+02 -0.94750492648E+03  0.96939502155E+03  0.17200000000E+03 0. -1.
         -6    1    1    2    0  501  0.84112253099E+02  0.72816556954E+02 -0.49094337026E+03  0.53196476847E+03  0.17200000000E+03 0.  1.
</event>
<event>
 4    1  0.3211568E-002  0.3517818E+03  0.7818608E-02  0.1061886E+00
          2   -1    0    0  502    0  0.00000000000E+00  0.00000000000E+00  0.34185626604E+03  0.34185626604E+03  0.00000000000E+00 0. -1.
         -2   -1    0    0    0  501 -0.00000000000E+00 -0.00000000000E+00 -0.36289397999E+03  0.36289397999E+03  0.00000000000E+00 0.  1.
          6    1    1    2  502    0 -0.46562587306E+02  0.30331228033E+03 -0.28052852396E+02  0.35289853565E+03  0.17200000000E+03 0. -1.
         -6    1    1    2    0  501  0.46562587306E+02 -0.30331228033E+03  0.70151384489E+01  0.35185171039E+03  0.17200000000E+03 0.  1.
</event>
<event>
 4    1  0.3211568E-002  0.3361892E+03  0.7818608E-02  0.1068431E+00
          2   -1    0    0  502    0  0.00000000000E+00  0.00000000000E+00  0.96229052585E+03  0.96229052585E+03  0.00000000000E+00 0. -1.
         -2   -1    0    0    0  501 -0.00000000000E+00 -0.00000000000E+00 -0.14588693043E+03  0.14588693043E+03  0.00000000000E+00 0.  1.
          6    1    1    2  502    0  0.16774702449E+03 -0.23515972239E+03  0.16357979275E+03  0.37387365226E+03  0.17200000000E+03 0. -1.
         -6    1    1    2    0  501 -0.16774702449E+03  0.23515972239E+03  0.65282380267E+03  0.73430380401E+03  0.17200000000E+03 0. -1.
</event>
<event>
 4    1  0.3211568E-002  0.2310927E+03  0.7818608E-02  0.1125873E+00
          2   -1    0    0  502    0  0.00000000000E+00  0.00000000000E+00  0.30166758743E+03  0.30166758743E+03  0.00000000000E+00 0. -1.
         -2   -1    0    0    0  501 -0.00000000000E+00 -0.00000000000E+00 -0.18644386965E+03  0.18644386965E+03  0.00000000000E+00 0.  1.
          6    1    1    2  502    0 -0.89681861202E+02  0.12560657432E+03  0.11245558706E+03  0.25700215330E+03  0.17200000000E+03 0. -1.
         -6    1    1    2    0  501  0.89681861202E+02 -0.12560657432E+03  0.27681307234E+01  0.23110930377E+03  0.17200000000E+03 0. -1.
</event>
<event>
 4    1  0.3211568E-002  0.3353761E+03  0.7818608E-02  0.1068783E+00
          2   -1    0    0  502    0  0.00000000000E+00  0.00000000000E+00  0.28844260471E+03  0.28844260471E+03  0.00000000000E+00 0. -1.
         -2   -1    0    0    0  501 -0.00000000000E+00 -0.00000000000E+00 -0.11823108420E+04  0.11823108420E+04  0.00000000000E+00 0.  1.
          6    1    1    2  502    0 -0.27356661564E+03  0.89746440105E+02  0.15507985051E+03  0.36949543534E+03  0.17200000000E+03 0. -1.
         -6    1    1    2    0  501  0.27356661564E+03 -0.89746440105E+02 -0.10489480878E+04  0.11012580114E+04  0.17200000000E+03 0.  1.
</event>
<event>
 4    1  0.3211568E-002  0.1939272E+03  0.7818608E-02  0.1154966E+00
         -1   -1    0    0    0  501 -0.00000000000E+00  0.00000000000E+00  0.35352723638E+02  0.35352723638E+02  0.00000000000E+00 0.  1.
          1   -1    0    0  502    0  0.00000000000E+00 -0.00000000000E+00 -0.10815532536E+04  0.10815532536E+04  0.00000000000E+00 0. -1.
          6    1    1    2  502    0  0.74467727385E+02 -0.49782552628E+02 -0.59467644142E+03  0.62549805352E+03  0.17200000000E+03 0.  1.
         -6    1    1    2    0  501 -0.74467727385E+02  0.49782552628E+02 -0.45152408857E+03  0.49140792375E+03  0.17200000000E+03 0. -1.
</event>
<event>
 4    1  0.3211568E-002  0.1782600E+03  0.7818608E-02  0.1169498E+00
          2   -1    0    0  502    0  0.00000000000E+00  0.00000000000E+00  0.29274500476E+03  0.29274500476E+03  0.00000000000E+00 0. -1.
         -2   -1    0    0    0  501 -0.00000000000E+00 -0.00000000000E+00 -0.13836488893E+03  0.13836488893E+03  0.00000000000E+00 0.  1.
          6    1    1    2  502    0  0.20803530988E+02 -0.41950621136E+02  0.17725507182E+03  0.25138815008E+03  0.17200000000E+03 0. -1.
         -6    1    1    2    0  501 -0.20803530988E+02  0.41950621136E+02 -0.22874955995E+02  0.17972174361E+03  0.17200000000E+03 0.  1.
</event>
<event>
 4    1  0.3211568E-002  0.2224985E+03  0.7818608E-02  0.1132034E+00
         -1   -1    0    0    0  501 -0.00000000000E+00  0.00000000000E+00  0.10080173585E+03  0.10080173585E+03  0.00000000000E+00 0.  1.
          1   -1    0    0  502    0  0.00000000000E+00 -0.00000000000E+00 -0.52708692653E+03  0.52708692653E+03  0.00000000000E+00 0. -1.
          6    1    1    2  502    0  0.12012569502E+03 -0.74104120441E+02 -0.29515355351E+03  0.36962308291E+03  0.17200000000E+03 0. -1.
         -6    1    1    2    0  501 -0.12012569502E+03  0.74104120441E+02 -0.13113163717E+03  0.25826557946E+03  0.17200000000E+03 0.  1.
</event>
<event>
 4    1  0.3211568E-002  0.2429136E+03  0.7818608E-02  0.1117867E+00
          2   -1    0    0  502    0  0.00000000000E+00  0.00000000000E+00  0.10039571235E+04  0.10039571235E+04  0.00000000000E+00 0. -1.
         -2   -1    0    0    0  501 -0.00000000000E+00 -0.00000000000E+00 -0.14099700172E+03  0.14099700172E+03  0.00000000000E+00 0.  1.
          6    1    1    2  502    0  0.72389725495E+01  0.17137854083E+03 -0.56882581818E+01  0.24298017051E+03  0.17200000000E+03 0.  1.
         -6    1    1    2    0  501 -0.72389725495E+01 -0.17137854083E+03  0.86864837999E+03  0.90197395475E+03  0.17200000000E+03 0. -1.
</event>
<event>
 4    1  0.3211568E-002  0.2974756E+03  0.7818608E-02  0.1086509E+00
         -1   -1    0    0    0  501 -0.00000000000E+00  0.00000000000E+00  0.27698083316E+03  0.27698083316E+03  0.00000000000E+00 0.  1.
          1   -1    0    0  502    0  0.00000000000E+00 -0.00000000000E+00 -0.33048619611E+03  0.33048619611E+03  0.00000000000E+00 0. -1.
          6    1    1    2  502    0  0.16879601834E+03  0.17440073058E+03 -0.82164339528E+02  0.30861414310E+03  0.17200000000E+03 0. -1.
         -6    1    1    2    0  501 -0.16879601834E+03 -0.17440073058E+03  0.28658976581E+02  0.29885288617E+03  0.17200000000E+03 0.  1.
</event>
<event>
 4    1  0.3211568E-002  0.1785626E+03  0.7818608E-02  0.1169201E+00
          2   -1    0    0  502    0  0.00000000000E+00  0.00000000000E+00  0.75082810227E+03  0.75082810227E+03  0.00000000000E+00 0. -1.
         -2   -1    0    0    0  501 -0.00000000000E+00 -0.00000000000E+00 -0.42563311122E+02  0.42563311122E+02  0.00000000000E+00 0.  1.
          6    1    1    2  502    0 -0.75263691259E+01 -0.47370366961E+02  0.37310923621E+03  0.41363643462E+03  0.17200000000E+03 0. -1.
         -6    1    1    2    0  501  0.75263691259E+01  0.47370366961E+02  0.33515555494E+03  0.37975497877E+03  0.17200000000E+03 0.  1.
</event>
<event>
 4    1  0.3211568E-002  0.1991009E+03  0.7818608E-02  0.1150500E+00
          1   -1    0    0  502    0  0.00000000000E+00  0.00000000000E+00  0.18104477452E+03  0.18104477452E+03  0.00000000000E+00 0. -1.
         -1   -1    0    0    0  501 -0.00000000000E+00 -0.00000000000E+00 -0.21900662974E+03  0.21900662974E+03  0.00000000000E+00 0.  1.
          6    1    1    2  502    0 -0.13153363576E+02 -0.99419041908E+02 -0.21969144139E+02  0.20030926130E+03  0.17200000000E+03 0.  1.
         -6    1    1    2    0  501  0.13153363576E+02  0.99419041908E+02 -0.15992711079E+02  0.19974214296E+03  0.17200000000E+03 0.  1.
</event>
<event>
 4    1  0.3211568E-002  0.2880966E+03  0.7818608E-02  0.1091347E+00
         -1   -1    0    0    0  501 -0.00000000000E+00  0.00000000000E+00  0.43702667280E+02  0.43702667280E+02  0.00000000000E+00 0.  1.
          1   -1    0    0  502    0  0.00000000000E+00 -0.00000000000E+00 -0.19533366580E+04  0.19533366580E+04  0.00000000000E+00 0. -1.
          6    1    1    2  502    0 -0.19109105620E+03 -0.12999937404E+03 -0.11210654201E+04  0.11574918164E+04  0.17200000000E+03 0. -1.
         -6    1    1    2    0  501  0.19109105620E+03  0.12999937404E+03 -0.78856857066E+03  0.83954750886E+03  0.17200000000E+03 0.  1.
</event>
<event>
 4    1  0.3211568E-002  0.2579001E+03  0.7818608E-02  0.1108411E+00
         -1   -1    0    0    0  501 -0.00000000000E+00  0.00000000000E+00  0.38744342187E+02  0.38744342187E+02  0.00000000000E+00 0.  1.
          1   -1    0    0  502    0  0.00000000000E+00 -0.00000000000E+00 -0.22897682561E+04  0.22897682561E+04  0.00000000000E+00 0. -1.
          6    1    1    2  502    0 -0.19214285277E+03 -0.30958054846E+01 -0.17079577884E+04  0.17273193876E+04  0.17200000000E+03 0.  1.
         -6    1    1    2    0  501  0.19214285277E+03  0.30958054846E+01 -0.54306612556E+03  0.60119321072E+03  0.17200000000E+03 0.  1.
</event>
<event>
 4    1  0.3211568E-002  0.1791908E+03  0.7818608E-02  0.1168589E+00
         -1   -1    0    0    0  501 -0.00000000000E+00  0.00000000000E+00  0.22591634536E+02  0.22591634536E+02  0.00000000000E+00 0.  1.
          1   -1    0    0  502    0  0.00000000000E+00 -0.00000000000E+00 -0.17200177879E+04  0.17200177879E+04  0.00000000000E+00 0. -1.
          6    1    1    2  502    0  0.91528678011E+01  0.49412197185E+02 -0.48560244901E+03  0.51760900176E+03  0.17200000000E+03 0.  1.
         -6    1    1    2    0  501 -0.91528678011E+01 -0.49412197185E+02 -0.12118237043E+04  0.12250004207E+04  0.17200000000E+03 0. -1.
</event>
<event>
 4    1  0.3211568E-002  0.2468378E+03  0.7818608E-02  0.1115320E+00
         -2   -1    0    0    0  501 -0.00000000000E+00  0.00000000000E+00  0.35719497839E+02  0.35719497839E+02  0.00000000000E+00 0.  1.
          2   -1    0    0  502    0  0.00000000000E+00 -0.00000000000E+00 -0.19707280549E+04  0.19707280549E+04  0.00000000000E+00 0. -1.
          6    1    1    2  502    0 -0.11271003585E+03  0.13653338505E+03 -0.13353626224E+04  0.13579846283E+04  0.17200000000E+03 0. -1.
         -6    1    1    2    0  501  0.11271003585E+03 -0.13653338505E+03 -0.59964593475E+03  0.64846292452E+03  0.17200000000E+03 0.  1.
</event>
<event>
 4    1  0.3211568E-002  0.1987628E+03  0.7818608E-02  0.1150787E+00
          1   -1    0    0  502    0  0.00000000000E+00  0.00000000000E+00  0.75271085123E+02  0.75271085123E+02  0.00000000000E+00 0. -1.
         -1   -1    0    0    0  501 -0.00000000000E+00 -0.00000000000E+00 -0.53253079661E+03  0.53253079661E+03  0.00000000000E+00 0.  1.
          6    1    1    2  502    0 -0.96780410869E+01 -0.99141213556E+02 -0.26510789144E+03  0.33134398864E+03  0.17200000000E+03 0. -1.
         -6    1    1    2    0  501  0.96780410869E+01  0.99141213556E+02 -0.19215182004E+03  0.27645789309E+03  0.17200000000E+03 0.  1.
</event>
<event>
 4    1  0.3211568E-002  0.1776141E+03  0.7818608E-02  0.1170132E+00
         -2   -1    0    0    0  501 -0.00000000000E+00  0.00000000000E+00  0.11280678264E+03  0.11280678264E+03  0.00000000000E+00 0.  1.
          2   -1    0    0  502    0  0.00000000000E+00 -0.00000000000E+00 -0.58767528208E+03  0.58767528208E+03  0.00000000000E+00 0. -1.
          6    1    1    2  502    0  0.34751173144E+02 -0.27479344448E+02  0.16130780707E+02  0.17834506018E+03  0.17200000000E+03 0.  1.
         -6    1    1    2    0  501 -0.34751173144E+02  0.27479344448E+02 -0.49099928015E+03  0.52213700454E+03  0.17200000000E+03 0. -1.
</event>
<event>
 4    1  0.3211568E-002  0.2617060E+03  0.7818608E-02  0.1106123E+00
          1   -1    0    0  502    0  0.00000000000E+00  0.00000000000E+00  0.56896339414E+03  0.56896339414E+03  0.00000000000E+00 0. -1.
         -1   -1    0    0    0  501 -0.00000000000E+00 -0.00000000000E+00 -0.21838403759E+03  0.21838403759E+03  0.00000000000E+00 0.  1.
          6    1    1    2  502    0 -0.87159335073E+02  0.17694421612E+03  0.43901692394E+03  0.51110259715E+03  0.17200000000E+03 0. -1.
         -6    1    1    2    0  501  0.87159335073E+02 -0.17694421612E+03 -0.88437567387E+02  0.27624483458E+03  0.17200000000E+03 0.  1.
</event>
<event>
 4    1  0.3211568E-002  0.3304944E+03  0.7818608E-02  0.1070918E+00
         -4   -1    0    0    0  501 -0.00000000000E+00  0.00000000000E+00  0.39278751993E+03  0.39278751993E+03  0.00000000000E+00 0.  1.
          4   -1    0    0  502    0  0.00000000000E+00 -0.00000000000E+00 -0.32444630411E+03  0.32444630411E+03  0.00000000000E+00 0. -1.
          6    1    1    2  502    0 -0.27563913467E+03 -0.60544101498E+02  0.16973904726E+03  0.37153447344E+03  0.17200000000E+03 0. -1.
         -6    1    1    2    0  501  0.27563913467E+03  0.60544101498E+02 -0.10139783144E+03  0.34569935060E+03  0.17200000000E+03 0.  1.
</event>
<event>
 4    1  0.3211568E-002  0.1783230E+03  0.7818608E-02  0.1169436E+00
          2   -1    0    0  502    0  0.00000000000E+00  0.00000000000E+00  0.33711917322E+04  0.33711917322E+04  0.00000000000E+00 0. -1.
         -2   -1    0    0    0  501 -0.00000000000E+00 -0.00000000000E+00 -0.10324420539E+02  0.10324420539E+02  0.00000000000E+00 0.  1.
          6    1    1    2  502    0  0.34614187036E+02 -0.31889434518E+02  0.21773567486E+04  0.21846467652E+04  0.17200000000E+03 0. -1.
         -6    1    1    2    0  501 -0.34614187036E+02  0.31889434518E+02  0.11835105631E+04  0.11968693876E+04  0.17200000000E+03 0.  1.
</event>
<event>
 4    1  0.3211568E-002  0.2167727E+03  0.7818608E-02  0.1136312E+00
         -2   -1    0    0    0  501 -0.00000000000E+00  0.00000000000E+00  0.92964865432E+02  0.92964865432E+02  0.00000000000E+00 0.  1.
          2   -1    0    0  502    0  0.00000000000E+00 -0.00000000000E+00 -0.86284579266E+03  0.86284579266E+03  0.00000000000E+00 0. -1.
          6    1    1    2  502    0  0.52882194036E+02  0.12087134929E+03 -0.69250862904E+03  0.72564358388E+03  0.17200000000E+03 0. -1.
         -6    1    1    2    0  501 -0.52882194036E+02 -0.12087134929E+03 -0.77372298181E+02  0.23016707421E+03  0.17200000000E+03 0.  1.
</event>
<event>
 4    1  0.3211568E-002  0.6736070E+03  0.7818608E-02  0.9763464E-01
          1   -1    0    0  502    0  0.00000000000E+00  0.00000000000E+00  0.22893253209E+04  0.22893253209E+04  0.00000000000E+00 0. -1.
         -1   -1    0    0    0  501 -0.00000000000E+00 -0.00000000000E+00 -0.23224027752E+03  0.23224027752E+03  0.00000000000E+00 0.  1.
          6    1    1    2  502    0  0.84152946267E+01  0.65122317014E+03  0.15112255657E+04  0.16545540622E+04  0.17200000000E+03 0.  1.
         -6    1    1    2    0  501 -0.84152946267E+01 -0.65122317014E+03  0.54585947774E+03  0.86701153622E+03  0.17200000000E+03 0.  1.
</event>
<event>
 4    1  0.3211568E-002  0.2982271E+03  0.7818608E-02  0.1086130E+00
         -1   -1    0    0    0  501 -0.00000000000E+00  0.00000000000E+00  0.60087981103E+03  0.60087981103E+03  0.00000000000E+00 0.  1.
          1   -1    0    0  502    0  0.00000000000E+00 -0.00000000000E+00 -0.32744151268E+03  0.32744151268E+03  0.00000000000E+00 0. -1.
          6    1    1    2  502    0 -0.14444470148E+03 -0.19619158451E+03 -0.20687392292E+03  0.36295485891E+03  0.17200000000E+03 0. -1.
         -6    1    1    2    0  501  0.14444470148E+03  0.19619158451E+03  0.48031222127E+03  0.56536646480E+03  0.17200000000E+03 0.  1.
</event>
<event>
 4    1  0.3211568E-002  0.1829562E+03  0.7818608E-02  0.1164972E+00
          1   -1    0    0  502    0  0.00000000000E+00  0.00000000000E+00  0.68306330040E+02  0.68306330040E+02  0.00000000000E+00 0. -1.
         -1   -1    0    0    0  501 -0.00000000000E+00 -0.00000000000E+00 -0.49141011367E+03  0.49141011367E+03  0.00000000000E+00 0.  1.
          6    1    1    2  502    0 -0.61925803530E+02  0.73595999778E+01 -0.19678527049E+03  0.26869576018E+03  0.17200000000E+03 0. -1.
         -6    1    1    2    0  501  0.61925803530E+02 -0.73595999778E+01 -0.22631851313E+03  0.29102068353E+03  0.17200000000E+03 0.  1.
</event>
<event>
 4    1  0.3211568E-002  0.2931575E+03  0.7818608E-02  0.1088712E+00
         -2   -1    0    0    0  501 -0.00000000000E+00  0.00000000000E+00  0.12224823867E+03  0.12224823867E+03  0.00000000000E+00 0.  1.
          2   -1    0    0  502    0  0.00000000000E+00 -0.00000000000E+00 -0.75338467969E+03  0.75338467969E+03  0.00000000000E+00 0. -1.
          6    1    1    2  502    0 -0.60360130214E+02 -0.22959526067E+03 -0.42878326183E+03  0.51941930525E+03  0.17200000000E+03 0. -1.
         -6    1    1    2    0  501  0.60360130214E+02  0.22959526067E+03 -0.20235317919E+03  0.35621361312E+03  0.17200000000E+03 0.  1.
</event>
<event>
 4    1  0.3211568E-002  0.3887390E+03  0.7818608E-02  0.1047750E+00
         -2   -1    0    0    0  501 -0.00000000000E+00  0.00000000000E+00  0.23506477308E+03  0.23506477308E+03  0.00000000000E+00 0.  1.
          2   -1    0    0  502    0  0.00000000000E+00 -0.00000000000E+00 -0.77275721983E+03  0.77275721983E+03  0.00000000000E+00 0. -1.
          6    1    1    2  502    0  0.30201888970E+03 -0.17412235965E+03 -0.47543270012E+03  0.61412886124E+03  0.17200000000E+03 0. -1.
         -6    1    1    2    0  501 -0.30201888970E+03  0.17412235965E+03 -0.62259746632E+02  0.39369313166E+03  0.17200000000E+03 0.  1.
</event>
<event>
 4    1  0.3211568E-002  0.1841848E+03  0.7818608E-02  0.1163813E+00
         -2   -1    0    0    0  501 -0.00000000000E+00  0.00000000000E+00  0.10378095759E+03  0.10378095759E+03  0.00000000000E+00 0.  1.
          2   -1    0    0  502    0  0.00000000000E+00 -0.00000000000E+00 -0.33431148198E+03  0.33431148198E+03  0.00000000000E+00 0. -1.
          6    1    1    2  502    0  0.26557488897E+02  0.60288906000E+02 -0.82609457886E+02  0.20186226724E+03  0.17200000000E+03 0.  1.
         -6    1    1    2    0  501 -0.26557488897E+02 -0.60288906000E+02 -0.14792106650E+03  0.23623017233E+03  0.17200000000E+03 0. -1.
</event>
<event>
 4    1  0.3211568E-002  0.1813353E+03  0.7818608E-02  0.1166517E+00
          1   -1    0    0  502    0  0.00000000000E+00  0.00000000000E+00  0.34114897831E+03  0.34114897831E+03  0.00000000000E+00 0. -1.
         -1   -1    0    0    0  501 -0.00000000000E+00 -0.00000000000E+00 -0.96871136863E+02  0.96871136863E+02  0.00000000000E+00 0.  1.
          6    1    1    2  502    0 -0.94898780900E+01 -0.56643056361E+02  0.13761394004E+03  0.22764026470E+03  0.17200000000E+03 0.  1.
         -6    1    1    2    0  501  0.94898780900E+01  0.56643056361E+02  0.10666390140E+03  0.21037985047E+03  0.17200000000E+03 0.  1.
</event>
<event>
 4    1  0.3211568E-002  0.2132231E+03  0.7818608E-02  0.1139039E+00
          2   -1    0    0  502    0  0.00000000000E+00  0.00000000000E+00  0.12381103860E+04  0.12381103860E+04  0.00000000000E+00 0. -1.
         -2   -1    0    0    0  501 -0.00000000000E+00 -0.00000000000E+00 -0.45406797768E+02  0.45406797768E+02  0.00000000000E+00 0.  1.
          6    1    1    2  502    0 -0.10209952725E+02 -0.12560197627E+03  0.87704199726E+03  0.90258892334E+03  0.17200000000E+03 0. -1.
         -6    1    1    2    0  501  0.10209952725E+02  0.12560197627E+03  0.31566159097E+03  0.38092826043E+03  0.17200000000E+03 0.  1.
</event>
<event>
 4    1  0.3211568E-002  0.1875370E+03  0.7818608E-02  0.1160702E+00
          2   -1    0    0  502    0  0.00000000000E+00  0.00000000000E+00  0.60601585919E+03  0.60601585919E+03  0.00000000000E+00 0. -1.
         -2   -1    0    0    0  501 -0.00000000000E+00 -0.00000000000E+00 -0.13639492105E+03  0.13639492105E+03  0.00000000000E+00 0.  1.
          6    1    1    2  502    0  0.67547148095E+02 -0.31992186613E+02  0.51617038757E+03  0.54918301706E+03  0.17200000000E+03 0. -1.
         -6    1    1    2    0  501 -0.67547148095E+02  0.31992186613E+02 -0.46549449432E+02  0.19322776318E+03  0.17200000000E+03 0.  1.
</event>
<event>
 4    1  0.3211568E-002  0.1830838E+03  0.7818608E-02  0.1164851E+00
         -1   -1    0    0    0  501 -0.00000000000E+00  0.00000000000E+00  0.98478726930E+02  0.98478726930E+02  0.00000000000E+00 0.  1.
          1   -1    0    0  502    0  0.00000000000E+00 -0.00000000000E+00 -0.34066342008E+03  0.34066342008E+03  0.00000000000E+00 0. -1.
          6    1    1    2  502    0 -0.29622526176E+02  0.55300992717E+02 -0.11470314306E+03  0.21604745979E+03  0.17200000000E+03 0. -1.
         -6    1    1    2    0  501  0.29622526176E+02 -0.55300992717E+02 -0.12748155009E+03  0.22309468722E+03  0.17200000000E+03 0.  1.
</event>
<event>
 4    1  0.3211568E-002  0.2061013E+03  0.7818608E-02  0.1144691E+00
         -2   -1    0    0    0  501 -0.00000000000E+00  0.00000000000E+00  0.67201883617E+02  0.67201883617E+02  0.00000000000E+00 0.  1.
          2   -1    0    0  502    0  0.00000000000E+00 -0.00000000000E+00 -0.83928528074E+03  0.83928528074E+03  0.00000000000E+00 0. -1.
          6    1    1    2  502    0 -0.10909426247E+03 -0.31499018239E+02 -0.61124000025E+03  0.64505200113E+03  0.17200000000E+03 0. -1.
         -6    1    1    2    0  501  0.10909426247E+03  0.31499018239E+02 -0.16084339688E+03  0.26143516323E+03  0.17200000000E+03 0.  1.
</event>
<event>
 4    1  0.3211568E-002  0.3930977E+03  0.7818608E-02  0.1046196E+00
         -2   -1    0    0    0  501 -0.00000000000E+00  0.00000000000E+00  0.13825958891E+03  0.13825958891E+03  0.00000000000E+00 0.  1.
          2   -1    0    0  502    0  0.00000000000E+00 -0.00000000000E+00 -0.13670698063E+04  0.13670698063E+04  0.00000000000E+00 0. -1.
          6    1    1    2  502    0  0.12064654729E+03 -0.33224417415E+03 -0.93589844659E+03  0.10151018092E+04  0.17200000000E+03 0. -1.
         -6    1    1    2    0  501 -0.12064654729E+03  0.33224417415E+03 -0.29291177076E+03  0.49022758600E+03  0.17200000000E+03 0.  1.
</event>
<event>
 4    1  0.3211568E-002  0.1992276E+03  0.7818608E-02  0.1150392E+00
         -2   -1    0    0    0  501 -0.00000000000E+00  0.00000000000E+00  0.72120969500E+03  0.72120969500E+03  0.00000000000E+00 0.  1.
          2   -1    0    0  502    0  0.00000000000E+00 -0.00000000000E+00 -0.17066787576E+03  0.17066787576E+03  0.00000000000E+00 0. -1.
          6    1    1    2  502    0 -0.44439835614E+02  0.90181731749E+02 -0.91791880679E+02  0.21935677124E+03  0.17200000000E+03 0. -1.
         -6    1    1    2    0  501  0.44439835614E+02 -0.90181731749E+02  0.64233369992E+03  0.67252079952E+03  0.17200000000E+03 0.  1.
</event>
<event>
 4    1  0.3211568E-002  0.2625257E+03  0.7818608E-02  0.1105635E+00
         -1   -1    0    0    0  501 -0.00000000000E+00  0.00000000000E+00  0.30657289708E+03  0.30657289708E+03  0.00000000000E+00 0.  1.
          1   -1    0    0  502    0  0.00000000000E+00 -0.00000000000E+00 -0.23965928017E+03  0.23965928017E+03  0.00000000000E+00 0. -1.
          6    1    1    2  502    0 -0.17247208464E+03 -0.97924052450E+02  0.10144702169E+03  0.28144491155E+03  0.17200000000E+03 0. -1.
         -6    1    1    2    0  501  0.17247208464E+03  0.97924052450E+02 -0.34533404785E+02  0.26478726570E+03  0.17200000000E+03 0.  1.
</event>
<event>
 4    1  0.3211568E-002  0.2334598E+03  0.7818608E-02  0.1124228E+00
          2   -1    0    0  502    0  0.00000000000E+00  0.00000000000E+00  0.55349653244E+03  0.55349653244E+03  0.00000000000E+00 0. -1.
         -2   -1    0    0    0  501 -0.00000000000E+00 -0.00000000000E+00 -0.10667798864E+03  0.10667798864E+03  0.00000000000E+00 0.  1.
          6    1    1    2  502    0 -0.14625360500E+03 -0.59408570301E+02  0.13185541052E+03  0.26812188363E+03  0.17200000000E+03 0. -1.
         -6    1    1    2    0  501  0.14625360500E+03  0.59408570301E+02  0.31496313328E+03  0.39205263744E+03  0.17200000000E+03 0.  1.
</event>
<event>
 4    1  0.3211568E-002  0.2282687E+03  0.7818608E-02  0.1127864E+00
          2   -1    0    0  502    0  0.00000000000E+00  0.00000000000E+00  0.71933172073E+03  0.71933172073E+03  0.00000000000E+00 0. -1.
         -2   -1    0    0    0  501 -0.00000000000E+00 -0.00000000000E+00 -0.72473610632E+02  0.72473610632E+02  0.00000000000E+00 0.  1.
          6    1    1    2  502    0  0.14865465746E+03 -0.20601109251E+02  0.33226264709E+03  0.40311918775E+03  0.17200000000E+03 0. -1.
         -6    1    1    2    0  501 -0.14865465746E+03  0.20601109251E+02  0.31459546301E+03  0.38868614361E+03  0.17200000000E+03 0.  1.
</event>
<event>
 4    1  0.3211568E-002  0.2364459E+03  0.7818608E-02  0.1122183E+00
          2   -1    0    0  502    0  0.00000000000E+00  0.00000000000E+00  0.44002192162E+03  0.44002192162E+03  0.00000000000E+00 0. -1.
         -2   -1    0    0    0  501 -0.00000000000E+00 -0.00000000000E+00 -0.16062571564E+03  0.16062571564E+03  0.00000000000E+00 0.  1.
          6    1    1    2  502    0  0.15209427830E+03 -0.56480103234E+02  0.27699703233E+03  0.36418954882E+03  0.17200000000E+03 0. -1.
         -6    1    1    2    0  501 -0.15209427830E+03  0.56480103234E+02  0.23991736493E+01  0.23645808843E+03  0.17200000000E+03 0.  1.
</event>
<event>
 4    1  0.3211568E-002  0.2460632E+03  0.7818608E-02  0.1115818E+00
          2   -1    0    0  502    0  0.00000000000E+00  0.00000000000E+00  0.80816077864E+03  0.80816077864E+03  0.00000000000E+00 0. -1.
         -2   -1    0    0    0  501 -0.00000000000E+00 -0.00000000000E+00 -0.75597076038E+02  0.75597076038E+02  0.00000000000E+00 0.  1.
          6    1    1    2  502    0 -0.97290492462E+02 -0.14662072144E+03  0.32445065384E+03  0.40720425177E+03  0.17200000000E+03 0. -1.
         -6    1    1    2    0  501  0.97290492462E+02  0.14662072144E+03  0.40811304876E+03  0.47655360291E+03  0.17200000000E+03 0.  1.
</event>
<event>
 4    1  0.3211568E-002  0.2314501E+03  0.7818608E-02  0.1125623E+00
         -2   -1    0    0    0  501 -0.00000000000E+00  0.00000000000E+00  0.16542228280E+02  0.16542228280E+02  0.00000000000E+00 0.  1.
          2   -1    0    0  502    0  0.00000000000E+00 -0.00000000000E+00 -0.36577574095E+04  0.36577574095E+04  0.00000000000E+00 0. -1.
          6    1    1    2  502    0 -0.99913898538E+02  0.11833153354E+03 -0.24427176948E+04  0.24536582637E+04  0.17200000000E+03 0. -1.
         -6    1    1    2    0  501  0.99913898538E+02 -0.11833153354E+03 -0.11984974864E+04  0.12206413740E+04  0.17200000000E+03 0.  1.
</event>
<event>
 4    1  0.3211568E-002  0.2194769E+03  0.7818608E-02  0.1134274E+00
          1   -1    0    0  502    0  0.00000000000E+00  0.00000000000E+00  0.12881124515E+03  0.12881124515E+03  0.00000000000E+00 0. -1.
         -1   -1    0    0    0  501 -0.00000000000E+00 -0.00000000000E+00 -0.38573112053E+03  0.38573112053E+03  0.00000000000E+00 0.  1.
          6    1    1    2  502    0 -0.12762228413E+03  0.47944179593E+02 -0.83514995032E+02  0.23482939799E+03  0.17200000000E+03 0.  1.
         -6    1    1    2    0  501  0.12762228413E+03 -0.47944179593E+02 -0.17340488035E+03  0.27971296769E+03  0.17200000000E+03 0.  1.
</event>
<event>
 4    1  0.3211568E-002  0.2429925E+03  0.7818608E-02  0.1117815E+00
          2   -1    0    0  502    0  0.00000000000E+00  0.00000000000E+00  0.60961208154E+03  0.60961208154E+03  0.00000000000E+00 0. -1.
         -2   -1    0    0    0  501 -0.00000000000E+00 -0.00000000000E+00 -0.25309910406E+03  0.25309910406E+03  0.00000000000E+00 0.  1.
          6    1    1    2  502    0 -0.83587373445E+02  0.14991499852E+03  0.51716994129E+03  0.57141062639E+03  0.17200000000E+03 0. -1.
         -6    1    1    2    0  501  0.83587373445E+02 -0.14991499852E+03 -0.16065696380E+03  0.29130055921E+03  0.17200000000E+03 0.  1.
</event>
<event>
 4    1  0.3211568E-002  0.2230524E+03  0.7818608E-02  0.1131628E+00
         -1   -1    0    0    0  501 -0.00000000000E+00  0.00000000000E+00  0.19307966352E+03  0.19307966352E+03  0.00000000000E+00 0.  1.
          1   -1    0    0  502    0  0.00000000000E+00 -0.00000000000E+00 -0.33138806331E+03  0.33138806331E+03  0.00000000000E+00 0. -1.
          6    1    1    2  502    0 -0.83025155391E+02  0.11521794794E+03 -0.19282984555E+03  0.29484860741E+03  0.17200000000E+03 0. -1.
         -6    1    1    2    0  501  0.83025155391E+02 -0.11521794794E+03  0.54521445755E+02  0.22961911942E+03  0.17200000000E+03 0.  1.
</event>
<event>
 4    1  0.3211568E-002  0.2688779E+03  0.7818608E-02  0.1101924E+00
          2   -1    0    0  502    0  0.00000000000E+00  0.00000000000E+00  0.15232447066E+03  0.15232447066E+03  0.00000000000E+00 0. -1.
         -2   -1    0    0    0  501 -0.00000000000E+00 -0.00000000000E+00 -0.52856751302E+03  0.52856751302E+03  0.00000000000E+00 0.  1.
          6    1    1    2  502    0 -0.80907344446E+01 -0.20650874847E+03 -0.79351819151E+02  0.28034270881E+03  0.17200000000E+03 0. -1.
         -6    1    1    2    0  501  0.80907344446E+01  0.20650874847E+03 -0.29689122321E+03  0.40054927487E+03  0.17200000000E+03 0.  1.
</event>
<event>
 4    1  0.3211568E-002  0.1866621E+03  0.7818608E-02  0.1161507E+00
         -2   -1    0    0    0  501 -0.00000000000E+00  0.00000000000E+00  0.41125451141E+02  0.41125451141E+02  0.00000000000E+00 0.  1.
          2   -1    0    0  502    0  0.00000000000E+00 -0.00000000000E+00 -0.86673523491E+03  0.86673523491E+03  0.00000000000E+00 0. -1.
          6    1    1    2  502    0 -0.32714396923E+02 -0.64718619795E+02 -0.34470955499E+03  0.39200434796E+03  0.17200000000E+03 0. -1.
         -6    1    1    2    0  501  0.32714396923E+02  0.64718619795E+02 -0.48090022877E+03  0.51585633809E+03  0.17200000000E+03 0. -1.
</event>
<event>
 4    1  0.3211568E-002  0.1883907E+03  0.7818608E-02  0.1159921E+00
          1   -1    0    0  502    0  0.00000000000E+00  0.00000000000E+00  0.20069322196E+04  0.20069322196E+04  0.00000000000E+00 0. -1.
         -1   -1    0    0    0  501 -0.00000000000E+00 -0.00000000000E+00 -0.79997660125E+02  0.79997660125E+02  0.00000000000E+00 0.  1.
          6    1    1    2  502    0 -0.46644995925E+02  0.61084231159E+02  0.18844045926E+04  0.18937982225E+04  0.17200000000E+03 0. -1.
         -6    1    1    2    0  501  0.46644995925E+02 -0.61084231159E+02  0.42529966881E+02  0.19313165723E+03  0.17200000000E+03 0.  1.
</event>
<event>
 4    1  0.3211568E-002  0.3511120E+03  0.7818608E-02  0.1062160E+00
          2   -1    0    0  502    0  0.00000000000E+00  0.00000000000E+00  0.80730205711E+03  0.80730205711E+03  0.00000000000E+00 0. -1.
         -2   -1    0    0    0  501 -0.00000000000E+00 -0.00000000000E+00 -0.15798948269E+03  0.15798948269E+03  0.00000000000E+00 0.  1.
          6    1    1    2  502    0  0.22251265012E+03  0.21019936477E+03  0.41292067876E+03  0.54201765595E+03  0.17200000000E+03 0. -1.
         -6    1    1    2    0  501 -0.22251265012E+03 -0.21019936477E+03  0.23639189566E+03  0.42327388385E+03  0.17200000000E+03 0.  1.
</event>
<event>
 4    1  0.3211568E-002  0.2447209E+03  0.7818608E-02  0.1116687E+00
          1   -1    0    0  502    0  0.00000000000E+00  0.00000000000E+00  0.10037754845E+04  0.10037754845E+04  0.00000000000E+00 0. -1.
         -1   -1    0    0    0  501 -0.00000000000E+00 -0.00000000000E+00 -0.10200403442E+03  0.10200403442E+03  0.00000000000E+00 0.  1.
          6    1    1    2  502    0  0.10912617149E+03  0.13563108752E+03  0.80709917610E+03  0.84338448722E+03  0.17200000000E+03 0. -1.
         -6    1    1    2    0  501 -0.10912617149E+03 -0.13563108752E+03  0.94672273981E+02  0.26239503171E+03  0.17200000000E+03 0.  1.
</event>
<event>
 4    1  0.3211568E-002  0.3145017E+03  0.7818608E-02  0.1078208E+00
         -1   -1    0    0    0  501 -0.00000000000E+00  0.00000000000E+00  0.36689818034E+02  0.36689818034E+02  0.00000000000E+00 0.  1.
          1   -1    0    0  502    0  0.00000000000E+00 -0.00000000000E+00 -0.29434046323E+04  0.29434046323E+04  0.00000000000E+00 0. -1.
          6    1    1    2  502    0 -0.24891281144E+03  0.85847186810E+02 -0.18854578642E+04  0.19115079610E+04  0.17200000000E+03 0. -1.
         -6    1    1    2    0  501  0.24891281144E+03 -0.85847186810E+02 -0.10212569500E+04  0.10685864893E+04  0.17200000000E+03 0.  1.
</event>
<event>
 4    1  0.3211568E-002  0.3175751E+03  0.7818608E-02  0.1076771E+00
         -2   -1    0    0    0  501 -0.00000000000E+00  0.00000000000E+00  0.68571239123E+02  0.68571239123E+02  0.00000000000E+00 0.  1.
          2   -1    0    0  502    0  0.00000000000E+00 -0.00000000000E+00 -0.14797627544E+04  0.14797627544E+04  0.00000000000E+00 0. -1.
          6    1    1    2  502    0  0.68361622533E+02 -0.25806319352E+03 -0.76587818553E+03  0.82910995553E+03  0.17200000000E+03 0. -1.
         -6    1    1    2    0  501 -0.68361622533E+02  0.25806319352E+03 -0.64531332976E+03  0.71922403801E+03  0.17200000000E+03 0.  1.
</event>
<event>
 4    1  0.3211568E-002  0.2341358E+03  0.7818608E-02  0.1123762E+00
         -2   -1    0    0    0  501 -0.00000000000E+00  0.00000000000E+00  0.37904580075E+03  0.37904580075E+03  0.00000000000E+00 0.  1.
          2   -1    0    0  502    0  0.00000000000E+00 -0.00000000000E+00 -0.18267381148E+03  0.18267381148E+03  0.00000000000E+00 0. -1.
          6    1    1    2  502    0  0.14380558226E+03 -0.67494733058E+02 -0.29994134913E+02  0.23604921650E+03  0.17200000000E+03 0. -1.
         -6    1    1    2    0  501 -0.14380558226E+03  0.67494733058E+02  0.22636612418E+03  0.32567039574E+03  0.17200000000E+03 0.  1.
</event>
<event>
 4    1  0.3211568E-002  0.3743186E+03  0.7818608E-02  0.1053054E+00
         -2   -1    0    0    0  501 -0.00000000000E+00  0.00000000000E+00  0.83369263335E+02  0.83369263335E+02  0.00000000000E+00 0.  1.
          2   -1    0    0  502    0  0.00000000000E+00 -0.00000000000E+00 -0.41032216737E+04  0.41032216737E+04  0.00000000000E+00 0. -1.
          6    1    1    2  502    0  0.25480804067E+03  0.21354921347E+03 -0.36183723351E+04  0.36376823335E+04  0.17200000000E+03 0. -1.
         -6    1    1    2    0  501 -0.25480804067E+03 -0.21354921347E+03 -0.40148007521E+03  0.54890860346E+03  0.17200000000E+03 0.  1.
</event>
<event>
 4    1  0.3211568E-002  0.2495678E+03  0.7818608E-02  0.1113578E+00
          1   -1    0    0  502    0  0.00000000000E+00  0.00000000000E+00  0.56212316275E+03  0.56212316275E+03  0.00000000000E+00 0. -1.
         -1   -1    0    0    0  501 -0.00000000000E+00 -0.00000000000E+00 -0.12367129118E+03  0.12367129118E+03  0.00000000000E+00 0.  1.
          6    1    1    2  502    0  0.12577302920E+03 -0.12992784939E+03  0.32984116822E+03  0.41361733181E+03  0.17200000000E+03 0. -1.
         -6    1    1    2    0  501 -0.12577302920E+03  0.12992784939E+03  0.10861070335E+03  0.27217712212E+03  0.17200000000E+03 0. -1.
</event>
<event>
 4    1  0.3211568E-002  0.1858318E+03  0.7818608E-02  0.1162275E+00
         -2   -1    0    0    0  501 -0.00000000000E+00  0.00000000000E+00  0.13087234615E+02  0.13087234615E+02  0.00000000000E+00 0.  1.
          2   -1    0    0  502    0  0.00000000000E+00 -0.00000000000E+00 -0.29987670779E+04  0.29987670779E+04  0.00000000000E+00 0. -1.
          6    1    1    2  502    0  0.58449214677E+02 -0.39155328855E+02 -0.20146551207E+04  0.20232075291E+04  0.17200000000E+03 0. -1.
         -6    1    1    2    0  501 -0.58449214677E+02  0.39155328855E+02 -0.97102472265E+03  0.98864678347E+03  0.17200000000E+03 0.  1.
</event>
<event>
 4    1  0.3211568E-002  0.2621030E+03  0.7818608E-02  0.1105886E+00
         -2   -1    0    0    0  501 -0.00000000000E+00  0.00000000000E+00  0.48710097645E+03  0.48710097645E+03  0.00000000000E+00 0.  1.
          2   -1    0    0  502    0  0.00000000000E+00 -0.00000000000E+00 -0.14249777100E+03  0.14249777100E+03  0.00000000000E+00 0. -1.
          6    1    1    2  502    0 -0.17003265600E+03  0.10100941993E+03  0.14040069314E+03  0.29733879945E+03  0.17200000000E+03 0. -1.
         -6    1    1    2    0  501  0.17003265600E+03 -0.10100941993E+03  0.20420251230E+03  0.33225994801E+03  0.17200000000E+03 0.  1.
</event>
<event>
 4    1  0.3211568E-002  0.1859620E+03  0.7818608E-02  0.1162155E+00
         -1   -1    0    0    0  501 -0.00000000000E+00  0.00000000000E+00  0.23583528035E+02  0.23583528035E+02  0.00000000000E+00 0.  1.
          1   -1    0    0  502    0  0.00000000000E+00 -0.00000000000E+00 -0.17527500541E+04  0.17527500541E+04  0.00000000000E+00 0. -1.
          6    1    1    2  502    0  0.32164023239E+02 -0.62955017570E+02 -0.50556529238E+03  0.53868183883E+03  0.17200000000E+03 0.  1.
         -6    1    1    2    0  501 -0.32164023239E+02  0.62955017570E+02 -0.12236012337E+04  0.12376517433E+04  0.17200000000E+03 0. -1.
</event>
<event>
 4    1  0.3211568E-002  0.3343906E+03  0.7818608E-02  0.1069211E+00
         -2   -1    0    0    0  501 -0.00000000000E+00  0.00000000000E+00  0.15090010312E+03  0.15090010312E+03  0.00000000000E+00 0.  1.
          2   -1    0    0  502    0  0.00000000000E+00 -0.00000000000E+00 -0.87181028955E+03  0.87181028955E+03  0.00000000000E+00 0. -1.
          6    1    1    2  502    0 -0.28019123401E+03 -0.61040494495E+02 -0.16237920739E+03  0.37173118860E+03  0.17200000000E+03 0. -1.
         -6    1    1    2    0  501  0.28019123401E+03  0.61040494495E+02 -0.55853097904E+03  0.65097920407E+03  0.17200000000E+03 0. -1.
</event>
<event>
 4    1  0.3211568E-002  0.2128373E+03  0.7818608E-02  0.1139339E+00
         -2   -1    0    0    0  501 -0.00000000000E+00  0.00000000000E+00  0.22031471829E+02  0.22031471829E+02  0.00000000000E+00 0.  1.
          2   -1    0    0  502    0  0.00000000000E+00 -0.00000000000E+00 -0.21074775252E+04  0.21074775252E+04  0.00000000000E+00 0. -1.
          6    1    1    2  502    0 -0.77311097626E+02  0.98684915825E+02 -0.12089108908E+04  0.12275036702E+04  0.17200000000E+03 0. -1.
         -6    1    1    2    0  501  0.77311097626E+02 -0.98684915825E+02 -0.87653516254E+03  0.90200532681E+03  0.17200000000E+03 0. -1.
</event>
<event>
 4    1  0.3211568E-002  0.2412122E+03  0.7818608E-02  0.1118988E+00
         -2   -1    0    0    0  501 -0.00000000000E+00  0.00000000000E+00  0.58797225240E+02  0.58797225240E+02  0.00000000000E+00 0.  1.
          2   -1    0    0  502    0  0.00000000000E+00 -0.00000000000E+00 -0.10973071049E+04  0.10973071049E+04  0.00000000000E+00 0. -1.
          6    1    1    2  502    0  0.71610807055E+02  0.15320318504E+03 -0.33811769798E+03  0.41533950123E+03  0.17200000000E+03 0. -1.
         -6    1    1    2    0  501 -0.71610807055E+02 -0.15320318504E+03 -0.70039218170E+03  0.74076482893E+03  0.17200000000E+03 0. -1.
</event>
<event>
 4    1  0.3211568E-002  0.1944784E+03  0.7818608E-02  0.1154483E+00
         -1   -1    0    0    0  501 -0.00000000000E+00  0.00000000000E+00  0.16083504649E+03  0.16083504649E+03  0.00000000000E+00 0.  1.
          1   -1    0    0  502    0  0.00000000000E+00 -0.00000000000E+00 -0.24228113303E+03  0.24228113303E+03  0.00000000000E+00 0. -1.
          6    1    1    2  502    0 -0.15810819704E+02 -0.89374965505E+02 -0.61661634535E+01  0.19457617544E+03  0.17200000000E+03 0. -1.
         -6    1    1    2    0  501  0.15810819704E+02  0.89374965505E+02 -0.75279923085E+02  0.20854000407E+03  0.17200000000E+03 0.  1.
</event>
<event>
 4    1  0.3211568E-002  0.2147475E+03  0.7818608E-02  0.1137861E+00
          1   -1    0    0  502    0  0.00000000000E+00  0.00000000000E+00  0.19840704410E+04  0.19840704410E+04  0.00000000000E+00 0. -1.
         -1   -1    0    0    0  501 -0.00000000000E+00 -0.00000000000E+00 -0.23361352528E+02  0.23361352528E+02  0.00000000000E+00 0.  1.
          6    1    1    2  502    0  0.11350489663E+03 -0.60407937406E+02  0.90902435846E+03  0.93404591147E+03  0.17200000000E+03 0.  1.
         -6    1    1    2    0  501 -0.11350489663E+03  0.60407937406E+02  0.10516847300E+04  0.10733858821E+04  0.17200000000E+03 0.  1.
</event>
<event>
 4    1  0.3211568E-002  0.2429943E+03  0.7818608E-02  0.1117814E+00
         -2   -1    0    0    0  501 -0.00000000000E+00  0.00000000000E+00  0.45931544263E+02  0.45931544263E+02  0.00000000000E+00 0.  1.
          2   -1    0    0  502    0  0.00000000000E+00 -0.00000000000E+00 -0.17704081894E+04  0.17704081894E+04  0.00000000000E+00 0. -1.
          6    1    1    2  502    0 -0.15885802190E+03  0.65010545861E+02 -0.13375166737E+04  0.13594105688E+04  0.17200000000E+03 0. -1.
         -6    1    1    2    0  501  0.15885802190E+03 -0.65010545861E+02 -0.38695997148E+03  0.45692916488E+03  0.17200000000E+03 0.  1.
</event>
<event>
 4    1  0.3211568E-002  0.2063223E+03  0.7818608E-02  0.1144512E+00
          1   -1    0    0  502    0  0.00000000000E+00  0.00000000000E+00  0.14727790915E+04  0.14727790915E+04  0.00000000000E+00 0. -1.
         -1   -1    0    0    0  501 -0.00000000000E+00 -0.00000000000E+00 -0.35577772312E+02  0.35577772312E+02  0.00000000000E+00 0.  1.
          6    1    1    2  502    0  0.19190676239E+02 -0.11232375834E+03  0.39195490992E+03  0.44294193767E+03  0.17200000000E+03 0.  1.
         -6    1    1    2    0  501 -0.19190676239E+02  0.11232375834E+03  0.10452464093E+04  0.10654149261E+04  0.17200000000E+03 0. -1.
</event>
<event>
 4    1  0.3211568E-002  0.2393612E+03  0.7818608E-02  0.1120219E+00
          2   -1    0    0  502    0  0.00000000000E+00  0.00000000000E+00  0.25752773062E+04  0.25752773062E+04  0.00000000000E+00 0. -1.
         -2   -1    0    0    0  501 -0.00000000000E+00 -0.00000000000E+00 -0.32708208164E+02  0.32708208164E+02  0.00000000000E+00 0.  1.
          6    1    1    2  502    0  0.15578109056E+03 -0.58668670295E+02  0.53384725804E+03  0.58505269504E+03  0.17200000000E+03 0.  1.
         -6    1    1    2    0  501 -0.15578109056E+03  0.58668670295E+02  0.20087218400E+04  0.20229328194E+04  0.17200000000E+03 0. -1.
</event>
<event>
 4    1  0.3211568E-002  0.1776807E+03  0.7818608E-02  0.1170067E+00
          2   -1    0    0  502    0  0.00000000000E+00  0.00000000000E+00  0.23952617126E+03  0.23952617126E+03  0.00000000000E+00 0. -1.
         -2   -1    0    0    0  501 -0.00000000000E+00 -0.00000000000E+00 -0.15187044873E+03  0.15187044873E+03  0.00000000000E+00 0.  1.
          6    1    1    2  502    0  0.28697277372E+01  0.44476980117E+02  0.11496376883E+03  0.21162964169E+03  0.17200000000E+03 0. -1.
         -6    1    1    2    0  501 -0.28697277372E+01 -0.44476980117E+02 -0.27308046296E+02  0.17976697831E+03  0.17200000000E+03 0.  1.
</event>
<event>
 4    1  0.3211568E-002  0.1833993E+03  0.7818608E-02  0.1164553E+00
         -2   -1    0    0    0  501 -0.00000000000E+00  0.00000000000E+00  0.18845904914E+02  0.18845904914E+02  0.00000000000E+00 0.  1.
          2   -1    0    0  502    0  0.00000000000E+00 -0.00000000000E+00 -0.21911586761E+04  0.21911586761E+04  0.00000000000E+00 0. -1.
          6    1    1    2  502    0  0.95634262576E+00  0.63642629424E+02 -0.15620454909E+04  0.15727750680E+04  0.17200000000E+03 0. -1.
         -6    1    1    2    0  501 -0.95634262576E+00 -0.63642629424E+02 -0.61026728025E+03  0.63722951298E+03  0.17200000000E+03 0.  1.
</event>
<event>
 4    1  0.3211568E-002  0.2049832E+03  0.7818608E-02  0.1145601E+00
         -3   -1    0    0    0  501 -0.00000000000E+00  0.00000000000E+00  0.34790992665E+03  0.34790992665E+03  0.00000000000E+00 0.  1.
          3   -1    0    0  502    0  0.00000000000E+00 -0.00000000000E+00 -0.14262172931E+03  0.14262172931E+03  0.00000000000E+00 0. -1.
          6    1    1    2  502    0 -0.11369953507E+02  0.11092725121E+03  0.66472150977E+01  0.20509099535E+03  0.17200000000E+03 0. -1.
         -6    1    1    2    0  501  0.11369953507E+02 -0.11092725121E+03  0.19864098224E+03  0.28544066061E+03  0.17200000000E+03 0.  1.
</event>
<event>
 4    1  0.3211568E-002  0.3581817E+03  0.7818608E-02  0.1059306E+00
          2   -1    0    0  502    0  0.00000000000E+00  0.00000000000E+00  0.90363677818E+03  0.90363677818E+03  0.00000000000E+00 0. -1.
         -2   -1    0    0    0  501 -0.00000000000E+00 -0.00000000000E+00 -0.34882385493E+03  0.34882385493E+03  0.00000000000E+00 0.  1.
          6    1    1    2  502    0 -0.42224932827E+02 -0.31133128467E+03  0.75963980145E+03  0.83984923749E+03  0.17200000000E+03 0. -1.
         -6    1    1    2    0  501  0.42224932827E+02  0.31133128467E+03 -0.20482687820E+03  0.41261139563E+03  0.17200000000E+03 0.  1.
</event>
<event>
 4    1  0.3211568E-002  0.2559917E+03  0.7818608E-02  0.1109576E+00
         -2   -1    0    0    0  501 -0.00000000000E+00  0.00000000000E+00  0.10058290547E+03  0.10058290547E+03  0.00000000000E+00 0.  1.
          2   -1    0    0  502    0  0.00000000000E+00 -0.00000000000E+00 -0.78650503978E+03  0.78650503978E+03  0.00000000000E+00 0. -1.
          6    1    1    2  502    0 -0.84994215363E+02 -0.16948082020E+03 -0.52671172333E+03  0.58562531072E+03  0.17200000000E+03 0. -1.
         -6    1    1    2    0  501  0.84994215363E+02  0.16948082020E+03 -0.15921041098E+03  0.30146263454E+03  0.17200000000E+03 0.  1.
</event>
<event>
 4    1  0.3211568E-002  0.2731291E+03  0.7818608E-02  0.1099502E+00
          2   -1    0    0  502    0  0.00000000000E+00  0.00000000000E+00  0.14072019965E+03  0.14072019965E+03  0.00000000000E+00 0. -1.
         -2   -1    0    0    0  501 -0.00000000000E+00 -0.00000000000E+00 -0.53688936090E+03  0.53688936090E+03  0.00000000000E+00 0.  1.
          6    1    1    2  502    0  0.20545913697E+03 -0.52934198672E+02 -0.23611026605E+03  0.36103676279E+03  0.17200000000E+03 0. -1.
         -6    1    1    2    0  501 -0.20545913697E+03  0.52934198672E+02 -0.16005889519E+03  0.31657279776E+03  0.17200000000E+03 0.  1.
</event>
<event>
 4    1  0.3211568E-002  0.2045598E+03  0.7818608E-02  0.1145948E+00
          2   -1    0    0  502    0  0.00000000000E+00  0.00000000000E+00  0.26306259044E+03  0.26306259044E+03  0.00000000000E+00 0. -1.
         -2   -1    0    0    0  501 -0.00000000000E+00 -0.00000000000E+00 -0.16855342667E+03  0.16855342667E+03  0.00000000000E+00 0.  1.
          6    1    1    2  502    0 -0.91673893596E+02 -0.62101759807E+02  0.98450656974E+02  0.22701820014E+03  0.17200000000E+03 0. -1.
         -6    1    1    2    0  501  0.91673893596E+02  0.62101759807E+02 -0.39414932080E+01  0.20459781697E+03  0.17200000000E+03 0. -1.
</event>
<event>
 4    1  0.3211568E-002  0.8415695E+03  0.7818608E-02  0.9501723E-01
         -2   -1    0    0    0  501 -0.00000000000E+00  0.00000000000E+00  0.10828233435E+04  0.10828233435E+04  0.00000000000E+00 0.  1.
          2   -1    0    0  502    0  0.00000000000E+00 -0.00000000000E+00 -0.89725903444E+03  0.89725903444E+03  0.00000000000E+00 0. -1.
          6    1    1    2  502    0  0.77455676218E+03 -0.28056543377E+03 -0.42264692058E+03  0.94173752179E+03  0.17200000000E+03 0. -1.
         -6    1    1    2    0  501 -0.77455676218E+03  0.28056543377E+03  0.60821122967E+03  0.10383448562E+04  0.17200000000E+03 0.  1.
</event>
<event>
 4    1  0.3211568E-002  0.2776267E+03  0.7818608E-02  0.1096992E+00
         -2   -1    0    0    0  501 -0.00000000000E+00  0.00000000000E+00  0.40734769072E+02  0.40734769072E+02  0.00000000000E+00 0.  1.
          2   -1    0    0  502    0  0.00000000000E+00 -0.00000000000E+00 -0.19552005479E+04  0.19552005479E+04  0.00000000000E+00 0. -1.
          6    1    1    2  502    0 -0.21473964347E+03 -0.37141155264E+02 -0.77803164864E+03  0.82608100461E+03  0.17200000000E+03 0.  1.
         -6    1    1    2    0  501  0.21473964347E+03  0.37141155264E+02 -0.11364341301E+04  0.11698543123E+04  0.17200000000E+03 0.  1.
</event>
<event>
 4    1  0.3211568E-002  0.2634387E+03  0.7818608E-02  0.1105095E+00
          2   -1    0    0  502    0  0.00000000000E+00  0.00000000000E+00  0.21352527960E+04  0.21352527960E+04  0.00000000000E+00 0. -1.
         -2   -1    0    0    0  501 -0.00000000000E+00 -0.00000000000E+00 -0.47195496741E+02  0.47195496741E+02  0.00000000000E+00 0.  1.
          6    1    1    2  502    0 -0.16695317969E+03  0.10928201238E+03  0.16529016407E+04  0.16737633513E+04  0.17200000000E+03 0. -1.
         -6    1    1    2    0  501  0.16695317969E+03 -0.10928201238E+03  0.43515565857E+03  0.50868494142E+03  0.17200000000E+03 0.  1.
</event>
<event>
 4    1  0.3211568E-002  0.2367015E+03  0.7818608E-02  0.1122010E+00
         -2   -1    0    0    0  501 -0.00000000000E+00  0.00000000000E+00  0.24157417125E+02  0.24157417125E+02  0.00000000000E+00 0.  1.
          2   -1    0    0  502    0  0.00000000000E+00 -0.00000000000E+00 -0.24510756451E+04  0.24510756451E+04  0.00000000000E+00 0. -1.
          6    1    1    2  502    0 -0.85120029256E+02 -0.13855751366E+03 -0.92646524103E+03  0.95622457969E+03  0.17200000000E+03 0.  1.
         -6    1    1    2    0  501  0.85120029256E+02  0.13855751366E+03 -0.15004529870E+04  0.15190084826E+04  0.17200000000E+03 0.  1.
</event>
<event>
 4    1  0.3211568E-002  0.4792213E+03  0.7818608E-02  0.1019349E+00
          2   -1    0    0  502    0  0.00000000000E+00  0.00000000000E+00  0.13218516648E+04  0.13218516648E+04  0.00000000000E+00 0. -1.
         -2   -1    0    0    0  501 -0.00000000000E+00 -0.00000000000E+00 -0.33896133768E+03  0.33896133768E+03  0.00000000000E+00 0.  1.
          6    1    1    2  502    0  0.44466345964E+03 -0.48409427786E+02  0.10712130249E+04  0.11735205195E+04  0.17200000000E+03 0. -1.
         -6    1    1    2    0  501 -0.44466345964E+03  0.48409427786E+02 -0.88322697744E+02  0.48729248298E+03  0.17200000000E+03 0.  1.
</event>
<event>
 4    1  0.3211568E-002  0.2411039E+03  0.7818608E-02  0.1119060E+00
          2   -1    0    0  502    0  0.00000000000E+00  0.00000000000E+00  0.66519561863E+03  0.66519561863E+03  0.00000000000E+00 0. -1.
         -2   -1    0    0    0  501 -0.00000000000E+00 -0.00000000000E+00 -0.15384824870E+03  0.15384824870E+03  0.00000000000E+00 0.  1.
          6    1    1    2  502    0 -0.15177735291E+03 -0.74234216960E+02  0.52483157160E+03  0.57756321072E+03  0.17200000000E+03 0. -1.
         -6    1    1    2    0  501  0.15177735291E+03  0.74234216960E+02 -0.13484201676E+02  0.24148065661E+03  0.17200000000E+03 0.  1.
</event>
<event>
 4    1  0.3211568E-002  0.6657862E+03  0.7818608E-02  0.9777600E-01
         -2   -1    0    0    0  501 -0.00000000000E+00  0.00000000000E+00  0.58471678996E+03  0.58471678996E+03  0.00000000000E+00 0.  1.
          2   -1    0    0  502    0  0.00000000000E+00 -0.00000000000E+00 -0.13348666615E+04  0.13348666615E+04  0.00000000000E+00 0. -1.
          6    1    1    2  502    0 -0.31510633726E+03 -0.56070958404E+03 -0.10059738491E+04  0.12063393496E+04  0.17200000000E+03 0. -1.
         -6    1    1    2    0  501  0.31510633726E+03  0.56070958404E+03  0.25582397749E+03  0.71324410188E+03  0.17200000000E+03 0.  1.
</event>
<event>
 4    1  0.3211568E-002  0.3923940E+03  0.7818608E-02  0.1046446E+00
          2   -1    0    0  502    0  0.00000000000E+00  0.00000000000E+00  0.21410457526E+04  0.21410457526E+04  0.00000000000E+00 0. -1.
         -2   -1    0    0    0  501 -0.00000000000E+00 -0.00000000000E+00 -0.53294985080E+03  0.53294985080E+03  0.00000000000E+00 0.  1.
          6    1    1    2  502    0  0.33880975372E+03  0.97964261916E+02  0.20475727648E+04  0.20848326727E+04  0.17200000000E+03 0. -1.
         -6    1    1    2    0  501 -0.33880975372E+03 -0.97964261916E+02 -0.43947686301E+03  0.58916293073E+03  0.17200000000E+03 0.  1.
</event>
<event>
 4    1  0.3211568E-002  0.2852391E+03  0.7818608E-02  0.1092861E+00
         -2   -1    0    0    0  501 -0.00000000000E+00  0.00000000000E+00  0.84576448368E+03  0.84576448368E+03  0.00000000000E+00 0.  1.
          2   -1    0    0  502    0  0.00000000000E+00 -0.00000000000E+00 -0.16303262619E+03  0.16303262619E+03  0.00000000000E+00 0. -1.
          6    1    1    2  502    0  0.22646836177E+03  0.22123487060E+02  0.18415881917E+02  0.28583301466E+03  0.17200000000E+03 0. -1.
         -6    1    1    2    0  501 -0.22646836177E+03 -0.22123487060E+02  0.66431597558E+03  0.72296409521E+03  0.17200000000E+03 0.  1.
</event>
<event>
 4    1  0.3211568E-002  0.1984767E+03  0.7818608E-02  0.1151031E+00
         -3   -1    0    0    0  501 -0.00000000000E+00  0.00000000000E+00  0.87869557290E+03  0.87869557290E+03  0.00000000000E+00 0.  1.
          3   -1    0    0  502    0  0.00000000000E+00 -0.00000000000E+00 -0.48204281823E+02  0.48204281823E+02  0.00000000000E+00 0. -1.
          6    1    1    2  502    0  0.75341197737E+02  0.64285965504E+02  0.29265054315E+03  0.35360616771E+03  0.17200000000E+03 0. -1.
         -6    1    1    2    0  501 -0.75341197737E+02 -0.64285965504E+02  0.53784074793E+03  0.57329368701E+03  0.17200000000E+03 0. -1.
</event>
<event>
 4    1  0.3211568E-002  0.1828803E+03  0.7818608E-02  0.1165044E+00
          2   -1    0    0  502    0  0.00000000000E+00  0.00000000000E+00  0.14922177592E+04  0.14922177592E+04  0.00000000000E+00 0. -1.
         -2   -1    0    0    0  501 -0.00000000000E+00 -0.00000000000E+00 -0.79231208563E+02  0.79231208563E+02  0.00000000000E+00 0.  1.
          6    1    1    2  502    0 -0.60928073685E+02  0.12205313656E+02  0.13718669266E+04  0.13840029133E+04  0.17200000000E+03 0. -1.
         -6    1    1    2    0  501  0.60928073685E+02 -0.12205313656E+02  0.41119624064E+02  0.18744605445E+03  0.17200000000E+03 0.  1.
</event>
<event>
 4    1  0.3211568E-002  0.4422467E+03  0.7818608E-02  0.1030060E+00
          2   -1    0    0  502    0  0.00000000000E+00  0.00000000000E+00  0.10998646960E+04  0.10998646960E+04  0.00000000000E+00 0. -1.
         -2   -1    0    0    0  501 -0.00000000000E+00 -0.00000000000E+00 -0.19128364882E+03  0.19128364882E+03  0.00000000000E+00 0.  1.
          6    1    1    2  502    0 -0.84271580726E+02 -0.39861820199E+03  0.62553894355E+03  0.76608167984E+03  0.17200000000E+03 0. -1.
         -6    1    1    2    0  501  0.84271580726E+02  0.39861820199E+03  0.28304210367E+03  0.52506666503E+03  0.17200000000E+03 0.  1.
</event>
<event>
 4    1  0.3211568E-002  0.1856709E+03  0.7818608E-02  0.1162425E+00
         -2   -1    0    0    0  501 -0.00000000000E+00  0.00000000000E+00  0.15617027695E+03  0.15617027695E+03  0.00000000000E+00 0.  1.
          2   -1    0    0  502    0  0.00000000000E+00 -0.00000000000E+00 -0.32300571234E+03  0.32300571234E+03  0.00000000000E+00 0. -1.
          6    1    1    2  502    0 -0.43621758126E+02  0.54651882482E+02 -0.21822582561E+03  0.28652433929E+03  0.17200000000E+03 0. -1.
         -6    1    1    2    0  501  0.43621758126E+02 -0.54651882482E+02  0.51390390228E+02  0.19265165000E+03  0.17200000000E+03 0.  1.
</event>
<event>
 4    1  0.3211568E-002  0.2231244E+03  0.7818608E-02  0.1131575E+00
         -2   -1    0    0    0  501 -0.00000000000E+00  0.00000000000E+00  0.28247660182E+02  0.28247660182E+02  0.00000000000E+00 0.  1.
          2   -1    0    0  502    0  0.00000000000E+00 -0.00000000000E+00 -0.18978312964E+04  0.18978312964E+04  0.00000000000E+00 0. -1.
          6    1    1    2  502    0  0.14079959657E+03 -0.19390204391E+02 -0.67755822581E+03  0.71335100462E+03  0.17200000000E+03 0. -1.
         -6    1    1    2    0  501 -0.14079959657E+03  0.19390204391E+02 -0.11920254104E+04  0.12127279519E+04  0.17200000000E+03 0. -1.
</event>
<event>
 4    1  0.3211568E-002  0.1864595E+03  0.7818608E-02  0.1161694E+00
         -2   -1    0    0    0  501 -0.00000000000E+00  0.00000000000E+00  0.12419915729E+03  0.12419915729E+03  0.00000000000E+00 0.  1.
          2   -1    0    0  502    0  0.00000000000E+00 -0.00000000000E+00 -0.30432918601E+03  0.30432918601E+03  0.00000000000E+00 0. -1.
          6    1    1    2  502    0  0.10324616017E+02 -0.71249797675E+02 -0.15073320361E+03  0.23976578162E+03  0.17200000000E+03 0. -1.
         -6    1    1    2    0  501 -0.10324616017E+02  0.71249797675E+02 -0.29396825104E+02  0.18876256168E+03  0.17200000000E+03 0.  1.
</event>
<event>
 4    1  0.3211568E-002  0.3099840E+03  0.7818608E-02  0.1080354E+00
          2   -1    0    0  502    0  0.00000000000E+00  0.00000000000E+00  0.16374192759E+04  0.16374192759E+04  0.00000000000E+00 0. -1.
         -2   -1    0    0    0  501 -0.00000000000E+00 -0.00000000000E+00 -0.64941500898E+02  0.64941500898E+02  0.00000000000E+00 0.  1.
          6    1    1    2  502    0  0.17845640378E+03 -0.18617032212E+03  0.10504590210E+04  0.10952416317E+04  0.17200000000E+03 0.  1.
         -6    1    1    2    0  501 -0.17845640378E+03  0.18617032212E+03  0.52201875402E+03  0.60711914517E+03  0.17200000000E+03 0.  1.
</event>
<event>
 4    1  0.3211568E-002  0.8939417E+03  0.7818608E-02  0.9433186E-01
          2   -1    0    0  502    0  0.00000000000E+00  0.00000000000E+00  0.43337215363E+03  0.43337215363E+03  0.00000000000E+00 0. -1.
         -2   -1    0    0    0  501 -0.00000000000E+00 -0.00000000000E+00 -0.21987316709E+04  0.21987316709E+04  0.00000000000E+00 0.  1.
          6    1    1    2  502    0 -0.69976716507E+03 -0.52903084250E+03 -0.35405668504E+03  0.96150291412E+03  0.17200000000E+03 0. -1.
         -6    1    1    2    0  501  0.69976716507E+03  0.52903084250E+03 -0.14113028322E+04  0.16706009104E+04  0.17200000000E+03 0.  1.
</event>
<event>
 4    1  0.3211568E-002  0.1980178E+03  0.7818608E-02  0.1151422E+00
         -2   -1    0    0    0  501 -0.00000000000E+00  0.00000000000E+00  0.21317206374E+02  0.21317206374E+02  0.00000000000E+00 0.  1.
          2   -1    0    0  502    0  0.00000000000E+00 -0.00000000000E+00 -0.20319922997E+04  0.20319922997E+04  0.00000000000E+00 0. -1.
          6    1    1    2  502    0  0.97988211652E+02  0.50344268640E+01 -0.68927423238E+03  0.71715409955E+03  0.17200000000E+03 0.  1.
         -6    1    1    2    0  501 -0.97988211652E+02 -0.50344268640E+01 -0.13214008609E+04  0.13361554065E+04  0.17200000000E+03 0. -1.
</event>
<event>
 4    1  0.3211568E-002  0.3867174E+03  0.7818608E-02  0.1048479E+00
         -2   -1    0    0    0  501 -0.00000000000E+00  0.00000000000E+00  0.46067328604E+03  0.46067328604E+03  0.00000000000E+00 0.  1.
          2   -1    0    0  502    0  0.00000000000E+00 -0.00000000000E+00 -0.10443352952E+04  0.10443352952E+04  0.00000000000E+00 0. -1.
          6    1    1    2  502    0  0.25432584732E+02  0.34542657824E+03  0.33285972674E+03  0.51024105578E+03  0.17200000000E+03 0. -1.
         -6    1    1    2    0  501 -0.25432584732E+02 -0.34542657824E+03 -0.91652173594E+03  0.99476752549E+03  0.17200000000E+03 0. -1.
</event>
<event>
 4    1  0.3211568E-002  0.1985112E+03  0.7818608E-02  0.1151001E+00
         -2   -1    0    0    0  501 -0.00000000000E+00  0.00000000000E+00  0.11867025773E+03  0.11867025773E+03  0.00000000000E+00 0.  1.
          2   -1    0    0  502    0  0.00000000000E+00 -0.00000000000E+00 -0.35432408062E+03  0.35432408062E+03  0.00000000000E+00 0. -1.
          6    1    1    2  502    0  0.95647798290E+02 -0.25965440413E+02 -0.58556097849E+02  0.20696744191E+03  0.17200000000E+03 0.  1.
         -6    1    1    2    0  501 -0.95647798290E+02  0.25965440413E+02 -0.17709772504E+03  0.26602689644E+03  0.17200000000E+03 0. -1.
</event>
<event>
 4    1  0.3211568E-002  0.2260244E+03  0.7818608E-02  0.1129470E+00
         -1   -1    0    0    0  501 -0.00000000000E+00  0.00000000000E+00  0.12895194950E+03  0.12895194950E+03  0.00000000000E+00 0.  1.
          1   -1    0    0  502    0  0.00000000000E+00 -0.00000000000E+00 -0.40189736194E+03  0.40189736194E+03  0.00000000000E+00 0. -1.
          6    1    1    2  502    0 -0.85011486638E+02 -0.11948251910E+03 -0.10478999323E+03  0.24913443743E+03  0.17200000000E+03 0.  1.
         -6    1    1    2    0  501  0.85011486638E+02  0.11948251910E+03 -0.16815541922E+03  0.28171487402E+03  0.17200000000E+03 0.  1.
</event>
<event>
 4    1  0.3211568E-002  0.3403869E+03  0.7818608E-02  0.1066631E+00
         -1   -1    0    0    0  501 -0.00000000000E+00  0.00000000000E+00  0.21409859041E+03  0.21409859041E+03  0.00000000000E+00 0.  1.
          1   -1    0    0  502    0  0.00000000000E+00 -0.00000000000E+00 -0.73706294380E+03  0.73706294380E+03  0.00000000000E+00 0. -1.
          6    1    1    2  502    0 -0.62131527555E+02 -0.28708691038E+03 -0.50666161658E+03  0.61038448091E+03  0.17200000000E+03 0. -1.
         -6    1    1    2    0  501  0.62131527555E+02  0.28708691038E+03 -0.16302736814E+02  0.34077705330E+03  0.17200000000E+03 0.  1.
</event>
<event>
 4    1  0.3211568E-002  0.3315167E+03  0.7818608E-02  0.1070468E+00
          1   -1    0    0  502    0  0.00000000000E+00  0.00000000000E+00  0.55806422695E+03  0.55806422695E+03  0.00000000000E+00 0. -1.
         -1   -1    0    0    0  501 -0.00000000000E+00 -0.00000000000E+00 -0.77669829612E+03  0.77669829612E+03  0.00000000000E+00 0.  1.
          6    1    1    2  502    0 -0.23338905704E+03  0.16077592814E+03  0.46728017771E+03  0.57293465203E+03  0.17200000000E+03 0. -1.
         -6    1    1    2    0  501  0.23338905704E+03 -0.16077592814E+03 -0.68591424689E+03  0.76182787104E+03  0.17200000000E+03 0.  1.
</event>
<event>
 4    1  0.3211568E-002  0.1728076E+03  0.7818608E-02  0.1174951E+00
         -1   -1    0    0    0  501 -0.00000000000E+00  0.00000000000E+00  0.32829900499E+02  0.32829900499E+02  0.00000000000E+00 0.  1.
          1   -1    0    0  502    0  0.00000000000E+00 -0.00000000000E+00 -0.96335935556E+03  0.96335935556E+03  0.00000000000E+00 0. -1.
          6    1    1    2  502    0  0.82924564575E+01 -0.14481361401E+02 -0.34761366498E+03  0.38819806123E+03  0.17200000000E+03 0.  1.
         -6    1    1    2    0  501 -0.82924564575E+01  0.14481361401E+02 -0.58291579009E+03  0.60799119483E+03  0.17200000000E+03 0. -1.
</event>
<event>
 4    1  0.3211568E-002  0.1928092E+03  0.7818608E-02  0.1155952E+00
          1   -1    0    0  502    0  0.00000000000E+00  0.00000000000E+00  0.99935474701E+03  0.99935474701E+03  0.00000000000E+00 0. -1.
         -1   -1    0    0    0  501 -0.00000000000E+00 -0.00000000000E+00 -0.63942424422E+02  0.63942424422E+02  0.00000000000E+00 0.  1.
          6    1    1    2  502    0 -0.28286425706E+02 -0.82409054856E+02  0.81152966291E+03  0.83411975638E+03  0.17200000000E+03 0. -1.
         -6    1    1    2    0  501  0.28286425706E+02  0.82409054856E+02  0.12388265968E+03  0.22917741505E+03  0.17200000000E+03 0.  1.
</event>
<event>
 4    1  0.3211568E-002  0.2020974E+03  0.7818608E-02  0.1147981E+00
          2   -1    0    0  502    0  0.00000000000E+00  0.00000000000E+00  0.49174245037E+04  0.49174245037E+04  0.00000000000E+00 0. -1.
         -2   -1    0    0    0  501 -0.00000000000E+00 -0.00000000000E+00 -0.10401806311E+02  0.10401806311E+02  0.00000000000E+00 0.  1.
          6    1    1    2  502    0 -0.78584669185E+02  0.71300763604E+02  0.35595313878E+04  0.35652639524E+04  0.17200000000E+03 0. -1.
         -6    1    1    2    0  501  0.78584669185E+02 -0.71300763604E+02  0.13474913095E+04  0.13625623576E+04  0.17200000000E+03 0.  1.
</event>
<event>
 4    1  0.3211568E-002  0.1722252E+03  0.7818608E-02  0.1175547E+00
          1   -1    0    0  502    0  0.00000000000E+00  0.00000000000E+00  0.23746389118E+04  0.23746389118E+04  0.00000000000E+00 0. -1.
         -1   -1    0    0    0  501 -0.00000000000E+00 -0.00000000000E+00 -0.12626470934E+02  0.12626470934E+02  0.00000000000E+00 0.  1.
          6    1    1    2  502    0 -0.87453584492E+01  0.10193796444E+01  0.10573498870E+04  0.10712844179E+04  0.17200000000E+03 0.  1.
         -6    1    1    2    0  501  0.87453584492E+01 -0.10193796444E+01  0.13046625539E+04  0.13159809649E+04  0.17200000000E+03 0. -1.
</event>
<event>
 4    1  0.3211568E-002  0.3939863E+03  0.7818608E-02  0.1045882E+00
          1   -1    0    0  502    0  0.00000000000E+00  0.00000000000E+00  0.51052675719E+03  0.51052675719E+03  0.00000000000E+00 0. -1.
         -1   -1    0    0    0  501 -0.00000000000E+00 -0.00000000000E+00 -0.44600811202E+03  0.44600811202E+03  0.00000000000E+00 0.  1.
          6    1    1    2  502    0 -0.34385110396E+03  0.86067524157E+02  0.30208353479E+03  0.49646718159E+03  0.17200000000E+03 0. -1.
         -6    1    1    2    0  501  0.34385110396E+03 -0.86067524157E+02 -0.23756488962E+03  0.46006768761E+03  0.17200000000E+03 0.  1.
</event>
<event>
 4    1  0.3211568E-002  0.2080252E+03  0.7818608E-02  0.1143139E+00
          1   -1    0    0  502    0  0.00000000000E+00  0.00000000000E+00  0.12578888506E+03  0.12578888506E+03  0.00000000000E+00 0. -1.
         -1   -1    0    0    0  501 -0.00000000000E+00 -0.00000000000E+00 -0.34692727480E+03  0.34692727480E+03  0.00000000000E+00 0.  1.
          6    1    1    2  502    0  0.11666293271E+03  0.89572502224E+01 -0.88949496580E+02  0.22624430411E+03  0.17200000000E+03 0. -1.
         -6    1    1    2    0  501 -0.11666293271E+03 -0.89572502224E+01 -0.13218889316E+03  0.24647185575E+03  0.17200000000E+03 0.  1.
</event>
<event>
 4    1  0.3211568E-002  0.3879697E+03  0.7818608E-02  0.1048027E+00
          1   -1    0    0  502    0  0.00000000000E+00  0.00000000000E+00  0.25508741850E+03  0.25508741850E+03  0.00000000000E+00 0. -1.
         -1   -1    0    0    0  501 -0.00000000000E+00 -0.00000000000E+00 -0.18331881048E+04  0.18331881048E+04  0.00000000000E+00 0.  1.
          6    1    1    2  502    0  0.31074098945E+03  0.15612983171E+03  0.70774048997E+02  0.39437222631E+03  0.17200000000E+03 0. -1.
         -6    1    1    2    0  501 -0.31074098945E+03 -0.15612983171E+03 -0.16488747353E+04  0.16939032970E+04  0.17200000000E+03 0.  1.
</event>
<event>
 4    1  0.3211568E-002  0.2675680E+03  0.7818608E-02  0.1102680E+00
          2   -1    0    0  502    0  0.00000000000E+00  0.00000000000E+00  0.14442392525E+04  0.14442392525E+04  0.00000000000E+00 0. -1.
         -2   -1    0    0    0  501 -0.00000000000E+00 -0.00000000000E+00 -0.23468831999E+03  0.23468831999E+03  0.00000000000E+00 0.  1.
          6    1    1    2  502    0 -0.17234240707E+03  0.11093569010E+03  0.13503302359E+04  0.13765843158E+04  0.17200000000E+03 0. -1.
         -6    1    1    2    0  501  0.17234240707E+03 -0.11093569010E+03 -0.14077930336E+03  0.30234325669E+03  0.17200000000E+03 0.  1.
</event>
<event>
 4    1  0.3211568E-002  0.3121333E+03  0.7818608E-02  0.1079328E+00
         -2   -1    0    0    0  501 -0.00000000000E+00  0.00000000000E+00  0.14528990681E+03  0.14528990681E+03  0.00000000000E+00 0.  1.
          2   -1    0    0  502    0  0.00000000000E+00 -0.00000000000E+00 -0.76956989794E+03  0.76956989794E+03  0.00000000000E+00 0. -1.
          6    1    1    2  502    0  0.22499618434E+03 -0.13122462042E+03 -0.14807500850E+03  0.34547560278E+03  0.17200000000E+03 0. -1.
         -6    1    1    2    0  501 -0.22499618434E+03  0.13122462042E+03 -0.47620498263E+03  0.56938420197E+03  0.17200000000E+03 0.  1.
</event>
<event>
 4    1  0.3211568E-002  0.2122872E+03  0.7818608E-02  0.1139768E+00
         -2   -1    0    0    0  501 -0.00000000000E+00  0.00000000000E+00  0.39028468918E+02  0.39028468918E+02  0.00000000000E+00 0.  1.
          2   -1    0    0  502    0  0.00000000000E+00 -0.00000000000E+00 -0.13919601005E+04  0.13919601005E+04  0.00000000000E+00 0. -1.
          6    1    1    2  502    0  0.59641381186E+02 -0.10920045947E+03 -0.97186756678E+03  0.99478259034E+03  0.17200000000E+03 0. -1.
         -6    1    1    2    0  501 -0.59641381186E+02  0.10920045947E+03 -0.38106406483E+03  0.43620597910E+03  0.17200000000E+03 0.  1.
</event>
<event>
 4    1  0.3211568E-002  0.2018489E+03  0.7818608E-02  0.1148188E+00
          1   -1    0    0  502    0  0.00000000000E+00  0.00000000000E+00  0.19000954644E+04  0.19000954644E+04  0.00000000000E+00 0. -1.
         -1   -1    0    0    0  501 -0.00000000000E+00 -0.00000000000E+00 -0.27437633443E+02  0.27437633443E+02  0.00000000000E+00 0.  1.
          6    1    1    2  502    0 -0.10532052311E+03 -0.81576917338E+01  0.13868289550E+04  0.14014412264E+04  0.17200000000E+03 0. -1.
         -6    1    1    2    0  501  0.10532052311E+03  0.81576917338E+01  0.48582887592E+03  0.52609187145E+03  0.17200000000E+03 0.  1.
</event>
<event>
 4    1  0.3211568E-002  0.2420103E+03  0.7818608E-02  0.1118461E+00
          2   -1    0    0  502    0  0.00000000000E+00  0.00000000000E+00  0.93487928820E+03  0.93487928820E+03  0.00000000000E+00 0. -1.
         -2   -1    0    0    0  501 -0.00000000000E+00 -0.00000000000E+00 -0.75199589891E+03  0.75199589891E+03  0.00000000000E+00 0.  1.
          6    1    1    2  502    0  0.17011132303E+03  0.68652068020E+01  0.89898202059E+03  0.93098746857E+03  0.17200000000E+03 0. -1.
         -6    1    1    2    0  501 -0.17011132303E+03 -0.68652068020E+01 -0.71609863130E+03  0.75588771854E+03  0.17200000000E+03 0.  1.
</event>
<event>
 4    1  0.3211568E-002  0.3198219E+03  0.7818608E-02  0.1075731E+00
          2   -1    0    0  502    0  0.00000000000E+00  0.00000000000E+00  0.45245140131E+03  0.45245140131E+03  0.00000000000E+00 0. -1.
         -2   -1    0    0    0  501 -0.00000000000E+00 -0.00000000000E+00 -0.22652044843E+03  0.22652044843E+03  0.00000000000E+00 0.  1.
          6    1    1    2  502    0 -0.11336238456E+03  0.24464465617E+03  0.97839700554E+02  0.33445275455E+03  0.17200000000E+03 0. -1.
         -6    1    1    2    0  501  0.11336238456E+03 -0.24464465617E+03  0.12809125233E+03  0.34451909519E+03  0.17200000000E+03 0.  1.
</event>
<event>
 4    1  0.3211568E-002  0.2366640E+03  0.7818608E-02  0.1122035E+00
          1   -1    0    0  502    0  0.00000000000E+00  0.00000000000E+00  0.60163806716E+03  0.60163806716E+03  0.00000000000E+00 0. -1.
         -1   -1    0    0    0  501 -0.00000000000E+00 -0.00000000000E+00 -0.13127135345E+03  0.13127135345E+03  0.00000000000E+00 0.  1.
          6    1    1    2  502    0 -0.15960161817E+03 -0.30873498906E+02  0.43280258800E+03  0.49328280898E+03  0.17200000000E+03 0. -1.
         -6    1    1    2    0  501  0.15960161817E+03  0.30873498906E+02  0.37564125709E+02  0.23962661162E+03  0.17200000000E+03 0.  1.
</event>
<event>
 4    1  0.3211568E-002  0.2685648E+03  0.7818608E-02  0.1102104E+00
         -2   -1    0    0    0  501 -0.00000000000E+00  0.00000000000E+00  0.39663433517E+02  0.39663433517E+02  0.00000000000E+00 0.  1.
          2   -1    0    0  502    0  0.00000000000E+00 -0.00000000000E+00 -0.23252405685E+04  0.23252405685E+04  0.00000000000E+00 0. -1.
          6    1    1    2  502    0  0.10513737245E+03 -0.17745193489E+03 -0.16948051308E+04  0.17159520645E+04  0.17200000000E+03 0. -1.
         -6    1    1    2    0  501 -0.10513737245E+03  0.17745193489E+03 -0.59077200424E+03  0.64895193757E+03  0.17200000000E+03 0.  1.
</event>
<event>
 4    1  0.3211568E-002  0.2040177E+03  0.7818608E-02  0.1146393E+00
         -2   -1    0    0    0  501 -0.00000000000E+00  0.00000000000E+00  0.81562838005E+02  0.81562838005E+02  0.00000000000E+00 0.  1.
          2   -1    0    0  502    0  0.00000000000E+00 -0.00000000000E+00 -0.51085164349E+03  0.51085164349E+03  0.00000000000E+00 0. -1.
          6    1    1    2  502    0  0.65497715129E+02 -0.88029847758E+02 -0.22419370033E+03  0.30312706915E+03  0.17200000000E+03 0.  1.
         -6    1    1    2    0  501 -0.65497715129E+02  0.88029847758E+02 -0.20509510516E+03  0.28928741235E+03  0.17200000000E+03 0. -1.
</event>
<event>
 4    1  0.3211568E-002  0.2626477E+03  0.7818608E-02  0.1105563E+00
          4   -1    0    0  502    0  0.00000000000E+00  0.00000000000E+00  0.58943334342E+03  0.58943334342E+03  0.00000000000E+00 0. -1.
         -4   -1    0    0    0  501 -0.00000000000E+00 -0.00000000000E+00 -0.14997065265E+03  0.14997065265E+03  0.00000000000E+00 0.  1.
          6    1    1    2  502    0 -0.19802526529E+03  0.13630373244E+02  0.39298715970E+03  0.47267610523E+03  0.17200000000E+03 0. -1.
         -6    1    1    2    0  501  0.19802526529E+03 -0.13630373244E+02  0.46475531072E+02  0.26672789085E+03  0.17200000000E+03 0.  1.
</event>
<event>
 4    1  0.3211568E-002  0.2014852E+03  0.7818608E-02  0.1148492E+00
          2   -1    0    0  502    0  0.00000000000E+00  0.00000000000E+00  0.17460323187E+04  0.17460323187E+04  0.00000000000E+00 0. -1.
         -2   -1    0    0    0  501 -0.00000000000E+00 -0.00000000000E+00 -0.24653262753E+02  0.24653262753E+02  0.00000000000E+00 0.  1.
          6    1    1    2  502    0  0.96477486858E+02  0.41284316183E+02  0.64951050382E+03  0.68004425944E+03  0.17200000000E+03 0.  1.
         -6    1    1    2    0  501 -0.96477486858E+02 -0.41284316183E+02  0.10718685522E+04  0.10906413221E+04  0.17200000000E+03 0. -1.
</event>
<event>
 4    1  0.3211568E-002  0.3946790E+03  0.7818608E-02  0.1045638E+00
          1   -1    0    0  502    0  0.00000000000E+00  0.00000000000E+00  0.23890316242E+04  0.23890316242E+04  0.00000000000E+00 0. -1.
         -1   -1    0    0    0  501 -0.00000000000E+00 -0.00000000000E+00 -0.65639788758E+02  0.65639788758E+02  0.00000000000E+00 0.  1.
          6    1    1    2  502    0  0.47730770863E+02 -0.35200747754E+03  0.10615513286E+04  0.11325470030E+04  0.17200000000E+03 0. -1.
         -6    1    1    2    0  501 -0.47730770863E+02  0.35200747754E+03  0.12618405069E+04  0.13221244100E+04  0.17200000000E+03 0.  1.
</event>
<event>
 4    1  0.3211568E-002  0.2934901E+03  0.7818608E-02  0.1088541E+00
          1   -1    0    0  502    0  0.00000000000E+00  0.00000000000E+00  0.29992060047E+03  0.29992060047E+03  0.00000000000E+00 0. -1.
         -1   -1    0    0    0  501 -0.00000000000E+00 -0.00000000000E+00 -0.29701337204E+03  0.29701337204E+03  0.00000000000E+00 0.  1.
          6    1    1    2  502    0 -0.23541836758E+03 -0.33624479152E+02 -0.52805811962E+02  0.29820272831E+03  0.17200000000E+03 0. -1.
         -6    1    1    2    0  501  0.23541836758E+03  0.33624479152E+02  0.55713040384E+02  0.29873124420E+03  0.17200000000E+03 0. -1.
</event>
<event>
 4    1  0.3211568E-002  0.1918956E+03  0.7818608E-02  0.1156763E+00
          1   -1    0    0  502    0  0.00000000000E+00  0.00000000000E+00  0.18998641445E+04  0.18998641445E+04  0.00000000000E+00 0. -1.
         -1   -1    0    0    0  501 -0.00000000000E+00 -0.00000000000E+00 -0.20924579367E+02  0.20924579367E+02  0.00000000000E+00 0.  1.
          6    1    1    2  502    0  0.53260837314E+02 -0.66356748008E+02  0.12001980295E+04  0.12154419956E+04  0.17200000000E+03 0. -1.
         -6    1    1    2    0  501 -0.53260837314E+02  0.66356748008E+02  0.67874153564E+03  0.70534672821E+03  0.17200000000E+03 0.  1.
</event>
<event>
 4    1  0.3211568E-002  0.1994975E+03  0.7818608E-02  0.1150164E+00
         -1   -1    0    0    0  501 -0.00000000000E+00  0.00000000000E+00  0.16465760989E+03  0.16465760989E+03  0.00000000000E+00 0.  1.
          1   -1    0    0  502    0  0.00000000000E+00 -0.00000000000E+00 -0.24326531911E+03  0.24326531911E+03  0.00000000000E+00 0. -1.
          6    1    1    2  502    0  0.78744843792E+02 -0.63360085321E+02 -0.55616954436E+02  0.20710503726E+03  0.17200000000E+03 0.  1.
         -6    1    1    2    0  501 -0.78744843792E+02  0.63360085321E+02 -0.22990754786E+02  0.20081789174E+03  0.17200000000E+03 0. -1.
</event>
<event>
 4    1  0.3211568E-002  0.2887711E+03  0.7818608E-02  0.1090993E+00
          2   -1    0    0  502    0  0.00000000000E+00  0.00000000000E+00  0.40658422797E+03  0.40658422797E+03  0.00000000000E+00 0. -1.
         -2   -1    0    0    0  501 -0.00000000000E+00 -0.00000000000E+00 -0.23370660055E+03  0.23370660055E+03  0.00000000000E+00 0.  1.
          6    1    1    2  502    0 -0.23096131692E+03 -0.21485360684E+02  0.19845381356E+03  0.35038930742E+03  0.17200000000E+03 0. -1.
         -6    1    1    2    0  501  0.23096131692E+03  0.21485360684E+02 -0.25576186143E+02  0.28990152110E+03  0.17200000000E+03 0.  1.
</event>
<event>
 4    1  0.3211568E-002  0.3845553E+03  0.7818608E-02  0.1049263E+00
         -2   -1    0    0    0  501 -0.00000000000E+00  0.00000000000E+00  0.14340322402E+04  0.14340322402E+04  0.00000000000E+00 0.  1.
          2   -1    0    0  502    0  0.00000000000E+00 -0.00000000000E+00 -0.22121371992E+03  0.22121371992E+03  0.00000000000E+00 0. -1.
          6    1    1    2  502    0  0.26735559051E+03  0.21637877972E+03  0.17189491035E+01  0.38455915394E+03  0.17200000000E+03 0. -1.
         -6    1    1    2    0  501 -0.26735559051E+03 -0.21637877972E+03  0.12110995712E+04  0.12706868062E+04  0.17200000000E+03 0.  1.
</event>
<event>
 4    1  0.3211568E-002  0.2542236E+03  0.7818608E-02  0.1110664E+00
         -2   -1    0    0    0  501 -0.00000000000E+00  0.00000000000E+00  0.63767176727E+02  0.63767176727E+02  0.00000000000E+00 0.  1.
          2   -1    0    0  502    0  0.00000000000E+00 -0.00000000000E+00 -0.10136586306E+04  0.10136586306E+04  0.00000000000E+00 0. -1.
          6    1    1    2  502    0 -0.12453647557E+03 -0.13977239129E+03 -0.46877029717E+03  0.53326845643E+03  0.17200000000E+03 0. -1.
         -6    1    1    2    0  501  0.12453647557E+03  0.13977239129E+03 -0.48112115674E+03  0.54415735094E+03  0.17200000000E+03 0. -1.
</event>
<event>
 4    1  0.3211568E-002  0.2480682E+03  0.7818608E-02  0.1114532E+00
          2   -1    0    0  502    0  0.00000000000E+00  0.00000000000E+00  0.38966221386E+03  0.38966221386E+03  0.00000000000E+00 0. -1.
         -2   -1    0    0    0  501 -0.00000000000E+00 -0.00000000000E+00 -0.27112882837E+03  0.27112882837E+03  0.00000000000E+00 0.  1.
          6    1    1    2  502    0  0.19264161059E+02 -0.17771525634E+03  0.27275535520E+03  0.36869133977E+03  0.17200000000E+03 0. -1.
         -6    1    1    2    0  501 -0.19264161059E+02  0.17771525634E+03 -0.15422196970E+03  0.29209970246E+03  0.17200000000E+03 0.  1.
</event>
<event>
 4    1  0.3211568E-002  0.3370248E+03  0.7818608E-02  0.1068070E+00
         -1   -1    0    0    0  501 -0.00000000000E+00  0.00000000000E+00  0.55120345743E+02  0.55120345743E+02  0.00000000000E+00 0.  1.
          1   -1    0    0  502    0  0.00000000000E+00 -0.00000000000E+00 -0.22639168188E+04  0.22639168188E+04  0.00000000000E+00 0. -1.
          6    1    1    2  502    0  0.27752672849E+03 -0.83550230895E+02 -0.14518081746E+04  0.14904136009E+04  0.17200000000E+03 0. -1.
         -6    1    1    2    0  501 -0.27752672849E+03  0.83550230895E+02 -0.75698829845E+03  0.82862356357E+03  0.17200000000E+03 0. -1.
</event>
<event>
 4    1  0.3211568E-002  0.2035136E+03  0.7818608E-02  0.1146808E+00
         -1   -1    0    0    0  501 -0.00000000000E+00  0.00000000000E+00  0.72658792125E+03  0.72658792125E+03  0.00000000000E+00 0.  1.
          1   -1    0    0  502    0  0.00000000000E+00 -0.00000000000E+00 -0.58148447659E+02  0.58148447659E+02  0.00000000000E+00 0. -1.
          6    1    1    2  502    0  0.10863539135E+03  0.56692069872E+01  0.27915328841E+03  0.34546251113E+03  0.17200000000E+03 0. -1.
         -6    1    1    2    0  501 -0.10863539135E+03 -0.56692069872E+01  0.38928618518E+03  0.43927385778E+03  0.17200000000E+03 0.  1.
</event>
<event>
 4    1  0.3211568E-002  0.4452824E+03  0.7818608E-02  0.1029138E+00
          2   -1    0    0  502    0  0.00000000000E+00  0.00000000000E+00  0.39052145605E+03  0.39052145605E+03  0.00000000000E+00 0. -1.
         -2   -1    0    0    0  501 -0.00000000000E+00 -0.00000000000E+00 -0.52478413829E+03  0.52478413829E+03  0.00000000000E+00 0.  1.
          6    1    1    2  502    0 -0.33591383546E+03  0.23633509751E+03  0.15388982180E+02  0.44554820608E+03  0.17200000000E+03 0. -1.
         -6    1    1    2    0  501  0.33591383546E+03 -0.23633509751E+03 -0.14965166441E+03  0.46975738826E+03  0.17200000000E+03 0.  1.
</event>
<event>
 4    1  0.3211568E-002  0.2012811E+03  0.7818608E-02  0.1148663E+00
         -2   -1    0    0    0  501 -0.00000000000E+00  0.00000000000E+00  0.43456816148E+03  0.43456816148E+03  0.00000000000E+00 0.  1.
          2   -1    0    0  502    0  0.00000000000E+00 -0.00000000000E+00 -0.93389972043E+02  0.93389972043E+02  0.00000000000E+00 0. -1.
          6    1    1    2  502    0 -0.96112180867E+02 -0.41140451282E+02  0.18156959402E+03  0.27107490758E+03  0.17200000000E+03 0.  1.
         -6    1    1    2    0  501  0.96112180867E+02  0.41140451282E+02  0.15960859541E+03  0.25688322594E+03  0.17200000000E+03 0. -1.
</event>
<event>
 4    1  0.3211568E-002  0.2931821E+03  0.7818608E-02  0.1088699E+00
         -2   -1    0    0    0  501 -0.00000000000E+00  0.00000000000E+00  0.11442599249E+03  0.11442599249E+03  0.00000000000E+00 0.  1.
          2   -1    0    0  502    0  0.00000000000E+00 -0.00000000000E+00 -0.81457262331E+03  0.81457262331E+03  0.00000000000E+00 0. -1.
          6    1    1    2  502    0  0.14605857152E+03 -0.18718609240E+03 -0.22050377156E+03  0.36684826942E+03  0.17200000000E+03 0. -1.
         -6    1    1    2    0  501 -0.14605857152E+03  0.18718609240E+03 -0.47964285926E+03  0.56215034639E+03  0.17200000000E+03 0.  1.
</event>
<event>
 4    1  0.3211568E-002  0.2299535E+03  0.7818608E-02  0.1126673E+00
          2   -1    0    0  502    0  0.00000000000E+00  0.00000000000E+00  0.37397917086E+03  0.37397917086E+03  0.00000000000E+00 0. -1.
         -2   -1    0    0    0  501 -0.00000000000E+00 -0.00000000000E+00 -0.15685109792E+03  0.15685109792E+03  0.00000000000E+00 0.  1.
          6    1    1    2  502    0 -0.14921621306E+03  0.32079822869E+02  0.19188207351E+03  0.29949511417E+03  0.17200000000E+03 0. -1.
         -6    1    1    2    0  501  0.14921621306E+03 -0.32079822869E+02  0.25245999432E+02  0.23133515462E+03  0.17200000000E+03 0.  1.
</event>
<event>
 4    1  0.3211568E-002  0.2401431E+03  0.7818608E-02  0.1119698E+00
          1   -1    0    0  502    0  0.00000000000E+00  0.00000000000E+00  0.20369126137E+03  0.20369126137E+03  0.00000000000E+00 0. -1.
         -1   -1    0    0    0  501 -0.00000000000E+00 -0.00000000000E+00 -0.28325072967E+03  0.28325072967E+03  0.00000000000E+00 0.  1.
          6    1    1    2  502    0 -0.12182449334E+03 -0.11508049716E+03 -0.34515693331E+02  0.24261092533E+03  0.17200000000E+03 0. -1.
         -6    1    1    2    0  501  0.12182449334E+03  0.11508049716E+03 -0.45043774969E+02  0.24433106570E+03  0.17200000000E+03 0.  1.
</event>
<event>
 4    1  0.3211568E-002  0.2120494E+03  0.7818608E-02  0.1139953E+00
         -2   -1    0    0    0  501 -0.00000000000E+00  0.00000000000E+00  0.20262077322E+03  0.20262077322E+03  0.00000000000E+00 0.  1.
          2   -1    0    0  502    0  0.00000000000E+00 -0.00000000000E+00 -0.28143015350E+03  0.28143015350E+03  0.00000000000E+00 0. -1.
          6    1    1    2  502    0 -0.10340374493E+03  0.68473477221E+02 -0.15070157144E+03  0.26014594977E+03  0.17200000000E+03 0. -1.
         -6    1    1    2    0  501  0.10340374493E+03 -0.68473477221E+02  0.71892191159E+02  0.22390497694E+03  0.17200000000E+03 0.  1.
</event>
<event>
 4    1  0.3211568E-002  0.2161272E+03  0.7818608E-02  0.1136804E+00
         -2   -1    0    0    0  501 -0.00000000000E+00  0.00000000000E+00  0.22207003350E+02  0.22207003350E+02  0.00000000000E+00 0.  1.
          2   -1    0    0  502    0  0.00000000000E+00 -0.00000000000E+00 -0.27568591869E+04  0.27568591869E+04  0.00000000000E+00 0. -1.
          6    1    1    2  502    0 -0.17216130798E+02 -0.12973275829E+03 -0.20438128052E+04  0.20552084485E+04  0.17200000000E+03 0. -1.
         -6    1    1    2    0  501  0.17216130798E+02  0.12973275829E+03 -0.69083937829E+03  0.72385774178E+03  0.17200000000E+03 0.  1.
</event>
<event>
 4    1  0.3211568E-002  0.3371722E+03  0.7818608E-02  0.1068007E+00
          2   -1    0    0  502    0  0.00000000000E+00  0.00000000000E+00  0.64928197001E+03  0.64928197001E+03  0.00000000000E+00 0. -1.
         -2   -1    0    0    0  501 -0.00000000000E+00 -0.00000000000E+00 -0.19877280245E+03  0.19877280245E+03  0.00000000000E+00 0.  1.
          6    1    1    2  502    0  0.26967168811E+03 -0.10666887369E+03  0.78902246762E+02  0.34628114665E+03  0.17200000000E+03 0. -1.
         -6    1    1    2    0  501 -0.26967168811E+03  0.10666887369E+03  0.37160692080E+03  0.50177362582E+03  0.17200000000E+03 0.  1.
</event>
<event>
 4    1  0.3211568E-002  0.3132298E+03  0.7818608E-02  0.1078808E+00
         -1   -1    0    0    0  501 -0.00000000000E+00  0.00000000000E+00  0.60152101601E+03  0.60152101601E+03  0.00000000000E+00 0.  1.
          1   -1    0    0  502    0  0.00000000000E+00 -0.00000000000E+00 -0.24332850640E+03  0.24332850640E+03  0.00000000000E+00 0. -1.
          6    1    1    2  502    0 -0.26097258637E+03  0.20548532357E+02 -0.63450449311E+02  0.31959175918E+03  0.17200000000E+03 0. -1.
         -6    1    1    2    0  501  0.26097258637E+03 -0.20548532357E+02  0.42164295892E+03  0.52525776322E+03  0.17200000000E+03 0.  1.
</event>
<event>
 4    1  0.3211568E-002  0.5640876E+03  0.7818608E-02  0.9982848E-01
          1   -1    0    0  502    0  0.00000000000E+00  0.00000000000E+00  0.15774762448E+04  0.15774762448E+04  0.00000000000E+00 0. -1.
         -1   -1    0    0    0  501 -0.00000000000E+00 -0.00000000000E+00 -0.21370747052E+03  0.21370747052E+03  0.00000000000E+00 0.  1.
          6    1    1    2  502    0 -0.45036729277E+03 -0.29288240326E+03  0.89407267608E+03  0.10571474593E+04  0.17200000000E+03 0. -1.
         -6    1    1    2    0  501  0.45036729277E+03  0.29288240326E+03  0.46969609824E+03  0.73403625607E+03  0.17200000000E+03 0.  1.
</event>
<event>
 4    1  0.3211568E-002  0.2715980E+03  0.7818608E-02  0.1100368E+00
          1   -1    0    0  502    0  0.00000000000E+00  0.00000000000E+00  0.15935921346E+04  0.15935921346E+04  0.00000000000E+00 0. -1.
         -1   -1    0    0    0  501 -0.00000000000E+00 -0.00000000000E+00 -0.46292846846E+02  0.46292846846E+02  0.00000000000E+00 0.  1.
          6    1    1    2  502    0 -0.18004678675E+03  0.10846492215E+03  0.78130572264E+03  0.82716631761E+03  0.17200000000E+03 0. -1.
         -6    1    1    2    0  501  0.18004678675E+03 -0.10846492215E+03  0.76599356513E+03  0.81271866386E+03  0.17200000000E+03 0.  1.
</event>
<event>
 4    1  0.3211568E-002  0.2133470E+03  0.7818608E-02  0.1138943E+00
         -2   -1    0    0    0  501 -0.00000000000E+00  0.00000000000E+00  0.60195944825E+03  0.60195944825E+03  0.00000000000E+00 0.  1.
          2   -1    0    0  502    0  0.00000000000E+00 -0.00000000000E+00 -0.10661479326E+03  0.10661479326E+03  0.00000000000E+00 0. -1.
          6    1    1    2  502    0  0.12488746180E+03 -0.18332298692E+02  0.56630483878E+02  0.22073505158E+03  0.17200000000E+03 0. -1.
         -6    1    1    2    0  501 -0.12488746180E+03  0.18332298692E+02  0.43871417111E+03  0.48783918992E+03  0.17200000000E+03 0. -1.
</event>
<event>
 4    1  0.3211568E-002  0.5316322E+03  0.7818608E-02  0.1005837E+00
          1   -1    0    0  502    0  0.00000000000E+00  0.00000000000E+00  0.64543745253E+03  0.64543745253E+03  0.00000000000E+00 0. -1.
         -1   -1    0    0    0  501 -0.00000000000E+00 -0.00000000000E+00 -0.55768973262E+03  0.55768973262E+03  0.00000000000E+00 0.  1.
          6    1    1    2  502    0  0.20979325523E+03  0.45720406326E+03 -0.23493532709E+03  0.58122919173E+03  0.17200000000E+03 0. -1.
         -6    1    1    2    0  501 -0.20979325523E+03 -0.45720406326E+03  0.32268304700E+03  0.62189799342E+03  0.17200000000E+03 0. -1.
</event>
<event>
 4    1  0.3211568E-002  0.1898270E+03  0.7818608E-02  0.1158617E+00
         -2   -1    0    0    0  501 -0.00000000000E+00  0.00000000000E+00  0.39008850986E+02  0.39008850986E+02  0.00000000000E+00 0.  1.
          2   -1    0    0  502    0  0.00000000000E+00 -0.00000000000E+00 -0.12027826025E+04  0.12027826025E+04  0.00000000000E+00 0. -1.
          6    1    1    2  502    0 -0.66164252426E+02  0.45525737394E+02 -0.88094463244E+03  0.90116466114E+03  0.17200000000E+03 0. -1.
         -6    1    1    2    0  501  0.66164252426E+02 -0.45525737394E+02 -0.28282911905E+03  0.34062679232E+03  0.17200000000E+03 0.  1.
</event>
<event>
 4    1  0.3211568E-002  0.2206023E+03  0.7818608E-02  0.1133435E+00
         -2   -1    0    0    0  501 -0.00000000000E+00  0.00000000000E+00  0.62296788287E+02  0.62296788287E+02  0.00000000000E+00 0.  1.
          2   -1    0    0  502    0  0.00000000000E+00 -0.00000000000E+00 -0.96269417241E+03  0.96269417241E+03  0.00000000000E+00 0. -1.
          6    1    1    2  502    0 -0.10526202371E+03 -0.89449962424E+02 -0.67273135120E+03  0.70797800834E+03  0.17200000000E+03 0. -1.
         -6    1    1    2    0  501  0.10526202371E+03  0.89449962424E+02 -0.22766603293E+03  0.31701295236E+03  0.17200000000E+03 0.  1.
</event>
<event>
 4    1  0.3211568E-002  0.1995717E+03  0.7818608E-02  0.1150101E+00
         -1   -1    0    0    0  501 -0.00000000000E+00  0.00000000000E+00  0.41492072739E+03  0.41492072739E+03  0.00000000000E+00 0.  1.
          1   -1    0    0  502    0  0.00000000000E+00 -0.00000000000E+00 -0.13258670480E+03  0.13258670480E+03  0.00000000000E+00 0. -1.
          6    1    1    2  502    0 -0.85949459689E+02 -0.53456108060E+02 -0.26539196405E+01  0.19958934941E+03  0.17200000000E+03 0. -1.
         -6    1    1    2    0  501  0.85949459689E+02  0.53456108060E+02  0.28498794222E+03  0.34791808278E+03  0.17200000000E+03 0.  1.
</event>
<event>
 4    1  0.3211568E-002  0.2163751E+03  0.7818608E-02  0.1136615E+00
          2   -1    0    0  502    0  0.00000000000E+00  0.00000000000E+00  0.41900619430E+03  0.41900619430E+03  0.00000000000E+00 0. -1.
         -2   -1    0    0    0  501 -0.00000000000E+00 -0.00000000000E+00 -0.11241607370E+03  0.11241607370E+03  0.00000000000E+00 0.  1.
          6    1    1    2  502    0 -0.12604280786E+02 -0.13067254722E+03  0.17395801708E+03  0.27763208424E+03  0.17200000000E+03 0. -1.
         -6    1    1    2    0  501  0.12604280786E+02  0.13067254722E+03  0.13263210352E+03  0.25379018377E+03  0.17200000000E+03 0.  1.
</event>
<event>
 4    1  0.3211568E-002  0.2202823E+03  0.7818608E-02  0.1133673E+00
         -2   -1    0    0    0  501 -0.00000000000E+00  0.00000000000E+00  0.35432433146E+03  0.35432433146E+03  0.00000000000E+00 0.  1.
          2   -1    0    0  502    0  0.00000000000E+00 -0.00000000000E+00 -0.14551235802E+03  0.14551235802E+03  0.00000000000E+00 0. -1.
          6    1    1    2  502    0  0.67808759989E+02  0.11975920085E+03  0.16503425551E+03  0.27524643433E+03  0.17200000000E+03 0.  1.
         -6    1    1    2    0  501 -0.67808759989E+02 -0.11975920085E+03  0.43777717932E+02  0.22459025515E+03  0.17200000000E+03 0. -1.
</event>
<event>
 4    1  0.3211568E-002  0.3950133E+03  0.7818608E-02  0.1045520E+00
         -1   -1    0    0    0  501 -0.00000000000E+00  0.00000000000E+00  0.30051747859E+03  0.30051747859E+03  0.00000000000E+00 0.  1.
          1   -1    0    0  502    0  0.00000000000E+00 -0.00000000000E+00 -0.23508882971E+04  0.23508882971E+04  0.00000000000E+00 0. -1.
          6    1    1    2  502    0 -0.35534159129E+03 -0.13560021556E+02 -0.21953670769E+04  0.22306214656E+04  0.17200000000E+03 0. -1.
         -6    1    1    2    0  501  0.35534159129E+03  0.13560021556E+02  0.14499625834E+03  0.42078431009E+03  0.17200000000E+03 0.  1.
</event>
<event>
 4    1  0.3211568E-002  0.3580513E+03  0.7818608E-02  0.1059358E+00
         -2   -1    0    0    0  501 -0.00000000000E+00  0.00000000000E+00  0.51107049058E+03  0.51107049058E+03  0.00000000000E+00 0.  1.
          2   -1    0    0  502    0  0.00000000000E+00 -0.00000000000E+00 -0.25486518671E+03  0.25486518671E+03  0.00000000000E+00 0. -1.
          6    1    1    2  502    0  0.24301864085E+03 -0.19889363298E+03  0.80019052944E+02  0.36688388609E+03  0.17200000000E+03 0. -1.
         -6    1    1    2    0  501 -0.24301864085E+03  0.19889363298E+03  0.17618625092E+03  0.39905179119E+03  0.17200000000E+03 0.  1.
</event>
<event>
 4    1  0.3211568E-002  0.2078493E+03  0.7818608E-02  0.1143281E+00
          2   -1    0    0  502    0  0.00000000000E+00  0.00000000000E+00  0.65443314089E+02  0.65443314089E+02  0.00000000000E+00 0. -1.
         -2   -1    0    0    0  501 -0.00000000000E+00 -0.00000000000E+00 -0.66481136968E+03  0.66481136968E+03  0.00000000000E+00 0.  1.
          6    1    1    2  502    0  0.33813738453E+02 -0.11168688485E+03 -0.26905624737E+03  0.33998910777E+03  0.17200000000E+03 0. -1.
         -6    1    1    2    0  501 -0.33813738453E+02  0.11168688485E+03 -0.33031180822E+03  0.39026557599E+03  0.17200000000E+03 0.  1.
</event>
<event>
 4    1  0.3211568E-002  0.2305293E+03  0.7818608E-02  0.1126268E+00
         -1   -1    0    0    0  501 -0.00000000000E+00  0.00000000000E+00  0.19250042479E+03  0.19250042479E+03  0.00000000000E+00 0.  1.
          1   -1    0    0  502    0  0.00000000000E+00 -0.00000000000E+00 -0.28185640322E+03  0.28185640322E+03  0.00000000000E+00 0. -1.
          6    1    1    2  502    0  0.74013830121E+02 -0.13446832192E+03 -0.10697501496E+02  0.23077741048E+03  0.17200000000E+03 0. -1.
         -6    1    1    2    0  501 -0.74013830121E+02  0.13446832192E+03 -0.78658476938E+02  0.24357941753E+03  0.17200000000E+03 0.  1.
</event>
<event>
 4    1  0.3211568E-002  0.2932422E+03  0.7818608E-02  0.1088668E+00
         -2   -1    0    0    0  501 -0.00000000000E+00  0.00000000000E+00  0.13165833992E+04  0.13165833992E+04  0.00000000000E+00 0.  1.
          2   -1    0    0  502    0  0.00000000000E+00 -0.00000000000E+00 -0.66437092772E+02  0.66437092772E+02  0.00000000000E+00 0. -1.
          6    1    1    2  502    0  0.16752842271E+03  0.16834844875E+03  0.71499253861E+03  0.77279059446E+03  0.17200000000E+03 0.  1.
         -6    1    1    2    0  501 -0.16752842271E+03 -0.16834844875E+03  0.53515376782E+03  0.61022989752E+03  0.17200000000E+03 0. -1.
</event>
<event>
 4    1  0.3211568E-002  0.1750059E+03  0.7818608E-02  0.1172726E+00
          1   -1    0    0  502    0  0.00000000000E+00  0.00000000000E+00  0.22378019170E+03  0.22378019170E+03  0.00000000000E+00 0. -1.
         -1   -1    0    0    0  501 -0.00000000000E+00 -0.00000000000E+00 -0.26705436464E+03  0.26705436464E+03  0.00000000000E+00 0.  1.
          6    1    1    2  502    0  0.25698680494E+02 -0.19561691340E+02 -0.19299236058E+03  0.26052472664E+03  0.17200000000E+03 0.  1.
         -6    1    1    2    0  501 -0.25698680494E+02  0.19561691340E+02  0.14971818764E+03  0.23030982970E+03  0.17200000000E+03 0. -1.
</event>
<event>
 4    1  0.3211568E-002  0.2206991E+03  0.7818608E-02  0.1133363E+00
         -1   -1    0    0    0  501 -0.00000000000E+00  0.00000000000E+00  0.11349140537E+04  0.11349140537E+04  0.00000000000E+00 0.  1.
          1   -1    0    0  502    0  0.00000000000E+00 -0.00000000000E+00 -0.60341289895E+02  0.60341289895E+02  0.00000000000E+00 0. -1.
          6    1    1    2  502    0  0.64693526935E+02 -0.12222448393E+03  0.21614942274E+03  0.30891527941E+03  0.17200000000E+03 0. -1.
         -6    1    1    2    0  501 -0.64693526935E+02  0.12222448393E+03  0.85842334105E+03  0.88634006417E+03  0.17200000000E+03 0.  1.
</event>
<event>
 4    1  0.3211568E-002  0.2874829E+03  0.7818608E-02  0.1091671E+00
         -2   -1    0    0    0  501 -0.00000000000E+00  0.00000000000E+00  0.52762361331E+02  0.52762361331E+02  0.00000000000E+00 0.  1.
          2   -1    0    0  502    0  0.00000000000E+00 -0.00000000000E+00 -0.19597754950E+04  0.19597754950E+04  0.00000000000E+00 0. -1.
          6    1    1    2  502    0  0.22219603853E+03 -0.60756432586E+02 -0.14043442331E+04  0.14334675262E+04  0.17200000000E+03 0. -1.
         -6    1    1    2    0  501 -0.22219603853E+03  0.60756432586E+02 -0.50266890060E+03  0.57907033016E+03  0.17200000000E+03 0.  1.
</event>
<event>
 4    1  0.3211568E-002  0.5357775E+03  0.7818608E-02  0.1004841E+00
         -1   -1    0    0    0  501 -0.00000000000E+00  0.00000000000E+00  0.23537709070E+03  0.23537709070E+03  0.00000000000E+00 0.  1.
          1   -1    0    0  502    0  0.00000000000E+00 -0.00000000000E+00 -0.13102697445E+04  0.13102697445E+04  0.00000000000E+00 0. -1.
          6    1    1    2  502    0 -0.58398594805E+02  0.50404673287E+03 -0.33410927893E+03  0.63141627716E+03  0.17200000000E+03 0. -1.
         -6    1    1    2    0  501  0.58398594805E+02 -0.50404673287E+03 -0.74078337488E+03  0.91423055806E+03  0.17200000000E+03 0.  1.
</event>
<event>
 4    1  0.3211568E-002  0.1170047E+04  0.7818608E-02  0.9139486E-01
          1   -1    0    0  502    0  0.00000000000E+00  0.00000000000E+00  0.12305691177E+04  0.12305691177E+04  0.00000000000E+00 0. -1.
         -1   -1    0    0    0  501 -0.00000000000E+00 -0.00000000000E+00 -0.12340749249E+04  0.12340749249E+04  0.00000000000E+00 0.  1.
          6    1    1    2  502    0 -0.89387417327E+03 -0.73512972707E+03  0.38503391222E+03  0.12317718404E+04  0.17200000000E+03 0.  1.
         -6    1    1    2    0  501  0.89387417327E+03  0.73512972707E+03 -0.38853971938E+03  0.12328722021E+04  0.17200000000E+03 0.  1.
</event>
<event>
 4    1  0.3211568E-002  0.2296590E+03  0.7818608E-02  0.1126880E+00
          3   -1    0    0  502    0  0.00000000000E+00  0.00000000000E+00  0.16453899615E+03  0.16453899615E+03  0.00000000000E+00 0. -1.
         -3   -1    0    0    0  501 -0.00000000000E+00 -0.00000000000E+00 -0.33135570905E+03  0.33135570905E+03  0.00000000000E+00 0.  1.
          6    1    1    2  502    0  0.13677269264E+03 -0.66726892638E+02 -0.12818026473E+03  0.26300841796E+03  0.17200000000E+03 0.  1.
         -6    1    1    2    0  501 -0.13677269264E+03  0.66726892638E+02 -0.38636448173E+02  0.23288628723E+03  0.17200000000E+03 0. -1.
</event>
<event>
 4    1  0.3211568E-002  0.7171002E+03  0.7818608E-02  0.9688427E-01
          1   -1    0    0  502    0  0.00000000000E+00  0.00000000000E+00  0.42114515264E+04  0.42114515264E+04  0.00000000000E+00 0. -1.
         -1   -1    0    0    0  501 -0.00000000000E+00 -0.00000000000E+00 -0.15969237225E+03  0.15969237225E+03  0.00000000000E+00 0.  1.
          6    1    1    2  502    0  0.42041070732E+03 -0.55489059077E+03  0.30862387566E+04  0.31684542593E+04  0.17200000000E+03 0. -1.
         -6    1    1    2    0  501 -0.42041070732E+03  0.55489059077E+03  0.96552039761E+03  0.12026896394E+04  0.17200000000E+03 0.  1.
</event>
<event>
 4    1  0.3211568E-002  0.2029470E+03  0.7818608E-02  0.1147276E+00
          1   -1    0    0  502    0  0.00000000000E+00  0.00000000000E+00  0.27874239083E+04  0.27874239083E+04  0.00000000000E+00 0. -1.
         -1   -1    0    0    0  501 -0.00000000000E+00 -0.00000000000E+00 -0.41521141374E+02  0.41521141374E+02  0.00000000000E+00 0.  1.
          6    1    1    2  502    0  0.15401142238E+02  0.10661278974E+03  0.25081735120E+04  0.25163707693E+04  0.17200000000E+03 0. -1.
         -6    1    1    2    0  501 -0.15401142238E+02 -0.10661278974E+03  0.23772925489E+03  0.31257428037E+03  0.17200000000E+03 0.  1.
</event>
<event>
 4    1  0.3211568E-002  0.2485545E+03  0.7818608E-02  0.1114222E+00
          1   -1    0    0  502    0  0.00000000000E+00  0.00000000000E+00  0.85091541636E+03  0.85091541636E+03  0.00000000000E+00 0. -1.
         -1   -1    0    0    0  501 -0.00000000000E+00 -0.00000000000E+00 -0.85446546817E+02  0.85446546817E+02  0.00000000000E+00 0.  1.
          6    1    1    2  502    0 -0.16561541741E+03 -0.69042483640E+02  0.20122355708E+03  0.31979720286E+03  0.17200000000E+03 0.  1.
         -6    1    1    2    0  501  0.16561541741E+03  0.69042483640E+02  0.56424531247E+03  0.61656476032E+03  0.17200000000E+03 0. -1.
</event>
<event>
 4    1  0.3211568E-002  0.2039227E+03  0.7818608E-02  0.1146471E+00
          1   -1    0    0  502    0  0.00000000000E+00  0.00000000000E+00  0.18346547906E+04  0.18346547906E+04  0.00000000000E+00 0. -1.
         -1   -1    0    0    0  501 -0.00000000000E+00 -0.00000000000E+00 -0.41937492523E+02  0.41937492523E+02  0.00000000000E+00 0.  1.
          6    1    1    2  502    0  0.98204522933E+02 -0.48542083920E+02  0.15324145561E+04  0.15459232950E+04  0.17200000000E+03 0. -1.
         -6    1    1    2    0  501 -0.98204522933E+02  0.48542083920E+02  0.26030274199E+03  0.33066898815E+03  0.17200000000E+03 0.  1.
</event>
<event>
 4    1  0.3211568E-002  0.2358291E+03  0.7818608E-02  0.1122603E+00
         -3   -1    0    0    0  501 -0.00000000000E+00  0.00000000000E+00  0.14377572100E+03  0.14377572100E+03  0.00000000000E+00 0.  1.
          3   -1    0    0  502    0  0.00000000000E+00 -0.00000000000E+00 -0.45752021733E+03  0.45752021733E+03  0.00000000000E+00 0. -1.
          6    1    1    2  502    0  0.90006162474E+02 -0.13390396250E+03 -0.27505723375E+03  0.36231459023E+03  0.17200000000E+03 0. -1.
         -6    1    1    2    0  501 -0.90006162474E+02  0.13390396250E+03 -0.38687262573E+02  0.23898134810E+03  0.17200000000E+03 0.  1.
</event>
<event>
 4    1  0.3211568E-002  0.7071875E+03  0.7818608E-02  0.9705019E-01
         -2   -1    0    0    0  501 -0.00000000000E+00  0.00000000000E+00  0.12495386912E+04  0.12495386912E+04  0.00000000000E+00 0.  1.
          2   -1    0    0  502    0  0.00000000000E+00 -0.00000000000E+00 -0.66853830136E+03  0.66853830136E+03  0.00000000000E+00 0. -1.
          6    1    1    2  502    0  0.32661686855E+03 -0.60320110762E+03 -0.31705066414E+03  0.77500663138E+03  0.17200000000E+03 0. -1.
         -6    1    1    2    0  501 -0.32661686855E+03  0.60320110762E+03  0.89805105397E+03  0.11430703612E+04  0.17200000000E+03 0.  1.
</event>
<event>
 4    1  0.3211568E-002  0.1064636E+04  0.7818608E-02  0.9240363E-01
          2   -1    0    0  502    0  0.00000000000E+00  0.00000000000E+00  0.67121739925E+03  0.67121739925E+03  0.00000000000E+00 0. -1.
         -2   -1    0    0    0  501 -0.00000000000E+00 -0.00000000000E+00 -0.19532615142E+04  0.19532615142E+04  0.00000000000E+00 0.  1.
          6    1    1    2  502    0  0.58866631222E+03  0.87025109499E+03 -0.15802994935E+03  0.10763003579E+04  0.17200000000E+03 0. -1.
         -6    1    1    2    0  501 -0.58866631222E+03 -0.87025109499E+03 -0.11240141656E+04  0.15481785555E+04  0.17200000000E+03 0.  1.
</event>
<event>
 4    1  0.3211568E-002  0.2004636E+03  0.7818608E-02  0.1149348E+00
          2   -1    0    0  502    0  0.00000000000E+00  0.00000000000E+00  0.24358023510E+04  0.24358023510E+04  0.00000000000E+00 0. -1.
         -2   -1    0    0    0  501 -0.00000000000E+00 -0.00000000000E+00 -0.19908377099E+02  0.19908377099E+02  0.00000000000E+00 0.  1.
          6    1    1    2  502    0  0.68997044645E+02 -0.76426804186E+02  0.17161487870E+04  0.17278172090E+04  0.17200000000E+03 0. -1.
         -6    1    1    2    0  501 -0.68997044645E+02  0.76426804186E+02  0.69974518693E+03  0.72789351914E+03  0.17200000000E+03 0.  1.
</event>
<event>
 4    1  0.3211568E-002  0.1845052E+03  0.7818608E-02  0.1163513E+00
          1   -1    0    0  502    0  0.00000000000E+00  0.00000000000E+00  0.19441990259E+02  0.19441990259E+02  0.00000000000E+00 0. -1.
         -1   -1    0    0    0  501 -0.00000000000E+00 -0.00000000000E+00 -0.18449174859E+04  0.18449174859E+04  0.00000000000E+00 0.  1.
          6    1    1    2  502    0  0.51983524966E+02 -0.41903379564E+02 -0.11231025021E+04  0.11381570236E+04  0.17200000000E+03 0.  1.
         -6    1    1    2    0  501 -0.51983524966E+02  0.41903379564E+02 -0.70237299354E+03  0.72620245259E+03  0.17200000000E+03 0.  1.
</event>
<event>
 4    1  0.3211568E-002  0.2333282E+03  0.7818608E-02  0.1124319E+00
          1   -1    0    0  502    0  0.00000000000E+00  0.00000000000E+00  0.13178992473E+04  0.13178992473E+04  0.00000000000E+00 0. -1.
         -1   -1    0    0    0  501 -0.00000000000E+00 -0.00000000000E+00 -0.51215810690E+02  0.51215810690E+02  0.00000000000E+00 0.  1.
          6    1    1    2  502    0 -0.14635222334E+03 -0.58643745434E+02  0.93440573728E+03  0.96309716230E+03  0.17200000000E+03 0. -1.
         -6    1    1    2    0  501  0.14635222334E+03  0.58643745434E+02  0.33227769934E+03  0.40601789571E+03  0.17200000000E+03 0. -1.
</event>
<event>
 4    1  0.3211568E-002  0.2522316E+03  0.7818608E-02  0.1111903E+00
         -1   -1    0    0    0  501 -0.00000000000E+00  0.00000000000E+00  0.39187282571E+02  0.39187282571E+02  0.00000000000E+00 0.  1.
          1   -1    0    0  502    0  0.00000000000E+00 -0.00000000000E+00 -0.16236926538E+04  0.16236926538E+04  0.00000000000E+00 0. -1.
          6    1    1    2  502    0 -0.10457839327E+03  0.15198736895E+03 -0.80115970769E+03  0.83992718606E+03  0.17200000000E+03 0.  1.
         -6    1    1    2    0  501  0.10457839327E+03 -0.15198736895E+03 -0.78334566357E+03  0.82295275034E+03  0.17200000000E+03 0.  1.
</event>
<event>
 4    1  0.3211568E-002  0.1898240E+03  0.7818608E-02  0.1158620E+00
          2   -1    0    0  502    0  0.00000000000E+00  0.00000000000E+00  0.62398264010E+03  0.62398264010E+03  0.00000000000E+00 0. -1.
         -2   -1    0    0    0  501 -0.00000000000E+00 -0.00000000000E+00 -0.69276220237E+02  0.69276220237E+02  0.00000000000E+00 0.  1.
          6    1    1    2  502    0  0.80015213459E+02 -0.68341683791E+01  0.41876084671E+03  0.45977580077E+03  0.17200000000E+03 0. -1.
         -6    1    1    2    0  501 -0.80015213459E+02  0.68341683791E+01  0.13594557316E+03  0.23348305956E+03  0.17200000000E+03 0.  1.
</event>
<event>
 4    1  0.3211568E-002  0.1724515E+03  0.7818608E-02  0.1175315E+00
          2   -1    0    0  502    0  0.00000000000E+00  0.00000000000E+00  0.15730130587E+04  0.15730130587E+04  0.00000000000E+00 0. -1.
         -2   -1    0    0    0  501 -0.00000000000E+00 -0.00000000000E+00 -0.36583729739E+02  0.36583729739E+02  0.00000000000E+00 0.  1.
          6    1    1    2  502    0 -0.81339541217E+01 -0.94523141173E+01  0.20877223780E+03  0.27078654827E+03  0.17200000000E+03 0.  1.
         -6    1    1    2    0  501  0.81339541217E+01  0.94523141173E+01  0.13276570912E+04  0.13388102402E+04  0.17200000000E+03 0. -1.
</event>
<event>
 4    1  0.3211568E-002  0.3635792E+03  0.7818608E-02  0.1057176E+00
         -2   -1    0    0    0  501 -0.00000000000E+00  0.00000000000E+00  0.38107135848E+03  0.38107135848E+03  0.00000000000E+00 0.  1.
          2   -1    0    0  502    0  0.00000000000E+00 -0.00000000000E+00 -0.71458071350E+03  0.71458071350E+03  0.00000000000E+00 0. -1.
          6    1    1    2  502    0  0.10131853275E+03 -0.30387559094E+03 -0.55972376724E+03  0.66744326760E+03  0.17200000000E+03 0. -1.
         -6    1    1    2    0  501 -0.10131853275E+03  0.30387559094E+03  0.22621441223E+03  0.42820880438E+03  0.17200000000E+03 0.  1.
</event>
<event>
 4    1  0.3211568E-002  0.2363961E+03  0.7818608E-02  0.1122217E+00
         -3   -1    0    0    0  501 -0.00000000000E+00  0.00000000000E+00  0.15640580860E+03  0.15640580860E+03  0.00000000000E+00 0.  1.
          3   -1    0    0  502    0  0.00000000000E+00 -0.00000000000E+00 -0.35762014695E+03  0.35762014695E+03  0.00000000000E+00 0. -1.
          6    1    1    2  502    0 -0.55492452964E+02 -0.15238006871E+03 -0.10835042648E+03  0.26004405895E+03  0.17200000000E+03 0. -1.
         -6    1    1    2    0  501  0.55492452964E+02  0.15238006871E+03 -0.92863911871E+02  0.25398189661E+03  0.17200000000E+03 0.  1.
</event>
<event>
 4    1  0.3211568E-002  0.2255907E+03  0.7818608E-02  0.1129782E+00
          1   -1    0    0  502    0  0.00000000000E+00  0.00000000000E+00  0.19859097082E+03  0.19859097082E+03  0.00000000000E+00 0. -1.
         -1   -1    0    0    0  501 -0.00000000000E+00 -0.00000000000E+00 -0.44437998701E+03  0.44437998701E+03  0.00000000000E+00 0.  1.
          6    1    1    2  502    0  0.11578800317E+03 -0.88883674230E+02 -0.33206487074E+03  0.40144519875E+03  0.17200000000E+03 0.  1.
         -6    1    1    2    0  501 -0.11578800317E+03  0.88883674230E+02  0.86275854548E+02  0.24152575908E+03  0.17200000000E+03 0. -1.
</event>
<event>
 4    1  0.3211568E-002  0.1738722E+03  0.7818608E-02  0.1173869E+00
         -2   -1    0    0    0  501 -0.00000000000E+00  0.00000000000E+00  0.40391942428E+03  0.40391942428E+03  0.00000000000E+00 0.  1.
          2   -1    0    0  502    0  0.00000000000E+00 -0.00000000000E+00 -0.75437470502E+02  0.75437470502E+02  0.00000000000E+00 0. -1.
          6    1    1    2  502    0 -0.21592120875E+02  0.13465511801E+02  0.14300872922E+03  0.22512893267E+03  0.17200000000E+03 0. -1.
         -6    1    1    2    0  501  0.21592120875E+02 -0.13465511801E+02  0.18547322456E+03  0.25422796211E+03  0.17200000000E+03 0.  1.
</event>
<event>
 4    1  0.3211568E-002  0.2181990E+03  0.7818608E-02  0.1135233E+00
          2   -1    0    0  502    0  0.00000000000E+00  0.00000000000E+00  0.24878405297E+04  0.24878405297E+04  0.00000000000E+00 0. -1.
         -2   -1    0    0    0  501 -0.00000000000E+00 -0.00000000000E+00 -0.27299481869E+02  0.27299481869E+02  0.00000000000E+00 0.  1.
          6    1    1    2  502    0 -0.90577143587E+02  0.99109044261E+02  0.19179011380E+04  0.19302734513E+04  0.17200000000E+03 0. -1.
         -6    1    1    2    0  501  0.90577143587E+02 -0.99109044261E+02  0.54263990981E+03  0.58486656027E+03  0.17200000000E+03 0.  1.
</event>
<event>
 4    1  0.3211568E-002  0.2437083E+03  0.7818608E-02  0.1117347E+00
          1   -1    0    0  502    0  0.00000000000E+00  0.00000000000E+00  0.15120084398E+04  0.15120084398E+04  0.00000000000E+00 0. -1.
         -1   -1    0    0    0  501 -0.00000000000E+00 -0.00000000000E+00 -0.59264095627E+02  0.59264095627E+02  0.00000000000E+00 0.  1.
          6    1    1    2  502    0 -0.16956029389E+03  0.32542690275E+02  0.11825701594E+04  0.12074211783E+04  0.17200000000E+03 0. -1.
         -6    1    1    2    0  501  0.16956029389E+03 -0.32542690275E+02  0.27017418480E+03  0.36385135713E+03  0.17200000000E+03 0.  1.
</event>
<event>
 4    1  0.3211568E-002  0.2837965E+03  0.7818608E-02  0.1093633E+00
         -2   -1    0    0    0  501 -0.00000000000E+00  0.00000000000E+00  0.64825266703E+02  0.64825266703E+02  0.00000000000E+00 0.  1.
          2   -1    0    0  502    0  0.00000000000E+00 -0.00000000000E+00 -0.13340477845E+04  0.13340477845E+04  0.00000000000E+00 0. -1.
          6    1    1    2  502    0 -0.78646276859E+02 -0.21159212860E+03 -0.81791308001E+03  0.86574954358E+03  0.17200000000E+03 0. -1.
         -6    1    1    2    0  501  0.78646276859E+02  0.21159212860E+03 -0.45130943778E+03  0.53312350762E+03  0.17200000000E+03 0.  1.
</event>
<event>
 4    1  0.3211568E-002  0.1970515E+03  0.7818608E-02  0.1152251E+00
         -2   -1    0    0    0  501 -0.00000000000E+00  0.00000000000E+00  0.35783635968E+02  0.35783635968E+02  0.00000000000E+00 0.  1.
          2   -1    0    0  502    0  0.00000000000E+00 -0.00000000000E+00 -0.12086322442E+04  0.12086322442E+04  0.00000000000E+00 0. -1.
          6    1    1    2  502    0 -0.57966090439E+02  0.76715241981E+02 -0.78533375076E+03  0.80967795825E+03  0.17200000000E+03 0. -1.
         -6    1    1    2    0  501  0.57966090439E+02 -0.76715241981E+02 -0.38751485748E+03  0.43473792193E+03  0.17200000000E+03 0.  1.
</event>
<event>
 4    1  0.3211568E-002  0.2484475E+03  0.7818608E-02  0.1114290E+00
         -2   -1    0    0    0  501 -0.00000000000E+00  0.00000000000E+00  0.74017450244E+02  0.74017450244E+02  0.00000000000E+00 0.  1.
          2   -1    0    0  502    0  0.00000000000E+00 -0.00000000000E+00 -0.29481406855E+04  0.29481406855E+04  0.00000000000E+00 0. -1.
          6    1    1    2  502    0 -0.20835046408E+02  0.17806760467E+03 -0.27166966196E+04  0.27280334848E+04  0.17200000000E+03 0. -1.
         -6    1    1    2    0  501  0.20835046408E+02 -0.17806760467E+03 -0.15742661561E+03  0.29412465095E+03  0.17200000000E+03 0.  1.
</event>
<event>
 4    1  0.3211568E-002  0.4274254E+03  0.7818608E-02  0.1034676E+00
         -3   -1    0    0    0  501 -0.00000000000E+00  0.00000000000E+00  0.25445530635E+03  0.25445530635E+03  0.00000000000E+00 0.  1.
          3   -1    0    0  502    0  0.00000000000E+00 -0.00000000000E+00 -0.30915901299E+04  0.30915901299E+04  0.00000000000E+00 0. -1.
          6    1    1    2  502    0  0.23531092376E+03 -0.31262953204E+03 -0.28845069777E+04  0.29160029080E+04  0.17200000000E+03 0. -1.
         -6    1    1    2    0  501 -0.23531092376E+03  0.31262953204E+03  0.47372154103E+02  0.43004252828E+03  0.17200000000E+03 0.  1.
</event>
<event>
 4    1  0.3211568E-002  0.2089460E+03  0.7818608E-02  0.1142403E+00
         -2   -1    0    0    0  501 -0.00000000000E+00  0.00000000000E+00  0.26224504024E+02  0.26224504024E+02  0.00000000000E+00 0.  1.
          2   -1    0    0  502    0  0.00000000000E+00 -0.00000000000E+00 -0.28664648185E+04  0.28664648185E+04  0.00000000000E+00 0. -1.
          6    1    1    2  502    0 -0.15708140462E+02  0.11759112680E+03 -0.23565841773E+04  0.23658291154E+04  0.17200000000E+03 0. -1.
         -6    1    1    2    0  501  0.15708140462E+02 -0.11759112680E+03 -0.48365613718E+03  0.52686020709E+03  0.17200000000E+03 0.  1.
</event>
<event>
 4    1  0.3211568E-002  0.1813655E+03  0.7818608E-02  0.1166488E+00
         -2   -1    0    0    0  501 -0.00000000000E+00  0.00000000000E+00  0.90188790670E+02  0.90188790670E+02  0.00000000000E+00 0.  1.
          2   -1    0    0  502    0  0.00000000000E+00 -0.00000000000E+00 -0.37200761630E+03  0.37200761630E+03  0.00000000000E+00 0. -1.
          6    1    1    2  502    0 -0.42166944635E+02 -0.39133015877E+02 -0.17326008391E+03  0.25082364487E+03  0.17200000000E+03 0. -1.
         -6    1    1    2    0  501  0.42166944635E+02  0.39133015877E+02 -0.10855874172E+03  0.21137276209E+03  0.17200000000E+03 0.  1.
</event>
<event>
 4    1  0.3211568E-002  0.2323402E+03  0.7818608E-02  0.1125003E+00
         -1   -1    0    0    0  501 -0.00000000000E+00  0.00000000000E+00  0.49932526550E+03  0.49932526550E+03  0.00000000000E+00 0.  1.
          1   -1    0    0  502    0  0.00000000000E+00 -0.00000000000E+00 -0.12392378426E+03  0.12392378426E+03  0.00000000000E+00 0. -1.
          6    1    1    2  502    0  0.70769481567E+02  0.13924672960E+03  0.76380409507E+02  0.24457297108E+03  0.17200000000E+03 0. -1.
         -6    1    1    2    0  501 -0.70769481567E+02 -0.13924672960E+03  0.29902107173E+03  0.37867607868E+03  0.17200000000E+03 0.  1.
</event>
<event>
 4    1  0.3211568E-002  0.8153262E+03  0.7818608E-02  0.9538094E-01
          2   -1    0    0  502    0  0.00000000000E+00  0.00000000000E+00  0.13978285623E+04  0.13978285623E+04  0.00000000000E+00 0. -1.
         -2   -1    0    0    0  501 -0.00000000000E+00 -0.00000000000E+00 -0.60687574590E+03  0.60687574590E+03  0.00000000000E+00 0.  1.
          6    1    1    2  502    0  0.42113098807E+03 -0.67662512574E+03  0.86173012963E+03  0.11863117997E+04  0.17200000000E+03 0. -1.
         -6    1    1    2    0  501 -0.42113098807E+03  0.67662512574E+03 -0.70777313182E+02  0.81839250850E+03  0.17200000000E+03 0.  1.
</event>
<event>
 4    1  0.3211568E-002  0.1837275E+03  0.7818608E-02  0.1164244E+00
         -4   -1    0    0    0  501 -0.00000000000E+00  0.00000000000E+00  0.74397178936E+03  0.74397178936E+03  0.00000000000E+00 0.  1.
          4   -1    0    0  502    0  0.00000000000E+00 -0.00000000000E+00 -0.45693828188E+02  0.45693828188E+02  0.00000000000E+00 0. -1.
          6    1    1    2  502    0  0.21535266099E+02 -0.60893438208E+02  0.31602335987E+03  0.36554964435E+03  0.17200000000E+03 0.  1.
         -6    1    1    2    0  501 -0.21535266099E+02  0.60893438208E+02  0.38225460131E+03  0.42411597320E+03  0.17200000000E+03 0. -1.
</event>
<event>
 4    1  0.3211568E-002  0.1897647E+03  0.7818608E-02  0.1158674E+00
          2   -1    0    0  502    0  0.00000000000E+00  0.00000000000E+00  0.48414917657E+03  0.48414917657E+03  0.00000000000E+00 0. -1.
         -2   -1    0    0    0  501 -0.00000000000E+00 -0.00000000000E+00 -0.77519430446E+02  0.77519430446E+02  0.00000000000E+00 0.  1.
          6    1    1    2  502    0 -0.75869827235E+02  0.25892165242E+02  0.25983780798E+03  0.32175506423E+03  0.17200000000E+03 0. -1.
         -6    1    1    2    0  501  0.75869827235E+02 -0.25892165242E+02  0.14679193815E+03  0.23991354278E+03  0.17200000000E+03 0.  1.
</event>
<event>
 4    1  0.3211568E-002  0.2675786E+03  0.7818608E-02  0.1102673E+00
          2   -1    0    0  502    0  0.00000000000E+00  0.00000000000E+00  0.25495714323E+03  0.25495714323E+03  0.00000000000E+00 0. -1.
         -2   -1    0    0    0  501 -0.00000000000E+00 -0.00000000000E+00 -0.55435592725E+03  0.55435592725E+03  0.00000000000E+00 0.  1.
          6    1    1    2  502    0 -0.13675819215E+03  0.15268104468E+03  0.13454737875E+03  0.29950175567E+03  0.17200000000E+03 0. -1.
         -6    1    1    2    0  501  0.13675819215E+03 -0.15268104468E+03 -0.43394616277E+03  0.50981131481E+03  0.17200000000E+03 0.  1.
</event>
<event>
 4    1  0.3211568E-002  0.2172719E+03  0.7818608E-02  0.1135933E+00
          2   -1    0    0  502    0  0.00000000000E+00  0.00000000000E+00  0.31451322013E+03  0.31451322013E+03  0.00000000000E+00 0. -1.
         -2   -1    0    0    0  501 -0.00000000000E+00 -0.00000000000E+00 -0.15626150331E+03  0.15626150331E+03  0.00000000000E+00 0.  1.
          6    1    1    2  502    0 -0.12826790522E+03 -0.34211494781E+02  0.12588343363E+03  0.25110499944E+03  0.17200000000E+03 0. -1.
         -6    1    1    2    0  501  0.12826790522E+03  0.34211494781E+02  0.32368283186E+02  0.21966972400E+03  0.17200000000E+03 0. -1.
</event>
<event>
 4    1  0.3211568E-002  0.3091320E+03  0.7818608E-02  0.1080763E+00
         -1   -1    0    0    0  501 -0.00000000000E+00  0.00000000000E+00  0.14736273470E+04  0.14736273470E+04  0.00000000000E+00 0.  1.
          1   -1    0    0  502    0  0.00000000000E+00 -0.00000000000E+00 -0.82103596951E+02  0.82103596951E+02  0.00000000000E+00 0. -1.
          6    1    1    2  502    0  0.21548464551E+03 -0.13980333365E+03  0.33916181824E+03  0.45890450369E+03  0.17200000000E+03 0. -1.
         -6    1    1    2    0  501 -0.21548464551E+03  0.13980333365E+03  0.10523619318E+04  0.10968264402E+04  0.17200000000E+03 0.  1.
</event>
<event>
 4    1  0.3211568E-002  0.2437932E+03  0.7818608E-02  0.1117291E+00
         -3   -1    0    0    0  501 -0.00000000000E+00  0.00000000000E+00  0.56048030405E+02  0.56048030405E+02  0.00000000000E+00 0.  1.
          3   -1    0    0  502    0  0.00000000000E+00 -0.00000000000E+00 -0.11642261818E+04  0.11642261818E+04  0.00000000000E+00 0. -1.
          6    1    1    2  502    0 -0.61938776607E+02 -0.16129082321E+03 -0.73626653367E+03  0.77557949322E+03  0.17200000000E+03 0. -1.
         -6    1    1    2    0  501  0.61938776607E+02  0.16129082321E+03 -0.37191161777E+03  0.44469471903E+03  0.17200000000E+03 0.  1.
</event>
<event>
 4    1  0.3211568E-002  0.6410125E+03  0.7818608E-02  0.9823791E-01
          2   -1    0    0  502    0  0.00000000000E+00  0.00000000000E+00  0.39700856526E+04  0.39700856526E+04  0.00000000000E+00 0. -1.
         -2   -1    0    0    0  501 -0.00000000000E+00 -0.00000000000E+00 -0.14951045523E+03  0.14951045523E+03  0.00000000000E+00 0.  1.
          6    1    1    2  502    0  0.55984153178E+03  0.26055790328E+03  0.30529694587E+04  0.31195383437E+04  0.17200000000E+03 0. -1.
         -6    1    1    2    0  501 -0.55984153178E+03 -0.26055790328E+03  0.76760573860E+03  0.10000577641E+04  0.17200000000E+03 0.  1.
</event>
<event>
 4    1  0.3211568E-002  0.3531508E+03  0.7818608E-02  0.1061329E+00
         -1   -1    0    0    0  501 -0.00000000000E+00  0.00000000000E+00  0.60018112459E+03  0.60018112459E+03  0.00000000000E+00 0.  1.
          1   -1    0    0  502    0  0.00000000000E+00 -0.00000000000E+00 -0.20956935351E+03  0.20956935351E+03  0.00000000000E+00 0. -1.
          6    1    1    2  502    0  0.29450168442E+03  0.91652795809E+02  0.23254556983E+03  0.42283911735E+03  0.17200000000E+03 0.  1.
         -6    1    1    2    0  501 -0.29450168442E+03 -0.91652795809E+02  0.15806620124E+03  0.38691136076E+03  0.17200000000E+03 0.  1.
</event>
<event>
 4    1  0.3211568E-002  0.9956654E+03  0.7818608E-02  0.9313312E-01
          1   -1    0    0  502    0  0.00000000000E+00  0.00000000000E+00  0.21475900382E+04  0.21475900382E+04  0.00000000000E+00 0. -1.
         -1   -1    0    0    0  501 -0.00000000000E+00 -0.00000000000E+00 -0.51422712051E+03  0.51422712051E+03  0.00000000000E+00 0.  1.
          6    1    1    2  502    0  0.86389300767E+03 -0.46417080398E+03  0.12424102982E+04  0.15921472963E+04  0.17200000000E+03 0. -1.
         -6    1    1    2    0  501 -0.86389300767E+03  0.46417080398E+03  0.39095261955E+03  0.10696698625E+04  0.17200000000E+03 0.  1.
</event>
<event>
 4    1  0.3211568E-002  0.1923167E+03  0.7818608E-02  0.1156388E+00
          2   -1    0    0  502    0  0.00000000000E+00  0.00000000000E+00  0.49707432881E+03  0.49707432881E+03  0.00000000000E+00 0. -1.
         -2   -1    0    0    0  501 -0.00000000000E+00 -0.00000000000E+00 -0.79844692577E+02  0.79844692577E+02  0.00000000000E+00 0.  1.
          6    1    1    2  502    0  0.85585268404E+02  0.87672189924E+01  0.28389450091E+03  0.34290201216E+03  0.17200000000E+03 0. -1.
         -6    1    1    2    0  501 -0.85585268404E+02 -0.87672189924E+01  0.13333513533E+03  0.23401700923E+03  0.17200000000E+03 0.  1.
</event>
<event>
 4    1  0.3211568E-002  0.2019418E+03  0.7818608E-02  0.1148111E+00
          1   -1    0    0  502    0  0.00000000000E+00  0.00000000000E+00  0.12783027797E+04  0.12783027797E+04  0.00000000000E+00 0. -1.
         -1   -1    0    0    0  501 -0.00000000000E+00 -0.00000000000E+00 -0.35379986626E+02  0.35379986626E+02  0.00000000000E+00 0.  1.
          6    1    1    2  502    0  0.92393995327E+02  0.51573827255E+02  0.82740153508E+03  0.85168879896E+03  0.17200000000E+03 0. -1.
         -6    1    1    2    0  501 -0.92393995327E+02 -0.51573827255E+02  0.41552125798E+03  0.46199396734E+03  0.17200000000E+03 0.  1.
</event>
<event>
 4    1  0.3211568E-002  0.2289709E+03  0.7818608E-02  0.1127366E+00
         -1   -1    0    0    0  501 -0.00000000000E+00  0.00000000000E+00  0.41033918763E+03  0.41033918763E+03  0.00000000000E+00 0.  1.
          1   -1    0    0  502    0  0.00000000000E+00 -0.00000000000E+00 -0.13825010625E+03  0.13825010625E+03  0.00000000000E+00 0. -1.
          6    1    1    2  502    0  0.90819223103E+02  0.12081208727E+03  0.21157730999E+03  0.31175735728E+03  0.17200000000E+03 0. -1.
         -6    1    1    2    0  501 -0.90819223103E+02 -0.12081208727E+03  0.60511771395E+02  0.23683193660E+03  0.17200000000E+03 0.  1.
</event>
<event>
 4    1  0.3211568E-002  0.2124957E+03  0.7818608E-02  0.1139605E+00
          3   -1    0    0  502    0  0.00000000000E+00  0.00000000000E+00  0.14838735974E+03  0.14838735974E+03  0.00000000000E+00 0. -1.
         -3   -1    0    0    0  501 -0.00000000000E+00 -0.00000000000E+00 -0.38972302670E+03  0.38972302670E+03  0.00000000000E+00 0.  1.
          6    1    1    2  502    0 -0.11389678799E+03  0.50970140842E+02  0.52966419094E+01  0.21256172748E+03  0.17200000000E+03 0. -1.
         -6    1    1    2    0  501  0.11389678799E+03 -0.50970140842E+02 -0.24663230887E+03  0.32554865896E+03  0.17200000000E+03 0.  1.
</event>
<event>
 4    1  0.3211568E-002  0.2214619E+03  0.7818608E-02  0.1132798E+00
          2   -1    0    0  502    0  0.00000000000E+00  0.00000000000E+00  0.12594451421E+03  0.12594451421E+03  0.00000000000E+00 0. -1.
         -2   -1    0    0    0  501 -0.00000000000E+00 -0.00000000000E+00 -0.39734065340E+03  0.39734065340E+03  0.00000000000E+00 0.  1.
          6    1    1    2  502    0  0.94148726790E+01 -0.13918598262E+03 -0.98758373906E+02  0.24248421393E+03  0.17200000000E+03 0. -1.
         -6    1    1    2    0  501 -0.94148726790E+01  0.13918598262E+03 -0.17263776528E+03  0.28080095368E+03  0.17200000000E+03 0.  1.
</event>
<event>
 4    1  0.3211568E-002  0.2280909E+03  0.7818608E-02  0.1127991E+00
         -1   -1    0    0    0  501 -0.00000000000E+00  0.00000000000E+00  0.13291799020E+03  0.13291799020E+03  0.00000000000E+00 0.  1.
          1   -1    0    0  502    0  0.00000000000E+00 -0.00000000000E+00 -0.67773670104E+03  0.67773670104E+03  0.00000000000E+00 0. -1.
          6    1    1    2  502    0 -0.17245464322E+02  0.14880885062E+03 -0.53586411241E+03  0.58238803819E+03  0.17200000000E+03 0. -1.
         -6    1    1    2    0  501  0.17245464322E+02 -0.14880885062E+03 -0.89545984306E+01  0.22826665305E+03  0.17200000000E+03 0.  1.
</event>
<event>
 4    1  0.3211568E-002  0.1904898E+03  0.7818608E-02  0.1158020E+00
          1   -1    0    0  502    0  0.00000000000E+00  0.00000000000E+00  0.68344678815E+03  0.68344678815E+03  0.00000000000E+00 0. -1.
         -1   -1    0    0    0  501 -0.00000000000E+00 -0.00000000000E+00 -0.53093345150E+02  0.53093345150E+02  0.00000000000E+00 0.  1.
          6    1    1    2  502    0  0.61572578996E+02 -0.53955373417E+02  0.31582201371E+03  0.36882232735E+03  0.17200000000E+03 0. -1.
         -6    1    1    2    0  501 -0.61572578996E+02  0.53955373417E+02  0.31453142929E+03  0.36771780595E+03  0.17200000000E+03 0. -1.
</event>
<event>
 4    1  0.3211568E-002  0.2196206E+03  0.7818608E-02  0.1134166E+00
         -1   -1    0    0    0  501 -0.00000000000E+00  0.00000000000E+00  0.18839958624E+03  0.18839958624E+03  0.00000000000E+00 0.  1.
          1   -1    0    0  502    0  0.00000000000E+00 -0.00000000000E+00 -0.43253620381E+03  0.43253620381E+03  0.00000000000E+00 0. -1.
          6    1    1    2  502    0 -0.13171389519E+03 -0.36064364474E+02  0.76268562464E+02  0.23248673552E+03  0.17200000000E+03 0.  1.
         -6    1    1    2    0  501  0.13171389519E+03  0.36064364474E+02 -0.32040518004E+03  0.38844905453E+03  0.17200000000E+03 0. -1.
</event>
<event>
 4    1  0.3211568E-002  0.1732111E+03  0.7818608E-02  0.1174540E+00
         -2   -1    0    0    0  501 -0.00000000000E+00  0.00000000000E+00  0.75530284316E+02  0.75530284316E+02  0.00000000000E+00 0.  1.
          2   -1    0    0  502    0  0.00000000000E+00 -0.00000000000E+00 -0.71504608538E+03  0.71504608538E+03  0.00000000000E+00 0. -1.
          6    1    1    2  502    0 -0.15301619904E+02  0.13562809629E+02 -0.58329516882E+03  0.60846967331E+03  0.17200000000E+03 0. -1.
         -6    1    1    2    0  501  0.15301619904E+02 -0.13562809629E+02 -0.56220632245E+02  0.18210669638E+03  0.17200000000E+03 0.  1.
</event>
<event>
 4    1  0.3211568E-002  0.1100434E+04  0.7818608E-02  0.9204769E-01
         -1   -1    0    0    0  501 -0.00000000000E+00  0.00000000000E+00  0.15457164428E+04  0.15457164428E+04  0.00000000000E+00 0.  1.
          1   -1    0    0  502    0  0.00000000000E+00 -0.00000000000E+00 -0.82730991405E+03  0.82730991405E+03  0.00000000000E+00 0. -1.
          6    1    1    2  502    0  0.10856663567E+04 -0.51954432961E+02  0.63247223778E+03  0.12692422278E+04  0.17200000000E+03 0. -1.
         -6    1    1    2    0  501 -0.10856663567E+04  0.51954432961E+02  0.85934291012E+02  0.11037841291E+04  0.17200000000E+03 0.  1.
</event>
<event>
 4    1  0.3211568E-002  0.5666258E+03  0.7818608E-02  0.9977173E-01
          2   -1    0    0  502    0  0.00000000000E+00  0.00000000000E+00  0.19397406949E+04  0.19397406949E+04  0.00000000000E+00 0. -1.
         -2   -1    0    0    0  501 -0.00000000000E+00 -0.00000000000E+00 -0.17883731619E+03  0.17883731619E+03  0.00000000000E+00 0.  1.
          6    1    1    2  502    0  0.49849124458E+03  0.20733361186E+03  0.11695218518E+04  0.12995561201E+04  0.17200000000E+03 0. -1.
         -6    1    1    2    0  501 -0.49849124458E+03 -0.20733361186E+03  0.59138152697E+03  0.81902189102E+03  0.17200000000E+03 0.  1.
</event>
<event>
 4    1  0.3211568E-002  0.1904075E+03  0.7818608E-02  0.1158094E+00
          1   -1    0    0  502    0  0.00000000000E+00  0.00000000000E+00  0.59815049530E+03  0.59815049530E+03  0.00000000000E+00 0. -1.
         -1   -1    0    0    0  501 -0.00000000000E+00 -0.00000000000E+00 -0.60982261913E+02  0.60982261913E+02  0.00000000000E+00 0.  1.
          6    1    1    2  502    0  0.79300123079E+02  0.19557730596E+02  0.29426899339E+03  0.35049858034E+03  0.17200000000E+03 0.  1.
         -6    1    1    2    0  501 -0.79300123079E+02 -0.19557730596E+02  0.24289924000E+03  0.30863417688E+03  0.17200000000E+03 0. -1.
</event>
<event>
 4    1  0.3211568E-002  0.2649712E+03  0.7818608E-02  0.1104193E+00
         -3   -1    0    0    0  501 -0.00000000000E+00  0.00000000000E+00  0.21180290198E+03  0.21180290198E+03  0.00000000000E+00 0.  1.
          3   -1    0    0  502    0  0.00000000000E+00 -0.00000000000E+00 -0.44460750199E+03  0.44460750199E+03  0.00000000000E+00 0. -1.
          6    1    1    2  502    0  0.32383286339E+02  0.19893980562E+03 -0.28195238431E+03  0.38691972102E+03  0.17200000000E+03 0. -1.
         -6    1    1    2    0  501 -0.32383286339E+02 -0.19893980562E+03  0.49147784295E+02  0.26949068295E+03  0.17200000000E+03 0.  1.
</event>
<event>
 4    1  0.3211568E-002  0.3091800E+03  0.7818608E-02  0.1080740E+00
         -1   -1    0    0    0  501 -0.00000000000E+00  0.00000000000E+00  0.40079346147E+03  0.40079346147E+03  0.00000000000E+00 0.  1.
          1   -1    0    0  502    0  0.00000000000E+00 -0.00000000000E+00 -0.31429227306E+03  0.31429227306E+03  0.00000000000E+00 0. -1.
          6    1    1    2  502    0 -0.24997082010E+03  0.59353662876E+02 -0.13232012525E+03  0.33630474832E+03  0.17200000000E+03 0. -1.
         -6    1    1    2    0  501  0.24997082010E+03 -0.59353662876E+02  0.21882131366E+03  0.37878098621E+03  0.17200000000E+03 0.  1.
</event>
<event>
 4    1  0.3211568E-002  0.3736226E+03  0.7818608E-02  0.1053316E+00
         -1   -1    0    0    0  501 -0.00000000000E+00  0.00000000000E+00  0.25701939827E+03  0.25701939827E+03  0.00000000000E+00 0.  1.
          1   -1    0    0  502    0  0.00000000000E+00 -0.00000000000E+00 -0.54312596447E+03  0.54312596447E+03  0.00000000000E+00 0. -1.
          6    1    1    2  502    0  0.13984900513E+03 -0.30075254643E+03 -0.14276966218E+03  0.39997126754E+03  0.17200000000E+03 0. -1.
         -6    1    1    2    0  501 -0.13984900513E+03  0.30075254643E+03 -0.14333690402E+03  0.40017409520E+03  0.17200000000E+03 0. -1.
</event>
<event>
 4    1  0.3211568E-002  0.2146716E+03  0.7818608E-02  0.1137919E+00
          2   -1    0    0  502    0  0.00000000000E+00  0.00000000000E+00  0.73341603357E+03  0.73341603357E+03  0.00000000000E+00 0. -1.
         -2   -1    0    0    0  501 -0.00000000000E+00 -0.00000000000E+00 -0.78778608424E+02  0.78778608424E+02  0.00000000000E+00 0.  1.
          6    1    1    2  502    0  0.51142303176E+01 -0.12835004673E+03  0.51001300332E+03  0.55335084115E+03  0.17200000000E+03 0.  1.
         -6    1    1    2    0  501 -0.51142303176E+01  0.12835004673E+03  0.14462442183E+03  0.25884380084E+03  0.17200000000E+03 0.  1.
</event>
<event>
 4    1  0.3211568E-002  0.3627471E+03  0.7818608E-02  0.1057501E+00
          2   -1    0    0  502    0  0.00000000000E+00  0.00000000000E+00  0.10518746367E+04  0.10518746367E+04  0.00000000000E+00 0. -1.
         -2   -1    0    0    0  501 -0.00000000000E+00 -0.00000000000E+00 -0.23400620323E+03  0.23400620323E+03  0.00000000000E+00 0.  1.
          6    1    1    2  502    0 -0.31179784489E+03 -0.69163393188E+02  0.84755683464E+03  0.92192085288E+03  0.17200000000E+03 0. -1.
         -6    1    1    2    0  501  0.31179784489E+03  0.69163393188E+02 -0.29688401141E+02  0.36395998708E+03  0.17200000000E+03 0.  1.
</event>
<event>
 4    1  0.3211568E-002  0.2143027E+03  0.7818608E-02  0.1138203E+00
         -2   -1    0    0    0  501 -0.00000000000E+00  0.00000000000E+00  0.17582229892E+02  0.17582229892E+02  0.00000000000E+00 0.  1.
          2   -1    0    0  502    0  0.00000000000E+00 -0.00000000000E+00 -0.27459157104E+04  0.27459157104E+04  0.00000000000E+00 0. -1.
          6    1    1    2  502    0 -0.40676280970E+02 -0.12119034148E+03 -0.10590818682E+04  0.10805461870E+04  0.17200000000E+03 0. -1.
         -6    1    1    2    0  501  0.40676280970E+02  0.12119034148E+03 -0.16692516123E+04  0.16829517533E+04  0.17200000000E+03 0.  1.
</event>
<event>
 4    1  0.3211568E-002  0.3829267E+03  0.7818608E-02  0.1049857E+00
         -1   -1    0    0    0  501 -0.00000000000E+00  0.00000000000E+00  0.11166656183E+04  0.11166656183E+04  0.00000000000E+00 0.  1.
          1   -1    0    0  502    0  0.00000000000E+00 -0.00000000000E+00 -0.25849471450E+03  0.25849471450E+03  0.00000000000E+00 0. -1.
          6    1    1    2  502    0 -0.19376561843E+02  0.34157487990E+03 -0.53206077773E+02  0.38660540146E+03  0.17200000000E+03 0. -1.
         -6    1    1    2    0  501  0.19376561843E+02 -0.34157487990E+03  0.91137698154E+03  0.98855493131E+03  0.17200000000E+03 0.  1.
</event>
<event>
 4    1  0.3211568E-002  0.1942002E+03  0.7818608E-02  0.1154727E+00
          2   -1    0    0  502    0  0.00000000000E+00  0.00000000000E+00  0.14584070337E+04  0.14584070337E+04  0.00000000000E+00 0. -1.
         -2   -1    0    0    0  501 -0.00000000000E+00 -0.00000000000E+00 -0.48574193242E+02  0.48574193242E+02  0.00000000000E+00 0.  1.
          6    1    1    2  502    0 -0.56245559454E+02  0.70470926863E+02  0.12201785670E+04  0.12355360982E+04  0.17200000000E+03 0. -1.
         -6    1    1    2    0  501  0.56245559454E+02 -0.70470926863E+02  0.18965427341E+03  0.27144512874E+03  0.17200000000E+03 0.  1.
</event>
<event>
 4    1  0.3211568E-002  0.1778799E+03  0.7818608E-02  0.1169871E+00
         -3   -1    0    0    0  501 -0.00000000000E+00  0.00000000000E+00  0.10193380464E+03  0.10193380464E+03  0.00000000000E+00 0.  1.
          3   -1    0    0  502    0  0.00000000000E+00 -0.00000000000E+00 -0.35314080998E+03  0.35314080998E+03  0.00000000000E+00 0. -1.
          6    1    1    2  502    0 -0.11158099173E+01  0.45343376921E+02 -0.46453762522E+02  0.18384563882E+03  0.17200000000E+03 0.  1.
         -6    1    1    2    0  501  0.11158099173E+01 -0.45343376921E+02 -0.20475324283E+03  0.27122897579E+03  0.17200000000E+03 0. -1.
</event>
<event>
 4    1  0.3211568E-002  0.4142403E+03  0.7818608E-02  0.1038957E+00
         -2   -1    0    0    0  501 -0.00000000000E+00  0.00000000000E+00  0.47048247136E+03  0.47048247136E+03  0.00000000000E+00 0.  1.
          2   -1    0    0  502    0  0.00000000000E+00 -0.00000000000E+00 -0.39026244794E+03  0.39026244794E+03  0.00000000000E+00 0. -1.
          6    1    1    2  502    0 -0.24151510464E+03 -0.28927756395E+03 -0.69989379977E+02  0.42011137581E+03  0.17200000000E+03 0. -1.
         -6    1    1    2    0  501  0.24151510464E+03  0.28927756395E+03  0.15020940340E+03  0.44063354349E+03  0.17200000000E+03 0.  1.
</event>
<event>
 4    1  0.3211568E-002  0.3066138E+03  0.7818608E-02  0.1081980E+00
         -2   -1    0    0    0  501 -0.00000000000E+00  0.00000000000E+00  0.16755593573E+03  0.16755593573E+03  0.00000000000E+00 0.  1.
          2   -1    0    0  502    0  0.00000000000E+00 -0.00000000000E+00 -0.18413255199E+04  0.18413255199E+04  0.00000000000E+00 0. -1.
          6    1    1    2  502    0  0.17796476638E+03  0.18098780946E+03 -0.16744254570E+04  0.17022669168E+04  0.17200000000E+03 0. -1.
         -6    1    1    2    0  501 -0.17796476638E+03 -0.18098780946E+03  0.65587276217E+00  0.30661453882E+03  0.17200000000E+03 0.  1.
</event>
<event>
 4    1  0.3211568E-002  0.1769027E+03  0.7818608E-02  0.1170835E+00
         -2   -1    0    0    0  501 -0.00000000000E+00  0.00000000000E+00  0.28763607239E+03  0.28763607239E+03  0.00000000000E+00 0.  1.
          2   -1    0    0  502    0  0.00000000000E+00 -0.00000000000E+00 -0.17559274528E+03  0.17559274528E+03  0.00000000000E+00 0. -1.
          6    1    1    2  502    0 -0.90839488129E+01 -0.40348852681E+02 -0.86828202280E+02  0.19706264169E+03  0.17200000000E+03 0. -1.
         -6    1    1    2    0  501  0.90839488129E+01  0.40348852681E+02  0.19887152939E+03  0.26616617599E+03  0.17200000000E+03 0.  1.
</event>
<event>
 4    1  0.3211568E-002  0.2222853E+03  0.7818608E-02  0.1132191E+00
         -3   -1    0    0    0  501 -0.00000000000E+00  0.00000000000E+00  0.21242116551E+03  0.21242116551E+03  0.00000000000E+00 0.  1.
          3   -1    0    0  502    0  0.00000000000E+00 -0.00000000000E+00 -0.49680025670E+03  0.49680025670E+03  0.00000000000E+00 0. -1.
          6    1    1    2  502    0 -0.13077757394E+03 -0.52191613963E+02  0.11640625379E+03  0.25092061361E+03  0.17200000000E+03 0. -1.
         -6    1    1    2    0  501  0.13077757394E+03  0.52191613963E+02 -0.40078534498E+03  0.45830080860E+03  0.17200000000E+03 0. -1.
</event>
<event>
 4    1  0.3211568E-002  0.1840240E+03  0.7818608E-02  0.1163964E+00
         -2   -1    0    0    0  501 -0.00000000000E+00  0.00000000000E+00  0.40127199855E+02  0.40127199855E+02  0.00000000000E+00 0.  1.
          2   -1    0    0  502    0  0.00000000000E+00 -0.00000000000E+00 -0.10846864436E+04  0.10846864436E+04  0.00000000000E+00 0. -1.
          6    1    1    2  502    0 -0.41359912485E+02  0.50697204674E+02 -0.78723983498E+03  0.80846237185E+03  0.17200000000E+03 0. -1.
         -6    1    1    2    0  501  0.41359912485E+02 -0.50697204674E+02 -0.25731940881E+03  0.31635127165E+03  0.17200000000E+03 0.  1.
</event>
<event>
 4    1  0.3211568E-002  0.2037762E+03  0.7818608E-02  0.1146592E+00
          1   -1    0    0  502    0  0.00000000000E+00  0.00000000000E+00  0.22241667119E+03  0.22241667119E+03  0.00000000000E+00 0. -1.
         -1   -1    0    0    0  501 -0.00000000000E+00 -0.00000000000E+00 -0.25903171500E+03  0.25903171500E+03  0.00000000000E+00 0.  1.
          6    1    1    2  502    0 -0.96322983077E+02 -0.51600497863E+02  0.10890032855E+03  0.23104979984E+03  0.17200000000E+03 0. -1.
         -6    1    1    2    0  501  0.96322983077E+02  0.51600497863E+02 -0.14551537236E+03  0.25039858634E+03  0.17200000000E+03 0.  1.
</event>
<event>
 4    1  0.3211568E-002  0.5826838E+03  0.7818608E-02  0.9941998E-01
         -2   -1    0    0    0  501 -0.00000000000E+00  0.00000000000E+00  0.27337654312E+03  0.27337654312E+03  0.00000000000E+00 0.  1.
          2   -1    0    0  502    0  0.00000000000E+00 -0.00000000000E+00 -0.13857348433E+04  0.13857348433E+04  0.00000000000E+00 0. -1.
          6    1    1    2  502    0 -0.55354373936E+03  0.59377618121E+02 -0.82339361343E+03  0.10087107690E+04  0.17200000000E+03 0. -1.
         -6    1    1    2    0  501  0.55354373936E+03 -0.59377618121E+02 -0.28896468674E+03  0.65040061739E+03  0.17200000000E+03 0.  1.
</event>
<event>
 4    1  0.3211568E-002  0.3699489E+03  0.7818608E-02  0.1054712E+00
          2   -1    0    0  502    0  0.00000000000E+00  0.00000000000E+00  0.31621502018E+03  0.31621502018E+03  0.00000000000E+00 0. -1.
         -2   -1    0    0    0  501 -0.00000000000E+00 -0.00000000000E+00 -0.48128935699E+03  0.48128935699E+03  0.00000000000E+00 0.  1.
          6    1    1    2  502    0  0.16612630298E+03  0.28227693555E+03  0.44012631412E+02  0.37255781915E+03  0.17200000000E+03 0. -1.
         -6    1    1    2    0  501 -0.16612630298E+03 -0.28227693555E+03 -0.20908696822E+03  0.42494655801E+03  0.17200000000E+03 0. -1.
</event>
<event>
 4    1  0.3211568E-002  0.5389628E+03  0.7818608E-02  0.1004081E+00
          2   -1    0    0  502    0  0.00000000000E+00  0.00000000000E+00  0.27870443058E+04  0.27870443058E+04  0.00000000000E+00 0. -1.
         -2   -1    0    0    0  501 -0.00000000000E+00 -0.00000000000E+00 -0.10637989225E+03  0.10637989225E+03  0.00000000000E+00 0.  1.
          6    1    1    2  502    0 -0.49090804189E+03 -0.14108923843E+03  0.11344483795E+04  0.12559673580E+04  0.17200000000E+03 0. -1.
         -6    1    1    2    0  501  0.49090804189E+03  0.14108923843E+03  0.15462160341E+04  0.16374568400E+04  0.17200000000E+03 0.  1.
</event>
<event>
 4    1  0.3211568E-002  0.2191473E+03  0.7818608E-02  0.1134520E+00
         -3   -1    0    0    0  501 -0.00000000000E+00  0.00000000000E+00  0.28173167676E+03  0.28173167676E+03  0.00000000000E+00 0.  1.
          3   -1    0    0  502    0  0.00000000000E+00 -0.00000000000E+00 -0.59976889648E+03  0.59976889648E+03  0.00000000000E+00 0. -1.
          6    1    1    2  502    0  0.11521998384E+03 -0.71874161664E+02 -0.53191036433E+03  0.57528616833E+03  0.17200000000E+03 0. -1.
         -6    1    1    2    0  501 -0.11521998384E+03  0.71874161664E+02  0.21387314461E+03  0.30621440491E+03  0.17200000000E+03 0.  1.
</event>
<event>
 4    1  0.3211568E-002  0.2236449E+03  0.7818608E-02  0.1131194E+00
         -1   -1    0    0    0  501 -0.00000000000E+00  0.00000000000E+00  0.56940226099E+02  0.56940226099E+02  0.00000000000E+00 0.  1.
          1   -1    0    0  502    0  0.00000000000E+00 -0.00000000000E+00 -0.15117610148E+04  0.15117610148E+04  0.00000000000E+00 0. -1.
          6    1    1    2  502    0 -0.83672692884E+02 -0.11589614720E+03 -0.12350901791E+04  0.12551752017E+04  0.17200000000E+03 0. -1.
         -6    1    1    2    0  501  0.83672692884E+02  0.11589614720E+03 -0.21973060968E+03  0.31352603927E+03  0.17200000000E+03 0.  1.
</event>
<event>
 4    1  0.3211568E-002  0.1875198E+03  0.7818608E-02  0.1160717E+00
          1   -1    0    0  502    0  0.00000000000E+00  0.00000000000E+00  0.43449508630E+03  0.43449508630E+03  0.00000000000E+00 0. -1.
         -1   -1    0    0    0  501 -0.00000000000E+00 -0.00000000000E+00 -0.81877376027E+02  0.81877376027E+02  0.00000000000E+00 0.  1.
          6    1    1    2  502    0 -0.72818873123E+02  0.16646481398E+02  0.20408097279E+03  0.27715110875E+03  0.17200000000E+03 0. -1.
         -6    1    1    2    0  501  0.72818873123E+02 -0.16646481398E+02  0.14853673749E+03  0.23922135358E+03  0.17200000000E+03 0.  1.
</event>
<event>
 4    1  0.3211568E-002  0.1872575E+03  0.7818608E-02  0.1160958E+00
          1   -1    0    0  502    0  0.00000000000E+00  0.00000000000E+00  0.17043173070E+04  0.17043173070E+04  0.00000000000E+00 0. -1.
         -1   -1    0    0    0  501 -0.00000000000E+00 -0.00000000000E+00 -0.41669612276E+02  0.41669612276E+02  0.00000000000E+00 0.  1.
          6    1    1    2  502    0 -0.11135178331E+02 -0.73194082344E+02  0.14524686398E+04  0.14644898482E+04  0.17200000000E+03 0. -1.
         -6    1    1    2    0  501  0.11135178331E+02  0.73194082344E+02  0.21017905487E+03  0.28149707102E+03  0.17200000000E+03 0.  1.
</event>
<event>
 4    1  0.3211568E-002  0.1902197E+03  0.7818608E-02  0.1158263E+00
         -2   -1    0    0    0  501 -0.00000000000E+00  0.00000000000E+00  0.68822691187E+02  0.68822691187E+02  0.00000000000E+00 0.  1.
          2   -1    0    0  502    0  0.00000000000E+00 -0.00000000000E+00 -0.52607193092E+03  0.52607193092E+03  0.00000000000E+00 0. -1.
          6    1    1    2  502    0 -0.80474695194E+02 -0.11106460736E+02 -0.23598274897E+03  0.30310293276E+03  0.17200000000E+03 0. -1.
         -6    1    1    2    0  501  0.80474695194E+02  0.11106460736E+02 -0.22126649076E+03  0.29179168935E+03  0.17200000000E+03 0.  1.
</event>
<event>
 4    1  0.3211568E-002  0.2258796E+03  0.7818608E-02  0.1129574E+00
          1   -1    0    0  502    0  0.00000000000E+00  0.00000000000E+00  0.37660916679E+03  0.37660916679E+03  0.00000000000E+00 0. -1.
         -1   -1    0    0    0  501 -0.00000000000E+00 -0.00000000000E+00 -0.29232973734E+03  0.29232973734E+03  0.00000000000E+00 0.  1.
          6    1    1    2  502    0 -0.14641303593E+03 -0.91167356148E+00  0.28714023745E+03  0.36533700087E+03  0.17200000000E+03 0. -1.
         -6    1    1    2    0  501  0.14641303593E+03  0.91167356148E+00 -0.20286080800E+03  0.30360190326E+03  0.17200000000E+03 0.  1.
</event>
<event>
 4    1  0.3211568E-002  0.6069517E+03  0.7818608E-02  0.9891087E-01
         -2   -1    0    0    0  501 -0.00000000000E+00  0.00000000000E+00  0.12358523957E+03  0.12358523957E+03  0.00000000000E+00 0.  1.
          2   -1    0    0  502    0  0.00000000000E+00 -0.00000000000E+00 -0.31684798253E+04  0.31684798253E+04  0.00000000000E+00 0. -1.
          6    1    1    2  502    0 -0.20219904117E+03  0.54582228067E+03 -0.11219023912E+04  0.12755608138E+04  0.17200000000E+03 0. -1.
         -6    1    1    2    0  501  0.20219904117E+03 -0.54582228067E+03 -0.19229921945E+04  0.20165042511E+04  0.17200000000E+03 0.  1.
</event>
<event>
 4    1  0.3211568E-002  0.1725576E+03  0.7818608E-02  0.1175207E+00
         -2   -1    0    0    0  501 -0.00000000000E+00  0.00000000000E+00  0.24300851376E+02  0.24300851376E+02  0.00000000000E+00 0.  1.
          2   -1    0    0  502    0  0.00000000000E+00 -0.00000000000E+00 -0.24407633089E+04  0.24407633089E+04  0.00000000000E+00 0. -1.
          6    1    1    2  502    0 -0.10197345664E+02  0.93891422883E+01 -0.20780004923E+04  0.20851527973E+04  0.17200000000E+03 0. -1.
         -6    1    1    2    0  501  0.10197345664E+02 -0.93891422883E+01 -0.33846196514E+03  0.37991136295E+03  0.17200000000E+03 0.  1.
</event>
<event>
 4    1  0.3211568E-002  0.2278289E+03  0.7818608E-02  0.1128177E+00
          1   -1    0    0  502    0  0.00000000000E+00  0.00000000000E+00  0.10597827757E+03  0.10597827757E+03  0.00000000000E+00 0. -1.
         -1   -1    0    0    0  501 -0.00000000000E+00 -0.00000000000E+00 -0.69501101064E+03  0.69501101064E+03  0.00000000000E+00 0.  1.
          6    1    1    2  502    0 -0.96151896334E+02  0.11435390417E+03 -0.51214836172E+03  0.56053719501E+03  0.17200000000E+03 0.  1.
         -6    1    1    2    0  501  0.96151896334E+02 -0.11435390417E+03 -0.76884371352E+02  0.24045209320E+03  0.17200000000E+03 0.  1.
</event>
<event>
 4    1  0.3211568E-002  0.2418431E+03  0.7818608E-02  0.1118571E+00
         -2   -1    0    0    0  501 -0.00000000000E+00  0.00000000000E+00  0.59834773801E+03  0.59834773801E+03  0.00000000000E+00 0.  1.
          2   -1    0    0  502    0  0.00000000000E+00 -0.00000000000E+00 -0.98805600707E+02  0.98805600707E+02  0.00000000000E+00 0. -1.
          6    1    1    2  502    0  0.93186398522E+00 -0.17000945735E+03  0.21373002160E+03  0.32275161672E+03  0.17200000000E+03 0. -1.
         -6    1    1    2    0  501 -0.93186398522E+00  0.17000945735E+03  0.28581211570E+03  0.37440172200E+03  0.17200000000E+03 0. -1.
</event>
<event>
 4    1  0.3211568E-002  0.3259463E+03  0.7818608E-02  0.1072945E+00
         -1   -1    0    0    0  501 -0.00000000000E+00  0.00000000000E+00  0.23783790252E+03  0.23783790252E+03  0.00000000000E+00 0.  1.
          1   -1    0    0  502    0  0.00000000000E+00 -0.00000000000E+00 -0.46606017144E+03  0.46606017144E+03  0.00000000000E+00 0. -1.
          6    1    1    2  502    0 -0.26674574814E+03 -0.74186838383E+02 -0.42369637222E+02  0.32868855669E+03  0.17200000000E+03 0.  1.
         -6    1    1    2    0  501  0.26674574814E+03  0.74186838383E+02 -0.18585263170E+03  0.37520951727E+03  0.17200000000E+03 0. -1.
</event>
<event>
 4    1  0.3211568E-002  0.1960519E+03  0.7818608E-02  0.1153113E+00
          1   -1    0    0  502    0  0.00000000000E+00  0.00000000000E+00  0.26175845093E+03  0.26175845093E+03  0.00000000000E+00 0. -1.
         -1   -1    0    0    0  501 -0.00000000000E+00 -0.00000000000E+00 -0.14714442675E+03  0.14714442675E+03  0.00000000000E+00 0.  1.
          6    1    1    2  502    0 -0.93773249119E+02 -0.76755122610E+01  0.66622557600E+02  0.20706255316E+03  0.17200000000E+03 0.  1.
         -6    1    1    2    0  501  0.93773249119E+02  0.76755122610E+01  0.47991466579E+02  0.20184032452E+03  0.17200000000E+03 0.  1.
</event>
<event>
 4    1  0.3211568E-002  0.2311475E+03  0.7818608E-02  0.1125835E+00
         -1   -1    0    0    0  501 -0.00000000000E+00  0.00000000000E+00  0.50251350499E+03  0.50251350499E+03  0.00000000000E+00 0.  1.
          1   -1    0    0  502    0  0.00000000000E+00 -0.00000000000E+00 -0.21891870298E+03  0.21891870298E+03  0.00000000000E+00 0. -1.
          6    1    1    2  502    0  0.87515267030E+02  0.12722522453E+03 -0.11689479779E+03  0.25902427197E+03  0.17200000000E+03 0. -1.
         -6    1    1    2    0  501 -0.87515267030E+02 -0.12722522453E+03  0.40048959981E+03  0.46240793600E+03  0.17200000000E+03 0.  1.
</event>
<event>
 4    1  0.3211568E-002  0.2711926E+03  0.7818608E-02  0.1100599E+00
          1   -1    0    0  502    0  0.00000000000E+00  0.00000000000E+00  0.12606315522E+03  0.12606315522E+03  0.00000000000E+00 0. -1.
         -1   -1    0    0    0  501 -0.00000000000E+00 -0.00000000000E+00 -0.85523616912E+03  0.85523616912E+03  0.00000000000E+00 0.  1.
          6    1    1    2  502    0 -0.10976478776E+03 -0.17864241137E+03 -0.64120485666E+03  0.69619615625E+03  0.17200000000E+03 0.  1.
         -6    1    1    2    0  501  0.10976478776E+03  0.17864241137E+03 -0.87968157238E+02  0.28510316810E+03  0.17200000000E+03 0. -1.
</event>
<event>
 4    1  0.3211568E-002  0.2613536E+03  0.7818608E-02  0.1106333E+00
          2   -1    0    0  502    0  0.00000000000E+00  0.00000000000E+00  0.38764737816E+04  0.38764737816E+04  0.00000000000E+00 0. -1.
         -2   -1    0    0    0  501 -0.00000000000E+00 -0.00000000000E+00 -0.20176074566E+02  0.20176074566E+02  0.00000000000E+00 0.  1.
          6    1    1    2  502    0  0.79394281736E+02 -0.18005072261E+03  0.12347540729E+04  0.12621106668E+04  0.17200000000E+03 0. -1.
         -6    1    1    2    0  501 -0.79394281736E+02  0.18005072261E+03  0.26215436341E+04  0.26345391893E+04  0.17200000000E+03 0.  1.
</event>
<event>
 4    1  0.3211568E-002  0.1961788E+03  0.7818608E-02  0.1153004E+00
          2   -1    0    0  502    0  0.00000000000E+00  0.00000000000E+00  0.73380010733E+02  0.73380010733E+02  0.00000000000E+00 0. -1.
         -2   -1    0    0    0  501 -0.00000000000E+00 -0.00000000000E+00 -0.62840587188E+03  0.62840587188E+03  0.00000000000E+00 0.  1.
          6    1    1    2  502    0  0.33197047944E+02  0.88318115494E+02 -0.13481342743E+03  0.23803527833E+03  0.17200000000E+03 0. -1.
         -6    1    1    2    0  501 -0.33197047944E+02 -0.88318115494E+02 -0.42021243372E+03  0.46375060428E+03  0.17200000000E+03 0.  1.
</event>
<event>
 4    1  0.3211568E-002  0.2068465E+03  0.7818608E-02  0.1144088E+00
          2   -1    0    0  502    0  0.00000000000E+00  0.00000000000E+00  0.16955178362E+04  0.16955178362E+04  0.00000000000E+00 0. -1.
         -2   -1    0    0    0  501 -0.00000000000E+00 -0.00000000000E+00 -0.25340492116E+02  0.25340492116E+02  0.00000000000E+00 0.  1.
          6    1    1    2  502    0 -0.97006824979E+01 -0.11448735593E+03  0.89074946561E+03  0.91445069216E+03  0.17200000000E+03 0.  1.
         -6    1    1    2    0  501  0.97006824979E+01  0.11448735593E+03  0.77942787852E+03  0.80640763620E+03  0.17200000000E+03 0. -1.
</event>
<event>
 4    1  0.3211568E-002  0.2768494E+03  0.7818608E-02  0.1097422E+00
          2   -1    0    0  502    0  0.00000000000E+00  0.00000000000E+00  0.13111029950E+04  0.13111029950E+04  0.00000000000E+00 0. -1.
         -2   -1    0    0    0  501 -0.00000000000E+00 -0.00000000000E+00 -0.69779812183E+02  0.69779812183E+02  0.00000000000E+00 0.  1.
          6    1    1    2  502    0  0.73221092188E+02 -0.20420645066E+03  0.89876298602E+03  0.94043633908E+03  0.17200000000E+03 0. -1.
         -6    1    1    2    0  501 -0.73221092188E+02  0.20420645066E+03  0.34256019680E+03  0.44044646810E+03  0.17200000000E+03 0.  1.
</event>
<event>
 4    1  0.3211568E-002  0.1956464E+03  0.7818608E-02  0.1153465E+00
         -1   -1    0    0    0  501 -0.00000000000E+00  0.00000000000E+00  0.52665673091E+02  0.52665673091E+02  0.00000000000E+00 0.  1.
          1   -1    0    0  502    0  0.00000000000E+00 -0.00000000000E+00 -0.14468241038E+04  0.14468241038E+04  0.00000000000E+00 0. -1.
          6    1    1    2  502    0  0.65575634579E+01  0.93008122071E+02 -0.12259853252E+04  0.12414980990E+04  0.17200000000E+03 0. -1.
         -6    1    1    2    0  501 -0.65575634579E+01 -0.93008122071E+02 -0.16817310554E+03  0.25799167785E+03  0.17200000000E+03 0.  1.
</event>
<event>
 4    1  0.3211568E-002  0.2352849E+03  0.7818608E-02  0.1122974E+00
         -2   -1    0    0    0  501 -0.00000000000E+00  0.00000000000E+00  0.28347521818E+02  0.28347521818E+02  0.00000000000E+00 0.  1.
          2   -1    0    0  502    0  0.00000000000E+00 -0.00000000000E+00 -0.32994197493E+04  0.32994197493E+04  0.00000000000E+00 0. -1.
          6    1    1    2  502    0 -0.25853416999E+02  0.15845053002E+03 -0.26984930786E+04  0.27087310433E+04  0.17200000000E+03 0. -1.
         -6    1    1    2    0  501  0.25853416999E+02 -0.15845053002E+03 -0.57257914894E+03  0.61903622789E+03  0.17200000000E+03 0.  1.
</event>
<event>
 4    1  0.3211568E-002  0.2325870E+03  0.7818608E-02  0.1124832E+00
         -1   -1    0    0    0  501 -0.00000000000E+00  0.00000000000E+00  0.37279841425E+02  0.37279841425E+02  0.00000000000E+00 0.  1.
          1   -1    0    0  502    0  0.00000000000E+00 -0.00000000000E+00 -0.15692240538E+04  0.15692240538E+04  0.00000000000E+00 0. -1.
          6    1    1    2  502    0  0.22140379388E+01  0.15654973279E+03 -0.98635673242E+03  0.10134082713E+04  0.17200000000E+03 0.  1.
         -6    1    1    2    0  501 -0.22140379388E+01 -0.15654973279E+03 -0.54558747991E+03  0.59309562385E+03  0.17200000000E+03 0.  1.
</event>
<event>
 4    1  0.3211568E-002  0.3093026E+03  0.7818608E-02  0.1080681E+00
          1   -1    0    0  502    0  0.00000000000E+00  0.00000000000E+00  0.15731971132E+03  0.15731971132E+03  0.00000000000E+00 0. -1.
         -1   -1    0    0    0  501 -0.00000000000E+00 -0.00000000000E+00 -0.99441498460E+03  0.99441498460E+03  0.00000000000E+00 0.  1.
          6    1    1    2  502    0  0.25319835768E+03 -0.44437710116E+02 -0.59623843747E+02  0.31499701769E+03  0.17200000000E+03 0. -1.
         -6    1    1    2    0  501 -0.25319835768E+03  0.44437710116E+02 -0.77747142954E+03  0.83673767823E+03  0.17200000000E+03 0.  1.
</event>
<event>
 4    1  0.3211568E-002  0.1112699E+04  0.7818608E-02  0.9192902E-01
          2   -1    0    0  502    0  0.00000000000E+00  0.00000000000E+00  0.14267398901E+04  0.14267398901E+04  0.00000000000E+00 0. -1.
         -2   -1    0    0    0  501 -0.00000000000E+00 -0.00000000000E+00 -0.10561128325E+04  0.10561128325E+04  0.00000000000E+00 0.  1.
          6    1    1    2  502    0  0.10220466503E+04  0.40488960622E+03  0.70954937750E+03  0.13196815024E+04  0.17200000000E+03 0. -1.
         -6    1    1    2    0  501 -0.10220466503E+04 -0.40488960622E+03 -0.33892231989E+03  0.11631712202E+04  0.17200000000E+03 0.  1.
</event>
<event>
 4    1  0.3211568E-002  0.1800917E+03  0.7818608E-02  0.1167714E+00
         -1   -1    0    0    0  501 -0.00000000000E+00  0.00000000000E+00  0.12156102370E+03  0.12156102370E+03  0.00000000000E+00 0.  1.
          1   -1    0    0  502    0  0.00000000000E+00 -0.00000000000E+00 -0.32234886307E+03  0.32234886307E+03  0.00000000000E+00 0. -1.
          6    1    1    2  502    0  0.25448993730E+02  0.46918672953E+02 -0.82594313179E+01  0.18028097892E+03  0.17200000000E+03 0.  1.
         -6    1    1    2    0  501 -0.25448993730E+02 -0.46918672953E+02 -0.19252840805E+03  0.26362890786E+03  0.17200000000E+03 0. -1.
</event>
<event>
 4    1  0.3211568E-002  0.1963972E+03  0.7818608E-02  0.1152815E+00
          1   -1    0    0  502    0  0.00000000000E+00  0.00000000000E+00  0.10212216338E+03  0.10212216338E+03  0.00000000000E+00 0. -1.
         -1   -1    0    0    0  501 -0.00000000000E+00 -0.00000000000E+00 -0.37804037668E+03  0.37804037668E+03  0.00000000000E+00 0.  1.
          6    1    1    2  502    0  0.60527561058E+02  0.72967553373E+02 -0.13078721040E+03  0.23596004725E+03  0.17200000000E+03 0. -1.
         -6    1    1    2    0  501 -0.60527561058E+02 -0.72967553373E+02 -0.14513100289E+03  0.24420249281E+03  0.17200000000E+03 0.  1.
</event>
<event>
 4    1  0.3211568E-002  0.3552278E+03  0.7818608E-02  0.1060490E+00
          2   -1    0    0  502    0  0.00000000000E+00  0.00000000000E+00  0.14745256605E+04  0.14745256605E+04  0.00000000000E+00 0. -1.
         -2   -1    0    0    0  501 -0.00000000000E+00 -0.00000000000E+00 -0.13577934779E+03  0.13577934779E+03  0.00000000000E+00 0.  1.
          6    1    1    2  502    0 -0.26816616966E+03  0.15712944226E+03  0.11589485328E+04  0.12121668440E+04  0.17200000000E+03 0. -1.
         -6    1    1    2    0  501  0.26816616966E+03 -0.15712944226E+03  0.17979777997E+03  0.39813816428E+03  0.17200000000E+03 0.  1.
</event>
<event>
 4    1  0.3211568E-002  0.1881568E+03  0.7818608E-02  0.1160134E+00
         -1   -1    0    0    0  501 -0.00000000000E+00  0.00000000000E+00  0.25808281763E+03  0.25808281763E+03  0.00000000000E+00 0.  1.
          1   -1    0    0  502    0  0.00000000000E+00 -0.00000000000E+00 -0.20176485210E+03  0.20176485210E+03  0.00000000000E+00 0. -1.
          6    1    1    2  502    0  0.30640114736E+01 -0.76220750597E+02  0.15824694886E+03  0.24585582729E+03  0.17200000000E+03 0.  1.
         -6    1    1    2    0  501 -0.30640114736E+01  0.76220750597E+02 -0.10192898334E+03  0.21399184244E+03  0.17200000000E+03 0. -1.
</event>
<event>
 4    1  0.3211568E-002  0.1833469E+03  0.7818608E-02  0.1164603E+00
          1   -1    0    0  502    0  0.00000000000E+00  0.00000000000E+00  0.11145859143E+03  0.11145859143E+03  0.00000000000E+00 0. -1.
         -1   -1    0    0    0  501 -0.00000000000E+00 -0.00000000000E+00 -0.54456525173E+03  0.54456525173E+03  0.00000000000E+00 0.  1.
          6    1    1    2  502    0  0.33654972025E+02  0.53846403794E+02  0.25430972133E+01  0.18336455406E+03  0.17200000000E+03 0. -1.
         -6    1    1    2    0  501 -0.33654972025E+02 -0.53846403794E+02 -0.43564975751E+03  0.47265928909E+03  0.17200000000E+03 0. -1.
</event>
<event>
 4    1  0.3211568E-002  0.3848828E+03  0.7818608E-02  0.1049144E+00
         -2   -1    0    0    0  501 -0.00000000000E+00  0.00000000000E+00  0.23131519034E+03  0.23131519034E+03  0.00000000000E+00 0.  1.
          2   -1    0    0  502    0  0.00000000000E+00 -0.00000000000E+00 -0.82202166819E+03  0.82202166819E+03  0.00000000000E+00 0. -1.
          6    1    1    2  502    0  0.21088713448E+03  0.27217163859E+03 -0.47795384323E+02  0.38783912013E+03  0.17200000000E+03 0. -1.
         -6    1    1    2    0  501 -0.21088713448E+03 -0.27217163859E+03 -0.54291109352E+03  0.66549773840E+03  0.17200000000E+03 0.  1.
</event>
<event>
 4    1  0.3211568E-002  0.2385677E+03  0.7818608E-02  0.1120751E+00
          2   -1    0    0  502    0  0.00000000000E+00  0.00000000000E+00  0.17919485710E+04  0.17919485710E+04  0.00000000000E+00 0. -1.
         -2   -1    0    0    0  501 -0.00000000000E+00 -0.00000000000E+00 -0.58072561216E+02  0.58072561216E+02  0.00000000000E+00 0.  1.
          6    1    1    2  502    0  0.15942850071E+03 -0.43738914740E+02  0.14895713699E+04  0.15085547406E+04  0.17200000000E+03 0. -1.
         -6    1    1    2    0  501 -0.15942850071E+03  0.43738914740E+02  0.24430463989E+03  0.34146639157E+03  0.17200000000E+03 0.  1.
</event>
<event>
 4    1  0.3211568E-002  0.2048760E+03  0.7818608E-02  0.1145689E+00
         -2   -1    0    0    0  501 -0.00000000000E+00  0.00000000000E+00  0.33246481765E+03  0.33246481765E+03  0.00000000000E+00 0.  1.
          2   -1    0    0  502    0  0.00000000000E+00 -0.00000000000E+00 -0.13663738441E+03  0.13663738441E+03  0.00000000000E+00 0. -1.
          6    1    1    2  502    0  0.48214683466E+02 -0.10032697242E+03  0.33247714841E+02  0.20755617948E+03  0.17200000000E+03 0. -1.
         -6    1    1    2    0  501 -0.48214683466E+02  0.10032697242E+03  0.16257971840E+03  0.26154602259E+03  0.17200000000E+03 0. -1.
</event>
<event>
 4    1  0.3211568E-002  0.3538256E+03  0.7818608E-02  0.1061056E+00
         -1   -1    0    0    0  501 -0.00000000000E+00  0.00000000000E+00  0.93292810081E+02  0.93292810081E+02  0.00000000000E+00 0.  1.
          1   -1    0    0  502    0  0.00000000000E+00 -0.00000000000E+00 -0.23171660467E+04  0.23171660467E+04  0.00000000000E+00 0. -1.
          6    1    1    2  502    0  0.17842435702E+03  0.25253381674E+03 -0.18938265884E+04  0.19265958908E+04  0.17200000000E+03 0. -1.
         -6    1    1    2    0  501 -0.17842435702E+03 -0.25253381674E+03 -0.33004664821E+03  0.48386296590E+03  0.17200000000E+03 0.  1.
</event>
<event>
 4    1  0.3211568E-002  0.1859515E+03  0.7818608E-02  0.1162164E+00
         -2   -1    0    0    0  501 -0.00000000000E+00  0.00000000000E+00  0.45746398228E+03  0.45746398228E+03  0.00000000000E+00 0.  1.
          2   -1    0    0  502    0  0.00000000000E+00 -0.00000000000E+00 -0.12343233733E+03  0.12343233733E+03  0.00000000000E+00 0. -1.
          6    1    1    2  502    0 -0.65157405106E+01  0.70367005852E+02 -0.13817112562E+02  0.18646416006E+03  0.17200000000E+03 0. -1.
         -6    1    1    2    0  501  0.65157405106E+01 -0.70367005852E+02  0.34784875751E+03  0.39443215955E+03  0.17200000000E+03 0.  1.
</event>
<event>
 4    1  0.3211568E-002  0.2020740E+03  0.7818608E-02  0.1148001E+00
          2   -1    0    0  502    0  0.00000000000E+00  0.00000000000E+00  0.51700198692E+03  0.51700198692E+03  0.00000000000E+00 0. -1.
         -2   -1    0    0    0  501 -0.00000000000E+00 -0.00000000000E+00 -0.96475473860E+02  0.96475473860E+02  0.00000000000E+00 0.  1.
          6    1    1    2  502    0  0.23674067979E+02 -0.10338976732E+03  0.79647107293E+02  0.21720397598E+03  0.17200000000E+03 0. -1.
         -6    1    1    2    0  501 -0.23674067979E+02  0.10338976732E+03  0.34087940577E+03  0.39627348480E+03  0.17200000000E+03 0. -1.
</event>
<event>
 4    1  0.3211568E-002  0.1753274E+03  0.7818608E-02  0.1172403E+00
          1   -1    0    0  502    0  0.00000000000E+00  0.00000000000E+00  0.96066116254E+02  0.96066116254E+02  0.00000000000E+00 0. -1.
         -1   -1    0    0    0  501 -0.00000000000E+00 -0.00000000000E+00 -0.35221442989E+03  0.35221442989E+03  0.00000000000E+00 0.  1.
          6    1    1    2  502    0 -0.33283642686E+02  0.69200325730E+01 -0.60271824389E+02  0.18539789787E+03  0.17200000000E+03 0. -1.
         -6    1    1    2    0  501  0.33283642686E+02 -0.69200325730E+01 -0.19587648925E+03  0.26288264827E+03  0.17200000000E+03 0.  1.
</event>
<event>
 4    1  0.3211568E-002  0.2166691E+03  0.7818608E-02  0.1136391E+00
         -2   -1    0    0    0  501 -0.00000000000E+00  0.00000000000E+00  0.69069064156E+02  0.69069064156E+02  0.00000000000E+00 0.  1.
          2   -1    0    0  502    0  0.00000000000E+00 -0.00000000000E+00 -0.81017582321E+03  0.81017582321E+03  0.00000000000E+00 0. -1.
          6    1    1    2  502    0  0.13050689143E+03 -0.18150753779E+02 -0.54698368003E+03  0.58833378689E+03  0.17200000000E+03 0. -1.
         -6    1    1    2    0  501 -0.13050689143E+03  0.18150753779E+02 -0.19412307902E+03  0.29091110048E+03  0.17200000000E+03 0.  1.
</event>
<event>
 4    1  0.3211568E-002  0.3414349E+03  0.7818608E-02  0.1066186E+00
          2   -1    0    0  502    0  0.00000000000E+00  0.00000000000E+00  0.10624382405E+04  0.10624382405E+04  0.00000000000E+00 0. -1.
         -2   -1    0    0    0  501 -0.00000000000E+00 -0.00000000000E+00 -0.12190571668E+03  0.12190571668E+03  0.00000000000E+00 0.  1.
          6    1    1    2  502    0  0.13669899035E+03 -0.26135643655E+03  0.65743901180E+03  0.74081296906E+03  0.17200000000E+03 0. -1.
         -6    1    1    2    0  501 -0.13669899035E+03  0.26135643655E+03  0.28309351206E+03  0.44353098816E+03  0.17200000000E+03 0.  1.
</event>
<event>
 4    1  0.3211568E-002  0.1837617E+03  0.7818608E-02  0.1164211E+00
         -1   -1    0    0    0  501 -0.00000000000E+00  0.00000000000E+00  0.66341457701E+03  0.66341457701E+03  0.00000000000E+00 0.  1.
          1   -1    0    0  502    0  0.00000000000E+00 -0.00000000000E+00 -0.58081309990E+02  0.58081309990E+02  0.00000000000E+00 0. -1.
          6    1    1    2  502    0 -0.55984634477E+02  0.32405113524E+02  0.42950819408E+03  0.46716769950E+03  0.17200000000E+03 0.  1.
         -6    1    1    2    0  501  0.55984634477E+02 -0.32405113524E+02  0.17582507295E+03  0.25432818750E+03  0.17200000000E+03 0. -1.
</event>
<event>
 4    1  0.3211568E-002  0.1806577E+03  0.7818608E-02  0.1167168E+00
         -2   -1    0    0    0  501 -0.00000000000E+00  0.00000000000E+00  0.27391979458E+02  0.27391979458E+02  0.00000000000E+00 0.  1.
          2   -1    0    0  502    0  0.00000000000E+00 -0.00000000000E+00 -0.40199427655E+04  0.40199427655E+04  0.00000000000E+00 0. -1.
          6    1    1    2  502    0  0.54497764246E+02  0.91217327903E+01 -0.36937520883E+04  0.36981673437E+04  0.17200000000E+03 0. -1.
         -6    1    1    2    0  501 -0.54497764246E+02 -0.91217327903E+01 -0.29879869774E+03  0.34916740124E+03  0.17200000000E+03 0.  1.
</event>
<event>
 4    1  0.3211568E-002  0.9585046E+03  0.7818608E-02  0.9355265E-01
          2   -1    0    0  502    0  0.00000000000E+00  0.00000000000E+00  0.12472764376E+04  0.12472764376E+04  0.00000000000E+00 0. -1.
         -2   -1    0    0    0  501 -0.00000000000E+00 -0.00000000000E+00 -0.11146509013E+04  0.11146509013E+04  0.00000000000E+00 0.  1.
          6    1    1    2  502    0  0.18805957180E+02 -0.94275841566E+03  0.75409048730E+03  0.12195833540E+04  0.17200000000E+03 0. -1.
         -6    1    1    2    0  501 -0.18805957180E+02  0.94275841566E+03 -0.62146495100E+03  0.11423439848E+04  0.17200000000E+03 0.  1.
</event>
<event>
 4    1  0.3211568E-002  0.1842183E+03  0.7818608E-02  0.1163782E+00
         -1   -1    0    0    0  501 -0.00000000000E+00  0.00000000000E+00  0.15199360125E+03  0.15199360125E+03  0.00000000000E+00 0.  1.
          1   -1    0    0  502    0  0.00000000000E+00 -0.00000000000E+00 -0.23098220957E+04  0.23098220957E+04  0.00000000000E+00 0. -1.
          6    1    1    2  502    0  0.51791073696E+02  0.40866496999E+02 -0.22488186111E+04  0.22563513759E+04  0.17200000000E+03 0. -1.
         -6    1    1    2    0  501 -0.51791073696E+02 -0.40866496999E+02  0.90990116653E+02  0.20546432104E+03  0.17200000000E+03 0.  1.
</event>
<event>
 4    1  0.3211568E-002  0.1843504E+03  0.7818608E-02  0.1163658E+00
          2   -1    0    0  502    0  0.00000000000E+00  0.00000000000E+00  0.35514867688E+04  0.35514867688E+04  0.00000000000E+00 0. -1.
         -2   -1    0    0    0  501 -0.00000000000E+00 -0.00000000000E+00 -0.96880316609E+01  0.96880316609E+01  0.00000000000E+00 0.  1.
          6    1    1    2  502    0  0.23289809635E+02 -0.62118143673E+02  0.19680566795E+04  0.19766719942E+04  0.17200000000E+03 0. -1.
         -6    1    1    2    0  501 -0.23289809635E+02  0.62118143673E+02  0.15737420577E+04  0.15845028063E+04  0.17200000000E+03 0.  1.
</event>
<event>
 4    1  0.3211568E-002  0.1806592E+03  0.7818608E-02  0.1167167E+00
         -1   -1    0    0    0  501 -0.00000000000E+00  0.00000000000E+00  0.13039029221E+03  0.13039029221E+03  0.00000000000E+00 0.  1.
          1   -1    0    0  502    0  0.00000000000E+00 -0.00000000000E+00 -0.26717695562E+03  0.26717695562E+03  0.00000000000E+00 0. -1.
          6    1    1    2  502    0  0.70830524417E+01  0.54805005286E+02 -0.18444798673E+02  0.18159837233E+03  0.17200000000E+03 0.  1.
         -6    1    1    2    0  501 -0.70830524417E+01 -0.54805005286E+02 -0.11834186473E+03  0.21596887550E+03  0.17200000000E+03 0. -1.
</event>
<event>
 4    1  0.3211568E-002  0.2092843E+03  0.7818608E-02  0.1142134E+00
         -1   -1    0    0    0  501 -0.00000000000E+00  0.00000000000E+00  0.50712435234E+03  0.50712435234E+03  0.00000000000E+00 0.  1.
          1   -1    0    0  502    0  0.00000000000E+00 -0.00000000000E+00 -0.89790009512E+02  0.89790009512E+02  0.00000000000E+00 0. -1.
          6    1    1    2  502    0 -0.10894356555E+02 -0.11873172722E+03  0.15041202585E+03  0.25772793324E+03  0.17200000000E+03 0. -1.
         -6    1    1    2    0  501  0.10894356555E+02  0.11873172722E+03  0.26692231698E+03  0.33918642861E+03  0.17200000000E+03 0.  1.
</event>
<event>
 4    1  0.3211568E-002  0.1998900E+03  0.7818608E-02  0.1149832E+00
         -1   -1    0    0    0  501 -0.00000000000E+00  0.00000000000E+00  0.70800552928E+02  0.70800552928E+02  0.00000000000E+00 0.  1.
          1   -1    0    0  502    0  0.00000000000E+00 -0.00000000000E+00 -0.56713315230E+03  0.56713315230E+03  0.00000000000E+00 0. -1.
          6    1    1    2  502    0 -0.44320945428E+02  0.91693300653E+02 -0.27052696731E+03  0.33636415925E+03  0.17200000000E+03 0.  1.
         -6    1    1    2    0  501  0.44320945428E+02 -0.91693300653E+02 -0.22580563206E+03  0.30156954597E+03  0.17200000000E+03 0.  1.
</event>
<event>
 4    1  0.3211568E-002  0.3156437E+03  0.7818608E-02  0.1077672E+00
         -2   -1    0    0    0  501 -0.00000000000E+00  0.00000000000E+00  0.12869198859E+03  0.12869198859E+03  0.00000000000E+00 0.  1.
          2   -1    0    0  502    0  0.00000000000E+00 -0.00000000000E+00 -0.22938981974E+04  0.22938981974E+04  0.00000000000E+00 0. -1.
          6    1    1    2  502    0 -0.39723828296E+02  0.26166570178E+03 -0.20685289327E+04  0.20924729072E+04  0.17200000000E+03 0. -1.
         -6    1    1    2    0  501  0.39723828296E+02 -0.26166570178E+03 -0.96677276089E+02  0.33011727876E+03  0.17200000000E+03 0.  1.
</event>
<event>
 4    1  0.3211568E-002  0.3157763E+03  0.7818608E-02  0.1077610E+00
         -1   -1    0    0    0  501 -0.00000000000E+00  0.00000000000E+00  0.23233733557E+03  0.23233733557E+03  0.00000000000E+00 0.  1.
          1   -1    0    0  502    0  0.00000000000E+00 -0.00000000000E+00 -0.49364764502E+03  0.49364764502E+03  0.00000000000E+00 0. -1.
          6    1    1    2  502    0 -0.24161645815E+03  0.10840747552E+03  0.52186147618E+00  0.31577676598E+03  0.17200000000E+03 0. -1.
         -6    1    1    2    0  501  0.24161645815E+03 -0.10840747552E+03 -0.26183217093E+03  0.41020821460E+03  0.17200000000E+03 0. -1.
</event>
<event>
 4    1  0.3211568E-002  0.1796604E+03  0.7818608E-02  0.1168132E+00
          2   -1    0    0  502    0  0.00000000000E+00  0.00000000000E+00  0.10456458212E+04  0.10456458212E+04  0.00000000000E+00 0. -1.
         -2   -1    0    0    0  501 -0.00000000000E+00 -0.00000000000E+00 -0.34955606010E+02  0.34955606010E+02  0.00000000000E+00 0.  1.
          6    1    1    2  502    0 -0.64976701382E+01 -0.51494100556E+02  0.69008793709E+03  0.71309131465E+03  0.17200000000E+03 0. -1.
         -6    1    1    2    0  501  0.64976701382E+01  0.51494100556E+02  0.32060227807E+03  0.36751011253E+03  0.17200000000E+03 0.  1.
</event>
<event>
 4    1  0.3211568E-002  0.1758720E+03  0.7818608E-02  0.1171859E+00
          1   -1    0    0  502    0  0.00000000000E+00  0.00000000000E+00  0.96435741994E+03  0.96435741994E+03  0.00000000000E+00 0. -1.
         -1   -1    0    0    0  501 -0.00000000000E+00 -0.00000000000E+00 -0.88771987009E+02  0.88771987009E+02  0.00000000000E+00 0.  1.
          6    1    1    2  502    0  0.22785762233E+02 -0.28770867396E+02  0.85861330817E+03  0.87644039543E+03  0.17200000000E+03 0. -1.
         -6    1    1    2    0  501 -0.22785762233E+02  0.28770867396E+02  0.16972124754E+02  0.17668901151E+03  0.17200000000E+03 0.  1.
</event>
<event>
 4    1  0.3211568E-002  0.3728704E+03  0.7818608E-02  0.1053601E+00
          2   -1    0    0  502    0  0.00000000000E+00  0.00000000000E+00  0.23278757634E+03  0.23278757634E+03  0.00000000000E+00 0. -1.
         -2   -1    0    0    0  501 -0.00000000000E+00 -0.00000000000E+00 -0.65298445300E+03  0.65298445300E+03  0.00000000000E+00 0.  1.
          6    1    1    2  502    0  0.11789016364E+03  0.30911200721E+03 -0.80707649832E+02  0.38150497825E+03  0.17200000000E+03 0. -1.
         -6    1    1    2    0  501 -0.11789016364E+03 -0.30911200721E+03 -0.33948922682E+03  0.50426705109E+03  0.17200000000E+03 0.  1.
</event>
<event>
 4    1  0.3211568E-002  0.2194912E+03  0.7818608E-02  0.1134263E+00
          2   -1    0    0  502    0  0.00000000000E+00  0.00000000000E+00  0.30115662888E+03  0.30115662888E+03  0.00000000000E+00 0. -1.
         -2   -1    0    0    0  501 -0.00000000000E+00 -0.00000000000E+00 -0.18723699875E+03  0.18723699875E+03  0.00000000000E+00 0.  1.
          6    1    1    2  502    0 -0.10709122299E+03  0.84402973400E+02 -0.36226716409E+02  0.22246070876E+03  0.17200000000E+03 0.  1.
         -6    1    1    2    0  501  0.10709122299E+03 -0.84402973400E+02  0.15014634654E+03  0.26593291887E+03  0.17200000000E+03 0.  1.
</event>
<event>
 4    1  0.3211568E-002  0.2126499E+03  0.7818608E-02  0.1139485E+00
          1   -1    0    0  502    0  0.00000000000E+00  0.00000000000E+00  0.59551584876E+03  0.59551584876E+03  0.00000000000E+00 0. -1.
         -1   -1    0    0    0  501 -0.00000000000E+00 -0.00000000000E+00 -0.11316941433E+03  0.11316941433E+03  0.00000000000E+00 0.  1.
          6    1    1    2  502    0 -0.47071727776E+02  0.11584574645E+03  0.44442583328E+03  0.49268073416E+03  0.17200000000E+03 0.  1.
         -6    1    1    2    0  501  0.47071727776E+02 -0.11584574645E+03  0.37920601155E+02  0.21600452893E+03  0.17200000000E+03 0.  1.
</event>
<event>
 4    1  0.3211568E-002  0.2991211E+03  0.7818608E-02  0.1085681E+00
         -1   -1    0    0    0  501 -0.00000000000E+00  0.00000000000E+00  0.99727091421E+02  0.99727091421E+02  0.00000000000E+00 0.  1.
          1   -1    0    0  502    0  0.00000000000E+00 -0.00000000000E+00 -0.92489252661E+03  0.92489252661E+03  0.00000000000E+00 0. -1.
          6    1    1    2  502    0 -0.19663653929E+03  0.14568296451E+03 -0.32390769641E+03  0.44089641700E+03  0.17200000000E+03 0. -1.
         -6    1    1    2    0  501  0.19663653929E+03 -0.14568296451E+03 -0.50125773878E+03  0.58372320103E+03  0.17200000000E+03 0.  1.
</event>
<event>
 4    1  0.3211568E-002  0.2170155E+03  0.7818608E-02  0.1136128E+00
         -2   -1    0    0    0  501 -0.00000000000E+00  0.00000000000E+00  0.23732195357E+03  0.23732195357E+03  0.00000000000E+00 0.  1.
          2   -1    0    0  502    0  0.00000000000E+00 -0.00000000000E+00 -0.28511439947E+03  0.28511439947E+03  0.00000000000E+00 0. -1.
          6    1    1    2  502    0  0.12393762919E+03 -0.46380922442E+02  0.12012377370E+03  0.24804323596E+03  0.17200000000E+03 0.  1.
         -6    1    1    2    0  501 -0.12393762919E+03  0.46380922442E+02 -0.16791621960E+03  0.27439311708E+03  0.17200000000E+03 0.  1.
</event>
<event>
 4    1  0.3211568E-002  0.3918173E+03  0.7818608E-02  0.1046650E+00
          1   -1    0    0  502    0  0.00000000000E+00  0.00000000000E+00  0.97100834803E+03  0.97100834803E+03  0.00000000000E+00 0. -1.
         -1   -1    0    0    0  501 -0.00000000000E+00 -0.00000000000E+00 -0.18541084771E+03  0.18541084771E+03  0.00000000000E+00 0.  1.
          6    1    1    2  502    0 -0.29326418660E+03  0.19476375758E+03  0.61469471844E+03  0.72895157678E+03  0.17200000000E+03 0. -1.
         -6    1    1    2    0  501  0.29326418660E+03 -0.19476375758E+03  0.17090278188E+03  0.42746761896E+03  0.17200000000E+03 0.  1.
</event>
<event>
 4    1  0.3211568E-002  0.2197542E+03  0.7818608E-02  0.1134066E+00
          2   -1    0    0  502    0  0.00000000000E+00  0.00000000000E+00  0.89602447116E+02  0.89602447116E+02  0.00000000000E+00 0. -1.
         -2   -1    0    0    0  501 -0.00000000000E+00 -0.00000000000E+00 -0.54499817033E+03  0.54499817033E+03  0.00000000000E+00 0.  1.
          6    1    1    2  502    0  0.89401141999E+02 -0.10351494873E+03 -0.26110323872E+03  0.34127234003E+03  0.17200000000E+03 0. -1.
         -6    1    1    2    0  501 -0.89401141999E+02  0.10351494873E+03 -0.19429248449E+03  0.29332827742E+03  0.17200000000E+03 0. -1.
</event>
<event>
 4    1  0.3211568E-002  0.2288093E+03  0.7818608E-02  0.1127481E+00
         -2   -1    0    0    0  501 -0.00000000000E+00  0.00000000000E+00  0.24192034491E+03  0.24192034491E+03  0.00000000000E+00 0.  1.
          2   -1    0    0  502    0  0.00000000000E+00 -0.00000000000E+00 -0.24068192471E+03  0.24068192471E+03  0.00000000000E+00 0. -1.
          6    1    1    2  502    0 -0.50963860043E+02  0.14202951274E+03 -0.76011041037E+02  0.24110449162E+03  0.17200000000E+03 0. -1.
         -6    1    1    2    0  501  0.50963860043E+02 -0.14202951274E+03  0.77249461235E+02  0.24149777800E+03  0.17200000000E+03 0.  1.
</event>
<event>
 4    1  0.3211568E-002  0.3720091E+03  0.7818608E-02  0.1053927E+00
         -2   -1    0    0    0  501 -0.00000000000E+00  0.00000000000E+00  0.88657623761E+02  0.88657623761E+02  0.00000000000E+00 0.  1.
          2   -1    0    0  502    0  0.00000000000E+00 -0.00000000000E+00 -0.29467482151E+04  0.29467482151E+04  0.00000000000E+00 0. -1.
          6    1    1    2  502    0 -0.30325112138E+03  0.12979045168E+03 -0.24698375250E+04  0.24976965796E+04  0.17200000000E+03 0. -1.
         -6    1    1    2    0  501  0.30325112138E+03 -0.12979045168E+03 -0.38825306638E+03  0.53770925928E+03  0.17200000000E+03 0.  1.
</event>
<event>
 4    1  0.3211568E-002  0.1998469E+03  0.7818608E-02  0.1149868E+00
         -1   -1    0    0    0  501 -0.00000000000E+00  0.00000000000E+00  0.48290557872E+03  0.48290557872E+03  0.00000000000E+00 0.  1.
          1   -1    0    0  502    0  0.00000000000E+00 -0.00000000000E+00 -0.97758951669E+02  0.97758951669E+02  0.00000000000E+00 0. -1.
          6    1    1    2  502    0 -0.97593675177E+02  0.28814525484E+02  0.78642968375E+02  0.21476386751E+03  0.17200000000E+03 0. -1.
         -6    1    1    2    0  501  0.97593675177E+02 -0.28814525484E+02  0.30650365867E+03  0.36590066288E+03  0.17200000000E+03 0.  1.
</event>
<event>
 4    1  0.3211568E-002  0.2932210E+03  0.7818608E-02  0.1088679E+00
         -1   -1    0    0    0  501 -0.00000000000E+00  0.00000000000E+00  0.53648161433E+03  0.53648161433E+03  0.00000000000E+00 0.  1.
          1   -1    0    0  502    0  0.00000000000E+00 -0.00000000000E+00 -0.17806715697E+03  0.17806715697E+03  0.00000000000E+00 0. -1.
          6    1    1    2  502    0 -0.20667649213E+03 -0.11695894793E+03  0.66237719364E+02  0.30060938669E+03  0.17200000000E+03 0. -1.
         -6    1    1    2    0  501  0.20667649213E+03  0.11695894793E+03  0.29217673800E+03  0.41393938461E+03  0.17200000000E+03 0.  1.
</event>
<event>
 4    1  0.3211568E-002  0.2087426E+03  0.7818608E-02  0.1142566E+00
         -1   -1    0    0    0  501 -0.00000000000E+00  0.00000000000E+00  0.96817270487E+02  0.96817270487E+02  0.00000000000E+00 0.  1.
          1   -1    0    0  502    0  0.00000000000E+00 -0.00000000000E+00 -0.47063551842E+03  0.47063551842E+03  0.00000000000E+00 0. -1.
          6    1    1    2  502    0  0.64920394082E+02  0.98867737510E+02 -0.12758340740E+03  0.24464466667E+03  0.17200000000E+03 0.  1.
         -6    1    1    2    0  501 -0.64920394082E+02 -0.98867737510E+02 -0.24623484054E+03  0.32280812224E+03  0.17200000000E+03 0. -1.
</event>
<event>
 4    1  0.3211568E-002  0.4470184E+03  0.7818608E-02  0.1028615E+00
          2   -1    0    0  502    0  0.00000000000E+00  0.00000000000E+00  0.17877870201E+04  0.17877870201E+04  0.00000000000E+00 0. -1.
         -2   -1    0    0    0  501 -0.00000000000E+00 -0.00000000000E+00 -0.23885111997E+03  0.23885111997E+03  0.00000000000E+00 0.  1.
          6    1    1    2  502    0 -0.20265430702E+03 -0.35940597108E+03  0.15135945364E+04  0.15782249018E+04  0.17200000000E+03 0. -1.
         -6    1    1    2    0  501  0.20265430702E+03  0.35940597108E+03  0.35341363718E+02  0.44841323820E+03  0.17200000000E+03 0.  1.
</event>
<event>
 4    1  0.3211568E-002  0.3520941E+03  0.7818608E-02  0.1061759E+00
          1   -1    0    0  502    0  0.00000000000E+00  0.00000000000E+00  0.22062455275E+03  0.22062455275E+03  0.00000000000E+00 0. -1.
         -1   -1    0    0    0  501 -0.00000000000E+00 -0.00000000000E+00 -0.64729949197E+03  0.64729949197E+03  0.00000000000E+00 0.  1.
          6    1    1    2  502    0 -0.30456307971E+03  0.40343089631E+02 -0.37095763263E+03  0.51144872628E+03  0.17200000000E+03 0. -1.
         -6    1    1    2    0  501  0.30456307971E+03 -0.40343089631E+02 -0.55717306590E+02  0.35647531844E+03  0.17200000000E+03 0.  1.
</event>
<event>
 4    1  0.3211568E-002  0.2952590E+03  0.7818608E-02  0.1087635E+00
         -2   -1    0    0    0  501 -0.00000000000E+00  0.00000000000E+00  0.19855466876E+03  0.19855466876E+03  0.00000000000E+00 0.  1.
          2   -1    0    0  502    0  0.00000000000E+00 -0.00000000000E+00 -0.54453252648E+03  0.54453252648E+03  0.00000000000E+00 0. -1.
          6    1    1    2  502    0  0.88038359958E+02  0.22325577345E+03 -0.33650579785E+03  0.44767627276E+03  0.17200000000E+03 0. -1.
         -6    1    1    2    0  501 -0.88038359958E+02 -0.22325577345E+03 -0.94720598624E+01  0.29541092248E+03  0.17200000000E+03 0.  1.
</event>
<event>
 4    1  0.3211568E-002  0.1839116E+03  0.7818608E-02  0.1164070E+00
          2   -1    0    0  502    0  0.00000000000E+00  0.00000000000E+00  0.74399055237E+03  0.74399055237E+03  0.00000000000E+00 0. -1.
         -2   -1    0    0    0  501 -0.00000000000E+00 -0.00000000000E+00 -0.69819338603E+02  0.69819338603E+02  0.00000000000E+00 0.  1.
          6    1    1    2  502    0  0.49201221498E+02 -0.42646508504E+02  0.57742102997E+03  0.60600208807E+03  0.17200000000E+03 0. -1.
         -6    1    1    2    0  501 -0.49201221498E+02  0.42646508504E+02  0.96750183792E+02  0.20780780291E+03  0.17200000000E+03 0. -1.
</event>
<event>
 4    1  0.3211568E-002  0.2615790E+03  0.7818608E-02  0.1106198E+00
          2   -1    0    0  502    0  0.00000000000E+00  0.00000000000E+00  0.18396280551E+04  0.18396280551E+04  0.00000000000E+00 0. -1.
         -2   -1    0    0    0  501 -0.00000000000E+00 -0.00000000000E+00 -0.10430352913E+03  0.10430352913E+03  0.00000000000E+00 0.  1.
          6    1    1    2  502    0  0.16588122076E+03  0.10640945495E+03  0.16472999530E+04  0.16679390536E+04  0.17200000000E+03 0. -1.
         -6    1    1    2    0  501 -0.16588122076E+03 -0.10640945495E+03  0.88024572975E+02  0.27599253060E+03  0.17200000000E+03 0. -1.
</event>
<event>
 4    1  0.3211568E-002  0.2604933E+03  0.7818608E-02  0.1106847E+00
          3   -1    0    0  502    0  0.00000000000E+00  0.00000000000E+00  0.14680512201E+04  0.14680512201E+04  0.00000000000E+00 0. -1.
         -3   -1    0    0    0  501 -0.00000000000E+00 -0.00000000000E+00 -0.65436369509E+02  0.65436369509E+02  0.00000000000E+00 0.  1.
          6    1    1    2  502    0 -0.18860541337E+03 -0.51968895793E+02  0.11167871705E+04  0.11467651688E+04  0.17200000000E+03 0. -1.
         -6    1    1    2    0  501  0.18860541337E+03  0.51968895793E+02  0.28582768007E+03  0.38672242084E+03  0.17200000000E+03 0.  1.
</event>
<event>
 4    1  0.3211568E-002  0.2723879E+03  0.7818608E-02  0.1099921E+00
         -3   -1    0    0    0  501 -0.00000000000E+00  0.00000000000E+00  0.13638194422E+03  0.13638194422E+03  0.00000000000E+00 0.  1.
          3   -1    0    0  502    0  0.00000000000E+00 -0.00000000000E+00 -0.57687056759E+03  0.57687056759E+03  0.00000000000E+00 0. -1.
          6    1    1    2  502    0  0.20142905875E+03  0.63541393569E+02 -0.30534109215E+03  0.40918010333E+03  0.17200000000E+03 0. -1.
         -6    1    1    2    0  501 -0.20142905875E+03 -0.63541393569E+02 -0.13514753122E+03  0.30407240848E+03  0.17200000000E+03 0.  1.
</event>
<event>
 4    1  0.3211568E-002  0.1941868E+03  0.7818608E-02  0.1154738E+00
         -2   -1    0    0    0  501 -0.00000000000E+00  0.00000000000E+00  0.49988496660E+03  0.49988496660E+03  0.00000000000E+00 0.  1.
          2   -1    0    0  502    0  0.00000000000E+00 -0.00000000000E+00 -0.75502450690E+02  0.75502450690E+02  0.00000000000E+00 0. -1.
          6    1    1    2  502    0 -0.89962018250E+02  0.55979849345E+01  0.20355161004E+03  0.28132145334E+03  0.17200000000E+03 0. -1.
         -6    1    1    2    0  501  0.89962018250E+02 -0.55979849345E+01  0.22083090587E+03  0.29406596395E+03  0.17200000000E+03 0.  1.
</event>
<event>
 4    1  0.3211568E-002  0.6464175E+03  0.7818608E-02  0.9813525E-01
         -3   -1    0    0    0  501 -0.00000000000E+00  0.00000000000E+00  0.70313618903E+03  0.70313618903E+03  0.00000000000E+00 0.  1.
          3   -1    0    0  502    0  0.00000000000E+00 -0.00000000000E+00 -0.69543630081E+03  0.69543630081E+03  0.00000000000E+00 0. -1.
          6    1    1    2  502    0 -0.61731481417E+03 -0.84817157277E+02  0.27055775502E+03  0.70075461381E+03  0.17200000000E+03 0. -1.
         -6    1    1    2    0  501  0.61731481417E+03  0.84817157277E+02 -0.26285786681E+03  0.69781787603E+03  0.17200000000E+03 0. -1.
</event>
<event>
 4    1  0.3211568E-002  0.2187220E+03  0.7818608E-02  0.1134839E+00
          2   -1    0    0  502    0  0.00000000000E+00  0.00000000000E+00  0.10284130244E+04  0.10284130244E+04  0.00000000000E+00 0. -1.
         -2   -1    0    0    0  501 -0.00000000000E+00 -0.00000000000E+00 -0.46940878065E+02  0.46940878065E+02  0.00000000000E+00 0.  1.
          6    1    1    2  502    0  0.12172655680E+03 -0.58634025607E+02  0.54179359721E+03  0.58427699387E+03  0.17200000000E+03 0.  1.
         -6    1    1    2    0  501 -0.12172655680E+03  0.58634025607E+02  0.43967854909E+03  0.49107690856E+03  0.17200000000E+03 0. -1.
</event>
<event>
 4    1  0.3211568E-002  0.1768584E+03  0.7818608E-02  0.1170879E+00
         -2   -1    0    0    0  501 -0.00000000000E+00  0.00000000000E+00  0.57423626147E+02  0.57423626147E+02  0.00000000000E+00 0.  1.
          2   -1    0    0  502    0  0.00000000000E+00 -0.00000000000E+00 -0.63319550437E+03  0.63319550437E+03  0.00000000000E+00 0. -1.
          6    1    1    2  502    0  0.37521132730E+02  0.16942489412E+02 -0.41697525359E+03  0.45293183312E+03  0.17200000000E+03 0. -1.
         -6    1    1    2    0  501 -0.37521132730E+02 -0.16942489412E+02 -0.15879662464E+03  0.23768729740E+03  0.17200000000E+03 0.  1.
</event>
<event>
 4    1  0.3211568E-002  0.1794670E+03  0.7818608E-02  0.1168320E+00
         -2   -1    0    0    0  501 -0.00000000000E+00  0.00000000000E+00  0.79949057009E+02  0.79949057009E+02  0.00000000000E+00 0.  1.
          2   -1    0    0  502    0  0.00000000000E+00 -0.00000000000E+00 -0.41957960064E+03  0.41957960064E+03  0.00000000000E+00 0. -1.
          6    1    1    2  502    0 -0.32131846719E+02 -0.39899316342E+02 -0.21967092670E+03  0.28366128931E+03  0.17200000000E+03 0. -1.
         -6    1    1    2    0  501  0.32131846719E+02  0.39899316342E+02 -0.11995961693E+03  0.21586736834E+03  0.17200000000E+03 0.  1.
</event>
<event>
 4    1  0.3211568E-002  0.1789045E+03  0.7818608E-02  0.1168867E+00
         -2   -1    0    0    0  501 -0.00000000000E+00  0.00000000000E+00  0.92507148883E+02  0.92507148883E+02  0.00000000000E+00 0.  1.
          2   -1    0    0  502    0  0.00000000000E+00 -0.00000000000E+00 -0.41916497052E+03  0.41916497052E+03  0.00000000000E+00 0. -1.
          6    1    1    2  502    0  0.49197497046E+02  0.15615790291E+01 -0.27021998481E+03  0.32407664593E+03  0.17200000000E+03 0. -1.
         -6    1    1    2    0  501 -0.49197497046E+02 -0.15615790291E+01 -0.56437836833E+02  0.18759547348E+03  0.17200000000E+03 0.  1.
</event>
<event>
 4    1  0.3211568E-002  0.3632731E+03  0.7818608E-02  0.1057295E+00
          1   -1    0    0  502    0  0.00000000000E+00  0.00000000000E+00  0.16333152693E+03  0.16333152693E+03  0.00000000000E+00 0. -1.
         -1   -1    0    0    0  501 -0.00000000000E+00 -0.00000000000E+00 -0.11095070329E+04  0.11095070329E+04  0.00000000000E+00 0.  1.
          6    1    1    2  502    0 -0.14903542629E+03  0.28314623979E+03 -0.80486527708E+03  0.88304895994E+03  0.17200000000E+03 0. -1.
         -6    1    1    2    0  501  0.14903542629E+03 -0.28314623979E+03 -0.14131022889E+03  0.38978959990E+03  0.17200000000E+03 0. -1.
</event>
<event>
 4    1  0.3211568E-002  0.7186480E+03  0.7818608E-02  0.9685863E-01
         -1   -1    0    0    0  501 -0.00000000000E+00  0.00000000000E+00  0.15929837822E+04  0.15929837822E+04  0.00000000000E+00 0.  1.
          1   -1    0    0  502    0  0.00000000000E+00 -0.00000000000E+00 -0.84881467569E+03  0.84881467569E+03  0.00000000000E+00 0. -1.
          6    1    1    2  502    0  0.38048844725E+03 -0.58489269220E+03 -0.58773834961E+03  0.92838100340E+03  0.17200000000E+03 0. -1.
         -6    1    1    2    0  501 -0.38048844725E+03  0.58489269220E+03  0.13319074561E+04  0.15134174545E+04  0.17200000000E+03 0.  1.
</event>
<event>
 4    1  0.3211568E-002  0.3178706E+03  0.7818608E-02  0.1076634E+00
          2   -1    0    0  502    0  0.00000000000E+00  0.00000000000E+00  0.25018791885E+03  0.25018791885E+03  0.00000000000E+00 0. -1.
         -2   -1    0    0    0  501 -0.00000000000E+00 -0.00000000000E+00 -0.41511526043E+03  0.41511526043E+03  0.00000000000E+00 0.  1.
          6    1    1    2  502    0  0.26528015395E+03 -0.32926507452E+02 -0.27696585803E+02  0.31907493765E+03  0.17200000000E+03 0. -1.
         -6    1    1    2    0  501 -0.26528015395E+03  0.32926507452E+02 -0.13723075577E+03  0.34622824163E+03  0.17200000000E+03 0.  1.
</event>
<event>
 4    1  0.3211568E-002  0.5966217E+03  0.7818608E-02  0.9912440E-01
          2   -1    0    0  502    0  0.00000000000E+00  0.00000000000E+00  0.26063416158E+04  0.26063416158E+04  0.00000000000E+00 0. -1.
         -2   -1    0    0    0  501 -0.00000000000E+00 -0.00000000000E+00 -0.13698210328E+03  0.13698210328E+03  0.00000000000E+00 0.  1.
          6    1    1    2  502    0 -0.31294133814E+03 -0.47795518240E+03  0.13095858172E+04  0.14390873671E+04  0.17200000000E+03 0. -1.
         -6    1    1    2    0  501  0.31294133814E+03  0.47795518240E+03  0.11597736953E+04  0.13042363520E+04  0.17200000000E+03 0. -1.
</event>
<event>
 4    1  0.3211568E-002  0.5702272E+03  0.7818608E-02  0.9969176E-01
          2   -1    0    0  502    0  0.00000000000E+00  0.00000000000E+00  0.11480791556E+04  0.11480791556E+04  0.00000000000E+00 0. -1.
         -2   -1    0    0    0  501 -0.00000000000E+00 -0.00000000000E+00 -0.28920528690E+03  0.28920528690E+03  0.00000000000E+00 0.  1.
          6    1    1    2  502    0 -0.26405873369E+03  0.47523473638E+03  0.53281995672E+03  0.78042051215E+03  0.17200000000E+03 0. -1.
         -6    1    1    2    0  501  0.26405873369E+03 -0.47523473638E+03  0.32605391202E+03  0.65686393039E+03  0.17200000000E+03 0.  1.
</event>
<event>
 4    1  0.3211568E-002  0.1917616E+03  0.7818608E-02  0.1156882E+00
          2   -1    0    0  502    0  0.00000000000E+00  0.00000000000E+00  0.26593705854E+04  0.26593705854E+04  0.00000000000E+00 0. -1.
         -2   -1    0    0    0  501 -0.00000000000E+00 -0.00000000000E+00 -0.16895486750E+02  0.16895486750E+02  0.00000000000E+00 0.  1.
          6    1    1    2  502    0  0.48219376881E+02 -0.69738147216E+02  0.18914527580E+04  0.19011486141E+04  0.17200000000E+03 0. -1.
         -6    1    1    2    0  501 -0.48219376881E+02  0.69738147216E+02  0.75102234067E+03  0.77511745799E+03  0.17200000000E+03 0. -1.
</event>
<event>
 4    1  0.3211568E-002  0.5796039E+03  0.7818608E-02  0.9948649E-01
         -2   -1    0    0    0  501 -0.00000000000E+00  0.00000000000E+00  0.20826955480E+03  0.20826955480E+03  0.00000000000E+00 0.  1.
          2   -1    0    0  502    0  0.00000000000E+00 -0.00000000000E+00 -0.16532835780E+04  0.16532835780E+04  0.00000000000E+00 0. -1.
          6    1    1    2  502    0 -0.51831275807E+03 -0.19418692376E+03 -0.86778071223E+03  0.10435439814E+04  0.17200000000E+03 0. -1.
         -6    1    1    2    0  501  0.51831275807E+03  0.19418692376E+03 -0.57723331098E+03  0.81800915144E+03  0.17200000000E+03 0.  1.
</event>
<event>
 4    1  0.3211568E-002  0.2160345E+03  0.7818608E-02  0.1136875E+00
         -2   -1    0    0    0  501 -0.00000000000E+00  0.00000000000E+00  0.26619939870E+03  0.26619939870E+03  0.00000000000E+00 0.  1.
          2   -1    0    0  502    0  0.00000000000E+00 -0.00000000000E+00 -0.18921513932E+03  0.18921513932E+03  0.00000000000E+00 0. -1.
          6    1    1    2  502    0 -0.12210699495E+03 -0.46655848596E+02  0.10019181882E+03  0.23813711803E+03  0.17200000000E+03 0.  1.
         -6    1    1    2    0  501  0.12210699495E+03  0.46655848596E+02 -0.23207559441E+02  0.21727742000E+03  0.17200000000E+03 0. -1.
</event>
<event>
 4    1  0.3211568E-002  0.1852290E+03  0.7818608E-02  0.1162836E+00
         -1   -1    0    0    0  501 -0.00000000000E+00  0.00000000000E+00  0.12662599154E+03  0.12662599154E+03  0.00000000000E+00 0.  1.
          1   -1    0    0  502    0  0.00000000000E+00 -0.00000000000E+00 -0.40108734452E+03  0.40108734452E+03  0.00000000000E+00 0. -1.
          6    1    1    2  502    0  0.68743795590E+02  0.26168311782E+00 -0.28752529505E+03  0.34202422897E+03  0.17200000000E+03 0. -1.
         -6    1    1    2    0  501 -0.68743795590E+02 -0.26168311782E+00  0.13063942061E+02  0.18568910709E+03  0.17200000000E+03 0.  1.
</event>
<event>
 4    1  0.3211568E-002  0.2414095E+03  0.7818608E-02  0.1118857E+00
          4   -1    0    0  502    0  0.00000000000E+00  0.00000000000E+00  0.21523827627E+03  0.21523827627E+03  0.00000000000E+00 0. -1.
         -4   -1    0    0    0  501 -0.00000000000E+00 -0.00000000000E+00 -0.33253206320E+03  0.33253206320E+03  0.00000000000E+00 0.  1.
          6    1    1    2  502    0  0.60909481178E+02 -0.15806516826E+03  0.59395293154E+02  0.24860885576E+03  0.17200000000E+03 0. -1.
         -6    1    1    2    0  501 -0.60909481178E+02  0.15806516826E+03 -0.17668908008E+03  0.29916148371E+03  0.17200000000E+03 0.  1.
</event>
<event>
 4    1  0.3211568E-002  0.2417931E+03  0.7818608E-02  0.1118604E+00
          2   -1    0    0  502    0  0.00000000000E+00  0.00000000000E+00  0.60903412175E+03  0.60903412175E+03  0.00000000000E+00 0. -1.
         -2   -1    0    0    0  501 -0.00000000000E+00 -0.00000000000E+00 -0.98291812572E+02  0.98291812572E+02  0.00000000000E+00 0.  1.
          6    1    1    2  502    0  0.16006491672E+03  0.57088704888E+02  0.30943978106E+03  0.39270456566E+03  0.17200000000E+03 0.  1.
         -6    1    1    2    0  501 -0.16006491672E+03 -0.57088704888E+02  0.20130252812E+03  0.31462136866E+03  0.17200000000E+03 0.  1.
</event>
<event>
 4    1  0.3211568E-002  0.1913984E+03  0.7818608E-02  0.1157206E+00
         -2   -1    0    0    0  501 -0.00000000000E+00  0.00000000000E+00  0.31790513618E+02  0.31790513618E+02  0.00000000000E+00 0.  1.
          2   -1    0    0  502    0  0.00000000000E+00 -0.00000000000E+00 -0.16162846013E+04  0.16162846013E+04  0.00000000000E+00 0. -1.
          6    1    1    2  502    0 -0.59445222650E+02  0.59292525352E+02 -0.35075462769E+03  0.39957746045E+03  0.17200000000E+03 0.  1.
         -6    1    1    2    0  501  0.59445222650E+02 -0.59292525352E+02 -0.12337394600E+04  0.12484976545E+04  0.17200000000E+03 0. -1.
</event>
<event>
 4    1  0.3211568E-002  0.2202860E+03  0.7818608E-02  0.1133670E+00
         -2   -1    0    0    0  501 -0.00000000000E+00  0.00000000000E+00  0.11919346309E+03  0.11919346309E+03  0.00000000000E+00 0.  1.
          2   -1    0    0  502    0  0.00000000000E+00 -0.00000000000E+00 -0.13132401720E+04  0.13132401720E+04  0.00000000000E+00 0. -1.
          6    1    1    2  502    0  0.13718733472E+03 -0.11025828650E+02 -0.11919529217E+04  0.12121376577E+04  0.17200000000E+03 0. -1.
         -6    1    1    2    0  501 -0.13718733472E+03  0.11025828650E+02 -0.20937872097E+01  0.22029597738E+03  0.17200000000E+03 0.  1.
</event>
<event>
 4    1  0.3211568E-002  0.1767262E+03  0.7818608E-02  0.1171010E+00
          4   -1    0    0  502    0  0.00000000000E+00  0.00000000000E+00  0.34724859925E+03  0.34724859925E+03  0.00000000000E+00 0. -1.
         -4   -1    0    0    0  501 -0.00000000000E+00 -0.00000000000E+00 -0.98012716750E+02  0.98012716750E+02  0.00000000000E+00 0.  1.
          6    1    1    2  502    0  0.21964030398E+02 -0.34142612490E+02  0.60731703032E+02  0.18687021264E+03  0.17200000000E+03 0.  1.
         -6    1    1    2    0  501 -0.21964030398E+02  0.34142612490E+02  0.18850417947E+03  0.25839110336E+03  0.17200000000E+03 0. -1.
</event>
<event>
 4    1  0.3211568E-002  0.3167995E+03  0.7818608E-02  0.1077132E+00
          1   -1    0    0  502    0  0.00000000000E+00  0.00000000000E+00  0.26224838806E+03  0.26224838806E+03  0.00000000000E+00 0. -1.
         -1   -1    0    0    0  501 -0.00000000000E+00 -0.00000000000E+00 -0.41299741972E+03  0.41299741972E+03  0.00000000000E+00 0.  1.
          6    1    1    2  502    0  0.26312128593E+03  0.39308260246E+02  0.16073634943E+02  0.31720704937E+03  0.17200000000E+03 0. -1.
         -6    1    1    2    0  501 -0.26312128593E+03 -0.39308260246E+02 -0.16682266661E+03  0.35803875841E+03  0.17200000000E+03 0.  1.
</event>
<event>
 4    1  0.3211568E-002  0.3594378E+03  0.7818608E-02  0.1058807E+00
          3   -1    0    0  502    0  0.00000000000E+00  0.00000000000E+00  0.40427296380E+03  0.40427296380E+03  0.00000000000E+00 0. -1.
         -3   -1    0    0    0  501 -0.00000000000E+00 -0.00000000000E+00 -0.41638936423E+03  0.41638936423E+03  0.00000000000E+00 0.  1.
          6    1    1    2  502    0  0.25407516360E+03 -0.18723615200E+03  0.19180015947E+03  0.40740994900E+03  0.17200000000E+03 0. -1.
         -6    1    1    2    0  501 -0.25407516360E+03  0.18723615200E+03 -0.20391655990E+03  0.41325237903E+03  0.17200000000E+03 0.  1.
</event>
<event>
 4    1  0.3211568E-002  0.1894131E+03  0.7818608E-02  0.1158992E+00
         -1   -1    0    0    0  501 -0.00000000000E+00  0.00000000000E+00  0.13027437983E+04  0.13027437983E+04  0.00000000000E+00 0.  1.
          1   -1    0    0  502    0  0.00000000000E+00 -0.00000000000E+00 -0.30762482903E+02  0.30762482903E+02  0.00000000000E+00 0. -1.
          6    1    1    2  502    0  0.13929649780E+02 -0.78097973793E+02  0.85179584123E+03  0.87260156073E+03  0.17200000000E+03 0.  1.
         -6    1    1    2    0  501 -0.13929649780E+02  0.78097973793E+02  0.42018547419E+03  0.46090472049E+03  0.17200000000E+03 0. -1.
</event>
<event>
 4    1  0.3211568E-002  0.2578123E+03  0.7818608E-02  0.1108465E+00
          1   -1    0    0  502    0  0.00000000000E+00  0.00000000000E+00  0.13144858187E+04  0.13144858187E+04  0.00000000000E+00 0. -1.
         -1   -1    0    0    0  501 -0.00000000000E+00 -0.00000000000E+00 -0.11780363742E+03  0.11780363742E+03  0.00000000000E+00 0.  1.
          6    1    1    2  502    0 -0.23442996357E+02 -0.19061372191E+03  0.11393824120E+04  0.11681863917E+04  0.17200000000E+03 0. -1.
         -6    1    1    2    0  501  0.23442996357E+02  0.19061372191E+03  0.57299769275E+02  0.26410306438E+03  0.17200000000E+03 0.  1.
</event>
<event>
 4    1  0.3211568E-002  0.2018884E+03  0.7818608E-02  0.1148155E+00
          1   -1    0    0  502    0  0.00000000000E+00  0.00000000000E+00  0.83218008693E+03  0.83218008693E+03  0.00000000000E+00 0. -1.
         -1   -1    0    0    0  501 -0.00000000000E+00 -0.00000000000E+00 -0.56262464758E+02  0.56262464758E+02  0.00000000000E+00 0.  1.
          6    1    1    2  502    0  0.90255091213E+02  0.55035795986E+02  0.22812291209E+03  0.30462925557E+03  0.17200000000E+03 0. -1.
         -6    1    1    2    0  501 -0.90255091213E+02 -0.55035795986E+02  0.54779471008E+03  0.58381329612E+03  0.17200000000E+03 0. -1.
</event>
<event>
 4    1  0.3211568E-002  0.1737591E+03  0.7818608E-02  0.1173983E+00
         -1   -1    0    0    0  501 -0.00000000000E+00  0.00000000000E+00  0.26483565700E+02  0.26483565700E+02  0.00000000000E+00 0.  1.
          1   -1    0    0  502    0  0.00000000000E+00 -0.00000000000E+00 -0.11571754467E+04  0.11571754467E+04  0.00000000000E+00 0. -1.
          6    1    1    2  502    0  0.20027667187E+02  0.14392128368E+02 -0.49332071263E+03  0.52302730934E+03  0.17200000000E+03 0. -1.
         -6    1    1    2    0  501 -0.20027667187E+02 -0.14392128368E+02 -0.63737116842E+03  0.66063170311E+03  0.17200000000E+03 0. -1.
</event>
<event>
 4    1  0.3211568E-002  0.5712590E+03  0.7818608E-02  0.9966897E-01
          2   -1    0    0  502    0  0.00000000000E+00  0.00000000000E+00  0.35131025964E+04  0.35131025964E+04  0.00000000000E+00 0. -1.
         -2   -1    0    0    0  501 -0.00000000000E+00 -0.00000000000E+00 -0.93184972254E+02  0.93184972254E+02  0.00000000000E+00 0.  1.
          6    1    1    2  502    0  0.42381472884E+03 -0.34224827604E+03  0.16087404070E+04  0.17071562623E+04  0.17200000000E+03 0. -1.
         -6    1    1    2    0  501 -0.42381472884E+03  0.34224827604E+03  0.18111772171E+04  0.18991313063E+04  0.17200000000E+03 0.  1.
</event>
<event>
 4    1  0.3211568E-002  0.3532631E+03  0.7818608E-02  0.1061284E+00
         -2   -1    0    0    0  501 -0.00000000000E+00  0.00000000000E+00  0.45643911199E+03  0.45643911199E+03  0.00000000000E+00 0.  1.
          2   -1    0    0  502    0  0.00000000000E+00 -0.00000000000E+00 -0.44416348141E+03  0.44416348141E+03  0.00000000000E+00 0. -1.
          6    1    1    2  502    0 -0.83183824739E+02 -0.29713842856E+03 -0.27306331921E+03  0.44649565589E+03  0.17200000000E+03 0. -1.
         -6    1    1    2    0  501  0.83183824739E+02  0.29713842856E+03  0.28533894980E+03  0.45410693751E+03  0.17200000000E+03 0.  1.
</event>
<event>
 4    1  0.3211568E-002  0.2241830E+03  0.7818608E-02  0.1130802E+00
         -1   -1    0    0    0  501 -0.00000000000E+00  0.00000000000E+00  0.10915353870E+04  0.10915353870E+04  0.00000000000E+00 0.  1.
          1   -1    0    0  502    0  0.00000000000E+00 -0.00000000000E+00 -0.66237958156E+02  0.66237958156E+02  0.00000000000E+00 0. -1.
          6    1    1    2  502    0  0.12348050716E+03  0.73665415730E+02  0.83228566455E+03  0.86194979931E+03  0.17200000000E+03 0.  1.
         -6    1    1    2    0  501 -0.12348050716E+03 -0.73665415730E+02  0.19301176431E+03  0.29582354586E+03  0.17200000000E+03 0. -1.
</event>
<event>
 4    1  0.3211568E-002  0.1728612E+03  0.7818608E-02  0.1174897E+00
          2   -1    0    0  502    0  0.00000000000E+00  0.00000000000E+00  0.37309625542E+03  0.37309625542E+03  0.00000000000E+00 0. -1.
         -2   -1    0    0    0  501 -0.00000000000E+00 -0.00000000000E+00 -0.90256580671E+02  0.90256580671E+02  0.00000000000E+00 0.  1.
          6    1    1    2  502    0  0.16928869722E+02  0.32255406178E+01  0.21917806522E+03  0.27914156806E+03  0.17200000000E+03 0. -1.
         -6    1    1    2    0  501 -0.16928869722E+02 -0.32255406178E+01  0.63661609523E+02  0.18421126803E+03  0.17200000000E+03 0.  1.
</event>
<event>
 4    1  0.3211568E-002  0.1976605E+03  0.7818608E-02  0.1151728E+00
          1   -1    0    0  502    0  0.00000000000E+00  0.00000000000E+00  0.11743737484E+03  0.11743737484E+03  0.00000000000E+00 0. -1.
         -1   -1    0    0    0  501 -0.00000000000E+00 -0.00000000000E+00 -0.35315829235E+03  0.35315829235E+03  0.00000000000E+00 0.  1.
          6    1    1    2  502    0  0.37580660181E+02  0.89851936630E+02 -0.61207193290E+02  0.20692026736E+03  0.17200000000E+03 0. -1.
         -6    1    1    2    0  501 -0.37580660181E+02 -0.89851936630E+02 -0.17451372422E+03  0.26367539983E+03  0.17200000000E+03 0.  1.
</event>
<event>
 4    1  0.3211568E-002  0.2442031E+03  0.7818608E-02  0.1117024E+00
         -1   -1    0    0    0  501 -0.00000000000E+00  0.00000000000E+00  0.48556880051E+02  0.48556880051E+02  0.00000000000E+00 0.  1.
          1   -1    0    0  502    0  0.00000000000E+00 -0.00000000000E+00 -0.13235434775E+04  0.13235434775E+04  0.00000000000E+00 0. -1.
          6    1    1    2  502    0 -0.16660722312E+03  0.47887122929E+02 -0.45331197256E+03  0.51490473663E+03  0.17200000000E+03 0. -1.
         -6    1    1    2    0  501  0.16660722312E+03 -0.47887122929E+02 -0.82167462483E+03  0.85719562087E+03  0.17200000000E+03 0. -1.
</event>
<event>
 4    1  0.3211568E-002  0.1740805E+03  0.7818608E-02  0.1173658E+00
         -2   -1    0    0    0  501 -0.00000000000E+00  0.00000000000E+00  0.27391084013E+02  0.27391084013E+02  0.00000000000E+00 0.  1.
          2   -1    0    0  502    0  0.00000000000E+00 -0.00000000000E+00 -0.39354918045E+04  0.39354918045E+04  0.00000000000E+00 0. -1.
          6    1    1    2  502    0  0.19171873197E+02 -0.18774210178E+02 -0.36340506558E+04  0.36382177230E+04  0.17200000000E+03 0. -1.
         -6    1    1    2    0  501 -0.19171873197E+02  0.18774210178E+02 -0.27405006474E+03  0.32466516548E+03  0.17200000000E+03 0.  1.
</event>
<event>
 4    1  0.3211568E-002  0.1937938E+03  0.7818608E-02  0.1155083E+00
         -2   -1    0    0    0  501 -0.00000000000E+00  0.00000000000E+00  0.19798252978E+02  0.19798252978E+02  0.00000000000E+00 0.  1.
          2   -1    0    0  502    0  0.00000000000E+00 -0.00000000000E+00 -0.19371256574E+04  0.19371256574E+04  0.00000000000E+00 0. -1.
          6    1    1    2  502    0 -0.13548311856E+02 -0.88252310179E+02 -0.81772834426E+03  0.84037829102E+03  0.17200000000E+03 0. -1.
         -6    1    1    2    0  501  0.13548311856E+02  0.88252310179E+02 -0.10995990602E+04  0.11165456194E+04  0.17200000000E+03 0.  1.
</event>
<event>
 4    1  0.3211568E-002  0.6687386E+03  0.7818608E-02  0.9772239E-01
         -2   -1    0    0    0  501 -0.00000000000E+00  0.00000000000E+00  0.72160421094E+03  0.72160421094E+03  0.00000000000E+00 0.  1.
          2   -1    0    0  502    0  0.00000000000E+00 -0.00000000000E+00 -0.10706947110E+04  0.10706947110E+04  0.00000000000E+00 0. -1.
          6    1    1    2  502    0  0.19866269816E+03  0.61494747971E+03 -0.75612761533E+03  0.10094256987E+04  0.17200000000E+03 0. -1.
         -6    1    1    2    0  501 -0.19866269816E+03 -0.61494747971E+03  0.40703711531E+03  0.78287322325E+03  0.17200000000E+03 0.  1.
</event>
<event>
 4    1  0.3211568E-002  0.8616950E+03  0.7818608E-02  0.9474773E-01
          2   -1    0    0  502    0  0.00000000000E+00  0.00000000000E+00  0.21282240619E+04  0.21282240619E+04  0.00000000000E+00 0. -1.
         -2   -1    0    0    0  501 -0.00000000000E+00 -0.00000000000E+00 -0.38381115721E+03  0.38381115721E+03  0.00000000000E+00 0.  1.
          6    1    1    2  502    0 -0.50647869660E+03  0.67558383976E+03  0.12510632668E+04  0.15191041742E+04  0.17200000000E+03 0. -1.
         -6    1    1    2    0  501  0.50647869660E+03 -0.67558383976E+03  0.49334963786E+03  0.99293104485E+03  0.17200000000E+03 0.  1.
</event>
<event>
 4    1  0.3211568E-002  0.2127301E+03  0.7818608E-02  0.1139422E+00
          2   -1    0    0  502    0  0.00000000000E+00  0.00000000000E+00  0.16762876595E+04  0.16762876595E+04  0.00000000000E+00 0. -1.
         -2   -1    0    0    0  501 -0.00000000000E+00 -0.00000000000E+00 -0.27073429705E+02  0.27073429705E+02  0.00000000000E+00 0.  1.
          6    1    1    2  502    0  0.12517861728E+03 -0.63221813873E+00  0.86997395054E+03  0.89560524816E+03  0.17200000000E+03 0. -1.
         -6    1    1    2    0  501 -0.12517861728E+03  0.63221813873E+00  0.77924027927E+03  0.80775584106E+03  0.17200000000E+03 0.  1.
</event>
<event>
 4    1  0.3211568E-002  0.2418919E+03  0.7818608E-02  0.1118539E+00
         -3   -1    0    0    0  501 -0.00000000000E+00  0.00000000000E+00  0.34241774797E+03  0.34241774797E+03  0.00000000000E+00 0.  1.
          3   -1    0    0  502    0  0.00000000000E+00 -0.00000000000E+00 -0.17100687031E+03  0.17100687031E+03  0.00000000000E+00 0. -1.
          6    1    1    2  502    0  0.11332807984E+03 -0.12682442569E+03  0.78660534502E+02  0.25436031200E+03  0.17200000000E+03 0. -1.
         -6    1    1    2    0  501 -0.11332807984E+03  0.12682442569E+03  0.92750343157E+02  0.25906430628E+03  0.17200000000E+03 0. -1.
</event>
<event>
 4    1  0.3211568E-002  0.3337357E+03  0.7818608E-02  0.1069496E+00
          2   -1    0    0  502    0  0.00000000000E+00  0.00000000000E+00  0.30478811815E+04  0.30478811815E+04  0.00000000000E+00 0. -1.
         -2   -1    0    0    0  501 -0.00000000000E+00 -0.00000000000E+00 -0.84002558247E+02  0.84002558247E+02  0.00000000000E+00 0.  1.
          6    1    1    2  502    0 -0.24805153663E+03 -0.14235862941E+03  0.26589759772E+04  0.26798382025E+04  0.17200000000E+03 0. -1.
         -6    1    1    2    0  501  0.24805153663E+03  0.14235862941E+03  0.30490264609E+03  0.45204553729E+03  0.17200000000E+03 0. -1.
</event>
<event>
 4    1  0.3211568E-002  0.2730676E+03  0.7818608E-02  0.1099537E+00
          2   -1    0    0  502    0  0.00000000000E+00  0.00000000000E+00  0.35576540722E+03  0.35576540722E+03  0.00000000000E+00 0. -1.
         -2   -1    0    0    0  501 -0.00000000000E+00 -0.00000000000E+00 -0.22331839983E+03  0.22331839983E+03  0.00000000000E+00 0.  1.
          6    1    1    2  502    0 -0.12670071321E+02 -0.21171060113E+03 -0.55580728739E+01  0.27312415036E+03  0.17200000000E+03 0. -1.
         -6    1    1    2    0  501  0.12670071321E+02  0.21171060113E+03  0.13800508026E+03  0.30595965668E+03  0.17200000000E+03 0.  1.
</event>
<event>
 4    1  0.3211568E-002  0.2089279E+03  0.7818608E-02  0.1142418E+00
          3   -1    0    0  502    0  0.00000000000E+00  0.00000000000E+00  0.11020092424E+03  0.11020092424E+03  0.00000000000E+00 0. -1.
         -3   -1    0    0    0  501 -0.00000000000E+00 -0.00000000000E+00 -0.43781269662E+03  0.43781269662E+03  0.00000000000E+00 0.  1.
          6    1    1    2  502    0 -0.11756480305E+03  0.15664898211E+02 -0.79231703325E+02  0.22344693948E+03  0.17200000000E+03 0.  1.
         -6    1    1    2    0  501  0.11756480305E+03 -0.15664898211E+02 -0.24838006906E+03  0.32456668137E+03  0.17200000000E+03 0.  1.
</event>
<event>
 4    1  0.3211568E-002  0.2108494E+03  0.7818608E-02  0.1140895E+00
         -2   -1    0    0    0  501 -0.00000000000E+00  0.00000000000E+00  0.23727565422E+02  0.23727565422E+02  0.00000000000E+00 0.  1.
          2   -1    0    0  502    0  0.00000000000E+00 -0.00000000000E+00 -0.18745699075E+04  0.18745699075E+04  0.00000000000E+00 0. -1.
          6    1    1    2  502    0 -0.11436573913E+02  0.12141945294E+03 -0.94628959518E+03  0.96949547535E+03  0.17200000000E+03 0.  1.
         -6    1    1    2    0  501  0.11436573913E+02 -0.12141945294E+03 -0.90455274684E+03  0.92880199752E+03  0.17200000000E+03 0.  1.
</event>
<event>
 4    1  0.3211568E-002  0.2568769E+03  0.7818608E-02  0.1109034E+00
         -1   -1    0    0    0  501 -0.00000000000E+00  0.00000000000E+00  0.25844491206E+03  0.25844491206E+03  0.00000000000E+00 0.  1.
          1   -1    0    0  502    0  0.00000000000E+00 -0.00000000000E+00 -0.12929366529E+04  0.12929366529E+04  0.00000000000E+00 0. -1.
          6    1    1    2  502    0 -0.10902127830E+03  0.15657615864E+03 -0.12121402767E+04  0.12390600401E+04  0.17200000000E+03 0. -1.
         -6    1    1    2    0  501  0.10902127830E+03 -0.15657615864E+03  0.17764853588E+03  0.31232152484E+03  0.17200000000E+03 0.  1.
</event>
<event>
 4    1  0.3211568E-002  0.2508274E+03  0.7818608E-02  0.1112783E+00
         -2   -1    0    0    0  501 -0.00000000000E+00  0.00000000000E+00  0.13012265938E+03  0.13012265938E+03  0.00000000000E+00 0.  1.
          2   -1    0    0  502    0  0.00000000000E+00 -0.00000000000E+00 -0.61343458217E+03  0.61343458217E+03  0.00000000000E+00 0. -1.
          6    1    1    2  502    0  0.42228569728E+02 -0.17761511660E+03 -0.41276056166E+03  0.48299654554E+03  0.17200000000E+03 0. -1.
         -6    1    1    2    0  501 -0.42228569728E+02  0.17761511660E+03 -0.70551361128E+02  0.26056069601E+03  0.17200000000E+03 0.  1.
</event>
<event>
 4    1  0.3211568E-002  0.2146502E+03  0.7818608E-02  0.1137936E+00
          2   -1    0    0  502    0  0.00000000000E+00  0.00000000000E+00  0.70201009204E+02  0.70201009204E+02  0.00000000000E+00 0. -1.
         -2   -1    0    0    0  501 -0.00000000000E+00 -0.00000000000E+00 -0.11732196279E+04  0.11732196279E+04  0.00000000000E+00 0.  1.
          6    1    1    2  502    0  0.12776371004E+03  0.12927647555E+02 -0.13884267970E+03  0.25564033207E+03  0.17200000000E+03 0. -1.
         -6    1    1    2    0  501 -0.12776371004E+03 -0.12927647555E+02 -0.96417593898E+03  0.98778030502E+03  0.17200000000E+03 0.  1.
</event>
<event>
 4    1  0.3211568E-002  0.2645578E+03  0.7818608E-02  0.1104435E+00
          2   -1    0    0  502    0  0.00000000000E+00  0.00000000000E+00  0.13526262485E+04  0.13526262485E+04  0.00000000000E+00 0. -1.
         -2   -1    0    0    0  501 -0.00000000000E+00 -0.00000000000E+00 -0.54034737051E+02  0.54034737051E+02  0.00000000000E+00 0.  1.
          6    1    1    2  502    0  0.77054564588E+02 -0.18565944491E+03  0.79409706930E+03  0.83700716298E+03  0.17200000000E+03 0. -1.
         -6    1    1    2    0  501 -0.77054564588E+02  0.18565944491E+03  0.50449444212E+03  0.56965382254E+03  0.17200000000E+03 0.  1.
</event>
<event>
 4    1  0.3211568E-002  0.3213660E+03  0.7818608E-02  0.1075022E+00
          1   -1    0    0  502    0  0.00000000000E+00  0.00000000000E+00  0.47257136242E+03  0.47257136242E+03  0.00000000000E+00 0. -1.
         -1   -1    0    0    0  501 -0.00000000000E+00 -0.00000000000E+00 -0.29203420877E+03  0.29203420877E+03  0.00000000000E+00 0.  1.
          6    1    1    2  502    0  0.19810059696E+03 -0.18560240840E+03  0.28205371010E+03  0.42758671156E+03  0.17200000000E+03 0. -1.
         -6    1    1    2    0  501 -0.19810059696E+03  0.18560240840E+03 -0.10151655644E+03  0.33701885964E+03  0.17200000000E+03 0.  1.
</event>
<event>
 4    1  0.3211568E-002  0.1914892E+03  0.7818608E-02  0.1157125E+00
          2   -1    0    0  502    0  0.00000000000E+00  0.00000000000E+00  0.60211238360E+03  0.60211238360E+03  0.00000000000E+00 0. -1.
         -2   -1    0    0    0  501 -0.00000000000E+00 -0.00000000000E+00 -0.63186212057E+02  0.63186212057E+02  0.00000000000E+00 0.  1.
          6    1    1    2  502    0  0.78519686163E+02  0.30311452714E+02  0.20617593523E+03  0.28138344221E+03  0.17200000000E+03 0.  1.
         -6    1    1    2    0  501 -0.78519686163E+02 -0.30311452714E+02  0.33275023631E+03  0.38391515345E+03  0.17200000000E+03 0. -1.
</event>
<event>
 4    1  0.3211568E-002  0.4009355E+03  0.7818608E-02  0.1043456E+00
         -2   -1    0    0    0  501 -0.00000000000E+00  0.00000000000E+00  0.14478255759E+03  0.14478255759E+03  0.00000000000E+00 0.  1.
          2   -1    0    0  502    0  0.00000000000E+00 -0.00000000000E+00 -0.16369325176E+04  0.16369325176E+04  0.00000000000E+00 0. -1.
          6    1    1    2  502    0  0.30125804401E+03 -0.20101961227E+03 -0.24076878330E+03  0.46767392551E+03  0.17200000000E+03 0.  1.
         -6    1    1    2    0  501 -0.30125804401E+03  0.20101961227E+03 -0.12513811767E+04  0.13140411496E+04  0.17200000000E+03 0. -1.
</event>
<event>
 4    1  0.3211568E-002  0.5189314E+03  0.7818608E-02  0.1008952E+00
          2   -1    0    0  502    0  0.00000000000E+00  0.00000000000E+00  0.81461560501E+03  0.81461560501E+03  0.00000000000E+00 0. -1.
         -2   -1    0    0    0  501 -0.00000000000E+00 -0.00000000000E+00 -0.55014234491E+03  0.55014234491E+03  0.00000000000E+00 0.  1.
          6    1    1    2  502    0 -0.24696694054E+03 -0.42274479210E+03  0.56333270526E+03  0.76592007793E+03  0.17200000000E+03 0. -1.
         -6    1    1    2    0  501  0.24696694054E+03  0.42274479210E+03 -0.29885944516E+03  0.59883787199E+03  0.17200000000E+03 0.  1.
</event>
<event>
 4    1  0.3211568E-002  0.2417525E+03  0.7818608E-02  0.1118631E+00
          2   -1    0    0  502    0  0.00000000000E+00  0.00000000000E+00  0.78564365719E+03  0.78564365719E+03  0.00000000000E+00 0. -1.
         -2   -1    0    0    0  501 -0.00000000000E+00 -0.00000000000E+00 -0.77876203712E+02  0.77876203712E+02  0.00000000000E+00 0.  1.
          6    1    1    2  502    0 -0.16593298506E+03  0.36421290336E+02  0.44523145592E+03  0.50663134059E+03  0.17200000000E+03 0. -1.
         -6    1    1    2    0  501  0.16593298506E+03 -0.36421290336E+02  0.26253599756E+03  0.35688852032E+03  0.17200000000E+03 0.  1.
</event>
<event>
 4    1  0.3211568E-002  0.1720353E+03  0.7818608E-02  0.1175742E+00
         -2   -1    0    0    0  501 -0.00000000000E+00  0.00000000000E+00  0.21852973916E+02  0.21852973916E+02  0.00000000000E+00 0.  1.
          2   -1    0    0  502    0  0.00000000000E+00 -0.00000000000E+00 -0.14296457327E+04  0.14296457327E+04  0.00000000000E+00 0. -1.
          6    1    1    2  502    0 -0.33796140080E+01 -0.84240749705E+00 -0.87047381847E+03  0.88731099400E+03  0.17200000000E+03 0. -1.
         -6    1    1    2    0  501  0.33796140080E+01  0.84240749705E+00 -0.53731894032E+03  0.56418771262E+03  0.17200000000E+03 0.  1.
</event>
<event>
 4    1  0.3211568E-002  0.2221911E+03  0.7818608E-02  0.1132260E+00
         -2   -1    0    0    0  501 -0.00000000000E+00  0.00000000000E+00  0.36722398308E+02  0.36722398308E+02  0.00000000000E+00 0.  1.
          2   -1    0    0  502    0  0.00000000000E+00 -0.00000000000E+00 -0.13934908765E+04  0.13934908765E+04  0.00000000000E+00 0. -1.
          6    1    1    2  502    0 -0.31474741461E+02 -0.13709200145E+03 -0.54413699636E+03  0.58775330456E+03  0.17200000000E+03 0. -1.
         -6    1    1    2    0  501  0.31474741461E+02  0.13709200145E+03 -0.81263148183E+03  0.84245997025E+03  0.17200000000E+03 0.  1.
</event>
<event>
 4    1  0.3211568E-002  0.1769413E+03  0.7818608E-02  0.1170796E+00
         -2   -1    0    0    0  501 -0.00000000000E+00  0.00000000000E+00  0.38673714643E+02  0.38673714643E+02  0.00000000000E+00 0.  1.
          2   -1    0    0  502    0  0.00000000000E+00 -0.00000000000E+00 -0.22954556114E+04  0.22954556114E+04  0.00000000000E+00 0. -1.
          6    1    1    2  502    0  0.27655225749E+02 -0.30974658043E+02 -0.20673709138E+04  0.20749290918E+04  0.17200000000E+03 0. -1.
         -6    1    1    2    0  501 -0.27655225749E+02  0.30974658043E+02 -0.18941098301E+03  0.25920023425E+03  0.17200000000E+03 0.  1.
</event>
<event>
 4    1  0.3211568E-002  0.2749067E+03  0.7818608E-02  0.1098504E+00
          2   -1    0    0  502    0  0.00000000000E+00  0.00000000000E+00  0.15856405969E+04  0.15856405969E+04  0.00000000000E+00 0. -1.
         -2   -1    0    0    0  501 -0.00000000000E+00 -0.00000000000E+00 -0.51542461765E+02  0.51542461765E+02  0.00000000000E+00 0.  1.
          6    1    1    2  502    0  0.21000409576E+03 -0.43451020398E+02  0.99167756970E+03  0.10290763401E+04  0.17200000000E+03 0. -1.
         -6    1    1    2    0  501 -0.21000409576E+03  0.43451020398E+02  0.54242056539E+03  0.60810671857E+03  0.17200000000E+03 0.  1.
</event>
<event>
 4    1  0.3211568E-002  0.2515937E+03  0.7818608E-02  0.1112302E+00
          2   -1    0    0  502    0  0.00000000000E+00  0.00000000000E+00  0.32964797579E+03  0.32964797579E+03  0.00000000000E+00 0. -1.
         -2   -1    0    0    0  501 -0.00000000000E+00 -0.00000000000E+00 -0.21991037153E+03  0.21991037153E+03  0.00000000000E+00 0.  1.
          6    1    1    2  502    0 -0.49377574312E+01 -0.18355113293E+03  0.15272284305E+03  0.29431898790E+03  0.17200000000E+03 0. -1.
         -6    1    1    2    0  501  0.49377574312E+01  0.18355113293E+03 -0.42985238785E+02  0.25523935943E+03  0.17200000000E+03 0.  1.
</event>
<event>
 4    1  0.3211568E-002  0.7863738E+03  0.7818608E-02  0.9579953E-01
          1   -1    0    0  502    0  0.00000000000E+00  0.00000000000E+00  0.90462385954E+03  0.90462385954E+03  0.00000000000E+00 0. -1.
         -1   -1    0    0    0  501 -0.00000000000E+00 -0.00000000000E+00 -0.73332601117E+03  0.73332601117E+03  0.00000000000E+00 0.  1.
          6    1    1    2  502    0  0.26257861226E+02 -0.76688348910E+03  0.29895167321E+03  0.84128227370E+03  0.17200000000E+03 0. -1.
         -6    1    1    2    0  501 -0.26257861226E+02  0.76688348910E+03 -0.12765382484E+03  0.79666759701E+03  0.17200000000E+03 0.  1.
</event>
<event>
 4    1  0.3211568E-002  0.1969586E+03  0.7818608E-02  0.1152331E+00
         -2   -1    0    0    0  501 -0.00000000000E+00  0.00000000000E+00  0.36303001188E+02  0.36303001188E+02  0.00000000000E+00 0.  1.
          2   -1    0    0  502    0  0.00000000000E+00 -0.00000000000E+00 -0.11849590364E+04  0.11849590364E+04  0.00000000000E+00 0. -1.
          6    1    1    2  502    0 -0.12067737408E+02  0.95200074591E+02 -0.76569339439E+03  0.79061941457E+03  0.17200000000E+03 0. -1.
         -6    1    1    2    0  501  0.12067737408E+02 -0.95200074591E+02 -0.38296264079E+03  0.43064262299E+03  0.17200000000E+03 0.  1.
</event>
<event>
 4    1  0.3211568E-002  0.2398200E+03  0.7818608E-02  0.1119913E+00
          1   -1    0    0  502    0  0.00000000000E+00  0.00000000000E+00  0.92232614380E+03  0.92232614380E+03  0.00000000000E+00 0. -1.
         -1   -1    0    0    0  501 -0.00000000000E+00 -0.00000000000E+00 -0.62490866917E+02  0.62490866917E+02  0.00000000000E+00 0.  1.
          6    1    1    2  502    0 -0.16087580752E+03  0.45261699375E+02  0.40714149434E+03  0.47252284949E+03  0.17200000000E+03 0.  1.
         -6    1    1    2    0  501  0.16087580752E+03 -0.45261699375E+02  0.45269378255E+03  0.51229416123E+03  0.17200000000E+03 0.  1.
</event>
<event>
 4    1  0.3211568E-002  0.4414188E+03  0.7818608E-02  0.1030312E+00
         -2   -1    0    0    0  501 -0.00000000000E+00  0.00000000000E+00  0.31453142702E+03  0.31453142702E+03  0.00000000000E+00 0.  1.
          2   -1    0    0  502    0  0.00000000000E+00 -0.00000000000E+00 -0.11938355045E+04  0.11938355045E+04  0.00000000000E+00 0. -1.
          6    1    1    2  502    0  0.10766125509E+03  0.39201480425E+03 -0.96275791307E+03  0.10591285813E+04  0.17200000000E+03 0. -1.
         -6    1    1    2    0  501 -0.10766125509E+03 -0.39201480425E+03  0.83453835609E+02  0.44923835018E+03  0.17200000000E+03 0.  1.
</event>
<event>
 4    1  0.3211568E-002  0.5755531E+03  0.7818608E-02  0.9957465E-01
          2   -1    0    0  502    0  0.00000000000E+00  0.00000000000E+00  0.18293975968E+04  0.18293975968E+04  0.00000000000E+00 0. -1.
         -2   -1    0    0    0  501 -0.00000000000E+00 -0.00000000000E+00 -0.19351472613E+03  0.19351472613E+03  0.00000000000E+00 0.  1.
          6    1    1    2  502    0  0.27848425277E+03  0.47341722153E+03  0.56151359900E+03  0.80408884244E+03  0.17200000000E+03 0. -1.
         -6    1    1    2    0  501 -0.27848425277E+03 -0.47341722153E+03  0.10743692717E+04  0.12188234805E+04  0.17200000000E+03 0.  1.
</event>
<event>
 4    1  0.3211568E-002  0.2258862E+03  0.7818608E-02  0.1129569E+00
          2   -1    0    0  502    0  0.00000000000E+00  0.00000000000E+00  0.31882450147E+03  0.31882450147E+03  0.00000000000E+00 0. -1.
         -2   -1    0    0    0  501 -0.00000000000E+00 -0.00000000000E+00 -0.16079062638E+03  0.16079062638E+03  0.00000000000E+00 0.  1.
          6    1    1    2  502    0  0.10362621164E+03 -0.10345143351E+03  0.62629193944E+02  0.23440777881E+03  0.17200000000E+03 0. -1.
         -6    1    1    2    0  501 -0.10362621164E+03  0.10345143351E+03  0.95404681149E+02  0.24520734903E+03  0.17200000000E+03 0. -1.
</event>
<event>
 4    1  0.3211568E-002  0.2704267E+03  0.7818608E-02  0.1101036E+00
         -2   -1    0    0    0  501 -0.00000000000E+00  0.00000000000E+00  0.24682696701E+03  0.24682696701E+03  0.00000000000E+00 0.  1.
          2   -1    0    0  502    0  0.00000000000E+00 -0.00000000000E+00 -0.31834158969E+03  0.31834158969E+03  0.00000000000E+00 0. -1.
          6    1    1    2  502    0  0.20442388216E+03  0.41922284667E+02 -0.11014335861E+03  0.29199685100E+03  0.17200000000E+03 0. -1.
         -6    1    1    2    0  501 -0.20442388216E+03 -0.41922284667E+02  0.38628735937E+02  0.27317170569E+03  0.17200000000E+03 0.  1.
</event>
<event>
 4    1  0.3211568E-002  0.2631119E+03  0.7818608E-02  0.1105288E+00
          2   -1    0    0  502    0  0.00000000000E+00  0.00000000000E+00  0.13983417901E+04  0.13983417901E+04  0.00000000000E+00 0. -1.
         -2   -1    0    0    0  501 -0.00000000000E+00 -0.00000000000E+00 -0.50784262260E+02  0.50784262260E+02  0.00000000000E+00 0.  1.
          6    1    1    2  502    0  0.10772738362E+03 -0.16744757827E+03  0.78868154005E+03  0.83141232386E+03  0.17200000000E+03 0. -1.
         -6    1    1    2    0  501 -0.10772738362E+03  0.16744757827E+03  0.55887598776E+03  0.61771372848E+03  0.17200000000E+03 0.  1.
</event>
<event>
 4    1  0.3211568E-002  0.2253090E+03  0.7818608E-02  0.1129986E+00
          1   -1    0    0  502    0  0.00000000000E+00  0.00000000000E+00  0.27824438584E+03  0.27824438584E+03  0.00000000000E+00 0. -1.
         -1   -1    0    0    0  501 -0.00000000000E+00 -0.00000000000E+00 -0.24933132933E+03  0.24933132933E+03  0.00000000000E+00 0.  1.
          6    1    1    2  502    0  0.14552729605E+03  0.14045963402E+01  0.15108354161E+03  0.27127551185E+03  0.17200000000E+03 0. -1.
         -6    1    1    2    0  501 -0.14552729605E+03 -0.14045963402E+01 -0.12217048510E+03  0.25630020331E+03  0.17200000000E+03 0.  1.
</event>
<event>
 4    1  0.3211568E-002  0.1812087E+03  0.7818608E-02  0.1166638E+00
         -2   -1    0    0    0  501 -0.00000000000E+00  0.00000000000E+00  0.34367765998E+03  0.34367765998E+03  0.00000000000E+00 0.  1.
          2   -1    0    0  502    0  0.00000000000E+00 -0.00000000000E+00 -0.96582216116E+02  0.96582216116E+02  0.00000000000E+00 0. -1.
          6    1    1    2  502    0  0.43364512191E+02 -0.37041962392E+02  0.10073261610E+03  0.20732498123E+03  0.17200000000E+03 0.  1.
         -6    1    1    2    0  501 -0.43364512191E+02  0.37041962392E+02  0.14636282776E+03  0.23293489486E+03  0.17200000000E+03 0.  1.
</event>
<event>
 4    1  0.3211568E-002  0.3433586E+03  0.7818608E-02  0.1065374E+00
          2   -1    0    0  502    0  0.00000000000E+00  0.00000000000E+00  0.64604465233E+03  0.64604465233E+03  0.00000000000E+00 0. -1.
         -2   -1    0    0    0  501 -0.00000000000E+00 -0.00000000000E+00 -0.18332720565E+03  0.18332720565E+03  0.00000000000E+00 0.  1.
          6    1    1    2  502    0 -0.24566422339E+03  0.16721307470E+03  0.25942272241E+03  0.43034320246E+03  0.17200000000E+03 0. -1.
         -6    1    1    2    0  501  0.24566422339E+03 -0.16721307470E+03  0.20329472427E+03  0.39902865551E+03  0.17200000000E+03 0.  1.
</event>
<event>
 4    1  0.3211568E-002  0.1825460E+03  0.7818608E-02  0.1165362E+00
         -1   -1    0    0    0  501 -0.00000000000E+00  0.00000000000E+00  0.10308100724E+03  0.10308100724E+03  0.00000000000E+00 0.  1.
          1   -1    0    0  502    0  0.00000000000E+00 -0.00000000000E+00 -0.52587496091E+03  0.52587496091E+03  0.00000000000E+00 0. -1.
          6    1    1    2  502    0 -0.57689862586E+02 -0.20270817653E+02 -0.40659424514E+03  0.44569261434E+03  0.17200000000E+03 0. -1.
         -6    1    1    2    0  501  0.57689862586E+02  0.20270817653E+02 -0.16199708519E+02  0.18326335381E+03  0.17200000000E+03 0.  1.
</event>
<event>
 4    1  0.3211568E-002  0.2200796E+03  0.7818608E-02  0.1133824E+00
          2   -1    0    0  502    0  0.00000000000E+00  0.00000000000E+00  0.85318786119E+03  0.85318786119E+03  0.00000000000E+00 0. -1.
         -2   -1    0    0    0  501 -0.00000000000E+00 -0.00000000000E+00 -0.11509728597E+03  0.11509728597E+03  0.00000000000E+00 0.  1.
          6    1    1    2  502    0  0.13240881614E+03 -0.36317266290E+02  0.71369547728E+03  0.74685759868E+03  0.17200000000E+03 0. -1.
         -6    1    1    2    0  501 -0.13240881614E+03  0.36317266290E+02  0.24395097942E+02  0.22142754848E+03  0.17200000000E+03 0.  1.
</event>
<event>
 4    1  0.3211568E-002  0.2480766E+03  0.7818608E-02  0.1114526E+00
          2   -1    0    0  502    0  0.00000000000E+00  0.00000000000E+00  0.70204437105E+03  0.70204437105E+03  0.00000000000E+00 0. -1.
         -2   -1    0    0    0  501 -0.00000000000E+00 -0.00000000000E+00 -0.87764145450E+02  0.87764145450E+02  0.00000000000E+00 0.  1.
          6    1    1    2  502    0 -0.17312557224E+03  0.44559392093E+02  0.29361055804E+03  0.38438153309E+03  0.17200000000E+03 0. -1.
         -6    1    1    2    0  501  0.17312557224E+03 -0.44559392093E+02  0.32066966756E+03  0.40542698341E+03  0.17200000000E+03 0.  1.
</event>
<event>
 4    1  0.3211568E-002  0.2630593E+03  0.7818608E-02  0.1105319E+00
         -1   -1    0    0    0  501 -0.00000000000E+00  0.00000000000E+00  0.10136591160E+03  0.10136591160E+03  0.00000000000E+00 0.  1.
          1   -1    0    0  502    0  0.00000000000E+00 -0.00000000000E+00 -0.68775284653E+03  0.68775284653E+03  0.00000000000E+00 0. -1.
          6    1    1    2  502    0 -0.19546017801E+03  0.37569970302E+02 -0.25929755864E+03  0.36937163910E+03  0.17200000000E+03 0.  1.
         -6    1    1    2    0  501  0.19546017801E+03 -0.37569970302E+02 -0.32708937629E+03  0.41974711904E+03  0.17200000000E+03 0.  1.
</event>
<event>
 4    1  0.3211568E-002  0.2461698E+03  0.7818608E-02  0.1115750E+00
          2   -1    0    0  502    0  0.00000000000E+00  0.00000000000E+00  0.16367287415E+03  0.16367287415E+03  0.00000000000E+00 0. -1.
         -2   -1    0    0    0  501 -0.00000000000E+00 -0.00000000000E+00 -0.38768615901E+03  0.38768615901E+03  0.00000000000E+00 0.  1.
          6    1    1    2  502    0  0.96439253570E+02 -0.14736022638E+03 -0.53539242399E+02  0.25192462449E+03  0.17200000000E+03 0. -1.
         -6    1    1    2    0  501 -0.96439253570E+02  0.14736022638E+03 -0.17047404246E+03  0.29943440868E+03  0.17200000000E+03 0. -1.
</event>
<event>
 4    1  0.3211568E-002  0.5042042E+03  0.7818608E-02  0.1012687E+00
          2   -1    0    0  502    0  0.00000000000E+00  0.00000000000E+00  0.18469573379E+04  0.18469573379E+04  0.00000000000E+00 0. -1.
         -2   -1    0    0    0  501 -0.00000000000E+00 -0.00000000000E+00 -0.13772016804E+03  0.13772016804E+03  0.00000000000E+00 0.  1.
          6    1    1    2  502    0 -0.43506902773E+03  0.18802347916E+03  0.83122277878E+03  0.97218989687E+03  0.17200000000E+03 0. -1.
         -6    1    1    2    0  501  0.43506902773E+03 -0.18802347916E+03  0.87801439109E+03  0.10124876091E+04  0.17200000000E+03 0.  1.
</event>
<event>
 4    1  0.3211568E-002  0.2027571E+03  0.7818608E-02  0.1147433E+00
          1   -1    0    0  502    0  0.00000000000E+00  0.00000000000E+00  0.12866598963E+03  0.12866598963E+03  0.00000000000E+00 0. -1.
         -1   -1    0    0    0  501 -0.00000000000E+00 -0.00000000000E+00 -0.56762688349E+03  0.56762688349E+03  0.00000000000E+00 0.  1.
          6    1    1    2  502    0 -0.20298644925E+02  0.10542495557E+03 -0.44965431188E+03  0.49325394721E+03  0.17200000000E+03 0.  1.
         -6    1    1    2    0  501  0.20298644925E+02 -0.10542495557E+03  0.10693418023E+02  0.20303892590E+03  0.17200000000E+03 0. -1.
</event>
<event>
 4    1  0.3211568E-002  0.6936890E+03  0.7818608E-02  0.9728086E-01
         -2   -1    0    0    0  501 -0.00000000000E+00  0.00000000000E+00  0.94291647916E+03  0.94291647916E+03  0.00000000000E+00 0.  1.
          2   -1    0    0  502    0  0.00000000000E+00 -0.00000000000E+00 -0.67626923665E+03  0.67626923665E+03  0.00000000000E+00 0. -1.
          6    1    1    2  502    0  0.39537008216E+03 -0.54341785251E+03 -0.26770300759E+03  0.74355185735E+03  0.17200000000E+03 0. -1.
         -6    1    1    2    0  501 -0.39537008216E+03  0.54341785251E+03  0.53435025010E+03  0.87563385846E+03  0.17200000000E+03 0.  1.
</event>
<event>
 4    1  0.3211568E-002  0.4349384E+03  0.7818608E-02  0.1032311E+00
          2   -1    0    0  502    0  0.00000000000E+00  0.00000000000E+00  0.94180756244E+03  0.94180756244E+03  0.00000000000E+00 0. -1.
         -2   -1    0    0    0  501 -0.00000000000E+00 -0.00000000000E+00 -0.26616193477E+03  0.26616193477E+03  0.00000000000E+00 0.  1.
          6    1    1    2  502    0  0.23873472091E+03 -0.32030164364E+03  0.63699156314E+03  0.77131683594E+03  0.17200000000E+03 0. -1.
         -6    1    1    2    0  501 -0.23873472091E+03  0.32030164364E+03  0.38654064525E+02  0.43665266127E+03  0.17200000000E+03 0.  1.
</event>
<event>
 4    1  0.3211568E-002  0.2151474E+03  0.7818608E-02  0.1137553E+00
         -1   -1    0    0    0  501 -0.00000000000E+00  0.00000000000E+00  0.98300255222E+02  0.98300255222E+02  0.00000000000E+00 0.  1.
          1   -1    0    0  502    0  0.00000000000E+00 -0.00000000000E+00 -0.47865158323E+03  0.47865158323E+03  0.00000000000E+00 0. -1.
          6    1    1    2  502    0  0.40552278648E+02 -0.12271883116E+03 -0.15343607719E+03  0.26425561226E+03  0.17200000000E+03 0. -1.
         -6    1    1    2    0  501 -0.40552278648E+02  0.12271883116E+03 -0.22691525082E+03  0.31269622620E+03  0.17200000000E+03 0.  1.
</event>
<event>
 4    1  0.3211568E-002  0.2032842E+03  0.7818608E-02  0.1146997E+00
          2   -1    0    0  502    0  0.00000000000E+00  0.00000000000E+00  0.19712390899E+03  0.19712390899E+03  0.00000000000E+00 0. -1.
         -2   -1    0    0    0  501 -0.00000000000E+00 -0.00000000000E+00 -0.21355759796E+03  0.21355759796E+03  0.00000000000E+00 0.  1.
          6    1    1    2  502    0 -0.10152191439E+03  0.37864948977E+02 -0.36039399422E+02  0.20645409120E+03  0.17200000000E+03 0.  1.
         -6    1    1    2    0  501  0.10152191439E+03 -0.37864948977E+02  0.19605710450E+02  0.20422741575E+03  0.17200000000E+03 0. -1.
</event>
<event>
 4    1  0.3211568E-002  0.2021184E+03  0.7818608E-02  0.1147964E+00
         -2   -1    0    0    0  501 -0.00000000000E+00  0.00000000000E+00  0.46065566642E+03  0.46065566642E+03  0.00000000000E+00 0.  1.
          2   -1    0    0  502    0  0.00000000000E+00 -0.00000000000E+00 -0.98306706294E+02  0.98306706294E+02  0.00000000000E+00 0. -1.
          6    1    1    2  502    0 -0.37679604929E+02  0.99237599390E+02  0.26862357885E+03  0.33617031528E+03  0.17200000000E+03 0.  1.
         -6    1    1    2    0  501  0.37679604929E+02 -0.99237599390E+02  0.93725381273E+02  0.22279205743E+03  0.17200000000E+03 0. -1.
</event>
<event>
 4    1  0.3211568E-002  0.1797516E+03  0.7818608E-02  0.1168044E+00
          2   -1    0    0  502    0  0.00000000000E+00  0.00000000000E+00  0.28188399979E+02  0.28188399979E+02  0.00000000000E+00 0. -1.
         -2   -1    0    0    0  501 -0.00000000000E+00 -0.00000000000E+00 -0.12066516783E+04  0.12066516783E+04  0.00000000000E+00 0.  1.
          6    1    1    2  502    0  0.51111568236E+02 -0.10688547490E+02 -0.72738280812E+03  0.74926389677E+03  0.17200000000E+03 0.  1.
         -6    1    1    2    0  501 -0.51111568236E+02  0.10688547490E+02 -0.45108047023E+03  0.48557618154E+03  0.17200000000E+03 0.  1.
</event>
<event>
 4    1  0.3211568E-002  0.2501807E+03  0.7818608E-02  0.1113191E+00
          1   -1    0    0  502    0  0.00000000000E+00  0.00000000000E+00  0.85893404214E+03  0.85893404214E+03  0.00000000000E+00 0. -1.
         -1   -1    0    0    0  501 -0.00000000000E+00 -0.00000000000E+00 -0.26085676093E+03  0.26085676093E+03  0.00000000000E+00 0.  1.
          6    1    1    2  502    0  0.33215911546E+02 -0.17861432028E+03  0.77434069134E+03  0.81375295911E+03  0.17200000000E+03 0. -1.
         -6    1    1    2    0  501 -0.33215911546E+02  0.17861432028E+03 -0.17626341013E+03  0.30603784397E+03  0.17200000000E+03 0.  1.
</event>
<event>
 4    1  0.3211568E-002  0.2080821E+03  0.7818608E-02  0.1143094E+00
         -1   -1    0    0    0  501 -0.00000000000E+00  0.00000000000E+00  0.36452336473E+02  0.36452336473E+02  0.00000000000E+00 0.  1.
          1   -1    0    0  502    0  0.00000000000E+00 -0.00000000000E+00 -0.12264748571E+04  0.12264748571E+04  0.00000000000E+00 0. -1.
          6    1    1    2  502    0 -0.11327414772E+03 -0.29717129739E+02 -0.70714204703E+03  0.73712143845E+03  0.17200000000E+03 0.  1.
         -6    1    1    2    0  501  0.11327414772E+03  0.29717129739E+02 -0.48288047359E+03  0.52580575512E+03  0.17200000000E+03 0.  1.
</event>
<event>
 4    1  0.3211568E-002  0.2151128E+03  0.7818608E-02  0.1137580E+00
          1   -1    0    0  502    0  0.00000000000E+00  0.00000000000E+00  0.15988811641E+04  0.15988811641E+04  0.00000000000E+00 0. -1.
         -1   -1    0    0    0  501 -0.00000000000E+00 -0.00000000000E+00 -0.34969857123E+02  0.34969857123E+02  0.00000000000E+00 0.  1.
          6    1    1    2  502    0 -0.10738660185E+03 -0.71816537367E+02  0.44276273771E+03  0.49225231254E+03  0.17200000000E+03 0. -1.
         -6    1    1    2    0  501  0.10738660185E+03  0.71816537367E+02  0.11211485692E+04  0.11415987086E+04  0.17200000000E+03 0. -1.
</event>
<event>
 4    1  0.3211568E-002  0.1770710E+03  0.7818608E-02  0.1170668E+00
          1   -1    0    0  502    0  0.00000000000E+00  0.00000000000E+00  0.59861128012E+03  0.59861128012E+03  0.00000000000E+00 0. -1.
         -1   -1    0    0    0  501 -0.00000000000E+00 -0.00000000000E+00 -0.52734985784E+02  0.52734985784E+02  0.00000000000E+00 0.  1.
          6    1    1    2  502    0 -0.22497659583E+01 -0.42012632160E+02  0.29972957770E+03  0.34812633118E+03  0.17200000000E+03 0. -1.
         -6    1    1    2    0  501  0.22497659583E+01  0.42012632160E+02  0.24614671664E+03  0.30321993473E+03  0.17200000000E+03 0.  1.
</event>
<event>
 4    1  0.3211568E-002  0.2135471E+03  0.7818608E-02  0.1138787E+00
          1   -1    0    0  502    0  0.00000000000E+00  0.00000000000E+00  0.92206095767E+03  0.92206095767E+03  0.00000000000E+00 0. -1.
         -1   -1    0    0    0  501 -0.00000000000E+00 -0.00000000000E+00 -0.51734792942E+02  0.51734792942E+02  0.00000000000E+00 0.  1.
          6    1    1    2  502    0  0.20387319521E+02  0.12491084227E+03  0.53732861784E+03  0.57820792528E+03  0.17200000000E+03 0. -1.
         -6    1    1    2    0  501 -0.20387319521E+02 -0.12491084227E+03  0.33299754689E+03  0.39558782532E+03  0.17200000000E+03 0.  1.
</event>
<event>
 4    1  0.3211568E-002  0.2487178E+03  0.7818608E-02  0.1114118E+00
         -4   -1    0    0    0  501 -0.00000000000E+00  0.00000000000E+00  0.40235123426E+03  0.40235123426E+03  0.00000000000E+00 0.  1.
          4   -1    0    0  502    0  0.00000000000E+00 -0.00000000000E+00 -0.18483217714E+03  0.18483217714E+03  0.00000000000E+00 0. -1.
          6    1    1    2  502    0 -0.17778390036E+03  0.25872929032E+02 -0.11640807503E+02  0.24899002407E+03  0.17200000000E+03 0. -1.
         -6    1    1    2    0  501  0.17778390036E+03 -0.25872929032E+02  0.22915986462E+03  0.33819338734E+03  0.17200000000E+03 0.  1.
</event>
<event>
 4    1  0.3211568E-002  0.1835055E+03  0.7818608E-02  0.1164453E+00
          2   -1    0    0  502    0  0.00000000000E+00  0.00000000000E+00  0.10708593544E+04  0.10708593544E+04  0.00000000000E+00 0. -1.
         -2   -1    0    0    0  501 -0.00000000000E+00 -0.00000000000E+00 -0.46563059879E+02  0.46563059879E+02  0.00000000000E+00 0.  1.
          6    1    1    2  502    0  0.62163224785E+02 -0.15032773358E+02  0.83049473007E+03  0.85052674706E+03  0.17200000000E+03 0. -1.
         -6    1    1    2    0  501 -0.62163224785E+02  0.15032773358E+02  0.19380156441E+03  0.26689566718E+03  0.17200000000E+03 0.  1.
</event>
<event>
 4    1  0.3211568E-002  0.2634956E+03  0.7818608E-02  0.1105061E+00
          2   -1    0    0  502    0  0.00000000000E+00  0.00000000000E+00  0.15744051539E+04  0.15744051539E+04  0.00000000000E+00 0. -1.
         -2   -1    0    0    0  501 -0.00000000000E+00 -0.00000000000E+00 -0.54396092377E+02  0.54396092377E+02  0.00000000000E+00 0.  1.
          6    1    1    2  502    0  0.16377790496E+03  0.11411726583E+03  0.11143346520E+04  0.11450640458E+04  0.17200000000E+03 0.  1.
         -6    1    1    2    0  501 -0.16377790496E+03 -0.11411726583E+03  0.40567440958E+03  0.48373720046E+03  0.17200000000E+03 0.  1.
</event>
<event>
 4    1  0.3211568E-002  0.1842021E+03  0.7818608E-02  0.1163797E+00
         -2   -1    0    0    0  501 -0.00000000000E+00  0.00000000000E+00  0.49743078458E+03  0.49743078458E+03  0.00000000000E+00 0.  1.
          2   -1    0    0  502    0  0.00000000000E+00 -0.00000000000E+00 -0.97998346484E+02  0.97998346484E+02  0.00000000000E+00 0. -1.
          6    1    1    2  502    0 -0.61410172839E+02  0.23983392540E+02  0.36385237382E+03  0.40782221909E+03  0.17200000000E+03 0.  1.
         -6    1    1    2    0  501  0.61410172839E+02 -0.23983392540E+02  0.35580064270E+02  0.18760691197E+03  0.17200000000E+03 0. -1.
</event>
<event>
 4    1  0.3211568E-002  0.2043908E+03  0.7818608E-02  0.1146086E+00
         -2   -1    0    0    0  501 -0.00000000000E+00  0.00000000000E+00  0.35204281412E+02  0.35204281412E+02  0.00000000000E+00 0.  1.
          2   -1    0    0  502    0  0.00000000000E+00 -0.00000000000E+00 -0.12728253785E+04  0.12728253785E+04  0.00000000000E+00 0. -1.
          6    1    1    2  502    0  0.43946085788E+02 -0.10129339063E+03 -0.78897257515E+03  0.81501738250E+03  0.17200000000E+03 0. -1.
         -6    1    1    2    0  501 -0.43946085788E+02  0.10129339063E+03 -0.44864852198E+03  0.49301227745E+03  0.17200000000E+03 0.  1.
</event>
<event>
 4    1  0.3211568E-002  0.1746478E+03  0.7818608E-02  0.1173086E+00
          2   -1    0    0  502    0  0.00000000000E+00  0.00000000000E+00  0.91655496171E+02  0.91655496171E+02  0.00000000000E+00 0. -1.
         -2   -1    0    0    0  501 -0.00000000000E+00 -0.00000000000E+00 -0.36478527604E+03  0.36478527604E+03  0.00000000000E+00 0.  1.
          6    1    1    2  502    0  0.29355280057E+02  0.74913269502E+01 -0.20415638512E+03  0.26866648848E+03  0.17200000000E+03 0.  1.
         -6    1    1    2    0  501 -0.29355280057E+02 -0.74913269502E+01 -0.68973394747E+02  0.18777428373E+03  0.17200000000E+03 0. -1.
</event>
<event>
 4    1  0.3211568E-002  0.3136329E+03  0.7818608E-02  0.1078618E+00
         -1   -1    0    0    0  501 -0.00000000000E+00  0.00000000000E+00  0.26252291050E+03  0.26252291050E+03  0.00000000000E+00 0.  1.
          1   -1    0    0  502    0  0.00000000000E+00 -0.00000000000E+00 -0.54365009254E+03  0.54365009254E+03  0.00000000000E+00 0. -1.
          6    1    1    2  502    0 -0.20200985948E+03  0.16725307392E+03 -0.36527563892E+03  0.48144767779E+03  0.17200000000E+03 0. -1.
         -6    1    1    2    0  501  0.20200985948E+03 -0.16725307392E+03  0.84148456878E+02  0.32472532525E+03  0.17200000000E+03 0.  1.
</event>
<event>
 4    1  0.3211568E-002  0.1175029E+04  0.7818608E-02  0.9134999E-01
         -2   -1    0    0    0  501 -0.00000000000E+00  0.00000000000E+00  0.52605505243E+03  0.52605505243E+03  0.00000000000E+00 0.  1.
          2   -1    0    0  502    0  0.00000000000E+00 -0.00000000000E+00 -0.26389105622E+04  0.26389105622E+04  0.00000000000E+00 0. -1.
          6    1    1    2  502    0  0.73163439700E+03 -0.90322720090E+03 -0.11728990833E+04  0.16602362864E+04  0.17200000000E+03 0. -1.
         -6    1    1    2    0  501 -0.73163439700E+03  0.90322720090E+03 -0.93995642650E+03  0.15047293282E+04  0.17200000000E+03 0.  1.
</event>
<event>
 4    1  0.3211568E-002  0.3130674E+03  0.7818608E-02  0.1078885E+00
         -2   -1    0    0    0  501 -0.00000000000E+00  0.00000000000E+00  0.57609339448E+02  0.57609339448E+02  0.00000000000E+00 0.  1.
          2   -1    0    0  502    0  0.00000000000E+00 -0.00000000000E+00 -0.18439023658E+04  0.18439023658E+04  0.00000000000E+00 0. -1.
          6    1    1    2  502    0 -0.16870493249E+03  0.19991458934E+03 -0.11575408184E+04  0.11991296609E+04  0.17200000000E+03 0. -1.
         -6    1    1    2    0  501  0.16870493249E+03 -0.19991458934E+03 -0.62875220793E+03  0.70238204437E+03  0.17200000000E+03 0.  1.
</event>
<event>
 4    1  0.3211568E-002  0.2753126E+03  0.7818608E-02  0.1098277E+00
         -1   -1    0    0    0  501 -0.00000000000E+00  0.00000000000E+00  0.10277764465E+03  0.10277764465E+03  0.00000000000E+00 0.  1.
          1   -1    0    0  502    0  0.00000000000E+00 -0.00000000000E+00 -0.80850304894E+03  0.80850304894E+03  0.00000000000E+00 0. -1.
          6    1    1    2  502    0  0.13167369419E+02  0.21456855062E+03 -0.48790306336E+03  0.56021999408E+03  0.17200000000E+03 0. -1.
         -6    1    1    2    0  501 -0.13167369419E+02 -0.21456855062E+03 -0.21782234093E+03  0.35106069951E+03  0.17200000000E+03 0.  1.
</event>
<event>
 4    1  0.3211568E-002  0.2249842E+03  0.7818608E-02  0.1130221E+00
          4   -1    0    0  502    0  0.00000000000E+00  0.00000000000E+00  0.26872552403E+03  0.26872552403E+03  0.00000000000E+00 0. -1.
         -4   -1    0    0    0  501 -0.00000000000E+00 -0.00000000000E+00 -0.33984858389E+03  0.33984858389E+03  0.00000000000E+00 0.  1.
          6    1    1    2  502    0 -0.47853996590E+01  0.14495174583E+03  0.16759303913E+03  0.28054471201E+03  0.17200000000E+03 0. -1.
         -6    1    1    2    0  501  0.47853996590E+01 -0.14495174583E+03 -0.23871609899E+03  0.32802939592E+03  0.17200000000E+03 0.  1.
</event>
<event>
 4    1  0.3211568E-002  0.2616762E+03  0.7818608E-02  0.1106140E+00
         -2   -1    0    0    0  501 -0.00000000000E+00  0.00000000000E+00  0.18936707936E+03  0.18936707936E+03  0.00000000000E+00 0.  1.
          2   -1    0    0  502    0  0.00000000000E+00 -0.00000000000E+00 -0.39553304640E+03  0.39553304640E+03  0.00000000000E+00 0. -1.
          6    1    1    2  502    0 -0.14792349170E+03  0.13041879849E+03 -0.17419473124E+02  0.26225533444E+03  0.17200000000E+03 0.  1.
         -6    1    1    2    0  501  0.14792349170E+03 -0.13041879849E+03 -0.18874649392E+03  0.32264479132E+03  0.17200000000E+03 0.  1.
</event>
<event>
 4    1  0.3211568E-002  0.2164441E+03  0.7818608E-02  0.1136562E+00
         -2   -1    0    0    0  501 -0.00000000000E+00  0.00000000000E+00  0.70419592785E+03  0.70419592785E+03  0.00000000000E+00 0.  1.
          2   -1    0    0  502    0  0.00000000000E+00 -0.00000000000E+00 -0.71423655458E+02  0.71423655458E+02  0.00000000000E+00 0. -1.
          6    1    1    2  502    0  0.12714915737E+03  0.33123330378E+02  0.41792825015E+03  0.47065070436E+03  0.17200000000E+03 0.  1.
         -6    1    1    2    0  501 -0.12714915737E+03 -0.33123330378E+02  0.21484402223E+03  0.30496887894E+03  0.17200000000E+03 0. -1.
</event>
<event>
 4    1  0.3211568E-002  0.2556322E+03  0.7818608E-02  0.1109796E+00
         -3   -1    0    0    0  501 -0.00000000000E+00  0.00000000000E+00  0.14331209639E+04  0.14331209639E+04  0.00000000000E+00 0.  1.
          3   -1    0    0  502    0  0.00000000000E+00 -0.00000000000E+00 -0.46394253419E+02  0.46394253419E+02  0.00000000000E+00 0. -1.
          6    1    1    2  502    0 -0.98228061497E+02  0.16160157987E+03  0.59646597937E+03  0.64893719821E+03  0.17200000000E+03 0.  1.
         -6    1    1    2    0  501  0.98228061497E+02 -0.16160157987E+03  0.79026073110E+03  0.83057801910E+03  0.17200000000E+03 0. -1.
</event>
<event>
 4    1  0.3211568E-002  0.5267279E+03  0.7818608E-02  0.1007029E+00
          2   -1    0    0  502    0  0.00000000000E+00  0.00000000000E+00  0.17402715059E+03  0.17402715059E+03  0.00000000000E+00 0. -1.
         -2   -1    0    0    0  501 -0.00000000000E+00 -0.00000000000E+00 -0.16356922107E+04  0.16356922107E+04  0.00000000000E+00 0.  1.
          6    1    1    2  502    0  0.44189867413E+03 -0.22931176365E+03 -0.87486678875E+03  0.10211925485E+04  0.17200000000E+03 0. -1.
         -6    1    1    2    0  501 -0.44189867413E+03  0.22931176365E+03 -0.58679827133E+03  0.78852681272E+03  0.17200000000E+03 0.  1.
</event>
<event>
 4    1  0.3211568E-002  0.1803439E+03  0.7818608E-02  0.1167471E+00
         -1   -1    0    0    0  501 -0.00000000000E+00  0.00000000000E+00  0.21560813113E+02  0.21560813113E+02  0.00000000000E+00 0.  1.
          1   -1    0    0  502    0  0.00000000000E+00 -0.00000000000E+00 -0.15461768843E+04  0.15461768843E+04  0.00000000000E+00 0. -1.
          6    1    1    2  502    0 -0.74917052279E+01 -0.53700970304E+02 -0.88471404680E+03  0.90290800443E+03  0.17200000000E+03 0.  1.
         -6    1    1    2    0  501  0.74917052279E+01  0.53700970304E+02 -0.63990202441E+03  0.66482969301E+03  0.17200000000E+03 0.  1.
</event>
<event>
 4    1  0.3211568E-002  0.1825838E+03  0.7818608E-02  0.1165326E+00
          2   -1    0    0  502    0  0.00000000000E+00  0.00000000000E+00  0.10111115713E+03  0.10111115713E+03  0.00000000000E+00 0. -1.
         -2   -1    0    0    0  501 -0.00000000000E+00 -0.00000000000E+00 -0.33015448218E+03  0.33015448218E+03  0.00000000000E+00 0.  1.
          6    1    1    2  502    0 -0.11779852953E+02  0.60117185471E+02 -0.10656418800E+03  0.21140663918E+03  0.17200000000E+03 0.  1.
         -6    1    1    2    0  501  0.11779852953E+02 -0.60117185471E+02 -0.12247913705E+03  0.21985900013E+03  0.17200000000E+03 0.  1.
</event>
<event>
 4    1  0.3211568E-002  0.5657848E+03  0.7818608E-02  0.9979050E-01
         -2   -1    0    0    0  501 -0.00000000000E+00  0.00000000000E+00  0.21810830293E+03  0.21810830293E+03  0.00000000000E+00 0.  1.
          2   -1    0    0  502    0  0.00000000000E+00 -0.00000000000E+00 -0.21078117085E+04  0.21078117085E+04  0.00000000000E+00 0. -1.
          6    1    1    2  502    0 -0.50163975339E+03 -0.19719533202E+03 -0.15857435019E+04  0.16836552185E+04  0.17200000000E+03 0. -1.
         -6    1    1    2    0  501  0.50163975339E+03  0.19719533202E+03 -0.30395990371E+03  0.64226479291E+03  0.17200000000E+03 0.  1.
</event>
<event>
 4    1  0.3211568E-002  0.4189169E+03  0.7818608E-02  0.1037419E+00
          2   -1    0    0  502    0  0.00000000000E+00  0.00000000000E+00  0.19541093119E+03  0.19541093119E+03  0.00000000000E+00 0. -1.
         -2   -1    0    0    0  501 -0.00000000000E+00 -0.00000000000E+00 -0.11173008074E+04  0.11173008074E+04  0.00000000000E+00 0.  1.
          6    1    1    2  502    0 -0.22293041613E+03 -0.31017633832E+03 -0.17020009490E+03  0.45217187395E+03  0.17200000000E+03 0. -1.
         -6    1    1    2    0  501  0.22293041613E+03  0.31017633832E+03 -0.75168978137E+03  0.86053986468E+03  0.17200000000E+03 0.  1.
</event>
<event>
 4    1  0.3211568E-002  0.1844081E+03  0.7818608E-02  0.1163604E+00
         -2   -1    0    0    0  501 -0.00000000000E+00  0.00000000000E+00  0.11716837575E+03  0.11716837575E+03  0.00000000000E+00 0.  1.
          2   -1    0    0  502    0  0.00000000000E+00 -0.00000000000E+00 -0.39114356337E+03  0.39114356337E+03  0.00000000000E+00 0. -1.
          6    1    1    2  502    0  0.42384610868E+02  0.51243445844E+02 -0.26607876911E+03  0.32373485656E+03  0.17200000000E+03 0. -1.
         -6    1    1    2    0  501 -0.42384610868E+02 -0.51243445844E+02 -0.78964185156E+01  0.18457708256E+03  0.17200000000E+03 0.  1.
</event>
<event>
 4    1  0.3211568E-002  0.2072813E+03  0.7818608E-02  0.1143737E+00
         -2   -1    0    0    0  501 -0.00000000000E+00  0.00000000000E+00  0.76580113389E+02  0.76580113389E+02  0.00000000000E+00 0.  1.
          2   -1    0    0  502    0  0.00000000000E+00 -0.00000000000E+00 -0.60133112584E+03  0.60133112584E+03  0.00000000000E+00 0. -1.
          6    1    1    2  502    0 -0.73960464881E+02 -0.88946057703E+02 -0.35009925062E+03  0.40685997202E+03  0.17200000000E+03 0. -1.
         -6    1    1    2    0  501  0.73960464881E+02  0.88946057703E+02 -0.17465176183E+03  0.27105126721E+03  0.17200000000E+03 0.  1.
</event>
<event>
 4    1  0.3211568E-002  0.2326996E+03  0.7818608E-02  0.1124754E+00
          4   -1    0    0  502    0  0.00000000000E+00  0.00000000000E+00  0.58861443621E+02  0.58861443621E+02  0.00000000000E+00 0. -1.
         -4   -1    0    0    0  501 -0.00000000000E+00 -0.00000000000E+00 -0.10793075930E+04  0.10793075930E+04  0.00000000000E+00 0.  1.
          6    1    1    2  502    0 -0.14152864393E+03 -0.67340558441E+02 -0.29154684253E+03  0.37302636536E+03  0.17200000000E+03 0. -1.
         -6    1    1    2    0  501  0.14152864393E+03  0.67340558441E+02 -0.72889930688E+03  0.76514267129E+03  0.17200000000E+03 0.  1.
</event>
<event>
 4    1  0.3211568E-002  0.2084943E+03  0.7818608E-02  0.1142764E+00
          2   -1    0    0  502    0  0.00000000000E+00  0.00000000000E+00  0.18799094728E+04  0.18799094728E+04  0.00000000000E+00 0. -1.
         -2   -1    0    0    0  501 -0.00000000000E+00 -0.00000000000E+00 -0.15303506628E+03  0.15303506628E+03  0.00000000000E+00 0.  1.
          6    1    1    2  502    0 -0.47273869062E+02 -0.10794010063E+03  0.17999724931E+04  0.18120074117E+04  0.17200000000E+03 0. -1.
         -6    1    1    2    0  501  0.47273869062E+02  0.10794010063E+03 -0.73098086553E+02  0.22093712743E+03  0.17200000000E+03 0.  1.
</event>
<event>
 4    1  0.3211568E-002  0.1767133E+03  0.7818608E-02  0.1171022E+00
          1   -1    0    0  502    0  0.00000000000E+00  0.00000000000E+00  0.79403660817E+03  0.79403660817E+03  0.00000000000E+00 0. -1.
         -1   -1    0    0    0  501 -0.00000000000E+00 -0.00000000000E+00 -0.51137506791E+02  0.51137506791E+02  0.00000000000E+00 0.  1.
          6    1    1    2  502    0 -0.40490482226E+02  0.20303176151E+01  0.16836889447E+03  0.24408131015E+03  0.17200000000E+03 0.  1.
         -6    1    1    2    0  501  0.40490482226E+02 -0.20303176151E+01  0.57453020691E+03  0.60109280481E+03  0.17200000000E+03 0. -1.
</event>
<event>
 4    1  0.3211568E-002  0.1909866E+03  0.7818608E-02  0.1157574E+00
         -1   -1    0    0    0  501 -0.00000000000E+00  0.00000000000E+00  0.15711027455E+02  0.15711027455E+02  0.00000000000E+00 0.  1.
          1   -1    0    0  502    0  0.00000000000E+00 -0.00000000000E+00 -0.26352972110E+04  0.26352972110E+04  0.00000000000E+00 0. -1.
          6    1    1    2  502    0 -0.64321969081E+02 -0.52484008733E+02 -0.17670605022E+04  0.17773515987E+04  0.17200000000E+03 0. -1.
         -6    1    1    2    0  501  0.64321969081E+02  0.52484008733E+02 -0.85252568135E+03  0.87365663978E+03  0.17200000000E+03 0.  1.
</event>
<event>
 4    1  0.3211568E-002  0.1972043E+03  0.7818608E-02  0.1152119E+00
         -1   -1    0    0    0  501 -0.00000000000E+00  0.00000000000E+00  0.25036892481E+03  0.25036892481E+03  0.00000000000E+00 0.  1.
          1   -1    0    0  502    0  0.00000000000E+00 -0.00000000000E+00 -0.23012213874E+03  0.23012213874E+03  0.00000000000E+00 0. -1.
          6    1    1    2  502    0 -0.52207045508E+02 -0.81116950039E+02 -0.12684085718E+03  0.23447417392E+03  0.17200000000E+03 0. -1.
         -6    1    1    2    0  501  0.52207045508E+02  0.81116950039E+02  0.14708764325E+03  0.24601688963E+03  0.17200000000E+03 0.  1.
</event>
<event>
 4    1  0.3211568E-002  0.3799643E+03  0.7818608E-02  0.1050947E+00
          1   -1    0    0  502    0  0.00000000000E+00  0.00000000000E+00  0.24048358897E+04  0.24048358897E+04  0.00000000000E+00 0. -1.
         -1   -1    0    0    0  501 -0.00000000000E+00 -0.00000000000E+00 -0.64806094705E+02  0.64806094705E+02  0.00000000000E+00 0.  1.
          6    1    1    2  502    0  0.16932143458E+03 -0.29346064535E+03  0.83494759712E+03  0.91733875341E+03  0.17200000000E+03 0. -1.
         -6    1    1    2    0  501 -0.16932143458E+03  0.29346064535E+03  0.15050821978E+04  0.15523032309E+04  0.17200000000E+03 0. -1.
</event>
<event>
 4    1  0.3211568E-002  0.1930624E+03  0.7818608E-02  0.1155728E+00
         -2   -1    0    0    0  501 -0.00000000000E+00  0.00000000000E+00  0.67465141768E+02  0.67465141768E+02  0.00000000000E+00 0.  1.
          2   -1    0    0  502    0  0.00000000000E+00 -0.00000000000E+00 -0.94666346180E+03  0.94666346180E+03  0.00000000000E+00 0. -1.
          6    1    1    2  502    0 -0.69555257991E+02  0.53396143241E+02 -0.76680038011E+03  0.79073124699E+03  0.17200000000E+03 0. -1.
         -6    1    1    2    0  501  0.69555257991E+02 -0.53396143241E+02 -0.11239793992E+03  0.22339735658E+03  0.17200000000E+03 0.  1.
</event>
<event>
 4    1  0.3211568E-002  0.4176848E+03  0.7818608E-02  0.1037822E+00
          2   -1    0    0  502    0  0.00000000000E+00  0.00000000000E+00  0.10759277677E+03  0.10759277677E+03  0.00000000000E+00 0. -1.
         -2   -1    0    0    0  501 -0.00000000000E+00 -0.00000000000E+00 -0.42516413662E+04  0.42516413662E+04  0.00000000000E+00 0.  1.
          6    1    1    2  502    0 -0.29908148242E+02  0.37944975941E+03 -0.35770285711E+03  0.54991994984E+03  0.17200000000E+03 0. -1.
         -6    1    1    2    0  501  0.29908148242E+02 -0.37944975941E+03 -0.37863457323E+04  0.38093141931E+04  0.17200000000E+03 0.  1.
</event>
<event>
 4    1  0.3211568E-002  0.3148473E+03  0.7818608E-02  0.1078045E+00
          2   -1    0    0  502    0  0.00000000000E+00  0.00000000000E+00  0.15522467685E+04  0.15522467685E+04  0.00000000000E+00 0. -1.
         -2   -1    0    0    0  501 -0.00000000000E+00 -0.00000000000E+00 -0.73980221031E+02  0.73980221031E+02  0.00000000000E+00 0.  1.
          6    1    1    2  502    0  0.17738200953E+03 -0.19514208501E+03  0.10398489841E+04  0.10864689229E+04  0.17200000000E+03 0. -1.
         -6    1    1    2    0  501 -0.17738200953E+03  0.19514208501E+03  0.43841756338E+03  0.53975806666E+03  0.17200000000E+03 0.  1.
</event>
<event>
 4    1  0.3211568E-002  0.1743391E+03  0.7818608E-02  0.1173397E+00
          1   -1    0    0  502    0  0.00000000000E+00  0.00000000000E+00  0.42380678584E+03  0.42380678584E+03  0.00000000000E+00 0. -1.
         -1   -1    0    0    0  501 -0.00000000000E+00 -0.00000000000E+00 -0.72302370241E+02  0.72302370241E+02  0.00000000000E+00 0.  1.
          6    1    1    2  502    0  0.18887335957E+02 -0.21292604321E+02  0.15343059808E+03  0.23223921910E+03  0.17200000000E+03 0.  1.
         -6    1    1    2    0  501 -0.18887335957E+02  0.21292604321E+02  0.19807381751E+03  0.26386993698E+03  0.17200000000E+03 0. -1.
</event>
<event>
 4    1  0.3211568E-002  0.1861329E+03  0.7818608E-02  0.1161996E+00
         -2   -1    0    0    0  501 -0.00000000000E+00  0.00000000000E+00  0.66859540785E+02  0.66859540785E+02  0.00000000000E+00 0.  1.
          2   -1    0    0  502    0  0.00000000000E+00 -0.00000000000E+00 -0.53056471256E+03  0.53056471256E+03  0.00000000000E+00 0. -1.
          6    1    1    2  502    0 -0.61370898054E+02 -0.35987241003E+02 -0.27748530362E+03  0.33413105568E+03  0.17200000000E+03 0. -1.
         -6    1    1    2    0  501  0.61370898054E+02  0.35987241003E+02 -0.18621986815E+03  0.26329319767E+03  0.17200000000E+03 0. -1.
</event>
<event>
 4    1  0.3211568E-002  0.1831814E+03  0.7818608E-02  0.1164759E+00
         -1   -1    0    0    0  501 -0.00000000000E+00  0.00000000000E+00  0.92916975215E+02  0.92916975215E+02  0.00000000000E+00 0.  1.
          1   -1    0    0  502    0  0.00000000000E+00 -0.00000000000E+00 -0.13777800893E+04  0.13777800893E+04  0.00000000000E+00 0. -1.
          6    1    1    2  502    0 -0.60213651494E+02 -0.18593858381E+02 -0.12740987494E+04  0.12871996887E+04  0.17200000000E+03 0. -1.
         -6    1    1    2    0  501  0.60213651494E+02  0.18593858381E+02 -0.10764364730E+02  0.18349737585E+03  0.17200000000E+03 0.  1.
</event>
<event>
 4    1  0.3211568E-002  0.2229248E+03  0.7818608E-02  0.1131721E+00
          3   -1    0    0  502    0  0.00000000000E+00  0.00000000000E+00  0.36493960595E+02  0.36493960595E+02  0.00000000000E+00 0. -1.
         -3   -1    0    0    0  501 -0.00000000000E+00 -0.00000000000E+00 -0.17475914408E+04  0.17475914408E+04  0.00000000000E+00 0.  1.
          6    1    1    2  502    0  0.54734739513E+02 -0.13082657446E+03 -0.43639562989E+03  0.49003737621E+03  0.17200000000E+03 0. -1.
         -6    1    1    2    0  501 -0.54734739513E+02  0.13082657446E+03 -0.12747018503E+04  0.12940480252E+04  0.17200000000E+03 0.  1.
</event>
<event>
 4    1  0.3211568E-002  0.3120066E+03  0.7818608E-02  0.1079388E+00
         -2   -1    0    0    0  501 -0.00000000000E+00  0.00000000000E+00  0.47716425930E+02  0.47716425930E+02  0.00000000000E+00 0.  1.
          2   -1    0    0  502    0  0.00000000000E+00 -0.00000000000E+00 -0.21445967217E+04  0.21445967217E+04  0.00000000000E+00 0. -1.
          6    1    1    2  502    0 -0.25717944939E+03  0.40284509698E+02 -0.80652036714E+03  0.86476772229E+03  0.17200000000E+03 0.  1.
         -6    1    1    2    0  501  0.25717944939E+03 -0.40284509698E+02 -0.12903599286E+04  0.13275454253E+04  0.17200000000E+03 0. -1.
</event>
<event>
 4    1  0.3211568E-002  0.3744533E+03  0.7818608E-02  0.1053003E+00
          2   -1    0    0  502    0  0.00000000000E+00  0.00000000000E+00  0.40945371640E+03  0.40945371640E+03  0.00000000000E+00 0. -1.
         -2   -1    0    0    0  501 -0.00000000000E+00 -0.00000000000E+00 -0.53405315200E+03  0.53405315200E+03  0.00000000000E+00 0.  1.
          6    1    1    2  502    0 -0.12286032340E+02 -0.33238579157E+03  0.22027294469E+03  0.43443691279E+03  0.17200000000E+03 0. -1.
         -6    1    1    2    0  501  0.12286032340E+02  0.33238579157E+03 -0.34487238029E+03  0.50906995562E+03  0.17200000000E+03 0.  1.
</event>
<event>
 4    1  0.3211568E-002  0.2527251E+03  0.7818608E-02  0.1111595E+00
         -2   -1    0    0    0  501 -0.00000000000E+00  0.00000000000E+00  0.17923318377E+04  0.17923318377E+04  0.00000000000E+00 0.  1.
          2   -1    0    0  502    0  0.00000000000E+00 -0.00000000000E+00 -0.41656687574E+02  0.41656687574E+02  0.00000000000E+00 0. -1.
          6    1    1    2  502    0  0.89227647197E+02 -0.16224800197E+03  0.52669655002E+03  0.58419110141E+03  0.17200000000E+03 0. -1.
         -6    1    1    2    0  501 -0.89227647197E+02  0.16224800197E+03  0.12239786001E+04  0.12497974239E+04  0.17200000000E+03 0.  1.
</event>
<event>
 4    1  0.3211568E-002  0.2448775E+03  0.7818608E-02  0.1116586E+00
         -1   -1    0    0    0  501 -0.00000000000E+00  0.00000000000E+00  0.63726724598E+02  0.63726724598E+02  0.00000000000E+00 0.  1.
          1   -1    0    0  502    0  0.00000000000E+00 -0.00000000000E+00 -0.12164413611E+04  0.12164413611E+04  0.00000000000E+00 0. -1.
          6    1    1    2  502    0  0.12637788201E+03 -0.12004010691E+03 -0.88095661264E+03  0.91435745181E+03  0.17200000000E+03 0. -1.
         -6    1    1    2    0  501 -0.12637788201E+03  0.12004010691E+03 -0.27175802385E+03  0.36581063387E+03  0.17200000000E+03 0.  1.
</event>
<event>
 4    1  0.3211568E-002  0.3023760E+03  0.7818608E-02  0.1084059E+00
         -1   -1    0    0    0  501 -0.00000000000E+00  0.00000000000E+00  0.85394642111E+02  0.85394642111E+02  0.00000000000E+00 0.  1.
          1   -1    0    0  502    0  0.00000000000E+00 -0.00000000000E+00 -0.11128762771E+04  0.11128762771E+04  0.00000000000E+00 0. -1.
          6    1    1    2  502    0 -0.18334185801E+03 -0.16802674241E+03 -0.63039092684E+03  0.69915945514E+03  0.17200000000E+03 0. -1.
         -6    1    1    2    0  501  0.18334185801E+03  0.16802674241E+03 -0.39709070813E+03  0.49911146405E+03  0.17200000000E+03 0.  1.
</event>
<event>
 4    1  0.3211568E-002  0.1870461E+03  0.7818608E-02  0.1161153E+00
         -1   -1    0    0    0  501 -0.00000000000E+00  0.00000000000E+00  0.28559252841E+03  0.28559252841E+03  0.00000000000E+00 0.  1.
          1   -1    0    0  502    0  0.00000000000E+00 -0.00000000000E+00 -0.14094852971E+03  0.14094852971E+03  0.00000000000E+00 0. -1.
          6    1    1    2  502    0  0.72354338626E+02  0.12926957454E+02 -0.48275068450E+01  0.18710842143E+03  0.17200000000E+03 0. -1.
         -6    1    1    2    0  501 -0.72354338626E+02 -0.12926957454E+02  0.14947150554E+03  0.23943263670E+03  0.17200000000E+03 0.  1.
</event>
<event>
 4    1  0.3211568E-002  0.2631490E+03  0.7818608E-02  0.1105266E+00
         -1   -1    0    0    0  501 -0.00000000000E+00  0.00000000000E+00  0.23510088771E+02  0.23510088771E+02  0.00000000000E+00 0.  1.
          1   -1    0    0  502    0  0.00000000000E+00 -0.00000000000E+00 -0.29460793169E+04  0.29460793169E+04  0.00000000000E+00 0. -1.
          6    1    1    2  502    0 -0.16918415507E+03  0.10507207729E+03 -0.14393131019E+04  0.14631710854E+04  0.17200000000E+03 0. -1.
         -6    1    1    2    0  501  0.16918415507E+03 -0.10507207729E+03 -0.14832561262E+04  0.15064183203E+04  0.17200000000E+03 0.  1.
</event>
<event>
 4    1  0.3211568E-002  0.3332979E+03  0.7818608E-02  0.1069687E+00
         -1   -1    0    0    0  501 -0.00000000000E+00  0.00000000000E+00  0.31592608486E+03  0.31592608486E+03  0.00000000000E+00 0.  1.
          1   -1    0    0  502    0  0.00000000000E+00 -0.00000000000E+00 -0.44759609558E+03  0.44759609558E+03  0.00000000000E+00 0. -1.
          6    1    1    2  502    0 -0.24947976769E+03 -0.13879246417E+03 -0.24260917010E+03  0.41224593633E+03  0.17200000000E+03 0. -1.
         -6    1    1    2    0  501  0.24947976769E+03  0.13879246417E+03  0.11093915938E+03  0.35127624412E+03  0.17200000000E+03 0.  1.
</event>
<event>
 4    1  0.3211568E-002  0.4500775E+03  0.7818608E-02  0.1027699E+00
          2   -1    0    0  502    0  0.00000000000E+00  0.00000000000E+00  0.37583895905E+04  0.37583895905E+04  0.00000000000E+00 0. -1.
         -2   -1    0    0    0  501 -0.00000000000E+00 -0.00000000000E+00 -0.33309763621E+03  0.33309763621E+03  0.00000000000E+00 0.  1.
          6    1    1    2  502    0 -0.14421073613E+03  0.39011416765E+03  0.35855815064E+04  0.36137189348E+04  0.17200000000E+03 0. -1.
         -6    1    1    2    0  501  0.14421073613E+03 -0.39011416765E+03 -0.16028955217E+03  0.47776829191E+03  0.17200000000E+03 0.  1.
</event>
<event>
 4    1  0.3211568E-002  0.1942959E+03  0.7818608E-02  0.1154643E+00
          1   -1    0    0  502    0  0.00000000000E+00  0.00000000000E+00  0.39069882336E+03  0.39069882336E+03  0.00000000000E+00 0. -1.
         -1   -1    0    0    0  501 -0.00000000000E+00 -0.00000000000E+00 -0.18875380377E+03  0.18875380377E+03  0.00000000000E+00 0.  1.
          6    1    1    2  502    0 -0.77604452321E+02 -0.46308180894E+02  0.30338628447E+03  0.36026953277E+03  0.17200000000E+03 0. -1.
         -6    1    1    2    0  501  0.77604452321E+02  0.46308180894E+02 -0.10144126487E+03  0.21918309436E+03  0.17200000000E+03 0.  1.
</event>
<event>
 4    1  0.3211568E-002  0.2182101E+03  0.7818608E-02  0.1135225E+00
          2   -1    0    0  502    0  0.00000000000E+00  0.00000000000E+00  0.10818215579E+04  0.10818215579E+04  0.00000000000E+00 0. -1.
         -2   -1    0    0    0  501 -0.00000000000E+00 -0.00000000000E+00 -0.12390043250E+03  0.12390043250E+03  0.00000000000E+00 0.  1.
          6    1    1    2  502    0 -0.13240725570E+03  0.22359970072E+02  0.96303973251E+03  0.98745186010E+03  0.17200000000E+03 0. -1.
         -6    1    1    2    0  501  0.13240725570E+03 -0.22359970072E+02 -0.51186071457E+01  0.21827013026E+03  0.17200000000E+03 0.  1.
</event>
<event>
 4    1  0.3211568E-002  0.2270082E+03  0.7818608E-02  0.1128763E+00
         -2   -1    0    0    0  501 -0.00000000000E+00  0.00000000000E+00  0.91179718482E+02  0.91179718482E+02  0.00000000000E+00 0.  1.
          2   -1    0    0  502    0  0.00000000000E+00 -0.00000000000E+00 -0.67414891371E+03  0.67414891371E+03  0.00000000000E+00 0. -1.
          6    1    1    2  502    0  0.30455564634E+00 -0.14815071213E+03 -0.44533417892E+03  0.49985523622E+03  0.17200000000E+03 0. -1.
         -6    1    1    2    0  501 -0.30455564634E+00  0.14815071213E+03 -0.13763501631E+03  0.26547339598E+03  0.17200000000E+03 0.  1.
</event>
<event>
 4    1  0.3211568E-002  0.1913743E+03  0.7818608E-02  0.1157228E+00
          3   -1    0    0  502    0  0.00000000000E+00  0.00000000000E+00  0.19734531688E+03  0.19734531688E+03  0.00000000000E+00 0. -1.
         -3   -1    0    0    0  501 -0.00000000000E+00 -0.00000000000E+00 -0.18668087362E+03  0.18668087362E+03  0.00000000000E+00 0.  1.
          6    1    1    2  502    0  0.51007644047E+02  0.66620927889E+02  0.20050762303E+02  0.19242183050E+03  0.17200000000E+03 0. -1.
         -6    1    1    2    0  501 -0.51007644047E+02 -0.66620927889E+02 -0.93863190421E+01  0.19160436000E+03  0.17200000000E+03 0.  1.
</event>
<event>
 4    1  0.3211568E-002  0.2109360E+03  0.7818608E-02  0.1140827E+00
         -2   -1    0    0    0  501 -0.00000000000E+00  0.00000000000E+00  0.30638273393E+03  0.30638273393E+03  0.00000000000E+00 0.  1.
          2   -1    0    0  502    0  0.00000000000E+00 -0.00000000000E+00 -0.14622862168E+03  0.14622862168E+03  0.00000000000E+00 0. -1.
          6    1    1    2  502    0  0.75342918149E+02  0.96090892171E+02  0.61315924858E+02  0.21966715165E+03  0.17200000000E+03 0. -1.
         -6    1    1    2    0  501 -0.75342918149E+02 -0.96090892171E+02  0.98838187388E+02  0.23294420396E+03  0.17200000000E+03 0.  1.
</event>
<event>
 4    1  0.3211568E-002  0.1872445E+03  0.7818608E-02  0.1160970E+00
          2   -1    0    0  502    0  0.00000000000E+00  0.00000000000E+00  0.72633543643E+02  0.72633543643E+02  0.00000000000E+00 0. -1.
         -2   -1    0    0    0  501 -0.00000000000E+00 -0.00000000000E+00 -0.86156967486E+03  0.86156967486E+03  0.00000000000E+00 0.  1.
          6    1    1    2  502    0  0.32291963409E+02 -0.66586177357E+02 -0.84719797290E+02  0.20551869494E+03  0.17200000000E+03 0. -1.
         -6    1    1    2    0  501 -0.32291963409E+02  0.66586177357E+02 -0.70421633392E+03  0.72868452356E+03  0.17200000000E+03 0.  1.
</event>
<event>
 4    1  0.3211568E-002  0.2039375E+03  0.7818608E-02  0.1146459E+00
          1   -1    0    0  502    0  0.00000000000E+00  0.00000000000E+00  0.13684898811E+04  0.13684898811E+04  0.00000000000E+00 0. -1.
         -1   -1    0    0    0  501 -0.00000000000E+00 -0.00000000000E+00 -0.31750407122E+02  0.31750407122E+02  0.00000000000E+00 0.  1.
          6    1    1    2  502    0  0.10353212133E+03 -0.35883092261E+02  0.52352971556E+03  0.56184860908E+03  0.17200000000E+03 0. -1.
         -6    1    1    2    0  501 -0.10353212133E+03  0.35883092261E+02  0.81320975838E+03  0.83839167910E+03  0.17200000000E+03 0. -1.
</event>
<event>
 4    1  0.3211568E-002  0.3749008E+03  0.7818608E-02  0.1052835E+00
          2   -1    0    0  502    0  0.00000000000E+00  0.00000000000E+00  0.45671232487E+03  0.45671232487E+03  0.00000000000E+00 0. -1.
         -2   -1    0    0    0  501 -0.00000000000E+00 -0.00000000000E+00 -0.31919143182E+03  0.31919143182E+03  0.00000000000E+00 0.  1.
          6    1    1    2  502    0 -0.11277278844E+03 -0.31344682441E+03  0.14222885588E+03  0.40097339187E+03  0.17200000000E+03 0. -1.
         -6    1    1    2    0  501  0.11277278844E+03  0.31344682441E+03 -0.47079628312E+01  0.37493036481E+03  0.17200000000E+03 0.  1.
</event>
<event>
 4    1  0.3211568E-002  0.2673317E+03  0.7818608E-02  0.1102817E+00
         -2   -1    0    0    0  501 -0.00000000000E+00  0.00000000000E+00  0.23320279878E+03  0.23320279878E+03  0.00000000000E+00 0.  1.
          2   -1    0    0  502    0  0.00000000000E+00 -0.00000000000E+00 -0.71504054577E+03  0.71504054577E+03  0.00000000000E+00 0. -1.
          6    1    1    2  502    0  0.15171843269E+03  0.13734532243E+03  0.11747934589E+03  0.29200619363E+03  0.17200000000E+03 0. -1.
         -6    1    1    2    0  501 -0.15171843269E+03 -0.13734532243E+03 -0.59931709289E+03  0.65623715091E+03  0.17200000000E+03 0. -1.
</event>
<event>
 4    1  0.3211568E-002  0.2286833E+03  0.7818608E-02  0.1127570E+00
         -1   -1    0    0    0  501 -0.00000000000E+00  0.00000000000E+00  0.14733398850E+04  0.14733398850E+04  0.00000000000E+00 0.  1.
          1   -1    0    0  502    0  0.00000000000E+00 -0.00000000000E+00 -0.60008075191E+02  0.60008075191E+02  0.00000000000E+00 0. -1.
          6    1    1    2  502    0 -0.14857212697E+03 -0.25266113419E+02  0.21665510592E+03  0.31501664769E+03  0.17200000000E+03 0. -1.
         -6    1    1    2    0  501  0.14857212697E+03  0.25266113419E+02  0.11966767039E+04  0.12183313125E+04  0.17200000000E+03 0.  1.
</event>
<event>
 4    1  0.3211568E-002  0.1846625E+03  0.7818608E-02  0.1163365E+00
         -2   -1    0    0    0  501 -0.00000000000E+00  0.00000000000E+00  0.19926219056E+02  0.19926219056E+02  0.00000000000E+00 0.  1.
          2   -1    0    0  502    0  0.00000000000E+00 -0.00000000000E+00 -0.20784722961E+04  0.20784722961E+04  0.00000000000E+00 0. -1.
          6    1    1    2  502    0 -0.63967847805E+02 -0.20599742702E+02 -0.14702400255E+04  0.14817914724E+04  0.17200000000E+03 0. -1.
         -6    1    1    2    0  501  0.63967847805E+02  0.20599742702E+02 -0.58830605153E+03  0.61660704279E+03  0.17200000000E+03 0.  1.
</event>
<event>
 4    1  0.3211568E-002  0.5207023E+03  0.7818608E-02  0.1008512E+00
          2   -1    0    0  502    0  0.00000000000E+00  0.00000000000E+00  0.23364650037E+04  0.23364650037E+04  0.00000000000E+00 0. -1.
         -2   -1    0    0    0  501 -0.00000000000E+00 -0.00000000000E+00 -0.14517012446E+03  0.14517012446E+03  0.00000000000E+00 0.  1.
          6    1    1    2  502    0 -0.14052316574E+03 -0.47095661989E+03  0.16514448919E+04  0.17315891918E+04  0.17200000000E+03 0. -1.
         -6    1    1    2    0  501  0.14052316574E+03  0.47095661989E+03  0.53984998730E+03  0.75004593640E+03  0.17200000000E+03 0.  1.
</event>
<event>
 4    1  0.3211568E-002  0.2875837E+03  0.7818608E-02  0.1091618E+00
          1   -1    0    0  502    0  0.00000000000E+00  0.00000000000E+00  0.27248305081E+04  0.27248305081E+04  0.00000000000E+00 0. -1.
         -1   -1    0    0    0  501 -0.00000000000E+00 -0.00000000000E+00 -0.30352699973E+02  0.30352699973E+02  0.00000000000E+00 0.  1.
          6    1    1    2  502    0  0.19128254328E+03 -0.12857427822E+03  0.13533103664E+04  0.13835292929E+04  0.17200000000E+03 0. -1.
         -6    1    1    2    0  501 -0.19128254328E+03  0.12857427822E+03  0.13411674417E+04  0.13716539152E+04  0.17200000000E+03 0.  1.
</event>
<event>
 4    1  0.3211568E-002  0.2154949E+03  0.7818608E-02  0.1137287E+00
          4   -1    0    0  502    0  0.00000000000E+00  0.00000000000E+00  0.15363089949E+03  0.15363089949E+03  0.00000000000E+00 0. -1.
         -4   -1    0    0    0  501 -0.00000000000E+00 -0.00000000000E+00 -0.30232764014E+03  0.30232764014E+03  0.00000000000E+00 0.  1.
          6    1    1    2  502    0 -0.19557652982E+02  0.12834158356E+03 -0.71209718215E+02  0.22695569574E+03  0.17200000000E+03 0.  1.
         -6    1    1    2    0  501  0.19557652982E+02 -0.12834158356E+03 -0.77487022438E+02  0.22900284389E+03  0.17200000000E+03 0. -1.
</event>
<event>
 4    1  0.3211568E-002  0.2233008E+03  0.7818608E-02  0.1131446E+00
          1   -1    0    0  502    0  0.00000000000E+00  0.00000000000E+00  0.12949032685E+04  0.12949032685E+04  0.00000000000E+00 0. -1.
         -1   -1    0    0    0  501 -0.00000000000E+00 -0.00000000000E+00 -0.67683474427E+02  0.67683474427E+02  0.00000000000E+00 0.  1.
          6    1    1    2  502    0 -0.10759623412E+03  0.93286053127E+02  0.10609182054E+04  0.10841635835E+04  0.17200000000E+03 0. -1.
         -6    1    1    2    0  501  0.10759623412E+03 -0.93286053127E+02  0.16630158873E+03  0.27842315945E+03  0.17200000000E+03 0.  1.
</event>
<event>
 4    1  0.3211568E-002  0.1733046E+03  0.7818608E-02  0.1174445E+00
         -2   -1    0    0    0  501 -0.00000000000E+00  0.00000000000E+00  0.92403141277E+02  0.92403141277E+02  0.00000000000E+00 0.  1.
          2   -1    0    0  502    0  0.00000000000E+00 -0.00000000000E+00 -0.42760243773E+03  0.42760243773E+03  0.00000000000E+00 0. -1.
          6    1    1    2  502    0  0.81313897336E+01  0.19605248599E+02 -0.29493746484E+03  0.34208565219E+03  0.17200000000E+03 0. -1.
         -6    1    1    2    0  501 -0.81313897336E+01 -0.19605248599E+02 -0.40261831613E+02  0.17791992681E+03  0.17200000000E+03 0.  1.
</event>
<event>
 4    1  0.3211568E-002  0.1816307E+03  0.7818608E-02  0.1166234E+00
         -2   -1    0    0    0  501 -0.00000000000E+00  0.00000000000E+00  0.70383295581E+02  0.70383295581E+02  0.00000000000E+00 0.  1.
          2   -1    0    0  502    0  0.00000000000E+00 -0.00000000000E+00 -0.62298279777E+03  0.62298279777E+03  0.00000000000E+00 0. -1.
          6    1    1    2  502    0  0.49291358269E+02 -0.31242294176E+02 -0.10378272385E+03  0.20919027873E+03  0.17200000000E+03 0.  1.
         -6    1    1    2    0  501 -0.49291358269E+02  0.31242294176E+02 -0.44881677834E+03  0.48417581462E+03  0.17200000000E+03 0.  1.
</event>
<event>
 4    1  0.3211568E-002  0.1895070E+03  0.7818608E-02  0.1158907E+00
          1   -1    0    0  502    0  0.00000000000E+00  0.00000000000E+00  0.41123850303E+03  0.41123850303E+03  0.00000000000E+00 0. -1.
         -1   -1    0    0    0  501 -0.00000000000E+00 -0.00000000000E+00 -0.91650441478E+02  0.91650441478E+02  0.00000000000E+00 0.  1.
          6    1    1    2  502    0 -0.35185119724E+02 -0.71350601632E+02  0.21439583539E+03  0.28614415115E+03  0.17200000000E+03 0.  1.
         -6    1    1    2    0  501  0.35185119724E+02  0.71350601632E+02  0.10519222616E+03  0.21674479336E+03  0.17200000000E+03 0.  1.
</event>
<event>
 4    1  0.3211568E-002  0.1874771E+03  0.7818608E-02  0.1160757E+00
         -2   -1    0    0    0  501 -0.00000000000E+00  0.00000000000E+00  0.27346141290E+02  0.27346141290E+02  0.00000000000E+00 0.  1.
          2   -1    0    0  502    0  0.00000000000E+00 -0.00000000000E+00 -0.13376751365E+04  0.13376751365E+04  0.00000000000E+00 0. -1.
          6    1    1    2  502    0 -0.74269452912E+02 -0.69059944018E+01 -0.52009729912E+03  0.55285517538E+03  0.17200000000E+03 0.  1.
         -6    1    1    2    0  501  0.74269452912E+02  0.69059944018E+01 -0.79023169608E+03  0.81216610240E+03  0.17200000000E+03 0. -1.
</event>
<event>
 4    1  0.3211568E-002  0.1891961E+03  0.7818608E-02  0.1159188E+00
          1   -1    0    0  502    0  0.00000000000E+00  0.00000000000E+00  0.17747495309E+04  0.17747495309E+04  0.00000000000E+00 0. -1.
         -1   -1    0    0    0  501 -0.00000000000E+00 -0.00000000000E+00 -0.30009066658E+02  0.30009066658E+02  0.00000000000E+00 0.  1.
          6    1    1    2  502    0 -0.78594887892E+02 -0.58310888445E+01  0.13890946461E+04  0.14019197886E+04  0.17200000000E+03 0. -1.
         -6    1    1    2    0  501  0.78594887892E+02  0.58310888445E+01  0.35564581819E+03  0.40283880895E+03  0.17200000000E+03 0.  1.
</event>
<event>
 4    1  0.3211568E-002  0.5316016E+03  0.7818608E-02  0.1005844E+00
          2   -1    0    0  502    0  0.00000000000E+00  0.00000000000E+00  0.56165170661E+03  0.56165170661E+03  0.00000000000E+00 0. -1.
         -2   -1    0    0    0  501 -0.00000000000E+00 -0.00000000000E+00 -0.61036505948E+03  0.61036505948E+03  0.00000000000E+00 0.  1.
          6    1    1    2  502    0  0.31032203288E+03  0.39587429851E+03  0.22123760754E+03  0.57580057599E+03  0.17200000000E+03 0. -1.
         -6    1    1    2    0  501 -0.31032203288E+03 -0.39587429851E+03 -0.26995096041E+03  0.59621619010E+03  0.17200000000E+03 0.  1.
</event>
<event>
 4    1  0.3211568E-002  0.1818154E+03  0.7818608E-02  0.1166058E+00
         -2   -1    0    0    0  501 -0.00000000000E+00  0.00000000000E+00  0.23133360682E+03  0.23133360682E+03  0.00000000000E+00 0.  1.
          2   -1    0    0  502    0  0.00000000000E+00 -0.00000000000E+00 -0.14290092866E+03  0.14290092866E+03  0.00000000000E+00 0. -1.
          6    1    1    2  502    0  0.57620499779E+02 -0.12357862991E+02  0.43214058260E+02  0.18688042595E+03  0.17200000000E+03 0. -1.
         -6    1    1    2    0  501 -0.57620499779E+02  0.12357862991E+02  0.45218619896E+02  0.18735410953E+03  0.17200000000E+03 0.  1.
</event>
<event>
 4    1  0.3211568E-002  0.1857616E+03  0.7818608E-02  0.1162341E+00
          2   -1    0    0  502    0  0.00000000000E+00  0.00000000000E+00  0.14648119360E+03  0.14648119360E+03  0.00000000000E+00 0. -1.
         -2   -1    0    0    0  501 -0.00000000000E+00 -0.00000000000E+00 -0.30153931874E+03  0.30153931874E+03  0.00000000000E+00 0.  1.
          6    1    1    2  502    0  0.59088224068E+02 -0.37841262048E+02  0.27243809064E+02  0.18774878021E+03  0.17200000000E+03 0. -1.
         -6    1    1    2    0  501 -0.59088224068E+02  0.37841262048E+02 -0.18230193420E+03  0.26027173214E+03  0.17200000000E+03 0.  1.
</event>
<event>
 4    1  0.3211568E-002  0.2016694E+03  0.7818608E-02  0.1148338E+00
         -1   -1    0    0    0  501 -0.00000000000E+00  0.00000000000E+00  0.29837966375E+03  0.29837966375E+03  0.00000000000E+00 0.  1.
          1   -1    0    0  502    0  0.00000000000E+00 -0.00000000000E+00 -0.14185878650E+03  0.14185878650E+03  0.00000000000E+00 0. -1.
          6    1    1    2  502    0 -0.10527934898E+03  0.16751982614E+01  0.34705584845E+02  0.20463388095E+03  0.17200000000E+03 0. -1.
         -6    1    1    2    0  501  0.10527934898E+03 -0.16751982614E+01  0.12181529241E+03  0.23560456930E+03  0.17200000000E+03 0.  1.
</event>
<event>
 4    1  0.3211568E-002  0.3899055E+03  0.7818608E-02  0.1047332E+00
         -2   -1    0    0    0  501 -0.00000000000E+00  0.00000000000E+00  0.18292653687E+03  0.18292653687E+03  0.00000000000E+00 0.  1.
          2   -1    0    0  502    0  0.00000000000E+00 -0.00000000000E+00 -0.86448659152E+03  0.86448659152E+03  0.00000000000E+00 0. -1.
          6    1    1    2  502    0 -0.73506113654E+02 -0.34210983719E+03 -0.44373220012E+03  0.59069836200E+03  0.17200000000E+03 0. -1.
         -6    1    1    2    0  501  0.73506113654E+02  0.34210983719E+03 -0.23782785454E+03  0.45671476639E+03  0.17200000000E+03 0.  1.
</event>
<event>
 4    1  0.3211568E-002  0.2657268E+03  0.7818608E-02  0.1103750E+00
         -1   -1    0    0    0  501 -0.00000000000E+00  0.00000000000E+00  0.13594938671E+03  0.13594938671E+03  0.00000000000E+00 0.  1.
          1   -1    0    0  502    0  0.00000000000E+00 -0.00000000000E+00 -0.54097867432E+03  0.54097867432E+03  0.00000000000E+00 0. -1.
          6    1    1    2  502    0 -0.20082109084E+03  0.26413025042E+02 -0.13490090389E+03  0.29800840976E+03  0.17200000000E+03 0.  1.
         -6    1    1    2    0  501  0.20082109084E+03 -0.26413025042E+02 -0.27012838373E+03  0.37891965127E+03  0.17200000000E+03 0. -1.
</event>
<event>
 4    1  0.3211568E-002  0.2169733E+03  0.7818608E-02  0.1136160E+00
          1   -1    0    0  502    0  0.00000000000E+00  0.00000000000E+00  0.18259239286E+03  0.18259239286E+03  0.00000000000E+00 0. -1.
         -1   -1    0    0    0  501 -0.00000000000E+00 -0.00000000000E+00 -0.26653495861E+03  0.26653495861E+03  0.00000000000E+00 0.  1.
          6    1    1    2  502    0  0.12900920848E+03 -0.29155478411E+02 -0.13832946105E+01  0.21697772074E+03  0.17200000000E+03 0. -1.
         -6    1    1    2    0  501 -0.12900920848E+03  0.29155478411E+02 -0.82559271139E+02  0.23214963072E+03  0.17200000000E+03 0.  1.
</event>
<event>
 4    1  0.3211568E-002  0.6245399E+03  0.7818608E-02  0.9855762E-01
         -1   -1    0    0    0  501 -0.00000000000E+00  0.00000000000E+00  0.10605718572E+04  0.10605718572E+04  0.00000000000E+00 0.  1.
          1   -1    0    0  502    0  0.00000000000E+00 -0.00000000000E+00 -0.40256654649E+03  0.40256654649E+03  0.00000000000E+00 0. -1.
          6    1    1    2  502    0 -0.15826586019E+03 -0.57915288447E+03  0.11393095944E+03  0.63484676073E+03  0.17200000000E+03 0. -1.
         -6    1    1    2    0  501  0.15826586019E+03  0.57915288447E+03  0.54407435130E+03  0.82829164298E+03  0.17200000000E+03 0.  1.
</event>
<event>
 4    1  0.3211568E-002  0.2729513E+03  0.7818608E-02  0.1099602E+00
          1   -1    0    0  502    0  0.00000000000E+00  0.00000000000E+00  0.36978526876E+03  0.36978526876E+03  0.00000000000E+00 0. -1.
         -1   -1    0    0    0  501 -0.00000000000E+00 -0.00000000000E+00 -0.20771366992E+03  0.20771366992E+03  0.00000000000E+00 0.  1.
          6    1    1    2  502    0  0.18597538861E+03  0.10164428481E+03  0.13107868041E+03  0.30279370248E+03  0.17200000000E+03 0. -1.
         -6    1    1    2    0  501 -0.18597538861E+03 -0.10164428481E+03  0.30992918424E+02  0.27470523620E+03  0.17200000000E+03 0.  1.
</event>
<event>
 4    1  0.3211568E-002  0.2163522E+03  0.7818608E-02  0.1136632E+00
         -2   -1    0    0    0  501 -0.00000000000E+00  0.00000000000E+00  0.70737163702E+02  0.70737163702E+02  0.00000000000E+00 0.  1.
          2   -1    0    0  502    0  0.00000000000E+00 -0.00000000000E+00 -0.80435434343E+03  0.80435434343E+03  0.00000000000E+00 0. -1.
          6    1    1    2  502    0 -0.10797629683E+03 -0.74601521729E+02 -0.55105976947E+03  0.59200940639E+03  0.17200000000E+03 0. -1.
         -6    1    1    2    0  501  0.10797629683E+03  0.74601521729E+02 -0.18255741026E+03  0.28308210074E+03  0.17200000000E+03 0.  1.
</event>
<event>
 4    1  0.3211568E-002  0.5557348E+03  0.7818608E-02  0.1000175E+00
          2   -1    0    0  502    0  0.00000000000E+00  0.00000000000E+00  0.20923637292E+03  0.20923637292E+03  0.00000000000E+00 0. -1.
         -2   -1    0    0    0  501 -0.00000000000E+00 -0.00000000000E+00 -0.15283505882E+04  0.15283505882E+04  0.00000000000E+00 0.  1.
          6    1    1    2  502    0 -0.29808512657E+03  0.43635125975E+03 -0.82028885734E+03  0.99081530773E+03  0.17200000000E+03 0.  1.
         -6    1    1    2    0  501  0.29808512657E+03 -0.43635125975E+03 -0.49882535791E+03  0.74677165336E+03  0.17200000000E+03 0. -1.
</event>
<event>
 4    1  0.3211568E-002  0.1747821E+03  0.7818608E-02  0.1172951E+00
          1   -1    0    0  502    0  0.00000000000E+00  0.00000000000E+00  0.23663213251E+03  0.23663213251E+03  0.00000000000E+00 0. -1.
         -1   -1    0    0    0  501 -0.00000000000E+00 -0.00000000000E+00 -0.13349644335E+03  0.13349644335E+03  0.00000000000E+00 0.  1.
          6    1    1    2  502    0 -0.26827726349E+02  0.15654480105E+02  0.85159072656E+02  0.19442442569E+03  0.17200000000E+03 0. -1.
         -6    1    1    2    0  501  0.26827726349E+02 -0.15654480105E+02  0.17976616501E+02  0.17570415018E+03  0.17200000000E+03 0.  1.
</event>
<event>
 4    1  0.3211568E-002  0.2165021E+03  0.7818608E-02  0.1136518E+00
         -2   -1    0    0    0  501 -0.00000000000E+00  0.00000000000E+00  0.21476029702E+02  0.21476029702E+02  0.00000000000E+00 0.  1.
          2   -1    0    0  502    0  0.00000000000E+00 -0.00000000000E+00 -0.21933940136E+04  0.21933940136E+04  0.00000000000E+00 0. -1.
          6    1    1    2  502    0 -0.14823912640E+02  0.13064996663E+03 -0.10082010557E+04  0.10311850129E+04  0.17200000000E+03 0. -1.
         -6    1    1    2    0  501  0.14823912640E+02 -0.13064996663E+03 -0.11637169282E+04  0.11836850304E+04  0.17200000000E+03 0.  1.
</event>
<event>
 4    1  0.3211568E-002  0.1781158E+03  0.7818608E-02  0.1169639E+00
         -4   -1    0    0    0  501 -0.00000000000E+00  0.00000000000E+00  0.25469241841E+03  0.25469241841E+03  0.00000000000E+00 0.  1.
          4   -1    0    0  502    0  0.00000000000E+00 -0.00000000000E+00 -0.13097310016E+03  0.13097310016E+03  0.00000000000E+00 0. -1.
          6    1    1    2  502    0  0.38206986513E+02  0.26104705139E+02  0.10452007956E+03  0.20651798101E+03  0.17200000000E+03 0.  1.
         -6    1    1    2    0  501 -0.38206986513E+02 -0.26104705139E+02  0.19199238685E+02  0.17914753756E+03  0.17200000000E+03 0.  1.
</event>
<event>
 4    1  0.3211568E-002  0.1784705E+03  0.7818608E-02  0.1169292E+00
         -2   -1    0    0    0  501 -0.00000000000E+00  0.00000000000E+00  0.13414560760E+03  0.13414560760E+03  0.00000000000E+00 0.  1.
          2   -1    0    0  502    0  0.00000000000E+00 -0.00000000000E+00 -0.41416112056E+03  0.41416112056E+03  0.00000000000E+00 0. -1.
          6    1    1    2  502    0  0.11239647217E+02 -0.46275256374E+02 -0.31908951457E+03  0.36560887206E+03  0.17200000000E+03 0.  1.
         -6    1    1    2    0  501 -0.11239647217E+02  0.46275256374E+02  0.39074001610E+02  0.18269785610E+03  0.17200000000E+03 0.  1.
</event>
<event>
 4    1  0.3211568E-002  0.1791136E+03  0.7818608E-02  0.1168664E+00
         -2   -1    0    0    0  501 -0.00000000000E+00  0.00000000000E+00  0.60526464274E+02  0.60526464274E+02  0.00000000000E+00 0.  1.
          2   -1    0    0  502    0  0.00000000000E+00 -0.00000000000E+00 -0.56624559796E+03  0.56624559796E+03  0.00000000000E+00 0. -1.
          6    1    1    2  502    0 -0.47713869208E+02  0.14868194373E+02 -0.33209917971E+03  0.37732153620E+03  0.17200000000E+03 0.  1.
         -6    1    1    2    0  501  0.47713869208E+02 -0.14868194373E+02 -0.17361995398E+03  0.24945052604E+03  0.17200000000E+03 0.  1.
</event>
<event>
 4    1  0.3211568E-002  0.2263733E+03  0.7818608E-02  0.1129219E+00
          2   -1    0    0  502    0  0.00000000000E+00  0.00000000000E+00  0.26304939026E+03  0.26304939026E+03  0.00000000000E+00 0. -1.
         -2   -1    0    0    0  501 -0.00000000000E+00 -0.00000000000E+00 -0.26034478477E+03  0.26034478477E+03  0.00000000000E+00 0.  1.
          6    1    1    2  502    0  0.19545214950E+02  0.14587277186E+03 -0.12994551224E+03  0.26101861456E+03  0.17200000000E+03 0.  1.
         -6    1    1    2    0  501 -0.19545214950E+02 -0.14587277186E+03  0.13265011773E+03  0.26237556047E+03  0.17200000000E+03 0. -1.
</event>
<event>
 4    1  0.3211568E-002  0.4129997E+03  0.7818608E-02  0.1039369E+00
          1   -1    0    0  502    0  0.00000000000E+00  0.00000000000E+00  0.14534337931E+04  0.14534337931E+04  0.00000000000E+00 0. -1.
         -1   -1    0    0    0  501 -0.00000000000E+00 -0.00000000000E+00 -0.12566438082E+03  0.12566438082E+03  0.00000000000E+00 0.  1.
          6    1    1    2  502    0  0.13564219109E+03 -0.35012273963E+03  0.86690485249E+03  0.96025661158E+03  0.17200000000E+03 0. -1.
         -6    1    1    2    0  501 -0.13564219109E+03  0.35012273963E+03  0.46086455977E+03  0.61884156233E+03  0.17200000000E+03 0.  1.
</event>
<event>
 4    1  0.3211568E-002  0.3917947E+03  0.7818608E-02  0.1046659E+00
         -2   -1    0    0    0  501 -0.00000000000E+00  0.00000000000E+00  0.13983003775E+03  0.13983003775E+03  0.00000000000E+00 0.  1.
          2   -1    0    0  502    0  0.00000000000E+00 -0.00000000000E+00 -0.16152182525E+04  0.16152182525E+04  0.00000000000E+00 0. -1.
          6    1    1    2  502    0 -0.30281837985E+03  0.17949956045E+03 -0.12343680773E+04  0.12950550620E+04  0.17200000000E+03 0. -1.
         -6    1    1    2    0  501  0.30281837985E+03 -0.17949956045E+03 -0.24102013746E+03  0.45999322825E+03  0.17200000000E+03 0.  1.
</event>
<event>
 4    1  0.3211568E-002  0.2571438E+03  0.7818608E-02  0.1108872E+00
         -1   -1    0    0    0  501 -0.00000000000E+00  0.00000000000E+00  0.79783019749E+02  0.79783019749E+02  0.00000000000E+00 0.  1.
          1   -1    0    0  502    0  0.00000000000E+00 -0.00000000000E+00 -0.98274930881E+03  0.98274930881E+03  0.00000000000E+00 0. -1.
          6    1    1    2  502    0 -0.16581624764E+03 -0.95099440011E+02 -0.24120143776E+03  0.35256356172E+03  0.17200000000E+03 0. -1.
         -6    1    1    2    0  501  0.16581624764E+03  0.95099440011E+02 -0.66176485130E+03  0.70996876684E+03  0.17200000000E+03 0. -1.
</event>
<event>
 4    1  0.3211568E-002  0.4742079E+03  0.7818608E-02  0.1020739E+00
          2   -1    0    0  502    0  0.00000000000E+00  0.00000000000E+00  0.84477539864E+03  0.84477539864E+03  0.00000000000E+00 0. -1.
         -2   -1    0    0    0  501 -0.00000000000E+00 -0.00000000000E+00 -0.27787008464E+03  0.27787008464E+03  0.00000000000E+00 0.  1.
          6    1    1    2  502    0 -0.34888027183E+03 -0.27124094089E+03  0.16838229453E+03  0.50321535071E+03  0.17200000000E+03 0.  1.
         -6    1    1    2    0  501  0.34888027183E+03  0.27124094089E+03  0.39852301947E+03  0.61943013257E+03  0.17200000000E+03 0.  1.
</event>
<event>
 4    1  0.3211568E-002  0.1923655E+03  0.7818608E-02  0.1156345E+00
          2   -1    0    0  502    0  0.00000000000E+00  0.00000000000E+00  0.10804254946E+04  0.10804254946E+04  0.00000000000E+00 0. -1.
         -2   -1    0    0    0  501 -0.00000000000E+00 -0.00000000000E+00 -0.38874374489E+02  0.38874374489E+02  0.00000000000E+00 0.  1.
          6    1    1    2  502    0  0.86135593122E+02 -0.10738453909E+01  0.32775004943E+03  0.38003235184E+03  0.17200000000E+03 0. -1.
         -6    1    1    2    0  501 -0.86135593122E+02  0.10738453909E+01  0.71380107065E+03  0.73926751721E+03  0.17200000000E+03 0. -1.
</event>
<event>
 4    1  0.3211568E-002  0.2376644E+03  0.7818608E-02  0.1121359E+00
         -1   -1    0    0    0  501 -0.00000000000E+00  0.00000000000E+00  0.44183476477E+03  0.44183476477E+03  0.00000000000E+00 0.  1.
          1   -1    0    0  502    0  0.00000000000E+00 -0.00000000000E+00 -0.15434411048E+03  0.15434411048E+03  0.00000000000E+00 0. -1.
          6    1    1    2  502    0 -0.66034706548E+02  0.15013254599E+03  0.20220479932E+02  0.23852302120E+03  0.17200000000E+03 0. -1.
         -6    1    1    2    0  501  0.66034706548E+02 -0.15013254599E+03  0.26727017436E+03  0.35765585405E+03  0.17200000000E+03 0.  1.
</event>
<event>
 4    1  0.3211568E-002  0.4976344E+03  0.7818608E-02  0.1014398E+00
          2   -1    0    0  502    0  0.00000000000E+00  0.00000000000E+00  0.58799177258E+03  0.58799177258E+03  0.00000000000E+00 0. -1.
         -2   -1    0    0    0  501 -0.00000000000E+00 -0.00000000000E+00 -0.42653625534E+03  0.42653625534E+03  0.00000000000E+00 0.  1.
          6    1    1    2  502    0 -0.27893645933E+03  0.37450024691E+03  0.13766573240E+03  0.51632532105E+03  0.17200000000E+03 0.  1.
         -6    1    1    2    0  501  0.27893645933E+03 -0.37450024691E+03  0.23789784838E+02  0.49820270688E+03  0.17200000000E+03 0. -1.
</event>
<event>
 4    1  0.3211568E-002  0.1851029E+03  0.7818608E-02  0.1162954E+00
          2   -1    0    0  502    0  0.00000000000E+00  0.00000000000E+00  0.15210263029E+04  0.15210263029E+04  0.00000000000E+00 0. -1.
         -2   -1    0    0    0  501 -0.00000000000E+00 -0.00000000000E+00 -0.30641613857E+02  0.30641613857E+02  0.00000000000E+00 0.  1.
          6    1    1    2  502    0 -0.13714098338E+02  0.67014946355E+02  0.34592306484E+03  0.39233384549E+03  0.17200000000E+03 0.  1.
         -6    1    1    2    0  501  0.13714098338E+02 -0.67014946355E+02  0.11444616242E+04  0.11593340713E+04  0.17200000000E+03 0. -1.
</event>
<event>
 4    1  0.3211568E-002  0.2211693E+03  0.7818608E-02  0.1133014E+00
          2   -1    0    0  502    0  0.00000000000E+00  0.00000000000E+00  0.32896491499E+03  0.32896491499E+03  0.00000000000E+00 0. -1.
         -2   -1    0    0    0  501 -0.00000000000E+00 -0.00000000000E+00 -0.17139765484E+03  0.17139765484E+03  0.00000000000E+00 0.  1.
          6    1    1    2  502    0  0.68468476236E+02  0.12101205078E+03 -0.12266121341E+02  0.22150915648E+03  0.17200000000E+03 0.  1.
         -6    1    1    2    0  501 -0.68468476236E+02 -0.12101205078E+03  0.16983338149E+03  0.27885341335E+03  0.17200000000E+03 0. -1.
</event>
<event>
 4    1  0.3211568E-002  0.1929174E+03  0.7818608E-02  0.1155856E+00
         -2   -1    0    0    0  501 -0.00000000000E+00  0.00000000000E+00  0.11783430067E+03  0.11783430067E+03  0.00000000000E+00 0.  1.
          2   -1    0    0  502    0  0.00000000000E+00 -0.00000000000E+00 -0.38926739066E+03  0.38926739066E+03  0.00000000000E+00 0. -1.
          6    1    1    2  502    0  0.86945995537E+02  0.85732396512E+01 -0.24583548983E+03  0.31249351135E+03  0.17200000000E+03 0. -1.
         -6    1    1    2    0  501 -0.86945995537E+02 -0.85732396512E+01 -0.25597600157E+02  0.19460817997E+03  0.17200000000E+03 0.  1.
</event>
<event>
 4    1  0.3211568E-002  0.2281470E+03  0.7818608E-02  0.1127951E+00
         -1   -1    0    0    0  501 -0.00000000000E+00  0.00000000000E+00  0.12383668432E+03  0.12383668432E+03  0.00000000000E+00 0.  1.
          1   -1    0    0  502    0  0.00000000000E+00 -0.00000000000E+00 -0.42033787542E+03  0.42033787542E+03  0.00000000000E+00 0. -1.
          6    1    1    2  502    0 -0.98210665306E+02  0.11323308644E+03 -0.14648892152E+03  0.27112740690E+03  0.17200000000E+03 0. -1.
         -6    1    1    2    0  501  0.98210665306E+02 -0.11323308644E+03 -0.15001226958E+03  0.27304715283E+03  0.17200000000E+03 0.  1.
</event>
<event>
 4    1  0.3211568E-002  0.1749980E+03  0.7818608E-02  0.1172734E+00
         -2   -1    0    0    0  501 -0.00000000000E+00  0.00000000000E+00  0.11203503014E+03  0.11203503014E+03  0.00000000000E+00 0.  1.
          2   -1    0    0  502    0  0.00000000000E+00 -0.00000000000E+00 -0.36648469139E+03  0.36648469139E+03  0.00000000000E+00 0. -1.
          6    1    1    2  502    0  0.31670969961E+02  0.61019468183E+01 -0.24784165569E+03  0.30339705073E+03  0.17200000000E+03 0. -1.
         -6    1    1    2    0  501 -0.31670969961E+02 -0.61019468183E+01 -0.66080055585E+01  0.17512267081E+03  0.17200000000E+03 0.  1.
</event>
<event>
 4    1  0.3211568E-002  0.2438387E+03  0.7818608E-02  0.1117262E+00
          2   -1    0    0  502    0  0.00000000000E+00  0.00000000000E+00  0.10615162276E+03  0.10615162276E+03  0.00000000000E+00 0. -1.
         -2   -1    0    0    0  501 -0.00000000000E+00 -0.00000000000E+00 -0.88083405716E+03  0.88083405716E+03  0.00000000000E+00 0.  1.
          6    1    1    2  502    0  0.16678154036E+03 -0.45356862354E+02 -0.89561684276E+02  0.25976647678E+03  0.17200000000E+03 0. -1.
         -6    1    1    2    0  501 -0.16678154036E+03  0.45356862354E+02 -0.68512075012E+03  0.72721920314E+03  0.17200000000E+03 0.  1.
</event>
<event>
 4    1  0.3211568E-002  0.3064801E+03  0.7818608E-02  0.1082045E+00
         -1   -1    0    0    0  501 -0.00000000000E+00  0.00000000000E+00  0.69121557190E+02  0.69121557190E+02  0.00000000000E+00 0.  1.
          1   -1    0    0  502    0  0.00000000000E+00 -0.00000000000E+00 -0.14137899665E+04  0.14137899665E+04  0.00000000000E+00 0. -1.
          6    1    1    2  502    0 -0.24899334773E+03  0.48459848000E+02 -0.52625251714E+03  0.60899241036E+03  0.17200000000E+03 0. -1.
         -6    1    1    2    0  501  0.24899334773E+03 -0.48459848000E+02 -0.81841589217E+03  0.87391911332E+03  0.17200000000E+03 0.  1.
</event>
<event>
 4    1  0.3211568E-002  0.4821532E+03  0.7818608E-02  0.1018545E+00
         -1   -1    0    0    0  501 -0.00000000000E+00  0.00000000000E+00  0.16487979722E+03  0.16487979722E+03  0.00000000000E+00 0.  1.
          1   -1    0    0  502    0  0.00000000000E+00 -0.00000000000E+00 -0.14649522770E+04  0.14649522770E+04  0.00000000000E+00 0. -1.
          6    1    1    2  502    0 -0.26365288513E+03  0.36520522407E+03 -0.80794459937E+03  0.94087521764E+03  0.17200000000E+03 0. -1.
         -6    1    1    2    0  501  0.26365288513E+03 -0.36520522407E+03 -0.49212788039E+03  0.68895685655E+03  0.17200000000E+03 0.  1.
</event>
<event>
 4    1  0.3211568E-002  0.2497550E+03  0.7818608E-02  0.1113460E+00
          2   -1    0    0  502    0  0.00000000000E+00  0.00000000000E+00  0.17385386817E+03  0.17385386817E+03  0.00000000000E+00 0. -1.
         -2   -1    0    0    0  501 -0.00000000000E+00 -0.00000000000E+00 -0.79593623422E+03  0.79593623422E+03  0.00000000000E+00 0.  1.
          6    1    1    2  502    0 -0.18103522035E+03 -0.44516298810E+01  0.48311130723E+02  0.25438461700E+03  0.17200000000E+03 0. -1.
         -6    1    1    2    0  501  0.18103522035E+03  0.44516298810E+01 -0.67039349677E+03  0.71540548539E+03  0.17200000000E+03 0.  1.
</event>
<event>
 4    1  0.3211568E-002  0.2121097E+03  0.7818608E-02  0.1139906E+00
         -2   -1    0    0    0  501 -0.00000000000E+00  0.00000000000E+00  0.55166114897E+02  0.55166114897E+02  0.00000000000E+00 0.  1.
          2   -1    0    0  502    0  0.00000000000E+00 -0.00000000000E+00 -0.10767718982E+04  0.10767718982E+04  0.00000000000E+00 0. -1.
          6    1    1    2  502    0  0.10993080256E+03 -0.57634749041E+02 -0.78956791751E+03  0.81756225574E+03  0.17200000000E+03 0. -1.
         -6    1    1    2    0  501 -0.10993080256E+03  0.57634749041E+02 -0.23203786576E+03  0.31437575733E+03  0.17200000000E+03 0.  1.
</event>
<event>
 4    1  0.3211568E-002  0.2331590E+03  0.7818608E-02  0.1124436E+00
          2   -1    0    0  502    0  0.00000000000E+00  0.00000000000E+00  0.10717950613E+04  0.10717950613E+04  0.00000000000E+00 0. -1.
         -2   -1    0    0    0  501 -0.00000000000E+00 -0.00000000000E+00 -0.54999644853E+02  0.54999644853E+02  0.00000000000E+00 0.  1.
          6    1    1    2  502    0  0.15105882829E+03 -0.44275686550E+02  0.66552806653E+03  0.70518842401E+03  0.17200000000E+03 0. -1.
         -6    1    1    2    0  501 -0.15105882829E+03  0.44275686550E+02  0.35126734992E+03  0.42160628214E+03  0.17200000000E+03 0.  1.
</event>
<event>
 4    1  0.3211568E-002  0.4353810E+03  0.7818608E-02  0.1032174E+00
          1   -1    0    0  502    0  0.00000000000E+00  0.00000000000E+00  0.68982987090E+03  0.68982987090E+03  0.00000000000E+00 0. -1.
         -1   -1    0    0    0  501 -0.00000000000E+00 -0.00000000000E+00 -0.30764989492E+03  0.30764989492E+03  0.00000000000E+00 0.  1.
          6    1    1    2  502    0 -0.38885806533E+03 -0.93605793425E+02  0.35409283342E+03  0.56119370471E+03  0.17200000000E+03 0. -1.
         -6    1    1    2    0  501  0.38885806533E+03  0.93605793425E+02  0.28087142563E+02  0.43628606110E+03  0.17200000000E+03 0.  1.
</event>
<event>
 4    1  0.3211568E-002  0.2218510E+03  0.7818608E-02  0.1132511E+00
          2   -1    0    0  502    0  0.00000000000E+00  0.00000000000E+00  0.93583752848E+02  0.93583752848E+02  0.00000000000E+00 0. -1.
         -2   -1    0    0    0  501 -0.00000000000E+00 -0.00000000000E+00 -0.55143433251E+03  0.55143433251E+03  0.00000000000E+00 0.  1.
          6    1    1    2  502    0  0.36835851416E+01  0.14007247822E+03 -0.15955719667E+03  0.27326976957E+03  0.17200000000E+03 0. -1.
         -6    1    1    2    0  501 -0.36835851416E+01 -0.14007247822E+03 -0.29829338299E+03  0.37174831579E+03  0.17200000000E+03 0.  1.
</event>
<event>
 4    1  0.3211568E-002  0.1768759E+03  0.7818608E-02  0.1170861E+00
         -1   -1    0    0    0  501 -0.00000000000E+00  0.00000000000E+00  0.17415526228E+03  0.17415526228E+03  0.00000000000E+00 0.  1.
          1   -1    0    0  502    0  0.00000000000E+00 -0.00000000000E+00 -0.21975747099E+03  0.21975747099E+03  0.00000000000E+00 0. -1.
          6    1    1    2  502    0 -0.22229056941E+01  0.41184184535E+02 -0.10695424885E+03  0.20669854792E+03  0.17200000000E+03 0. -1.
         -6    1    1    2    0  501  0.22229056941E+01 -0.41184184535E+02  0.61352040135E+02  0.18721418534E+03  0.17200000000E+03 0.  1.
</event>
<event>
 4    1  0.3211568E-002  0.2805199E+03  0.7818608E-02  0.1095405E+00
          2   -1    0    0  502    0  0.00000000000E+00  0.00000000000E+00  0.64841449042E+03  0.64841449042E+03  0.00000000000E+00 0. -1.
         -2   -1    0    0    0  501 -0.00000000000E+00 -0.00000000000E+00 -0.12846440097E+03  0.12846440097E+03  0.00000000000E+00 0.  1.
          6    1    1    2  502    0 -0.77742108291E+01  0.22146553131E+03  0.35132394575E+03  0.44957750696E+03  0.17200000000E+03 0. -1.
         -6    1    1    2    0  501  0.77742108291E+01 -0.22146553131E+03  0.16862614370E+03  0.32730138443E+03  0.17200000000E+03 0.  1.
</event>
<event>
 4    1  0.3211568E-002  0.1902260E+03  0.7818608E-02  0.1158258E+00
          2   -1    0    0  502    0  0.00000000000E+00  0.00000000000E+00  0.16859522289E+04  0.16859522289E+04  0.00000000000E+00 0. -1.
         -2   -1    0    0    0  501 -0.00000000000E+00 -0.00000000000E+00 -0.17265113850E+03  0.17265113850E+03  0.00000000000E+00 0.  1.
          6    1    1    2  502    0 -0.58760357875E+02 -0.56117275576E+02  0.16262726585E+04  0.16373602805E+04  0.17200000000E+03 0. -1.
         -6    1    1    2    0  501  0.58760357875E+02  0.56117275576E+02 -0.11297156816E+03  0.22124308687E+03  0.17200000000E+03 0.  1.
</event>
<event>
 4    1  0.3211568E-002  0.2649391E+03  0.7818608E-02  0.1104212E+00
         -2   -1    0    0    0  501 -0.00000000000E+00  0.00000000000E+00  0.99943041311E+02  0.99943041311E+02  0.00000000000E+00 0.  1.
          2   -1    0    0  502    0  0.00000000000E+00 -0.00000000000E+00 -0.74155196235E+03  0.74155196235E+03  0.00000000000E+00 0. -1.
          6    1    1    2  502    0 -0.18509625937E+03  0.79674977533E+02 -0.41757213579E+03  0.49452928716E+03  0.17200000000E+03 0. -1.
         -6    1    1    2    0  501  0.18509625937E+03 -0.79674977533E+02 -0.22403678525E+03  0.34696571650E+03  0.17200000000E+03 0.  1.
</event>
<event>
 4    1  0.3211568E-002  0.3676276E+03  0.7818608E-02  0.1055604E+00
         -1   -1    0    0    0  501 -0.00000000000E+00  0.00000000000E+00  0.25900220143E+03  0.25900220143E+03  0.00000000000E+00 0.  1.
          1   -1    0    0  502    0  0.00000000000E+00 -0.00000000000E+00 -0.52181408324E+03  0.52181408324E+03  0.00000000000E+00 0. -1.
          6    1    1    2  502    0 -0.22826749845E+03  0.23121414146E+03 -0.13244982390E+03  0.39075949881E+03  0.17200000000E+03 0. -1.
         -6    1    1    2    0  501  0.22826749845E+03 -0.23121414146E+03 -0.13036205790E+03  0.39005678587E+03  0.17200000000E+03 0.  1.
</event>
<event>
 4    1  0.3211568E-002  0.2196887E+03  0.7818608E-02  0.1134115E+00
         -2   -1    0    0    0  501 -0.00000000000E+00  0.00000000000E+00  0.89924482752E+02  0.89924482752E+02  0.00000000000E+00 0.  1.
          2   -1    0    0  502    0  0.00000000000E+00 -0.00000000000E+00 -0.59354042067E+03  0.59354042067E+03  0.00000000000E+00 0. -1.
          6    1    1    2  502    0  0.96217759898E+02 -0.97063294770E+02 -0.14606263284E+03  0.26381325445E+03  0.17200000000E+03 0.  1.
         -6    1    1    2    0  501 -0.96217759898E+02  0.97063294770E+02 -0.35755330508E+03  0.41965164897E+03  0.17200000000E+03 0.  1.
</event>
<event>
 4    1  0.3211568E-002  0.2134303E+03  0.7818608E-02  0.1138878E+00
         -2   -1    0    0    0  501 -0.00000000000E+00  0.00000000000E+00  0.25980981723E+03  0.25980981723E+03  0.00000000000E+00 0.  1.
          2   -1    0    0  502    0  0.00000000000E+00 -0.00000000000E+00 -0.50442622261E+03  0.50442622261E+03  0.00000000000E+00 0. -1.
          6    1    1    2  502    0 -0.88342299617E+02 -0.90355493678E+02 -0.43095379843E+03  0.48090919468E+03  0.17200000000E+03 0. -1.
         -6    1    1    2    0  501  0.88342299617E+02  0.90355493678E+02  0.18633739306E+03  0.28332684516E+03  0.17200000000E+03 0.  1.
</event>
<event>
 4    1  0.3211568E-002  0.1882895E+03  0.7818608E-02  0.1160013E+00
         -4   -1    0    0    0  501 -0.00000000000E+00  0.00000000000E+00  0.12246291179E+03  0.12246291179E+03  0.00000000000E+00 0.  1.
          4   -1    0    0  502    0  0.00000000000E+00 -0.00000000000E+00 -0.12616387817E+04  0.12616387817E+04  0.00000000000E+00 0. -1.
          6    1    1    2  502    0 -0.59038525717E+02 -0.48819771504E+02  0.37896000156E+02  0.19206515675E+03  0.17200000000E+03 0.  1.
         -6    1    1    2    0  501  0.59038525717E+02  0.48819771504E+02 -0.11770718701E+04  0.11920365368E+04  0.17200000000E+03 0.  1.
</event>
<event>
 4    1  0.3211568E-002  0.2703936E+03  0.7818608E-02  0.1101055E+00
          2   -1    0    0  502    0  0.00000000000E+00  0.00000000000E+00  0.12957375521E+04  0.12957375521E+04  0.00000000000E+00 0. -1.
         -2   -1    0    0    0  501 -0.00000000000E+00 -0.00000000000E+00 -0.58474494620E+02  0.58474494620E+02  0.00000000000E+00 0.  1.
          6    1    1    2  502    0 -0.18497652641E+03  0.96500635814E+02  0.49188389593E+03  0.56130424469E+03  0.17200000000E+03 0. -1.
         -6    1    1    2    0  501  0.18497652641E+03 -0.96500635814E+02  0.74537916152E+03  0.79290780199E+03  0.17200000000E+03 0.  1.
</event>
<event>
 4    1  0.3211568E-002  0.2075675E+03  0.7818608E-02  0.1143507E+00
          2   -1    0    0  502    0  0.00000000000E+00  0.00000000000E+00  0.44804631091E+03  0.44804631091E+03  0.00000000000E+00 0. -1.
         -2   -1    0    0    0  501 -0.00000000000E+00 -0.00000000000E+00 -0.10321984796E+03  0.10321984796E+03  0.00000000000E+00 0.  1.
          6    1    1    2  502    0  0.11427933568E+03 -0.20988541746E+02  0.24449691241E+03  0.32072266154E+03  0.17200000000E+03 0. -1.
         -6    1    1    2    0  501 -0.11427933568E+03  0.20988541746E+02  0.10032955054E+03  0.23054349733E+03  0.17200000000E+03 0.  1.
</event>
<event>
 4    1  0.3211568E-002  0.3286885E+03  0.7818608E-02  0.1071719E+00
          2   -1    0    0  502    0  0.00000000000E+00  0.00000000000E+00  0.14608315896E+04  0.14608315896E+04  0.00000000000E+00 0. -1.
         -2   -1    0    0    0  501 -0.00000000000E+00 -0.00000000000E+00 -0.18772034774E+03  0.18772034774E+03  0.00000000000E+00 0.  1.
          6    1    1    2  502    0 -0.26766400079E+03 -0.82511311388E+02  0.12782400882E+04  0.13198234188E+04  0.17200000000E+03 0. -1.
         -6    1    1    2    0  501  0.26766400079E+03  0.82511311388E+02 -0.51288463091E+01  0.32872851853E+03  0.17200000000E+03 0.  1.
</event>
<event>
 4    1  0.3211568E-002  0.3574009E+03  0.7818608E-02  0.1059618E+00
          2   -1    0    0  502    0  0.00000000000E+00  0.00000000000E+00  0.33881703449E+04  0.33881703449E+04  0.00000000000E+00 0. -1.
         -2   -1    0    0    0  501 -0.00000000000E+00 -0.00000000000E+00 -0.39035558139E+02  0.39035558139E+02  0.00000000000E+00 0.  1.
          6    1    1    2  502    0  0.83385149069E+02  0.30199059216E+03  0.13576506187E+04  0.14039054823E+04  0.17200000000E+03 0. -1.
         -6    1    1    2    0  501 -0.83385149069E+02 -0.30199059216E+03  0.19914841681E+04  0.20233004207E+04  0.17200000000E+03 0.  1.
</event>
<event>
 4    1  0.3211568E-002  0.4497812E+03  0.7818608E-02  0.1027787E+00
         -1   -1    0    0    0  501 -0.00000000000E+00  0.00000000000E+00  0.41822197760E+03  0.41822197760E+03  0.00000000000E+00 0.  1.
          1   -1    0    0  502    0  0.00000000000E+00 -0.00000000000E+00 -0.63856606710E+03  0.63856606710E+03  0.00000000000E+00 0. -1.
          6    1    1    2  502    0  0.30294067551E+03  0.28451018437E+03 -0.37036917903E+03  0.58264605608E+03  0.17200000000E+03 0. -1.
         -6    1    1    2    0  501 -0.30294067551E+03 -0.28451018437E+03  0.15002508953E+03  0.47414198862E+03  0.17200000000E+03 0.  1.
</event>
<event>
 4    1  0.3211568E-002  0.2347517E+03  0.7818608E-02  0.1123339E+00
          2   -1    0    0  502    0  0.00000000000E+00  0.00000000000E+00  0.11665351677E+04  0.11665351677E+04  0.00000000000E+00 0. -1.
         -2   -1    0    0    0  501 -0.00000000000E+00 -0.00000000000E+00 -0.27205636990E+03  0.27205636990E+03  0.00000000000E+00 0.  1.
          6    1    1    2  502    0 -0.89644291368E+02 -0.13224325851E+03  0.11011087496E+04  0.11258547228E+04  0.17200000000E+03 0. -1.
         -6    1    1    2    0  501  0.89644291368E+02  0.13224325851E+03 -0.20662995176E+03  0.31273681484E+03  0.17200000000E+03 0.  1.
</event>
<event>
 4    1  0.3211568E-002  0.2721567E+03  0.7818608E-02  0.1100052E+00
          2   -1    0    0  502    0  0.00000000000E+00  0.00000000000E+00  0.21659207258E+04  0.21659207258E+04  0.00000000000E+00 0. -1.
         -2   -1    0    0    0  501 -0.00000000000E+00 -0.00000000000E+00 -0.37131150125E+02  0.37131150125E+02  0.00000000000E+00 0.  1.
          6    1    1    2  502    0 -0.19924372235E+03 -0.69189722064E+02  0.13740102895E+04  0.14007046635E+04  0.17200000000E+03 0. -1.
         -6    1    1    2    0  501  0.19924372235E+03  0.69189722064E+02  0.75477928614E+03  0.80234721244E+03  0.17200000000E+03 0.  1.
</event>
<event>
 4    1  0.3211568E-002  0.1955353E+03  0.7818608E-02  0.1153562E+00
          1   -1    0    0  502    0  0.00000000000E+00  0.00000000000E+00  0.84455554366E+03  0.84455554366E+03  0.00000000000E+00 0. -1.
         -1   -1    0    0    0  501 -0.00000000000E+00 -0.00000000000E+00 -0.57248829929E+02  0.57248829929E+02  0.00000000000E+00 0.  1.
          6    1    1    2  502    0 -0.86849796826E+02  0.33274035808E+02  0.18740791640E+03  0.27084271413E+03  0.17200000000E+03 0.  1.
         -6    1    1    2    0  501  0.86849796826E+02 -0.33274035808E+02  0.59989879734E+03  0.63096165947E+03  0.17200000000E+03 0. -1.
</event>
<event>
 4    1  0.3211568E-002  0.1849034E+03  0.7818608E-02  0.1163140E+00
         -2   -1    0    0    0  501 -0.00000000000E+00  0.00000000000E+00  0.21471406571E+03  0.21471406571E+03  0.00000000000E+00 0.  1.
          2   -1    0    0  502    0  0.00000000000E+00 -0.00000000000E+00 -0.26483885089E+03  0.26483885089E+03  0.00000000000E+00 0. -1.
          6    1    1    2  502    0  0.37447391229E+02  0.56594570691E+02 -0.17647522169E+03  0.25560273162E+03  0.17200000000E+03 0. -1.
         -6    1    1    2    0  501 -0.37447391229E+02 -0.56594570691E+02  0.12635043651E+03  0.22395018497E+03  0.17200000000E+03 0.  1.
</event>
<event>
 4    1  0.3211568E-002  0.1842391E+03  0.7818608E-02  0.1163762E+00
          2   -1    0    0  502    0  0.00000000000E+00  0.00000000000E+00  0.51090252064E+02  0.51090252064E+02  0.00000000000E+00 0. -1.
         -2   -1    0    0    0  501 -0.00000000000E+00 -0.00000000000E+00 -0.77717511161E+03  0.77717511161E+03  0.00000000000E+00 0.  1.
          6    1    1    2  502    0  0.65799075450E+02 -0.55262771853E+01 -0.20528195480E+03  0.27583462262E+03  0.17200000000E+03 0. -1.
         -6    1    1    2    0  501 -0.65799075450E+02  0.55262771853E+01 -0.52080290474E+03  0.55243074105E+03  0.17200000000E+03 0.  1.
</event>
<event>
 4    1  0.3211568E-002  0.2204022E+03  0.7818608E-02  0.1133584E+00
          2   -1    0    0  502    0  0.00000000000E+00  0.00000000000E+00  0.36396864578E+03  0.36396864578E+03  0.00000000000E+00 0. -1.
         -2   -1    0    0    0  501 -0.00000000000E+00 -0.00000000000E+00 -0.19066762923E+03  0.19066762923E+03  0.00000000000E+00 0.  1.
          6    1    1    2  502    0  0.13680727673E+03  0.16639928370E+02 -0.65245842323E+02  0.22985677741E+03  0.17200000000E+03 0. -1.
         -6    1    1    2    0  501 -0.13680727673E+03 -0.16639928370E+02  0.23854685888E+03  0.32477949760E+03  0.17200000000E+03 0. -1.
</event>
<event>
 4    1  0.3211568E-002  0.2910250E+03  0.7818608E-02  0.1089815E+00
         -2   -1    0    0    0  501 -0.00000000000E+00  0.00000000000E+00  0.63118292197E+03  0.63118292197E+03  0.00000000000E+00 0.  1.
          2   -1    0    0  502    0  0.00000000000E+00 -0.00000000000E+00 -0.13561396313E+03  0.13561396313E+03  0.00000000000E+00 0. -1.
          6    1    1    2  502    0  0.20999294916E+03  0.10495009934E+03  0.20843483356E+03  0.35796737545E+03  0.17200000000E+03 0. -1.
         -6    1    1    2    0  501 -0.20999294916E+03 -0.10495009934E+03  0.28713412529E+03  0.40882950964E+03  0.17200000000E+03 0.  1.
</event>
<event>
 4    1  0.3211568E-002  0.2047204E+03  0.7818608E-02  0.1145816E+00
          1   -1    0    0  502    0  0.00000000000E+00  0.00000000000E+00  0.58296149406E+03  0.58296149406E+03  0.00000000000E+00 0. -1.
         -1   -1    0    0    0  501 -0.00000000000E+00 -0.00000000000E+00 -0.21474090392E+03  0.21474090392E+03  0.00000000000E+00 0.  1.
          6    1    1    2  502    0  0.27599315752E+01 -0.11099027461E+03  0.50941584508E+03  0.54901271524E+03  0.17200000000E+03 0. -1.
         -6    1    1    2    0  501 -0.27599315752E+01  0.11099027461E+03 -0.14119525495E+03  0.24868968274E+03  0.17200000000E+03 0.  1.
</event>
<event>
 4    1  0.3211568E-002  0.1754973E+03  0.7818608E-02  0.1172233E+00
         -2   -1    0    0    0  501 -0.00000000000E+00  0.00000000000E+00  0.19379892009E+03  0.19379892009E+03  0.00000000000E+00 0.  1.
          2   -1    0    0  502    0  0.00000000000E+00 -0.00000000000E+00 -0.16191625060E+03  0.16191625060E+03  0.00000000000E+00 0. -1.
          6    1    1    2  502    0  0.34482873871E+02  0.51210294149E+01 -0.82371130665E+01  0.17569047659E+03  0.17200000000E+03 0. -1.
         -6    1    1    2    0  501 -0.34482873871E+02 -0.51210294149E+01  0.40119782559E+02  0.18002469410E+03  0.17200000000E+03 0.  1.
</event>
<event>
 4    1  0.3211568E-002  0.2019623E+03  0.7818608E-02  0.1148094E+00
         -2   -1    0    0    0  501 -0.00000000000E+00  0.00000000000E+00  0.69204886299E+02  0.69204886299E+02  0.00000000000E+00 0.  1.
          2   -1    0    0  502    0  0.00000000000E+00 -0.00000000000E+00 -0.62739651577E+03  0.62739651577E+03  0.00000000000E+00 0. -1.
          6    1    1    2  502    0 -0.10584342645E+03  0.13953908838E+01 -0.36481997431E+03  0.41699207630E+03  0.17200000000E+03 0. -1.
         -6    1    1    2    0  501  0.10584342645E+03 -0.13953908838E+01 -0.19337165516E+03  0.27960932578E+03  0.17200000000E+03 0.  1.
</event>
<event>
 4    1  0.3211568E-002  0.1936956E+03  0.7818608E-02  0.1155170E+00
         -2   -1    0    0    0  501 -0.00000000000E+00  0.00000000000E+00  0.33742376958E+02  0.33742376958E+02  0.00000000000E+00 0.  1.
          2   -1    0    0  502    0  0.00000000000E+00 -0.00000000000E+00 -0.18935692122E+04  0.18935692122E+04  0.00000000000E+00 0. -1.
          6    1    1    2  502    0  0.88830553301E+02 -0.65652281171E+01 -0.15490612070E+04  0.15611241438E+04  0.17200000000E+03 0. -1.
         -6    1    1    2    0  501 -0.88830553301E+02  0.65652281171E+01 -0.31076562825E+03  0.36618744534E+03  0.17200000000E+03 0.  1.
</event>
<event>
 4    1  0.3211568E-002  0.8652539E+03  0.7818608E-02  0.9470089E-01
         -1   -1    0    0    0  501 -0.00000000000E+00  0.00000000000E+00  0.73319512677E+03  0.73319512677E+03  0.00000000000E+00 0.  1.
          1   -1    0    0  502    0  0.00000000000E+00 -0.00000000000E+00 -0.10453368797E+04  0.10453368797E+04  0.00000000000E+00 0. -1.
          6    1    1    2  502    0  0.28231556169E+03 -0.79961126608E+03 -0.20658712532E+02  0.86550045386E+03  0.17200000000E+03 0. -1.
         -6    1    1    2    0  501 -0.28231556169E+03  0.79961126608E+03 -0.29148304039E+03  0.91303155261E+03  0.17200000000E+03 0.  1.
</event>
<event>
 4    1  0.3211568E-002  0.2268557E+03  0.7818608E-02  0.1128873E+00
         -2   -1    0    0    0  501 -0.00000000000E+00  0.00000000000E+00  0.33767551662E+02  0.33767551662E+02  0.00000000000E+00 0.  1.
          2   -1    0    0  502    0  0.00000000000E+00 -0.00000000000E+00 -0.18511178216E+04  0.18511178216E+04  0.00000000000E+00 0. -1.
          6    1    1    2  502    0 -0.83465047816E+02  0.12211918170E+03 -0.13048212656E+04  0.13243949728E+04  0.17200000000E+03 0. -1.
         -6    1    1    2    0  501  0.83465047816E+02 -0.12211918170E+03 -0.51252900428E+03  0.56049040043E+03  0.17200000000E+03 0.  1.
</event>
<event>
 4    1  0.3211568E-002  0.4118428E+03  0.7818608E-02  0.1039754E+00
         -2   -1    0    0    0  501 -0.00000000000E+00  0.00000000000E+00  0.12429978657E+03  0.12429978657E+03  0.00000000000E+00 0.  1.
          2   -1    0    0  502    0  0.00000000000E+00 -0.00000000000E+00 -0.13826414542E+04  0.13826414542E+04  0.00000000000E+00 0. -1.
          6    1    1    2  502    0  0.15406219006E+03  0.34102099975E+03 -0.54300567352E+03  0.68152009666E+03  0.17200000000E+03 0. -1.
         -6    1    1    2    0  501 -0.15406219006E+03 -0.34102099975E+03 -0.71533599408E+03  0.82542114409E+03  0.17200000000E+03 0.  1.
</event>
<event>
 4    1  0.3211568E-002  0.1799727E+03  0.7818608E-02  0.1167829E+00
         -1   -1    0    0    0  501 -0.00000000000E+00  0.00000000000E+00  0.10950709875E+03  0.10950709875E+03  0.00000000000E+00 0.  1.
          1   -1    0    0  502    0  0.00000000000E+00 -0.00000000000E+00 -0.29591976759E+03  0.29591976759E+03  0.00000000000E+00 0. -1.
          6    1    1    2  502    0 -0.50722462283E+02 -0.15277877212E+02 -0.88825628709E+02  0.20069921282E+03  0.17200000000E+03 0.  1.
         -6    1    1    2    0  501  0.50722462283E+02  0.15277877212E+02 -0.97587040135E+02  0.20472765352E+03  0.17200000000E+03 0. -1.
</event>
<event>
 4    1  0.3211568E-002  0.3763200E+03  0.7818608E-02  0.1052302E+00
          1   -1    0    0  502    0  0.00000000000E+00  0.00000000000E+00  0.82352486537E+03  0.82352486537E+03  0.00000000000E+00 0. -1.
         -1   -1    0    0    0  501 -0.00000000000E+00 -0.00000000000E+00 -0.17652032747E+03  0.17652032747E+03  0.00000000000E+00 0.  1.
          6    1    1    2  502    0  0.33119953108E+03 -0.48369530916E+02  0.24316939353E+03  0.44804921031E+03  0.17200000000E+03 0. -1.
         -6    1    1    2    0  501 -0.33119953108E+03  0.48369530916E+02  0.40383514437E+03  0.55199598253E+03  0.17200000000E+03 0.  1.
</event>
<event>
 4    1  0.3211568E-002  0.1971588E+03  0.7818608E-02  0.1152158E+00
         -2   -1    0    0    0  501 -0.00000000000E+00  0.00000000000E+00  0.10911967475E+03  0.10911967475E+03  0.00000000000E+00 0.  1.
          2   -1    0    0  502    0  0.00000000000E+00 -0.00000000000E+00 -0.36705596364E+03  0.36705596364E+03  0.00000000000E+00 0. -1.
          6    1    1    2  502    0 -0.63802339415E+02  0.72227836013E+02 -0.88077567764E+02  0.21593808546E+03  0.17200000000E+03 0.  1.
         -6    1    1    2    0  501  0.63802339415E+02 -0.72227836013E+02 -0.16985872113E+03  0.26023755293E+03  0.17200000000E+03 0.  1.
</event>
<event>
 4    1  0.3211568E-002  0.2045421E+03  0.7818608E-02  0.1145962E+00
         -2   -1    0    0    0  501 -0.00000000000E+00  0.00000000000E+00  0.10602365198E+03  0.10602365198E+03  0.00000000000E+00 0.  1.
          2   -1    0    0  502    0  0.00000000000E+00 -0.00000000000E+00 -0.43915664052E+03  0.43915664052E+03  0.00000000000E+00 0. -1.
          6    1    1    2  502    0 -0.89449828837E+02 -0.65208747777E+02 -0.79743899761E+02  0.21953710897E+03  0.17200000000E+03 0. -1.
         -6    1    1    2    0  501  0.89449828837E+02  0.65208747777E+02 -0.25338908878E+03  0.32564318353E+03  0.17200000000E+03 0. -1.
</event>
<event>
 4    1  0.3211568E-002  0.2201807E+03  0.7818608E-02  0.1133748E+00
         -1   -1    0    0    0  501 -0.00000000000E+00  0.00000000000E+00  0.17443556547E+03  0.17443556547E+03  0.00000000000E+00 0.  1.
          1   -1    0    0  502    0  0.00000000000E+00 -0.00000000000E+00 -0.89254936128E+03  0.89254936128E+03  0.00000000000E+00 0. -1.
          6    1    1    2  502    0  0.45079388734E+02 -0.12985918622E+03 -0.80176549224E+03  0.83144901472E+03  0.17200000000E+03 0. -1.
         -6    1    1    2    0  501 -0.45079388734E+02  0.12985918622E+03  0.83651696434E+02  0.23553591202E+03  0.17200000000E+03 0.  1.
</event>
<event>
 4    1  0.3211568E-002  0.1987736E+03  0.7818608E-02  0.1150778E+00
         -2   -1    0    0    0  501 -0.00000000000E+00  0.00000000000E+00  0.91089062124E+02  0.91089062124E+02  0.00000000000E+00 0.  1.
          2   -1    0    0  502    0  0.00000000000E+00 -0.00000000000E+00 -0.43593692476E+03  0.43593692476E+03  0.00000000000E+00 0. -1.
          6    1    1    2  502    0 -0.88897099583E+02  0.44991663750E+02 -0.19103815010E+03  0.27569279808E+03  0.17200000000E+03 0. -1.
         -6    1    1    2    0  501  0.88897099583E+02 -0.44991663750E+02 -0.15380971253E+03  0.25133318880E+03  0.17200000000E+03 0.  1.
</event>
<event>
 4    1  0.3211568E-002  0.4310941E+03  0.7818608E-02  0.1033515E+00
         -2   -1    0    0    0  501 -0.00000000000E+00  0.00000000000E+00  0.17049919083E+03  0.17049919083E+03  0.00000000000E+00 0.  1.
          2   -1    0    0  502    0  0.00000000000E+00 -0.00000000000E+00 -0.10917382142E+04  0.10917382142E+04  0.00000000000E+00 0. -1.
          6    1    1    2  502    0  0.14397695948E+03  0.36814225971E+03 -0.43535065593E+03  0.61267632716E+03  0.17200000000E+03 0. -1.
         -6    1    1    2    0  501 -0.14397695948E+03 -0.36814225971E+03 -0.48588836740E+03  0.64956107782E+03  0.17200000000E+03 0.  1.
</event>
<event>
 4    1  0.3211568E-002  0.2700540E+03  0.7818608E-02  0.1101249E+00
          1   -1    0    0  502    0  0.00000000000E+00  0.00000000000E+00  0.28504002545E+03  0.28504002545E+03  0.00000000000E+00 0. -1.
         -1   -1    0    0    0  501 -0.00000000000E+00 -0.00000000000E+00 -0.25985329855E+03  0.25985329855E+03  0.00000000000E+00 0.  1.
          6    1    1    2  502    0 -0.20818111321E+03  0.24076606741E+01  0.46384749679E+02  0.27400860886E+03  0.17200000000E+03 0.  1.
         -6    1    1    2    0  501  0.20818111321E+03 -0.24076606741E+01 -0.21198022781E+02  0.27088471514E+03  0.17200000000E+03 0.  1.
</event>
<event>
 4    1  0.3211568E-002  0.1899889E+03  0.7818608E-02  0.1158471E+00
         -1   -1    0    0    0  501 -0.00000000000E+00  0.00000000000E+00  0.30267452178E+02  0.30267452178E+02  0.00000000000E+00 0.  1.
          1   -1    0    0  502    0  0.00000000000E+00 -0.00000000000E+00 -0.13965807111E+04  0.13965807111E+04  0.00000000000E+00 0. -1.
          6    1    1    2  502    0  0.31570531110E+02 -0.74263694700E+02 -0.95583481536E+03  0.97453372904E+03  0.17200000000E+03 0.  1.
         -6    1    1    2    0  501 -0.31570531110E+02  0.74263694700E+02 -0.41047844352E+03  0.45231443419E+03  0.17200000000E+03 0.  1.
</event>
<event>
 4    1  0.3211568E-002  0.1750967E+03  0.7818608E-02  0.1172635E+00
         -2   -1    0    0    0  501 -0.00000000000E+00  0.00000000000E+00  0.12637843432E+03  0.12637843432E+03  0.00000000000E+00 0.  1.
          2   -1    0    0  502    0  0.00000000000E+00 -0.00000000000E+00 -0.25139439617E+03  0.25139439617E+03  0.00000000000E+00 0. -1.
          6    1    1    2  502    0 -0.57490108172E+01  0.32276740709E+02 -0.97845584320E+02  0.20058065083E+03  0.17200000000E+03 0. -1.
         -6    1    1    2    0  501  0.57490108172E+01 -0.32276740709E+02 -0.27170377530E+02  0.17719217966E+03  0.17200000000E+03 0.  1.
</event>
<event>
 4    1  0.3211568E-002  0.2056375E+03  0.7818608E-02  0.1145068E+00
          2   -1    0    0  502    0  0.00000000000E+00  0.00000000000E+00  0.85855539499E+03  0.85855539499E+03  0.00000000000E+00 0. -1.
         -2   -1    0    0    0  501 -0.00000000000E+00 -0.00000000000E+00 -0.61618524549E+02  0.61618524549E+02  0.00000000000E+00 0.  1.
          6    1    1    2  502    0  0.53405994370E+01 -0.11257996521E+03  0.60457107751E+03  0.63858668819E+03  0.17200000000E+03 0. -1.
         -6    1    1    2    0  501 -0.53405994370E+01  0.11257996521E+03  0.19236579293E+03  0.28158723135E+03  0.17200000000E+03 0.  1.
</event>
<event>
 4    1  0.3211568E-002  0.3300340E+03  0.7818608E-02  0.1071122E+00
          2   -1    0    0  502    0  0.00000000000E+00  0.00000000000E+00  0.10605053217E+03  0.10605053217E+03  0.00000000000E+00 0. -1.
         -2   -1    0    0    0  501 -0.00000000000E+00 -0.00000000000E+00 -0.11382071047E+04  0.11382071047E+04  0.00000000000E+00 0.  1.
          6    1    1    2  502    0 -0.13187104978E+03 -0.24889450473E+03 -0.32168626924E+03  0.46087363135E+03  0.17200000000E+03 0. -1.
         -6    1    1    2    0  501  0.13187104978E+03  0.24889450473E+03 -0.71047030329E+03  0.78338400553E+03  0.17200000000E+03 0.  1.
</event>
<event>
 4    1  0.3211568E-002  0.2998415E+03  0.7818608E-02  0.1085320E+00
         -2   -1    0    0    0  501 -0.00000000000E+00  0.00000000000E+00  0.19452261858E+03  0.19452261858E+03  0.00000000000E+00 0.  1.
          2   -1    0    0  502    0  0.00000000000E+00 -0.00000000000E+00 -0.25967149594E+04  0.25967149594E+04  0.00000000000E+00 0. -1.
          6    1    1    2  502    0 -0.24441146719E+03  0.24165430083E+02 -0.24664327354E+04  0.24845915905E+04  0.17200000000E+03 0. -1.
         -6    1    1    2    0  501  0.24441146719E+03 -0.24165430083E+02  0.64240394634E+02  0.30664598743E+03  0.17200000000E+03 0.  1.
</event>
<event>
 4    1  0.3211568E-002  0.1933434E+03  0.7818608E-02  0.1155480E+00
         -2   -1    0    0    0  501 -0.00000000000E+00  0.00000000000E+00  0.65113619054E+03  0.65113619054E+03  0.00000000000E+00 0.  1.
          2   -1    0    0  502    0  0.00000000000E+00 -0.00000000000E+00 -0.10555527317E+03  0.10555527317E+03  0.00000000000E+00 0. -1.
          6    1    1    2  502    0 -0.66957026622E+02 -0.57571144397E+02  0.17269789390E+02  0.19411317757E+03  0.17200000000E+03 0. -1.
         -6    1    1    2    0  501  0.66957026622E+02  0.57571144397E+02  0.52831112798E+03  0.56257828613E+03  0.17200000000E+03 0.  1.
</event>
<event>
 4    1  0.3211568E-002  0.2927514E+03  0.7818608E-02  0.1088921E+00
         -1   -1    0    0    0  501 -0.00000000000E+00  0.00000000000E+00  0.10186549415E+03  0.10186549415E+03  0.00000000000E+00 0.  1.
          1   -1    0    0  502    0  0.00000000000E+00 -0.00000000000E+00 -0.84721791759E+03  0.84721791759E+03  0.00000000000E+00 0. -1.
          6    1    1    2  502    0 -0.23349441237E+03  0.39996453789E+02 -0.41220794297E+03  0.50558752474E+03  0.17200000000E+03 0. -1.
         -6    1    1    2    0  501  0.23349441237E+03 -0.39996453789E+02 -0.33314448046E+03  0.44349588700E+03  0.17200000000E+03 0.  1.
</event>
<event>
 4    1  0.3211568E-002  0.1748489E+03  0.7818608E-02  0.1172884E+00
         -4   -1    0    0    0  501 -0.00000000000E+00  0.00000000000E+00  0.13801282901E+03  0.13801282901E+03  0.00000000000E+00 0.  1.
          4   -1    0    0  502    0  0.00000000000E+00 -0.00000000000E+00 -0.31880110742E+03  0.31880110742E+03  0.00000000000E+00 0. -1.
          6    1    1    2  502    0  0.30194942138E+02  0.87399925035E+01 -0.21656859863E+03  0.27834166040E+03  0.17200000000E+03 0. -1.
         -6    1    1    2    0  501 -0.30194942138E+02 -0.87399925035E+01  0.35780320221E+02  0.17847227604E+03  0.17200000000E+03 0.  1.
</event>
<event>
 4    1  0.3211568E-002  0.1872611E+03  0.7818608E-02  0.1160955E+00
         -2   -1    0    0    0  501 -0.00000000000E+00  0.00000000000E+00  0.46477624599E+02  0.46477624599E+02  0.00000000000E+00 0.  1.
          2   -1    0    0  502    0  0.00000000000E+00 -0.00000000000E+00 -0.75456481121E+03  0.75456481121E+03  0.00000000000E+00 0. -1.
          6    1    1    2  502    0  0.55025776584E+02 -0.49546729498E+02 -0.35813831315E+03  0.40414077478E+03  0.17200000000E+03 0.  1.
         -6    1    1    2    0  501 -0.55025776584E+02  0.49546729498E+02 -0.34994887346E+03  0.39690166103E+03  0.17200000000E+03 0.  1.
</event>
<event>
 4    1  0.3211568E-002  0.6051832E+03  0.7818608E-02  0.9894711E-01
          2   -1    0    0  502    0  0.00000000000E+00  0.00000000000E+00  0.84837190593E+03  0.84837190593E+03  0.00000000000E+00 0. -1.
         -2   -1    0    0    0  501 -0.00000000000E+00 -0.00000000000E+00 -0.55790397740E+03  0.55790397740E+03  0.00000000000E+00 0.  1.
          6    1    1    2  502    0 -0.44976020516E+03  0.36657671223E+03  0.47965073135E+03  0.77221211605E+03  0.17200000000E+03 0. -1.
         -6    1    1    2    0  501  0.44976020516E+03 -0.36657671223E+03 -0.18918280282E+03  0.63406376728E+03  0.17200000000E+03 0.  1.
</event>
<event>
 4    1  0.3211568E-002  0.2317061E+03  0.7818608E-02  0.1125445E+00
          1   -1    0    0  502    0  0.00000000000E+00  0.00000000000E+00  0.66229872257E+02  0.66229872257E+02  0.00000000000E+00 0. -1.
         -1   -1    0    0    0  501 -0.00000000000E+00 -0.00000000000E+00 -0.95191925737E+03  0.95191925737E+03  0.00000000000E+00 0.  1.
          6    1    1    2  502    0  0.13659784207E+03  0.73788419330E+02 -0.24671605106E+03  0.33846197886E+03  0.17200000000E+03 0. -1.
         -6    1    1    2    0  501 -0.13659784207E+03 -0.73788419330E+02 -0.63897333405E+03  0.67968715077E+03  0.17200000000E+03 0.  1.
</event>
<event>
 4    1  0.3211568E-002  0.1734814E+03  0.7818608E-02  0.1174265E+00
          2   -1    0    0  502    0  0.00000000000E+00  0.00000000000E+00  0.21066974109E+04  0.21066974109E+04  0.00000000000E+00 0. -1.
         -2   -1    0    0    0  501 -0.00000000000E+00 -0.00000000000E+00 -0.46817470213E+02  0.46817470213E+02  0.00000000000E+00 0.  1.
          6    1    1    2  502    0 -0.20547325641E+02 -0.94653324553E+01  0.19275078884E+04  0.19352990583E+04  0.17200000000E+03 0. -1.
         -6    1    1    2    0  501  0.20547325641E+02  0.94653324553E+01  0.13237205228E+03  0.21821582283E+03  0.17200000000E+03 0.  1.
</event>
<event>
 4    1  0.3211568E-002  0.8373470E+03  0.7818608E-02  0.9507478E-01
          2   -1    0    0  502    0  0.00000000000E+00  0.00000000000E+00  0.15666377226E+04  0.15666377226E+04  0.00000000000E+00 0. -1.
         -2   -1    0    0    0  501 -0.00000000000E+00 -0.00000000000E+00 -0.62556794521E+03  0.62556794521E+03  0.00000000000E+00 0.  1.
          6    1    1    2  502    0 -0.73102262879E+03 -0.37036730601E+03  0.10552508205E+04  0.13471096166E+04  0.17200000000E+03 0. -1.
         -6    1    1    2    0  501  0.73102262879E+03  0.37036730601E+03 -0.11418104304E+03  0.84509605120E+03  0.17200000000E+03 0.  1.
</event>
<event>
 4    1  0.3211568E-002  0.2425721E+03  0.7818608E-02  0.1118091E+00
         -2   -1    0    0    0  501 -0.00000000000E+00  0.00000000000E+00  0.90039045508E+02  0.90039045508E+02  0.00000000000E+00 0.  1.
          2   -1    0    0  502    0  0.00000000000E+00 -0.00000000000E+00 -0.67875536139E+03  0.67875536139E+03  0.00000000000E+00 0. -1.
          6    1    1    2  502    0 -0.76626150717E+02  0.15292371200E+03 -0.36849470157E+03  0.44116841881E+03  0.17200000000E+03 0. -1.
         -6    1    1    2    0  501  0.76626150717E+02 -0.15292371200E+03 -0.22022161431E+03  0.32762598809E+03  0.17200000000E+03 0.  1.
</event>
<event>
 4    1  0.3211568E-002  0.1731901E+03  0.7818608E-02  0.1174561E+00
         -2   -1    0    0    0  501 -0.00000000000E+00  0.00000000000E+00  0.14065088508E+03  0.14065088508E+03  0.00000000000E+00 0.  1.
          2   -1    0    0  502    0  0.00000000000E+00 -0.00000000000E+00 -0.21325906032E+03  0.21325906032E+03  0.00000000000E+00 0. -1.
          6    1    1    2  502    0 -0.48598767350E+01  0.19677642917E+02 -0.36812448458E+02  0.17705926803E+03  0.17200000000E+03 0.  1.
         -6    1    1    2    0  501  0.48598767350E+01 -0.19677642917E+02 -0.35795726774E+02  0.17685067737E+03  0.17200000000E+03 0.  1.
</event>
<event>
 4    1  0.3211568E-002  0.2924051E+03  0.7818608E-02  0.1089100E+00
         -1   -1    0    0    0  501 -0.00000000000E+00  0.00000000000E+00  0.25087720663E+03  0.25087720663E+03  0.00000000000E+00 0.  1.
          1   -1    0    0  502    0  0.00000000000E+00 -0.00000000000E+00 -0.16226669064E+04  0.16226669064E+04  0.00000000000E+00 0. -1.
          6    1    1    2  502    0  0.11980532723E+03 -0.20387115404E+03 -0.15185007466E+04  0.15463975172E+04  0.17200000000E+03 0. -1.
         -6    1    1    2    0  501 -0.11980532723E+03  0.20387115404E+03  0.14671104682E+03  0.32714659580E+03  0.17200000000E+03 0.  1.
</event>
<event>
 4    1  0.3211568E-002  0.2131123E+03  0.7818608E-02  0.1139125E+00
         -1   -1    0    0    0  501 -0.00000000000E+00  0.00000000000E+00  0.34206857755E+03  0.34206857755E+03  0.00000000000E+00 0.  1.
          1   -1    0    0  502    0  0.00000000000E+00 -0.00000000000E+00 -0.18208409788E+03  0.18208409788E+03  0.00000000000E+00 0. -1.
          6    1    1    2  502    0  0.12561835711E+03  0.72710797372E+01 -0.56394535379E+02  0.22044768963E+03  0.17200000000E+03 0. -1.
         -6    1    1    2    0  501 -0.12561835711E+03 -0.72710797372E+01  0.21637901505E+03  0.30370498580E+03  0.17200000000E+03 0.  1.
</event>
<event>
 4    1  0.3211568E-002  0.1938471E+03  0.7818608E-02  0.1155037E+00
          1   -1    0    0  502    0  0.00000000000E+00  0.00000000000E+00  0.20728272652E+03  0.20728272652E+03  0.00000000000E+00 0. -1.
         -1   -1    0    0    0  501 -0.00000000000E+00 -0.00000000000E+00 -0.19845691989E+03  0.19845691989E+03  0.00000000000E+00 0.  1.
          6    1    1    2  502    0  0.83205441834E+02  0.32704068537E+02 -0.55266867691E+02  0.20157164561E+03  0.17200000000E+03 0.  1.
         -6    1    1    2    0  501 -0.83205441834E+02 -0.32704068537E+02  0.64092674325E+02  0.20416800080E+03  0.17200000000E+03 0. -1.
</event>
<event>
 4    1  0.3211568E-002  0.2694319E+03  0.7818608E-02  0.1101605E+00
          1   -1    0    0  502    0  0.00000000000E+00  0.00000000000E+00  0.16972127608E+04  0.16972127608E+04  0.00000000000E+00 0. -1.
         -1   -1    0    0    0  501 -0.00000000000E+00 -0.00000000000E+00 -0.42884832516E+02  0.42884832516E+02  0.00000000000E+00 0.  1.
          6    1    1    2  502    0 -0.40865259734E+02  0.20332141105E+03  0.87174764596E+03  0.91243494228E+03  0.17200000000E+03 0. -1.
         -6    1    1    2    0  501  0.40865259734E+02 -0.20332141105E+03  0.78258028232E+03  0.82766265104E+03  0.17200000000E+03 0.  1.
</event>
<event>
 4    1  0.3211568E-002  0.2032037E+03  0.7818608E-02  0.1147064E+00
          2   -1    0    0  502    0  0.00000000000E+00  0.00000000000E+00  0.10878082242E+04  0.10878082242E+04  0.00000000000E+00 0. -1.
         -2   -1    0    0    0  501 -0.00000000000E+00 -0.00000000000E+00 -0.37987501795E+02  0.37987501795E+02  0.00000000000E+00 0.  1.
          6    1    1    2  502    0 -0.85141449941E+02  0.66773202726E+02  0.50939624176E+03  0.54843072326E+03  0.17200000000E+03 0. -1.
         -6    1    1    2    0  501  0.85141449941E+02 -0.66773202726E+02  0.54042448066E+03  0.57736500274E+03  0.17200000000E+03 0.  1.
</event>
<event>
 4    1  0.3211568E-002  0.2006176E+03  0.7818608E-02  0.1149219E+00
         -1   -1    0    0    0  501 -0.00000000000E+00  0.00000000000E+00  0.53289421261E+02  0.53289421261E+02  0.00000000000E+00 0.  1.
          1   -1    0    0  502    0  0.00000000000E+00 -0.00000000000E+00 -0.11386462547E+04  0.11386462547E+04  0.00000000000E+00 0. -1.
          6    1    1    2  502    0 -0.94280775358E+02  0.42125706235E+02 -0.19686174851E+03  0.28107292248E+03  0.17200000000E+03 0. -1.
         -6    1    1    2    0  501  0.94280775358E+02 -0.42125706235E+02 -0.88849508497E+03  0.91086275352E+03  0.17200000000E+03 0. -1.
</event>
<event>
 4    1  0.3211568E-002  0.1855892E+03  0.7818608E-02  0.1162501E+00
          2   -1    0    0  502    0  0.00000000000E+00  0.00000000000E+00  0.11285253866E+04  0.11285253866E+04  0.00000000000E+00 0. -1.
         -2   -1    0    0    0  501 -0.00000000000E+00 -0.00000000000E+00 -0.33154539590E+02  0.33154539590E+02  0.00000000000E+00 0.  1.
          6    1    1    2  502    0  0.28462113188E+02  0.63633653174E+02  0.38397234333E+03  0.42647168035E+03  0.17200000000E+03 0. -1.
         -6    1    1    2    0  501 -0.28462113188E+02 -0.63633653174E+02  0.71139850369E+03  0.73520824585E+03  0.17200000000E+03 0. -1.
</event>
<event>
 4    1  0.3211568E-002  0.2947877E+03  0.7818608E-02  0.1087876E+00
          1   -1    0    0  502    0  0.00000000000E+00  0.00000000000E+00  0.88934611794E+03  0.88934611794E+03  0.00000000000E+00 0. -1.
         -1   -1    0    0    0  501 -0.00000000000E+00 -0.00000000000E+00 -0.11892385785E+03  0.11892385785E+03  0.00000000000E+00 0.  1.
          6    1    1    2  502    0 -0.13931754803E+03  0.19469573605E+03  0.59812377624E+03  0.66682221058E+03  0.17200000000E+03 0. -1.
         -6    1    1    2    0  501  0.13931754803E+03 -0.19469573605E+03  0.17229848385E+03  0.34144776521E+03  0.17200000000E+03 0.  1.
</event>
<event>
 4    1  0.3211568E-002  0.2310342E+03  0.7818608E-02  0.1125914E+00
         -2   -1    0    0    0  501 -0.00000000000E+00  0.00000000000E+00  0.65777822303E+03  0.65777822303E+03  0.00000000000E+00 0.  1.
          2   -1    0    0  502    0  0.00000000000E+00 -0.00000000000E+00 -0.44042339823E+03  0.44042339823E+03  0.00000000000E+00 0. -1.
          6    1    1    2  502    0 -0.47787774070E+02  0.14665985571E+03 -0.38726492726E+03  0.45094446278E+03  0.17200000000E+03 0. -1.
         -6    1    1    2    0  501  0.47787774070E+02 -0.14665985571E+03  0.60461975206E+03  0.64725715849E+03  0.17200000000E+03 0.  1.
</event>
<event>
 4    1  0.3211568E-002  0.1983577E+03  0.7818608E-02  0.1151132E+00
         -3   -1    0    0    0  501 -0.00000000000E+00  0.00000000000E+00  0.25253310973E+03  0.25253310973E+03  0.00000000000E+00 0.  1.
          3   -1    0    0  502    0  0.00000000000E+00 -0.00000000000E+00 -0.15885678108E+03  0.15885678108E+03  0.00000000000E+00 0. -1.
          6    1    1    2  502    0  0.58115251729E+02 -0.79902436692E+02  0.18325574164E+02  0.19920243106E+03  0.17200000000E+03 0. -1.
         -6    1    1    2    0  501 -0.58115251729E+02  0.79902436692E+02  0.75350754489E+02  0.21218745975E+03  0.17200000000E+03 0. -1.
</event>
<event>
 4    1  0.3211568E-002  0.3178906E+03  0.7818608E-02  0.1076624E+00
         -2   -1    0    0    0  501 -0.00000000000E+00  0.00000000000E+00  0.27904355537E+03  0.27904355537E+03  0.00000000000E+00 0.  1.
          2   -1    0    0  502    0  0.00000000000E+00 -0.00000000000E+00 -0.37008601237E+03  0.37008601237E+03  0.00000000000E+00 0. -1.
          6    1    1    2  502    0  0.21780038346E+03 -0.15502727892E+03 -0.93061852719E+02  0.33123250546E+03  0.17200000000E+03 0. -1.
         -6    1    1    2    0  501 -0.21780038346E+03  0.15502727892E+03  0.20193957168E+01  0.31789706227E+03  0.17200000000E+03 0. -1.
</event>
<event>
 4    1  0.3211568E-002  0.2012615E+03  0.7818608E-02  0.1148679E+00
          2   -1    0    0  502    0  0.00000000000E+00  0.00000000000E+00  0.59316889538E+03  0.59316889538E+03  0.00000000000E+00 0. -1.
         -2   -1    0    0    0  501 -0.00000000000E+00 -0.00000000000E+00 -0.94473651471E+02  0.94473651471E+02  0.00000000000E+00 0.  1.
          6    1    1    2  502    0  0.10433777089E+03  0.59858553132E+01  0.43036101777E+03  0.47509662861E+03  0.17200000000E+03 0. -1.
         -6    1    1    2    0  501 -0.10433777089E+03 -0.59858553132E+01  0.68334226137E+02  0.21254591824E+03  0.17200000000E+03 0.  1.
</event>
<event>
 4    1  0.3211568E-002  0.2662777E+03  0.7818608E-02  0.1103429E+00
         -2   -1    0    0    0  501 -0.00000000000E+00  0.00000000000E+00  0.12022977314E+04  0.12022977314E+04  0.00000000000E+00 0.  1.
          2   -1    0    0  502    0  0.00000000000E+00 -0.00000000000E+00 -0.99999207266E+02  0.99999207266E+02  0.00000000000E+00 0. -1.
          6    1    1    2  502    0 -0.20213803487E+03 -0.21448033925E+02  0.13407887772E+03  0.29812908069E+03  0.17200000000E+03 0. -1.
         -6    1    1    2    0  501  0.20213803487E+03  0.21448033925E+02  0.96821964646E+03  0.10041678580E+04  0.17200000000E+03 0.  1.
</event>
<event>
 4    1  0.3211568E-002  0.2384740E+03  0.7818608E-02  0.1120814E+00
          2   -1    0    0  502    0  0.00000000000E+00  0.00000000000E+00  0.38578368505E+03  0.38578368505E+03  0.00000000000E+00 0. -1.
         -2   -1    0    0    0  501 -0.00000000000E+00 -0.00000000000E+00 -0.16629010457E+03  0.16629010457E+03  0.00000000000E+00 0.  1.
          6    1    1    2  502    0  0.55853122241E+02  0.15545509611E+03  0.16744884852E+02  0.23906118325E+03  0.17200000000E+03 0.  1.
         -6    1    1    2    0  501 -0.55853122241E+02 -0.15545509611E+03  0.20274869562E+03  0.31301260637E+03  0.17200000000E+03 0.  1.
</event>
<event>
 4    1  0.3211568E-002  0.3258736E+03  0.7818608E-02  0.1072977E+00
          1   -1    0    0  502    0  0.00000000000E+00  0.00000000000E+00  0.89586919020E+02  0.89586919020E+02  0.00000000000E+00 0. -1.
         -1   -1    0    0    0  501 -0.00000000000E+00 -0.00000000000E+00 -0.11956889752E+04  0.11956889752E+04  0.00000000000E+00 0.  1.
          6    1    1    2  502    0  0.37909020292E+02 -0.27417605785E+03 -0.61275253980E+03  0.69401677181E+03  0.17200000000E+03 0. -1.
         -6    1    1    2    0  501 -0.37909020292E+02  0.27417605785E+03 -0.49334951636E+03  0.59125912239E+03  0.17200000000E+03 0.  1.
</event>
<event>
 4    1  0.3211568E-002  0.2082897E+03  0.7818608E-02  0.1142928E+00
          2   -1    0    0  502    0  0.00000000000E+00  0.00000000000E+00  0.18003938205E+04  0.18003938205E+04  0.00000000000E+00 0. -1.
         -2   -1    0    0    0  501 -0.00000000000E+00 -0.00000000000E+00 -0.26604578219E+02  0.26604578219E+02  0.00000000000E+00 0.  1.
          6    1    1    2  502    0 -0.50515695824E+01 -0.11736720619E+03  0.11673305660E+04  0.11857677807E+04  0.17200000000E+03 0. -1.
         -6    1    1    2    0  501  0.50515695824E+01  0.11736720619E+03  0.60645867630E+03  0.64123061803E+03  0.17200000000E+03 0.  1.
</event>
<event>
 4    1  0.3211568E-002  0.1942992E+03  0.7818608E-02  0.1154640E+00
         -2   -1    0    0    0  501 -0.00000000000E+00  0.00000000000E+00  0.32402779560E+03  0.32402779560E+03  0.00000000000E+00 0.  1.
          2   -1    0    0  502    0  0.00000000000E+00 -0.00000000000E+00 -0.12696332374E+03  0.12696332374E+03  0.00000000000E+00 0. -1.
          6    1    1    2  502    0 -0.78170184650E+01  0.90039231043E+02  0.16323843625E+03  0.25376949378E+03  0.17200000000E+03 0.  1.
         -6    1    1    2    0  501  0.78170184650E+01 -0.90039231043E+02  0.33826035613E+02  0.19722162556E+03  0.17200000000E+03 0.  1.
</event>
<event>
 4    1  0.3211568E-002  0.5644096E+03  0.7818608E-02  0.9982126E-01
         -1   -1    0    0    0  501 -0.00000000000E+00  0.00000000000E+00  0.77894587230E+03  0.77894587230E+03  0.00000000000E+00 0.  1.
          1   -1    0    0  502    0  0.00000000000E+00 -0.00000000000E+00 -0.45251625300E+03  0.45251625300E+03  0.00000000000E+00 0. -1.
          6    1    1    2  502    0  0.53537045591E+03  0.48504417177E+02 -0.27812751307E+02  0.56509446351E+03  0.17200000000E+03 0. -1.
         -6    1    1    2    0  501 -0.53537045591E+03 -0.48504417177E+02  0.35424237060E+03  0.66636766179E+03  0.17200000000E+03 0.  1.
</event>
<event>
 4    1  0.3211568E-002  0.3481752E+03  0.7818608E-02  0.1063367E+00
          2   -1    0    0  502    0  0.00000000000E+00  0.00000000000E+00  0.18004045566E+04  0.18004045566E+04  0.00000000000E+00 0. -1.
         -2   -1    0    0    0  501 -0.00000000000E+00 -0.00000000000E+00 -0.20106101489E+03  0.20106101489E+03  0.00000000000E+00 0.  1.
          6    1    1    2  502    0  0.11003483417E+02 -0.30252415836E+03  0.16158143208E+04  0.16529010443E+04  0.17200000000E+03 0. -1.
         -6    1    1    2    0  501 -0.11003483417E+02  0.30252415836E+03 -0.16470779091E+02  0.34856452717E+03  0.17200000000E+03 0.  1.
</event>
<event>
 4    1  0.3211568E-002  0.1749748E+03  0.7818608E-02  0.1172757E+00
         -2   -1    0    0    0  501 -0.00000000000E+00  0.00000000000E+00  0.31907358415E+02  0.31907358415E+02  0.00000000000E+00 0.  1.
          2   -1    0    0  502    0  0.00000000000E+00 -0.00000000000E+00 -0.10179945104E+04  0.10179945104E+04  0.00000000000E+00 0. -1.
          6    1    1    2  502    0 -0.14878836600E+02 -0.28474765904E+02 -0.61884271434E+03  0.64310379968E+03  0.17200000000E+03 0. -1.
         -6    1    1    2    0  501  0.14878836600E+02  0.28474765904E+02 -0.36724443767E+03  0.40679806916E+03  0.17200000000E+03 0.  1.
</event>
<event>
 4    1  0.3211568E-002  0.2648110E+03  0.7818608E-02  0.1104287E+00
         -2   -1    0    0    0  501 -0.00000000000E+00  0.00000000000E+00  0.11283731522E+03  0.11283731522E+03  0.00000000000E+00 0.  1.
          2   -1    0    0  502    0  0.00000000000E+00 -0.00000000000E+00 -0.95293260080E+03  0.95293260080E+03  0.00000000000E+00 0. -1.
          6    1    1    2  502    0  0.14745515237E+03  0.13710516016E+03 -0.73433040478E+03  0.78061897895E+03  0.17200000000E+03 0. -1.
         -6    1    1    2    0  501 -0.14745515237E+03 -0.13710516016E+03 -0.10576488080E+03  0.28515093707E+03  0.17200000000E+03 0.  1.
</event>
<event>
 4    1  0.3211568E-002  0.1807473E+03  0.7818608E-02  0.1167082E+00
         -1   -1    0    0    0  501 -0.00000000000E+00  0.00000000000E+00  0.21917574405E+03  0.21917574405E+03  0.00000000000E+00 0.  1.
          1   -1    0    0  502    0  0.00000000000E+00 -0.00000000000E+00 -0.17196028789E+03  0.17196028789E+03  0.00000000000E+00 0. -1.
          6    1    1    2  502    0  0.45918976639E+02  0.31257565669E+02 -0.47765707620E+02  0.18695226838E+03  0.17200000000E+03 0. -1.
         -6    1    1    2    0  501 -0.45918976639E+02 -0.31257565669E+02  0.94981163786E+02  0.20418376356E+03  0.17200000000E+03 0.  1.
</event>
<event>
 4    1  0.3211568E-002  0.1798195E+03  0.7818608E-02  0.1167978E+00
         -2   -1    0    0    0  501 -0.00000000000E+00  0.00000000000E+00  0.20642095133E+03  0.20642095133E+03  0.00000000000E+00 0.  1.
          2   -1    0    0  502    0  0.00000000000E+00 -0.00000000000E+00 -0.16086129367E+03  0.16086129367E+03  0.00000000000E+00 0. -1.
          6    1    1    2  502    0  0.52378582977E+02  0.27428935444E+01 -0.69472557574E+01  0.17995361564E+03  0.17200000000E+03 0. -1.
         -6    1    1    2    0  501 -0.52378582977E+02 -0.27428935444E+01  0.52506913424E+02  0.18732862936E+03  0.17200000000E+03 0.  1.
</event>
<event>
 4    1  0.3211568E-002  0.2001490E+03  0.7818608E-02  0.1149613E+00
          2   -1    0    0  502    0  0.00000000000E+00  0.00000000000E+00  0.58375289233E+03  0.58375289233E+03  0.00000000000E+00 0. -1.
         -2   -1    0    0    0  501 -0.00000000000E+00 -0.00000000000E+00 -0.12129955534E+03  0.12129955534E+03  0.00000000000E+00 0.  1.
          6    1    1    2  502    0 -0.10188619292E+03 -0.97388193743E+01  0.46353516695E+03  0.50490047724E+03  0.17200000000E+03 0. -1.
         -6    1    1    2    0  501  0.10188619292E+03  0.97388193743E+01 -0.10818299605E+01  0.20015197043E+03  0.17200000000E+03 0.  1.
</event>
<event>
 4    1  0.3211568E-002  0.1863891E+03  0.7818608E-02  0.1161759E+00
          2   -1    0    0  502    0  0.00000000000E+00  0.00000000000E+00  0.46422983232E+03  0.46422983232E+03  0.00000000000E+00 0. -1.
         -2   -1    0    0    0  501 -0.00000000000E+00 -0.00000000000E+00 -0.80784595427E+02  0.80784595427E+02  0.00000000000E+00 0.  1.
          6    1    1    2  502    0 -0.55959815663E+01 -0.71593122758E+02  0.26567254210E+03  0.32453472829E+03  0.17200000000E+03 0. -1.
         -6    1    1    2    0  501  0.55959815663E+01  0.71593122758E+02  0.11777269479E+03  0.22047969946E+03  0.17200000000E+03 0.  1.
</event>
<event>
 4    1  0.3211568E-002  0.2643910E+03  0.7818608E-02  0.1104533E+00
         -1   -1    0    0    0  501 -0.00000000000E+00  0.00000000000E+00  0.35795787957E+03  0.35795787957E+03  0.00000000000E+00 0.  1.
          1   -1    0    0  502    0  0.00000000000E+00 -0.00000000000E+00 -0.20336591010E+03  0.20336591010E+03  0.00000000000E+00 0. -1.
          6    1    1    2  502    0  0.16218040251E+03 -0.11838968738E+03  0.21337642680E+02  0.26525062871E+03  0.17200000000E+03 0. -1.
         -6    1    1    2    0  501 -0.16218040251E+03  0.11838968738E+03  0.13325432679E+03  0.29607316096E+03  0.17200000000E+03 0.  1.
</event>
<event>
 4    1  0.3211568E-002  0.2802528E+03  0.7818608E-02  0.1095551E+00
          1   -1    0    0  502    0  0.00000000000E+00  0.00000000000E+00  0.25116208741E+03  0.25116208741E+03  0.00000000000E+00 0. -1.
         -1   -1    0    0    0  501 -0.00000000000E+00 -0.00000000000E+00 -0.31438432217E+03  0.31438432217E+03  0.00000000000E+00 0.  1.
          6    1    1    2  502    0  0.12038254218E+02 -0.22093604599E+03 -0.10993678160E+02  0.28046838849E+03  0.17200000000E+03 0. -1.
         -6    1    1    2    0  501 -0.12038254218E+02  0.22093604599E+03 -0.52228556603E+02  0.28507802109E+03  0.17200000000E+03 0.  1.
</event>
<event>
 4    1  0.3211568E-002  0.1789635E+03  0.7818608E-02  0.1168810E+00
         -2   -1    0    0    0  501 -0.00000000000E+00  0.00000000000E+00  0.12118699275E+03  0.12118699275E+03  0.00000000000E+00 0.  1.
          2   -1    0    0  502    0  0.00000000000E+00 -0.00000000000E+00 -0.28240171572E+03  0.28240171572E+03  0.00000000000E+00 0. -1.
          6    1    1    2  502    0  0.40196886948E+02 -0.28777405881E+02 -0.29496563147E+02  0.18137799218E+03  0.17200000000E+03 0.  1.
         -6    1    1    2    0  501 -0.40196886948E+02  0.28777405881E+02 -0.13171815982E+03  0.22221071630E+03  0.17200000000E+03 0. -1.
</event>
<event>
 4    1  0.3211568E-002  0.2069964E+03  0.7818608E-02  0.1143967E+00
          1   -1    0    0  502    0  0.00000000000E+00  0.00000000000E+00  0.38995815186E+03  0.38995815186E+03  0.00000000000E+00 0. -1.
         -1   -1    0    0    0  501 -0.00000000000E+00 -0.00000000000E+00 -0.14069655782E+03  0.14069655782E+03  0.00000000000E+00 0.  1.
          6    1    1    2  502    0 -0.51147490255E+02  0.10318639876E+03  0.24881097730E+03  0.32365784569E+03  0.17200000000E+03 0. -1.
         -6    1    1    2    0  501  0.51147490255E+02 -0.10318639876E+03  0.45061673619E+00  0.20699686400E+03  0.17200000000E+03 0.  1.
</event>
<event>
 4    1  0.3211568E-002  0.1882900E+03  0.7818608E-02  0.1160013E+00
          2   -1    0    0  502    0  0.00000000000E+00  0.00000000000E+00  0.67514814948E+03  0.67514814948E+03  0.00000000000E+00 0. -1.
         -2   -1    0    0    0  501 -0.00000000000E+00 -0.00000000000E+00 -0.10539158727E+03  0.10539158727E+03  0.00000000000E+00 0.  1.
          6    1    1    2  502    0 -0.70110349417E+02  0.30881441347E+02  0.56132257452E+03  0.59206094043E+03  0.17200000000E+03 0. -1.
         -6    1    1    2    0  501  0.70110349417E+02 -0.30881441347E+02  0.84339876905E+01  0.18847879632E+03  0.17200000000E+03 0.  1.
</event>
<event>
 4    1  0.3211568E-002  0.3265422E+03  0.7818608E-02  0.1072677E+00
          1   -1    0    0  502    0  0.00000000000E+00  0.00000000000E+00  0.11929113060E+04  0.11929113060E+04  0.00000000000E+00 0. -1.
         -1   -1    0    0    0  501 -0.00000000000E+00 -0.00000000000E+00 -0.93904940790E+02  0.93904940790E+02  0.00000000000E+00 0.  1.
          6    1    1    2  502    0 -0.14736303017E+03  0.23522313751E+03  0.69064376309E+03  0.76394934032E+03  0.17200000000E+03 0. -1.
         -6    1    1    2    0  501  0.14736303017E+03 -0.23522313751E+03  0.40836260215E+03  0.52286690650E+03  0.17200000000E+03 0.  1.
</event>
<event>
 4    1  0.3211568E-002  0.2212935E+03  0.7818608E-02  0.1132922E+00
         -2   -1    0    0    0  501 -0.00000000000E+00  0.00000000000E+00  0.27465028580E+02  0.27465028580E+02  0.00000000000E+00 0.  1.
          2   -1    0    0  502    0  0.00000000000E+00 -0.00000000000E+00 -0.19792211809E+04  0.19792211809E+04  0.00000000000E+00 0. -1.
          6    1    1    2  502    0 -0.78090036506E+02 -0.11527688433E+03 -0.12917771368E+04  0.13105948973E+04  0.17200000000E+03 0. -1.
         -6    1    1    2    0  501  0.78090036506E+02  0.11527688433E+03 -0.65997901551E+03  0.69609131209E+03  0.17200000000E+03 0.  1.
</event>
<event>
 4    1  0.3211568E-002  0.2618311E+03  0.7818608E-02  0.1106048E+00
         -2   -1    0    0    0  501 -0.00000000000E+00  0.00000000000E+00  0.30077263804E+03  0.30077263804E+03  0.00000000000E+00 0.  1.
          2   -1    0    0  502    0  0.00000000000E+00 -0.00000000000E+00 -0.26272235356E+03  0.26272235356E+03  0.00000000000E+00 0. -1.
          6    1    1    2  502    0  0.96679703579E+02 -0.17211791516E+03 -0.83503319384E+02  0.27482420954E+03  0.17200000000E+03 0. -1.
         -6    1    1    2    0  501 -0.96679703579E+02  0.17211791516E+03  0.12155360386E+03  0.28867078206E+03  0.17200000000E+03 0.  1.
</event>
<event>
 4    1  0.3211568E-002  0.2548486E+03  0.7818608E-02  0.1110278E+00
         -2   -1    0    0    0  501 -0.00000000000E+00  0.00000000000E+00  0.37905571162E+03  0.37905571162E+03  0.00000000000E+00 0.  1.
          2   -1    0    0  502    0  0.00000000000E+00 -0.00000000000E+00 -0.18117327578E+03  0.18117327578E+03  0.00000000000E+00 0. -1.
          6    1    1    2  502    0 -0.57868760987E+02 -0.17892734915E+03  0.33686000431E+02  0.25706523763E+03  0.17200000000E+03 0.  1.
         -6    1    1    2    0  501  0.57868760987E+02  0.17892734915E+03  0.16419643541E+03  0.30316374977E+03  0.17200000000E+03 0.  1.
</event>
<event>
 4    1  0.3211568E-002  0.1752527E+03  0.7818608E-02  0.1172478E+00
          1   -1    0    0  502    0  0.00000000000E+00  0.00000000000E+00  0.91769090992E+03  0.91769090992E+03  0.00000000000E+00 0. -1.
         -1   -1    0    0    0  501 -0.00000000000E+00 -0.00000000000E+00 -0.33805505974E+02  0.33805505974E+02  0.00000000000E+00 0.  1.
          6    1    1    2  502    0  0.29532466633E+02 -0.16042164534E+02  0.48946058339E+03  0.51988958474E+03  0.17200000000E+03 0.  1.
         -6    1    1    2    0  501 -0.29532466633E+02  0.16042164534E+02  0.39442482056E+03  0.43160683116E+03  0.17200000000E+03 0.  1.
</event>
<event>
 4    1  0.3211568E-002  0.2006176E+03  0.7818608E-02  0.1149219E+00
         -1   -1    0    0    0  501 -0.00000000000E+00  0.00000000000E+00  0.37898027482E+03  0.37898027482E+03  0.00000000000E+00 0.  1.
          1   -1    0    0  502    0  0.00000000000E+00 -0.00000000000E+00 -0.14968598351E+03  0.14968598351E+03  0.00000000000E+00 0. -1.
          6    1    1    2  502    0 -0.97712728702E+02  0.33401484490E+02 -0.27828035542E+02  0.20253848049E+03  0.17200000000E+03 0. -1.
         -6    1    1    2    0  501  0.97712728702E+02 -0.33401484490E+02  0.25712232685E+03  0.32612777784E+03  0.17200000000E+03 0.  1.
</event>
<event>
 4    1  0.3211568E-002  0.3421194E+03  0.7818608E-02  0.1065897E+00
         -3   -1    0    0    0  501 -0.00000000000E+00  0.00000000000E+00  0.45562733725E+03  0.45562733725E+03  0.00000000000E+00 0.  1.
          3   -1    0    0  502    0  0.00000000000E+00 -0.00000000000E+00 -0.74264126177E+03  0.74264126177E+03  0.00000000000E+00 0. -1.
          6    1    1    2  502    0 -0.20865725720E+03  0.20958014314E+03 -0.62806078637E+03  0.71519650360E+03  0.17200000000E+03 0. -1.
         -6    1    1    2    0  501  0.20865725720E+03 -0.20958014314E+03  0.34104686185E+03  0.48307209541E+03  0.17200000000E+03 0.  1.
</event>
<event>
 4    1  0.3211568E-002  0.3797203E+03  0.7818608E-02  0.1051037E+00
         -2   -1    0    0    0  501 -0.00000000000E+00  0.00000000000E+00  0.12717840949E+03  0.12717840949E+03  0.00000000000E+00 0.  1.
          2   -1    0    0  502    0  0.00000000000E+00 -0.00000000000E+00 -0.26086540432E+04  0.26086540432E+04  0.00000000000E+00 0. -1.
          6    1    1    2  502    0 -0.25628640235E+03 -0.22118042528E+03 -0.22693089291E+04  0.23008586476E+04  0.17200000000E+03 0. -1.
         -6    1    1    2    0  501  0.25628640235E+03  0.22118042528E+03 -0.21216670460E+03  0.43497380507E+03  0.17200000000E+03 0.  1.
</event>
<event>
 4    1  0.3211568E-002  0.3572049E+03  0.7818608E-02  0.1059696E+00
          2   -1    0    0  502    0  0.00000000000E+00  0.00000000000E+00  0.19193093512E+04  0.19193093512E+04  0.00000000000E+00 0. -1.
         -2   -1    0    0    0  501 -0.00000000000E+00 -0.00000000000E+00 -0.73790169004E+02  0.73790169004E+02  0.00000000000E+00 0.  1.
          6    1    1    2  502    0 -0.30206041920E+03  0.82285240782E+02  0.12364263678E+04  0.12869908782E+04  0.17200000000E+03 0. -1.
         -6    1    1    2    0  501  0.30206041920E+03 -0.82285240782E+02  0.60909281443E+03  0.70610864198E+03  0.17200000000E+03 0.  1.
</event>
<event>
 4    1  0.3211568E-002  0.1926782E+03  0.7818608E-02  0.1156068E+00
         -2   -1    0    0    0  501 -0.00000000000E+00  0.00000000000E+00  0.51055442831E+02  0.51055442831E+02  0.00000000000E+00 0.  1.
          2   -1    0    0  502    0  0.00000000000E+00 -0.00000000000E+00 -0.24132688031E+04  0.24132688031E+04  0.00000000000E+00 0. -1.
          6    1    1    2  502    0 -0.10063466166E+02  0.86253162059E+02 -0.22110404602E+04  0.22194199237E+04  0.17200000000E+03 0. -1.
         -6    1    1    2    0  501  0.10063466166E+02 -0.86253162059E+02 -0.15117290013E+03  0.24490432223E+03  0.17200000000E+03 0.  1.
</event>
<event>
 4    1  0.3211568E-002  0.1784207E+03  0.7818608E-02  0.1169340E+00
          2   -1    0    0  502    0  0.00000000000E+00  0.00000000000E+00  0.21753363976E+04  0.21753363976E+04  0.00000000000E+00 0. -1.
         -2   -1    0    0    0  501 -0.00000000000E+00 -0.00000000000E+00 -0.29404386446E+02  0.29404386446E+02  0.00000000000E+00 0.  1.
          6    1    1    2  502    0 -0.19465693809E+02  0.43255453524E+02  0.18542643497E+04  0.18628285552E+04  0.17200000000E+03 0. -1.
         -6    1    1    2    0  501  0.19465693809E+02 -0.43255453524E+02  0.29166766143E+03  0.34191222882E+03  0.17200000000E+03 0.  1.
</event>
<event>
 4    1  0.3211568E-002  0.2167038E+03  0.7818608E-02  0.1136365E+00
         -4   -1    0    0    0  501 -0.00000000000E+00  0.00000000000E+00  0.15147024022E+04  0.15147024022E+04  0.00000000000E+00 0.  1.
          4   -1    0    0  502    0  0.00000000000E+00 -0.00000000000E+00 -0.79757342911E+02  0.79757342911E+02  0.00000000000E+00 0. -1.
          6    1    1    2  502    0  0.54621158636E+02  0.11997113017E+03  0.94162351379E+02  0.23627757291E+03  0.17200000000E+03 0. -1.
         -6    1    1    2    0  501 -0.54621158636E+02 -0.11997113017E+03  0.13407827079E+04  0.13581821722E+04  0.17200000000E+03 0.  1.
</event>
<event>
 4    1  0.3211568E-002  0.3643706E+03  0.7818608E-02  0.1056867E+00
         -1   -1    0    0    0  501 -0.00000000000E+00  0.00000000000E+00  0.54574057869E+03  0.54574057869E+03  0.00000000000E+00 0.  1.
          1   -1    0    0  502    0  0.00000000000E+00 -0.00000000000E+00 -0.37760674833E+03  0.37760674833E+03  0.00000000000E+00 0. -1.
          6    1    1    2  502    0 -0.28585625417E+03  0.14652018744E+03  0.35942753048E+03  0.51181452993E+03  0.17200000000E+03 0.  1.
         -6    1    1    2    0  501  0.28585625417E+03 -0.14652018744E+03 -0.19129370013E+03  0.41153279709E+03  0.17200000000E+03 0. -1.
</event>
<event>
 4    1  0.3211568E-002  0.2070319E+03  0.7818608E-02  0.1143938E+00
         -1   -1    0    0    0  501 -0.00000000000E+00  0.00000000000E+00  0.35265862735E+03  0.35265862735E+03  0.00000000000E+00 0.  1.
          1   -1    0    0  502    0  0.00000000000E+00 -0.00000000000E+00 -0.22086789873E+03  0.22086789873E+03  0.00000000000E+00 0. -1.
          6    1    1    2  502    0 -0.19799190791E+02  0.11351736698E+03 -0.12641044227E+03  0.24257328888E+03  0.17200000000E+03 0. -1.
         -6    1    1    2    0  501  0.19799190791E+02 -0.11351736698E+03  0.25820117090E+03  0.33095323720E+03  0.17200000000E+03 0.  1.
</event>
<event>
 4    1  0.3211568E-002  0.1780218E+03  0.7818608E-02  0.1169731E+00
          2   -1    0    0  502    0  0.00000000000E+00  0.00000000000E+00  0.15044388788E+04  0.15044388788E+04  0.00000000000E+00 0. -1.
         -2   -1    0    0    0  501 -0.00000000000E+00 -0.00000000000E+00 -0.65056759647E+02  0.65056759647E+02  0.00000000000E+00 0.  1.
          6    1    1    2  502    0  0.34867885870E-01  0.45910423948E+02  0.13649990847E+04  0.13765588507E+04  0.17200000000E+03 0. -1.
         -6    1    1    2    0  501 -0.34867885870E-01 -0.45910423948E+02  0.74383034437E+02  0.19293678772E+03  0.17200000000E+03 0.  1.
</event>
<event>
 4    1  0.3211568E-002  0.2045913E+03  0.7818608E-02  0.1145922E+00
          2   -1    0    0  502    0  0.00000000000E+00  0.00000000000E+00  0.75010922818E+03  0.75010922818E+03  0.00000000000E+00 0. -1.
         -2   -1    0    0    0  501 -0.00000000000E+00 -0.00000000000E+00 -0.71783491782E+02  0.71783491782E+02  0.00000000000E+00 0.  1.
          6    1    1    2  502    0  0.81804769799E+02  0.74710016048E+02  0.53306442402E+03  0.57097748381E+03  0.17200000000E+03 0. -1.
         -6    1    1    2    0  501 -0.81804769799E+02 -0.74710016048E+02  0.14526131238E+03  0.25091523615E+03  0.17200000000E+03 0.  1.
</event>
<event>
 4    1  0.3211568E-002  0.1876810E+03  0.7818608E-02  0.1160570E+00
         -2   -1    0    0    0  501 -0.00000000000E+00  0.00000000000E+00  0.47840244116E+02  0.47840244116E+02  0.00000000000E+00 0.  1.
          2   -1    0    0  502    0  0.00000000000E+00 -0.00000000000E+00 -0.75450992126E+03  0.75450992126E+03  0.00000000000E+00 0. -1.
          6    1    1    2  502    0 -0.47545875615E+02  0.58133773534E+02 -0.29098842936E+03  0.34626350073E+03  0.17200000000E+03 0.  1.
         -6    1    1    2    0  501  0.47545875615E+02 -0.58133773534E+02 -0.41568124779E+03  0.45608666465E+03  0.17200000000E+03 0. -1.
</event>
<event>
 4    1  0.3211568E-002  0.3184376E+03  0.7818608E-02  0.1076371E+00
         -3   -1    0    0    0  501 -0.00000000000E+00  0.00000000000E+00  0.10656327045E+04  0.10656327045E+04  0.00000000000E+00 0.  1.
          3   -1    0    0  502    0  0.00000000000E+00 -0.00000000000E+00 -0.96854820200E+02  0.96854820200E+02  0.00000000000E+00 0. -1.
          6    1    1    2  502    0  0.24929577798E+03 -0.98336702004E+02  0.56134341344E+03  0.64537502252E+03  0.17200000000E+03 0. -1.
         -6    1    1    2    0  501 -0.24929577798E+03  0.98336702004E+02  0.40743447091E+03  0.51711250223E+03  0.17200000000E+03 0.  1.
</event>
<event>
 4    1  0.3211568E-002  0.2632133E+03  0.7818608E-02  0.1105228E+00
         -2   -1    0    0    0  501 -0.00000000000E+00  0.00000000000E+00  0.34354705593E+03  0.34354705593E+03  0.00000000000E+00 0.  1.
          2   -1    0    0  502    0  0.00000000000E+00 -0.00000000000E+00 -0.21278527183E+03  0.21278527183E+03  0.00000000000E+00 0. -1.
          6    1    1    2  502    0 -0.15828743756E+02  0.19861191212E+03  0.17890742528E+01  0.26321937914E+03  0.17200000000E+03 0. -1.
         -6    1    1    2    0  501  0.15828743756E+02 -0.19861191212E+03  0.12897270984E+03  0.29311294862E+03  0.17200000000E+03 0. -1.
</event>
<event>
 4    1  0.3211568E-002  0.3818059E+03  0.7818608E-02  0.1050268E+00
         -1   -1    0    0    0  501 -0.00000000000E+00  0.00000000000E+00  0.84811205042E+03  0.84811205042E+03  0.00000000000E+00 0.  1.
          1   -1    0    0  502    0  0.00000000000E+00 -0.00000000000E+00 -0.18064450889E+03  0.18064450889E+03  0.00000000000E+00 0. -1.
          6    1    1    2  502    0 -0.15848722008E+02 -0.34050049980E+03  0.22045002057E+03  0.44087864988E+03  0.17200000000E+03 0. -1.
         -6    1    1    2    0  501  0.15848722008E+02  0.34050049980E+03  0.44701752096E+03  0.58787790943E+03  0.17200000000E+03 0.  1.
</event>
<event>
 4    1  0.3211568E-002  0.4986327E+03  0.7818608E-02  0.1014136E+00
          2   -1    0    0  502    0  0.00000000000E+00  0.00000000000E+00  0.14112616146E+04  0.14112616146E+04  0.00000000000E+00 0. -1.
         -2   -1    0    0    0  501 -0.00000000000E+00 -0.00000000000E+00 -0.41675174262E+03  0.41675174262E+03  0.00000000000E+00 0.  1.
          6    1    1    2  502    0 -0.45292543523E+03 -0.11793672258E+03  0.11916937006E+04  0.12918081888E+04  0.17200000000E+03 0. -1.
         -6    1    1    2    0  501  0.45292543523E+03  0.11793672258E+03 -0.19718382865E+03  0.53620516847E+03  0.17200000000E+03 0.  1.
</event>
<event>
 4    1  0.3211568E-002  0.1943178E+03  0.7818608E-02  0.1154624E+00
         -1   -1    0    0    0  501 -0.00000000000E+00  0.00000000000E+00  0.20139434428E+03  0.20139434428E+03  0.00000000000E+00 0.  1.
          1   -1    0    0  502    0  0.00000000000E+00 -0.00000000000E+00 -0.37317162156E+03  0.37317162156E+03  0.00000000000E+00 0. -1.
          6    1    1    2  502    0 -0.40090011599E+01  0.90329045982E+02 -0.28853562767E+03  0.34786810298E+03  0.17200000000E+03 0. -1.
         -6    1    1    2    0  501  0.40090011599E+01 -0.90329045982E+02  0.11675835039E+03  0.22669786286E+03  0.17200000000E+03 0.  1.
</event>
<event>
 4    1  0.3211568E-002  0.2161480E+03  0.7818608E-02  0.1136788E+00
         -1   -1    0    0    0  501 -0.00000000000E+00  0.00000000000E+00  0.38650530410E+02  0.38650530410E+02  0.00000000000E+00 0.  1.
          1   -1    0    0  502    0  0.00000000000E+00 -0.00000000000E+00 -0.12111654133E+04  0.12111654133E+04  0.00000000000E+00 0. -1.
          6    1    1    2  502    0  0.46664557307E+02  0.12230446539E+03 -0.61399415414E+03  0.65092917010E+03  0.17200000000E+03 0. -1.
         -6    1    1    2    0  501 -0.46664557307E+02 -0.12230446539E+03 -0.55852072872E+03  0.59888677358E+03  0.17200000000E+03 0.  1.
</event>
<event>
 4    1  0.3211568E-002  0.1887871E+03  0.7818608E-02  0.1159560E+00
          1   -1    0    0  502    0  0.00000000000E+00  0.00000000000E+00  0.37707143034E+02  0.37707143034E+02  0.00000000000E+00 0. -1.
         -1   -1    0    0    0  501 -0.00000000000E+00 -0.00000000000E+00 -0.10792913777E+04  0.10792913777E+04  0.00000000000E+00 0.  1.
          6    1    1    2  502    0 -0.49726905159E+02  0.59864736250E+02 -0.32392917329E+03  0.37492754107E+03  0.17200000000E+03 0. -1.
         -6    1    1    2    0  501  0.49726905159E+02 -0.59864736250E+02 -0.71765506135E+03  0.74207097964E+03  0.17200000000E+03 0.  1.
</event>
<event>
 4    1  0.3211568E-002  0.4702437E+03  0.7818608E-02  0.1021851E+00
          1   -1    0    0  502    0  0.00000000000E+00  0.00000000000E+00  0.55693776299E+03  0.55693776299E+03  0.00000000000E+00 0. -1.
         -1   -1    0    0    0  501 -0.00000000000E+00 -0.00000000000E+00 -0.53147211571E+03  0.53147211571E+03  0.00000000000E+00 0.  1.
          6    1    1    2  502    0  0.39531124669E+03  0.18781420054E+03  0.28642743893E+03  0.55060860278E+03  0.17200000000E+03 0. -1.
         -6    1    1    2    0  501 -0.39531124669E+03 -0.18781420054E+03 -0.26096179165E+03  0.53780127592E+03  0.17200000000E+03 0.  1.
</event>
<event>
 4    1  0.3211568E-002  0.1905176E+03  0.7818608E-02  0.1157995E+00
         -1   -1    0    0    0  501 -0.00000000000E+00  0.00000000000E+00  0.13236273190E+04  0.13236273190E+04  0.00000000000E+00 0.  1.
          1   -1    0    0  502    0  0.00000000000E+00 -0.00000000000E+00 -0.67472038338E+02  0.67472038338E+02  0.00000000000E+00 0. -1.
          6    1    1    2  502    0 -0.77640659191E+02  0.26169944259E+02  0.92199616167E+02  0.21165468850E+03  0.17200000000E+03 0. -1.
         -6    1    1    2    0  501  0.77640659191E+02 -0.26169944259E+02  0.11639556645E+04  0.11794446688E+04  0.17200000000E+03 0.  1.
</event>
<event>
 4    1  0.3211568E-002  0.1847111E+03  0.7818608E-02  0.1163320E+00
          2   -1    0    0  502    0  0.00000000000E+00  0.00000000000E+00  0.17701120329E+03  0.17701120329E+03  0.00000000000E+00 0. -1.
         -2   -1    0    0    0  501 -0.00000000000E+00 -0.00000000000E+00 -0.20984130548E+03  0.20984130548E+03  0.00000000000E+00 0.  1.
          6    1    1    2  502    0 -0.65521288007E+02 -0.15529040479E+02  0.38793857549E+02  0.18874096975E+03  0.17200000000E+03 0. -1.
         -6    1    1    2    0  501  0.65521288007E+02  0.15529040479E+02 -0.71623959739E+02  0.19811153901E+03  0.17200000000E+03 0.  1.
</event>
<event>
 4    1  0.3211568E-002  0.2780887E+03  0.7818608E-02  0.1096737E+00
          2   -1    0    0  502    0  0.00000000000E+00  0.00000000000E+00  0.54908332846E+03  0.54908332846E+03  0.00000000000E+00 0. -1.
         -2   -1    0    0    0  501 -0.00000000000E+00 -0.00000000000E+00 -0.87732469766E+03  0.87732469766E+03  0.00000000000E+00 0.  1.
          6    1    1    2  502    0 -0.13821869638E+03  0.16924816713E+03  0.48933361593E+03  0.56283277960E+03  0.17200000000E+03 0. -1.
         -6    1    1    2    0  501  0.13821869638E+03 -0.16924816713E+03 -0.81757498513E+03  0.86357524653E+03  0.17200000000E+03 0.  1.
</event>
<event>
 4    1  0.3211568E-002  0.2429786E+03  0.7818608E-02  0.1117824E+00
         -1   -1    0    0    0  501 -0.00000000000E+00  0.00000000000E+00  0.44208450027E+03  0.44208450027E+03  0.00000000000E+00 0.  1.
          1   -1    0    0  502    0  0.00000000000E+00 -0.00000000000E+00 -0.47505870240E+03  0.47505870240E+03  0.00000000000E+00 0. -1.
          6    1    1    2  502    0  0.78801295009E+02  0.15246291501E+03 -0.40529671408E+03  0.47255053803E+03  0.17200000000E+03 0. -1.
         -6    1    1    2    0  501 -0.78801295009E+02 -0.15246291501E+03  0.37232251195E+03  0.44459266464E+03  0.17200000000E+03 0.  1.
</event>
<event>
 4    1  0.3211568E-002  0.3926805E+03  0.7818608E-02  0.1046344E+00
          2   -1    0    0  502    0  0.00000000000E+00  0.00000000000E+00  0.34321480515E+03  0.34321480515E+03  0.00000000000E+00 0. -1.
         -2   -1    0    0    0  501 -0.00000000000E+00 -0.00000000000E+00 -0.19547995681E+04  0.19547995681E+04  0.00000000000E+00 0.  1.
          6    1    1    2  502    0 -0.13154910194E+03  0.32758024951E+03  0.20256733255E+03  0.44185009936E+03  0.17200000000E+03 0. -1.
         -6    1    1    2    0  501  0.13154910194E+03 -0.32758024951E+03 -0.18141520955E+04  0.18561642739E+04  0.17200000000E+03 0.  1.
</event>
<event>
 4    1  0.3211568E-002  0.2072927E+03  0.7818608E-02  0.1143728E+00
          4   -1    0    0  502    0  0.00000000000E+00  0.00000000000E+00  0.10193292238E+03  0.10193292238E+03  0.00000000000E+00 0. -1.
         -4   -1    0    0    0  501 -0.00000000000E+00 -0.00000000000E+00 -0.44515594703E+03  0.44515594703E+03  0.00000000000E+00 0.  1.
          6    1    1    2  502    0 -0.39049191016E+02  0.10891012671E+03 -0.10862558092E+03  0.23402942518E+03  0.17200000000E+03 0. -1.
         -6    1    1    2    0  501  0.39049191016E+02 -0.10891012671E+03 -0.23459744373E+03  0.31305944423E+03  0.17200000000E+03 0.  1.
</event>
<event>
 4    1  0.3211568E-002  0.2182271E+03  0.7818608E-02  0.1135212E+00
         -2   -1    0    0    0  501 -0.00000000000E+00  0.00000000000E+00  0.47076368169E+03  0.47076368169E+03  0.00000000000E+00 0.  1.
          2   -1    0    0  502    0  0.00000000000E+00 -0.00000000000E+00 -0.10227904130E+03  0.10227904130E+03  0.00000000000E+00 0. -1.
          6    1    1    2  502    0  0.67603225925E+02  0.11605554863E+03  0.21419432346E+03  0.30578144928E+03  0.17200000000E+03 0. -1.
         -6    1    1    2    0  501 -0.67603225925E+02 -0.11605554863E+03  0.15429031693E+03  0.26726127370E+03  0.17200000000E+03 0.  1.
</event>
<event>
 4    1  0.3211568E-002  0.2475433E+03  0.7818608E-02  0.1114867E+00
         -2   -1    0    0    0  501 -0.00000000000E+00  0.00000000000E+00  0.23033657778E+02  0.23033657778E+02  0.00000000000E+00 0.  1.
          2   -1    0    0  502    0  0.00000000000E+00 -0.00000000000E+00 -0.29152280782E+04  0.29152280782E+04  0.00000000000E+00 0. -1.
          6    1    1    2  502    0 -0.58504143463E+02 -0.16813972157E+03 -0.18804938065E+04  0.18967168099E+04  0.17200000000E+03 0. -1.
         -6    1    1    2    0  501  0.58504143463E+02  0.16813972157E+03 -0.10117006139E+04  0.10415449260E+04  0.17200000000E+03 0.  1.
</event>
<event>
 4    1  0.3211568E-002  0.2111881E+03  0.7818608E-02  0.1140629E+00
          1   -1    0    0  502    0  0.00000000000E+00  0.00000000000E+00  0.91516142940E+03  0.91516142940E+03  0.00000000000E+00 0. -1.
         -1   -1    0    0    0  501 -0.00000000000E+00 -0.00000000000E+00 -0.26337760212E+03  0.26337760212E+03  0.00000000000E+00 0.  1.
          6    1    1    2  502    0 -0.50859804354E+02 -0.11148853798E+03  0.85785622050E+03  0.88346913294E+03  0.17200000000E+03 0. -1.
         -6    1    1    2    0  501  0.50859804354E+02  0.11148853798E+03 -0.20607239322E+03  0.29506989858E+03  0.17200000000E+03 0.  1.
</event>
<event>
 4    1  0.3211568E-002  0.1724913E+03  0.7818608E-02  0.1175274E+00
         -2   -1    0    0    0  501 -0.00000000000E+00  0.00000000000E+00  0.42056601078E+02  0.42056601078E+02  0.00000000000E+00 0.  1.
          2   -1    0    0  502    0  0.00000000000E+00 -0.00000000000E+00 -0.10372951746E+04  0.10372951746E+04  0.00000000000E+00 0. -1.
          6    1    1    2  502    0 -0.46968750510E+01 -0.12131559606E+02 -0.80194056383E+03  0.82028160000E+03  0.17200000000E+03 0. -1.
         -6    1    1    2    0  501  0.46968750510E+01  0.12131559606E+02 -0.19329800966E+03  0.25907017565E+03  0.17200000000E+03 0.  1.
</event>
<event>
 4    1  0.3211568E-002  0.1930234E+03  0.7818608E-02  0.1155762E+00
          1   -1    0    0  502    0  0.00000000000E+00  0.00000000000E+00  0.32003406171E+03  0.32003406171E+03  0.00000000000E+00 0. -1.
         -1   -1    0    0    0  501 -0.00000000000E+00 -0.00000000000E+00 -0.38933643668E+03  0.38933643668E+03  0.00000000000E+00 0.  1.
          6    1    1    2  502    0  0.70620539165E+02 -0.51834071749E+02  0.26230766659E+03  0.32567367640E+03  0.17200000000E+03 0. -1.
         -6    1    1    2    0  501 -0.70620539165E+02  0.51834071749E+02 -0.33161004156E+03  0.38369682199E+03  0.17200000000E+03 0.  1.
</event>
<event>
 4    1  0.3211568E-002  0.1945441E+03  0.7818608E-02  0.1154426E+00
          3   -1    0    0  502    0  0.00000000000E+00  0.00000000000E+00  0.86185720269E+03  0.86185720269E+03  0.00000000000E+00 0. -1.
         -3   -1    0    0    0  501 -0.00000000000E+00 -0.00000000000E+00 -0.44748844016E+02  0.44748844016E+02  0.00000000000E+00 0.  1.
          6    1    1    2  502    0 -0.28242053159E+02 -0.86404833766E+02  0.47047792319E+03  0.50911382330E+03  0.17200000000E+03 0.  1.
         -6    1    1    2    0  501  0.28242053159E+02  0.86404833766E+02  0.34663043548E+03  0.39749222341E+03  0.17200000000E+03 0.  1.
</event>
<event>
 4    1  0.3211568E-002  0.2421592E+03  0.7818608E-02  0.1118363E+00
         -1   -1    0    0    0  501 -0.00000000000E+00  0.00000000000E+00  0.23190048987E+03  0.23190048987E+03  0.00000000000E+00 0.  1.
          1   -1    0    0  502    0  0.00000000000E+00 -0.00000000000E+00 -0.26406180985E+03  0.26406180985E+03  0.00000000000E+00 0. -1.
          6    1    1    2  502    0 -0.72378078572E+02  0.15433234713E+03 -0.67129280076E+02  0.25129146398E+03  0.17200000000E+03 0. -1.
         -6    1    1    2    0  501  0.72378078572E+02 -0.15433234713E+03  0.34967960094E+02  0.24467083574E+03  0.17200000000E+03 0.  1.
</event>
<event>
 4    1  0.3211568E-002  0.2408986E+03  0.7818608E-02  0.1119196E+00
          2   -1    0    0  502    0  0.00000000000E+00  0.00000000000E+00  0.23274863482E+03  0.23274863482E+03  0.00000000000E+00 0. -1.
         -2   -1    0    0    0  501 -0.00000000000E+00 -0.00000000000E+00 -0.33525913870E+03  0.33525913870E+03  0.00000000000E+00 0.  1.
          6    1    1    2  502    0  0.18995363825E+02  0.16759274929E+03  0.92523276413E+02  0.25805563381E+03  0.17200000000E+03 0. -1.
         -6    1    1    2    0  501 -0.18995363825E+02 -0.16759274929E+03 -0.19503378029E+03  0.30995213972E+03  0.17200000000E+03 0.  1.
</event>
<event>
 4    1  0.3211568E-002  0.3625960E+03  0.7818608E-02  0.1057561E+00
          1   -1    0    0  502    0  0.00000000000E+00  0.00000000000E+00  0.74656885897E+03  0.74656885897E+03  0.00000000000E+00 0. -1.
         -1   -1    0    0    0  501 -0.00000000000E+00 -0.00000000000E+00 -0.49771807009E+03  0.49771807009E+03  0.00000000000E+00 0.  1.
          6    1    1    2  502    0 -0.13373328158E+03  0.28984012088E+03  0.62453412741E+03  0.72216255966E+03  0.17200000000E+03 0. -1.
         -6    1    1    2    0  501  0.13373328158E+03 -0.28984012088E+03 -0.37568333853E+03  0.52212436940E+03  0.17200000000E+03 0.  1.
</event>
<event>
 4    1  0.3211568E-002  0.3047164E+03  0.7818608E-02  0.1082906E+00
         -1   -1    0    0    0  501 -0.00000000000E+00  0.00000000000E+00  0.36867301535E+03  0.36867301535E+03  0.00000000000E+00 0.  1.
          1   -1    0    0  502    0  0.00000000000E+00 -0.00000000000E+00 -0.33585024691E+04  0.33585024691E+04  0.00000000000E+00 0. -1.
          6    1    1    2  502    0 -0.15962712025E+03  0.19438941464E+03 -0.32872655161E+04  0.33013583016E+04  0.17200000000E+03 0. -1.
         -6    1    1    2    0  501  0.15962712025E+03 -0.19438941464E+03  0.29743606235E+03  0.42581718287E+03  0.17200000000E+03 0.  1.
</event>
<event>
 4    1  0.3211568E-002  0.1795338E+03  0.7818608E-02  0.1168255E+00
         -2   -1    0    0    0  501 -0.00000000000E+00  0.00000000000E+00  0.45667274043E+03  0.45667274043E+03  0.00000000000E+00 0.  1.
          2   -1    0    0  502    0  0.00000000000E+00 -0.00000000000E+00 -0.22464125546E+03  0.22464125546E+03  0.00000000000E+00 0. -1.
          6    1    1    2  502    0  0.46266401641E+02  0.22534670270E+02 -0.16609391098E+03  0.24458041326E+03  0.17200000000E+03 0. -1.
         -6    1    1    2    0  501 -0.46266401641E+02 -0.22534670270E+02  0.39812539596E+03  0.43673358263E+03  0.17200000000E+03 0.  1.
</event>
<event>
 4    1  0.3211568E-002  0.1823223E+03  0.7818608E-02  0.1165574E+00
          2   -1    0    0  502    0  0.00000000000E+00  0.00000000000E+00  0.18303221113E+04  0.18303221113E+04  0.00000000000E+00 0. -1.
         -2   -1    0    0    0  501 -0.00000000000E+00 -0.00000000000E+00 -0.26727415983E+02  0.26727415983E+02  0.00000000000E+00 0.  1.
          6    1    1    2  502    0  0.56178641744E+02 -0.22391704535E+02  0.14274531343E+04  0.14390496444E+04  0.17200000000E+03 0.  1.
         -6    1    1    2    0  501 -0.56178641744E+02  0.22391704535E+02  0.37614156095E+03  0.41799988289E+03  0.17200000000E+03 0.  1.
</event>
<event>
 4    1  0.3211568E-002  0.1881912E+03  0.7818608E-02  0.1160103E+00
          1   -1    0    0  502    0  0.00000000000E+00  0.00000000000E+00  0.84062306244E+02  0.84062306244E+02  0.00000000000E+00 0. -1.
         -1   -1    0    0    0  501 -0.00000000000E+00 -0.00000000000E+00 -0.74363463556E+03  0.74363463556E+03  0.00000000000E+00 0.  1.
          6    1    1    2  502    0  0.62789567001E+02  0.43467310656E+02 -0.60225142232E+03  0.63096966053E+03  0.17200000000E+03 0.  1.
         -6    1    1    2    0  501 -0.62789567001E+02 -0.43467310656E+02 -0.57320906997E+02  0.19672728128E+03  0.17200000000E+03 0. -1.
</event>
<event>
 4    1  0.3211568E-002  0.3666306E+03  0.7818608E-02  0.1055989E+00
          1   -1    0    0  502    0  0.00000000000E+00  0.00000000000E+00  0.15046398429E+04  0.15046398429E+04  0.00000000000E+00 0. -1.
         -1   -1    0    0    0  501 -0.00000000000E+00 -0.00000000000E+00 -0.95088066497E+02  0.95088066497E+02  0.00000000000E+00 0.  1.
          6    1    1    2  502    0  0.21032279761E+03  0.24616726180E+03  0.90150912500E+03  0.97320948538E+03  0.17200000000E+03 0. -1.
         -6    1    1    2    0  501 -0.21032279761E+03 -0.24616726180E+03  0.50804265136E+03  0.62651842398E+03  0.17200000000E+03 0.  1.
</event>
<event>
 4    1  0.3211568E-002  0.2474921E+03  0.7818608E-02  0.1114900E+00
         -2   -1    0    0    0  501 -0.00000000000E+00  0.00000000000E+00  0.93912142410E+02  0.93912142410E+02  0.00000000000E+00 0.  1.
          2   -1    0    0  502    0  0.00000000000E+00 -0.00000000000E+00 -0.74952067467E+03  0.74952067467E+03  0.00000000000E+00 0. -1.
          6    1    1    2  502    0 -0.15273781071E+03  0.91320742224E+02 -0.47974152785E+03  0.53981871988E+03  0.17200000000E+03 0. -1.
         -6    1    1    2    0  501  0.15273781071E+03 -0.91320742224E+02 -0.17586700440E+03  0.30361409720E+03  0.17200000000E+03 0.  1.
</event>
<event>
 4    1  0.3211568E-002  0.2216778E+03  0.7818608E-02  0.1132638E+00
          4   -1    0    0  502    0  0.00000000000E+00  0.00000000000E+00  0.10911123741E+04  0.10911123741E+04  0.00000000000E+00 0. -1.
         -4   -1    0    0    0  501 -0.00000000000E+00 -0.00000000000E+00 -0.51534531207E+02  0.51534531207E+02  0.00000000000E+00 0.  1.
          6    1    1    2  502    0 -0.12568963376E+03 -0.61312191457E+02  0.72264472831E+03  0.75588125536E+03  0.17200000000E+03 0. -1.
         -6    1    1    2    0  501  0.12568963376E+03  0.61312191457E+02  0.31693311456E+03  0.38676564992E+03  0.17200000000E+03 0.  1.
</event>
<event>
 4    1  0.3211568E-002  0.2062646E+03  0.7818608E-02  0.1144559E+00
          2   -1    0    0  502    0  0.00000000000E+00  0.00000000000E+00  0.11877591472E+03  0.11877591472E+03  0.00000000000E+00 0. -1.
         -2   -1    0    0    0  501 -0.00000000000E+00 -0.00000000000E+00 -0.36583785815E+03  0.36583785815E+03  0.00000000000E+00 0.  1.
          6    1    1    2  502    0  0.70452777932E+02 -0.89428806170E+02 -0.15855043598E+03  0.26016023148E+03  0.17200000000E+03 0.  1.
         -6    1    1    2    0  501 -0.70452777932E+02  0.89428806170E+02 -0.88511507448E+02  0.22445354139E+03  0.17200000000E+03 0.  1.
</event>
<event>
 4    1  0.3211568E-002  0.4457742E+03  0.7818608E-02  0.1028990E+00
          2   -1    0    0  502    0  0.00000000000E+00  0.00000000000E+00  0.84879720189E+03  0.84879720189E+03  0.00000000000E+00 0. -1.
         -2   -1    0    0    0  501 -0.00000000000E+00 -0.00000000000E+00 -0.32775078969E+03  0.32775078969E+03  0.00000000000E+00 0.  1.
          6    1    1    2  502    0 -0.41125313524E+03 -0.12119882417E+01  0.57495969814E+03  0.72752543918E+03  0.17200000000E+03 0. -1.
         -6    1    1    2    0  501  0.41125313524E+03  0.12119882417E+01 -0.53913285945E+02  0.44902255240E+03  0.17200000000E+03 0.  1.
</event>
<event>
 4    1  0.3211568E-002  0.1958921E+03  0.7818608E-02  0.1153252E+00
         -2   -1    0    0    0  501 -0.00000000000E+00  0.00000000000E+00  0.54607728368E+02  0.54607728368E+02  0.00000000000E+00 0.  1.
          2   -1    0    0  502    0  0.00000000000E+00 -0.00000000000E+00 -0.13890441330E+04  0.13890441330E+04  0.00000000000E+00 0. -1.
          6    1    1    2  502    0 -0.83338838216E+02  0.42945872760E+02 -0.11746064947E+04  0.11908291764E+04  0.17200000000E+03 0. -1.
         -6    1    1    2    0  501  0.83338838216E+02 -0.42945872760E+02 -0.15982990998E+03  0.25282268503E+03  0.17200000000E+03 0.  1.
</event>
<event>
 4    1  0.3211568E-002  0.3008151E+03  0.7818608E-02  0.1084834E+00
          2   -1    0    0  502    0  0.00000000000E+00  0.00000000000E+00  0.18402766381E+03  0.18402766381E+03  0.00000000000E+00 0. -1.
         -2   -1    0    0    0  501 -0.00000000000E+00 -0.00000000000E+00 -0.51570552505E+03  0.51570552505E+03  0.00000000000E+00 0.  1.
          6    1    1    2  502    0 -0.80148197441E+02  0.23341373634E+03 -0.24129509853E+03  0.38563328492E+03  0.17200000000E+03 0. -1.
         -6    1    1    2    0  501  0.80148197441E+02 -0.23341373634E+03 -0.90382762713E+02  0.31409990395E+03  0.17200000000E+03 0.  1.
</event>
<event>
 4    1  0.3211568E-002  0.1832070E+03  0.7818608E-02  0.1164735E+00
         -1   -1    0    0    0  501 -0.00000000000E+00  0.00000000000E+00  0.45927485607E+02  0.45927485607E+02  0.00000000000E+00 0.  1.
          1   -1    0    0  502    0  0.00000000000E+00 -0.00000000000E+00 -0.78151060260E+03  0.78151060260E+03  0.00000000000E+00 0. -1.
          6    1    1    2  502    0 -0.56884432598E+02  0.27293942459E+02 -0.26242689138E+03  0.32005104481E+03  0.17200000000E+03 0.  1.
         -6    1    1    2    0  501  0.56884432598E+02 -0.27293942459E+02 -0.47315622561E+03  0.50738704339E+03  0.17200000000E+03 0.  1.
</event>
<event>
 4    1  0.3211568E-002  0.2436388E+03  0.7818608E-02  0.1117392E+00
          2   -1    0    0  502    0  0.00000000000E+00  0.00000000000E+00  0.10957748960E+04  0.10957748960E+04  0.00000000000E+00 0. -1.
         -2   -1    0    0    0  501 -0.00000000000E+00 -0.00000000000E+00 -0.62415072149E+02  0.62415072149E+02  0.00000000000E+00 0.  1.
          6    1    1    2  502    0  0.17220259253E+03 -0.11051148200E+02  0.72713556679E+03  0.76686765041E+03  0.17200000000E+03 0. -1.
         -6    1    1    2    0  501 -0.17220259253E+03  0.11051148200E+02  0.30622425708E+03  0.39132231776E+03  0.17200000000E+03 0.  1.
</event>
<event>
 4    1  0.3211568E-002  0.2976986E+03  0.7818608E-02  0.1086397E+00
          3   -1    0    0  502    0  0.00000000000E+00  0.00000000000E+00  0.10700587074E+04  0.10700587074E+04  0.00000000000E+00 0. -1.
         -3   -1    0    0    0  501 -0.00000000000E+00 -0.00000000000E+00 -0.14738281344E+03  0.14738281344E+03  0.00000000000E+00 0.  1.
          6    1    1    2  502    0 -0.14790176271E+03  0.19278355399E+03  0.86422109473E+03  0.91405827532E+03  0.17200000000E+03 0. -1.
         -6    1    1    2    0  501  0.14790176271E+03 -0.19278355399E+03  0.58454799219E+02  0.30338324551E+03  0.17200000000E+03 0.  1.
</event>
<event>
 4    1  0.3211568E-002  0.2020246E+03  0.7818608E-02  0.1148042E+00
         -2   -1    0    0    0  501 -0.00000000000E+00  0.00000000000E+00  0.18481162517E+02  0.18481162517E+02  0.00000000000E+00 0.  1.
          2   -1    0    0  502    0  0.00000000000E+00 -0.00000000000E+00 -0.24388587205E+04  0.24388587205E+04  0.00000000000E+00 0. -1.
          6    1    1    2  502    0  0.33745260420E+02 -0.10045491359E+03 -0.15878754918E+04  0.16006756416E+04  0.17200000000E+03 0.  1.
         -6    1    1    2    0  501 -0.33745260420E+02  0.10045491359E+03 -0.83250206616E+03  0.85666424136E+03  0.17200000000E+03 0.  1.
</event>
<event>
 4    1  0.3211568E-002  0.2143227E+03  0.7818608E-02  0.1138188E+00
          2   -1    0    0  502    0  0.00000000000E+00  0.00000000000E+00  0.14330479125E+04  0.14330479125E+04  0.00000000000E+00 0. -1.
         -2   -1    0    0    0  501 -0.00000000000E+00 -0.00000000000E+00 -0.69606108627E+02  0.69606108627E+02  0.00000000000E+00 0.  1.
          6    1    1    2  502    0  0.61400228116E+02 -0.11216167818E+03  0.12335762607E+04  0.12520561573E+04  0.17200000000E+03 0. -1.
         -6    1    1    2    0  501 -0.61400228116E+02  0.11216167818E+03  0.12986554323E+03  0.25059786389E+03  0.17200000000E+03 0.  1.
</event>
<event>
 4    1  0.3211568E-002  0.2052650E+03  0.7818608E-02  0.1145371E+00
         -2   -1    0    0    0  501 -0.00000000000E+00  0.00000000000E+00  0.10608411802E+03  0.10608411802E+03  0.00000000000E+00 0.  1.
          2   -1    0    0  502    0  0.00000000000E+00 -0.00000000000E+00 -0.73371028445E+03  0.73371028445E+03  0.00000000000E+00 0. -1.
          6    1    1    2  502    0 -0.44416848654E+02  0.10284396338E+03 -0.59819195794E+03  0.63242972400E+03  0.17200000000E+03 0. -1.
         -6    1    1    2    0  501  0.44416848654E+02 -0.10284396338E+03 -0.29434208497E+02  0.20736467847E+03  0.17200000000E+03 0.  1.
</event>
<event>
 4    1  0.3211568E-002  0.2661658E+03  0.7818608E-02  0.1103494E+00
         -2   -1    0    0    0  501 -0.00000000000E+00  0.00000000000E+00  0.29848827903E+03  0.29848827903E+03  0.00000000000E+00 0.  1.
          2   -1    0    0  502    0  0.00000000000E+00 -0.00000000000E+00 -0.23753807432E+03  0.23753807432E+03  0.00000000000E+00 0. -1.
          6    1    1    2  502    0 -0.63428474682E+02  0.19296904829E+03  0.38147593854E+02  0.26888559633E+03  0.17200000000E+03 0. -1.
         -6    1    1    2    0  501  0.63428474682E+02 -0.19296904829E+03  0.22802610861E+02  0.26714075702E+03  0.17200000000E+03 0.  1.
</event>
<event>
 4    1  0.3211568E-002  0.3397194E+03  0.7818608E-02  0.1066915E+00
          1   -1    0    0  502    0  0.00000000000E+00  0.00000000000E+00  0.23047063296E+04  0.23047063296E+04  0.00000000000E+00 0. -1.
         -1   -1    0    0    0  501 -0.00000000000E+00 -0.00000000000E+00 -0.23760195289E+03  0.23760195289E+03  0.00000000000E+00 0.  1.
          6    1    1    2  502    0 -0.25056195675E+03  0.15180248811E+03  0.21628396322E+04  0.21893571121E+04  0.17200000000E+03 0. -1.
         -6    1    1    2    0  501  0.25056195675E+03 -0.15180248811E+03 -0.95735255471E+02  0.35295117043E+03  0.17200000000E+03 0.  1.
</event>
<event>
 4    1  0.3211568E-002  0.4176819E+03  0.7818608E-02  0.1037823E+00
         -2   -1    0    0    0  501 -0.00000000000E+00  0.00000000000E+00  0.90235126766E+02  0.90235126766E+02  0.00000000000E+00 0.  1.
          2   -1    0    0  502    0  0.00000000000E+00 -0.00000000000E+00 -0.21280137345E+04  0.21280137345E+04  0.00000000000E+00 0. -1.
          6    1    1    2  502    0 -0.24120768884E+03 -0.29443681786E+03 -0.68345340405E+03  0.80097861667E+03  0.17200000000E+03 0. -1.
         -6    1    1    2    0  501  0.24120768884E+03  0.29443681786E+03 -0.13543252037E+04  0.14172702446E+04  0.17200000000E+03 0. -1.
</event>
<event>
 4    1  0.3211568E-002  0.1900900E+03  0.7818608E-02  0.1158380E+00
         -1   -1    0    0    0  501 -0.00000000000E+00  0.00000000000E+00  0.77055564908E+02  0.77055564908E+02  0.00000000000E+00 0.  1.
          1   -1    0    0  502    0  0.00000000000E+00 -0.00000000000E+00 -0.48074301058E+03  0.48074301058E+03  0.00000000000E+00 0. -1.
          6    1    1    2  502    0 -0.40494352767E+02  0.70074477454E+02 -0.15813804783E+03  0.24726881560E+03  0.17200000000E+03 0. -1.
         -6    1    1    2    0  501  0.40494352767E+02 -0.70074477454E+02 -0.24554939784E+03  0.31052975989E+03  0.17200000000E+03 0.  1.
</event>
<event>
 4    1  0.3211568E-002  0.1728455E+03  0.7818608E-02  0.1174913E+00
          2   -1    0    0  502    0  0.00000000000E+00  0.00000000000E+00  0.11513027846E+04  0.11513027846E+04  0.00000000000E+00 0. -1.
         -2   -1    0    0    0  501 -0.00000000000E+00 -0.00000000000E+00 -0.45821988618E+02  0.45821988618E+02  0.00000000000E+00 0.  1.
          6    1    1    2  502    0  0.17074999176E+02  0.12962022597E-01  0.94692554266E+03  0.96257131638E+03  0.17200000000E+03 0. -1.
         -6    1    1    2    0  501 -0.17074999176E+02 -0.12962022597E-01  0.15855525335E+03  0.23455345687E+03  0.17200000000E+03 0.  1.
</event>
<event>
 4    1  0.3211568E-002  0.2109288E+03  0.7818608E-02  0.1140833E+00
          1   -1    0    0  502    0  0.00000000000E+00  0.00000000000E+00  0.15583975241E+03  0.15583975241E+03  0.00000000000E+00 0. -1.
         -1   -1    0    0    0  501 -0.00000000000E+00 -0.00000000000E+00 -0.34694586844E+03  0.34694586844E+03  0.00000000000E+00 0.  1.
          6    1    1    2  502    0 -0.79970209211E+02 -0.92258917320E+02  0.10249940489E+02  0.21117765854E+03  0.17200000000E+03 0. -1.
         -6    1    1    2    0  501  0.79970209211E+02  0.92258917320E+02 -0.20135605652E+03  0.29160796231E+03  0.17200000000E+03 0.  1.
</event>
<event>
 4    1  0.3211568E-002  0.1838316E+03  0.7818608E-02  0.1164145E+00
          2   -1    0    0  502    0  0.00000000000E+00  0.00000000000E+00  0.51452091105E+03  0.51452091105E+03  0.00000000000E+00 0. -1.
         -2   -1    0    0    0  501 -0.00000000000E+00 -0.00000000000E+00 -0.20578207512E+03  0.20578207512E+03  0.00000000000E+00 0.  1.
          6    1    1    2  502    0 -0.61888004385E+02  0.19491836332E+02  0.45153790854E+03  0.48752491180E+03  0.17200000000E+03 0. -1.
         -6    1    1    2    0  501  0.61888004385E+02 -0.19491836332E+02 -0.14279907261E+03  0.23277807437E+03  0.17200000000E+03 0.  1.
</event>
<event>
 4    1  0.3211568E-002  0.3199195E+03  0.7818608E-02  0.1075686E+00
         -1   -1    0    0    0  501 -0.00000000000E+00  0.00000000000E+00  0.38520270497E+03  0.38520270497E+03  0.00000000000E+00 0.  1.
          1   -1    0    0  502    0  0.00000000000E+00 -0.00000000000E+00 -0.40570911608E+03  0.40570911608E+03  0.00000000000E+00 0. -1.
          6    1    1    2  502    0 -0.14970084748E+03 -0.22439731746E+03 -0.24256340443E+03  0.40147914639E+03  0.17200000000E+03 0. -1.
         -6    1    1    2    0  501  0.14970084748E+03  0.22439731746E+03  0.22205699331E+03  0.38943267467E+03  0.17200000000E+03 0.  1.
</event>
<event>
 4    1  0.3211568E-002  0.1812507E+03  0.7818608E-02  0.1166598E+00
         -2   -1    0    0    0  501 -0.00000000000E+00  0.00000000000E+00  0.52470745302E+03  0.52470745302E+03  0.00000000000E+00 0.  1.
          2   -1    0    0  502    0  0.00000000000E+00 -0.00000000000E+00 -0.71580952874E+02  0.71580952874E+02  0.00000000000E+00 0. -1.
          6    1    1    2  502    0 -0.57158260989E+02  0.86681616435E+00  0.12101470629E+03  0.21793663599E+03  0.17200000000E+03 0. -1.
         -6    1    1    2    0  501  0.57158260989E+02 -0.86681616435E+00  0.33211179385E+03  0.37835176990E+03  0.17200000000E+03 0.  1.
</event>
<event>
 4    1  0.3211568E-002  0.4093708E+03  0.7818608E-02  0.1040582E+00
         -1   -1    0    0    0  501 -0.00000000000E+00  0.00000000000E+00  0.35544413036E+03  0.35544413036E+03  0.00000000000E+00 0.  1.
          1   -1    0    0  502    0  0.00000000000E+00 -0.00000000000E+00 -0.14799459431E+04  0.14799459431E+04  0.00000000000E+00 0. -1.
          6    1    1    2  502    0 -0.13879393161E+03  0.34458187385E+03 -0.13197921840E+04  0.13818233723E+04  0.17200000000E+03 0. -1.
         -6    1    1    2    0  501  0.13879393161E+03 -0.34458187385E+03  0.19529037131E+03  0.45356670112E+03  0.17200000000E+03 0.  1.
</event>
<event>
 4    1  0.3211568E-002  0.1738114E+03  0.7818608E-02  0.1173930E+00
         -2   -1    0    0    0  501 -0.00000000000E+00  0.00000000000E+00  0.14793330756E+02  0.14793330756E+02  0.00000000000E+00 0.  1.
          2   -1    0    0  502    0  0.00000000000E+00 -0.00000000000E+00 -0.20533766786E+04  0.20533766786E+04  0.00000000000E+00 0. -1.
          6    1    1    2  502    0 -0.22892712667E+02  0.10115765277E+02 -0.94287644827E+03  0.95876295387E+03  0.17200000000E+03 0.  1.
         -6    1    1    2    0  501  0.22892712667E+02 -0.10115765277E+02 -0.10957068995E+04  0.11094070555E+04  0.17200000000E+03 0. -1.
</event>
<event>
 4    1  0.3211568E-002  0.2607809E+03  0.7818608E-02  0.1106675E+00
          2   -1    0    0  502    0  0.00000000000E+00  0.00000000000E+00  0.36202557245E+03  0.36202557245E+03  0.00000000000E+00 0. -1.
         -2   -1    0    0    0  501 -0.00000000000E+00 -0.00000000000E+00 -0.25243406851E+03  0.25243406851E+03  0.00000000000E+00 0.  1.
          6    1    1    2  502    0  0.19536253289E+03 -0.16005338134E+02  0.21019551539E+03  0.33494603266E+03  0.17200000000E+03 0. -1.
         -6    1    1    2    0  501 -0.19536253289E+03  0.16005338134E+02 -0.10060401146E+03  0.27951360830E+03  0.17200000000E+03 0.  1.
</event>
<event>
 4    1  0.3211568E-002  0.8730702E+03  0.7818608E-02  0.9459885E-01
         -2   -1    0    0    0  501 -0.00000000000E+00  0.00000000000E+00  0.42886895941E+03  0.42886895941E+03  0.00000000000E+00 0.  1.
          2   -1    0    0  502    0  0.00000000000E+00 -0.00000000000E+00 -0.20859235298E+04  0.20859235298E+04  0.00000000000E+00 0. -1.
          6    1    1    2  502    0  0.12728297705E+03  0.84644355432E+03 -0.13121425509E+04  0.15760614585E+04  0.17200000000E+03 0. -1.
         -6    1    1    2    0  501 -0.12728297705E+03 -0.84644355432E+03 -0.34491201946E+03  0.93873103073E+03  0.17200000000E+03 0.  1.
</event>
<event>
 4    1  0.3211568E-002  0.3218061E+03  0.7818608E-02  0.1074821E+00
         -2   -1    0    0    0  501 -0.00000000000E+00  0.00000000000E+00  0.10992499239E+03  0.10992499239E+03  0.00000000000E+00 0.  1.
          2   -1    0    0  502    0  0.00000000000E+00 -0.00000000000E+00 -0.95336347822E+03  0.95336347822E+03  0.00000000000E+00 0. -1.
          6    1    1    2  502    0  0.23917511526E+03 -0.12950081758E+03 -0.47953251859E+03  0.57750379557E+03  0.17200000000E+03 0. -1.
         -6    1    1    2    0  501 -0.23917511526E+03  0.12950081758E+03 -0.36390596723E+03  0.48578467503E+03  0.17200000000E+03 0. -1.
</event>
<event>
 4    1  0.3211568E-002  0.3089161E+03  0.7818608E-02  0.1080867E+00
         -2   -1    0    0    0  501 -0.00000000000E+00  0.00000000000E+00  0.73989297640E+03  0.73989297640E+03  0.00000000000E+00 0.  1.
          2   -1    0    0  502    0  0.00000000000E+00 -0.00000000000E+00 -0.79814315272E+03  0.79814315272E+03  0.00000000000E+00 0. -1.
          6    1    1    2  502    0 -0.92320897220E+02 -0.23942018657E+03 -0.73327175782E+03  0.79568627273E+03  0.17200000000E+03 0. -1.
         -6    1    1    2    0  501  0.92320897220E+02  0.23942018657E+03  0.67502158150E+03  0.74234985640E+03  0.17200000000E+03 0.  1.
</event>
<event>
 4    1  0.3211568E-002  0.2177565E+03  0.7818608E-02  0.1135567E+00
          2   -1    0    0  502    0  0.00000000000E+00  0.00000000000E+00  0.96484801259E+03  0.96484801259E+03  0.00000000000E+00 0. -1.
         -2   -1    0    0    0  501 -0.00000000000E+00 -0.00000000000E+00 -0.41280630689E+03  0.41280630689E+03  0.00000000000E+00 0.  1.
          6    1    1    2  502    0 -0.21062747948E+02 -0.13187209846E+03  0.92254593707E+03  0.94789709131E+03  0.17200000000E+03 0. -1.
         -6    1    1    2    0  501  0.21062747948E+02  0.13187209846E+03 -0.37050423136E+03  0.42975722817E+03  0.17200000000E+03 0.  1.
</event>
<event>
 4    1  0.3211568E-002  0.1737434E+03  0.7818608E-02  0.1173999E+00
         -2   -1    0    0    0  501 -0.00000000000E+00  0.00000000000E+00  0.98089661394E+01  0.98089661394E+01  0.00000000000E+00 0.  1.
          2   -1    0    0  502    0  0.00000000000E+00 -0.00000000000E+00 -0.30858306151E+04  0.30858306151E+04  0.00000000000E+00 0. -1.
          6    1    1    2  502    0 -0.19245693682E+01 -0.24475987771E+02 -0.14574341613E+04  0.14677537643E+04  0.17200000000E+03 0.  1.
         -6    1    1    2    0  501  0.19245693682E+01  0.24475987771E+02 -0.16185874876E+04  0.16278858169E+04  0.17200000000E+03 0.  1.
</event>
<event>
 4    1  0.3211568E-002  0.2333025E+03  0.7818608E-02  0.1124337E+00
         -1   -1    0    0    0  501 -0.00000000000E+00  0.00000000000E+00  0.23773495570E+03  0.23773495570E+03  0.00000000000E+00 0.  1.
          1   -1    0    0  502    0  0.00000000000E+00 -0.00000000000E+00 -0.32149842989E+03  0.32149842989E+03  0.00000000000E+00 0. -1.
          6    1    1    2  502    0  0.29538234063E+02 -0.15483396117E+03 -0.19190265947E+03  0.30208722832E+03  0.17200000000E+03 0.  1.
         -6    1    1    2    0  501 -0.29538234063E+02  0.15483396117E+03  0.10813918528E+03  0.25714615726E+03  0.17200000000E+03 0.  1.
</event>
<event>
 4    1  0.3211568E-002  0.2386899E+03  0.7818608E-02  0.1120669E+00
          2   -1    0    0  502    0  0.00000000000E+00  0.00000000000E+00  0.13069559562E+04  0.13069559562E+04  0.00000000000E+00 0. -1.
         -2   -1    0    0    0  501 -0.00000000000E+00 -0.00000000000E+00 -0.10853112835E+03  0.10853112835E+03  0.00000000000E+00 0.  1.
          6    1    1    2  502    0  0.41344417764E+02  0.16024829027E+03  0.51753095558E+02  0.24423607087E+03  0.17200000000E+03 0.  1.
         -6    1    1    2    0  501 -0.41344417764E+02 -0.16024829027E+03  0.11466717323E+04  0.11712510137E+04  0.17200000000E+03 0. -1.
</event>
<event>
 4    1  0.3211568E-002  0.2383425E+03  0.7818608E-02  0.1120902E+00
          1   -1    0    0  502    0  0.00000000000E+00  0.00000000000E+00  0.67027648424E+03  0.67027648424E+03  0.00000000000E+00 0. -1.
         -1   -1    0    0    0  501 -0.00000000000E+00 -0.00000000000E+00 -0.84892991630E+02  0.84892991630E+02  0.00000000000E+00 0.  1.
          6    1    1    2  502    0 -0.16100648134E+03  0.36056605289E+02  0.30808818873E+03  0.38951957313E+03  0.17200000000E+03 0. -1.
         -6    1    1    2    0  501  0.16100648134E+03 -0.36056605289E+02  0.27729530388E+03  0.36564990274E+03  0.17200000000E+03 0. -1.
</event>
<event>
 4    1  0.3211568E-002  0.3102178E+03  0.7818608E-02  0.1080242E+00
         -2   -1    0    0    0  501 -0.00000000000E+00  0.00000000000E+00  0.12389258982E+03  0.12389258982E+03  0.00000000000E+00 0.  1.
          2   -1    0    0  502    0  0.00000000000E+00 -0.00000000000E+00 -0.13915388896E+04  0.13915388896E+04  0.00000000000E+00 0. -1.
          6    1    1    2  502    0 -0.48647067008E+02 -0.25354391596E+03 -0.11374598913E+04  0.11790038417E+04  0.17200000000E+03 0. -1.
         -6    1    1    2    0  501  0.48647067008E+02  0.25354391596E+03 -0.13018640843E+03  0.33642763767E+03  0.17200000000E+03 0.  1.
</event>
<event>
 4    1  0.3211568E-002  0.5016255E+03  0.7818608E-02  0.1013356E+00
         -2   -1    0    0    0  501 -0.00000000000E+00  0.00000000000E+00  0.16482211361E+03  0.16482211361E+03  0.00000000000E+00 0.  1.
          2   -1    0    0  502    0  0.00000000000E+00 -0.00000000000E+00 -0.20321882171E+04  0.20321882171E+04  0.00000000000E+00 0. -1.
          6    1    1    2  502    0  0.22948221503E+03  0.41156049576E+03 -0.14815697454E+04  0.15641857431E+04  0.17200000000E+03 0. -1.
         -6    1    1    2    0  501 -0.22948221503E+03 -0.41156049576E+03 -0.38579635812E+03  0.63282458756E+03  0.17200000000E+03 0.  1.
</event>
<event>
 4    1  0.3211568E-002  0.2098616E+03  0.7818608E-02  0.1141676E+00
         -2   -1    0    0    0  501 -0.00000000000E+00  0.00000000000E+00  0.31227692929E+02  0.31227692929E+02  0.00000000000E+00 0.  1.
          2   -1    0    0  502    0  0.00000000000E+00 -0.00000000000E+00 -0.30088413113E+04  0.30088413113E+04  0.00000000000E+00 0. -1.
          6    1    1    2  502    0 -0.11790929902E+03  0.23564150552E+02 -0.25967293539E+04  0.26051958101E+04  0.17200000000E+03 0. -1.
         -6    1    1    2    0  501  0.11790929902E+03 -0.23564150552E+02 -0.38088426455E+03  0.43487319413E+03  0.17200000000E+03 0.  1.
</event>
<event>
 4    1  0.3211568E-002  0.5624696E+03  0.7818608E-02  0.9986482E-01
          1   -1    0    0  502    0  0.00000000000E+00  0.00000000000E+00  0.25767813389E+03  0.25767813389E+03  0.00000000000E+00 0. -1.
         -1   -1    0    0    0  501 -0.00000000000E+00 -0.00000000000E+00 -0.13255678581E+04  0.13255678581E+04  0.00000000000E+00 0.  1.
          6    1    1    2  502    0 -0.49734034892E+03  0.19859677862E+03 -0.74895528213E+03  0.93664620737E+03  0.17200000000E+03 0. -1.
         -6    1    1    2    0  501  0.49734034892E+03 -0.19859677862E+03 -0.31893444208E+03  0.64659978463E+03  0.17200000000E+03 0.  1.
</event>
<event>
 4    1  0.3211568E-002  0.3577381E+03  0.7818608E-02  0.1059483E+00
          1   -1    0    0  502    0  0.00000000000E+00  0.00000000000E+00  0.13200451237E+04  0.13200451237E+04  0.00000000000E+00 0. -1.
         -1   -1    0    0    0  501 -0.00000000000E+00 -0.00000000000E+00 -0.17143825655E+03  0.17143825655E+03  0.00000000000E+00 0.  1.
          6    1    1    2  502    0  0.31200932663E+03  0.32291694462E+02  0.10658701105E+04  0.11243023018E+04  0.17200000000E+03 0. -1.
         -6    1    1    2    0  501 -0.31200932663E+03 -0.32291694462E+02  0.82736756624E+02  0.36718107839E+03  0.17200000000E+03 0.  1.
</event>
<event>
 4    1  0.3211568E-002  0.2601153E+03  0.7818608E-02  0.1107074E+00
         -1   -1    0    0    0  501 -0.00000000000E+00  0.00000000000E+00  0.52960555253E+02  0.52960555253E+02  0.00000000000E+00 0.  1.
          1   -1    0    0  502    0  0.00000000000E+00 -0.00000000000E+00 -0.13160118388E+04  0.13160118388E+04  0.00000000000E+00 0. -1.
          6    1    1    2  502    0  0.19295729088E+03 -0.29042118509E+02 -0.74853703098E+03  0.79244409739E+03  0.17200000000E+03 0. -1.
         -6    1    1    2    0  501 -0.19295729088E+03  0.29042118509E+02 -0.51451425255E+03  0.57652829664E+03  0.17200000000E+03 0.  1.
</event>
<event>
 4    1  0.3211568E-002  0.3143250E+03  0.7818608E-02  0.1078291E+00
          2   -1    0    0  502    0  0.00000000000E+00  0.00000000000E+00  0.29576541459E+04  0.29576541459E+04  0.00000000000E+00 0. -1.
         -2   -1    0    0    0  501 -0.00000000000E+00 -0.00000000000E+00 -0.67069689432E+02  0.67069689432E+02  0.00000000000E+00 0.  1.
          6    1    1    2  502    0 -0.25333912584E+03  0.70961218327E+02  0.37382129976E+03  0.48840820155E+03  0.17200000000E+03 0. -1.
         -6    1    1    2    0  501  0.25333912584E+03 -0.70961218327E+02  0.25167631567E+04  0.25363156338E+04  0.17200000000E+03 0.  1.
</event>
<event>
 4    1  0.3211568E-002  0.2656666E+03  0.7818608E-02  0.1103786E+00
          2   -1    0    0  502    0  0.00000000000E+00  0.00000000000E+00  0.94051450424E+02  0.94051450424E+02  0.00000000000E+00 0. -1.
         -2   -1    0    0    0  501 -0.00000000000E+00 -0.00000000000E+00 -0.80101096576E+03  0.80101096576E+03  0.00000000000E+00 0.  1.
          6    1    1    2  502    0 -0.20075844775E+03 -0.26282717021E+02 -0.24101638831E+03  0.35870271115E+03  0.17200000000E+03 0. -1.
         -6    1    1    2    0  501  0.20075844775E+03  0.26282717021E+02 -0.46594312703E+03  0.53635970503E+03  0.17200000000E+03 0.  1.
</event>
<event>
 4    1  0.3211568E-002  0.1840654E+03  0.7818608E-02  0.1163926E+00
         -2   -1    0    0    0  501 -0.00000000000E+00  0.00000000000E+00  0.19497849752E+02  0.19497849752E+02  0.00000000000E+00 0.  1.
          2   -1    0    0  502    0  0.00000000000E+00 -0.00000000000E+00 -0.17831089490E+04  0.17831089490E+04  0.00000000000E+00 0. -1.
          6    1    1    2  502    0  0.32043610933E+02 -0.57177598985E+02 -0.10257456668E+04  0.10421296674E+04  0.17200000000E+03 0. -1.
         -6    1    1    2    0  501 -0.32043610933E+02  0.57177598985E+02 -0.73786543249E+03  0.76047713134E+03  0.17200000000E+03 0.  1.
</event>
<event>
 4    1  0.3211568E-002  0.4816733E+03  0.7818608E-02  0.1018676E+00
         -2   -1    0    0    0  501 -0.00000000000E+00  0.00000000000E+00  0.99908095155E+02  0.99908095155E+02  0.00000000000E+00 0.  1.
          2   -1    0    0  502    0  0.00000000000E+00 -0.00000000000E+00 -0.23241091594E+04  0.23241091594E+04  0.00000000000E+00 0. -1.
          6    1    1    2  502    0 -0.44030937730E+03  0.92481647512E+02 -0.11465982367E+04  0.12436626227E+04  0.17200000000E+03 0. -1.
         -6    1    1    2    0  501  0.44030937730E+03 -0.92481647512E+02 -0.10776028276E+04  0.11803546319E+04  0.17200000000E+03 0.  1.
</event>
<event>
 4    1  0.3211568E-002  0.2864519E+03  0.7818608E-02  0.1092216E+00
         -2   -1    0    0    0  501 -0.00000000000E+00  0.00000000000E+00  0.30425079806E+02  0.30425079806E+02  0.00000000000E+00 0.  1.
          2   -1    0    0  502    0  0.00000000000E+00 -0.00000000000E+00 -0.29558074756E+04  0.29558074756E+04  0.00000000000E+00 0. -1.
          6    1    1    2  502    0  0.12632375985E+03 -0.19108378854E+03 -0.10208239911E+04  0.10602529545E+04  0.17200000000E+03 0.  1.
         -6    1    1    2    0  501 -0.12632375985E+03  0.19108378854E+03 -0.19045584047E+04  0.19259796010E+04  0.17200000000E+03 0.  1.
</event>
<event>
 4    1  0.3211568E-002  0.3782985E+03  0.7818608E-02  0.1051564E+00
          1   -1    0    0  502    0  0.00000000000E+00  0.00000000000E+00  0.13659726223E+03  0.13659726223E+03  0.00000000000E+00 0. -1.
         -1   -1    0    0    0  501 -0.00000000000E+00 -0.00000000000E+00 -0.10841431532E+04  0.10841431532E+04  0.00000000000E+00 0.  1.
          6    1    1    2  502    0 -0.20123598171E+03 -0.27024026985E+03 -0.36182948141E+03  0.52347903244E+03  0.17200000000E+03 0. -1.
         -6    1    1    2    0  501  0.20123598171E+03  0.27024026985E+03 -0.58571640955E+03  0.69726138298E+03  0.17200000000E+03 0.  1.
</event>
<event>
 4    1  0.3211568E-002  0.1735497E+03  0.7818608E-02  0.1174196E+00
         -2   -1    0    0    0  501 -0.00000000000E+00  0.00000000000E+00  0.37956090835E+02  0.37956090835E+02  0.00000000000E+00 0.  1.
          2   -1    0    0  502    0  0.00000000000E+00 -0.00000000000E+00 -0.79354601908E+03  0.79354601908E+03  0.00000000000E+00 0. -1.
          6    1    1    2  502    0 -0.31626192958E+01 -0.22923686879E+02 -0.37626630423E+03  0.41436195443E+03  0.17200000000E+03 0.  1.
         -6    1    1    2    0  501  0.31626192958E+01  0.22923686879E+02 -0.37932362401E+03  0.41714015548E+03  0.17200000000E+03 0.  1.
</event>
<event>
 4    1  0.3211568E-002  0.1761131E+03  0.7818608E-02  0.1171619E+00
         -2   -1    0    0    0  501 -0.00000000000E+00  0.00000000000E+00  0.43026344048E+02  0.43026344048E+02  0.00000000000E+00 0.  1.
          2   -1    0    0  502    0  0.00000000000E+00 -0.00000000000E+00 -0.72565633831E+03  0.72565633831E+03  0.00000000000E+00 0. -1.
          6    1    1    2  502    0 -0.30348022910E+02  0.22601472027E+02 -0.37257256465E+03  0.41209967843E+03  0.17200000000E+03 0. -1.
         -6    1    1    2    0  501  0.30348022910E+02 -0.22601472027E+02 -0.31005742961E+03  0.35658300392E+03  0.17200000000E+03 0.  1.
</event>
<event>
 4    1  0.3211568E-002  0.2014177E+03  0.7818608E-02  0.1148548E+00
          2   -1    0    0  502    0  0.00000000000E+00  0.00000000000E+00  0.35626242523E+03  0.35626242523E+03  0.00000000000E+00 0. -1.
         -2   -1    0    0    0  501 -0.00000000000E+00 -0.00000000000E+00 -0.11563841369E+03  0.11563841369E+03  0.00000000000E+00 0.  1.
          6    1    1    2  502    0 -0.13982676888E+02 -0.10387288002E+03  0.14945593609E+03  0.25081101908E+03  0.17200000000E+03 0. -1.
         -6    1    1    2    0  501  0.13982676888E+02  0.10387288002E+03  0.91168075443E+02  0.22108981984E+03  0.17200000000E+03 0. -1.
</event>
<event>
 4    1  0.3211568E-002  0.4041214E+03  0.7818608E-02  0.1042362E+00
         -2   -1    0    0    0  501 -0.00000000000E+00  0.00000000000E+00  0.45103859695E+03  0.45103859695E+03  0.00000000000E+00 0.  1.
          2   -1    0    0  502    0  0.00000000000E+00 -0.00000000000E+00 -0.48786995130E+03  0.48786995130E+03  0.00000000000E+00 0. -1.
          6    1    1    2  502    0  0.18276854823E+03 -0.31674242653E+03 -0.25678830483E+03  0.47880511743E+03  0.17200000000E+03 0. -1.
         -6    1    1    2    0  501 -0.18276854823E+03  0.31674242653E+03  0.21995695047E+03  0.46010343081E+03  0.17200000000E+03 0.  1.
</event>
<event>
 4    1  0.3211568E-002  0.2110258E+03  0.7818608E-02  0.1140756E+00
         -1   -1    0    0    0  501 -0.00000000000E+00  0.00000000000E+00  0.80143735922E+02  0.80143735922E+02  0.00000000000E+00 0.  1.
          1   -1    0    0  502    0  0.00000000000E+00 -0.00000000000E+00 -0.58873345050E+03  0.58873345050E+03  0.00000000000E+00 0. -1.
          6    1    1    2  502    0  0.55279753364E+02  0.10905055059E+03 -0.17501518064E+03  0.27415723075E+03  0.17200000000E+03 0.  1.
         -6    1    1    2    0  501 -0.55279753364E+02 -0.10905055059E+03 -0.33357453393E+03  0.39471995567E+03  0.17200000000E+03 0. -1.
</event>
<event>
 4    1  0.3211568E-002  0.5044412E+03  0.7818608E-02  0.1012626E+00
         -4   -1    0    0    0  501 -0.00000000000E+00  0.00000000000E+00  0.44459516373E+03  0.44459516373E+03  0.00000000000E+00 0.  1.
          4   -1    0    0  502    0  0.00000000000E+00 -0.00000000000E+00 -0.59646981235E+03  0.59646981235E+03  0.00000000000E+00 0. -1.
          6    1    1    2  502    0 -0.47420856820E+03  0.17808084393E+01 -0.18062689639E+03  0.53580501410E+03  0.17200000000E+03 0. -1.
         -6    1    1    2    0  501  0.47420856820E+03 -0.17808084393E+01  0.28752247773E+02  0.50525996199E+03  0.17200000000E+03 0.  1.
</event>
<event>
 4    1  0.3211568E-002  0.1721686E+03  0.7818608E-02  0.1175605E+00
         -2   -1    0    0    0  501 -0.00000000000E+00  0.00000000000E+00  0.21671596789E+02  0.21671596789E+02  0.00000000000E+00 0.  1.
          2   -1    0    0  502    0  0.00000000000E+00 -0.00000000000E+00 -0.13742939640E+04  0.13742939640E+04  0.00000000000E+00 0. -1.
          6    1    1    2  502    0 -0.55995135973E+00  0.75970731104E+01 -0.62826632349E+03  0.65142966028E+03  0.17200000000E+03 0.  1.
         -6    1    1    2    0  501  0.55995135973E+00 -0.75970731104E+01 -0.72435604368E+03  0.74453590047E+03  0.17200000000E+03 0. -1.
</event>
<event>
 4    1  0.3211568E-002  0.2704704E+03  0.7818608E-02  0.1101011E+00
          1   -1    0    0  502    0  0.00000000000E+00  0.00000000000E+00  0.37633713516E+03  0.37633713516E+03  0.00000000000E+00 0. -1.
         -1   -1    0    0    0  501 -0.00000000000E+00 -0.00000000000E+00 -0.27054171820E+03  0.27054171820E+03  0.00000000000E+00 0.  1.
          6    1    1    2  502    0  0.34090228134E+02 -0.20593229666E+03  0.22450283061E+03  0.35150501478E+03  0.17200000000E+03 0. -1.
         -6    1    1    2    0  501 -0.34090228134E+02  0.20593229666E+03 -0.11870741365E+03  0.29537383858E+03  0.17200000000E+03 0.  1.
</event>
<event>
 4    1  0.3211568E-002  0.1815157E+03  0.7818608E-02  0.1166344E+00
          2   -1    0    0  502    0  0.00000000000E+00  0.00000000000E+00  0.75609969588E+03  0.75609969588E+03  0.00000000000E+00 0. -1.
         -2   -1    0    0    0  501 -0.00000000000E+00 -0.00000000000E+00 -0.58111726345E+02  0.58111726345E+02  0.00000000000E+00 0.  1.
          6    1    1    2  502    0  0.57844516639E+02  0.42396826078E+01  0.55259993295E+03  0.58164821749E+03  0.17200000000E+03 0. -1.
         -6    1    1    2    0  501 -0.57844516639E+02 -0.42396826078E+01  0.14538803658E+03  0.23256320473E+03  0.17200000000E+03 0.  1.
</event>
<event>
 4    1  0.3211568E-002  0.4065453E+03  0.7818608E-02  0.1041537E+00
         -1   -1    0    0    0  501 -0.00000000000E+00  0.00000000000E+00  0.14466040048E+03  0.14466040048E+03  0.00000000000E+00 0.  1.
          1   -1    0    0  502    0  0.00000000000E+00 -0.00000000000E+00 -0.25751808301E+04  0.25751808301E+04  0.00000000000E+00 0. -1.
          6    1    1    2  502    0  0.10706306363E+03 -0.35246637849E+03 -0.22295911249E+04  0.22663529363E+04  0.17200000000E+03 0. -1.
         -6    1    1    2    0  501 -0.10706306363E+03  0.35246637849E+03 -0.20092930469E+03  0.45348829427E+03  0.17200000000E+03 0.  1.
</event>
<event>
 4    1  0.3211568E-002  0.1782247E+03  0.7818608E-02  0.1169532E+00
          2   -1    0    0  502    0  0.00000000000E+00  0.00000000000E+00  0.18783620062E+04  0.18783620062E+04  0.00000000000E+00 0. -1.
         -2   -1    0    0    0  501 -0.00000000000E+00 -0.00000000000E+00 -0.27293570275E+02  0.27293570275E+02  0.00000000000E+00 0.  1.
          6    1    1    2  502    0 -0.15329217254E+01 -0.46665928859E+02  0.15132223700E+04  0.15236817252E+04  0.17200000000E+03 0. -1.
         -6    1    1    2    0  501  0.15329217254E+01  0.46665928859E+02  0.33784606592E+03  0.38197385123E+03  0.17200000000E+03 0.  1.
</event>
<event>
 4    1  0.3211568E-002  0.1934316E+03  0.7818608E-02  0.1155402E+00
         -2   -1    0    0    0  501 -0.00000000000E+00  0.00000000000E+00  0.19838906505E+02  0.19838906505E+02  0.00000000000E+00 0.  1.
          2   -1    0    0  502    0  0.00000000000E+00 -0.00000000000E+00 -0.20373596820E+04  0.20373596820E+04  0.00000000000E+00 0. -1.
          6    1    1    2  502    0  0.72940520638E+02  0.50114500545E+02 -0.12891397416E+04  0.13035708865E+04  0.17200000000E+03 0. -1.
         -6    1    1    2    0  501 -0.72940520638E+02 -0.50114500545E+02 -0.72838103387E+03  0.75362770200E+03  0.17200000000E+03 0.  1.
</event>
<event>
 4    1  0.3211568E-002  0.1995167E+03  0.7818608E-02  0.1150147E+00
         -1   -1    0    0    0  501 -0.00000000000E+00  0.00000000000E+00  0.33139098975E+03  0.33139098975E+03  0.00000000000E+00 0.  1.
          1   -1    0    0  502    0  0.00000000000E+00 -0.00000000000E+00 -0.29713793126E+03  0.29713793126E+03  0.00000000000E+00 0. -1.
          6    1    1    2  502    0  0.10087455154E+03 -0.68727007744E+01  0.25968923359E+03  0.32748344570E+03  0.17200000000E+03 0.  1.
         -6    1    1    2    0  501 -0.10087455154E+03  0.68727007744E+01 -0.22543617510E+03  0.30104547531E+03  0.17200000000E+03 0. -1.
</event>
<event>
 4    1  0.3211568E-002  0.2418821E+03  0.7818608E-02  0.1118545E+00
          1   -1    0    0  502    0  0.00000000000E+00  0.00000000000E+00  0.10061174563E+04  0.10061174563E+04  0.00000000000E+00 0. -1.
         -1   -1    0    0    0  501 -0.00000000000E+00 -0.00000000000E+00 -0.60657508033E+02  0.60657508033E+02  0.00000000000E+00 0.  1.
          6    1    1    2  502    0 -0.14717176720E+03 -0.85225584767E+02  0.58115223385E+03  0.62947982356E+03  0.17200000000E+03 0. -1.
         -6    1    1    2    0  501  0.14717176720E+03  0.85225584767E+02  0.36430771439E+03  0.43729514075E+03  0.17200000000E+03 0.  1.
</event>
<event>
 4    1  0.3211568E-002  0.1994484E+03  0.7818608E-02  0.1150205E+00
          1   -1    0    0  502    0  0.00000000000E+00  0.00000000000E+00  0.71167072987E+02  0.71167072987E+02  0.00000000000E+00 0. -1.
         -1   -1    0    0    0  501 -0.00000000000E+00 -0.00000000000E+00 -0.56481167504E+03  0.56481167504E+03  0.00000000000E+00 0.  1.
          6    1    1    2  502    0  0.21648666193E+02  0.98625493063E+02 -0.21445951880E+03  0.29286948942E+03  0.17200000000E+03 0. -1.
         -6    1    1    2    0  501 -0.21648666193E+02 -0.98625493063E+02 -0.27918508325E+03  0.34310925860E+03  0.17200000000E+03 0.  1.
</event>
<event>
 4    1  0.3211568E-002  0.3554384E+03  0.7818608E-02  0.1060405E+00
          1   -1    0    0  502    0  0.00000000000E+00  0.00000000000E+00  0.19393238032E+03  0.19393238032E+03  0.00000000000E+00 0. -1.
         -1   -1    0    0    0  501 -0.00000000000E+00 -0.00000000000E+00 -0.74140617993E+03  0.74140617993E+03  0.00000000000E+00 0.  1.
          6    1    1    2  502    0  0.17104827385E+03 -0.25979784956E+03 -0.11083116126E+03  0.37231704356E+03  0.17200000000E+03 0. -1.
         -6    1    1    2    0  501 -0.17104827385E+03  0.25979784956E+03 -0.43664263835E+03  0.56302151668E+03  0.17200000000E+03 0.  1.
</event>
<event>
 4    1  0.3211568E-002  0.3411826E+03  0.7818608E-02  0.1066293E+00
          1   -1    0    0  502    0  0.00000000000E+00  0.00000000000E+00  0.14811597939E+03  0.14811597939E+03  0.00000000000E+00 0. -1.
         -1   -1    0    0    0  501 -0.00000000000E+00 -0.00000000000E+00 -0.92269954937E+03  0.92269954937E+03  0.00000000000E+00 0.  1.
          6    1    1    2  502    0  0.26367652152E+03 -0.13151518055E+03 -0.18114149194E+03  0.38628718697E+03  0.17200000000E+03 0. -1.
         -6    1    1    2    0  501 -0.26367652152E+03  0.13151518055E+03 -0.59344207805E+03  0.68452834179E+03  0.17200000000E+03 0.  1.
</event>
<event>
 4    1  0.3211568E-002  0.1860815E+03  0.7818608E-02  0.1162044E+00
          2   -1    0    0  502    0  0.00000000000E+00  0.00000000000E+00  0.15364501636E+04  0.15364501636E+04  0.00000000000E+00 0. -1.
         -2   -1    0    0    0  501 -0.00000000000E+00 -0.00000000000E+00 -0.81564456647E+02  0.81564456647E+02  0.00000000000E+00 0.  1.
          6    1    1    2  502    0  0.38625826485E+02  0.59584938010E+02  0.14156680733E+04  0.14278453744E+04  0.17200000000E+03 0. -1.
         -6    1    1    2    0  501 -0.38625826485E+02 -0.59584938010E+02  0.39217633707E+02  0.19016924594E+03  0.17200000000E+03 0.  1.
</event>
<event>
 4    1  0.3211568E-002  0.3797666E+03  0.7818608E-02  0.1051020E+00
          1   -1    0    0  502    0  0.00000000000E+00  0.00000000000E+00  0.99723143735E+03  0.99723143735E+03  0.00000000000E+00 0. -1.
         -1   -1    0    0    0  501 -0.00000000000E+00 -0.00000000000E+00 -0.18879016978E+03  0.18879016978E+03  0.00000000000E+00 0.  1.
          6    1    1    2  502    0  0.31917075772E+03 -0.11299868297E+03  0.69104916140E+03  0.78852496372E+03  0.17200000000E+03 0. -1.
         -6    1    1    2    0  501 -0.31917075772E+03  0.11299868297E+03  0.11739210616E+03  0.39749664341E+03  0.17200000000E+03 0.  1.
</event>
<event>
 4    1  0.3211568E-002  0.4801832E+03  0.7818608E-02  0.1019085E+00
          1   -1    0    0  502    0  0.00000000000E+00  0.00000000000E+00  0.63309675902E+03  0.63309675902E+03  0.00000000000E+00 0. -1.
         -1   -1    0    0    0  501 -0.00000000000E+00 -0.00000000000E+00 -0.47072003188E+03  0.47072003188E+03  0.00000000000E+00 0.  1.
          6    1    1    2  502    0  0.30270209501E+03  0.33070124468E+03  0.34372792853E+03  0.59052922062E+03  0.17200000000E+03 0. -1.
         -6    1    1    2    0  501 -0.30270209501E+03 -0.33070124468E+03 -0.18135120140E+03  0.51328757028E+03  0.17200000000E+03 0.  1.
</event>
<event>
 4    1  0.3211568E-002  0.3242876E+03  0.7818608E-02  0.1073693E+00
         -1   -1    0    0    0  501 -0.00000000000E+00  0.00000000000E+00  0.43474570578E+03  0.43474570578E+03  0.00000000000E+00 0.  1.
          1   -1    0    0  502    0  0.00000000000E+00 -0.00000000000E+00 -0.26138449473E+03  0.26138449473E+03  0.00000000000E+00 0. -1.
          6    1    1    2  502    0  0.27474500951E+03  0.96750105565E+01 -0.83647198698E+01  0.32439542940E+03  0.17200000000E+03 0. -1.
         -6    1    1    2    0  501 -0.27474500951E+03 -0.96750105565E+01  0.18172593092E+03  0.37173477110E+03  0.17200000000E+03 0.  1.
</event>
<event>
 4    1  0.3211568E-002  0.2847169E+03  0.7818608E-02  0.1093140E+00
         -2   -1    0    0    0  501 -0.00000000000E+00  0.00000000000E+00  0.18190526906E+02  0.18190526906E+02  0.00000000000E+00 0.  1.
          2   -1    0    0  502    0  0.00000000000E+00 -0.00000000000E+00 -0.46774378646E+04  0.46774378646E+04  0.00000000000E+00 0. -1.
          6    1    1    2  502    0  0.17991477212E+03  0.13824041509E+03 -0.28400363804E+04  0.28542723030E+04  0.17200000000E+03 0. -1.
         -6    1    1    2    0  501 -0.17991477212E+03 -0.13824041509E+03 -0.18192109572E+04  0.18413560885E+04  0.17200000000E+03 0.  1.
</event>
<event>
 4    1  0.3211568E-002  0.1892679E+03  0.7818608E-02  0.1159123E+00
          2   -1    0    0  502    0  0.00000000000E+00  0.00000000000E+00  0.19934149708E+04  0.19934149708E+04  0.00000000000E+00 0. -1.
         -2   -1    0    0    0  501 -0.00000000000E+00 -0.00000000000E+00 -0.36394172756E+02  0.36394172756E+02  0.00000000000E+00 0.  1.
          6    1    1    2  502    0 -0.31787108093E+02 -0.72304449062E+02  0.17006135198E+04  0.17111132918E+04  0.17200000000E+03 0. -1.
         -6    1    1    2    0  501  0.31787108093E+02  0.72304449062E+02  0.25640727821E+03  0.31869585174E+03  0.17200000000E+03 0.  1.
</event>
<event>
 4    1  0.3211568E-002  0.3199875E+03  0.7818608E-02  0.1075655E+00
         -2   -1    0    0    0  501 -0.00000000000E+00  0.00000000000E+00  0.15297887484E+03  0.15297887484E+03  0.00000000000E+00 0.  1.
          2   -1    0    0  502    0  0.00000000000E+00 -0.00000000000E+00 -0.10973400643E+04  0.10973400643E+04  0.00000000000E+00 0. -1.
          6    1    1    2  502    0  0.19422224521E+03  0.18731179327E+03 -0.86261825647E+03  0.92005556616E+03  0.17200000000E+03 0. -1.
         -6    1    1    2    0  501 -0.19422224521E+03 -0.18731179327E+03 -0.81742932984E+02  0.33026337297E+03  0.17200000000E+03 0.  1.
</event>
<event>
 4    1  0.3211568E-002  0.2599326E+03  0.7818608E-02  0.1107184E+00
         -2   -1    0    0    0  501 -0.00000000000E+00  0.00000000000E+00  0.49536806005E+02  0.49536806005E+02  0.00000000000E+00 0.  1.
          2   -1    0    0  502    0  0.00000000000E+00 -0.00000000000E+00 -0.13770685231E+04  0.13770685231E+04  0.00000000000E+00 0. -1.
          6    1    1    2  502    0  0.19055734396E+02  0.19395321678E+03 -0.73342702759E+03  0.77812606698E+03  0.17200000000E+03 0. -1.
         -6    1    1    2    0  501 -0.19055734396E+02 -0.19395321678E+03 -0.59410468949E+03  0.64847926211E+03  0.17200000000E+03 0.  1.
</event>
<event>
 4    1  0.3211568E-002  0.1962180E+03  0.7818608E-02  0.1152970E+00
         -1   -1    0    0    0  501 -0.00000000000E+00  0.00000000000E+00  0.78019545779E+02  0.78019545779E+02  0.00000000000E+00 0.  1.
          1   -1    0    0  502    0  0.00000000000E+00 -0.00000000000E+00 -0.62267834498E+03  0.62267834498E+03  0.00000000000E+00 0. -1.
          6    1    1    2  502    0  0.89048570144E+02 -0.31429974961E+02 -0.43191315033E+03  0.47439483619E+03  0.17200000000E+03 0. -1.
         -6    1    1    2    0  501 -0.89048570144E+02  0.31429974961E+02 -0.11274564887E+03  0.22630305457E+03  0.17200000000E+03 0.  1.
</event>
<event>
 4    1  0.3211568E-002  0.3161798E+03  0.7818608E-02  0.1077421E+00
          2   -1    0    0  502    0  0.00000000000E+00  0.00000000000E+00  0.39460718278E+03  0.39460718278E+03  0.00000000000E+00 0. -1.
         -2   -1    0    0    0  501 -0.00000000000E+00 -0.00000000000E+00 -0.25431254619E+03  0.25431254619E+03  0.00000000000E+00 0.  1.
          6    1    1    2  502    0  0.26337250097E+03  0.31946852513E+02  0.90214820857E+02  0.32879840260E+03  0.17200000000E+03 0. -1.
         -6    1    1    2    0  501 -0.26337250097E+03 -0.31946852513E+02  0.50079815729E+02  0.32012132637E+03  0.17200000000E+03 0.  1.
</event>
<event>
 4    1  0.3211568E-002  0.1852795E+03  0.7818608E-02  0.1162789E+00
          2   -1    0    0  502    0  0.00000000000E+00  0.00000000000E+00  0.25982757109E+04  0.25982757109E+04  0.00000000000E+00 0. -1.
         -2   -1    0    0    0  501 -0.00000000000E+00 -0.00000000000E+00 -0.36510263601E+02  0.36510263601E+02  0.00000000000E+00 0.  1.
          6    1    1    2  502    0 -0.21682692995E+02  0.65378570693E+02  0.23332549081E+04  0.23405997015E+04  0.17200000000E+03 0. -1.
         -6    1    1    2    0  501  0.21682692995E+02 -0.65378570693E+02  0.22851053926E+03  0.29418627302E+03  0.17200000000E+03 0.  1.
</event>
<event>
 4    1  0.3211568E-002  0.1747741E+03  0.7818608E-02  0.1172959E+00
          2   -1    0    0  502    0  0.00000000000E+00  0.00000000000E+00  0.14956034913E+04  0.14956034913E+04  0.00000000000E+00 0. -1.
         -2   -1    0    0    0  501 -0.00000000000E+00 -0.00000000000E+00 -0.27255704232E+02  0.27255704232E+02  0.00000000000E+00 0.  1.
          6    1    1    2  502    0  0.20730944109E+02 -0.23069981414E+02  0.11153889397E+04  0.11289988852E+04  0.17200000000E+03 0. -1.
         -6    1    1    2    0  501 -0.20730944109E+02  0.23069981414E+02  0.35295884742E+03  0.39386031034E+03  0.17200000000E+03 0.  1.
</event>
<event>
 4    1  0.3211568E-002  0.2199292E+03  0.7818608E-02  0.1133936E+00
          2   -1    0    0  502    0  0.00000000000E+00  0.00000000000E+00  0.13269069001E+03  0.13269069001E+03  0.00000000000E+00 0. -1.
         -2   -1    0    0    0  501 -0.00000000000E+00 -0.00000000000E+00 -0.36836508771E+03  0.36836508771E+03  0.00000000000E+00 0.  1.
          6    1    1    2  502    0  0.10090696146E+03 -0.92750419648E+02 -0.92252486331E+02  0.23849397571E+03  0.17200000000E+03 0. -1.
         -6    1    1    2    0  501 -0.10090696146E+03  0.92750419648E+02 -0.14342191136E+03  0.26256180201E+03  0.17200000000E+03 0.  1.
</event>
<event>
 4    1  0.3211568E-002  0.1729763E+03  0.7818608E-02  0.1174779E+00
         -1   -1    0    0    0  501 -0.00000000000E+00  0.00000000000E+00  0.17558127266E+04  0.17558127266E+04  0.00000000000E+00 0.  1.
          1   -1    0    0  502    0  0.00000000000E+00 -0.00000000000E+00 -0.20164517984E+02  0.20164517984E+02  0.00000000000E+00 0. -1.
          6    1    1    2  502    0 -0.17767463241E+02 -0.45961677951E+01  0.51833360684E+03  0.54643438352E+03  0.17200000000E+03 0. -1.
         -6    1    1    2    0  501  0.17767463241E+02  0.45961677951E+01  0.12173146018E+04  0.12295428611E+04  0.17200000000E+03 0.  1.
</event>
<event>
 4    1  0.3211568E-002  0.2350639E+03  0.7818608E-02  0.1123125E+00
          1   -1    0    0  502    0  0.00000000000E+00  0.00000000000E+00  0.83752849862E+03  0.83752849862E+03  0.00000000000E+00 0. -1.
         -1   -1    0    0    0  501 -0.00000000000E+00 -0.00000000000E+00 -0.66585498510E+02  0.66585498510E+02  0.00000000000E+00 0.  1.
          6    1    1    2  502    0 -0.12283982345E+03  0.10286596453E+03  0.42879598545E+03  0.48900002660E+03  0.17200000000E+03 0.  1.
         -6    1    1    2    0  501  0.12283982345E+03 -0.10286596453E+03  0.34214701466E+03  0.41511397053E+03  0.17200000000E+03 0. -1.
</event>
<event>
 4    1  0.3211568E-002  0.1776509E+03  0.7818608E-02  0.1170096E+00
         -1   -1    0    0    0  501 -0.00000000000E+00  0.00000000000E+00  0.16194347015E+03  0.16194347015E+03  0.00000000000E+00 0.  1.
          1   -1    0    0  502    0  0.00000000000E+00 -0.00000000000E+00 -0.33682354070E+03  0.33682354070E+03  0.00000000000E+00 0. -1.
          6    1    1    2  502    0  0.44104931343E+02 -0.55328448674E+01 -0.24933053320E+03  0.30614632470E+03  0.17200000000E+03 0. -1.
         -6    1    1    2    0  501 -0.44104931343E+02  0.55328448674E+01  0.74450462655E+02  0.19262068614E+03  0.17200000000E+03 0.  1.
</event>
<event>
 4    1  0.3211568E-002  0.2064153E+03  0.7818608E-02  0.1144437E+00
         -1   -1    0    0    0  501 -0.00000000000E+00  0.00000000000E+00  0.85709698180E+02  0.85709698180E+02  0.00000000000E+00 0.  1.
          1   -1    0    0  502    0  0.00000000000E+00 -0.00000000000E+00 -0.49842704992E+03  0.49842704992E+03  0.00000000000E+00 0. -1.
          6    1    1    2  502    0  0.74718221777E+02  0.86258082630E+02 -0.22136419940E+03  0.30267041194E+03  0.17200000000E+03 0. -1.
         -6    1    1    2    0  501 -0.74718221777E+02 -0.86258082630E+02 -0.19135315234E+03  0.28146633617E+03  0.17200000000E+03 0.  1.
</event>
<event>
 4    1  0.3211568E-002  0.2804741E+03  0.7818608E-02  0.1095430E+00
         -2   -1    0    0    0  501 -0.00000000000E+00  0.00000000000E+00  0.40316687444E+02  0.40316687444E+02  0.00000000000E+00 0.  1.
          2   -1    0    0  502    0  0.00000000000E+00 -0.00000000000E+00 -0.19639610288E+04  0.19639610288E+04  0.00000000000E+00 0. -1.
          6    1    1    2  502    0  0.16271706766E+03 -0.15034924916E+03 -0.10426163641E+04  0.10796826494E+04  0.17200000000E+03 0. -1.
         -6    1    1    2    0  501 -0.16271706766E+03  0.15034924916E+03 -0.88102797723E+03  0.92459506677E+03  0.17200000000E+03 0.  1.
</event>
<event>
 4    1  0.3211568E-002  0.2323358E+03  0.7818608E-02  0.1125006E+00
         -2   -1    0    0    0  501 -0.00000000000E+00  0.00000000000E+00  0.58202530845E+03  0.58202530845E+03  0.00000000000E+00 0.  1.
          2   -1    0    0  502    0  0.00000000000E+00 -0.00000000000E+00 -0.15181296775E+03  0.15181296775E+03  0.00000000000E+00 0. -1.
          6    1    1    2  502    0 -0.11989412790E+02 -0.15573115512E+03  0.44397778571E+03  0.50109501384E+03  0.17200000000E+03 0.  1.
         -6    1    1    2    0  501  0.11989412790E+02  0.15573115512E+03 -0.13765445015E+02  0.23274326235E+03  0.17200000000E+03 0.  1.
</event>
<event>
 4    1  0.3211568E-002  0.2005003E+03  0.7818608E-02  0.1149318E+00
         -2   -1    0    0    0  501 -0.00000000000E+00  0.00000000000E+00  0.10968969915E+03  0.10968969915E+03  0.00000000000E+00 0.  1.
          2   -1    0    0  502    0  0.00000000000E+00 -0.00000000000E+00 -0.28525503477E+04  0.28525503477E+04  0.00000000000E+00 0. -1.
          6    1    1    2  502    0 -0.10099622331E+03  0.20399831525E+02 -0.27541344485E+04  0.27614229938E+04  0.17200000000E+03 0. -1.
         -6    1    1    2    0  501  0.10099622331E+03 -0.20399831525E+02  0.11273799906E+02  0.20081705309E+03  0.17200000000E+03 0.  1.
</event>
<event>
 4    1  0.3211568E-002  0.1824662E+03  0.7818608E-02  0.1165437E+00
          2   -1    0    0  502    0  0.00000000000E+00  0.00000000000E+00  0.17218482952E+04  0.17218482952E+04  0.00000000000E+00 0. -1.
         -2   -1    0    0    0  501 -0.00000000000E+00 -0.00000000000E+00 -0.23950912301E+02  0.23950912301E+02  0.00000000000E+00 0.  1.
          6    1    1    2  502    0  0.53041236611E+02 -0.29942534365E+02  0.12321064529E+04  0.12455441539E+04  0.17200000000E+03 0. -1.
         -6    1    1    2    0  501 -0.53041236611E+02  0.29942534365E+02  0.46579093008E+03  0.50025505363E+03  0.17200000000E+03 0.  1.
</event>
<event>
 4    1  0.3211568E-002  0.2157585E+03  0.7818608E-02  0.1137085E+00
          3   -1    0    0  502    0  0.00000000000E+00  0.00000000000E+00  0.11329051496E+03  0.11329051496E+03  0.00000000000E+00 0. -1.
         -3   -1    0    0    0  501 -0.00000000000E+00 -0.00000000000E+00 -0.41216070360E+03  0.41216070360E+03  0.00000000000E+00 0.  1.
          6    1    1    2  502    0 -0.11109208928E+03 -0.68016662440E+02 -0.16393252755E+03  0.27097157094E+03  0.17200000000E+03 0.  1.
         -6    1    1    2    0  501  0.11109208928E+03  0.68016662440E+02 -0.13493766109E+03  0.25447964761E+03  0.17200000000E+03 0.  1.
</event>
<event>
 4    1  0.3211568E-002  0.1799461E+03  0.7818608E-02  0.1167855E+00
          2   -1    0    0  502    0  0.00000000000E+00  0.00000000000E+00  0.28484512730E+03  0.28484512730E+03  0.00000000000E+00 0. -1.
         -2   -1    0    0    0  501 -0.00000000000E+00 -0.00000000000E+00 -0.21840340315E+03  0.21840340315E+03  0.00000000000E+00 0.  1.
          6    1    1    2  502    0 -0.23974225327E+02  0.47136398696E+02  0.20746131491E+03  0.27462847767E+03  0.17200000000E+03 0. -1.
         -6    1    1    2    0  501  0.23974225327E+02 -0.47136398696E+02 -0.14101959076E+03  0.22862005279E+03  0.17200000000E+03 0.  1.
</event>
<event>
 4    1  0.3211568E-002  0.2878854E+03  0.7818608E-02  0.1091458E+00
          1   -1    0    0  502    0  0.00000000000E+00  0.00000000000E+00  0.54042647691E+03  0.54042647691E+03  0.00000000000E+00 0. -1.
         -1   -1    0    0    0  501 -0.00000000000E+00 -0.00000000000E+00 -0.15793525535E+03  0.15793525535E+03  0.00000000000E+00 0.  1.
          6    1    1    2  502    0  0.21729334944E+03 -0.77959122479E+02  0.25069875548E+03  0.38174322585E+03  0.17200000000E+03 0. -1.
         -6    1    1    2    0  501 -0.21729334944E+03  0.77959122479E+02  0.13179246608E+03  0.31661850641E+03  0.17200000000E+03 0.  1.
</event>
<event>
 4    1  0.3211568E-002  0.1799673E+03  0.7818608E-02  0.1167835E+00
          1   -1    0    0  502    0  0.00000000000E+00  0.00000000000E+00  0.43262086601E+02  0.43262086601E+02  0.00000000000E+00 0. -1.
         -1   -1    0    0    0  501 -0.00000000000E+00 -0.00000000000E+00 -0.10357666894E+04  0.10357666894E+04  0.00000000000E+00 0.  1.
          6    1    1    2  502    0  0.76093593271E+01  0.52405503927E+02 -0.21219895144E+03  0.27823844843E+03  0.17200000000E+03 0. -1.
         -6    1    1    2    0  501 -0.76093593271E+01 -0.52405503927E+02 -0.78030565139E+03  0.80079032760E+03  0.17200000000E+03 0.  1.
</event>
<event>
 4    1  0.3211568E-002  0.1753102E+03  0.7818608E-02  0.1172421E+00
         -2   -1    0    0    0  501 -0.00000000000E+00  0.00000000000E+00  0.42313426717E+03  0.42313426717E+03  0.00000000000E+00 0.  1.
          2   -1    0    0  502    0  0.00000000000E+00 -0.00000000000E+00 -0.76090082642E+02  0.76090082642E+02  0.00000000000E+00 0. -1.
          6    1    1    2  502    0  0.14801827626E+02 -0.30505034936E+02  0.12031912809E+03  0.21262724153E+03  0.17200000000E+03 0. -1.
         -6    1    1    2    0  501 -0.14801827626E+02  0.30505034936E+02  0.22672505644E+03  0.28659710828E+03  0.17200000000E+03 0.  1.
</event>
<event>
 4    1  0.3211568E-002  0.3415847E+03  0.7818608E-02  0.1066123E+00
          1   -1    0    0  502    0  0.00000000000E+00  0.00000000000E+00  0.14801984388E+03  0.14801984388E+03  0.00000000000E+00 0. -1.
         -1   -1    0    0    0  501 -0.00000000000E+00 -0.00000000000E+00 -0.78962217998E+03  0.78962217998E+03  0.00000000000E+00 0.  1.
          6    1    1    2  502    0 -0.28570506364E+03 -0.73951013972E+02 -0.30142646550E+03  0.45556344230E+03  0.17200000000E+03 0. -1.
         -6    1    1    2    0  501  0.28570506364E+03  0.73951013972E+02 -0.34017587061E+03  0.48207858156E+03  0.17200000000E+03 0.  1.
</event>
<event>
 4    1  0.3211568E-002  0.1913549E+03  0.7818608E-02  0.1157245E+00
          3   -1    0    0  502    0  0.00000000000E+00  0.00000000000E+00  0.23878949727E+03  0.23878949727E+03  0.00000000000E+00 0. -1.
         -3   -1    0    0    0  501 -0.00000000000E+00 -0.00000000000E+00 -0.81543954901E+03  0.81543954901E+03  0.00000000000E+00 0.  1.
          6    1    1    2  502    0  0.10724464554E+02  0.83172573068E+02  0.18664889874E+03  0.26730975001E+03  0.17200000000E+03 0. -1.
         -6    1    1    2    0  501 -0.10724464554E+02 -0.83172573068E+02 -0.76329895047E+03  0.78691929627E+03  0.17200000000E+03 0.  1.
</event>
<event>
 4    1  0.3211568E-002  0.3333853E+03  0.7818608E-02  0.1069649E+00
          1   -1    0    0  502    0  0.00000000000E+00  0.00000000000E+00  0.12955891395E+04  0.12955891395E+04  0.00000000000E+00 0. -1.
         -1   -1    0    0    0  501 -0.00000000000E+00 -0.00000000000E+00 -0.14345387132E+03  0.14345387132E+03  0.00000000000E+00 0.  1.
          6    1    1    2  502    0 -0.18578095056E+03 -0.21690359123E+03  0.10322598402E+04  0.10847608525E+04  0.17200000000E+03 0. -1.
         -6    1    1    2    0  501  0.18578095056E+03  0.21690359123E+03  0.11987542805E+03  0.35428215836E+03  0.17200000000E+03 0.  1.
</event>
<event>
 4    1  0.3211568E-002  0.1922387E+03  0.7818608E-02  0.1156458E+00
         -1   -1    0    0    0  501 -0.00000000000E+00  0.00000000000E+00  0.75370118829E+02  0.75370118829E+02  0.00000000000E+00 0.  1.
          1   -1    0    0  502    0  0.00000000000E+00 -0.00000000000E+00 -0.71539343138E+03  0.71539343138E+03  0.00000000000E+00 0. -1.
          6    1    1    2  502    0  0.35320260218E+02  0.78257172876E+02 -0.54178194127E+03  0.57487683705E+03  0.17200000000E+03 0. -1.
         -6    1    1    2    0  501 -0.35320260218E+02 -0.78257172876E+02 -0.98241371281E+02  0.21588671316E+03  0.17200000000E+03 0.  1.
</event>
<event>
 4    1  0.3211568E-002  0.6049926E+03  0.7818608E-02  0.9895102E-01
          2   -1    0    0  502    0  0.00000000000E+00  0.00000000000E+00  0.11555983479E+04  0.11555983479E+04  0.00000000000E+00 0. -1.
         -2   -1    0    0    0  501 -0.00000000000E+00 -0.00000000000E+00 -0.37688991432E+03  0.37688991432E+03  0.00000000000E+00 0.  1.
          6    1    1    2  502    0 -0.26518555473E+03  0.51585724747E+03  0.69548206984E+03  0.92179791043E+03  0.17200000000E+03 0. -1.
         -6    1    1    2    0  501  0.26518555473E+03 -0.51585724747E+03  0.83226363784E+02  0.61069035184E+03  0.17200000000E+03 0.  1.
</event>
<event>
 4    1  0.3211568E-002  0.2486541E+03  0.7818608E-02  0.1114158E+00
          2   -1    0    0  502    0  0.00000000000E+00  0.00000000000E+00  0.39533881328E+03  0.39533881328E+03  0.00000000000E+00 0. -1.
         -2   -1    0    0    0  501 -0.00000000000E+00 -0.00000000000E+00 -0.16180625668E+03  0.16180625668E+03  0.00000000000E+00 0.  1.
          6    1    1    2  502    0  0.86823146417E+02  0.15718335179E+03  0.16771165981E+03  0.29992676718E+03  0.17200000000E+03 0.  1.
         -6    1    1    2    0  501 -0.86823146417E+02 -0.15718335179E+03  0.65820896792E+02  0.25721830279E+03  0.17200000000E+03 0.  1.
</event>
<event>
 4    1  0.3211568E-002  0.2664709E+03  0.7818608E-02  0.1103317E+00
          1   -1    0    0  502    0  0.00000000000E+00  0.00000000000E+00  0.16887001690E+03  0.16887001690E+03  0.00000000000E+00 0. -1.
         -1   -1    0    0    0  501 -0.00000000000E+00 -0.00000000000E+00 -0.43000693724E+03  0.43000693724E+03  0.00000000000E+00 0.  1.
          6    1    1    2  502    0 -0.75336827118E+01 -0.20338634271E+03 -0.17513475828E+03  0.31887136017E+03  0.17200000000E+03 0. -1.
         -6    1    1    2    0  501  0.75336827118E+01  0.20338634271E+03 -0.86002162051E+02  0.28000559397E+03  0.17200000000E+03 0.  1.
</event>
<event>
 4    1  0.3211568E-002  0.2697939E+03  0.7818608E-02  0.1101398E+00
          1   -1    0    0  502    0  0.00000000000E+00  0.00000000000E+00  0.16400390914E+04  0.16400390914E+04  0.00000000000E+00 0. -1.
         -1   -1    0    0    0  501 -0.00000000000E+00 -0.00000000000E+00 -0.66580568905E+02  0.66580568905E+02  0.00000000000E+00 0.  1.
          6    1    1    2  502    0 -0.20710179179E+03  0.17707944565E+02  0.12794404828E+04  0.13075766411E+04  0.17200000000E+03 0. -1.
         -6    1    1    2    0  501  0.20710179179E+03 -0.17707944565E+02  0.29401803968E+03  0.39904301914E+03  0.17200000000E+03 0.  1.
</event>
<event>
 4    1  0.3211568E-002  0.1812527E+03  0.7818608E-02  0.1166596E+00
         -2   -1    0    0    0  501 -0.00000000000E+00  0.00000000000E+00  0.35321756216E+02  0.35321756216E+02  0.00000000000E+00 0.  1.
          2   -1    0    0  502    0  0.00000000000E+00 -0.00000000000E+00 -0.22303125649E+04  0.22303125649E+04  0.00000000000E+00 0. -1.
          6    1    1    2  502    0  0.25455033100E+02 -0.51191760887E+02 -0.19624337032E+04  0.19707862884E+04  0.17200000000E+03 0. -1.
         -6    1    1    2    0  501 -0.25455033100E+02  0.51191760887E+02 -0.23255710554E+03  0.29484803278E+03  0.17200000000E+03 0.  1.
</event>
<event>
 4    1  0.3211568E-002  0.2619405E+03  0.7818608E-02  0.1105983E+00
          1   -1    0    0  502    0  0.00000000000E+00  0.00000000000E+00  0.41985740132E+03  0.41985740132E+03  0.00000000000E+00 0. -1.
         -1   -1    0    0    0  501 -0.00000000000E+00 -0.00000000000E+00 -0.17447848142E+03  0.17447848142E+03  0.00000000000E+00 0.  1.
          6    1    1    2  502    0  0.16868421420E+03  0.10283213097E+03  0.19750505007E+03  0.32805648307E+03  0.17200000000E+03 0. -1.
         -6    1    1    2    0  501 -0.16868421420E+03 -0.10283213097E+03  0.47873869826E+02  0.26627939968E+03  0.17200000000E+03 0. -1.
</event>
<event>
 4    1  0.3211568E-002  0.1736476E+03  0.7818608E-02  0.1174096E+00
         -2   -1    0    0    0  501 -0.00000000000E+00  0.00000000000E+00  0.25005900414E+02  0.25005900414E+02  0.00000000000E+00 0.  1.
          2   -1    0    0  502    0  0.00000000000E+00 -0.00000000000E+00 -0.13134534095E+04  0.13134534095E+04  0.00000000000E+00 0. -1.
          6    1    1    2  502    0  0.99398462255E+01 -0.21695561285E+02 -0.83576845069E+03  0.85361724508E+03  0.17200000000E+03 0. -1.
         -6    1    1    2    0  501 -0.99398462255E+01  0.21695561285E+02 -0.45267905835E+03  0.48484206479E+03  0.17200000000E+03 0.  1.
</event>
<event>
 4    1  0.3211568E-002  0.4062347E+03  0.7818608E-02  0.1041642E+00
          2   -1    0    0  502    0  0.00000000000E+00  0.00000000000E+00  0.17928632057E+04  0.17928632057E+04  0.00000000000E+00 0. -1.
         -2   -1    0    0    0  501 -0.00000000000E+00 -0.00000000000E+00 -0.92046429388E+02  0.92046429388E+02  0.00000000000E+00 0.  1.
          6    1    1    2  502    0 -0.27791088465E+03  0.24126374196E+03  0.85027157537E+03  0.94233136681E+03  0.17200000000E+03 0. -1.
         -6    1    1    2    0  501  0.27791088465E+03 -0.24126374196E+03  0.85054520098E+03  0.94257826832E+03  0.17200000000E+03 0.  1.
</event>
<event>
 4    1  0.3211568E-002  0.1806424E+03  0.7818608E-02  0.1167183E+00
         -1   -1    0    0    0  501 -0.00000000000E+00  0.00000000000E+00  0.88326328541E+02  0.88326328541E+02  0.00000000000E+00 0.  1.
          1   -1    0    0  502    0  0.00000000000E+00 -0.00000000000E+00 -0.42732886240E+03  0.42732886240E+03  0.00000000000E+00 0. -1.
          6    1    1    2  502    0  0.52029180464E+02  0.18456082130E+02 -0.26439324366E+03  0.32021157050E+03  0.17200000000E+03 0. -1.
         -6    1    1    2    0  501 -0.52029180464E+02 -0.18456082130E+02 -0.74609290194E+02  0.19544362044E+03  0.17200000000E+03 0.  1.
</event>
<event>
 4    1  0.3211568E-002  0.3649015E+03  0.7818608E-02  0.1056660E+00
         -2   -1    0    0    0  501 -0.00000000000E+00  0.00000000000E+00  0.56948009759E+02  0.56948009759E+02  0.00000000000E+00 0.  1.
          2   -1    0    0  502    0  0.00000000000E+00 -0.00000000000E+00 -0.23547929596E+04  0.23547929596E+04  0.00000000000E+00 0. -1.
          6    1    1    2  502    0 -0.27111996797E+03 -0.17338705857E+03 -0.10475518639E+04  0.11092871660E+04  0.17200000000E+03 0. -1.
         -6    1    1    2    0  501  0.27111996797E+03  0.17338705857E+03 -0.12502930860E+04  0.13024538034E+04  0.17200000000E+03 0.  1.
</event>
<event>
 4    1  0.3211568E-002  0.1972897E+03  0.7818608E-02  0.1152046E+00
         -1   -1    0    0    0  501 -0.00000000000E+00  0.00000000000E+00  0.21983571690E+02  0.21983571690E+02  0.00000000000E+00 0.  1.
          1   -1    0    0  502    0  0.00000000000E+00 -0.00000000000E+00 -0.17747434128E+04  0.17747434128E+04  0.00000000000E+00 0. -1.
          6    1    1    2  502    0  0.67001122872E+02  0.69642605420E+02 -0.83276596954E+03  0.85581680457E+03  0.17200000000E+03 0.  1.
         -6    1    1    2    0  501 -0.67001122872E+02 -0.69642605420E+02 -0.91999387156E+03  0.94091017991E+03  0.17200000000E+03 0.  1.
</event>
<event>
 4    1  0.3211568E-002  0.2434838E+03  0.7818608E-02  0.1117494E+00
         -2   -1    0    0    0  501 -0.00000000000E+00  0.00000000000E+00  0.34817355750E+02  0.34817355750E+02  0.00000000000E+00 0.  1.
          2   -1    0    0  502    0  0.00000000000E+00 -0.00000000000E+00 -0.17068809952E+04  0.17068809952E+04  0.00000000000E+00 0. -1.
          6    1    1    2  502    0 -0.87040500052E+02 -0.14874242203E+03 -0.87900691190E+03  0.91210608370E+03  0.17200000000E+03 0. -1.
         -6    1    1    2    0  501  0.87040500052E+02  0.14874242203E+03 -0.79305672751E+03  0.82959226721E+03  0.17200000000E+03 0.  1.
</event>
<event>
 4    1  0.3211568E-002  0.1935839E+03  0.7818608E-02  0.1155268E+00
          2   -1    0    0  502    0  0.00000000000E+00  0.00000000000E+00  0.96907811399E+03  0.96907811399E+03  0.00000000000E+00 0. -1.
         -2   -1    0    0    0  501 -0.00000000000E+00 -0.00000000000E+00 -0.40401113098E+02  0.40401113098E+02  0.00000000000E+00 0.  1.
          6    1    1    2  502    0  0.79128279502E+02 -0.40366535450E+02  0.56880327346E+03  0.60084266302E+03  0.17200000000E+03 0. -1.
         -6    1    1    2    0  501 -0.79128279502E+02  0.40366535450E+02  0.35987372744E+03  0.40863656408E+03  0.17200000000E+03 0.  1.
</event>
<event>
 4    1  0.3211568E-002  0.2160447E+03  0.7818608E-02  0.1136867E+00
         -2   -1    0    0    0  501 -0.00000000000E+00  0.00000000000E+00  0.65638158748E+02  0.65638158748E+02  0.00000000000E+00 0.  1.
          2   -1    0    0  502    0  0.00000000000E+00 -0.00000000000E+00 -0.14922706564E+04  0.14922706564E+04  0.00000000000E+00 0. -1.
          6    1    1    2  502    0 -0.12641463327E+03  0.33326326145E+02 -0.12769035029E+04  0.12950512960E+04  0.17200000000E+03 0. -1.
         -6    1    1    2    0  501  0.12641463327E+03 -0.33326326145E+02 -0.14972899479E+03  0.26285751920E+03  0.17200000000E+03 0.  1.
</event>
<event>
 4    1  0.3211568E-002  0.2327117E+03  0.7818608E-02  0.1124746E+00
          2   -1    0    0  502    0  0.00000000000E+00  0.00000000000E+00  0.20884781297E+04  0.20884781297E+04  0.00000000000E+00 0. -1.
         -2   -1    0    0    0  501 -0.00000000000E+00 -0.00000000000E+00 -0.26072533679E+02  0.26072533679E+02  0.00000000000E+00 0.  1.
          6    1    1    2  502    0  0.45765880153E+02 -0.14992075396E+03  0.11093084790E+04  0.11334549174E+04  0.17200000000E+03 0. -1.
         -6    1    1    2    0  501 -0.45765880153E+02  0.14992075396E+03  0.95309711697E+03  0.98109574590E+03  0.17200000000E+03 0.  1.
</event>
<event>
 4    1  0.3211568E-002  0.2246022E+03  0.7818608E-02  0.1130498E+00
          3   -1    0    0  502    0  0.00000000000E+00  0.00000000000E+00  0.25632498278E+03  0.25632498278E+03  0.00000000000E+00 0. -1.
         -3   -1    0    0    0  501 -0.00000000000E+00 -0.00000000000E+00 -0.23398027710E+03  0.23398027710E+03  0.00000000000E+00 0.  1.
          6    1    1    2  502    0 -0.98741328566E+02 -0.10541488653E+03  0.10888966911E+03  0.24960590599E+03  0.17200000000E+03 0. -1.
         -6    1    1    2    0  501  0.98741328566E+02  0.10541488653E+03 -0.86544963432E+02  0.24069935389E+03  0.17200000000E+03 0. -1.
</event>
<event>
 4    1  0.3211568E-002  0.3601156E+03  0.7818608E-02  0.1058538E+00
          1   -1    0    0  502    0  0.00000000000E+00  0.00000000000E+00  0.11086753834E+04  0.11086753834E+04  0.00000000000E+00 0. -1.
         -1   -1    0    0    0  501 -0.00000000000E+00 -0.00000000000E+00 -0.11752954646E+03  0.11752954646E+03  0.00000000000E+00 0.  1.
          6    1    1    2  502    0  0.23359589123E+03  0.21338283873E+03  0.45332103561E+03  0.57895011667E+03  0.17200000000E+03 0.  1.
         -6    1    1    2    0  501 -0.23359589123E+03 -0.21338283873E+03  0.53782480136E+03  0.64725481321E+03  0.17200000000E+03 0.  1.
</event>
<event>
 4    1  0.3211568E-002  0.1886832E+03  0.7818608E-02  0.1159654E+00
          1   -1    0    0  502    0  0.00000000000E+00  0.00000000000E+00  0.27620961769E+03  0.27620961769E+03  0.00000000000E+00 0. -1.
         -1   -1    0    0    0  501 -0.00000000000E+00 -0.00000000000E+00 -0.23832541180E+03  0.23832541180E+03  0.00000000000E+00 0.  1.
          6    1    1    2  502    0  0.76280711484E+02  0.14092138562E+02  0.19327279125E+03  0.27010314169E+03  0.17200000000E+03 0. -1.
         -6    1    1    2    0  501 -0.76280711484E+02 -0.14092138562E+02 -0.15538858536E+03  0.24443188780E+03  0.17200000000E+03 0.  1.
</event>
<event>
 4    1  0.3211568E-002  0.2589228E+03  0.7818608E-02  0.1107792E+00
         -1   -1    0    0    0  501 -0.00000000000E+00  0.00000000000E+00  0.29608596014E+03  0.29608596014E+03  0.00000000000E+00 0.  1.
          1   -1    0    0  502    0  0.00000000000E+00 -0.00000000000E+00 -0.42594865852E+03  0.42594865852E+03  0.00000000000E+00 0. -1.
          6    1    1    2  502    0 -0.12217417049E+03 -0.15010155156E+03 -0.31201701560E+03  0.40545729952E+03  0.17200000000E+03 0. -1.
         -6    1    1    2    0  501  0.12217417049E+03  0.15010155156E+03  0.18215431722E+03  0.31657731914E+03  0.17200000000E+03 0.  1.
</event>
<event>
 4    1  0.3211568E-002  0.5809645E+03  0.7818608E-02  0.9945705E-01
          1   -1    0    0  502    0  0.00000000000E+00  0.00000000000E+00  0.70788702086E+03  0.70788702086E+03  0.00000000000E+00 0. -1.
         -1   -1    0    0    0  501 -0.00000000000E+00 -0.00000000000E+00 -0.61395647427E+03  0.61395647427E+03  0.00000000000E+00 0.  1.
          6    1    1    2  502    0 -0.49838214146E+03  0.24403071122E+03  0.35935098542E+03  0.68311995847E+03  0.17200000000E+03 0. -1.
         -6    1    1    2    0  501  0.49838214146E+03 -0.24403071122E+03 -0.26542043882E+03  0.63872353666E+03  0.17200000000E+03 0. -1.
</event>
<event>
 4    1  0.3211568E-002  0.2525401E+03  0.7818608E-02  0.1111710E+00
          2   -1    0    0  502    0  0.00000000000E+00  0.00000000000E+00  0.26631235292E+03  0.26631235292E+03  0.00000000000E+00 0. -1.
         -2   -1    0    0    0  501 -0.00000000000E+00 -0.00000000000E+00 -0.24917902733E+03  0.24917902733E+03  0.00000000000E+00 0.  1.
          6    1    1    2  502    0  0.15277786440E+03  0.10417013233E+03 -0.42284269089E+02  0.25605556376E+03  0.17200000000E+03 0.  1.
         -6    1    1    2    0  501 -0.15277786440E+03 -0.10417013233E+03  0.59417594677E+02  0.25943581649E+03  0.17200000000E+03 0. -1.
</event>
<event>
 4    1  0.3211568E-002  0.2758259E+03  0.7818608E-02  0.1097991E+00
         -1   -1    0    0    0  501 -0.00000000000E+00  0.00000000000E+00  0.14156769175E+03  0.14156769175E+03  0.00000000000E+00 0.  1.
          1   -1    0    0  502    0  0.00000000000E+00 -0.00000000000E+00 -0.59721147136E+03  0.59721147136E+03  0.00000000000E+00 0. -1.
          6    1    1    2  502    0  0.75472538840E+02 -0.20198966804E+03 -0.11093237383E+03  0.29729769874E+03  0.17200000000E+03 0.  1.
         -6    1    1    2    0  501 -0.75472538840E+02  0.20198966804E+03 -0.34471140577E+03  0.44148146437E+03  0.17200000000E+03 0. -1.
</event>
<event>
 4    1  0.3211568E-002  0.2261473E+03  0.7818608E-02  0.1129381E+00
         -1   -1    0    0    0  501 -0.00000000000E+00  0.00000000000E+00  0.28111667597E+03  0.28111667597E+03  0.00000000000E+00 0.  1.
          1   -1    0    0  502    0  0.00000000000E+00 -0.00000000000E+00 -0.35778836625E+03  0.35778836625E+03  0.00000000000E+00 0. -1.
          6    1    1    2  502    0 -0.12261847638E+03 -0.80766916600E+02 -0.26230024758E+03  0.34632933091E+03  0.17200000000E+03 0. -1.
         -6    1    1    2    0  501  0.12261847638E+03  0.80766916600E+02  0.18562855730E+03  0.29257571132E+03  0.17200000000E+03 0.  1.
</event>
<event>
 4    1  0.3211568E-002  0.3576734E+03  0.7818608E-02  0.1059509E+00
         -2   -1    0    0    0  501 -0.00000000000E+00  0.00000000000E+00  0.65272531142E+03  0.65272531142E+03  0.00000000000E+00 0.  1.
          2   -1    0    0  502    0  0.00000000000E+00 -0.00000000000E+00 -0.19707949315E+03  0.19707949315E+03  0.00000000000E+00 0. -1.
          6    1    1    2  502    0  0.22448993710E+03 -0.21897607432E+03  0.25935693863E+03  0.44181022464E+03  0.17200000000E+03 0. -1.
         -6    1    1    2    0  501 -0.22448993710E+03  0.21897607432E+03  0.19628887964E+03  0.40799457993E+03  0.17200000000E+03 0.  1.
</event>
<event>
 4    1  0.3211568E-002  0.1809693E+03  0.7818608E-02  0.1166868E+00
          2   -1    0    0  502    0  0.00000000000E+00  0.00000000000E+00  0.46590030474E+03  0.46590030474E+03  0.00000000000E+00 0. -1.
         -2   -1    0    0    0  501 -0.00000000000E+00 -0.00000000000E+00 -0.30709165130E+03  0.30709165130E+03  0.00000000000E+00 0.  1.
          6    1    1    2  502    0  0.55658400165E+02 -0.82481556014E+01  0.41879498076E+03  0.45622267096E+03  0.17200000000E+03 0. -1.
         -6    1    1    2    0  501 -0.55658400165E+02  0.82481556014E+01 -0.25998632733E+03  0.31676928509E+03  0.17200000000E+03 0.  1.
</event>
<event>
 4    1  0.3211568E-002  0.6372204E+03  0.7818608E-02  0.9831059E-01
          2   -1    0    0  502    0  0.00000000000E+00  0.00000000000E+00  0.22769399091E+04  0.22769399091E+04  0.00000000000E+00 0. -1.
         -2   -1    0    0    0  501 -0.00000000000E+00 -0.00000000000E+00 -0.19649607579E+03  0.19649607579E+03  0.00000000000E+00 0.  1.
          6    1    1    2  502    0 -0.56724107732E+03 -0.23388747885E+03  0.14162393944E+04  0.15529918915E+04  0.17200000000E+03 0. -1.
         -6    1    1    2    0  501  0.56724107732E+03  0.23388747885E+03  0.66420443891E+03  0.92044409348E+03  0.17200000000E+03 0.  1.
</event>
<event>
 4    1  0.3211568E-002  0.2345395E+03  0.7818608E-02  0.1123485E+00
         -1   -1    0    0    0  501 -0.00000000000E+00  0.00000000000E+00  0.26183686366E+03  0.26183686366E+03  0.00000000000E+00 0.  1.
          1   -1    0    0  502    0  0.00000000000E+00 -0.00000000000E+00 -0.30433905388E+03  0.30433905388E+03  0.00000000000E+00 0. -1.
          6    1    1    2  502    0  0.72070453019E+02  0.14223434598E+03 -0.17878929160E+03  0.29491417424E+03  0.17200000000E+03 0. -1.
         -6    1    1    2    0  501 -0.72070453019E+02 -0.14223434598E+03  0.13628710139E+03  0.27126174330E+03  0.17200000000E+03 0.  1.
</event>
<event>
 4    1  0.3211568E-002  0.1727224E+03  0.7818608E-02  0.1175038E+00
         -1   -1    0    0    0  501 -0.00000000000E+00  0.00000000000E+00  0.12548444016E+03  0.12548444016E+03  0.00000000000E+00 0.  1.
          1   -1    0    0  502    0  0.00000000000E+00 -0.00000000000E+00 -0.39021840031E+03  0.39021840031E+03  0.00000000000E+00 0. -1.
          6    1    1    2  502    0 -0.15396060545E+02 -0.34623446078E+01 -0.29354869874E+03  0.34059340135E+03  0.17200000000E+03 0. -1.
         -6    1    1    2    0  501  0.15396060545E+02  0.34623446078E+01  0.28814738592E+02  0.17510943912E+03  0.17200000000E+03 0.  1.
</event>
<event>
 4    1  0.3211568E-002  0.4469394E+03  0.7818608E-02  0.1028639E+00
         -2   -1    0    0    0  501 -0.00000000000E+00  0.00000000000E+00  0.11891360916E+04  0.11891360916E+04  0.00000000000E+00 0.  1.
          2   -1    0    0  502    0  0.00000000000E+00 -0.00000000000E+00 -0.31060913778E+03  0.31060913778E+03  0.00000000000E+00 0. -1.
          6    1    1    2  502    0 -0.12085796778E+03  0.39441619829E+03 -0.68872288503E+02  0.45221474763E+03  0.17200000000E+03 0. -1.
         -6    1    1    2    0  501  0.12085796778E+03 -0.39441619829E+03  0.94739924228E+03  0.10475304817E+04  0.17200000000E+03 0.  1.
</event>
<event>
 4    1  0.3211568E-002  0.2169218E+03  0.7818608E-02  0.1136199E+00
          1   -1    0    0  502    0  0.00000000000E+00  0.00000000000E+00  0.20975025484E+03  0.20975025484E+03  0.00000000000E+00 0. -1.
         -1   -1    0    0    0  501 -0.00000000000E+00 -0.00000000000E+00 -0.23494461567E+03  0.23494461567E+03  0.00000000000E+00 0.  1.
          6    1    1    2  502    0 -0.13085642369E+03 -0.18645440050E+02  0.34644757131E+02  0.21967092491E+03  0.17200000000E+03 0.  1.
         -6    1    1    2    0  501  0.13085642369E+03  0.18645440050E+02 -0.59839117967E+02  0.22502394560E+03  0.17200000000E+03 0.  1.
</event>
<event>
 4    1  0.3211568E-002  0.2766124E+03  0.7818608E-02  0.1097554E+00
          1   -1    0    0  502    0  0.00000000000E+00  0.00000000000E+00  0.14555849024E+04  0.14555849024E+04  0.00000000000E+00 0. -1.
         -1   -1    0    0    0  501 -0.00000000000E+00 -0.00000000000E+00 -0.53064084394E+02  0.53064084394E+02  0.00000000000E+00 0.  1.
          6    1    1    2  502    0  0.20130404999E+03  0.80044308200E+02  0.62818543819E+03  0.68639009067E+03  0.17200000000E+03 0. -1.
         -6    1    1    2    0  501 -0.20130404999E+03 -0.80044308200E+02  0.77433537982E+03  0.82225889613E+03  0.17200000000E+03 0.  1.
</event>
<event>
 4    1  0.3211568E-002  0.2655137E+03  0.7818608E-02  0.1103875E+00
          2   -1    0    0  502    0  0.00000000000E+00  0.00000000000E+00  0.15491999531E+04  0.15491999531E+04  0.00000000000E+00 0. -1.
         -2   -1    0    0    0  501 -0.00000000000E+00 -0.00000000000E+00 -0.72237669559E+02  0.72237669559E+02  0.00000000000E+00 0.  1.
          6    1    1    2  502    0 -0.16379798752E+03  0.11867498276E+03  0.12316587166E+04  0.12599526683E+04  0.17200000000E+03 0. -1.
         -6    1    1    2    0  501  0.16379798752E+03 -0.11867498276E+03  0.24530356693E+03  0.36148495432E+03  0.17200000000E+03 0.  1.
</event>
<event>
 4    1  0.3211568E-002  0.2163709E+03  0.7818608E-02  0.1136618E+00
          2   -1    0    0  502    0  0.00000000000E+00  0.00000000000E+00  0.82737925097E+03  0.82737925097E+03  0.00000000000E+00 0. -1.
         -2   -1    0    0    0  501 -0.00000000000E+00 -0.00000000000E+00 -0.60402910807E+02  0.60402910807E+02  0.00000000000E+00 0.  1.
          6    1    1    2  502    0  0.39408215616E+02  0.12521725489E+03  0.27187349275E+03  0.34746447939E+03  0.17200000000E+03 0.  1.
         -6    1    1    2    0  501 -0.39408215616E+02 -0.12521725489E+03  0.49510284741E+03  0.54031768238E+03  0.17200000000E+03 0.  1.
</event>
<event>
 4    1  0.3211568E-002  0.1818095E+03  0.7818608E-02  0.1166063E+00
          1   -1    0    0  502    0  0.00000000000E+00  0.00000000000E+00  0.68012490057E+02  0.68012490057E+02  0.00000000000E+00 0. -1.
         -1   -1    0    0    0  501 -0.00000000000E+00 -0.00000000000E+00 -0.48623786229E+03  0.48623786229E+03  0.00000000000E+00 0.  1.
          6    1    1    2  502    0 -0.49986284181E+02  0.31177679428E+02 -0.21512611411E+03  0.28166277935E+03  0.17200000000E+03 0.  1.
         -6    1    1    2    0  501  0.49986284181E+02 -0.31177679428E+02 -0.20309925812E+03  0.27258757299E+03  0.17200000000E+03 0.  1.
</event>
<event>
 4    1  0.3211568E-002  0.2019787E+03  0.7818608E-02  0.1148080E+00
          2   -1    0    0  502    0  0.00000000000E+00  0.00000000000E+00  0.54181344476E+03  0.54181344476E+03  0.00000000000E+00 0. -1.
         -2   -1    0    0    0  501 -0.00000000000E+00 -0.00000000000E+00 -0.75294451682E+02  0.75294451682E+02  0.00000000000E+00 0.  1.
          6    1    1    2  502    0  0.10500080248E+03  0.13647216540E+02  0.23270616673E+03  0.30813564395E+03  0.17200000000E+03 0. -1.
         -6    1    1    2    0  501 -0.10500080248E+03 -0.13647216540E+02  0.23381282635E+03  0.30897225249E+03  0.17200000000E+03 0.  1.
</event>
<event>
 4    1  0.3211568E-002  0.1932985E+03  0.7818608E-02  0.1155519E+00
          3   -1    0    0  502    0  0.00000000000E+00  0.00000000000E+00  0.21119293260E+03  0.21119293260E+03  0.00000000000E+00 0. -1.
         -3   -1    0    0    0  501 -0.00000000000E+00 -0.00000000000E+00 -0.21230221160E+03  0.21230221160E+03  0.00000000000E+00 0.  1.
          6    1    1    2  502    0 -0.64685701368E+02  0.59967261787E+02  0.85888784108E+02  0.21152114713E+03  0.17200000000E+03 0. -1.
         -6    1    1    2    0  501  0.64685701368E+02 -0.59967261787E+02 -0.86998063105E+02  0.21197399706E+03  0.17200000000E+03 0.  1.
</event>
<event>
 4    1  0.3211568E-002  0.3365299E+03  0.7818608E-02  0.1068284E+00
         -2   -1    0    0    0  501 -0.00000000000E+00  0.00000000000E+00  0.26539061858E+03  0.26539061858E+03  0.00000000000E+00 0.  1.
          2   -1    0    0  502    0  0.00000000000E+00 -0.00000000000E+00 -0.53476153656E+03  0.53476153656E+03  0.00000000000E+00 0. -1.
          6    1    1    2  502    0 -0.28924386906E+03 -0.25250730802E+01 -0.31449830441E+03  0.46061000343E+03  0.17200000000E+03 0. -1.
         -6    1    1    2    0  501  0.28924386906E+03  0.25250730802E+01  0.45127386436E+02  0.33954215171E+03  0.17200000000E+03 0.  1.
</event>
<event>
 4    1  0.3211568E-002  0.1852710E+03  0.7818608E-02  0.1162797E+00
          1   -1    0    0  502    0  0.00000000000E+00  0.00000000000E+00  0.82026939160E+03  0.82026939160E+03  0.00000000000E+00 0. -1.
         -1   -1    0    0    0  501 -0.00000000000E+00 -0.00000000000E+00 -0.42566010912E+02  0.42566010912E+02  0.00000000000E+00 0.  1.
          6    1    1    2  502    0  0.85750205461E+01  0.68321283799E+02  0.44494518675E+03  0.48197670899E+03  0.17200000000E+03 0.  1.
         -6    1    1    2    0  501 -0.85750205461E+01 -0.68321283799E+02  0.33275819393E+03  0.38085869352E+03  0.17200000000E+03 0.  1.
</event>
<event>
 4    1  0.3211568E-002  0.2047062E+03  0.7818608E-02  0.1145828E+00
          2   -1    0    0  502    0  0.00000000000E+00  0.00000000000E+00  0.14222651188E+04  0.14222651188E+04  0.00000000000E+00 0. -1.
         -2   -1    0    0    0  501 -0.00000000000E+00 -0.00000000000E+00 -0.30629495011E+02  0.30629495011E+02  0.00000000000E+00 0.  1.
          6    1    1    2  502    0 -0.16342208579E+02  0.10978868848E+03  0.83756674078E+03  0.86221961771E+03  0.17200000000E+03 0. -1.
         -6    1    1    2    0  501  0.16342208579E+02 -0.10978868848E+03  0.55406888297E+03  0.59067499606E+03  0.17200000000E+03 0. -1.
</event>
<event>
 4    1  0.3211568E-002  0.2469570E+03  0.7818608E-02  0.1115243E+00
          2   -1    0    0  502    0  0.00000000000E+00  0.00000000000E+00  0.40027690971E+03  0.40027690971E+03  0.00000000000E+00 0. -1.
         -2   -1    0    0    0  501 -0.00000000000E+00 -0.00000000000E+00 -0.16369625481E+03  0.16369625481E+03  0.00000000000E+00 0.  1.
          6    1    1    2  502    0  0.13634180481E+03 -0.11320183809E+03  0.19248444892E+03  0.31311021535E+03  0.17200000000E+03 0. -1.
         -6    1    1    2    0  501 -0.13634180481E+03  0.11320183809E+03  0.44096205987E+02  0.25086294917E+03  0.17200000000E+03 0.  1.
</event>
<event>
 4    1  0.3211568E-002  0.1958086E+03  0.7818608E-02  0.1153324E+00
         -4   -1    0    0    0  501 -0.00000000000E+00  0.00000000000E+00  0.33035410246E+02  0.33035410246E+02  0.00000000000E+00 0.  1.
          4   -1    0    0  502    0  0.00000000000E+00 -0.00000000000E+00 -0.12187700058E+04  0.12187700058E+04  0.00000000000E+00 0. -1.
          6    1    1    2  502    0  0.70893327156E+02  0.61083188421E+02 -0.72960291324E+03  0.75542135974E+03  0.17200000000E+03 0. -1.
         -6    1    1    2    0  501 -0.70893327156E+02 -0.61083188421E+02 -0.45613168229E+03  0.49638405628E+03  0.17200000000E+03 0.  1.
</event>
<event>
 4    1  0.3211568E-002  0.1811695E+03  0.7818608E-02  0.1166676E+00
         -2   -1    0    0    0  501 -0.00000000000E+00  0.00000000000E+00  0.31100904672E+02  0.31100904672E+02  0.00000000000E+00 0.  1.
          2   -1    0    0  502    0  0.00000000000E+00 -0.00000000000E+00 -0.10850303675E+04  0.10850303675E+04  0.00000000000E+00 0. -1.
          6    1    1    2  502    0 -0.10645689255E+02  0.55902368395E+02 -0.61926086409E+03  0.64521812071E+03  0.17200000000E+03 0. -1.
         -6    1    1    2    0  501  0.10645689255E+02 -0.55902368395E+02 -0.43466859869E+03  0.47091315142E+03  0.17200000000E+03 0.  1.
</event>
<event>
 4    1  0.3211568E-002  0.2704566E+03  0.7818608E-02  0.1101019E+00
         -1   -1    0    0    0  501 -0.00000000000E+00  0.00000000000E+00  0.63571058698E+02  0.63571058698E+02  0.00000000000E+00 0.  1.
          1   -1    0    0  502    0  0.00000000000E+00 -0.00000000000E+00 -0.12165618014E+04  0.12165618014E+04  0.00000000000E+00 0. -1.
          6    1    1    2  502    0  0.12694034786E+03 -0.16567721213E+03 -0.72550153308E+03  0.77427337875E+03  0.17200000000E+03 0. -1.
         -6    1    1    2    0  501 -0.12694034786E+03  0.16567721213E+03 -0.42748920965E+03  0.50585948138E+03  0.17200000000E+03 0.  1.
</event>
<event>
 4    1  0.3211568E-002  0.1959925E+03  0.7818608E-02  0.1153165E+00
         -1   -1    0    0    0  501 -0.00000000000E+00  0.00000000000E+00  0.23560497268E+02  0.23560497268E+02  0.00000000000E+00 0.  1.
          1   -1    0    0  502    0  0.00000000000E+00 -0.00000000000E+00 -0.17588909415E+04  0.17588909415E+04  0.00000000000E+00 0. -1.
          6    1    1    2  502    0 -0.91886727409E+02  0.19643711019E+02 -0.11085468622E+04  0.11257393978E+04  0.17200000000E+03 0. -1.
         -6    1    1    2    0  501  0.91886727409E+02 -0.19643711019E+02 -0.62678358208E+03  0.65671204102E+03  0.17200000000E+03 0.  1.
</event>
<event>
 4    1  0.3211568E-002  0.4648601E+03  0.7818608E-02  0.1023381E+00
         -1   -1    0    0    0  501 -0.00000000000E+00  0.00000000000E+00  0.13967326540E+03  0.13967326540E+03  0.00000000000E+00 0.  1.
          1   -1    0    0  502    0  0.00000000000E+00 -0.00000000000E+00 -0.15522525138E+04  0.15522525138E+04  0.00000000000E+00 0. -1.
          6    1    1    2  502    0 -0.19955038579E+03  0.38300198305E+03 -0.65776634350E+03  0.80545107743E+03  0.17200000000E+03 0. -1.
         -6    1    1    2    0  501  0.19955038579E+03 -0.38300198305E+03 -0.75481290493E+03  0.88647470181E+03  0.17200000000E+03 0. -1.
</event>
<event>
 4    1  0.3211568E-002  0.3833584E+03  0.7818608E-02  0.1049699E+00
         -1   -1    0    0    0  501 -0.00000000000E+00  0.00000000000E+00  0.26896503692E+03  0.26896503692E+03  0.00000000000E+00 0.  1.
          1   -1    0    0  502    0  0.00000000000E+00 -0.00000000000E+00 -0.57379444714E+03  0.57379444714E+03  0.00000000000E+00 0. -1.
          6    1    1    2  502    0  0.20161400762E+03  0.27700449618E+03 -0.24447901497E+03  0.45467976393E+03  0.17200000000E+03 0. -1.
         -6    1    1    2    0  501 -0.20161400762E+03 -0.27700449618E+03 -0.60350395250E+02  0.38807972013E+03  0.17200000000E+03 0.  1.
</event>
<event>
 4    1  0.3211568E-002  0.1919479E+03  0.7818608E-02  0.1156716E+00
          1   -1    0    0  502    0  0.00000000000E+00  0.00000000000E+00  0.10173228401E+04  0.10173228401E+04  0.00000000000E+00 0. -1.
         -1   -1    0    0    0  501 -0.00000000000E+00 -0.00000000000E+00 -0.37951187729E+02  0.37951187729E+02  0.00000000000E+00 0.  1.
          6    1    1    2  502    0 -0.62598774548E+02  0.57804635968E+02  0.60248857964E+03  0.63232623788E+03  0.17200000000E+03 0. -1.
         -6    1    1    2    0  501  0.62598774548E+02 -0.57804635968E+02  0.37688307275E+03  0.42294778997E+03  0.17200000000E+03 0.  1.
</event>
<event>
 4    1  0.3211568E-002  0.2210755E+03  0.7818608E-02  0.1133084E+00
         -2   -1    0    0    0  501 -0.00000000000E+00  0.00000000000E+00  0.39663458112E+02  0.39663458112E+02  0.00000000000E+00 0.  1.
          2   -1    0    0  502    0  0.00000000000E+00 -0.00000000000E+00 -0.28632224653E+04  0.28632224653E+04  0.00000000000E+00 0. -1.
          6    1    1    2  502    0  0.19500665166E+02 -0.13751398548E+03 -0.25072453547E+04  0.25169731108E+04  0.17200000000E+03 0. -1.
         -6    1    1    2    0  501 -0.19500665166E+02  0.13751398548E+03 -0.31631365252E+03  0.38591281258E+03  0.17200000000E+03 0.  1.
</event>
<event>
 4    1  0.3211568E-002  0.3835928E+03  0.7818608E-02  0.1049614E+00
          2   -1    0    0  502    0  0.00000000000E+00  0.00000000000E+00  0.12455989037E+04  0.12455989037E+04  0.00000000000E+00 0. -1.
         -2   -1    0    0    0  501 -0.00000000000E+00 -0.00000000000E+00 -0.15658545219E+03  0.15658545219E+03  0.00000000000E+00 0.  1.
          6    1    1    2  502    0 -0.16724072795E+03 -0.29931581023E+03  0.89194261222E+03  0.97092998657E+03  0.17200000000E+03 0. -1.
         -6    1    1    2    0  501  0.16724072795E+03  0.29931581023E+03  0.19707083926E+03  0.43125436928E+03  0.17200000000E+03 0.  1.
</event>
<event>
 4    1  0.3211568E-002  0.4383721E+03  0.7818608E-02  0.1031247E+00
         -2   -1    0    0    0  501 -0.00000000000E+00  0.00000000000E+00  0.15890349851E+03  0.15890349851E+03  0.00000000000E+00 0.  1.
          2   -1    0    0  502    0  0.00000000000E+00 -0.00000000000E+00 -0.12740884024E+04  0.12740884024E+04  0.00000000000E+00 0. -1.
          6    1    1    2  502    0 -0.38897888057E+03  0.10621451698E+03 -0.71909963415E+03  0.84218428920E+03  0.17200000000E+03 0. -1.
         -6    1    1    2    0  501  0.38897888057E+03 -0.10621451698E+03 -0.39608526975E+03  0.59080761172E+03  0.17200000000E+03 0.  1.
</event>
<event>
 4    1  0.3211568E-002  0.2992801E+03  0.7818608E-02  0.1085601E+00
         -1   -1    0    0    0  501 -0.00000000000E+00  0.00000000000E+00  0.10583445123E+04  0.10583445123E+04  0.00000000000E+00 0.  1.
          1   -1    0    0  502    0  0.00000000000E+00 -0.00000000000E+00 -0.19007459973E+03  0.19007459973E+03  0.00000000000E+00 0. -1.
          6    1    1    2  502    0  0.12857017345E+03  0.20845697963E+03 -0.30785632863E+02  0.30085936423E+03  0.17200000000E+03 0. -1.
         -6    1    1    2    0  501 -0.12857017345E+03 -0.20845697963E+03  0.89905554541E+03  0.94755974776E+03  0.17200000000E+03 0.  1.
</event>
<event>
 4    1  0.3211568E-002  0.1983030E+03  0.7818608E-02  0.1151179E+00
         -1   -1    0    0    0  501 -0.00000000000E+00  0.00000000000E+00  0.45943653590E+03  0.45943653590E+03  0.00000000000E+00 0.  1.
          1   -1    0    0  502    0  0.00000000000E+00 -0.00000000000E+00 -0.18442632380E+03  0.18442632380E+03  0.00000000000E+00 0. -1.
          6    1    1    2  502    0  0.43641509375E+02  0.88518359222E+02 -0.98165746378E+02  0.22127041154E+03  0.17200000000E+03 0. -1.
         -6    1    1    2    0  501 -0.43641509375E+02 -0.88518359222E+02  0.37317595848E+03  0.42259244816E+03  0.17200000000E+03 0.  1.
</event>
<event>
 4    1  0.3211568E-002  0.3086517E+03  0.7818608E-02  0.1080994E+00
         -2   -1    0    0    0  501 -0.00000000000E+00  0.00000000000E+00  0.12095034080E+03  0.12095034080E+03  0.00000000000E+00 0.  1.
          2   -1    0    0  502    0  0.00000000000E+00 -0.00000000000E+00 -0.79348782799E+03  0.79348782799E+03  0.00000000000E+00 0. -1.
          6    1    1    2  502    0 -0.14996341778E+03 -0.20782886528E+03 -0.29703258928E+03  0.42836225675E+03  0.17200000000E+03 0.  1.
         -6    1    1    2    0  501  0.14996341778E+03  0.20782886528E+03 -0.37550489791E+03  0.48607591204E+03  0.17200000000E+03 0.  1.
</event>
<event>
 4    1  0.3211568E-002  0.2467560E+03  0.7818608E-02  0.1115372E+00
         -1   -1    0    0    0  501 -0.00000000000E+00  0.00000000000E+00  0.33177153199E+03  0.33177153199E+03  0.00000000000E+00 0.  1.
          1   -1    0    0  502    0  0.00000000000E+00 -0.00000000000E+00 -0.27760864569E+03  0.27760864569E+03  0.00000000000E+00 0. -1.
          6    1    1    2  502    0  0.16845603087E+03 -0.54102609881E+02  0.20445865136E+03  0.32045571745E+03  0.17200000000E+03 0.  1.
         -6    1    1    2    0  501 -0.16845603087E+03  0.54102609881E+02 -0.15029576506E+03  0.28892446024E+03  0.17200000000E+03 0. -1.
</event>
<event>
 4    1  0.3211568E-002  0.2530990E+03  0.7818608E-02  0.1111362E+00
         -2   -1    0    0    0  501 -0.00000000000E+00  0.00000000000E+00  0.42396305988E+03  0.42396305988E+03  0.00000000000E+00 0.  1.
          2   -1    0    0  502    0  0.00000000000E+00 -0.00000000000E+00 -0.15442851228E+03  0.15442851228E+03  0.00000000000E+00 0. -1.
          6    1    1    2  502    0  0.18143852998E+03  0.39435675657E+02  0.92284231968E+02  0.26939838928E+03  0.17200000000E+03 0. -1.
         -6    1    1    2    0  501 -0.18143852998E+03 -0.39435675657E+02  0.17725031564E+03  0.30899318288E+03  0.17200000000E+03 0.  1.
</event>
<event>
 4    1  0.3211568E-002  0.2627506E+03  0.7818608E-02  0.1105502E+00
         -2   -1    0    0    0  501 -0.00000000000E+00  0.00000000000E+00  0.29194687376E+02  0.29194687376E+02  0.00000000000E+00 0.  1.
          2   -1    0    0  502    0  0.00000000000E+00 -0.00000000000E+00 -0.23981821781E+04  0.23981821781E+04  0.00000000000E+00 0. -1.
          6    1    1    2  502    0 -0.48350105317E+02 -0.19265549039E+03 -0.13278140436E+04  0.13535612306E+04  0.17200000000E+03 0. -1.
         -6    1    1    2    0  501  0.48350105317E+02  0.19265549039E+03 -0.10411734471E+04  0.10738156348E+04  0.17200000000E+03 0.  1.
</event>
<event>
 4    1  0.3211568E-002  0.3973890E+03  0.7818608E-02  0.1044688E+00
          2   -1    0    0  502    0  0.00000000000E+00  0.00000000000E+00  0.36479638904E+03  0.36479638904E+03  0.00000000000E+00 0. -1.
         -2   -1    0    0    0  501 -0.00000000000E+00 -0.00000000000E+00 -0.76692882829E+03  0.76692882829E+03  0.00000000000E+00 0.  1.
          6    1    1    2  502    0  0.23941052695E+02  0.35743643378E+03  0.17238138641E+03  0.43316661988E+03  0.17200000000E+03 0. -1.
         -6    1    1    2    0  501 -0.23941052695E+02 -0.35743643378E+03 -0.57451382566E+03  0.69855859745E+03  0.17200000000E+03 0.  1.
</event>
<event>
 4    1  0.3211568E-002  0.3564508E+03  0.7818608E-02  0.1059998E+00
          2   -1    0    0  502    0  0.00000000000E+00  0.00000000000E+00  0.68121480084E+03  0.68121480084E+03  0.00000000000E+00 0. -1.
         -2   -1    0    0    0  501 -0.00000000000E+00 -0.00000000000E+00 -0.23945994331E+03  0.23945994331E+03  0.00000000000E+00 0.  1.
          6    1    1    2  502    0  0.16948912936E+03  0.26219569803E+03  0.43733351908E+03  0.56419655790E+03  0.17200000000E+03 0. -1.
         -6    1    1    2    0  501 -0.16948912936E+03 -0.26219569803E+03  0.44213384546E+01  0.35647818625E+03  0.17200000000E+03 0.  1.
</event>
<event>
 4    1  0.3211568E-002  0.2788843E+03  0.7818608E-02  0.1096300E+00
          1   -1    0    0  502    0  0.00000000000E+00  0.00000000000E+00  0.12143125513E+04  0.12143125513E+04  0.00000000000E+00 0. -1.
         -1   -1    0    0    0  501 -0.00000000000E+00 -0.00000000000E+00 -0.27715484376E+03  0.27715484376E+03  0.00000000000E+00 0.  1.
          6    1    1    2  502    0  0.13547549080E+02 -0.21910933682E+03  0.11224910359E+04  0.11566168610E+04  0.17200000000E+03 0. -1.
         -6    1    1    2    0  501 -0.13547549080E+02  0.21910933682E+03 -0.18533332832E+03  0.33485053405E+03  0.17200000000E+03 0.  1.
</event>
<event>
 4    1  0.3211568E-002  0.1760990E+03  0.7818608E-02  0.1171633E+00
         -2   -1    0    0    0  501 -0.00000000000E+00  0.00000000000E+00  0.35768009979E+03  0.35768009979E+03  0.00000000000E+00 0.  1.
          2   -1    0    0  502    0  0.00000000000E+00 -0.00000000000E+00 -0.89936262144E+02  0.89936262144E+02  0.00000000000E+00 0. -1.
          6    1    1    2  502    0 -0.30358237419E+02 -0.22477529619E+02  0.91416717936E+02  0.19841340236E+03  0.17200000000E+03 0. -1.
         -6    1    1    2    0  501  0.30358237419E+02  0.22477529619E+02  0.17632711971E+03  0.24920295958E+03  0.17200000000E+03 0.  1.
</event>
<event>
 4    1  0.3211568E-002  0.2243312E+03  0.7818608E-02  0.1130695E+00
          4   -1    0    0  502    0  0.00000000000E+00  0.00000000000E+00  0.80306114463E+03  0.80306114463E+03  0.00000000000E+00 0. -1.
         -4   -1    0    0    0  501 -0.00000000000E+00 -0.00000000000E+00 -0.69964432498E+02  0.69964432498E+02  0.00000000000E+00 0.  1.
          6    1    1    2  502    0 -0.95878540993E+02  0.10746075719E+03  0.22556183810E+03  0.31812364226E+03  0.17200000000E+03 0. -1.
         -6    1    1    2    0  501  0.95878540993E+02 -0.10746075719E+03  0.50753487403E+03  0.55490193486E+03  0.17200000000E+03 0.  1.
</event>
<event>
 4    1  0.3211568E-002  0.3410087E+03  0.7818608E-02  0.1066367E+00
         -2   -1    0    0    0  501 -0.00000000000E+00  0.00000000000E+00  0.91323007641E+03  0.91323007641E+03  0.00000000000E+00 0.  1.
          2   -1    0    0  502    0  0.00000000000E+00 -0.00000000000E+00 -0.18266519331E+03  0.18266519331E+03  0.00000000000E+00 0. -1.
          6    1    1    2  502    0  0.15069094668E+03  0.25297271489E+03  0.66685289875E+03  0.74898581058E+03  0.17200000000E+03 0.  1.
         -6    1    1    2    0  501 -0.15069094668E+03 -0.25297271489E+03  0.63711984356E+02  0.34690945914E+03  0.17200000000E+03 0. -1.
</event>
<event>
 4    1  0.3211568E-002  0.4808529E+03  0.7818608E-02  0.1018901E+00
          1   -1    0    0  502    0  0.00000000000E+00  0.00000000000E+00  0.18751415985E+04  0.18751415985E+04  0.00000000000E+00 0. -1.
         -1   -1    0    0    0  501 -0.00000000000E+00 -0.00000000000E+00 -0.24678429873E+03  0.24678429873E+03  0.00000000000E+00 0.  1.
          6    1    1    2  502    0 -0.21404248035E+03 -0.39474205816E+03  0.15646492974E+04  0.16368710700E+04  0.17200000000E+03 0. -1.
         -6    1    1    2    0  501  0.21404248035E+03  0.39474205816E+03  0.63708002368E+02  0.48505482726E+03  0.17200000000E+03 0.  1.
</event>
<event>
 4    1  0.3211568E-002  0.2334994E+03  0.7818608E-02  0.1124201E+00
          1   -1    0    0  502    0  0.00000000000E+00  0.00000000000E+00  0.94122396052E+03  0.94122396052E+03  0.00000000000E+00 0. -1.
         -1   -1    0    0    0  501 -0.00000000000E+00 -0.00000000000E+00 -0.71048740961E+02  0.71048740961E+02  0.00000000000E+00 0.  1.
          6    1    1    2  502    0  0.75531482226E+02  0.13868291409E+03  0.21757182498E+03  0.31915428008E+03  0.17200000000E+03 0.  1.
         -6    1    1    2    0  501 -0.75531482226E+02 -0.13868291409E+03  0.65260339457E+03  0.69311842140E+03  0.17200000000E+03 0. -1.
</event>
<event>
 4    1  0.3211568E-002  0.1781260E+03  0.7818608E-02  0.1169629E+00
         -1   -1    0    0    0  501 -0.00000000000E+00  0.00000000000E+00  0.86645420637E+02  0.86645420637E+02  0.00000000000E+00 0.  1.
          1   -1    0    0  502    0  0.00000000000E+00 -0.00000000000E+00 -0.71049618911E+03  0.71049618911E+03  0.00000000000E+00 0. -1.
          6    1    1    2  502    0 -0.46101167181E+02 -0.44202246655E+01 -0.58938244981E+03  0.61571140004E+03  0.17200000000E+03 0. -1.
         -6    1    1    2    0  501  0.46101167181E+02  0.44202246655E+01 -0.34468318665E+02  0.18143020970E+03  0.17200000000E+03 0.  1.
</event>
<event>
 4    1  0.3211568E-002  0.1830669E+03  0.7818608E-02  0.1164867E+00
          1   -1    0    0  502    0  0.00000000000E+00  0.00000000000E+00  0.22435363224E+04  0.22435363224E+04  0.00000000000E+00 0. -1.
         -1   -1    0    0    0  501 -0.00000000000E+00 -0.00000000000E+00 -0.39760822881E+02  0.39760822881E+02  0.00000000000E+00 0.  1.
          6    1    1    2  502    0 -0.26416875953E+02 -0.56847422157E+02  0.20039409524E+04  0.20122854722E+04  0.17200000000E+03 0. -1.
         -6    1    1    2    0  501  0.26416875953E+02  0.56847422157E+02  0.19983454707E+03  0.27101167307E+03  0.17200000000E+03 0.  1.
</event>
<event>
 4    1  0.3211568E-002  0.7000384E+03  0.7818608E-02  0.9717166E-01
          1   -1    0    0  502    0  0.00000000000E+00  0.00000000000E+00  0.48107950924E+03  0.48107950924E+03  0.00000000000E+00 0. -1.
         -1   -1    0    0    0  501 -0.00000000000E+00 -0.00000000000E+00 -0.10200901322E+04  0.10200901322E+04  0.00000000000E+00 0.  1.
          6    1    1    2  502    0  0.57441395161E+03  0.36127330280E+03 -0.29766373439E+03  0.76069539626E+03  0.17200000000E+03 0. -1.
         -6    1    1    2    0  501 -0.57441395161E+03 -0.36127330280E+03 -0.24134688853E+03  0.74047424514E+03  0.17200000000E+03 0.  1.
</event>
<event>
 4    1  0.3211568E-002  0.1854553E+03  0.7818608E-02  0.1162625E+00
          2   -1    0    0  502    0  0.00000000000E+00  0.00000000000E+00  0.40225414982E+03  0.40225414982E+03  0.00000000000E+00 0. -1.
         -2   -1    0    0    0  501 -0.00000000000E+00 -0.00000000000E+00 -0.12038683307E+03  0.12038683307E+03  0.00000000000E+00 0.  1.
          6    1    1    2  502    0  0.23614618275E+02  0.65207613761E+02  0.28160317454E+03  0.33718545491E+03  0.17200000000E+03 0. -1.
         -6    1    1    2    0  501 -0.23614618275E+02 -0.65207613761E+02  0.26414220927E+00  0.18545552798E+03  0.17200000000E+03 0.  1.
</event>
<event>
 4    1  0.3211568E-002  0.2578538E+03  0.7818608E-02  0.1108440E+00
          2   -1    0    0  502    0  0.00000000000E+00  0.00000000000E+00  0.18256013872E+04  0.18256013872E+04  0.00000000000E+00 0. -1.
         -2   -1    0    0    0  501 -0.00000000000E+00 -0.00000000000E+00 -0.53523696492E+02  0.53523696492E+02  0.00000000000E+00 0.  1.
          6    1    1    2  502    0 -0.19156361934E+03  0.14420038229E+02  0.14171636148E+04  0.14404309317E+04  0.17200000000E+03 0. -1.
         -6    1    1    2    0  501  0.19156361934E+03 -0.14420038229E+02  0.35491407592E+03  0.43869415205E+03  0.17200000000E+03 0.  1.
</event>
<event>
 4    1  0.3211568E-002  0.5082845E+03  0.7818608E-02  0.1011639E+00
         -1   -1    0    0    0  501 -0.00000000000E+00  0.00000000000E+00  0.35249819779E+03  0.35249819779E+03  0.00000000000E+00 0.  1.
          1   -1    0    0  502    0  0.00000000000E+00 -0.00000000000E+00 -0.10544138637E+04  0.10544138637E+04  0.00000000000E+00 0. -1.
          6    1    1    2  502    0 -0.45349572642E+03  0.15202217870E+03  0.37476387742E+02  0.50966419958E+03  0.17200000000E+03 0. -1.
         -6    1    1    2    0  501  0.45349572642E+03 -0.15202217870E+03 -0.73939205367E+03  0.89724786193E+03  0.17200000000E+03 0.  1.
</event>
<event>
 4    1  0.3211568E-002  0.2072161E+03  0.7818608E-02  0.1143790E+00
          1   -1    0    0  502    0  0.00000000000E+00  0.00000000000E+00  0.16304560225E+04  0.16304560225E+04  0.00000000000E+00 0. -1.
         -1   -1    0    0    0  501 -0.00000000000E+00 -0.00000000000E+00 -0.26807722253E+02  0.26807722253E+02  0.00000000000E+00 0.  1.
          6    1    1    2  502    0  0.87077460625E+02  0.75973973163E+02  0.91182661445E+03  0.93507556036E+03  0.17200000000E+03 0.  1.
         -6    1    1    2    0  501 -0.87077460625E+02 -0.75973973163E+02  0.69182168574E+03  0.72218818435E+03  0.17200000000E+03 0.  1.
</event>
<event>
 4    1  0.3211568E-002  0.2048104E+03  0.7818608E-02  0.1145743E+00
          1   -1    0    0  502    0  0.00000000000E+00  0.00000000000E+00  0.15844841446E+04  0.15844841446E+04  0.00000000000E+00 0. -1.
         -1   -1    0    0    0  501 -0.00000000000E+00 -0.00000000000E+00 -0.39037849162E+02  0.39037849162E+02  0.00000000000E+00 0.  1.
          6    1    1    2  502    0  0.94785331115E+02  0.58129454368E+02  0.12332450754E+04  0.12501362760E+04  0.17200000000E+03 0. -1.
         -6    1    1    2    0  501 -0.94785331115E+02 -0.58129454368E+02  0.31220121996E+03  0.37338571773E+03  0.17200000000E+03 0.  1.
</event>
<event>
 4    1  0.3211568E-002  0.2008753E+03  0.7818608E-02  0.1149003E+00
          1   -1    0    0  502    0  0.00000000000E+00  0.00000000000E+00  0.51049480141E+03  0.51049480141E+03  0.00000000000E+00 0. -1.
         -1   -1    0    0    0  501 -0.00000000000E+00 -0.00000000000E+00 -0.97418361103E+02  0.97418361103E+02  0.00000000000E+00 0.  1.
          6    1    1    2  502    0  0.10376354422E+03 -0.14354279742E-01  0.33855008160E+03  0.39365852089E+03  0.17200000000E+03 0. -1.
         -6    1    1    2    0  501 -0.10376354422E+03  0.14354279742E-01  0.74526358703E+02  0.21425464162E+03  0.17200000000E+03 0.  1.
</event>
<event>
 4    1  0.3211568E-002  0.3261076E+03  0.7818608E-02  0.1072872E+00
         -1   -1    0    0    0  501 -0.00000000000E+00  0.00000000000E+00  0.40681482098E+03  0.40681482098E+03  0.00000000000E+00 0.  1.
          1   -1    0    0  502    0  0.00000000000E+00 -0.00000000000E+00 -0.60204574656E+03  0.60204574656E+03  0.00000000000E+00 0. -1.
          6    1    1    2  502    0  0.27331842967E+03 -0.45378422850E+02 -0.47704436975E+03  0.57785594742E+03  0.17200000000E+03 0. -1.
         -6    1    1    2    0  501 -0.27331842967E+03  0.45378422850E+02  0.28181344417E+03  0.43100462013E+03  0.17200000000E+03 0.  1.
</event>
<event>
 4    1  0.3211568E-002  0.2452543E+03  0.7818608E-02  0.1116341E+00
         -2   -1    0    0    0  501 -0.00000000000E+00  0.00000000000E+00  0.22779515478E+03  0.22779515478E+03  0.00000000000E+00 0.  1.
          2   -1    0    0  502    0  0.00000000000E+00 -0.00000000000E+00 -0.53985044533E+03  0.53985044533E+03  0.00000000000E+00 0. -1.
          6    1    1    2  502    0 -0.14350095738E+03  0.99865546165E+02 -0.43036840610E+03  0.49534494753E+03  0.17200000000E+03 0. -1.
         -6    1    1    2    0  501  0.14350095738E+03 -0.99865546165E+02  0.11831311555E+03  0.27230065257E+03  0.17200000000E+03 0.  1.
</event>
<event>
 4    1  0.3211568E-002  0.2097130E+03  0.7818608E-02  0.1141793E+00
         -2   -1    0    0    0  501 -0.00000000000E+00  0.00000000000E+00  0.10185985492E+03  0.10185985492E+03  0.00000000000E+00 0.  1.
          2   -1    0    0  502    0  0.00000000000E+00 -0.00000000000E+00 -0.20682967973E+04  0.20682967973E+04  0.00000000000E+00 0. -1.
          6    1    1    2  502    0  0.10089943513E+03 -0.64921824808E+02 -0.19484174597E+04  0.19596709256E+04  0.17200000000E+03 0. -1.
         -6    1    1    2    0  501 -0.10089943513E+03  0.64921824808E+02 -0.18019482651E+02  0.21048572660E+03  0.17200000000E+03 0.  1.
</event>
<event>
 4    1  0.3211568E-002  0.1914903E+03  0.7818608E-02  0.1157124E+00
          2   -1    0    0  502    0  0.00000000000E+00  0.00000000000E+00  0.11791252653E+04  0.11791252653E+04  0.00000000000E+00 0. -1.
         -2   -1    0    0    0  501 -0.00000000000E+00 -0.00000000000E+00 -0.62247961143E+02  0.62247961143E+02  0.00000000000E+00 0.  1.
          6    1    1    2  502    0  0.60648486441E+02  0.58363606652E+02  0.99751283893E+03  0.10157265446E+04  0.17200000000E+03 0. -1.
         -6    1    1    2    0  501 -0.60648486441E+02 -0.58363606652E+02  0.11936446524E+03  0.22564668190E+03  0.17200000000E+03 0.  1.
</event>
<event>
 4    1  0.3211568E-002  0.4068297E+03  0.7818608E-02  0.1041440E+00
          2   -1    0    0  502    0  0.00000000000E+00  0.00000000000E+00  0.82667217080E+03  0.82667217080E+03  0.00000000000E+00 0. -1.
         -2   -1    0    0    0  501 -0.00000000000E+00 -0.00000000000E+00 -0.20887729872E+03  0.20887729872E+03  0.00000000000E+00 0.  1.
          6    1    1    2  502    0 -0.27066533743E+03  0.25033311858E+03  0.41435204996E+03  0.58068753771E+03  0.17200000000E+03 0. -1.
         -6    1    1    2    0  501  0.27066533743E+03 -0.25033311858E+03  0.20344282212E+03  0.45486193181E+03  0.17200000000E+03 0.  1.
</event>
<event>
 4    1  0.3211568E-002  0.2075887E+03  0.7818608E-02  0.1143490E+00
         -3   -1    0    0    0  501 -0.00000000000E+00  0.00000000000E+00  0.30309182873E+03  0.30309182873E+03  0.00000000000E+00 0.  1.
          3   -1    0    0  502    0  0.00000000000E+00 -0.00000000000E+00 -0.19763075018E+03  0.19763075018E+03  0.00000000000E+00 0. -1.
          6    1    1    2  502    0  0.11407445133E+03  0.22273191104E+02 -0.79886815429E+02  0.22242971647E+03  0.17200000000E+03 0. -1.
         -6    1    1    2    0  501 -0.11407445133E+03 -0.22273191104E+02  0.18534789397E+03  0.27829286244E+03  0.17200000000E+03 0.  1.
</event>
<event>
 4    1  0.3211568E-002  0.4664292E+03  0.7818608E-02  0.1022933E+00
          2   -1    0    0  502    0  0.00000000000E+00  0.00000000000E+00  0.16355990262E+04  0.16355990262E+04  0.00000000000E+00 0. -1.
         -2   -1    0    0    0  501 -0.00000000000E+00 -0.00000000000E+00 -0.14230165125E+03  0.14230165125E+03  0.00000000000E+00 0.  1.
          6    1    1    2  502    0  0.39417238980E+03 -0.18055554593E+03  0.51953392724E+03  0.69819172124E+03  0.17200000000E+03 0. -1.
         -6    1    1    2    0  501 -0.39417238980E+03  0.18055554593E+03  0.97376344771E+03  0.10797089562E+04  0.17200000000E+03 0.  1.
</event>
<event>
 4    1  0.3211568E-002  0.3377460E+03  0.7818608E-02  0.1067760E+00
         -2   -1    0    0    0  501 -0.00000000000E+00  0.00000000000E+00  0.23335538063E+03  0.23335538063E+03  0.00000000000E+00 0.  1.
          2   -1    0    0  502    0  0.00000000000E+00 -0.00000000000E+00 -0.84183035453E+03  0.84183035453E+03  0.00000000000E+00 0. -1.
          6    1    1    2  502    0  0.24567858256E+03  0.15533958658E+03 -0.65235470417E+03  0.73460126133E+03  0.17200000000E+03 0. -1.
         -6    1    1    2    0  501 -0.24567858256E+03 -0.15533958658E+03  0.43879730275E+02  0.34058447383E+03  0.17200000000E+03 0.  1.
</event>
<event>
 4    1  0.3211568E-002  0.2300103E+03  0.7818608E-02  0.1126633E+00
         -2   -1    0    0    0  501 -0.00000000000E+00  0.00000000000E+00  0.37948146173E+03  0.37948146173E+03  0.00000000000E+00 0.  1.
          2   -1    0    0  502    0  0.00000000000E+00 -0.00000000000E+00 -0.15667919511E+03  0.15667919511E+03  0.00000000000E+00 0. -1.
          6    1    1    2  502    0  0.14927599029E+03 -0.32209017779E+02  0.22408405634E+02  0.23109928331E+03  0.17200000000E+03 0. -1.
         -6    1    1    2    0  501 -0.14927599029E+03  0.32209017779E+02  0.20039386098E+03  0.30506137353E+03  0.17200000000E+03 0.  1.
</event>
<event>
 4    1  0.3211568E-002  0.2079990E+03  0.7818608E-02  0.1143160E+00
         -2   -1    0    0    0  501 -0.00000000000E+00  0.00000000000E+00  0.19088882935E+02  0.19088882935E+02  0.00000000000E+00 0.  1.
          2   -1    0    0  502    0  0.00000000000E+00 -0.00000000000E+00 -0.29104292712E+04  0.29104292712E+04  0.00000000000E+00 0. -1.
          6    1    1    2  502    0 -0.16352806290E+02 -0.11581084867E+03 -0.21346892680E+04  0.21447987873E+04  0.17200000000E+03 0. -1.
         -6    1    1    2    0  501  0.16352806290E+02  0.11581084867E+03 -0.75665112030E+03  0.78471936691E+03  0.17200000000E+03 0.  1.
</event>
<event>
 4    1  0.3211568E-002  0.1998044E+03  0.7818608E-02  0.1149904E+00
         -1   -1    0    0    0  501 -0.00000000000E+00  0.00000000000E+00  0.50798271135E+03  0.50798271135E+03  0.00000000000E+00 0.  1.
          1   -1    0    0  502    0  0.00000000000E+00 -0.00000000000E+00 -0.14041760569E+03  0.14041760569E+03  0.00000000000E+00 0. -1.
          6    1    1    2  502    0  0.77640548633E+02 -0.65648753588E+02 -0.31345695859E+02  0.20224827883E+03  0.17200000000E+03 0. -1.
         -6    1    1    2    0  501 -0.77640548633E+02  0.65648753588E+02  0.39891080151E+03  0.44615203822E+03  0.17200000000E+03 0.  1.
</event>
<event>
 4    1  0.3211568E-002  0.4177684E+03  0.7818608E-02  0.1037795E+00
         -2   -1    0    0    0  501 -0.00000000000E+00  0.00000000000E+00  0.13940887528E+03  0.13940887528E+03  0.00000000000E+00 0.  1.
          2   -1    0    0  502    0  0.00000000000E+00 -0.00000000000E+00 -0.14460573666E+04  0.14460573666E+04  0.00000000000E+00 0. -1.
          6    1    1    2  502    0  0.20761348982E+03  0.31912859307E+03 -0.36287150210E+03  0.55335896768E+03  0.17200000000E+03 0.  1.
         -6    1    1    2    0  501 -0.20761348982E+03 -0.31912859307E+03 -0.94377698917E+03  0.10321072742E+04  0.17200000000E+03 0. -1.
</event>
<event>
 4    1  0.3211568E-002  0.1754134E+03  0.7818608E-02  0.1172317E+00
         -2   -1    0    0    0  501 -0.00000000000E+00  0.00000000000E+00  0.17114298736E+03  0.17114298736E+03  0.00000000000E+00 0.  1.
          2   -1    0    0  502    0  0.00000000000E+00 -0.00000000000E+00 -0.26104299942E+03  0.26104299942E+03  0.00000000000E+00 0. -1.
          6    1    1    2  502    0 -0.17850589975E+02 -0.29448698806E+02 -0.16551000647E+03  0.24117095942E+03  0.17200000000E+03 0. -1.
         -6    1    1    2    0  501  0.17850589975E+02  0.29448698806E+02  0.75609994412E+02  0.19101502736E+03  0.17200000000E+03 0.  1.
</event>
<event>
 4    1  0.3211568E-002  0.3693413E+03  0.7818608E-02  0.1054945E+00
         -2   -1    0    0    0  501 -0.00000000000E+00  0.00000000000E+00  0.10813280671E+03  0.10813280671E+03  0.00000000000E+00 0.  1.
          2   -1    0    0  502    0  0.00000000000E+00 -0.00000000000E+00 -0.12727065967E+04  0.12727065967E+04  0.00000000000E+00 0. -1.
          6    1    1    2  502    0  0.32573902235E+03 -0.26889856025E+02 -0.64698159562E+03  0.74498198644E+03  0.17200000000E+03 0. -1.
         -6    1    1    2    0  501 -0.32573902235E+03  0.26889856025E+02 -0.51759219436E+03  0.63585741696E+03  0.17200000000E+03 0. -1.
</event>
<event>
 4    1  0.3211568E-002  0.1801829E+03  0.7818608E-02  0.1167626E+00
         -2   -1    0    0    0  501 -0.00000000000E+00  0.00000000000E+00  0.11698419135E+03  0.11698419135E+03  0.00000000000E+00 0.  1.
          2   -1    0    0  502    0  0.00000000000E+00 -0.00000000000E+00 -0.28292775361E+03  0.28292775361E+03  0.00000000000E+00 0. -1.
          6    1    1    2  502    0  0.26212264375E+02 -0.46848629883E+02 -0.55336784431E+02  0.18848882364E+03  0.17200000000E+03 0. -1.
         -6    1    1    2    0  501 -0.26212264375E+02  0.46848629883E+02 -0.11060677784E+03  0.21142312132E+03  0.17200000000E+03 0. -1.
</event>
<event>
 4    1  0.3211568E-002  0.3545403E+03  0.7818608E-02  0.1060767E+00
         -2   -1    0    0    0  501 -0.00000000000E+00  0.00000000000E+00  0.19996082592E+03  0.19996082592E+03  0.00000000000E+00 0.  1.
          2   -1    0    0  502    0  0.00000000000E+00 -0.00000000000E+00 -0.10961702044E+04  0.10961702044E+04  0.00000000000E+00 0. -1.
          6    1    1    2  502    0  0.26816676087E+03  0.15556797839E+03 -0.87135312140E+03  0.94072050563E+03  0.17200000000E+03 0. -1.
         -6    1    1    2    0  501 -0.26816676087E+03 -0.15556797839E+03 -0.24856257075E+02  0.35541052468E+03  0.17200000000E+03 0.  1.
</event>
<event>
 4    1  0.3211568E-002  0.2079039E+03  0.7818608E-02  0.1143237E+00
          2   -1    0    0  502    0  0.00000000000E+00  0.00000000000E+00  0.63120835443E+03  0.63120835443E+03  0.00000000000E+00 0. -1.
         -2   -1    0    0    0  501 -0.00000000000E+00 -0.00000000000E+00 -0.70735896693E+02  0.70735896693E+02  0.00000000000E+00 0.  1.
          6    1    1    2  502    0 -0.11405056184E+03  0.25149271167E+02  0.21753373737E+03  0.30090686830E+03  0.17200000000E+03 0.  1.
         -6    1    1    2    0  501  0.11405056184E+03 -0.25149271167E+02  0.34293872037E+03  0.40103738282E+03  0.17200000000E+03 0.  1.
</event>
<event>
 4    1  0.3211568E-002  0.1777935E+03  0.7818608E-02  0.1169956E+00
          1   -1    0    0  502    0  0.00000000000E+00  0.00000000000E+00  0.23001578377E+04  0.23001578377E+04  0.00000000000E+00 0. -1.
         -1   -1    0    0    0  501 -0.00000000000E+00 -0.00000000000E+00 -0.17096429830E+02  0.17096429830E+02  0.00000000000E+00 0.  1.
          6    1    1    2  502    0 -0.30396381397E+02 -0.33205175305E+02  0.62837288727E+03  0.65304135330E+03  0.17200000000E+03 0.  1.
         -6    1    1    2    0  501  0.30396381397E+02  0.33205175305E+02  0.16546885206E+04  0.16642129142E+04  0.17200000000E+03 0.  1.
</event>
<event>
 4    1  0.3211568E-002  0.1738031E+03  0.7818608E-02  0.1173939E+00
         -2   -1    0    0    0  501 -0.00000000000E+00  0.00000000000E+00  0.62728823193E+02  0.62728823193E+02  0.00000000000E+00 0.  1.
          2   -1    0    0  502    0  0.00000000000E+00 -0.00000000000E+00 -0.60788321564E+03  0.60788321564E+03  0.00000000000E+00 0. -1.
          6    1    1    2  502    0  0.18444322861E+02 -0.16831768176E+02 -0.11972274720E+03  0.21104747727E+03  0.17200000000E+03 0.  1.
         -6    1    1    2    0  501 -0.18444322861E+02  0.16831768176E+02 -0.42543164525E+03  0.45956456156E+03  0.17200000000E+03 0. -1.
</event>
<event>
 4    1  0.3211568E-002  0.1780065E+03  0.7818608E-02  0.1169746E+00
          2   -1    0    0  502    0  0.00000000000E+00  0.00000000000E+00  0.19441495248E+03  0.19441495248E+03  0.00000000000E+00 0. -1.
         -2   -1    0    0    0  501 -0.00000000000E+00 -0.00000000000E+00 -0.16300443287E+03  0.16300443287E+03  0.00000000000E+00 0.  1.
          6    1    1    2  502    0 -0.40734431084E+02  0.21048222297E+02  0.13653419855E+02  0.17852937409E+03  0.17200000000E+03 0. -1.
         -6    1    1    2    0  501  0.40734431084E+02 -0.21048222297E+02  0.17757099757E+02  0.17889001126E+03  0.17200000000E+03 0.  1.
</event>
<event>
 4    1  0.3211568E-002  0.3314938E+03  0.7818608E-02  0.1070478E+00
          2   -1    0    0  502    0  0.00000000000E+00  0.00000000000E+00  0.27143010823E+03  0.27143010823E+03  0.00000000000E+00 0. -1.
         -2   -1    0    0    0  501 -0.00000000000E+00 -0.00000000000E+00 -0.41326375645E+03  0.41326375645E+03  0.00000000000E+00 0.  1.
          6    1    1    2  502    0  0.12343411862E+03 -0.25508466002E+03 -0.22065358897E+02  0.33222740026E+03  0.17200000000E+03 0. -1.
         -6    1    1    2    0  501 -0.12343411862E+03  0.25508466002E+03 -0.11976828932E+03  0.35246646443E+03  0.17200000000E+03 0.  1.
</event>
<event>
 4    1  0.3211568E-002  0.1807153E+03  0.7818608E-02  0.1167113E+00
          3   -1    0    0  502    0  0.00000000000E+00  0.00000000000E+00  0.69289477604E+02  0.69289477604E+02  0.00000000000E+00 0. -1.
         -3   -1    0    0    0  501 -0.00000000000E+00 -0.00000000000E+00 -0.75879212473E+03  0.75879212473E+03  0.00000000000E+00 0.  1.
          6    1    1    2  502    0 -0.20998425364E+02 -0.51313580255E+02 -0.59959516488E+03  0.62623667981E+03  0.17200000000E+03 0.  1.
         -6    1    1    2    0  501  0.20998425364E+02  0.51313580255E+02 -0.89907482243E+02  0.20184492253E+03  0.17200000000E+03 0. -1.
</event>
<event>
 4    1  0.3211568E-002  0.2688437E+03  0.7818608E-02  0.1101943E+00
          2   -1    0    0  502    0  0.00000000000E+00  0.00000000000E+00  0.80145264031E+03  0.80145264031E+03  0.00000000000E+00 0. -1.
         -2   -1    0    0    0  501 -0.00000000000E+00 -0.00000000000E+00 -0.15711332870E+03  0.15711332870E+03  0.00000000000E+00 0.  1.
          6    1    1    2  502    0  0.19574583780E+03  0.66155276791E+02  0.93465700182E+01  0.26900615612E+03  0.17200000000E+03 0.  1.
         -6    1    1    2    0  501 -0.19574583780E+03 -0.66155276791E+02  0.63499274160E+03  0.68955981289E+03  0.17200000000E+03 0. -1.
</event>
<event>
 4    1  0.3211568E-002  0.2368529E+03  0.7818608E-02  0.1121907E+00
          2   -1    0    0  502    0  0.00000000000E+00  0.00000000000E+00  0.41079694369E+03  0.41079694369E+03  0.00000000000E+00 0. -1.
         -2   -1    0    0    0  501 -0.00000000000E+00 -0.00000000000E+00 -0.13827298972E+03  0.13827298972E+03  0.00000000000E+00 0.  1.
          6    1    1    2  502    0 -0.84821071550E+01 -0.16261411129E+03  0.16679989127E+03  0.28969207628E+03  0.17200000000E+03 0. -1.
         -6    1    1    2    0  501  0.84821071550E+01  0.16261411129E+03  0.10572406270E+03  0.25937785712E+03  0.17200000000E+03 0.  1.
</event>
<event>
 4    1  0.3211568E-002  0.2553483E+03  0.7818608E-02  0.1109971E+00
         -1   -1    0    0    0  501 -0.00000000000E+00  0.00000000000E+00  0.19678882670E+03  0.19678882670E+03  0.00000000000E+00 0.  1.
          1   -1    0    0  502    0  0.00000000000E+00 -0.00000000000E+00 -0.77256522426E+03  0.77256522426E+03  0.00000000000E+00 0. -1.
          6    1    1    2  502    0  0.13565512098E+03  0.13121146568E+03 -0.65417236624E+03  0.70224229816E+03  0.17200000000E+03 0. -1.
         -6    1    1    2    0  501 -0.13565512098E+03 -0.13121146568E+03  0.78395968676E+02  0.26711175279E+03  0.17200000000E+03 0.  1.
</event>
<event>
 4    1  0.3211568E-002  0.1741286E+03  0.7818608E-02  0.1173609E+00
          1   -1    0    0  502    0  0.00000000000E+00  0.00000000000E+00  0.45738232046E+03  0.45738232046E+03  0.00000000000E+00 0. -1.
         -1   -1    0    0    0  501 -0.00000000000E+00 -0.00000000000E+00 -0.80650508737E+02  0.80650508737E+02  0.00000000000E+00 0.  1.
          6    1    1    2  502    0  0.25497666161E+02  0.93084542835E+01  0.30187489074E+03  0.34849566419E+03  0.17200000000E+03 0. -1.
         -6    1    1    2    0  501 -0.25497666161E+02 -0.93084542835E+01  0.74856920989E+02  0.18953716501E+03  0.17200000000E+03 0.  1.
</event>
<event>
 4    1  0.3211568E-002  0.2802514E+03  0.7818608E-02  0.1095552E+00
          2   -1    0    0  502    0  0.00000000000E+00  0.00000000000E+00  0.47118097933E+03  0.47118097933E+03  0.00000000000E+00 0. -1.
         -2   -1    0    0    0  501 -0.00000000000E+00 -0.00000000000E+00 -0.16772107196E+03  0.16772107196E+03  0.00000000000E+00 0.  1.
          6    1    1    2  502    0 -0.12978148101E+03  0.17920275015E+03  0.12667529152E+03  0.30755078923E+03  0.17200000000E+03 0. -1.
         -6    1    1    2    0  501  0.12978148101E+03 -0.17920275015E+03  0.17678461585E+03  0.33135126207E+03  0.17200000000E+03 0.  1.
</event>
<event>
 4    1  0.3211568E-002  0.2834427E+03  0.7818608E-02  0.1093823E+00
         -1   -1    0    0    0  501 -0.00000000000E+00  0.00000000000E+00  0.96674558586E+02  0.96674558586E+02  0.00000000000E+00 0.  1.
          1   -1    0    0  502    0  0.00000000000E+00 -0.00000000000E+00 -0.83302618991E+03  0.83302618991E+03  0.00000000000E+00 0. -1.
          6    1    1    2  502    0  0.20416197421E+03 -0.95255793926E+02 -0.39091238318E+03  0.48285843610E+03  0.17200000000E+03 0. -1.
         -6    1    1    2    0  501 -0.20416197421E+03  0.95255793926E+02 -0.34543924815E+03  0.44684231240E+03  0.17200000000E+03 0.  1.
</event>
<event>
 4    1  0.3211568E-002  0.2031242E+03  0.7818608E-02  0.1147130E+00
         -1   -1    0    0    0  501 -0.00000000000E+00  0.00000000000E+00  0.49539479895E+02  0.49539479895E+02  0.00000000000E+00 0.  1.
          1   -1    0    0  502    0  0.00000000000E+00 -0.00000000000E+00 -0.92653787888E+03  0.92653787888E+03  0.00000000000E+00 0. -1.
          6    1    1    2  502    0  0.92275070065E+02 -0.56220530294E+02 -0.59368138476E+03  0.62746874280E+03  0.17200000000E+03 0. -1.
         -6    1    1    2    0  501 -0.92275070065E+02  0.56220530294E+02 -0.28331701422E+03  0.34860861597E+03  0.17200000000E+03 0.  1.
</event>
<event>
 4    1  0.3211568E-002  0.2296405E+03  0.7818608E-02  0.1126893E+00
          2   -1    0    0  502    0  0.00000000000E+00  0.00000000000E+00  0.82783764016E+03  0.82783764016E+03  0.00000000000E+00 0. -1.
         -2   -1    0    0    0  501 -0.00000000000E+00 -0.00000000000E+00 -0.41929452737E+03  0.41929452737E+03  0.00000000000E+00 0.  1.
          6    1    1    2  502    0 -0.68207974328E+01 -0.15200072400E+03  0.77851933896E+03  0.81168165219E+03  0.17200000000E+03 0. -1.
         -6    1    1    2    0  501  0.68207974328E+01  0.15200072400E+03 -0.36997622618E+03  0.43545051534E+03  0.17200000000E+03 0.  1.
</event>
<event>
 4    1  0.3211568E-002  0.5627880E+03  0.7818608E-02  0.9985766E-01
         -2   -1    0    0    0  501 -0.00000000000E+00  0.00000000000E+00  0.32479324563E+03  0.32479324563E+03  0.00000000000E+00 0.  1.
          2   -1    0    0  502    0  0.00000000000E+00 -0.00000000000E+00 -0.98006249036E+03  0.98006249036E+03  0.00000000000E+00 0. -1.
          6    1    1    2  502    0 -0.42929561204E+02  0.53413797530E+03 -0.28156242547E+03  0.62929144546E+03  0.17200000000E+03 0. -1.
         -6    1    1    2    0  501  0.42929561204E+02 -0.53413797530E+03 -0.37370681925E+03  0.67556429053E+03  0.17200000000E+03 0.  1.
</event>
<event>
 4    1  0.3211568E-002  0.2113437E+03  0.7818608E-02  0.1140506E+00
          2   -1    0    0  502    0  0.00000000000E+00  0.00000000000E+00  0.77109183285E+02  0.77109183285E+02  0.00000000000E+00 0. -1.
         -2   -1    0    0    0  501 -0.00000000000E+00 -0.00000000000E+00 -0.59486912052E+03  0.59486912052E+03  0.00000000000E+00 0.  1.
          6    1    1    2  502    0  0.10157691142E+03  0.69023961628E+02 -0.20445228275E+03  0.29405256696E+03  0.17200000000E+03 0. -1.
         -6    1    1    2    0  501 -0.10157691142E+03 -0.69023961628E+02 -0.31330765449E+03  0.37792573685E+03  0.17200000000E+03 0.  1.
</event>
<event>
 4    1  0.3211568E-002  0.4794040E+03  0.7818608E-02  0.1019299E+00
          2   -1    0    0  502    0  0.00000000000E+00  0.00000000000E+00  0.69489217884E+03  0.69489217884E+03  0.00000000000E+00 0. -1.
         -2   -1    0    0    0  501 -0.00000000000E+00 -0.00000000000E+00 -0.34471023819E+03  0.34471023819E+03  0.00000000000E+00 0.  1.
          6    1    1    2  502    0  0.38915132884E+03 -0.22091953618E+03  0.27973680923E+03  0.55505034063E+03  0.17200000000E+03 0. -1.
         -6    1    1    2    0  501 -0.38915132884E+03  0.22091953618E+03  0.70445131421E+02  0.48455207640E+03  0.17200000000E+03 0.  1.
</event>
<event>
 4    1  0.3211568E-002  0.1738858E+03  0.7818608E-02  0.1173855E+00
         -2   -1    0    0    0  501 -0.00000000000E+00  0.00000000000E+00  0.62394644920E+02  0.62394644920E+02  0.00000000000E+00 0.  1.
          2   -1    0    0  502    0  0.00000000000E+00 -0.00000000000E+00 -0.55980456156E+03  0.55980456156E+03  0.00000000000E+00 0. -1.
          6    1    1    2  502    0  0.22965791722E+01  0.25436273330E+02 -0.36273283687E+03  0.40225786409E+03  0.17200000000E+03 0. -1.
         -6    1    1    2    0  501 -0.22965791722E+01 -0.25436273330E+02 -0.13467707976E+03  0.21994134239E+03  0.17200000000E+03 0.  1.
</event>
<event>
 4    1  0.3211568E-002  0.2229903E+03  0.7818608E-02  0.1131673E+00
         -1   -1    0    0    0  501 -0.00000000000E+00  0.00000000000E+00  0.64446973130E+03  0.64446973130E+03  0.00000000000E+00 0.  1.
          1   -1    0    0  502    0  0.00000000000E+00 -0.00000000000E+00 -0.13405819151E+03  0.13405819151E+03  0.00000000000E+00 0. -1.
          6    1    1    2  502    0  0.29402150271E+02 -0.13883867362E+03  0.15981664329E+01  0.22299600416E+03  0.17200000000E+03 0. -1.
         -6    1    1    2    0  501 -0.29402150271E+02  0.13883867362E+03  0.50881337336E+03  0.55553191866E+03  0.17200000000E+03 0.  1.
</event>
<event>
 4    1  0.3211568E-002  0.3206524E+03  0.7818608E-02  0.1075349E+00
          1   -1    0    0  502    0  0.00000000000E+00  0.00000000000E+00  0.57710198447E+03  0.57710198447E+03  0.00000000000E+00 0. -1.
         -1   -1    0    0    0  501 -0.00000000000E+00 -0.00000000000E+00 -0.23088467394E+03  0.23088467394E+03  0.00000000000E+00 0.  1.
          6    1    1    2  502    0  0.22257165201E+03  0.15393454139E+03  0.36616004487E+03  0.48671466155E+03  0.17200000000E+03 0. -1.
         -6    1    1    2    0  501 -0.22257165201E+03 -0.15393454139E+03 -0.19942734346E+02  0.32127199686E+03  0.17200000000E+03 0. -1.
</event>
<event>
 4    1  0.3211568E-002  0.3318528E+03  0.7818608E-02  0.1070320E+00
          2   -1    0    0  502    0  0.00000000000E+00  0.00000000000E+00  0.17808710768E+04  0.17808710768E+04  0.00000000000E+00 0. -1.
         -2   -1    0    0    0  501 -0.00000000000E+00 -0.00000000000E+00 -0.64583282105E+02  0.64583282105E+02  0.00000000000E+00 0.  1.
          6    1    1    2  502    0 -0.25186497577E+02 -0.28267986390E+03  0.10483712711E+04  0.10996402080E+04  0.17200000000E+03 0. -1.
         -6    1    1    2    0  501  0.25186497577E+02  0.28267986390E+03  0.66791652365E+03  0.74581415089E+03  0.17200000000E+03 0. -1.
</event>
<event>
 4    1  0.3211568E-002  0.2384133E+03  0.7818608E-02  0.1120854E+00
         -2   -1    0    0    0  501 -0.00000000000E+00  0.00000000000E+00  0.54528914483E+02  0.54528914483E+02  0.00000000000E+00 0.  1.
          2   -1    0    0  502    0  0.00000000000E+00 -0.00000000000E+00 -0.12459155691E+04  0.12459155691E+04  0.00000000000E+00 0. -1.
          6    1    1    2  502    0 -0.16176158470E+03  0.33016753688E+02 -0.33289850367E+03  0.40946590829E+03  0.17200000000E+03 0.  1.
         -6    1    1    2    0  501  0.16176158470E+03 -0.33016753688E+02 -0.85848815099E+03  0.89097857533E+03  0.17200000000E+03 0. -1.
</event>
<event>
 4    1  0.3211568E-002  0.2191136E+03  0.7818608E-02  0.1134546E+00
          1   -1    0    0  502    0  0.00000000000E+00  0.00000000000E+00  0.73391586208E+03  0.73391586208E+03  0.00000000000E+00 0. -1.
         -1   -1    0    0    0  501 -0.00000000000E+00 -0.00000000000E+00 -0.12104042223E+03  0.12104042223E+03  0.00000000000E+00 0.  1.
          6    1    1    2  502    0 -0.10246082105E+03 -0.89042342607E+02  0.16652274836E+02  0.21974543655E+03  0.17200000000E+03 0.  1.
         -6    1    1    2    0  501  0.10246082105E+03  0.89042342607E+02  0.59622316501E+03  0.63521084777E+03  0.17200000000E+03 0. -1.
</event>
<event>
 4    1  0.3211568E-002  0.4751126E+03  0.7818608E-02  0.1020487E+00
          2   -1    0    0  502    0  0.00000000000E+00  0.00000000000E+00  0.16734659004E+04  0.16734659004E+04  0.00000000000E+00 0. -1.
         -2   -1    0    0    0  501 -0.00000000000E+00 -0.00000000000E+00 -0.16056640933E+03  0.16056640933E+03  0.00000000000E+00 0.  1.
          6    1    1    2  502    0  0.18206962502E+03 -0.40373091729E+03  0.11231624433E+04  0.12195187066E+04  0.17200000000E+03 0. -1.
         -6    1    1    2    0  501 -0.18206962502E+03  0.40373091729E+03  0.38973704779E+03  0.61451360306E+03  0.17200000000E+03 0.  1.
</event>
<event>
 4    1  0.3211568E-002  0.2136455E+03  0.7818608E-02  0.1138711E+00
          1   -1    0    0  502    0  0.00000000000E+00  0.00000000000E+00  0.29344215255E+04  0.29344215255E+04  0.00000000000E+00 0. -1.
         -1   -1    0    0    0  501 -0.00000000000E+00 -0.00000000000E+00 -0.20895905967E+02  0.20895905967E+02  0.00000000000E+00 0.  1.
          6    1    1    2  502    0 -0.12223225984E+03  0.33461491959E+02  0.70969788448E+03  0.74115820445E+03  0.17200000000E+03 0.  1.
         -6    1    1    2    0  501  0.12223225984E+03 -0.33461491959E+02  0.22038277351E+04  0.22141592270E+04  0.17200000000E+03 0.  1.
</event>
<event>
 4    1  0.3211568E-002  0.3518789E+03  0.7818608E-02  0.1061846E+00
          1   -1    0    0  502    0  0.00000000000E+00  0.00000000000E+00  0.68840378609E+03  0.68840378609E+03  0.00000000000E+00 0. -1.
         -1   -1    0    0    0  501 -0.00000000000E+00 -0.00000000000E+00 -0.30274935782E+03  0.30274935782E+03  0.00000000000E+00 0.  1.
          6    1    1    2  502    0  0.28883207820E+03  0.10397501009E+03  0.50856019979E+03  0.61842723819E+03  0.17200000000E+03 0. -1.
         -6    1    1    2    0  501 -0.28883207820E+03 -0.10397501009E+03 -0.12290577151E+03  0.37272590572E+03  0.17200000000E+03 0.  1.
</event>
<event>
 4    1  0.3211568E-002  0.2437436E+03  0.7818608E-02  0.1117324E+00
          1   -1    0    0  502    0  0.00000000000E+00  0.00000000000E+00  0.85683105875E+03  0.85683105875E+03  0.00000000000E+00 0. -1.
         -1   -1    0    0    0  501 -0.00000000000E+00 -0.00000000000E+00 -0.69339018460E+02  0.69339018460E+02  0.00000000000E+00 0.  1.
          6    1    1    2  502    0  0.60247772189E+02  0.16185533173E+03  0.39553042026E+03  0.46460225550E+03  0.17200000000E+03 0. -1.
         -6    1    1    2    0  501 -0.60247772189E+02 -0.16185533173E+03  0.39196162003E+03  0.46156782172E+03  0.17200000000E+03 0.  1.
</event>
<event>
 4    1  0.3211568E-002  0.1975946E+03  0.7818608E-02  0.1151784E+00
          1   -1    0    0  502    0  0.00000000000E+00  0.00000000000E+00  0.50916221077E+02  0.50916221077E+02  0.00000000000E+00 0. -1.
         -1   -1    0    0    0  501 -0.00000000000E+00 -0.00000000000E+00 -0.96568205475E+03  0.96568205475E+03  0.00000000000E+00 0.  1.
          6    1    1    2  502    0  0.51794830994E+02  0.82322168508E+02 -0.22672051467E+03  0.30074214157E+03  0.17200000000E+03 0. -1.
         -6    1    1    2    0  501 -0.51794830994E+02 -0.82322168508E+02 -0.68804531900E+03  0.71585613425E+03  0.17200000000E+03 0.  1.
</event>
<event>
 4    1  0.3211568E-002  0.5412039E+03  0.7818608E-02  0.1003551E+00
         -1   -1    0    0    0  501 -0.00000000000E+00  0.00000000000E+00  0.34103068816E+03  0.34103068816E+03  0.00000000000E+00 0.  1.
          1   -1    0    0  502    0  0.00000000000E+00 -0.00000000000E+00 -0.98210602391E+03  0.98210602391E+03  0.00000000000E+00 0. -1.
          6    1    1    2  502    0  0.46496241967E+03 -0.21708885939E+03 -0.55488568792E+03  0.77511273453E+03  0.17200000000E+03 0. -1.
         -6    1    1    2    0  501 -0.46496241967E+03  0.21708885939E+03 -0.86189647828E+02  0.54802397755E+03  0.17200000000E+03 0.  1.
</event>
<event>
 4    1  0.3211568E-002  0.1858265E+03  0.7818608E-02  0.1162280E+00
         -3   -1    0    0    0  501 -0.00000000000E+00  0.00000000000E+00  0.10118773435E+03  0.10118773435E+03  0.00000000000E+00 0.  1.
          3   -1    0    0  502    0  0.00000000000E+00 -0.00000000000E+00 -0.34140016726E+03  0.34140016726E+03  0.00000000000E+00 0. -1.
          6    1    1    2  502    0 -0.38130975989E+02  0.59106061853E+02 -0.11564948038E+03  0.21887507896E+03  0.17200000000E+03 0.  1.
         -6    1    1    2    0  501  0.38130975989E+02 -0.59106061853E+02 -0.12456295252E+03  0.22371282265E+03  0.17200000000E+03 0.  1.
</event>
<event>
 4    1  0.3211568E-002  0.2215968E+03  0.7818608E-02  0.1132698E+00
         -2   -1    0    0    0  501 -0.00000000000E+00  0.00000000000E+00  0.10609624376E+03  0.10609624376E+03  0.00000000000E+00 0.  1.
          2   -1    0    0  502    0  0.00000000000E+00 -0.00000000000E+00 -0.46945838340E+03  0.46945838340E+03  0.00000000000E+00 0. -1.
          6    1    1    2  502    0 -0.20779574837E+02 -0.13816422596E+03 -0.21586094104E+03  0.30935592758E+03  0.17200000000E+03 0. -1.
         -6    1    1    2    0  501  0.20779574837E+02  0.13816422596E+03 -0.14750119860E+03  0.26619869957E+03  0.17200000000E+03 0.  1.
</event>
<event>
 4    1  0.3211568E-002  0.2502118E+03  0.7818608E-02  0.1113171E+00
          2   -1    0    0  502    0  0.00000000000E+00  0.00000000000E+00  0.16716211409E+04  0.16716211409E+04  0.00000000000E+00 0. -1.
         -2   -1    0    0    0  501 -0.00000000000E+00 -0.00000000000E+00 -0.21138948362E+03  0.21138948362E+03  0.00000000000E+00 0.  1.
          6    1    1    2  502    0  0.73671078439E+02  0.16611602610E+03  0.15841541796E+04  0.16037925136E+04  0.17200000000E+03 0. -1.
         -6    1    1    2    0  501 -0.73671078439E+02 -0.16611602610E+03 -0.12392252233E+03  0.27921811092E+03  0.17200000000E+03 0.  1.
</event>
<event>
 4    1  0.3211568E-002  0.3354335E+03  0.7818608E-02  0.1068758E+00
         -2   -1    0    0    0  501 -0.00000000000E+00  0.00000000000E+00  0.18514655866E+03  0.18514655866E+03  0.00000000000E+00 0.  1.
          2   -1    0    0  502    0  0.00000000000E+00 -0.00000000000E+00 -0.73992263598E+03  0.73992263598E+03  0.00000000000E+00 0. -1.
          6    1    1    2  502    0  0.77966039178E+01  0.28787291885E+03 -0.47290564399E+03  0.57978905867E+03  0.17200000000E+03 0. -1.
         -6    1    1    2    0  501 -0.77966039178E+01 -0.28787291885E+03 -0.81870433323E+02  0.34528013596E+03  0.17200000000E+03 0.  1.
</event>
<event>
 4    1  0.3211568E-002  0.1755856E+03  0.7818608E-02  0.1172145E+00
          1   -1    0    0  502    0  0.00000000000E+00  0.00000000000E+00  0.11326011428E+04  0.11326011428E+04  0.00000000000E+00 0. -1.
         -1   -1    0    0    0  501 -0.00000000000E+00 -0.00000000000E+00 -0.32441600679E+02  0.32441600679E+02  0.00000000000E+00 0.  1.
          6    1    1    2  502    0 -0.46446225418E+01 -0.34995966676E+02  0.78376431033E+03  0.80319162368E+03  0.17200000000E+03 0. -1.
         -6    1    1    2    0  501  0.46446225418E+01  0.34995966676E+02  0.31639523182E+03  0.36185111982E+03  0.17200000000E+03 0.  1.
</event>
<event>
 4    1  0.3211568E-002  0.3311639E+03  0.7818608E-02  0.1070623E+00
          1   -1    0    0  502    0  0.00000000000E+00  0.00000000000E+00  0.28591826517E+03  0.28591826517E+03  0.00000000000E+00 0. -1.
         -1   -1    0    0    0  501 -0.00000000000E+00 -0.00000000000E+00 -0.41451285201E+03  0.41451285201E+03  0.00000000000E+00 0.  1.
          6    1    1    2  502    0  0.21938970748E+03  0.17875594088E+03 -0.15998364888E+03  0.36778294965E+03  0.17200000000E+03 0. -1.
         -6    1    1    2    0  501 -0.21938970748E+03 -0.17875594088E+03  0.31389062036E+02  0.33264816753E+03  0.17200000000E+03 0.  1.
</event>
<event>
 4    1  0.3211568E-002  0.2003392E+03  0.7818608E-02  0.1149453E+00
          1   -1    0    0  502    0  0.00000000000E+00  0.00000000000E+00  0.71221229398E+03  0.71221229398E+03  0.00000000000E+00 0. -1.
         -1   -1    0    0    0  501 -0.00000000000E+00 -0.00000000000E+00 -0.98360751064E+02  0.98360751064E+02  0.00000000000E+00 0.  1.
          6    1    1    2  502    0 -0.10158014278E+03  0.15272680737E+02  0.57178339015E+03  0.60586469235E+03  0.17200000000E+03 0. -1.
         -6    1    1    2    0  501  0.10158014278E+03 -0.15272680737E+02  0.42068152766E+02  0.20470835269E+03  0.17200000000E+03 0.  1.
</event>
<event>
 4    1  0.3211568E-002  0.5139169E+03  0.7818608E-02  0.1010209E+00
         -2   -1    0    0    0  501 -0.00000000000E+00  0.00000000000E+00  0.11043632824E+04  0.11043632824E+04  0.00000000000E+00 0.  1.
          2   -1    0    0  502    0  0.00000000000E+00 -0.00000000000E+00 -0.24595046013E+03  0.24595046013E+03  0.00000000000E+00 0. -1.
          6    1    1    2  502    0 -0.25670191043E+03 -0.41064670706E+03  0.31695572371E+03  0.60379758167E+03  0.17200000000E+03 0. -1.
         -6    1    1    2    0  501  0.25670191043E+03  0.41064670706E+03  0.54145709854E+03  0.74651616084E+03  0.17200000000E+03 0.  1.
</event>
<event>
 4    1  0.3211568E-002  0.4080495E+03  0.7818608E-02  0.1041028E+00
         -2   -1    0    0    0  501 -0.00000000000E+00  0.00000000000E+00  0.23392999160E+03  0.23392999160E+03  0.00000000000E+00 0.  1.
          2   -1    0    0  502    0  0.00000000000E+00 -0.00000000000E+00 -0.84881958817E+03  0.84881958817E+03  0.00000000000E+00 0. -1.
          6    1    1    2  502    0 -0.31482457637E+03 -0.19443738313E+03 -0.89909972422E+02  0.41783754377E+03  0.17200000000E+03 0. -1.
         -6    1    1    2    0  501  0.31482457637E+03  0.19443738313E+03 -0.52497962414E+03  0.66491203599E+03  0.17200000000E+03 0.  1.
</event>
<event>
 4    1  0.3211568E-002  0.2114595E+03  0.7818608E-02  0.1140415E+00
         -1   -1    0    0    0  501 -0.00000000000E+00  0.00000000000E+00  0.13893340260E+03  0.13893340260E+03  0.00000000000E+00 0.  1.
          1   -1    0    0  502    0  0.00000000000E+00 -0.00000000000E+00 -0.36883483263E+03  0.36883483263E+03  0.00000000000E+00 0. -1.
          6    1    1    2  502    0  0.12298720399E+03 -0.22924780027E+01 -0.20556958231E+03  0.29491348049E+03  0.17200000000E+03 0.  1.
         -6    1    1    2    0  501 -0.12298720399E+03  0.22924780027E+01 -0.24331847718E+02  0.21285475474E+03  0.17200000000E+03 0.  1.
</event>
<event>
 4    1  0.3211568E-002  0.1727056E+03  0.7818608E-02  0.1175055E+00
          1   -1    0    0  502    0  0.00000000000E+00  0.00000000000E+00  0.98413216479E+01  0.98413216479E+01  0.00000000000E+00 0. -1.
         -1   -1    0    0    0  501 -0.00000000000E+00 -0.00000000000E+00 -0.33489409034E+04  0.33489409034E+04  0.00000000000E+00 0.  1.
          6    1    1    2  502    0  0.13408828702E+02 -0.79639712941E+01 -0.11519454799E+04  0.11648199905E+04  0.17200000000E+03 0. -1.
         -6    1    1    2    0  501 -0.13408828702E+02  0.79639712941E+01 -0.21871541019E+04  0.21939622346E+04  0.17200000000E+03 0.  1.
</event>
<event>
 4    1  0.3211568E-002  0.2184514E+03  0.7818608E-02  0.1135043E+00
         -2   -1    0    0    0  501 -0.00000000000E+00  0.00000000000E+00  0.18223414120E+03  0.18223414120E+03  0.00000000000E+00 0.  1.
          2   -1    0    0  502    0  0.00000000000E+00 -0.00000000000E+00 -0.50916421895E+03  0.50916421895E+03  0.00000000000E+00 0. -1.
          6    1    1    2  502    0 -0.13080627187E+03  0.32042582499E+02 -0.40438873060E+03  0.45962077117E+03  0.17200000000E+03 0. -1.
         -6    1    1    2    0  501  0.13080627187E+03 -0.32042582499E+02  0.77458652845E+02  0.23177758898E+03  0.17200000000E+03 0.  1.
</event>
<event>
 4    1  0.3211568E-002  0.2097873E+03  0.7818608E-02  0.1141735E+00
         -1   -1    0    0    0  501 -0.00000000000E+00  0.00000000000E+00  0.58800057662E+03  0.58800057662E+03  0.00000000000E+00 0.  1.
          1   -1    0    0  502    0  0.00000000000E+00 -0.00000000000E+00 -0.15115332304E+03  0.15115332304E+03  0.00000000000E+00 0. -1.
          6    1    1    2  502    0 -0.75607986009E+02 -0.93328203641E+02 -0.44163350259E+02  0.21438545345E+03  0.17200000000E+03 0. -1.
         -6    1    1    2    0  501  0.75607986009E+02  0.93328203641E+02  0.48101060384E+03  0.52476844622E+03  0.17200000000E+03 0.  1.
</event>
<event>
 4    1  0.3211568E-002  0.2284590E+03  0.7818608E-02  0.1127729E+00
         -1   -1    0    0    0  501 -0.00000000000E+00  0.00000000000E+00  0.69503520644E+02  0.69503520644E+02  0.00000000000E+00 0.  1.
          1   -1    0    0  502    0  0.00000000000E+00 -0.00000000000E+00 -0.21478773078E+04  0.21478773078E+04  0.00000000000E+00 0. -1.
          6    1    1    2  502    0  0.85092083068E+02  0.12397118974E+03 -0.14507309429E+03  0.27062838205E+03  0.17200000000E+03 0.  1.
         -6    1    1    2    0  501 -0.85092083068E+02 -0.12397118974E+03 -0.19333006929E+04  0.19467524464E+04  0.17200000000E+03 0. -1.
</event>
<event>
 4    1  0.3211568E-002  0.2357321E+03  0.7818608E-02  0.1122669E+00
          1   -1    0    0  502    0  0.00000000000E+00  0.00000000000E+00  0.10869245237E+04  0.10869245237E+04  0.00000000000E+00 0. -1.
         -1   -1    0    0    0  501 -0.00000000000E+00 -0.00000000000E+00 -0.10801382355E+03  0.10801382355E+03  0.00000000000E+00 0.  1.
          6    1    1    2  502    0  0.13369040772E+03 -0.90069427878E+02  0.92305324455E+03  0.95267881221E+03  0.17200000000E+03 0.  1.
         -6    1    1    2    0  501 -0.13369040772E+03  0.90069427878E+02  0.55857455566E+02  0.24225953500E+03  0.17200000000E+03 0.  1.
</event>
<event>
 4    1  0.3211568E-002  0.2748906E+03  0.7818608E-02  0.1098513E+00
         -2   -1    0    0    0  501 -0.00000000000E+00  0.00000000000E+00  0.14136966598E+03  0.14136966598E+03  0.00000000000E+00 0.  1.
          2   -1    0    0  502    0  0.00000000000E+00 -0.00000000000E+00 -0.62380751610E+03  0.62380751610E+03  0.00000000000E+00 0. -1.
          6    1    1    2  502    0  0.83160837770E+02 -0.19764903476E+03 -0.38596370473E+03  0.47384897093E+03  0.17200000000E+03 0. -1.
         -6    1    1    2    0  501 -0.83160837770E+02  0.19764903476E+03 -0.96474145396E+02  0.29132821115E+03  0.17200000000E+03 0.  1.
</event>
<event>
 4    1  0.3211568E-002  0.2163186E+03  0.7818608E-02  0.1136658E+00
          2   -1    0    0  502    0  0.00000000000E+00  0.00000000000E+00  0.25838425663E+04  0.25838425663E+04  0.00000000000E+00 0. -1.
         -2   -1    0    0    0  501 -0.00000000000E+00 -0.00000000000E+00 -0.21130210748E+02  0.21130210748E+02  0.00000000000E+00 0.  1.
          6    1    1    2  502    0 -0.77498456525E+02  0.10584757627E+03  0.78894184584E+03  0.81806048449E+03  0.17200000000E+03 0. -1.
         -6    1    1    2    0  501  0.77498456525E+02 -0.10584757627E+03  0.17737705097E+04  0.17869122925E+04  0.17200000000E+03 0. -1.
</event>
<event>
 4    1  0.3211568E-002  0.2686747E+03  0.7818608E-02  0.1102040E+00
         -1   -1    0    0    0  501 -0.00000000000E+00  0.00000000000E+00  0.15978916041E+03  0.15978916041E+03  0.00000000000E+00 0.  1.
          1   -1    0    0  502    0  0.00000000000E+00 -0.00000000000E+00 -0.45512591150E+03  0.45512591150E+03  0.00000000000E+00 0. -1.
          6    1    1    2  502    0  0.17691508857E+03  0.10631636613E+03 -0.17411466169E+03  0.32015938794E+03  0.17200000000E+03 0. -1.
         -6    1    1    2    0  501 -0.17691508857E+03 -0.10631636613E+03 -0.12122208941E+03  0.29475568397E+03  0.17200000000E+03 0.  1.
</event>
<event>
 4    1  0.3211568E-002  0.1920570E+03  0.7818608E-02  0.1156619E+00
          1   -1    0    0  502    0  0.00000000000E+00  0.00000000000E+00  0.30954909497E+04  0.30954909497E+04  0.00000000000E+00 0. -1.
         -1   -1    0    0    0  501 -0.00000000000E+00 -0.00000000000E+00 -0.16478351970E+02  0.16478351970E+02  0.00000000000E+00 0.  1.
          6    1    1    2  502    0  0.37703654608E+02 -0.76683319593E+02  0.23582394967E+04  0.23660472144E+04  0.17200000000E+03 0. -1.
         -6    1    1    2    0  501 -0.37703654608E+02  0.76683319593E+02  0.72077310100E+03  0.74592208721E+03  0.17200000000E+03 0.  1.
</event>
<event>
 4    1  0.3211568E-002  0.5415084E+03  0.7818608E-02  0.1003479E+00
         -1   -1    0    0    0  501 -0.00000000000E+00  0.00000000000E+00  0.64256963762E+03  0.64256963762E+03  0.00000000000E+00 0.  1.
          1   -1    0    0  502    0  0.00000000000E+00 -0.00000000000E+00 -0.46529927477E+03  0.46529927477E+03  0.00000000000E+00 0. -1.
          6    1    1    2  502    0 -0.29118199410E+03 -0.42291893007E+03  0.11777838743E+02  0.54163649488E+03  0.17200000000E+03 0. -1.
         -6    1    1    2    0  501  0.29118199410E+03  0.42291893007E+03  0.16549252411E+03  0.56623241751E+03  0.17200000000E+03 0.  1.
</event>
<event>
 4    1  0.3211568E-002  0.1969433E+03  0.7818608E-02  0.1152344E+00
          2   -1    0    0  502    0  0.00000000000E+00  0.00000000000E+00  0.27123286086E+04  0.27123286086E+04  0.00000000000E+00 0. -1.
         -2   -1    0    0    0  501 -0.00000000000E+00 -0.00000000000E+00 -0.14555106054E+02  0.14555106054E+02  0.00000000000E+00 0.  1.
          6    1    1    2  502    0 -0.20392159467E+02  0.93738004008E+02  0.15293455450E+04  0.15419742053E+04  0.17200000000E+03 0. -1.
         -6    1    1    2    0  501  0.20392159467E+02 -0.93738004008E+02  0.11684279575E+04  0.11849095094E+04  0.17200000000E+03 0.  1.
</event>
<event>
 4    1  0.3211568E-002  0.2332835E+03  0.7818608E-02  0.1124350E+00
          1   -1    0    0  502    0  0.00000000000E+00  0.00000000000E+00  0.29017395444E+03  0.29017395444E+03  0.00000000000E+00 0. -1.
         -1   -1    0    0    0  501 -0.00000000000E+00 -0.00000000000E+00 -0.21769386739E+03  0.21769386739E+03  0.00000000000E+00 0.  1.
          6    1    1    2  502    0 -0.15379113439E+03  0.34430665974E+02 -0.58257486737E+02  0.24044774596E+03  0.17200000000E+03 0.  1.
         -6    1    1    2    0  501  0.15379113439E+03 -0.34430665974E+02  0.13073757378E+03  0.26742007587E+03  0.17200000000E+03 0. -1.
</event>
<event>
 4    1  0.3211568E-002  0.2806603E+03  0.7818608E-02  0.1095329E+00
         -1   -1    0    0    0  501 -0.00000000000E+00  0.00000000000E+00  0.61367459432E+03  0.61367459432E+03  0.00000000000E+00 0.  1.
          1   -1    0    0  502    0  0.00000000000E+00 -0.00000000000E+00 -0.15084128241E+03  0.15084128241E+03  0.00000000000E+00 0. -1.
          6    1    1    2  502    0 -0.54145020344E+02  0.21506859474E+03  0.37899548434E+03  0.47160127314E+03  0.17200000000E+03 0. -1.
         -6    1    1    2    0  501  0.54145020344E+02 -0.21506859474E+03  0.83837827562E+02  0.29291460360E+03  0.17200000000E+03 0. -1.
</event>
<event>
 4    1  0.3211568E-002  0.2787715E+03  0.7818608E-02  0.1096362E+00
         -1   -1    0    0    0  501 -0.00000000000E+00  0.00000000000E+00  0.54912832725E+02  0.54912832725E+02  0.00000000000E+00 0.  1.
          1   -1    0    0  502    0  0.00000000000E+00 -0.00000000000E+00 -0.19922923954E+04  0.19922923954E+04  0.00000000000E+00 0. -1.
          6    1    1    2  502    0 -0.30473935001E+02 -0.21725771292E+03 -0.15195876924E+04  0.15449467077E+04  0.17200000000E+03 0.  1.
         -6    1    1    2    0  501  0.30473935001E+02  0.21725771292E+03 -0.41779187028E+03  0.50225852049E+03  0.17200000000E+03 0.  1.
</event>
<event>
 4    1  0.3211568E-002  0.2243238E+03  0.7818608E-02  0.1130700E+00
          2   -1    0    0  502    0  0.00000000000E+00  0.00000000000E+00  0.12847434551E+04  0.12847434551E+04  0.00000000000E+00 0. -1.
         -2   -1    0    0    0  501 -0.00000000000E+00 -0.00000000000E+00 -0.47200234874E+02  0.47200234874E+02  0.00000000000E+00 0.  1.
          6    1    1    2  502    0 -0.16999154806E+02 -0.14299721018E+03  0.34404875093E+03  0.41071975409E+03  0.17200000000E+03 0.  1.
         -6    1    1    2    0  501  0.16999154806E+02  0.14299721018E+03  0.89349446925E+03  0.92122393584E+03  0.17200000000E+03 0.  1.
</event>
<event>
 4    1  0.3211568E-002  0.1739170E+03  0.7818608E-02  0.1173824E+00
          2   -1    0    0  502    0  0.00000000000E+00  0.00000000000E+00  0.32657526157E+02  0.32657526157E+02  0.00000000000E+00 0. -1.
         -2   -1    0    0    0  501 -0.00000000000E+00 -0.00000000000E+00 -0.94173001233E+03  0.94173001233E+03  0.00000000000E+00 0.  1.
          6    1    1    2  502    0 -0.17473614390E+02  0.18915293111E+02 -0.39195466640E+03  0.42880715483E+03  0.17200000000E+03 0. -1.
         -6    1    1    2    0  501  0.17473614390E+02 -0.18915293111E+02 -0.51711781977E+03  0.54558038366E+03  0.17200000000E+03 0.  1.
</event>
<event>
 4    1  0.3211568E-002  0.4007080E+03  0.7818608E-02  0.1043535E+00
          2   -1    0    0  502    0  0.00000000000E+00  0.00000000000E+00  0.19313011726E+04  0.19313011726E+04  0.00000000000E+00 0. -1.
         -2   -1    0    0    0  501 -0.00000000000E+00 -0.00000000000E+00 -0.84138274056E+02  0.84138274056E+02  0.00000000000E+00 0.  1.
          6    1    1    2  502    0 -0.83884088527E+02 -0.35206015195E+03  0.10333898199E+04  0.11083597840E+04  0.17200000000E+03 0. -1.
         -6    1    1    2    0  501  0.83884088527E+02  0.35206015195E+03  0.81377307863E+03  0.90707966265E+03  0.17200000000E+03 0.  1.
</event>
<event>
 4    1  0.3211568E-002  0.1933790E+03  0.7818608E-02  0.1155449E+00
         -1   -1    0    0    0  501 -0.00000000000E+00  0.00000000000E+00  0.11387588374E+03  0.11387588374E+03  0.00000000000E+00 0.  1.
          1   -1    0    0  502    0  0.00000000000E+00 -0.00000000000E+00 -0.40579725710E+03  0.40579725710E+03  0.00000000000E+00 0. -1.
          6    1    1    2  502    0 -0.88258996086E+02  0.46672412498E+01 -0.25944691465E+03  0.32358636414E+03  0.17200000000E+03 0. -1.
         -6    1    1    2    0  501  0.88258996086E+02 -0.46672412498E+01 -0.32474458709E+02  0.19608677671E+03  0.17200000000E+03 0.  1.
</event>
<event>
 4    1  0.3211568E-002  0.3227953E+03  0.7818608E-02  0.1074370E+00
          1   -1    0    0  502    0  0.00000000000E+00  0.00000000000E+00  0.18835074538E+03  0.18835074538E+03  0.00000000000E+00 0. -1.
         -1   -1    0    0    0  501 -0.00000000000E+00 -0.00000000000E+00 -0.55687141142E+03  0.55687141142E+03  0.00000000000E+00 0.  1.
          6    1    1    2  502    0  0.57320051637E+02 -0.26707154878E+03 -0.15403106013E+03  0.35766236588E+03  0.17200000000E+03 0. -1.
         -6    1    1    2    0  501 -0.57320051637E+02  0.26707154878E+03 -0.21448960592E+03  0.38755979092E+03  0.17200000000E+03 0.  1.
</event>
<event>
 4    1  0.3211568E-002  0.2885639E+03  0.7818608E-02  0.1091101E+00
          2   -1    0    0  502    0  0.00000000000E+00  0.00000000000E+00  0.40913713280E+03  0.40913713280E+03  0.00000000000E+00 0. -1.
         -2   -1    0    0    0  501 -0.00000000000E+00 -0.00000000000E+00 -0.25991026063E+03  0.25991026063E+03  0.00000000000E+00 0.  1.
          6    1    1    2  502    0 -0.19709859890E+03 -0.12180822933E+03  0.23042618287E+03  0.36927676365E+03  0.17200000000E+03 0. -1.
         -6    1    1    2    0  501  0.19709859890E+03  0.12180822933E+03 -0.81199310694E+02  0.29977062978E+03  0.17200000000E+03 0.  1.
</event>
<event>
 4    1  0.3211568E-002  0.3556560E+03  0.7818608E-02  0.1060317E+00
          1   -1    0    0  502    0  0.00000000000E+00  0.00000000000E+00  0.28878232260E+03  0.28878232260E+03  0.00000000000E+00 0. -1.
         -1   -1    0    0    0  501 -0.00000000000E+00 -0.00000000000E+00 -0.46136751877E+03  0.46136751877E+03  0.00000000000E+00 0.  1.
          6    1    1    2  502    0  0.17572962907E+03 -0.25695586003E+03 -0.17067542239E+03  0.39448867709E+03  0.17200000000E+03 0. -1.
         -6    1    1    2    0  501 -0.17572962907E+03  0.25695586003E+03 -0.19097737743E+01  0.35566116428E+03  0.17200000000E+03 0.  1.
</event>
<event>
 4    1  0.3211568E-002  0.3834087E+03  0.7818608E-02  0.1049681E+00
          2   -1    0    0  502    0  0.00000000000E+00  0.00000000000E+00  0.29342922418E+04  0.29342922418E+04  0.00000000000E+00 0. -1.
         -2   -1    0    0    0  501 -0.00000000000E+00 -0.00000000000E+00 -0.15868113840E+03  0.15868113840E+03  0.00000000000E+00 0.  1.
          6    1    1    2  502    0 -0.21835444112E+03 -0.26408254583E+03  0.26670827912E+04  0.26945004859E+04  0.17200000000E+03 0. -1.
         -6    1    1    2    0  501  0.21835444112E+03  0.26408254583E+03  0.10852831214E+03  0.39847289432E+03  0.17200000000E+03 0.  1.
</event>
<event>
 4    1  0.3211568E-002  0.2404775E+03  0.7818608E-02  0.1119475E+00
          1   -1    0    0  502    0  0.00000000000E+00  0.00000000000E+00  0.25169473343E+04  0.25169473343E+04  0.00000000000E+00 0. -1.
         -1   -1    0    0    0  501 -0.00000000000E+00 -0.00000000000E+00 -0.18745047491E+03  0.18745047491E+03  0.00000000000E+00 0.  1.
          6    1    1    2  502    0  0.58707903027E+02  0.15747640814E+03  0.24313689879E+04  0.24432324065E+04  0.17200000000E+03 0. -1.
         -6    1    1    2    0  501 -0.58707903027E+02 -0.15747640814E+03 -0.10187212850E+03  0.26116540269E+03  0.17200000000E+03 0.  1.
</event>
<event>
 4    1  0.3211568E-002  0.2121372E+03  0.7818608E-02  0.1139885E+00
         -2   -1    0    0    0  501 -0.00000000000E+00  0.00000000000E+00  0.26287405488E+02  0.26287405488E+02  0.00000000000E+00 0.  1.
          2   -1    0    0  502    0  0.00000000000E+00 -0.00000000000E+00 -0.18433674142E+04  0.18433674142E+04  0.00000000000E+00 0. -1.
          6    1    1    2  502    0 -0.12134505832E+02  0.12357561019E+03 -0.11581639656E+04  0.11774319296E+04  0.17200000000E+03 0. -1.
         -6    1    1    2    0  501  0.12134505832E+02 -0.12357561019E+03 -0.65891604308E+03  0.69222289004E+03  0.17200000000E+03 0.  1.
</event>
<event>
 4    1  0.3211568E-002  0.2807274E+03  0.7818608E-02  0.1095292E+00
          2   -1    0    0  502    0  0.00000000000E+00  0.00000000000E+00  0.18330703182E+04  0.18330703182E+04  0.00000000000E+00 0. -1.
         -2   -1    0    0    0  501 -0.00000000000E+00 -0.00000000000E+00 -0.49803515160E+02  0.49803515160E+02  0.00000000000E+00 0.  1.
          6    1    1    2  502    0  0.96151138802E+02  0.19994708902E+03  0.54347728247E+03  0.61169881188E+03  0.17200000000E+03 0.  1.
         -6    1    1    2    0  501 -0.96151138802E+02 -0.19994708902E+03  0.12397895205E+04  0.12711750214E+04  0.17200000000E+03 0. -1.
</event>
<event>
 4    1  0.3211568E-002  0.2497810E+03  0.7818608E-02  0.1113443E+00
          2   -1    0    0  502    0  0.00000000000E+00  0.00000000000E+00  0.25585530222E+03  0.25585530222E+03  0.00000000000E+00 0. -1.
         -2   -1    0    0    0  501 -0.00000000000E+00 -0.00000000000E+00 -0.24435576338E+03  0.24435576338E+03  0.00000000000E+00 0.  1.
          6    1    1    2  502    0  0.47361873945E+02  0.17482395510E+03 -0.56178866223E+01  0.24984419751E+03  0.17200000000E+03 0.  1.
         -6    1    1    2    0  501 -0.47361873945E+02 -0.17482395510E+03  0.17117425465E+02  0.25036686809E+03  0.17200000000E+03 0.  1.
</event>
<event>
 4    1  0.3211568E-002  0.2081003E+03  0.7818608E-02  0.1143079E+00
          4   -1    0    0  502    0  0.00000000000E+00  0.00000000000E+00  0.14687465401E+04  0.14687465401E+04  0.00000000000E+00 0. -1.
         -4   -1    0    0    0  501 -0.00000000000E+00 -0.00000000000E+00 -0.36529474092E+02  0.36529474092E+02  0.00000000000E+00 0.  1.
          6    1    1    2  502    0  0.26579520714E+02 -0.11408437685E+03  0.10466260730E+04  0.10671137955E+04  0.17200000000E+03 0. -1.
         -6    1    1    2    0  501 -0.26579520714E+02  0.11408437685E+03  0.38559099305E+03  0.43816221869E+03  0.17200000000E+03 0.  1.
</event>
<event>
 4    1  0.3211568E-002  0.5368414E+03  0.7818608E-02  0.1004586E+00
         -2   -1    0    0    0  501 -0.00000000000E+00  0.00000000000E+00  0.18517331695E+03  0.18517331695E+03  0.00000000000E+00 0.  1.
          2   -1    0    0  502    0  0.00000000000E+00 -0.00000000000E+00 -0.17436058110E+04  0.17436058110E+04  0.00000000000E+00 0. -1.
          6    1    1    2  502    0  0.47945940527E+03  0.16950914681E+03 -0.10952400680E+04  0.12197333638E+04  0.17200000000E+03 0. -1.
         -6    1    1    2    0  501 -0.47945940527E+03 -0.16950914681E+03 -0.46319242603E+03  0.70904576417E+03  0.17200000000E+03 0.  1.
</event>
<event>
 4    1  0.3211568E-002  0.1960292E+03  0.7818608E-02  0.1153133E+00
         -1   -1    0    0    0  501 -0.00000000000E+00  0.00000000000E+00  0.18792019533E+02  0.18792019533E+02  0.00000000000E+00 0.  1.
          1   -1    0    0  502    0  0.00000000000E+00 -0.00000000000E+00 -0.23360586122E+04  0.23360586122E+04  0.00000000000E+00 0. -1.
          6    1    1    2  502    0  0.54612648223E+02  0.76556548390E+02 -0.15743240675E+04  0.15864815524E+04  0.17200000000E+03 0.  1.
         -6    1    1    2    0  501 -0.54612648223E+02 -0.76556548390E+02 -0.74294252519E+03  0.76836907940E+03  0.17200000000E+03 0. -1.
</event>
<event>
 4    1  0.3211568E-002  0.2671262E+03  0.7818608E-02  0.1102936E+00
         -1   -1    0    0    0  501 -0.00000000000E+00  0.00000000000E+00  0.58500930398E+02  0.58500930398E+02  0.00000000000E+00 0.  1.
          1   -1    0    0  502    0  0.00000000000E+00 -0.00000000000E+00 -0.23712078887E+04  0.23712078887E+04  0.00000000000E+00 0. -1.
          6    1    1    2  502    0 -0.18776320054E+03  0.80730392498E+02 -0.20029251899E+04  0.20206597270E+04  0.17200000000E+03 0. -1.
         -6    1    1    2    0  501  0.18776320054E+03 -0.80730392498E+02 -0.30978176836E+03  0.40904909211E+03  0.17200000000E+03 0.  1.
</event>
<event>
 4    1  0.3211568E-002  0.2241663E+03  0.7818608E-02  0.1130814E+00
         -2   -1    0    0    0  501 -0.00000000000E+00  0.00000000000E+00  0.32467948430E+03  0.32467948430E+03  0.00000000000E+00 0.  1.
          2   -1    0    0  502    0  0.00000000000E+00 -0.00000000000E+00 -0.20296634513E+04  0.20296634513E+04  0.00000000000E+00 0. -1.
          6    1    1    2  502    0 -0.65603016738E+01  0.14360880206E+03 -0.19838916587E+04  0.19965161254E+04  0.17200000000E+03 0. -1.
         -6    1    1    2    0  501  0.65603016738E+01 -0.14360880206E+03  0.27890769171E+03  0.35782681018E+03  0.17200000000E+03 0.  1.
</event>
<event>
 4    1  0.3211568E-002  0.3928339E+03  0.7818608E-02  0.1046290E+00
         -2   -1    0    0    0  501 -0.00000000000E+00  0.00000000000E+00  0.46424496443E+03  0.46424496443E+03  0.00000000000E+00 0.  1.
          2   -1    0    0  502    0  0.00000000000E+00 -0.00000000000E+00 -0.82723005634E+03  0.82723005634E+03  0.00000000000E+00 0. -1.
          6    1    1    2  502    0 -0.35199136990E+03  0.28923762575E+02 -0.68091447292E+03  0.78610624470E+03  0.17200000000E+03 0. -1.
         -6    1    1    2    0  501  0.35199136990E+03 -0.28923762575E+02  0.31792938101E+03  0.50536877608E+03  0.17200000000E+03 0.  1.
</event>
<event>
 4    1  0.3211568E-002  0.1771438E+03  0.7818608E-02  0.1170596E+00
          1   -1    0    0  502    0  0.00000000000E+00  0.00000000000E+00  0.91028148637E+03  0.91028148637E+03  0.00000000000E+00 0. -1.
         -1   -1    0    0    0  501 -0.00000000000E+00 -0.00000000000E+00 -0.34757301476E+02  0.34757301476E+02  0.00000000000E+00 0.  1.
          6    1    1    2  502    0 -0.30106530949E+02  0.29824931141E+02  0.48051417125E+03  0.51212674065E+03  0.17200000000E+03 0. -1.
         -6    1    1    2    0  501  0.30106530949E+02 -0.29824931141E+02  0.39501001365E+03  0.43291204719E+03  0.17200000000E+03 0.  1.
</event>
<event>
 4    1  0.3211568E-002  0.2174886E+03  0.7818608E-02  0.1135769E+00
          1   -1    0    0  502    0  0.00000000000E+00  0.00000000000E+00  0.22356559053E+03  0.22356559053E+03  0.00000000000E+00 0. -1.
         -1   -1    0    0    0  501 -0.00000000000E+00 -0.00000000000E+00 -0.23583841924E+03  0.23583841924E+03  0.00000000000E+00 0.  1.
          6    1    1    2  502    0 -0.25015324015E+02 -0.13073461316E+03  0.67538029808E+02  0.22773381607E+03  0.17200000000E+03 0. -1.
         -6    1    1    2    0  501  0.25015324015E+02  0.13073461316E+03 -0.79810858519E+02  0.23167019370E+03  0.17200000000E+03 0.  1.
</event>
<event>
 4    1  0.3211568E-002  0.2723955E+03  0.7818608E-02  0.1099916E+00
         -2   -1    0    0    0  501 -0.00000000000E+00  0.00000000000E+00  0.13912818867E+03  0.13912818867E+03  0.00000000000E+00 0.  1.
          2   -1    0    0  502    0  0.00000000000E+00 -0.00000000000E+00 -0.61145226238E+03  0.61145226238E+03  0.00000000000E+00 0. -1.
          6    1    1    2  502    0 -0.19147323255E+03 -0.89181227993E+02 -0.37031870658E+03  0.45971212150E+03  0.17200000000E+03 0. -1.
         -6    1    1    2    0  501  0.19147323255E+03  0.89181227993E+02 -0.10200536712E+03  0.29086832954E+03  0.17200000000E+03 0.  1.
</event>
<event>
 4    1  0.3211568E-002  0.2256442E+03  0.7818608E-02  0.1129744E+00
         -1   -1    0    0    0  501 -0.00000000000E+00  0.00000000000E+00  0.11887077949E+03  0.11887077949E+03  0.00000000000E+00 0.  1.
          1   -1    0    0  502    0  0.00000000000E+00 -0.00000000000E+00 -0.49254664784E+03  0.49254664784E+03  0.00000000000E+00 0. -1.
          6    1    1    2  502    0 -0.14131127995E+03  0.36911152816E+02 -0.29722680715E+03  0.37317433718E+03  0.17200000000E+03 0.  1.
         -6    1    1    2    0  501  0.14131127995E+03 -0.36911152816E+02 -0.76449061212E+02  0.23824309015E+03  0.17200000000E+03 0.  1.
</event>
<event>
 4    1  0.3211568E-002  0.2314139E+03  0.7818608E-02  0.1125649E+00
         -4   -1    0    0    0  501 -0.00000000000E+00  0.00000000000E+00  0.12518694479E+04  0.12518694479E+04  0.00000000000E+00 0.  1.
          4   -1    0    0  502    0  0.00000000000E+00 -0.00000000000E+00 -0.61302060606E+02  0.61302060606E+02  0.00000000000E+00 0. -1.
          6    1    1    2  502    0  0.11370431460E+03  0.10506999383E+03  0.23435374542E+03  0.32935399307E+03  0.17200000000E+03 0. -1.
         -6    1    1    2    0  501 -0.11370431460E+03 -0.10506999383E+03  0.95621364190E+03  0.98381751546E+03  0.17200000000E+03 0.  1.
</event>
<event>
 4    1  0.3211568E-002  0.4076272E+03  0.7818608E-02  0.1041170E+00
          2   -1    0    0  502    0  0.00000000000E+00  0.00000000000E+00  0.97016113071E+03  0.97016113071E+03  0.00000000000E+00 0. -1.
         -2   -1    0    0    0  501 -0.00000000000E+00 -0.00000000000E+00 -0.17210142935E+03  0.17210142935E+03  0.00000000000E+00 0.  1.
          6    1    1    2  502    0 -0.34597286456E+03  0.12991799884E+03  0.35934312348E+03  0.54340352393E+03  0.17200000000E+03 0. -1.
         -6    1    1    2    0  501  0.34597286456E+03 -0.12991799884E+03  0.43871657788E+03  0.59885903612E+03  0.17200000000E+03 0.  1.
</event>
<event>
 4    1  0.3211568E-002  0.3346934E+03  0.7818608E-02  0.1069079E+00
         -2   -1    0    0    0  501 -0.00000000000E+00  0.00000000000E+00  0.18671004298E+03  0.18671004298E+03  0.00000000000E+00 0.  1.
          2   -1    0    0  502    0  0.00000000000E+00 -0.00000000000E+00 -0.13429199919E+04  0.13429199919E+04  0.00000000000E+00 0. -1.
          6    1    1    2  502    0  0.30046197354E+01  0.28710040892E+03 -0.11469740237E+04  0.11948092248E+04  0.17200000000E+03 0. -1.
         -6    1    1    2    0  501 -0.30046197354E+01 -0.28710040892E+03 -0.92359251703E+01  0.33482081007E+03  0.17200000000E+03 0.  1.
</event>
<event>
 4    1  0.3211568E-002  0.2267932E+03  0.7818608E-02  0.1128917E+00
          2   -1    0    0  502    0  0.00000000000E+00  0.00000000000E+00  0.90186055162E+03  0.90186055162E+03  0.00000000000E+00 0. -1.
         -2   -1    0    0    0  501 -0.00000000000E+00 -0.00000000000E+00 -0.11690922031E+03  0.11690922031E+03  0.00000000000E+00 0.  1.
          6    1    1    2  502    0 -0.94008187590E+02  0.11407723190E+03  0.27930359891E+02  0.22850658454E+03  0.17200000000E+03 0.  1.
         -6    1    1    2    0  501  0.94008187590E+02 -0.11407723190E+03  0.75702097143E+03  0.79026318739E+03  0.17200000000E+03 0. -1.
</event>
<event>
 4    1  0.3211568E-002  0.1886139E+03  0.7818608E-02  0.1159718E+00
          2   -1    0    0  502    0  0.00000000000E+00  0.00000000000E+00  0.71584508764E+03  0.71584508764E+03  0.00000000000E+00 0. -1.
         -2   -1    0    0    0  501 -0.00000000000E+00 -0.00000000000E+00 -0.10253919875E+03  0.10253919875E+03  0.00000000000E+00 0.  1.
          6    1    1    2  502    0 -0.73202061382E+02  0.25152427821E+02  0.12905751747E+02  0.18905487257E+03  0.17200000000E+03 0.  1.
         -6    1    1    2    0  501  0.73202061382E+02 -0.25152427821E+02  0.60040013715E+03  0.62932941382E+03  0.17200000000E+03 0. -1.
</event>
<event>
 4    1  0.3211568E-002  0.2544348E+03  0.7818608E-02  0.1110534E+00
          2   -1    0    0  502    0  0.00000000000E+00  0.00000000000E+00  0.29482430076E+04  0.29482430076E+04  0.00000000000E+00 0. -1.
         -2   -1    0    0    0  501 -0.00000000000E+00 -0.00000000000E+00 -0.44042532196E+02  0.44042532196E+02  0.00000000000E+00 0.  1.
          6    1    1    2  502    0 -0.18269997134E+03 -0.42116597340E+02  0.25115550624E+04  0.25244100140E+04  0.17200000000E+03 0. -1.
         -6    1    1    2    0  501  0.18269997134E+03  0.42116597340E+02  0.39264541308E+03  0.46787552587E+03  0.17200000000E+03 0.  1.
</event>
<event>
 4    1  0.3211568E-002  0.1722152E+03  0.7818608E-02  0.1175557E+00
          2   -1    0    0  502    0  0.00000000000E+00  0.00000000000E+00  0.35398990166E+03  0.35398990166E+03  0.00000000000E+00 0. -1.
         -2   -1    0    0    0  501 -0.00000000000E+00 -0.00000000000E+00 -0.10245317454E+03  0.10245317454E+03  0.00000000000E+00 0.  1.
          6    1    1    2  502    0  0.84460376891E+01 -0.16601148346E+01  0.22319464727E+03  0.28191123090E+03  0.17200000000E+03 0. -1.
         -6    1    1    2    0  501 -0.84460376891E+01  0.16601148346E+01  0.28342079855E+02  0.17453184530E+03  0.17200000000E+03 0.  1.
</event>
<event>
 4    1  0.3211568E-002  0.2128521E+03  0.7818608E-02  0.1139327E+00
         -2   -1    0    0    0  501 -0.00000000000E+00  0.00000000000E+00  0.10566230673E+03  0.10566230673E+03  0.00000000000E+00 0.  1.
          2   -1    0    0  502    0  0.00000000000E+00 -0.00000000000E+00 -0.88005621008E+03  0.88005621008E+03  0.00000000000E+00 0. -1.
          6    1    1    2  502    0 -0.11479904603E+03 -0.50430168804E+02 -0.74012672724E+03  0.77012570095E+03  0.17200000000E+03 0. -1.
         -6    1    1    2    0  501  0.11479904603E+03  0.50430168804E+02 -0.34267176109E+02  0.21559281586E+03  0.17200000000E+03 0.  1.
</event>
<event>
 4    1  0.3211568E-002  0.1921827E+03  0.7818608E-02  0.1156507E+00
         -2   -1    0    0    0  501 -0.00000000000E+00  0.00000000000E+00  0.27881612334E+03  0.27881612334E+03  0.00000000000E+00 0.  1.
          2   -1    0    0  502    0  0.00000000000E+00 -0.00000000000E+00 -0.14533565418E+03  0.14533565418E+03  0.00000000000E+00 0. -1.
          6    1    1    2  502    0 -0.65486618074E+01 -0.85482839831E+02  0.12984406316E+03  0.23193464945E+03  0.17200000000E+03 0.  1.
         -6    1    1    2    0  501  0.65486618074E+01  0.85482839831E+02  0.36364059979E+01  0.19221712808E+03  0.17200000000E+03 0. -1.
</event>
<event>
 4    1  0.3211568E-002  0.5446405E+03  0.7818608E-02  0.1002742E+00
         -2   -1    0    0    0  501 -0.00000000000E+00  0.00000000000E+00  0.41607511407E+03  0.41607511407E+03  0.00000000000E+00 0.  1.
          2   -1    0    0  502    0  0.00000000000E+00 -0.00000000000E+00 -0.74970981151E+03  0.74970981151E+03  0.00000000000E+00 0. -1.
          6    1    1    2  502    0 -0.41190859717E+03 -0.31205864193E+03 -0.29591978152E+03  0.61984014513E+03  0.17200000000E+03 0. -1.
         -6    1    1    2    0  501  0.41190859717E+03  0.31205864193E+03 -0.37714915913E+02  0.54594478045E+03  0.17200000000E+03 0.  1.
</event>
<event>
 4    1  0.3211568E-002  0.3716742E+03  0.7818608E-02  0.1054055E+00
         -2   -1    0    0    0  501 -0.00000000000E+00  0.00000000000E+00  0.85758121688E+02  0.85758121688E+02  0.00000000000E+00 0.  1.
          2   -1    0    0  502    0  0.00000000000E+00 -0.00000000000E+00 -0.17407680779E+04  0.17407680779E+04  0.00000000000E+00 0. -1.
          6    1    1    2  502    0 -0.52244999173E+02 -0.32531244712E+03 -0.10770185641E+04  0.11393466179E+04  0.17200000000E+03 0. -1.
         -6    1    1    2    0  501  0.52244999173E+02  0.32531244712E+03 -0.57799139204E+03  0.68717958167E+03  0.17200000000E+03 0.  1.
</event>
<event>
 4    1  0.3211568E-002  0.1889876E+03  0.7818608E-02  0.1159378E+00
          2   -1    0    0  502    0  0.00000000000E+00  0.00000000000E+00  0.11542472548E+04  0.11542472548E+04  0.00000000000E+00 0. -1.
         -2   -1    0    0    0  501 -0.00000000000E+00 -0.00000000000E+00 -0.68196665294E+02  0.68196665294E+02  0.00000000000E+00 0.  1.
          6    1    1    2  502    0  0.63517262394E+02  0.45802547555E+02  0.99477683908E+03  0.10125696399E+04  0.17200000000E+03 0. -1.
         -6    1    1    2    0  501 -0.63517262394E+02 -0.45802547555E+02  0.91273750405E+02  0.20987428022E+03  0.17200000000E+03 0.  1.
</event>
<event>
 4    1  0.3211568E-002  0.2097857E+03  0.7818608E-02  0.1141736E+00
          2   -1    0    0  502    0  0.00000000000E+00  0.00000000000E+00  0.80563083483E+03  0.80563083483E+03  0.00000000000E+00 0. -1.
         -2   -1    0    0    0  501 -0.00000000000E+00 -0.00000000000E+00 -0.65682132900E+02  0.65682132900E+02  0.00000000000E+00 0.  1.
          6    1    1    2  502    0  0.83487929209E+02 -0.86347012927E+02  0.19125073988E+03  0.28387829517E+03  0.17200000000E+03 0. -1.
         -6    1    1    2    0  501 -0.83487929209E+02  0.86347012927E+02  0.54869796206E+03  0.58743467256E+03  0.17200000000E+03 0. -1.
</event>
<event>
 4    1  0.3211568E-002  0.2307823E+03  0.7818608E-02  0.1126090E+00
          1   -1    0    0  502    0  0.00000000000E+00  0.00000000000E+00  0.94295575831E+03  0.94295575831E+03  0.00000000000E+00 0. -1.
         -1   -1    0    0    0  501 -0.00000000000E+00 -0.00000000000E+00 -0.63573084410E+02  0.63573084410E+02  0.00000000000E+00 0.  1.
          6    1    1    2  502    0 -0.15382467166E+03 -0.38005631159E+01  0.60776567369E+03  0.65010736652E+03  0.17200000000E+03 0. -1.
         -6    1    1    2    0  501  0.15382467166E+03  0.38005631159E+01  0.27161700022E+03  0.35642147620E+03  0.17200000000E+03 0.  1.
</event>
<event>
 4    1  0.3211568E-002  0.4996230E+03  0.7818608E-02  0.1013877E+00
         -2   -1    0    0    0  501 -0.00000000000E+00  0.00000000000E+00  0.20901835703E+03  0.20901835703E+03  0.00000000000E+00 0.  1.
          2   -1    0    0  502    0  0.00000000000E+00 -0.00000000000E+00 -0.12492675064E+04  0.12492675064E+04  0.00000000000E+00 0. -1.
          6    1    1    2  502    0  0.18275732521E+03  0.43201724124E+03 -0.67312034601E+03  0.83828046432E+03  0.17200000000E+03 0. -1.
         -6    1    1    2    0  501 -0.18275732521E+03 -0.43201724124E+03 -0.36712880334E+03  0.62000539908E+03  0.17200000000E+03 0.  1.
</event>
<event>
 4    1  0.3211568E-002  0.6075551E+03  0.7818608E-02  0.9889854E-01
          1   -1    0    0  502    0  0.00000000000E+00  0.00000000000E+00  0.54112978284E+03  0.54112978284E+03  0.00000000000E+00 0. -1.
         -1   -1    0    0    0  501 -0.00000000000E+00 -0.00000000000E+00 -0.10947278149E+04  0.10947278149E+04  0.00000000000E+00 0.  1.
          6    1    1    2  502    0  0.67060573539E+02  0.57882816349E+03  0.22533962600E+03  0.64799777038E+03  0.17200000000E+03 0. -1.
         -6    1    1    2    0  501 -0.67060573539E+02 -0.57882816349E+03 -0.77893765800E+03  0.98785982732E+03  0.17200000000E+03 0.  1.
</event>
<event>
 4    1  0.3211568E-002  0.3456286E+03  0.7818608E-02  0.1064424E+00
         -3   -1    0    0    0  501 -0.00000000000E+00  0.00000000000E+00  0.45156005854E+02  0.45156005854E+02  0.00000000000E+00 0.  1.
          3   -1    0    0  502    0  0.00000000000E+00 -0.00000000000E+00 -0.45956914886E+04  0.45956914886E+04  0.00000000000E+00 0. -1.
          6    1    1    2  502    0 -0.44637374771E+02  0.29645010242E+03 -0.37868545664E+04  0.38025947280E+04  0.17200000000E+03 0. -1.
         -6    1    1    2    0  501  0.44637374771E+02 -0.29645010242E+03 -0.76368091634E+03  0.83825276643E+03  0.17200000000E+03 0.  1.
</event>
<event>
 4    1  0.3211568E-002  0.6835532E+03  0.7818608E-02  0.9745779E-01
          2   -1    0    0  502    0  0.00000000000E+00  0.00000000000E+00  0.12922733177E+04  0.12922733177E+04  0.00000000000E+00 0. -1.
         -2   -1    0    0    0  501 -0.00000000000E+00 -0.00000000000E+00 -0.43129410031E+03  0.43129410031E+03  0.00000000000E+00 0.  1.
          6    1    1    2  502    0  0.63722145313E+03  0.17779143733E+03  0.77699380198E+03  0.10348740715E+04  0.17200000000E+03 0. -1.
         -6    1    1    2    0  501 -0.63722145313E+03 -0.17779143733E+03  0.83985415372E+02  0.68869334650E+03  0.17200000000E+03 0.  1.
</event>
<event>
 4    1  0.3211568E-002  0.2241171E+03  0.7818608E-02  0.1130850E+00
          2   -1    0    0  502    0  0.00000000000E+00  0.00000000000E+00  0.77779741477E+03  0.77779741477E+03  0.00000000000E+00 0. -1.
         -2   -1    0    0    0  501 -0.00000000000E+00 -0.00000000000E+00 -0.67286723877E+02  0.67286723877E+02  0.00000000000E+00 0.  1.
          6    1    1    2  502    0  0.13911781675E+03 -0.35926613218E+02  0.44003648997E+03  0.49382243872E+03  0.17200000000E+03 0. -1.
         -6    1    1    2    0  501 -0.13911781675E+03  0.35926613218E+02  0.27047420093E+03  0.35126169994E+03  0.17200000000E+03 0.  1.
</event>
<event>
 4    1  0.3211568E-002  0.1955629E+03  0.7818608E-02  0.1153537E+00
          2   -1    0    0  502    0  0.00000000000E+00  0.00000000000E+00  0.39302594977E+03  0.39302594977E+03  0.00000000000E+00 0. -1.
         -2   -1    0    0    0  501 -0.00000000000E+00 -0.00000000000E+00 -0.97586215028E+02  0.97586215028E+02  0.00000000000E+00 0.  1.
          6    1    1    2  502    0  0.87673277252E+02  0.31213008900E+02  0.16080068751E+03  0.25318316803E+03  0.17200000000E+03 0. -1.
         -6    1    1    2    0  501 -0.87673277252E+02 -0.31213008900E+02  0.13463904724E+03  0.23742899677E+03  0.17200000000E+03 0.  1.
</event>
<event>
 4    1  0.3211568E-002  0.2020834E+03  0.7818608E-02  0.1147993E+00
          2   -1    0    0  502    0  0.00000000000E+00  0.00000000000E+00  0.58605456921E+03  0.58605456921E+03  0.00000000000E+00 0. -1.
         -2   -1    0    0    0  501 -0.00000000000E+00 -0.00000000000E+00 -0.74868137492E+02  0.74868137492E+02  0.00000000000E+00 0.  1.
          6    1    1    2  502    0  0.81865724637E+02  0.67466385227E+02  0.34256450743E+03  0.39772874143E+03  0.17200000000E+03 0. -1.
         -6    1    1    2    0  501 -0.81865724637E+02 -0.67466385227E+02  0.16862192428E+03  0.26319396527E+03  0.17200000000E+03 0. -1.
</event>
<event>
 4    1  0.3211568E-002  0.2103045E+03  0.7818608E-02  0.1141325E+00
         -1   -1    0    0    0  501 -0.00000000000E+00  0.00000000000E+00  0.16505066811E+03  0.16505066811E+03  0.00000000000E+00 0.  1.
          1   -1    0    0  502    0  0.00000000000E+00 -0.00000000000E+00 -0.26821093848E+03  0.26821093848E+03  0.00000000000E+00 0. -1.
          6    1    1    2  502    0 -0.11938509047E+03 -0.19777887210E+02 -0.45033398322E+02  0.21507201495E+03  0.17200000000E+03 0. -1.
         -6    1    1    2    0  501  0.11938509047E+03  0.19777887210E+02 -0.58126872042E+02  0.21818959165E+03  0.17200000000E+03 0.  1.
</event>
<event>
 4    1  0.3211568E-002  0.1790172E+03  0.7818608E-02  0.1168758E+00
         -4   -1    0    0    0  501 -0.00000000000E+00  0.00000000000E+00  0.40706706363E+03  0.40706706363E+03  0.00000000000E+00 0.  1.
          4   -1    0    0  502    0  0.00000000000E+00 -0.00000000000E+00 -0.84446023426E+02  0.84446023426E+02  0.00000000000E+00 0. -1.
          6    1    1    2  502    0  0.25290589954E+01 -0.49565649626E+02  0.22526606366E+03  0.28773590182E+03  0.17200000000E+03 0.  1.
         -6    1    1    2    0  501 -0.25290589954E+01  0.49565649626E+02  0.97354976544E+02  0.20377718523E+03  0.17200000000E+03 0. -1.
</event>
<event>
 4    1  0.3211568E-002  0.2508915E+03  0.7818608E-02  0.1112743E+00
         -1   -1    0    0    0  501 -0.00000000000E+00  0.00000000000E+00  0.28722215792E+02  0.28722215792E+02  0.00000000000E+00 0.  1.
          1   -1    0    0  502    0  0.00000000000E+00 -0.00000000000E+00 -0.36101716432E+04  0.36101716432E+04  0.00000000000E+00 0. -1.
          6    1    1    2  502    0  0.18255820490E+03  0.59187896574E+01 -0.29312550693E+04  0.29419726055E+04  0.17200000000E+03 0. -1.
         -6    1    1    2    0  501 -0.18255820490E+03 -0.59187896574E+01 -0.65019435810E+03  0.69692125348E+03  0.17200000000E+03 0.  1.
</event>
<event>
 4    1  0.3211568E-002  0.2647929E+03  0.7818608E-02  0.1104297E+00
         -1   -1    0    0    0  501 -0.00000000000E+00  0.00000000000E+00  0.36414881960E+03  0.36414881960E+03  0.00000000000E+00 0.  1.
          1   -1    0    0  502    0  0.00000000000E+00 -0.00000000000E+00 -0.19682714006E+03  0.19682714006E+03  0.00000000000E+00 0. -1.
          6    1    1    2  502    0 -0.19199412547E+03  0.60576723510E+02  0.42292556800E+02  0.26814910779E+03  0.17200000000E+03 0. -1.
         -6    1    1    2    0  501  0.19199412547E+03 -0.60576723510E+02  0.12502912275E+03  0.29282685188E+03  0.17200000000E+03 0.  1.
</event>
<event>
 4    1  0.3211568E-002  0.4109787E+03  0.7818608E-02  0.1040043E+00
         -1   -1    0    0    0  501 -0.00000000000E+00  0.00000000000E+00  0.13910846738E+04  0.13910846738E+04  0.00000000000E+00 0.  1.
          1   -1    0    0  502    0  0.00000000000E+00 -0.00000000000E+00 -0.16095530744E+03  0.16095530744E+03  0.00000000000E+00 0. -1.
          6    1    1    2  502    0  0.36981160959E+03  0.50585563042E+02  0.99967472345E+03  0.10808575662E+04  0.17200000000E+03 0.  1.
         -6    1    1    2    0  501 -0.36981160959E+03 -0.50585563042E+02  0.23045464292E+03  0.47118241501E+03  0.17200000000E+03 0. -1.
</event>
<event>
 4    1  0.3211568E-002  0.1737429E+03  0.7818608E-02  0.1174000E+00
          2   -1    0    0  502    0  0.00000000000E+00  0.00000000000E+00  0.44804291161E+03  0.44804291161E+03  0.00000000000E+00 0. -1.
         -2   -1    0    0    0  501 -0.00000000000E+00 -0.00000000000E+00 -0.67384851129E+02  0.67384851129E+02  0.00000000000E+00 0.  1.
          6    1    1    2  502    0 -0.12144259530E+02 -0.21333187984E+02  0.19355030272E+03  0.26009288270E+03  0.17200000000E+03 0.  1.
         -6    1    1    2    0  501  0.12144259530E+02  0.21333187984E+02  0.18710775777E+03  0.25533488004E+03  0.17200000000E+03 0. -1.
</event>
<event>
 4    1  0.3211568E-002  0.2356918E+03  0.7818608E-02  0.1122697E+00
          2   -1    0    0  502    0  0.00000000000E+00  0.00000000000E+00  0.40848125008E+04  0.40848125008E+04  0.00000000000E+00 0. -1.
         -2   -1    0    0    0  501 -0.00000000000E+00 -0.00000000000E+00 -0.15060274754E+02  0.15060274754E+02  0.00000000000E+00 0.  1.
          6    1    1    2  502    0  0.65176253842E+02  0.14737260442E+03  0.26733511347E+04  0.26837207228E+04  0.17200000000E+03 0. -1.
         -6    1    1    2    0  501 -0.65176253842E+02 -0.14737260442E+03  0.13964010914E+04  0.14161520528E+04  0.17200000000E+03 0.  1.
</event>
<event>
 4    1  0.3211568E-002  0.2710558E+03  0.7818608E-02  0.1100677E+00
         -2   -1    0    0    0  501 -0.00000000000E+00  0.00000000000E+00  0.32941259103E+03  0.32941259103E+03  0.00000000000E+00 0.  1.
          2   -1    0    0  502    0  0.00000000000E+00 -0.00000000000E+00 -0.12643208542E+04  0.12643208542E+04  0.00000000000E+00 0. -1.
          6    1    1    2  502    0 -0.49280713794E+02  0.20361405799E+03 -0.11906260581E+04  0.12210903667E+04  0.17200000000E+03 0. -1.
         -6    1    1    2    0  501  0.49280713794E+02 -0.20361405799E+03  0.25571779493E+03  0.37264307857E+03  0.17200000000E+03 0.  1.
</event>
<event>
 4    1  0.3211568E-002  0.1746437E+03  0.7818608E-02  0.1173090E+00
          2   -1    0    0  502    0  0.00000000000E+00  0.00000000000E+00  0.65235066108E+03  0.65235066108E+03  0.00000000000E+00 0. -1.
         -2   -1    0    0    0  501 -0.00000000000E+00 -0.00000000000E+00 -0.49254892552E+02  0.49254892552E+02  0.00000000000E+00 0.  1.
          6    1    1    2  502    0  0.23392779070E+02  0.19214248080E+02  0.38058511609E+03  0.41874268953E+03  0.17200000000E+03 0. -1.
         -6    1    1    2    0  501 -0.23392779070E+02 -0.19214248080E+02  0.22251065243E+03  0.28286286410E+03  0.17200000000E+03 0.  1.
</event>
<event>
 4    1  0.3211568E-002  0.4648532E+03  0.7818608E-02  0.1023383E+00
         -2   -1    0    0    0  501 -0.00000000000E+00  0.00000000000E+00  0.73307043748E+03  0.73307043748E+03  0.00000000000E+00 0.  1.
          2   -1    0    0  502    0  0.00000000000E+00 -0.00000000000E+00 -0.30197028447E+03  0.30197028447E+03  0.00000000000E+00 0. -1.
          6    1    1    2  502    0 -0.26542342336E+03  0.34066826334E+03  0.13564631326E+03  0.48424000414E+03  0.17200000000E+03 0. -1.
         -6    1    1    2    0  501  0.26542342336E+03 -0.34066826334E+03  0.29545383976E+03  0.55080071781E+03  0.17200000000E+03 0.  1.
</event>
<event>
 4    1  0.3211568E-002  0.4077232E+03  0.7818608E-02  0.1041138E+00
         -1   -1    0    0    0  501 -0.00000000000E+00  0.00000000000E+00  0.84860192883E+03  0.84860192883E+03  0.00000000000E+00 0.  1.
          1   -1    0    0  502    0  0.00000000000E+00 -0.00000000000E+00 -0.20022520481E+03  0.20022520481E+03  0.00000000000E+00 0. -1.
          6    1    1    2  502    0 -0.16807061260E+03 -0.32925136547E+03  0.24708188044E+03  0.47674694349E+03  0.17200000000E+03 0. -1.
         -6    1    1    2    0  501  0.16807061260E+03  0.32925136547E+03  0.40129484358E+03  0.57208019015E+03  0.17200000000E+03 0.  1.
</event>
<event>
 4    1  0.3211568E-002  0.2202149E+03  0.7818608E-02  0.1133723E+00
          2   -1    0    0  502    0  0.00000000000E+00  0.00000000000E+00  0.94357592500E+03  0.94357592500E+03  0.00000000000E+00 0. -1.
         -2   -1    0    0    0  501 -0.00000000000E+00 -0.00000000000E+00 -0.51440797353E+02  0.51440797353E+02  0.00000000000E+00 0.  1.
          6    1    1    2  502    0 -0.70154084573E+02  0.11827519318E+03  0.46099222901E+03  0.51088986300E+03  0.17200000000E+03 0.  1.
         -6    1    1    2    0  501  0.70154084573E+02 -0.11827519318E+03  0.43114289863E+03  0.48412685935E+03  0.17200000000E+03 0. -1.
</event>
<event>
 4    1  0.3211568E-002  0.7299959E+03  0.7818608E-02  0.9667267E-01
          2   -1    0    0  502    0  0.00000000000E+00  0.00000000000E+00  0.20068496580E+04  0.20068496580E+04  0.00000000000E+00 0. -1.
         -2   -1    0    0    0  501 -0.00000000000E+00 -0.00000000000E+00 -0.27782044461E+03  0.27782044461E+03  0.00000000000E+00 0.  1.
          6    1    1    2  502    0  0.35268696370E+03  0.61556635590E+03  0.62432126818E+03  0.96055769155E+03  0.17200000000E+03 0. -1.
         -6    1    1    2    0  501 -0.35268696370E+03 -0.61556635590E+03  0.11047079452E+04  0.13241124110E+04  0.17200000000E+03 0.  1.
</event>
<event>
 4    1  0.3211568E-002  0.1972151E+03  0.7818608E-02  0.1152110E+00
          1   -1    0    0  502    0  0.00000000000E+00  0.00000000000E+00  0.66661914734E+02  0.66661914734E+02  0.00000000000E+00 0. -1.
         -1   -1    0    0    0  501 -0.00000000000E+00 -0.00000000000E+00 -0.58605750496E+03  0.58605750496E+03  0.00000000000E+00 0.  1.
          6    1    1    2  502    0 -0.80240546484E+02  0.53584228412E+02 -0.23792380312E+03  0.30903325214E+03  0.17200000000E+03 0. -1.
         -6    1    1    2    0  501  0.80240546484E+02 -0.53584228412E+02 -0.28147178710E+03  0.34368616756E+03  0.17200000000E+03 0.  1.
</event>
<event>
 4    1  0.3211568E-002  0.2636163E+03  0.7818608E-02  0.1104990E+00
         -1   -1    0    0    0  501 -0.00000000000E+00  0.00000000000E+00  0.10291721247E+03  0.10291721247E+03  0.00000000000E+00 0.  1.
          1   -1    0    0  502    0  0.00000000000E+00 -0.00000000000E+00 -0.67540114012E+03  0.67540114012E+03  0.00000000000E+00 0. -1.
          6    1    1    2  502    0  0.38512548892E+02  0.19602642757E+03 -0.29229664986E+03  0.39361263731E+03  0.17200000000E+03 0.  1.
         -6    1    1    2    0  501 -0.38512548892E+02 -0.19602642757E+03 -0.28018727779E+03  0.38470571527E+03  0.17200000000E+03 0. -1.
</event>
<event>
 4    1  0.3211568E-002  0.1724351E+03  0.7818608E-02  0.1175332E+00
         -1   -1    0    0    0  501 -0.00000000000E+00  0.00000000000E+00  0.79197268363E+02  0.79197268363E+02  0.00000000000E+00 0.  1.
          1   -1    0    0  502    0  0.00000000000E+00 -0.00000000000E+00 -0.97035810516E+03  0.97035810516E+03  0.00000000000E+00 0. -1.
          6    1    1    2  502    0 -0.78879236635E+01  0.93627746124E+01 -0.85648186057E+03  0.87366759032E+03  0.17200000000E+03 0. -1.
         -6    1    1    2    0  501  0.78879236635E+01 -0.93627746124E+01 -0.34678976227E+02  0.17588778320E+03  0.17200000000E+03 0.  1.
</event>
<event>
 4    1  0.3211568E-002  0.2270937E+03  0.7818608E-02  0.1128702E+00
         -1   -1    0    0    0  501 -0.00000000000E+00  0.00000000000E+00  0.63710433058E+02  0.63710433058E+02  0.00000000000E+00 0.  1.
          1   -1    0    0  502    0  0.00000000000E+00 -0.00000000000E+00 -0.13719379072E+04  0.13719379072E+04  0.00000000000E+00 0. -1.
          6    1    1    2  502    0  0.12069248429E+02 -0.14779002445E+03 -0.11137353982E+04  0.11366521435E+04  0.17200000000E+03 0. -1.
         -6    1    1    2    0  501 -0.12069248429E+02  0.14779002445E+03 -0.19449207596E+03  0.29899619679E+03  0.17200000000E+03 0.  1.
</event>
<event>
 4    1  0.3211568E-002  0.4749399E+03  0.7818608E-02  0.1020535E+00
          2   -1    0    0  502    0  0.00000000000E+00  0.00000000000E+00  0.13784736780E+03  0.13784736780E+03  0.00000000000E+00 0. -1.
         -2   -1    0    0    0  501 -0.00000000000E+00 -0.00000000000E+00 -0.16688690851E+04  0.16688690851E+04  0.00000000000E+00 0.  1.
          6    1    1    2  502    0  0.43686842209E+03 -0.71623342034E+02 -0.63942943078E+03  0.79651611302E+03  0.17200000000E+03 0. -1.
         -6    1    1    2    0  501 -0.43686842209E+03  0.71623342034E+02 -0.89159228649E+03  0.10102003399E+04  0.17200000000E+03 0.  1.
</event>
<event>
 4    1  0.3211568E-002  0.3619893E+03  0.7818608E-02  0.1057799E+00
         -2   -1    0    0    0  501 -0.00000000000E+00  0.00000000000E+00  0.31006843021E+03  0.31006843021E+03  0.00000000000E+00 0.  1.
          2   -1    0    0  502    0  0.00000000000E+00 -0.00000000000E+00 -0.18007554381E+04  0.18007554381E+04  0.00000000000E+00 0. -1.
          6    1    1    2  502    0  0.85523580952E+02 -0.30681910581E+03 -0.16686439809E+04  0.17074568755E+04  0.17200000000E+03 0. -1.
         -6    1    1    2    0  501 -0.85523580952E+02  0.30681910581E+03  0.17795697307E+03  0.40336699277E+03  0.17200000000E+03 0.  1.
</event>
<event>
 4    1  0.3211568E-002  0.9342363E+03  0.7818608E-02  0.9383768E-01
          2   -1    0    0  502    0  0.00000000000E+00  0.00000000000E+00  0.41887677559E+04  0.41887677559E+04  0.00000000000E+00 0. -1.
         -2   -1    0    0    0  501 -0.00000000000E+00 -0.00000000000E+00 -0.21220905559E+03  0.21220905559E+03  0.00000000000E+00 0.  1.
          6    1    1    2  502    0  0.48526372325E+03 -0.77957200011E+03  0.22843990753E+04  0.24680511582E+04  0.17200000000E+03 0. -1.
         -6    1    1    2    0  501 -0.48526372325E+03  0.77957200011E+03  0.16921596250E+04  0.19329256532E+04  0.17200000000E+03 0.  1.
</event>
<event>
 4    1  0.3211568E-002  0.2224212E+03  0.7818608E-02  0.1132091E+00
          2   -1    0    0  502    0  0.00000000000E+00  0.00000000000E+00  0.35598637286E+03  0.35598637286E+03  0.00000000000E+00 0. -1.
         -2   -1    0    0    0  501 -0.00000000000E+00 -0.00000000000E+00 -0.14306227052E+03  0.14306227052E+03  0.00000000000E+00 0.  1.
          6    1    1    2  502    0 -0.25314446626E+01  0.14099918049E+03  0.14866760715E+03  0.26753174490E+03  0.17200000000E+03 0.  1.
         -6    1    1    2    0  501  0.25314446626E+01 -0.14099918049E+03  0.64256495181E+02  0.23151689848E+03  0.17200000000E+03 0. -1.
</event>
<event>
 4    1  0.3211568E-002  0.2676415E+03  0.7818608E-02  0.1102637E+00
          1   -1    0    0  502    0  0.00000000000E+00  0.00000000000E+00  0.10509808517E+04  0.10509808517E+04  0.00000000000E+00 0. -1.
         -1   -1    0    0    0  501 -0.00000000000E+00 -0.00000000000E+00 -0.78327705155E+02  0.78327705155E+02  0.00000000000E+00 0.  1.
          6    1    1    2  502    0 -0.13971190414E+03  0.15009521108E+03  0.28285926909E+03  0.38941154921E+03  0.17200000000E+03 0.  1.
         -6    1    1    2    0  501  0.13971190414E+03 -0.15009521108E+03  0.68979387744E+03  0.73989700763E+03  0.17200000000E+03 0. -1.
</event>
<event>
 4    1  0.3211568E-002  0.7995453E+03  0.7818608E-02  0.9560675E-01
          1   -1    0    0  502    0  0.00000000000E+00  0.00000000000E+00  0.16473193540E+04  0.16473193540E+04  0.00000000000E+00 0. -1.
         -1   -1    0    0    0  501 -0.00000000000E+00 -0.00000000000E+00 -0.58489422592E+03  0.58489422592E+03  0.00000000000E+00 0.  1.
          6    1    1    2  502    0 -0.49640595058E+03 -0.60271873512E+03  0.11786652254E+04  0.14242627759E+04  0.17200000000E+03 0. -1.
         -6    1    1    2    0  501  0.49640595058E+03  0.60271873512E+03 -0.11624009728E+03  0.80795080398E+03  0.17200000000E+03 0.  1.
</event>
<event>
 4    1  0.3211568E-002  0.3708994E+03  0.7818608E-02  0.1054350E+00
         -1   -1    0    0    0  501 -0.00000000000E+00  0.00000000000E+00  0.13035747487E+04  0.13035747487E+04  0.00000000000E+00 0.  1.
          1   -1    0    0  502    0  0.00000000000E+00 -0.00000000000E+00 -0.13614333662E+03  0.13614333662E+03  0.00000000000E+00 0. -1.
          6    1    1    2  502    0 -0.19147218531E+03  0.26705941324E+03  0.24236237756E+03  0.44306416014E+03  0.17200000000E+03 0. -1.
         -6    1    1    2    0  501  0.19147218531E+03 -0.26705941324E+03  0.92506903455E+03  0.99665392521E+03  0.17200000000E+03 0.  1.
</event>
<event>
 4    1  0.3211568E-002  0.2096270E+03  0.7818608E-02  0.1141862E+00
         -1   -1    0    0    0  501 -0.00000000000E+00  0.00000000000E+00  0.12554911295E+03  0.12554911295E+03  0.00000000000E+00 0.  1.
          1   -1    0    0  502    0  0.00000000000E+00 -0.00000000000E+00 -0.37215202509E+03  0.37215202509E+03  0.00000000000E+00 0. -1.
          6    1    1    2  502    0 -0.10273724506E+03  0.61680866392E+02 -0.18400095423E+03  0.27892619447E+03  0.17200000000E+03 0. -1.
         -6    1    1    2    0  501  0.10273724506E+03 -0.61680866392E+02 -0.62601957910E+02  0.21877494357E+03  0.17200000000E+03 0.  1.
</event>
<event>
 4    1  0.3211568E-002  0.3983203E+03  0.7818608E-02  0.1044363E+00
         -2   -1    0    0    0  501 -0.00000000000E+00  0.00000000000E+00  0.33510582452E+03  0.33510582452E+03  0.00000000000E+00 0.  1.
          2   -1    0    0  502    0  0.00000000000E+00 -0.00000000000E+00 -0.19061690645E+04  0.19061690645E+04  0.00000000000E+00 0. -1.
          6    1    1    2  502    0  0.35717281527E+03 -0.38763989941E+02 -0.17570778869E+04  0.18016608358E+04  0.17200000000E+03 0. -1.
         -6    1    1    2    0  501 -0.35717281527E+03  0.38763989941E+02  0.18601464690E+03  0.43961405317E+03  0.17200000000E+03 0.  1.
</event>
<event>
 4    1  0.3211568E-002  0.3881530E+03  0.7818608E-02  0.1047961E+00
         -1   -1    0    0    0  501 -0.00000000000E+00  0.00000000000E+00  0.14202774876E+03  0.14202774876E+03  0.00000000000E+00 0.  1.
          1   -1    0    0  502    0  0.00000000000E+00 -0.00000000000E+00 -0.10609879020E+04  0.10609879020E+04  0.00000000000E+00 0. -1.
          6    1    1    2  502    0 -0.12397621707E+03  0.32512861394E+03 -0.45142771929E+03  0.59535678693E+03  0.17200000000E+03 0.  1.
         -6    1    1    2    0  501  0.12397621707E+03 -0.32512861394E+03 -0.46753243396E+03  0.60765886384E+03  0.17200000000E+03 0. -1.
</event>
<event>
 4    1  0.3211568E-002  0.2552310E+03  0.7818608E-02  0.1110043E+00
          2   -1    0    0  502    0  0.00000000000E+00  0.00000000000E+00  0.39388155953E+03  0.39388155953E+03  0.00000000000E+00 0. -1.
         -2   -1    0    0    0  501 -0.00000000000E+00 -0.00000000000E+00 -0.16691276695E+03  0.16691276695E+03  0.00000000000E+00 0.  1.
          6    1    1    2  502    0  0.18559272908E+03  0.33379776019E+02  0.14029334521E+03  0.29124747766E+03  0.17200000000E+03 0. -1.
         -6    1    1    2    0  501 -0.18559272908E+03 -0.33379776019E+02  0.86675447368E+02  0.26954684882E+03  0.17200000000E+03 0.  1.
</event>
<event>
 4    1  0.3211568E-002  0.2612438E+03  0.7818608E-02  0.1106398E+00
         -2   -1    0    0    0  501 -0.00000000000E+00  0.00000000000E+00  0.75318543436E+02  0.75318543436E+02  0.00000000000E+00 0.  1.
          2   -1    0    0  502    0  0.00000000000E+00 -0.00000000000E+00 -0.10321233351E+04  0.10321233351E+04  0.00000000000E+00 0. -1.
          6    1    1    2  502    0 -0.13814397445E+03 -0.13993053255E+03 -0.28493812608E+03  0.38657217607E+03  0.17200000000E+03 0. -1.
         -6    1    1    2    0  501  0.13814397445E+03  0.13993053255E+03 -0.67186666558E+03  0.72086970247E+03  0.17200000000E+03 0. -1.
</event>
<event>
 4    1  0.3211568E-002  0.3722411E+03  0.7818608E-02  0.1053839E+00
          2   -1    0    0  502    0  0.00000000000E+00  0.00000000000E+00  0.15359613394E+04  0.15359613394E+04  0.00000000000E+00 0. -1.
         -2   -1    0    0    0  501 -0.00000000000E+00 -0.00000000000E+00 -0.95946300593E+02  0.95946300593E+02  0.00000000000E+00 0.  1.
          6    1    1    2  502    0 -0.11662703780E+03 -0.30883256085E+03  0.52054544940E+03  0.63994607701E+03  0.17200000000E+03 0. -1.
         -6    1    1    2    0  501  0.11662703780E+03  0.30883256085E+03  0.91946958937E+03  0.99196156295E+03  0.17200000000E+03 0. -1.
</event>
<event>
 4    1  0.3211568E-002  0.2019617E+03  0.7818608E-02  0.1148094E+00
          2   -1    0    0  502    0  0.00000000000E+00  0.00000000000E+00  0.21031917577E+03  0.21031917577E+03  0.00000000000E+00 0. -1.
         -2   -1    0    0    0  501 -0.00000000000E+00 -0.00000000000E+00 -0.23674604531E+03  0.23674604531E+03  0.00000000000E+00 0.  1.
          6    1    1    2  502    0  0.21850287116E+02 -0.10357175907E+03  0.81840549550E+02  0.21791379000E+03  0.17200000000E+03 0. -1.
         -6    1    1    2    0  501 -0.21850287116E+02  0.10357175907E+03 -0.10826741909E+03  0.22915143107E+03  0.17200000000E+03 0.  1.
</event>
<event>
 4    1  0.3211568E-002  0.2577260E+03  0.7818608E-02  0.1108517E+00
          1   -1    0    0  502    0  0.00000000000E+00  0.00000000000E+00  0.11429147488E+04  0.11429147488E+04  0.00000000000E+00 0. -1.
         -1   -1    0    0    0  501 -0.00000000000E+00 -0.00000000000E+00 -0.74749201061E+02  0.74749201061E+02  0.00000000000E+00 0.  1.
          6    1    1    2  502    0  0.63814544416E+02 -0.18101483666E+03  0.82127341740E+03  0.86076285544E+03  0.17200000000E+03 0. -1.
         -6    1    1    2    0  501 -0.63814544416E+02  0.18101483666E+03  0.24689213030E+03  0.35690109438E+03  0.17200000000E+03 0.  1.
</event>
<event>
 4    1  0.3211568E-002  0.1790484E+03  0.7818608E-02  0.1168727E+00
          2   -1    0    0  502    0  0.00000000000E+00  0.00000000000E+00  0.39818210390E+03  0.39818210390E+03  0.00000000000E+00 0. -1.
         -2   -1    0    0    0  501 -0.00000000000E+00 -0.00000000000E+00 -0.99559490984E+02  0.99559490984E+02  0.00000000000E+00 0.  1.
          6    1    1    2  502    0  0.18955007861E+02  0.45989467342E+02  0.25816790539E+03  0.31417987015E+03  0.17200000000E+03 0. -1.
         -6    1    1    2    0  501 -0.18955007861E+02 -0.45989467342E+02  0.40454707527E+02  0.18356172474E+03  0.17200000000E+03 0.  1.
</event>
<event>
 4    1  0.3211568E-002  0.2024405E+03  0.7818608E-02  0.1147696E+00
         -2   -1    0    0    0  501 -0.00000000000E+00  0.00000000000E+00  0.10720709245E+03  0.10720709245E+03  0.00000000000E+00 0.  1.
          2   -1    0    0  502    0  0.00000000000E+00 -0.00000000000E+00 -0.43330690135E+03  0.43330690135E+03  0.00000000000E+00 0. -1.
          6    1    1    2  502    0 -0.10314937137E+03  0.27538064064E+02 -0.25580077969E+03  0.32621492406E+03  0.17200000000E+03 0. -1.
         -6    1    1    2    0  501  0.10314937137E+03 -0.27538064064E+02 -0.70299029206E+02  0.21429906975E+03  0.17200000000E+03 0.  1.
</event>
<event>
 4    1  0.3211568E-002  0.1913853E+03  0.7818608E-02  0.1157218E+00
         -1   -1    0    0    0  501 -0.00000000000E+00  0.00000000000E+00  0.12773950337E+03  0.12773950337E+03  0.00000000000E+00 0.  1.
          1   -1    0    0  502    0  0.00000000000E+00 -0.00000000000E+00 -0.47210470282E+03  0.47210470282E+03  0.00000000000E+00 0. -1.
          6    1    1    2  502    0  0.41746087254E+02  0.72811994585E+02 -0.36011432636E+03  0.40781202827E+03  0.17200000000E+03 0. -1.
         -6    1    1    2    0  501 -0.41746087254E+02 -0.72811994585E+02  0.15749126915E+02  0.19203217792E+03  0.17200000000E+03 0.  1.
</event>
<event>
 4    1  0.3211568E-002  0.2583245E+03  0.7818608E-02  0.1108154E+00
         -1   -1    0    0    0  501 -0.00000000000E+00  0.00000000000E+00  0.70506525868E+02  0.70506525868E+02  0.00000000000E+00 0.  1.
          1   -1    0    0  502    0  0.00000000000E+00 -0.00000000000E+00 -0.96419989655E+03  0.96419989655E+03  0.00000000000E+00 0. -1.
          6    1    1    2  502    0  0.14020196409E+03 -0.13225346621E+03 -0.37667119242E+03  0.45674145559E+03  0.17200000000E+03 0. -1.
         -6    1    1    2    0  501 -0.14020196409E+03  0.13225346621E+03 -0.51702217827E+03  0.57796496683E+03  0.17200000000E+03 0.  1.
</event>
<event>
 4    1  0.3211568E-002  0.4534529E+03  0.7818608E-02  0.1026697E+00
          1   -1    0    0  502    0  0.00000000000E+00  0.00000000000E+00  0.20314489694E+04  0.20314489694E+04  0.00000000000E+00 0. -1.
         -1   -1    0    0    0  501 -0.00000000000E+00 -0.00000000000E+00 -0.16226726347E+03  0.16226726347E+03  0.00000000000E+00 0.  1.
          6    1    1    2  502    0  0.27330291085E+03 -0.31834114657E+03  0.16073731769E+04  0.16701102048E+04  0.17200000000E+03 0. -1.
         -6    1    1    2    0  501 -0.27330291085E+03  0.31834114657E+03  0.26180852906E+03  0.52360602801E+03  0.17200000000E+03 0.  1.
</event>
<event>
 4    1  0.3211568E-002  0.3708817E+03  0.7818608E-02  0.1054356E+00
          2   -1    0    0  502    0  0.00000000000E+00  0.00000000000E+00  0.51569528146E+03  0.51569528146E+03  0.00000000000E+00 0. -1.
         -2   -1    0    0    0  501 -0.00000000000E+00 -0.00000000000E+00 -0.60419851430E+03  0.60419851430E+03  0.00000000000E+00 0.  1.
          6    1    1    2  502    0 -0.20862431599E+03  0.25386039650E+03  0.37422519280E+03  0.52687541322E+03  0.17200000000E+03 0. -1.
         -6    1    1    2    0  501  0.20862431599E+03 -0.25386039650E+03 -0.46272842563E+03  0.59301838254E+03  0.17200000000E+03 0.  1.
</event>
<event>
 4    1  0.3211568E-002  0.2517734E+03  0.7818608E-02  0.1112189E+00
          1   -1    0    0  502    0  0.00000000000E+00  0.00000000000E+00  0.59400804245E+03  0.59400804245E+03  0.00000000000E+00 0. -1.
         -1   -1    0    0    0  501 -0.00000000000E+00 -0.00000000000E+00 -0.13223687397E+03  0.13223687397E+03  0.00000000000E+00 0.  1.
          6    1    1    2  502    0  0.85293974166E+02 -0.16288280099E+03  0.39041060007E+03  0.46455387797E+03  0.17200000000E+03 0. -1.
         -6    1    1    2    0  501 -0.85293974166E+02  0.16288280099E+03  0.71360568411E+02  0.26169103846E+03  0.17200000000E+03 0.  1.
</event>
<event>
 4    1  0.3211568E-002  0.1991233E+03  0.7818608E-02  0.1150481E+00
          1   -1    0    0  502    0  0.00000000000E+00  0.00000000000E+00  0.60303312252E+02  0.60303312252E+02  0.00000000000E+00 0. -1.
         -1   -1    0    0    0  501 -0.00000000000E+00 -0.00000000000E+00 -0.65887441953E+03  0.65887441953E+03  0.00000000000E+00 0.  1.
          6    1    1    2  502    0 -0.44407061868E+02 -0.89967201267E+02 -0.28292728454E+03  0.34597389032E+03  0.17200000000E+03 0.  1.
         -6    1    1    2    0  501  0.44407061868E+02  0.89967201267E+02 -0.31564382274E+03  0.37320384146E+03  0.17200000000E+03 0.  1.
</event>
<event>
 4    1  0.3211568E-002  0.2839560E+03  0.7818608E-02  0.1093548E+00
          2   -1    0    0  502    0  0.00000000000E+00  0.00000000000E+00  0.31496350154E+04  0.31496350154E+04  0.00000000000E+00 0. -1.
         -2   -1    0    0    0  501 -0.00000000000E+00 -0.00000000000E+00 -0.28426382141E+02  0.28426382141E+02  0.00000000000E+00 0.  1.
          6    1    1    2  502    0 -0.12479761438E+03 -0.18834158555E+03  0.10595571457E+04  0.10969468275E+04  0.17200000000E+03 0.  1.
         -6    1    1    2    0  501  0.12479761438E+03  0.18834158555E+03  0.20616514875E+04  0.20811145700E+04  0.17200000000E+03 0. -1.
</event>
<event>
 4    1  0.3211568E-002  0.1976769E+03  0.7818608E-02  0.1151714E+00
          2   -1    0    0  502    0  0.00000000000E+00  0.00000000000E+00  0.40990739931E+03  0.40990739931E+03  0.00000000000E+00 0. -1.
         -2   -1    0    0    0  501 -0.00000000000E+00 -0.00000000000E+00 -0.96315878228E+02  0.96315878228E+02  0.00000000000E+00 0.  1.
          6    1    1    2  502    0 -0.78128192630E+02  0.58207615211E+02  0.13117731220E+03  0.23724170836E+03  0.17200000000E+03 0. -1.
         -6    1    1    2    0  501  0.78128192630E+02 -0.58207615211E+02  0.18241420888E+03  0.26898156917E+03  0.17200000000E+03 0.  1.
</event>
<event>
 4    1  0.3211568E-002  0.1905838E+03  0.7818608E-02  0.1157936E+00
          1   -1    0    0  502    0  0.00000000000E+00  0.00000000000E+00  0.60649390130E+03  0.60649390130E+03  0.00000000000E+00 0. -1.
         -1   -1    0    0    0  501 -0.00000000000E+00 -0.00000000000E+00 -0.69001053497E+02  0.69001053497E+02  0.00000000000E+00 0.  1.
          6    1    1    2  502    0 -0.73787241038E+02  0.35966955789E+02  0.39148403461E+03  0.43541006902E+03  0.17200000000E+03 0. -1.
         -6    1    1    2    0  501  0.73787241038E+02 -0.35966955789E+02  0.14600881319E+03  0.24008488578E+03  0.17200000000E+03 0.  1.
</event>
<event>
 4    1  0.3211568E-002  0.2040664E+03  0.7818608E-02  0.1146353E+00
          2   -1    0    0  502    0  0.00000000000E+00  0.00000000000E+00  0.13460014330E+04  0.13460014330E+04  0.00000000000E+00 0. -1.
         -2   -1    0    0    0  501 -0.00000000000E+00 -0.00000000000E+00 -0.10180386870E+03  0.10180386870E+03  0.00000000000E+00 0.  1.
          6    1    1    2  502    0  0.10967713228E+03  0.54799654695E+01  0.12260688558E+04  0.12429352126E+04  0.17200000000E+03 0. -1.
         -6    1    1    2    0  501 -0.10967713228E+03 -0.54799654695E+01  0.18128708494E+02  0.20487008917E+03  0.17200000000E+03 0.  1.
</event>
<event>
 4    1  0.3211568E-002  0.1924060E+03  0.7818608E-02  0.1156309E+00
         -1   -1    0    0    0  501 -0.00000000000E+00  0.00000000000E+00  0.35093376041E+02  0.35093376041E+02  0.00000000000E+00 0.  1.
          1   -1    0    0  502    0  0.00000000000E+00 -0.00000000000E+00 -0.11105198517E+04  0.11105198517E+04  0.00000000000E+00 0. -1.
          6    1    1    2  502    0 -0.81030443116E+02 -0.29498284088E+02 -0.66590230144E+03  0.69314208972E+03  0.17200000000E+03 0. -1.
         -6    1    1    2    0  501  0.81030443116E+02  0.29498284088E+02 -0.40952417423E+03  0.45247113804E+03  0.17200000000E+03 0.  1.
</event>
<event>
 4    1  0.3211568E-002  0.1758156E+03  0.7818608E-02  0.1171915E+00
          1   -1    0    0  502    0  0.00000000000E+00  0.00000000000E+00  0.32898840537E+04  0.32898840537E+04  0.00000000000E+00 0. -1.
         -1   -1    0    0    0  501 -0.00000000000E+00 -0.00000000000E+00 -0.23859021726E+02  0.23859021726E+02  0.00000000000E+00 0.  1.
          6    1    1    2  502    0 -0.84042923233E+01 -0.35446937723E+02  0.29230280189E+04  0.29283107616E+04  0.17200000000E+03 0. -1.
         -6    1    1    2    0  501  0.84042923233E+01  0.35446937723E+02  0.34299701307E+03  0.38543231377E+03  0.17200000000E+03 0.  1.
</event>
<event>
 4    1  0.3211568E-002  0.1770045E+03  0.7818608E-02  0.1170734E+00
         -1   -1    0    0    0  501 -0.00000000000E+00  0.00000000000E+00  0.37217426772E+02  0.37217426772E+02  0.00000000000E+00 0.  1.
          1   -1    0    0  502    0  0.00000000000E+00 -0.00000000000E+00 -0.95407781378E+03  0.95407781378E+03  0.00000000000E+00 0. -1.
          6    1    1    2  502    0 -0.33284534304E+01 -0.41659537547E+02 -0.62844153965E+03  0.65289307273E+03  0.17200000000E+03 0. -1.
         -6    1    1    2    0  501  0.33284534304E+01  0.41659537547E+02 -0.28841884736E+03  0.33840216782E+03  0.17200000000E+03 0.  1.
</event>
<event>
 4    1  0.3211568E-002  0.1785017E+03  0.7818608E-02  0.1169261E+00
          2   -1    0    0  502    0  0.00000000000E+00  0.00000000000E+00  0.12086403110E+03  0.12086403110E+03  0.00000000000E+00 0. -1.
         -2   -1    0    0    0  501 -0.00000000000E+00 -0.00000000000E+00 -0.35587824331E+03  0.35587824331E+03  0.00000000000E+00 0.  1.
          6    1    1    2  502    0 -0.18811678378E+02  0.43874611273E+02  0.38575423176E+01  0.17854338798E+03  0.17200000000E+03 0. -1.
         -6    1    1    2    0  501  0.18811678378E+02 -0.43874611273E+02 -0.23887175453E+03  0.29819888643E+03  0.17200000000E+03 0.  1.
</event>
<event>
 4    1  0.3211568E-002  0.2249931E+03  0.7818608E-02  0.1130214E+00
          2   -1    0    0  502    0  0.00000000000E+00  0.00000000000E+00  0.40158659509E+03  0.40158659509E+03  0.00000000000E+00 0. -1.
         -2   -1    0    0    0  501 -0.00000000000E+00 -0.00000000000E+00 -0.12614832891E+03  0.12614832891E+03  0.00000000000E+00 0.  1.
          6    1    1    2  502    0 -0.95736633291E+02  0.10896040681E+03  0.14490826436E+03  0.26761965228E+03  0.17200000000E+03 0.  1.
         -6    1    1    2    0  501  0.95736633291E+02 -0.10896040681E+03  0.13053000182E+03  0.26011527172E+03  0.17200000000E+03 0.  1.
</event>
<event>
 4    1  0.3211568E-002  0.1801389E+03  0.7818608E-02  0.1167669E+00
          2   -1    0    0  502    0  0.00000000000E+00  0.00000000000E+00  0.17385808752E+04  0.17385808752E+04  0.00000000000E+00 0. -1.
         -2   -1    0    0    0  501 -0.00000000000E+00 -0.00000000000E+00 -0.25272215358E+02  0.25272215358E+02  0.00000000000E+00 0.  1.
          6    1    1    2  502    0  0.43464884896E+02 -0.31254109898E+02  0.40570134759E+03  0.44389593267E+03  0.17200000000E+03 0.  1.
         -6    1    1    2    0  501 -0.43464884896E+02  0.31254109898E+02  0.13076073122E+04  0.13199571579E+04  0.17200000000E+03 0. -1.
</event>
<event>
 4    1  0.3211568E-002  0.1809160E+03  0.7818608E-02  0.1166919E+00
          1   -1    0    0  502    0  0.00000000000E+00  0.00000000000E+00  0.19141098939E+04  0.19141098939E+04  0.00000000000E+00 0. -1.
         -1   -1    0    0    0  501 -0.00000000000E+00 -0.00000000000E+00 -0.18255143383E+02  0.18255143383E+02  0.00000000000E+00 0.  1.
          6    1    1    2  502    0  0.49181697409E+02  0.26977020235E+02  0.11910085300E+04  0.12046708752E+04  0.17200000000E+03 0. -1.
         -6    1    1    2    0  501 -0.49181697409E+02 -0.26977020235E+02  0.70484622057E+03  0.72769416216E+03  0.17200000000E+03 0.  1.
</event>
<event>
 4    1  0.3211568E-002  0.4567651E+03  0.7818608E-02  0.1025724E+00
          2   -1    0    0  502    0  0.00000000000E+00  0.00000000000E+00  0.10351968042E+04  0.10351968042E+04  0.00000000000E+00 0. -1.
         -2   -1    0    0    0  501 -0.00000000000E+00 -0.00000000000E+00 -0.41594854531E+03  0.41594854531E+03  0.00000000000E+00 0.  1.
          6    1    1    2  502    0  0.91475833782E+02  0.41313746196E+03  0.83055650597E+03  0.94787050816E+03  0.17200000000E+03 0. -1.
         -6    1    1    2    0  501 -0.91475833782E+02 -0.41313746196E+03 -0.21130824709E+03  0.50327484134E+03  0.17200000000E+03 0.  1.
</event>
<event>
 4    1  0.3211568E-002  0.1839788E+03  0.7818608E-02  0.1164007E+00
          1   -1    0    0  502    0  0.00000000000E+00  0.00000000000E+00  0.17314618737E+03  0.17314618737E+03  0.00000000000E+00 0. -1.
         -1   -1    0    0    0  501 -0.00000000000E+00 -0.00000000000E+00 -0.55663433079E+03  0.55663433079E+03  0.00000000000E+00 0.  1.
          6    1    1    2  502    0  0.98726642749E+01 -0.64550154061E+02  0.10216853820E+03  0.21044382169E+03  0.17200000000E+03 0. -1.
         -6    1    1    2    0  501 -0.98726642749E+01  0.64550154061E+02 -0.48565668162E+03  0.51933669646E+03  0.17200000000E+03 0.  1.
</event>
<event>
 4    1  0.3211568E-002  0.2542509E+03  0.7818608E-02  0.1110647E+00
          2   -1    0    0  502    0  0.00000000000E+00  0.00000000000E+00  0.87630091977E+03  0.87630091977E+03  0.00000000000E+00 0. -1.
         -2   -1    0    0    0  501 -0.00000000000E+00 -0.00000000000E+00 -0.78200463435E+02  0.78200463435E+02  0.00000000000E+00 0.  1.
          6    1    1    2  502    0 -0.16948661413E+03  0.79585304920E+02  0.51266447392E+03  0.57224854386E+03  0.17200000000E+03 0. -1.
         -6    1    1    2    0  501  0.16948661413E+03 -0.79585304920E+02  0.28543598241E+03  0.38225283934E+03  0.17200000000E+03 0.  1.
</event>
<event>
 4    1  0.3211568E-002  0.5462934E+03  0.7818608E-02  0.1002356E+00
         -1   -1    0    0    0  501 -0.00000000000E+00  0.00000000000E+00  0.34980636252E+03  0.34980636252E+03  0.00000000000E+00 0.  1.
          1   -1    0    0  502    0  0.00000000000E+00 -0.00000000000E+00 -0.12536417404E+04  0.12536417404E+04  0.00000000000E+00 0. -1.
          6    1    1    2  502    0  0.22167252177E+03  0.46873634916E+03 -0.90506170912E+03  0.10571533329E+04  0.17200000000E+03 0. -1.
         -6    1    1    2    0  501 -0.22167252177E+03 -0.46873634916E+03  0.12263311961E+01  0.54629477008E+03  0.17200000000E+03 0.  1.
</event>
<event>
 4    1  0.3211568E-002  0.2079921E+03  0.7818608E-02  0.1143166E+00
         -1   -1    0    0    0  501 -0.00000000000E+00  0.00000000000E+00  0.17599208830E+03  0.17599208830E+03  0.00000000000E+00 0.  1.
          1   -1    0    0  502    0  0.00000000000E+00 -0.00000000000E+00 -0.28943473944E+03  0.28943473944E+03  0.00000000000E+00 0. -1.
          6    1    1    2  502    0 -0.92049976029E+02 -0.72135528147E+02  0.33624729709E+02  0.21069256028E+03  0.17200000000E+03 0.  1.
         -6    1    1    2    0  501  0.92049976029E+02  0.72135528147E+02 -0.14706738085E+03  0.25473426746E+03  0.17200000000E+03 0.  1.
</event>
<event>
 4    1  0.3211568E-002  0.1980236E+03  0.7818608E-02  0.1151417E+00
          1   -1    0    0  502    0  0.00000000000E+00  0.00000000000E+00  0.69940486965E+03  0.69940486965E+03  0.00000000000E+00 0. -1.
         -1   -1    0    0    0  501 -0.00000000000E+00 -0.00000000000E+00 -0.62850774917E+02  0.62850774917E+02  0.00000000000E+00 0.  1.
          6    1    1    2  502    0 -0.49544568853E+02  0.84703424245E+02  0.44349313553E+03  0.48569485857E+03  0.17200000000E+03 0. -1.
         -6    1    1    2    0  501  0.49544568853E+02 -0.84703424245E+02  0.19306095921E+03  0.27656078600E+03  0.17200000000E+03 0.  1.
</event>
<event>
 4    1  0.3211568E-002  0.1745319E+03  0.7818608E-02  0.1173203E+00
          2   -1    0    0  502    0  0.00000000000E+00  0.00000000000E+00  0.43521091252E+04  0.43521091252E+04  0.00000000000E+00 0. -1.
         -2   -1    0    0    0  501 -0.00000000000E+00 -0.00000000000E+00 -0.42465906790E+02  0.42465906790E+02  0.00000000000E+00 0.  1.
          6    1    1    2  502    0  0.18747050050E+02  0.22933168633E+02  0.41628829671E+04  0.41665400490E+04  0.17200000000E+03 0. -1.
         -6    1    1    2    0  501 -0.18747050050E+02 -0.22933168633E+02  0.14676025133E+03  0.22803498302E+03  0.17200000000E+03 0.  1.
</event>
<event>
 4    1  0.3211568E-002  0.3471012E+03  0.7818608E-02  0.1063811E+00
         -1   -1    0    0    0  501 -0.00000000000E+00  0.00000000000E+00  0.61027031017E+02  0.61027031017E+02  0.00000000000E+00 0.  1.
          1   -1    0    0  502    0  0.00000000000E+00 -0.00000000000E+00 -0.22228671066E+04  0.22228671066E+04  0.00000000000E+00 0. -1.
          6    1    1    2  502    0 -0.26276368517E+03  0.14781910673E+03 -0.14628669501E+04  0.15034822767E+04  0.17200000000E+03 0. -1.
         -6    1    1    2    0  501  0.26276368517E+03 -0.14781910673E+03 -0.69897312543E+03  0.78041186090E+03  0.17200000000E+03 0.  1.
</event>
<event>
 4    1  0.3211568E-002  0.3481390E+03  0.7818608E-02  0.1063381E+00
         -1   -1    0    0    0  501 -0.00000000000E+00  0.00000000000E+00  0.23662487393E+03  0.23662487393E+03  0.00000000000E+00 0.  1.
          1   -1    0    0  502    0  0.00000000000E+00 -0.00000000000E+00 -0.51260818968E+03  0.51260818968E+03  0.00000000000E+00 0. -1.
          6    1    1    2  502    0  0.24197318611E+03 -0.18183987898E+03 -0.12750306078E+03  0.37075301063E+03  0.17200000000E+03 0. -1.
         -6    1    1    2    0  501 -0.24197318611E+03  0.18183987898E+03 -0.14848025497E+03  0.37848005298E+03  0.17200000000E+03 0.  1.
</event>
<event>
 4    1  0.3211568E-002  0.2392659E+03  0.7818608E-02  0.1120283E+00
         -2   -1    0    0    0  501 -0.00000000000E+00  0.00000000000E+00  0.50724785534E+03  0.50724785534E+03  0.00000000000E+00 0.  1.
          2   -1    0    0  502    0  0.00000000000E+00 -0.00000000000E+00 -0.12248856541E+03  0.12248856541E+03  0.00000000000E+00 0. -1.
          6    1    1    2  502    0 -0.15016636253E+03 -0.71513994820E+02  0.10410150637E+03  0.26093162231E+03  0.17200000000E+03 0.  1.
         -6    1    1    2    0  501  0.15016636253E+03  0.71513994820E+02  0.28065778356E+03  0.36880479845E+03  0.17200000000E+03 0.  1.
</event>
<event>
 4    1  0.3211568E-002  0.4506413E+03  0.7818608E-02  0.1027531E+00
          2   -1    0    0  502    0  0.00000000000E+00  0.00000000000E+00  0.14233859883E+04  0.14233859883E+04  0.00000000000E+00 0. -1.
         -2   -1    0    0    0  501 -0.00000000000E+00 -0.00000000000E+00 -0.15606934820E+03  0.15606934820E+03  0.00000000000E+00 0.  1.
          6    1    1    2  502    0 -0.79877815185E+02 -0.40879473904E+03  0.40227886230E+03  0.60407440525E+03  0.17200000000E+03 0.  1.
         -6    1    1    2    0  501  0.79877815185E+02  0.40879473904E+03  0.86503777779E+03  0.97538093124E+03  0.17200000000E+03 0. -1.
</event>
<event>
 4    1  0.3211568E-002  0.1913943E+03  0.7818608E-02  0.1157210E+00
         -1   -1    0    0    0  501 -0.00000000000E+00  0.00000000000E+00  0.27323668699E+03  0.27323668699E+03  0.00000000000E+00 0.  1.
          1   -1    0    0  502    0  0.00000000000E+00 -0.00000000000E+00 -0.13433790252E+03  0.13433790252E+03  0.00000000000E+00 0. -1.
          6    1    1    2  502    0 -0.83427962256E+02  0.93575880980E+01  0.60283632319E+02  0.20066366305E+03  0.17200000000E+03 0. -1.
         -6    1    1    2    0  501  0.83427962256E+02 -0.93575880980E+01  0.78615152153E+02  0.20691092646E+03  0.17200000000E+03 0.  1.
</event>
<event>
 4    1  0.3211568E-002  0.3002569E+03  0.7818608E-02  0.1085112E+00
          2   -1    0    0  502    0  0.00000000000E+00  0.00000000000E+00  0.54533528682E+03  0.54533528682E+03  0.00000000000E+00 0. -1.
         -2   -1    0    0    0  501 -0.00000000000E+00 -0.00000000000E+00 -0.16550307390E+03  0.16550307390E+03  0.00000000000E+00 0.  1.
          6    1    1    2  502    0 -0.69330795494E+02  0.23614282889E+03  0.17805767275E+03  0.34908269746E+03  0.17200000000E+03 0. -1.
         -6    1    1    2    0  501  0.69330795494E+02 -0.23614282889E+03  0.20177454017E+03  0.36175566326E+03  0.17200000000E+03 0.  1.
</event>
<event>
 4    1  0.3211568E-002  0.1720211E+03  0.7818608E-02  0.1175756E+00
         -2   -1    0    0    0  501 -0.00000000000E+00  0.00000000000E+00  0.12817018412E+02  0.12817018412E+02  0.00000000000E+00 0.  1.
          2   -1    0    0  502    0  0.00000000000E+00 -0.00000000000E+00 -0.24736558447E+04  0.24736558447E+04  0.00000000000E+00 0. -1.
          6    1    1    2  502    0  0.39129340422E+00  0.26657695960E+01 -0.15514196723E+04  0.15609273715E+04  0.17200000000E+03 0. -1.
         -6    1    1    2    0  501 -0.39129340422E+00 -0.26657695960E+01 -0.90941915397E+03  0.92554549161E+03  0.17200000000E+03 0.  1.
</event>
<event>
 4    1  0.3211568E-002  0.1738911E+03  0.7818608E-02  0.1173850E+00
          1   -1    0    0  502    0  0.00000000000E+00  0.00000000000E+00  0.81726652983E+02  0.81726652983E+02  0.00000000000E+00 0. -1.
         -1   -1    0    0    0  501 -0.00000000000E+00 -0.00000000000E+00 -0.15324563588E+04  0.15324563588E+04  0.00000000000E+00 0.  1.
          6    1    1    2  502    0 -0.67482063913E+01 -0.24669596965E+02 -0.22424093884E+02  0.17533102204E+03  0.17200000000E+03 0. -1.
         -6    1    1    2    0  501  0.67482063913E+01  0.24669596965E+02 -0.14283056119E+04  0.14388519897E+04  0.17200000000E+03 0.  1.
</event>
<event>
 4    1  0.3211568E-002  0.1899441E+03  0.7818608E-02  0.1158512E+00
         -2   -1    0    0    0  501 -0.00000000000E+00  0.00000000000E+00  0.12946000175E+03  0.12946000175E+03  0.00000000000E+00 0.  1.
          2   -1    0    0  502    0  0.00000000000E+00 -0.00000000000E+00 -0.30354950285E+03  0.30354950285E+03  0.00000000000E+00 0. -1.
          6    1    1    2  502    0 -0.49739505613E+01  0.80436511527E+02 -0.25082346393E+02  0.19159304964E+03  0.17200000000E+03 0. -1.
         -6    1    1    2    0  501  0.49739505613E+01 -0.80436511527E+02 -0.14900715470E+03  0.24141645495E+03  0.17200000000E+03 0.  1.
</event>
<event>
 4    1  0.3211568E-002  0.1944012E+03  0.7818608E-02  0.1154551E+00
          2   -1    0    0  502    0  0.00000000000E+00  0.00000000000E+00  0.19011926750E+04  0.19011926750E+04  0.00000000000E+00 0. -1.
         -2   -1    0    0    0  501 -0.00000000000E+00 -0.00000000000E+00 -0.23649673182E+02  0.23649673182E+02  0.00000000000E+00 0.  1.
          6    1    1    2  502    0  0.73694324869E+02  0.52696833404E+02  0.13231177073E+04  0.13373228022E+04  0.17200000000E+03 0. -1.
         -6    1    1    2    0  501 -0.73694324869E+02 -0.52696833404E+02  0.55442529444E+03  0.58751954596E+03  0.17200000000E+03 0.  1.
</event>
<event>
 4    1  0.3211568E-002  0.1789092E+03  0.7818608E-02  0.1168863E+00
          2   -1    0    0  502    0  0.00000000000E+00  0.00000000000E+00  0.30087775353E+04  0.30087775353E+04  0.00000000000E+00 0. -1.
         -2   -1    0    0    0  501 -0.00000000000E+00 -0.00000000000E+00 -0.10742508758E+02  0.10742508758E+02  0.00000000000E+00 0.  1.
          6    1    1    2  502    0 -0.48808288167E+02  0.65004173404E+01  0.16476625261E+04  0.16573473698E+04  0.17200000000E+03 0. -1.
         -6    1    1    2    0  501  0.48808288167E+02 -0.65004173404E+01  0.13503725005E+04  0.13621726742E+04  0.17200000000E+03 0.  1.
</event>
<event>
 4    1  0.3211568E-002  0.3588042E+03  0.7818608E-02  0.1059058E+00
         -2   -1    0    0    0  501 -0.00000000000E+00  0.00000000000E+00  0.20485912173E+03  0.20485912173E+03  0.00000000000E+00 0.  1.
          2   -1    0    0  502    0  0.00000000000E+00 -0.00000000000E+00 -0.96394894800E+03  0.96394894800E+03  0.00000000000E+00 0. -1.
          6    1    1    2  502    0  0.28238182958E+03  0.13934476182E+03 -0.34764922868E+02  0.36048447981E+03  0.17200000000E+03 0. -1.
         -6    1    1    2    0  501 -0.28238182958E+03 -0.13934476182E+03 -0.72432490341E+03  0.80832358992E+03  0.17200000000E+03 0.  1.
</event>
<event>
 4    1  0.3211568E-002  0.1862846E+03  0.7818608E-02  0.1161856E+00
         -1   -1    0    0    0  501 -0.00000000000E+00  0.00000000000E+00  0.21878805990E+03  0.21878805990E+03  0.00000000000E+00 0.  1.
          1   -1    0    0  502    0  0.00000000000E+00 -0.00000000000E+00 -0.17471812748E+03  0.17471812748E+03  0.00000000000E+00 0. -1.
          6    1    1    2  502    0 -0.34340562790E+02  0.62758853821E+02 -0.37706617267E+02  0.19006245545E+03  0.17200000000E+03 0. -1.
         -6    1    1    2    0  501  0.34340562790E+02 -0.62758853821E+02  0.81776549684E+02  0.20344373194E+03  0.17200000000E+03 0.  1.
</event>
<event>
 4    1  0.3211568E-002  0.4657636E+03  0.7818608E-02  0.1023123E+00
         -2   -1    0    0    0  501 -0.00000000000E+00  0.00000000000E+00  0.25399327439E+03  0.25399327439E+03  0.00000000000E+00 0.  1.
          2   -1    0    0  502    0  0.00000000000E+00 -0.00000000000E+00 -0.86117942826E+03  0.86117942826E+03  0.00000000000E+00 0. -1.
          6    1    1    2  502    0  0.43271807269E+03 -0.10335793279E+02 -0.35414665697E+03  0.58511162499E+03  0.17200000000E+03 0. -1.
         -6    1    1    2    0  501 -0.43271807269E+03  0.10335793279E+02 -0.25303949690E+03  0.53006107766E+03  0.17200000000E+03 0.  1.
</event>
<event>
 4    1  0.3211568E-002  0.5324714E+03  0.7818608E-02  0.1005635E+00
         -1   -1    0    0    0  501 -0.00000000000E+00  0.00000000000E+00  0.46160806773E+03  0.46160806773E+03  0.00000000000E+00 0.  1.
          1   -1    0    0  502    0  0.00000000000E+00 -0.00000000000E+00 -0.74934874759E+03  0.74934874759E+03  0.00000000000E+00 0. -1.
          6    1    1    2  502    0  0.30048878794E+03  0.40453458827E+03  0.11325303057E+03  0.54438221290E+03  0.17200000000E+03 0. -1.
         -6    1    1    2    0  501 -0.30048878794E+03 -0.40453458827E+03 -0.40099371043E+03  0.66657460242E+03  0.17200000000E+03 0.  1.
</event>
<event>
 4    1  0.3211568E-002  0.2055529E+03  0.7818608E-02  0.1145137E+00
          2   -1    0    0  502    0  0.00000000000E+00  0.00000000000E+00  0.77617759854E+03  0.77617759854E+03  0.00000000000E+00 0. -1.
         -2   -1    0    0    0  501 -0.00000000000E+00 -0.00000000000E+00 -0.12609081151E+03  0.12609081151E+03  0.00000000000E+00 0.  1.
          6    1    1    2  502    0  0.10820511632E+03  0.30978308985E+02  0.66512780007E+03  0.69616592365E+03  0.17200000000E+03 0. -1.
         -6    1    1    2    0  501 -0.10820511632E+03 -0.30978308985E+02 -0.15041013050E+02  0.20610248640E+03  0.17200000000E+03 0.  1.
</event>
<event>
 4    1  0.3211568E-002  0.2884391E+03  0.7818608E-02  0.1091167E+00
          1   -1    0    0  502    0  0.00000000000E+00  0.00000000000E+00  0.30355539148E+03  0.30355539148E+03  0.00000000000E+00 0. -1.
         -1   -1    0    0    0  501 -0.00000000000E+00 -0.00000000000E+00 -0.28870220103E+03  0.28870220103E+03  0.00000000000E+00 0.  1.
          6    1    1    2  502    0  0.56240969412E+02  0.22461088722E+03  0.74080977451E+02  0.29780041726E+03  0.17200000000E+03 0. -1.
         -6    1    1    2    0  501 -0.56240969412E+02 -0.22461088722E+03 -0.59227787004E+02  0.29445717525E+03  0.17200000000E+03 0.  1.
</event>
<event>
 4    1  0.3211568E-002  0.2762690E+03  0.7818608E-02  0.1097744E+00
          2   -1    0    0  502    0  0.00000000000E+00  0.00000000000E+00  0.69170582913E+03  0.69170582913E+03  0.00000000000E+00 0. -1.
         -2   -1    0    0    0  501 -0.00000000000E+00 -0.00000000000E+00 -0.17191271931E+03  0.17191271931E+03  0.00000000000E+00 0.  1.
          6    1    1    2  502    0 -0.16035253939E+03  0.14500895558E+03  0.51831493180E+03  0.58734564152E+03  0.17200000000E+03 0. -1.
         -6    1    1    2    0  501  0.16035253939E+03 -0.14500895558E+03  0.14781780168E+01  0.27627290692E+03  0.17200000000E+03 0.  1.
</event>
<event>
 4    1  0.3211568E-002  0.2061648E+03  0.7818608E-02  0.1144640E+00
         -1   -1    0    0    0  501 -0.00000000000E+00  0.00000000000E+00  0.21097918703E+02  0.21097918703E+02  0.00000000000E+00 0.  1.
          1   -1    0    0  502    0  0.00000000000E+00 -0.00000000000E+00 -0.22247493950E+04  0.22247493950E+04  0.00000000000E+00 0. -1.
          6    1    1    2  502    0 -0.54754286654E+01  0.11353382302E+03 -0.75670450109E+03  0.78428668946E+03  0.17200000000E+03 0.  1.
         -6    1    1    2    0  501  0.54754286654E+01 -0.11353382302E+03 -0.14469469752E+04  0.14615606243E+04  0.17200000000E+03 0. -1.
</event>
<event>
 4    1  0.3211568E-002  0.2081338E+03  0.7818608E-02  0.1143052E+00
          2   -1    0    0  502    0  0.00000000000E+00  0.00000000000E+00  0.24114942731E+04  0.24114942731E+04  0.00000000000E+00 0. -1.
         -2   -1    0    0    0  501 -0.00000000000E+00 -0.00000000000E+00 -0.18312437357E+02  0.18312437357E+02  0.00000000000E+00 0.  1.
          6    1    1    2  502    0  0.65487680581E+02  0.97195815713E+02  0.13642162232E+04  0.13800020168E+04  0.17200000000E+03 0. -1.
         -6    1    1    2    0  501 -0.65487680581E+02 -0.97195815713E+02  0.10289656126E+04  0.10498046936E+04  0.17200000000E+03 0.  1.
</event>
<event>
 4    1  0.3211568E-002  0.1721912E+03  0.7818608E-02  0.1175582E+00
         -2   -1    0    0    0  501 -0.00000000000E+00  0.00000000000E+00  0.63407817695E+02  0.63407817695E+02  0.00000000000E+00 0.  1.
          2   -1    0    0  502    0  0.00000000000E+00 -0.00000000000E+00 -0.63952966717E+03  0.63952966717E+03  0.00000000000E+00 0. -1.
          6    1    1    2  502    0 -0.44069953156E+01 -0.68116317867E+01 -0.10582864450E+03  0.20211264664E+03  0.17200000000E+03 0.  1.
         -6    1    1    2    0  501  0.44069953156E+01  0.68116317867E+01 -0.47029320498E+03  0.50082483823E+03  0.17200000000E+03 0. -1.
</event>
<event>
 4    1  0.3211568E-002  0.2145498E+03  0.7818608E-02  0.1138013E+00
         -2   -1    0    0    0  501 -0.00000000000E+00  0.00000000000E+00  0.18822845614E+03  0.18822845614E+03  0.00000000000E+00 0.  1.
          2   -1    0    0  502    0  0.00000000000E+00 -0.00000000000E+00 -0.25263270149E+03  0.25263270149E+03  0.00000000000E+00 0. -1.
          6    1    1    2  502    0  0.23358307206E+02  0.12610318944E+03  0.72213173327E+01  0.21467131230E+03  0.17200000000E+03 0. -1.
         -6    1    1    2    0  501 -0.23358307206E+02 -0.12610318944E+03 -0.71625562681E+02  0.22618984533E+03  0.17200000000E+03 0.  1.
</event>
<event>
 4    1  0.3211568E-002  0.2326208E+03  0.7818608E-02  0.1124809E+00
         -2   -1    0    0    0  501 -0.00000000000E+00  0.00000000000E+00  0.10257789410E+03  0.10257789410E+03  0.00000000000E+00 0.  1.
          2   -1    0    0  502    0  0.00000000000E+00 -0.00000000000E+00 -0.10150715105E+04  0.10150715105E+04  0.00000000000E+00 0. -1.
          6    1    1    2  502    0  0.11564970665E+03 -0.10561051821E+03 -0.84353580683E+03  0.87502291034E+03  0.17200000000E+03 0. -1.
         -6    1    1    2    0  501 -0.11564970665E+03  0.10561051821E+03 -0.68957809544E+02  0.24262649423E+03  0.17200000000E+03 0.  1.
</event>
<event>
 4    1  0.3211568E-002  0.1824744E+03  0.7818608E-02  0.1165430E+00
          2   -1    0    0  502    0  0.00000000000E+00  0.00000000000E+00  0.19204697115E+03  0.19204697115E+03  0.00000000000E+00 0. -1.
         -2   -1    0    0    0  501 -0.00000000000E+00 -0.00000000000E+00 -0.17474631312E+03  0.17474631312E+03  0.00000000000E+00 0.  1.
          6    1    1    2  502    0  0.16782211908E+02  0.58576845671E+02  0.24873652215E+02  0.18416185289E+03  0.17200000000E+03 0. -1.
         -6    1    1    2    0  501 -0.16782211908E+02 -0.58576845671E+02 -0.75729941833E+01  0.18263143138E+03  0.17200000000E+03 0.  1.
</event>
<event>
 4    1  0.3211568E-002  0.2003424E+03  0.7818608E-02  0.1149450E+00
          2   -1    0    0  502    0  0.00000000000E+00  0.00000000000E+00  0.33073838045E+03  0.33073838045E+03  0.00000000000E+00 0. -1.
         -2   -1    0    0    0  501 -0.00000000000E+00 -0.00000000000E+00 -0.19693419794E+03  0.19693419794E+03  0.00000000000E+00 0.  1.
          6    1    1    2  502    0  0.85260269226E+02 -0.57304182573E+02  0.23034732562E+03  0.30528179322E+03  0.17200000000E+03 0. -1.
         -6    1    1    2    0  501 -0.85260269226E+02  0.57304182573E+02 -0.96543143115E+02  0.22239078518E+03  0.17200000000E+03 0.  1.
</event>
<event>
 4    1  0.3211568E-002  0.2438238E+03  0.7818608E-02  0.1117271E+00
         -2   -1    0    0    0  501 -0.00000000000E+00  0.00000000000E+00  0.33638785293E+02  0.33638785293E+02  0.00000000000E+00 0.  1.
          2   -1    0    0  502    0  0.00000000000E+00 -0.00000000000E+00 -0.19022886956E+04  0.19022886956E+04  0.00000000000E+00 0. -1.
          6    1    1    2  502    0 -0.93251558838E+02  0.14549980575E+03 -0.11921701164E+04  0.12168482375E+04  0.17200000000E+03 0. -1.
         -6    1    1    2    0  501  0.93251558838E+02 -0.14549980575E+03 -0.67647979392E+03  0.71907924339E+03  0.17200000000E+03 0.  1.
</event>
<event>
 4    1  0.3211568E-002  0.2154078E+03  0.7818608E-02  0.1137354E+00
          1   -1    0    0  502    0  0.00000000000E+00  0.00000000000E+00  0.10922922852E+04  0.10922922852E+04  0.00000000000E+00 0. -1.
         -1   -1    0    0    0  501 -0.00000000000E+00 -0.00000000000E+00 -0.81978580202E+02  0.81978580202E+02  0.00000000000E+00 0.  1.
          6    1    1    2  502    0  0.97439027769E+02  0.85569610029E+02  0.91270517328E+03  0.93777996120E+03  0.17200000000E+03 0. -1.
         -6    1    1    2    0  501 -0.97439027769E+02 -0.85569610029E+02  0.97608531668E+02  0.23649090415E+03  0.17200000000E+03 0.  1.
</event>
<event>
 4    1  0.3211568E-002  0.2050694E+03  0.7818608E-02  0.1145531E+00
         -1   -1    0    0    0  501 -0.00000000000E+00  0.00000000000E+00  0.37171334176E+03  0.37171334176E+03  0.00000000000E+00 0.  1.
          1   -1    0    0  502    0  0.00000000000E+00 -0.00000000000E+00 -0.16436445504E+03  0.16436445504E+03  0.00000000000E+00 0. -1.
          6    1    1    2  502    0  0.13249520050E+02 -0.11087783479E+03 -0.45968993178E+02  0.21015849344E+03  0.17200000000E+03 0. -1.
         -6    1    1    2    0  501 -0.13249520050E+02  0.11087783479E+03  0.25331787990E+03  0.32591930336E+03  0.17200000000E+03 0.  1.
</event>
<event>
 4    1  0.3211568E-002  0.2459237E+03  0.7818608E-02  0.1115908E+00
          2   -1    0    0  502    0  0.00000000000E+00  0.00000000000E+00  0.16712199083E+04  0.16712199083E+04  0.00000000000E+00 0. -1.
         -2   -1    0    0    0  501 -0.00000000000E+00 -0.00000000000E+00 -0.51356112595E+02  0.51356112595E+02  0.00000000000E+00 0.  1.
          6    1    1    2  502    0 -0.10045227766E+03 -0.14423527285E+03  0.12780063635E+04  0.13014525497E+04  0.17200000000E+03 0. -1.
         -6    1    1    2    0  501  0.10045227766E+03  0.14423527285E+03  0.34185743219E+03  0.42112347117E+03  0.17200000000E+03 0.  1.
</event>
<event>
 4    1  0.3211568E-002  0.2593420E+03  0.7818608E-02  0.1107539E+00
          1   -1    0    0  502    0  0.00000000000E+00  0.00000000000E+00  0.71739177686E+02  0.71739177686E+02  0.00000000000E+00 0. -1.
         -1   -1    0    0    0  501 -0.00000000000E+00 -0.00000000000E+00 -0.94661333359E+03  0.94661333359E+03  0.00000000000E+00 0.  1.
          6    1    1    2  502    0  0.46394052115E+02  0.18847245219E+03 -0.38758418033E+03  0.46634726347E+03  0.17200000000E+03 0. -1.
         -6    1    1    2    0  501 -0.46394052115E+02 -0.18847245219E+03 -0.48728997558E+03  0.55200524781E+03  0.17200000000E+03 0.  1.
</event>
<event>
 4    1  0.3211568E-002  0.1877335E+03  0.7818608E-02  0.1160522E+00
          3   -1    0    0  502    0  0.00000000000E+00  0.00000000000E+00  0.19081426815E+03  0.19081426815E+03  0.00000000000E+00 0. -1.
         -3   -1    0    0    0  501 -0.00000000000E+00 -0.00000000000E+00 -0.18705406318E+03  0.18705406318E+03  0.00000000000E+00 0.  1.
          6    1    1    2  502    0  0.27566497244E+02 -0.69999719019E+02  0.23063968401E+02  0.18914496840E+03  0.17200000000E+03 0.  1.
         -6    1    1    2    0  501 -0.27566497244E+02  0.69999719019E+02 -0.19303763427E+02  0.18872336293E+03  0.17200000000E+03 0.  1.
</event>
<event>
 4    1  0.3211568E-002  0.4916780E+03  0.7818608E-02  0.1015974E+00
         -2   -1    0    0    0  501 -0.00000000000E+00  0.00000000000E+00  0.20497973446E+03  0.20497973446E+03  0.00000000000E+00 0.  1.
          2   -1    0    0  502    0  0.00000000000E+00 -0.00000000000E+00 -0.12313534429E+04  0.12313534429E+04  0.00000000000E+00 0. -1.
          6    1    1    2  502    0  0.44963231510E+03 -0.99969964511E+02 -0.66074425249E+03  0.82360802557E+03  0.17200000000E+03 0. -1.
         -6    1    1    2    0  501 -0.44963231510E+03  0.99969964511E+02 -0.36562945595E+03  0.61272515179E+03  0.17200000000E+03 0.  1.
</event>
<event>
 4    1  0.3211568E-002  0.2142010E+03  0.7818608E-02  0.1138282E+00
          2   -1    0    0  502    0  0.00000000000E+00  0.00000000000E+00  0.20276662252E+04  0.20276662252E+04  0.00000000000E+00 0. -1.
         -2   -1    0    0    0  501 -0.00000000000E+00 -0.00000000000E+00 -0.27958343518E+02  0.27958343518E+02  0.00000000000E+00 0.  1.
          6    1    1    2  502    0 -0.12986017745E+02  0.12700177585E+03  0.14486350340E+04  0.14643857243E+04  0.17200000000E+03 0. -1.
         -6    1    1    2    0  501  0.12986017745E+02 -0.12700177585E+03  0.55107284766E+03  0.59123884442E+03  0.17200000000E+03 0.  1.
</event>
<event>
 4    1  0.3211568E-002  0.1807005E+03  0.7818608E-02  0.1167127E+00
         -1   -1    0    0    0  501 -0.00000000000E+00  0.00000000000E+00  0.35307634911E+03  0.35307634911E+03  0.00000000000E+00 0.  1.
          1   -1    0    0  502    0  0.00000000000E+00 -0.00000000000E+00 -0.93189148027E+02  0.93189148027E+02  0.00000000000E+00 0. -1.
          6    1    1    2  502    0 -0.54835290114E+02 -0.78586489573E+01  0.11048531707E+03  0.21180102146E+03  0.17200000000E+03 0. -1.
         -6    1    1    2    0  501  0.54835290114E+02  0.78586489573E+01  0.14940188401E+03  0.23446447567E+03  0.17200000000E+03 0.  1.
</event>
<event>
 4    1  0.3211568E-002  0.1951206E+03  0.7818608E-02  0.1153922E+00
          2   -1    0    0  502    0  0.00000000000E+00  0.00000000000E+00  0.13490092010E+04  0.13490092010E+04  0.00000000000E+00 0. -1.
         -2   -1    0    0    0  501 -0.00000000000E+00 -0.00000000000E+00 -0.10935334665E+03  0.10935334665E+03  0.00000000000E+00 0.  1.
          6    1    1    2  502    0  0.45808692599E+02 -0.79935047965E+02  0.12479053665E+04  0.12630676356E+04  0.17200000000E+03 0. -1.
         -6    1    1    2    0  501 -0.45808692599E+02  0.79935047965E+02 -0.82495122423E+01  0.19529491203E+03  0.17200000000E+03 0.  1.
</event>
<event>
 4    1  0.3211568E-002  0.3754641E+03  0.7818608E-02  0.1052623E+00
         -1   -1    0    0    0  501 -0.00000000000E+00  0.00000000000E+00  0.10424970768E+03  0.10424970768E+03  0.00000000000E+00 0.  1.
          1   -1    0    0  502    0  0.00000000000E+00 -0.00000000000E+00 -0.14157242724E+04  0.14157242724E+04  0.00000000000E+00 0. -1.
          6    1    1    2  502    0  0.62124202503E+02  0.32791747855E+03 -0.81663965520E+03  0.89881789909E+03  0.17200000000E+03 0. -1.
         -6    1    1    2    0  501 -0.62124202503E+02 -0.32791747855E+03 -0.49483490952E+03  0.62115608100E+03  0.17200000000E+03 0.  1.
</event>
<event>
 4    1  0.3211568E-002  0.2638652E+03  0.7818608E-02  0.1104843E+00
         -1   -1    0    0    0  501 -0.00000000000E+00  0.00000000000E+00  0.27300899754E+03  0.27300899754E+03  0.00000000000E+00 0.  1.
          1   -1    0    0  502    0  0.00000000000E+00 -0.00000000000E+00 -0.26157931669E+03  0.26157931669E+03  0.00000000000E+00 0. -1.
          6    1    1    2  502    0  0.13250538002E+03 -0.14994395749E+03 -0.36587156019E+02  0.26638972598E+03  0.17200000000E+03 0. -1.
         -6    1    1    2    0  501 -0.13250538002E+03  0.14994395749E+03  0.48016836866E+02  0.26819858826E+03  0.17200000000E+03 0.  1.
</event>
<event>
 4    1  0.3211568E-002  0.1825167E+03  0.7818608E-02  0.1165389E+00
         -2   -1    0    0    0  501 -0.00000000000E+00  0.00000000000E+00  0.34116407270E+02  0.34116407270E+02  0.00000000000E+00 0.  1.
          2   -1    0    0  502    0  0.00000000000E+00 -0.00000000000E+00 -0.10147455581E+04  0.10147455581E+04  0.00000000000E+00 0. -1.
          6    1    1    2  502    0 -0.15225656655E+02  0.59131315223E+02 -0.38841107206E+03  0.42915672424E+03  0.17200000000E+03 0.  1.
         -6    1    1    2    0  501  0.15225656655E+02 -0.59131315223E+02 -0.59221807872E+03  0.61970524108E+03  0.17200000000E+03 0.  1.
</event>
<event>
 4    1  0.3211568E-002  0.1813422E+03  0.7818608E-02  0.1166510E+00
          2   -1    0    0  502    0  0.00000000000E+00  0.00000000000E+00  0.52141205141E+03  0.52141205141E+03  0.00000000000E+00 0. -1.
         -2   -1    0    0    0  501 -0.00000000000E+00 -0.00000000000E+00 -0.74688927426E+02  0.74688927426E+02  0.00000000000E+00 0.  1.
          6    1    1    2  502    0  0.20560471934E+02 -0.53649275244E+02  0.10580091602E+03  0.20994954530E+03  0.17200000000E+03 0.  1.
         -6    1    1    2    0  501 -0.20560471934E+02  0.53649275244E+02  0.34092220797E+03  0.38615143354E+03  0.17200000000E+03 0. -1.
</event>
<event>
 4    1  0.3211568E-002  0.1960341E+03  0.7818608E-02  0.1153129E+00
         -1   -1    0    0    0  501 -0.00000000000E+00  0.00000000000E+00  0.26317658641E+03  0.26317658641E+03  0.00000000000E+00 0.  1.
          1   -1    0    0  502    0  0.00000000000E+00 -0.00000000000E+00 -0.14668776315E+03  0.14668776315E+03  0.00000000000E+00 0. -1.
          6    1    1    2  502    0 -0.60314208331E+02 -0.72163535101E+02  0.44430684481E+02  0.20100613237E+03  0.17200000000E+03 0.  1.
         -6    1    1    2    0  501  0.60314208331E+02  0.72163535101E+02  0.72058138787E+02  0.20885821720E+03  0.17200000000E+03 0.  1.
</event>
<event>
 4    1  0.3211568E-002  0.4914156E+03  0.7818608E-02  0.1016044E+00
         -3   -1    0    0    0  501 -0.00000000000E+00  0.00000000000E+00  0.24392647330E+03  0.24392647330E+03  0.00000000000E+00 0.  1.
          3   -1    0    0  502    0  0.00000000000E+00 -0.00000000000E+00 -0.10357414945E+04  0.10357414945E+04  0.00000000000E+00 0. -1.
          6    1    1    2  502    0 -0.31602919364E+03  0.33471012649E+03 -0.26145909335E+03  0.55664187545E+03  0.17200000000E+03 0. -1.
         -6    1    1    2    0  501  0.31602919364E+03 -0.33471012649E+03 -0.53035592784E+03  0.72302609234E+03  0.17200000000E+03 0.  1.
</event>
<event>
 4    1  0.3211568E-002  0.3687006E+03  0.7818608E-02  0.1055191E+00
         -2   -1    0    0    0  501 -0.00000000000E+00  0.00000000000E+00  0.68775805011E+02  0.68775805011E+02  0.00000000000E+00 0.  1.
          2   -1    0    0  502    0  0.00000000000E+00 -0.00000000000E+00 -0.22631952976E+04  0.22631952976E+04  0.00000000000E+00 0. -1.
          6    1    1    2  502    0 -0.91784641051E+02  0.31294047218E+03 -0.68226546792E+03  0.77551681360E+03  0.17200000000E+03 0.  1.
         -6    1    1    2    0  501  0.91784641051E+02 -0.31294047218E+03 -0.15121540246E+04  0.15564542890E+04  0.17200000000E+03 0.  1.
</event>
<event>
 4    1  0.3211568E-002  0.1988626E+03  0.7818608E-02  0.1150702E+00
          2   -1    0    0  502    0  0.00000000000E+00  0.00000000000E+00  0.51991940384E+03  0.51991940384E+03  0.00000000000E+00 0. -1.
         -2   -1    0    0    0  501 -0.00000000000E+00 -0.00000000000E+00 -0.76131930520E+02  0.76131930520E+02  0.00000000000E+00 0.  1.
          6    1    1    2  502    0  0.98860954870E+02 -0.13741848296E+02  0.23089913936E+03  0.30473060127E+03  0.17200000000E+03 0. -1.
         -6    1    1    2    0  501 -0.98860954870E+02  0.13741848296E+02  0.21288833396E+03  0.29132073309E+03  0.17200000000E+03 0.  1.
</event>
<event>
 4    1  0.3211568E-002  0.4764366E+03  0.7818608E-02  0.1020119E+00
         -2   -1    0    0    0  501 -0.00000000000E+00  0.00000000000E+00  0.25405977279E+03  0.25405977279E+03  0.00000000000E+00 0.  1.
          2   -1    0    0  502    0  0.00000000000E+00 -0.00000000000E+00 -0.31018252114E+04  0.31018252114E+04  0.00000000000E+00 0. -1.
          6    1    1    2  502    0  0.40047835593E+03  0.19241859761E+03 -0.28396896056E+04  0.28793799482E+04  0.17200000000E+03 0. -1.
         -6    1    1    2    0  501 -0.40047835593E+03 -0.19241859761E+03 -0.80758331028E+01  0.47650503602E+03  0.17200000000E+03 0.  1.
</event>
<event>
 4    1  0.3211568E-002  0.2020501E+03  0.7818608E-02  0.1148021E+00
         -2   -1    0    0    0  501 -0.00000000000E+00  0.00000000000E+00  0.57243130075E+02  0.57243130075E+02  0.00000000000E+00 0.  1.
          2   -1    0    0  502    0  0.00000000000E+00 -0.00000000000E+00 -0.72005878660E+03  0.72005878660E+03  0.00000000000E+00 0. -1.
          6    1    1    2  502    0 -0.93370485637E+02 -0.50221298421E+02 -0.29340042562E+03  0.35624154188E+03  0.17200000000E+03 0.  1.
         -6    1    1    2    0  501  0.93370485637E+02  0.50221298421E+02 -0.36941523090E+03  0.42106037480E+03  0.17200000000E+03 0.  1.
</event>
<event>
 4    1  0.3211568E-002  0.3152773E+03  0.7818608E-02  0.1077844E+00
         -2   -1    0    0    0  501 -0.00000000000E+00  0.00000000000E+00  0.22329725472E+03  0.22329725472E+03  0.00000000000E+00 0.  1.
          2   -1    0    0  502    0  0.00000000000E+00 -0.00000000000E+00 -0.54742757407E+03  0.54742757407E+03  0.00000000000E+00 0. -1.
          6    1    1    2  502    0  0.10782057186E+03  0.24122712715E+03 -0.32863848466E+03  0.45541525687E+03  0.17200000000E+03 0. -1.
         -6    1    1    2    0  501 -0.10782057186E+03 -0.24122712715E+03  0.45081653115E+01  0.31530957192E+03  0.17200000000E+03 0.  1.
</event>
<event>
 4    1  0.3211568E-002  0.3947585E+03  0.7818608E-02  0.1045610E+00
          2   -1    0    0  502    0  0.00000000000E+00  0.00000000000E+00  0.52089273499E+03  0.52089273499E+03  0.00000000000E+00 0. -1.
         -2   -1    0    0    0  501 -0.00000000000E+00 -0.00000000000E+00 -0.32337196009E+03  0.32337196009E+03  0.00000000000E+00 0.  1.
          6    1    1    2  502    0 -0.25006411778E+03 -0.25242459304E+03  0.21425031389E+03  0.44915190657E+03  0.17200000000E+03 0. -1.
         -6    1    1    2    0  501  0.25006411778E+03  0.25242459304E+03 -0.16729538988E+02  0.39511278852E+03  0.17200000000E+03 0.  1.
</event>
<event>
 4    1  0.3211568E-002  0.1352798E+04  0.7818608E-02  0.8988713E-01
         -1   -1    0    0    0  501 -0.00000000000E+00  0.00000000000E+00  0.78446581570E+03  0.78446581570E+03  0.00000000000E+00 0.  1.
          1   -1    0    0  502    0  0.00000000000E+00 -0.00000000000E+00 -0.23680433772E+04  0.23680433772E+04  0.00000000000E+00 0. -1.
          6    1    1    2  502    0  0.65057611124E+03  0.11735540524E+04 -0.98387416403E+03  0.16727434833E+04  0.17200000000E+03 0. -1.
         -6    1    1    2    0  501 -0.65057611124E+03 -0.11735540524E+04 -0.59970339748E+03  0.14797657096E+04  0.17200000000E+03 0.  1.
</event>
<event>
 4    1  0.3211568E-002  0.2854677E+03  0.7818608E-02  0.1092740E+00
          2   -1    0    0  502    0  0.00000000000E+00  0.00000000000E+00  0.20416988473E+04  0.20416988473E+04  0.00000000000E+00 0. -1.
         -2   -1    0    0    0  501 -0.00000000000E+00 -0.00000000000E+00 -0.40647774853E+02  0.40647774853E+02  0.00000000000E+00 0.  1.
          6    1    1    2  502    0 -0.40356799248E+02  0.22423004661E+03  0.11404425410E+04  0.11756279064E+04  0.17200000000E+03 0.  1.
         -6    1    1    2    0  501  0.40356799248E+02 -0.22423004661E+03  0.86060853148E+03  0.90671871576E+03  0.17200000000E+03 0.  1.
</event>
<event>
 4    1  0.3211568E-002  0.1354655E+04  0.7818608E-02  0.8987312E-01
          2   -1    0    0  502    0  0.00000000000E+00  0.00000000000E+00  0.25430415604E+04  0.25430415604E+04  0.00000000000E+00 0. -1.
         -2   -1    0    0    0  501 -0.00000000000E+00 -0.00000000000E+00 -0.72382210632E+03  0.72382210632E+03  0.00000000000E+00 0.  1.
          6    1    1    2  502    0 -0.11285894334E+03  0.13389427685E+04  0.99987240603E+03  0.16836964414E+04  0.17200000000E+03 0. -1.
         -6    1    1    2    0  501  0.11285894334E+03 -0.13389427685E+04  0.81934704805E+03  0.15831672254E+04  0.17200000000E+03 0.  1.
</event>
<event>
 4    1  0.3211568E-002  0.1834719E+03  0.7818608E-02  0.1164485E+00
          2   -1    0    0  502    0  0.00000000000E+00  0.00000000000E+00  0.13411004799E+04  0.13411004799E+04  0.00000000000E+00 0. -1.
         -2   -1    0    0    0  501 -0.00000000000E+00 -0.00000000000E+00 -0.30901535828E+02  0.30901535828E+02  0.00000000000E+00 0.  1.
          6    1    1    2  502    0  0.57310175447E+02  0.28168602878E+02  0.95233294525E+03  0.96984533045E+03  0.17200000000E+03 0. -1.
         -6    1    1    2    0  501 -0.57310175447E+02 -0.28168602878E+02  0.35786599884E+03  0.40215668529E+03  0.17200000000E+03 0.  1.
</event>
<event>
 4    1  0.3211568E-002  0.4351256E+03  0.7818608E-02  0.1032253E+00
         -2   -1    0    0    0  501 -0.00000000000E+00  0.00000000000E+00  0.21209164509E+03  0.21209164509E+03  0.00000000000E+00 0.  1.
          2   -1    0    0  502    0  0.00000000000E+00 -0.00000000000E+00 -0.89652130237E+03  0.89652130237E+03  0.00000000000E+00 0. -1.
          6    1    1    2  502    0  0.38670556978E+03  0.10104012688E+03 -0.37840164109E+03  0.57664729855E+03  0.17200000000E+03 0. -1.
         -6    1    1    2    0  501 -0.38670556978E+03 -0.10104012688E+03 -0.30602801619E+03  0.53196564892E+03  0.17200000000E+03 0.  1.
</event>
<event>
 4    1  0.3211568E-002  0.2314112E+03  0.7818608E-02  0.1125650E+00
         -2   -1    0    0    0  501 -0.00000000000E+00  0.00000000000E+00  0.48045766665E+02  0.48045766665E+02  0.00000000000E+00 0.  1.
          2   -1    0    0  502    0  0.00000000000E+00 -0.00000000000E+00 -0.11147130074E+04  0.11147130074E+04  0.00000000000E+00 0. -1.
          6    1    1    2  502    0 -0.68125165954E+02  0.13901832094E+03 -0.52712428980E+03  0.57568320168E+03  0.17200000000E+03 0. -1.
         -6    1    1    2    0  501  0.68125165954E+02 -0.13901832094E+03 -0.53954295090E+03  0.58707557236E+03  0.17200000000E+03 0. -1.
</event>
<event>
 4    1  0.3211568E-002  0.1966786E+03  0.7818608E-02  0.1152572E+00
         -2   -1    0    0    0  501 -0.00000000000E+00  0.00000000000E+00  0.10244215757E+03  0.10244215757E+03  0.00000000000E+00 0.  1.
          2   -1    0    0  502    0  0.00000000000E+00 -0.00000000000E+00 -0.41100663447E+03  0.41100663447E+03  0.00000000000E+00 0. -1.
          6    1    1    2  502    0 -0.58082631957E+02  0.75662885528E+02 -0.81094270331E+02  0.21274102816E+03  0.17200000000E+03 0. -1.
         -6    1    1    2    0  501  0.58082631957E+02 -0.75662885528E+02 -0.22747020657E+03  0.30070776388E+03  0.17200000000E+03 0.  1.
</event>
<event>
 4    1  0.3211568E-002  0.1900772E+03  0.7818608E-02  0.1158392E+00
          2   -1    0    0  502    0  0.00000000000E+00  0.00000000000E+00  0.51037488307E+03  0.51037488307E+03  0.00000000000E+00 0. -1.
         -2   -1    0    0    0  501 -0.00000000000E+00 -0.00000000000E+00 -0.72395290463E+02  0.72395290463E+02  0.00000000000E+00 0.  1.
          6    1    1    2  502    0  0.75423046780E+02  0.29269776842E+02  0.17559768838E+03  0.25877384718E+03  0.17200000000E+03 0. -1.
         -6    1    1    2    0  501 -0.75423046780E+02 -0.29269776842E+02  0.26238190423E+03  0.32399632635E+03  0.17200000000E+03 0.  1.
</event>
<event>
 4    1  0.3211568E-002  0.2068759E+03  0.7818608E-02  0.1144064E+00
         -2   -1    0    0    0  501 -0.00000000000E+00  0.00000000000E+00  0.59665002948E+02  0.59665002948E+02  0.00000000000E+00 0.  1.
          2   -1    0    0  502    0  0.00000000000E+00 -0.00000000000E+00 -0.96645020120E+03  0.96645020120E+03  0.00000000000E+00 0. -1.
          6    1    1    2  502    0  0.11322353799E+03  0.19851669073E+02 -0.71389259045E+03  0.74326327033E+03  0.17200000000E+03 0. -1.
         -6    1    1    2    0  501 -0.11322353799E+03 -0.19851669073E+02 -0.19289260780E+03  0.28285193382E+03  0.17200000000E+03 0.  1.
</event>
<event>
 4    1  0.3211568E-002  0.2672028E+03  0.7818608E-02  0.1102891E+00
         -2   -1    0    0    0  501 -0.00000000000E+00  0.00000000000E+00  0.42233900440E+02  0.42233900440E+02  0.00000000000E+00 0.  1.
          2   -1    0    0  502    0  0.00000000000E+00 -0.00000000000E+00 -0.18445483905E+04  0.18445483905E+04  0.00000000000E+00 0. -1.
          6    1    1    2  502    0 -0.76482820825E+02 -0.18964097059E+03 -0.11737692312E+04  0.12037987904E+04  0.17200000000E+03 0. -1.
         -6    1    1    2    0  501  0.76482820825E+02  0.18964097059E+03 -0.62854525893E+03  0.68298350063E+03  0.17200000000E+03 0.  1.
</event>
<event>
 4    1  0.3211568E-002  0.6925066E+03  0.7818608E-02  0.9730133E-01
         -2   -1    0    0    0  501 -0.00000000000E+00  0.00000000000E+00  0.54181966204E+03  0.54181966204E+03  0.00000000000E+00 0.  1.
          2   -1    0    0  502    0  0.00000000000E+00 -0.00000000000E+00 -0.10473068736E+04  0.10473068736E+04  0.00000000000E+00 0. -1.
          6    1    1    2  502    0  0.53699751857E+03 -0.40201367860E+03  0.59953802137E+02  0.69509696527E+03  0.17200000000E+03 0. -1.
         -6    1    1    2    0  501 -0.53699751857E+03  0.40201367860E+03 -0.56544101372E+03  0.89402957039E+03  0.17200000000E+03 0.  1.
</event>
<event>
 4    1  0.3211568E-002  0.3162366E+03  0.7818608E-02  0.1077394E+00
         -2   -1    0    0    0  501 -0.00000000000E+00  0.00000000000E+00  0.17485204123E+03  0.17485204123E+03  0.00000000000E+00 0.  1.
          2   -1    0    0  502    0  0.00000000000E+00 -0.00000000000E+00 -0.15176986115E+04  0.15176986115E+04  0.00000000000E+00 0. -1.
          6    1    1    2  502    0  0.15427373354E+03 -0.21591950378E+03 -0.13394719346E+04  0.13762960004E+04  0.17200000000E+03 0. -1.
         -6    1    1    2    0  501 -0.15427373354E+03  0.21591950378E+03 -0.33746356401E+01  0.31625465236E+03  0.17200000000E+03 0.  1.
</event>
<event>
 4    1  0.3211568E-002  0.1839185E+03  0.7818608E-02  0.1164064E+00
         -2   -1    0    0    0  501 -0.00000000000E+00  0.00000000000E+00  0.90547237379E+02  0.90547237379E+02  0.00000000000E+00 0.  1.
          2   -1    0    0  502    0  0.00000000000E+00 -0.00000000000E+00 -0.38150888962E+03  0.38150888962E+03  0.00000000000E+00 0. -1.
          6    1    1    2  502    0  0.65089802949E+02  0.23079896896E+01 -0.11143943798E+03  0.21504594300E+03  0.17200000000E+03 0. -1.
         -6    1    1    2    0  501 -0.65089802949E+02 -0.23079896896E+01 -0.17952221426E+03  0.25701018400E+03  0.17200000000E+03 0. -1.
</event>
<event>
 4    1  0.3211568E-002  0.1776897E+03  0.7818608E-02  0.1170058E+00
          2   -1    0    0  502    0  0.00000000000E+00  0.00000000000E+00  0.22034627101E+04  0.22034627101E+04  0.00000000000E+00 0. -1.
         -2   -1    0    0    0  501 -0.00000000000E+00 -0.00000000000E+00 -0.14940261681E+02  0.14940261681E+02  0.00000000000E+00 0.  1.
          6    1    1    2  502    0 -0.14790994139E+02 -0.42081430617E+02  0.86991840466E+03  0.88788042612E+03  0.17200000000E+03 0. -1.
         -6    1    1    2    0  501  0.14790994139E+02  0.42081430617E+02  0.13186040438E+04  0.13305225457E+04  0.17200000000E+03 0. -1.
</event>
<event>
 4    1  0.3211568E-002  0.5472680E+03  0.7818608E-02  0.1002128E+00
         -2   -1    0    0    0  501 -0.00000000000E+00  0.00000000000E+00  0.18316500501E+03  0.18316500501E+03  0.00000000000E+00 0.  1.
          2   -1    0    0  502    0  0.00000000000E+00 -0.00000000000E+00 -0.17064941649E+04  0.17064941649E+04  0.00000000000E+00 0. -1.
          6    1    1    2  502    0  0.46773653803E+03  0.22614334163E+03 -0.95485248950E+03  0.11005660165E+04  0.17200000000E+03 0. -1.
         -6    1    1    2    0  501 -0.46773653803E+03 -0.22614334163E+03 -0.56847667039E+03  0.78909315341E+03  0.17200000000E+03 0.  1.
</event>
<event>
 4    1  0.3211568E-002  0.1780992E+03  0.7818608E-02  0.1169655E+00
          2   -1    0    0  502    0  0.00000000000E+00  0.00000000000E+00  0.14986089472E+04  0.14986089472E+04  0.00000000000E+00 0. -1.
         -2   -1    0    0    0  501 -0.00000000000E+00 -0.00000000000E+00 -0.30124929816E+02  0.30124929816E+02  0.00000000000E+00 0.  1.
          6    1    1    2  502    0 -0.23497993177E+02 -0.39788892866E+02  0.11510834671E+04  0.11647800050E+04  0.17200000000E+03 0. -1.
         -6    1    1    2    0  501  0.23497993177E+02  0.39788892866E+02  0.31740055029E+03  0.36395387208E+03  0.17200000000E+03 0.  1.
</event>
<event>
 4    1  0.3211568E-002  0.6963759E+03  0.7818608E-02  0.9723450E-01
          2   -1    0    0  502    0  0.00000000000E+00  0.00000000000E+00  0.17391874464E+04  0.17391874464E+04  0.00000000000E+00 0. -1.
         -2   -1    0    0    0  501 -0.00000000000E+00 -0.00000000000E+00 -0.31891207490E+03  0.31891207490E+03  0.00000000000E+00 0.  1.
          6    1    1    2  502    0  0.40831404870E+03 -0.53724761773E+03  0.10749509368E+04  0.12808039981E+04  0.17200000000E+03 0. -1.
         -6    1    1    2    0  501 -0.40831404870E+03  0.53724761773E+03  0.34532443470E+03  0.77729552316E+03  0.17200000000E+03 0.  1.
</event>
<event>
 4    1  0.3211568E-002  0.2620236E+03  0.7818608E-02  0.1105933E+00
          2   -1    0    0  502    0  0.00000000000E+00  0.00000000000E+00  0.17836561911E+03  0.17836561911E+03  0.00000000000E+00 0. -1.
         -2   -1    0    0    0  501 -0.00000000000E+00 -0.00000000000E+00 -0.21558305563E+04  0.21558305563E+04  0.00000000000E+00 0.  1.
          6    1    1    2  502    0 -0.34063498858E+02  0.19471012180E+03  0.69055093022E+02  0.27097040310E+03  0.17200000000E+03 0. -1.
         -6    1    1    2    0  501  0.34063498858E+02 -0.19471012180E+03 -0.20465200302E+04  0.20632257723E+04  0.17200000000E+03 0.  1.
</event>
<event>
 4    1  0.3211568E-002  0.4000426E+03  0.7818608E-02  0.1043765E+00
         -2   -1    0    0    0  501 -0.00000000000E+00  0.00000000000E+00  0.85665728747E+02  0.85665728747E+02  0.00000000000E+00 0.  1.
          2   -1    0    0  502    0  0.00000000000E+00 -0.00000000000E+00 -0.22009706787E+04  0.22009706787E+04  0.00000000000E+00 0. -1.
          6    1    1    2  502    0 -0.11140881691E+02  0.36100692788E+03 -0.15022660648E+04  0.15546181044E+04  0.17200000000E+03 0. -1.
         -6    1    1    2    0  501  0.11140881691E+02 -0.36100692788E+03 -0.61303888516E+03  0.73201830301E+03  0.17200000000E+03 0.  1.
</event>
<event>
 4    1  0.3211568E-002  0.1825007E+03  0.7818608E-02  0.1165405E+00
          1   -1    0    0  502    0  0.00000000000E+00  0.00000000000E+00  0.57893022679E+03  0.57893022679E+03  0.00000000000E+00 0. -1.
         -1   -1    0    0    0  501 -0.00000000000E+00 -0.00000000000E+00 -0.57583961549E+02  0.57583961549E+02  0.00000000000E+00 0.  1.
          6    1    1    2  502    0 -0.20258257203E+02 -0.57550786068E+02  0.25103002102E+03  0.31035876243E+03  0.17200000000E+03 0. -1.
         -6    1    1    2    0  501  0.20258257203E+02  0.57550786068E+02  0.27031624422E+03  0.32615542591E+03  0.17200000000E+03 0.  1.
</event>
<event>
 4    1  0.3211568E-002  0.1778892E+03  0.7818608E-02  0.1169862E+00
          1   -1    0    0  502    0  0.00000000000E+00  0.00000000000E+00  0.36224087200E+03  0.36224087200E+03  0.00000000000E+00 0. -1.
         -1   -1    0    0    0  501 -0.00000000000E+00 -0.00000000000E+00 -0.87934154967E+02  0.87934154967E+02  0.00000000000E+00 0.  1.
          6    1    1    2  502    0 -0.30850568128E+02  0.33298751810E+02  0.15537631750E+03  0.23619137255E+03  0.17200000000E+03 0. -1.
         -6    1    1    2    0  501  0.30850568128E+02 -0.33298751810E+02  0.11893039953E+03  0.21398365442E+03  0.17200000000E+03 0. -1.
</event>
<event>
 4    1  0.3211568E-002  0.2385454E+03  0.7818608E-02  0.1120766E+00
          2   -1    0    0  502    0  0.00000000000E+00  0.00000000000E+00  0.18266776805E+03  0.18266776805E+03  0.00000000000E+00 0. -1.
         -2   -1    0    0    0  501 -0.00000000000E+00 -0.00000000000E+00 -0.33307114343E+03  0.33307114343E+03  0.00000000000E+00 0.  1.
          6    1    1    2  502    0 -0.11236099176E+03  0.12122251296E+03 -0.96008792120E+01  0.23873849082E+03  0.17200000000E+03 0. -1.
         -6    1    1    2    0  501  0.11236099176E+03 -0.12122251296E+03 -0.14080249616E+03  0.27700042066E+03  0.17200000000E+03 0. -1.
</event>
<event>
 4    1  0.3211568E-002  0.1790463E+03  0.7818608E-02  0.1168729E+00
          2   -1    0    0  502    0  0.00000000000E+00  0.00000000000E+00  0.89353353420E+03  0.89353353420E+03  0.00000000000E+00 0. -1.
         -2   -1    0    0    0  501 -0.00000000000E+00 -0.00000000000E+00 -0.50088428930E+02  0.50088428930E+02  0.00000000000E+00 0.  1.
          6    1    1    2  502    0 -0.14672178892E+02  0.47521753436E+02  0.67303459596E+03  0.69644321896E+03  0.17200000000E+03 0. -1.
         -6    1    1    2    0  501  0.14672178892E+02 -0.47521753436E+02  0.17041050931E+03  0.24717874416E+03  0.17200000000E+03 0.  1.
</event>
<event>
 4    1  0.3211568E-002  0.1869413E+03  0.7818608E-02  0.1161249E+00
         -1   -1    0    0    0  501 -0.00000000000E+00  0.00000000000E+00  0.51051595794E+03  0.51051595794E+03  0.00000000000E+00 0.  1.
          1   -1    0    0  502    0  0.00000000000E+00 -0.00000000000E+00 -0.98479718072E+03  0.98479718072E+03  0.00000000000E+00 0. -1.
          6    1    1    2  502    0  0.30464888052E+02  0.66595279520E+02 -0.95834398120E+03  0.97640679379E+03  0.17200000000E+03 0. -1.
         -6    1    1    2    0  501 -0.30464888052E+02 -0.66595279520E+02  0.48406275842E+03  0.51890634487E+03  0.17200000000E+03 0.  1.
</event>
<event>
 4    1  0.3211568E-002  0.2069476E+03  0.7818608E-02  0.1144006E+00
          1   -1    0    0  502    0  0.00000000000E+00  0.00000000000E+00  0.14291595116E+04  0.14291595116E+04  0.00000000000E+00 0. -1.
         -1   -1    0    0    0  501 -0.00000000000E+00 -0.00000000000E+00 -0.60222744965E+02  0.60222744965E+02  0.00000000000E+00 0.  1.
          6    1    1    2  502    0  0.11254814577E+03  0.24004648750E+02  0.12123073072E+04  0.12298440208E+04  0.17200000000E+03 0. -1.
         -6    1    1    2    0  501 -0.11254814577E+03 -0.24004648750E+02  0.15662945938E+03  0.25953823576E+03  0.17200000000E+03 0.  1.
</event>
<event>
 4    1  0.3211568E-002  0.1944934E+03  0.7818608E-02  0.1154470E+00
         -2   -1    0    0    0  501 -0.00000000000E+00  0.00000000000E+00  0.63752817087E+02  0.63752817087E+02  0.00000000000E+00 0.  1.
          2   -1    0    0  502    0  0.00000000000E+00 -0.00000000000E+00 -0.13590337395E+04  0.13590337395E+04  0.00000000000E+00 0. -1.
          6    1    1    2  502    0 -0.89723091385E+02  0.13908417727E+02 -0.11366708609E+03  0.22527290932E+03  0.17200000000E+03 0.  1.
         -6    1    1    2    0  501  0.89723091385E+02 -0.13908417727E+02 -0.11816138364E+04  0.11975136473E+04  0.17200000000E+03 0. -1.
</event>
<event>
 4    1  0.3211568E-002  0.3404524E+03  0.7818608E-02  0.1066603E+00
         -1   -1    0    0    0  501 -0.00000000000E+00  0.00000000000E+00  0.12161710975E+03  0.12161710975E+03  0.00000000000E+00 0.  1.
          1   -1    0    0  502    0  0.00000000000E+00 -0.00000000000E+00 -0.11866131504E+04  0.11866131504E+04  0.00000000000E+00 0. -1.
          6    1    1    2  502    0  0.29256138910E+03 -0.27049393951E+02 -0.82269762203E+03  0.89035903623E+03  0.17200000000E+03 0. -1.
         -6    1    1    2    0  501 -0.29256138910E+03  0.27049393951E+02 -0.24229841858E+03  0.41787122388E+03  0.17200000000E+03 0.  1.
</event>
<event>
 4    1  0.3211568E-002  0.1880343E+03  0.7818608E-02  0.1160246E+00
         -2   -1    0    0    0  501 -0.00000000000E+00  0.00000000000E+00  0.21474245456E+03  0.21474245456E+03  0.00000000000E+00 0.  1.
          2   -1    0    0  502    0  0.00000000000E+00 -0.00000000000E+00 -0.25364413125E+03  0.25364413125E+03  0.00000000000E+00 0. -1.
          6    1    1    2  502    0 -0.24902510739E+02  0.71782837656E+02 -0.15817357983E+03  0.24571485950E+03  0.17200000000E+03 0. -1.
         -6    1    1    2    0  501  0.24902510739E+02 -0.71782837656E+02  0.11927190313E+03  0.22267172631E+03  0.17200000000E+03 0.  1.
</event>
<event>
 4    1  0.3211568E-002  0.2508244E+03  0.7818608E-02  0.1112785E+00
         -1   -1    0    0    0  501 -0.00000000000E+00  0.00000000000E+00  0.35108082035E+03  0.35108082035E+03  0.00000000000E+00 0.  1.
          1   -1    0    0  502    0  0.00000000000E+00 -0.00000000000E+00 -0.76320213538E+03  0.76320213538E+03  0.00000000000E+00 0. -1.
          6    1    1    2  502    0  0.17649562060E+03 -0.46670904926E+02 -0.69342502564E+03  0.73739483565E+03  0.17200000000E+03 0. -1.
         -6    1    1    2    0  501 -0.17649562060E+03  0.46670904926E+02  0.28130371061E+03  0.37688812008E+03  0.17200000000E+03 0.  1.
</event>
<event>
 4    1  0.3211568E-002  0.2057621E+03  0.7818608E-02  0.1144967E+00
          2   -1    0    0  502    0  0.00000000000E+00  0.00000000000E+00  0.97661417535E+03  0.97661417535E+03  0.00000000000E+00 0. -1.
         -2   -1    0    0    0  501 -0.00000000000E+00 -0.00000000000E+00 -0.48546542711E+02  0.48546542711E+02  0.00000000000E+00 0.  1.
          6    1    1    2  502    0  0.60629590966E+02  0.95279068970E+02  0.63170638170E+03  0.66437263713E+03  0.17200000000E+03 0. -1.
         -6    1    1    2    0  501 -0.60629590966E+02 -0.95279068970E+02  0.29636125093E+03  0.36078808093E+03  0.17200000000E+03 0.  1.
</event>
<event>
 4    1  0.3211568E-002  0.2261243E+03  0.7818608E-02  0.1129398E+00
          2   -1    0    0  502    0  0.00000000000E+00  0.00000000000E+00  0.38619174433E+04  0.38619174433E+04  0.00000000000E+00 0. -1.
         -2   -1    0    0    0  501 -0.00000000000E+00 -0.00000000000E+00 -0.13419563163E+02  0.13419563163E+02  0.00000000000E+00 0.  1.
          6    1    1    2  502    0  0.95142895007E+02 -0.11178559725E+03  0.17001743568E+04  0.17151457762E+04  0.17200000000E+03 0. -1.
         -6    1    1    2    0  501 -0.95142895007E+02  0.11178559725E+03  0.21483235233E+04  0.21601912302E+04  0.17200000000E+03 0. -1.
</event>
<event>
 4    1  0.3211568E-002  0.2839441E+03  0.7818608E-02  0.1093554E+00
          2   -1    0    0  502    0  0.00000000000E+00  0.00000000000E+00  0.12161833140E+04  0.12161833140E+04  0.00000000000E+00 0. -1.
         -2   -1    0    0    0  501 -0.00000000000E+00 -0.00000000000E+00 -0.69674715154E+02  0.69674715154E+02  0.00000000000E+00 0.  1.
          6    1    1    2  502    0  0.20915209595E+02  0.22495067584E+03  0.43160844907E+03  0.51663343471E+03  0.17200000000E+03 0. -1.
         -6    1    1    2    0  501 -0.20915209595E+02 -0.22495067584E+03  0.71490014981E+03  0.76922459448E+03  0.17200000000E+03 0.  1.
</event>
<event>
 4    1  0.3211568E-002  0.3785333E+03  0.7818608E-02  0.1051477E+00
          2   -1    0    0  502    0  0.00000000000E+00  0.00000000000E+00  0.17591407255E+04  0.17591407255E+04  0.00000000000E+00 0. -1.
         -2   -1    0    0    0  501 -0.00000000000E+00 -0.00000000000E+00 -0.10671127211E+03  0.10671127211E+03  0.00000000000E+00 0.  1.
          6    1    1    2  502    0 -0.28505409677E+03  0.18013233392E+03  0.12800966205E+04  0.13348913265E+04  0.17200000000E+03 0. -1.
         -6    1    1    2    0  501  0.28505409677E+03 -0.18013233392E+03  0.37233283293E+03  0.53096067113E+03  0.17200000000E+03 0.  1.
</event>
<event>
 4    1  0.3211568E-002  0.4890912E+03  0.7818608E-02  0.1016666E+00
          1   -1    0    0  502    0  0.00000000000E+00  0.00000000000E+00  0.79776088995E+03  0.79776088995E+03  0.00000000000E+00 0. -1.
         -1   -1    0    0    0  501 -0.00000000000E+00 -0.00000000000E+00 -0.64700620035E+03  0.64700620035E+03  0.00000000000E+00 0.  1.
          6    1    1    2  502    0 -0.27073434671E+02 -0.45704840585E+03  0.60452249710E+03  0.77759736731E+03  0.17200000000E+03 0. -1.
         -6    1    1    2    0  501  0.27073434671E+02  0.45704840585E+03 -0.45376780749E+03  0.66716972299E+03  0.17200000000E+03 0.  1.
</event>
<event>
 4    1  0.3211568E-002  0.1845475E+03  0.7818608E-02  0.1163473E+00
          1   -1    0    0  502    0  0.00000000000E+00  0.00000000000E+00  0.16354580681E+03  0.16354580681E+03  0.00000000000E+00 0. -1.
         -1   -1    0    0    0  501 -0.00000000000E+00 -0.00000000000E+00 -0.31876721701E+03  0.31876721701E+03  0.00000000000E+00 0.  1.
          6    1    1    2  502    0 -0.27976069932E+02  0.60754451852E+02  0.64388185538E+02  0.19545741824E+03  0.17200000000E+03 0. -1.
         -6    1    1    2    0  501  0.27976069932E+02 -0.60754451852E+02 -0.21960959574E+03  0.28685560557E+03  0.17200000000E+03 0.  1.
</event>
<event>
 4    1  0.3211568E-002  0.3274360E+03  0.7818608E-02  0.1072277E+00
         -2   -1    0    0    0  501 -0.00000000000E+00  0.00000000000E+00  0.15142044434E+03  0.15142044434E+03  0.00000000000E+00 0.  1.
          2   -1    0    0  502    0  0.00000000000E+00 -0.00000000000E+00 -0.23474691064E+04  0.23474691064E+04  0.00000000000E+00 0. -1.
          6    1    1    2  502    0 -0.27092578843E+03  0.65034847066E+02 -0.21421702226E+04  0.21670504325E+04  0.17200000000E+03 0. -1.
         -6    1    1    2    0  501  0.27092578843E+03 -0.65034847066E+02 -0.53878439415E+02  0.33183911825E+03  0.17200000000E+03 0.  1.
</event>
<event>
 4    1  0.3211568E-002  0.1740591E+03  0.7818608E-02  0.1173680E+00
          1   -1    0    0  502    0  0.00000000000E+00  0.00000000000E+00  0.54747378668E+03  0.54747378668E+03  0.00000000000E+00 0. -1.
         -1   -1    0    0    0  501 -0.00000000000E+00 -0.00000000000E+00 -0.10877360394E+03  0.10877360394E+03  0.00000000000E+00 0.  1.
          6    1    1    2  502    0  0.17650153953E+02  0.20025693852E+02  0.44932891139E+03  0.48186411670E+03  0.17200000000E+03 0. -1.
         -6    1    1    2    0  501 -0.17650153953E+02 -0.20025693852E+02 -0.10628728651E+02  0.17438327392E+03  0.17200000000E+03 0.  1.
</event>
<event>
 4    1  0.3211568E-002  0.2031785E+03  0.7818608E-02  0.1147085E+00
         -1   -1    0    0    0  501 -0.00000000000E+00  0.00000000000E+00  0.10420075874E+02  0.10420075874E+02  0.00000000000E+00 0.  1.
          1   -1    0    0  502    0  0.00000000000E+00 -0.00000000000E+00 -0.39686378349E+04  0.39686378349E+04  0.00000000000E+00 0. -1.
          6    1    1    2  502    0  0.12089853130E+02 -0.10747724053E+03 -0.20621162837E+04  0.20721016117E+04  0.17200000000E+03 0. -1.
         -6    1    1    2    0  501 -0.12089853130E+02  0.10747724053E+03 -0.18961014753E+04  0.19069562990E+04  0.17200000000E+03 0.  1.
</event>
<event>
 4    1  0.3211568E-002  0.2403906E+03  0.7818608E-02  0.1119533E+00
          2   -1    0    0  502    0  0.00000000000E+00  0.00000000000E+00  0.80107862082E+03  0.80107862082E+03  0.00000000000E+00 0. -1.
         -2   -1    0    0    0  501 -0.00000000000E+00 -0.00000000000E+00 -0.72168084293E+02  0.72168084293E+02  0.00000000000E+00 0.  1.
          6    1    1    2  502    0 -0.14515615803E+03  0.84458957750E+02  0.37347724519E+03  0.44415411563E+03  0.17200000000E+03 0.  1.
         -6    1    1    2    0  501  0.14515615803E+03 -0.84458957750E+02  0.35543329134E+03  0.42909258949E+03  0.17200000000E+03 0.  1.
</event>
<event>
 4    1  0.3211568E-002  0.2253539E+03  0.7818608E-02  0.1129953E+00
          3   -1    0    0  502    0  0.00000000000E+00  0.00000000000E+00  0.16528471810E+03  0.16528471810E+03  0.00000000000E+00 0. -1.
         -3   -1    0    0    0  501 -0.00000000000E+00 -0.00000000000E+00 -0.32336736477E+03  0.32336736477E+03  0.00000000000E+00 0.  1.
          6    1    1    2  502    0  0.61126119665E+00  0.14560217261E+03 -0.24501116720E+02  0.22668187186E+03  0.17200000000E+03 0. -1.
         -6    1    1    2    0  501 -0.61126119665E+00 -0.14560217261E+03 -0.13358152995E+03  0.26197021100E+03  0.17200000000E+03 0.  1.
</event>
<event>
 4    1  0.3211568E-002  0.1840663E+03  0.7818608E-02  0.1163925E+00
         -1   -1    0    0    0  501 -0.00000000000E+00  0.00000000000E+00  0.16461958931E+03  0.16461958931E+03  0.00000000000E+00 0.  1.
          1   -1    0    0  502    0  0.00000000000E+00 -0.00000000000E+00 -0.68562050636E+03  0.68562050636E+03  0.00000000000E+00 0. -1.
          6    1    1    2  502    0 -0.32051940678E+02  0.57175959850E+02 -0.61613537975E+03  0.64304216305E+03  0.17200000000E+03 0. -1.
         -6    1    1    2    0  501  0.32051940678E+02 -0.57175959850E+02  0.95134462702E+02  0.20719793261E+03  0.17200000000E+03 0.  1.
</event>
<event>
 4    1  0.3211568E-002  0.3325359E+03  0.7818608E-02  0.1070020E+00
         -2   -1    0    0    0  501 -0.00000000000E+00  0.00000000000E+00  0.78883313414E+03  0.78883313414E+03  0.00000000000E+00 0.  1.
          2   -1    0    0  502    0  0.00000000000E+00 -0.00000000000E+00 -0.12776206086E+04  0.12776206086E+04  0.00000000000E+00 0. -1.
          6    1    1    2  502    0 -0.92371812883E+02  0.26919058864E+03 -0.12192907524E+04  0.12638235889E+04  0.17200000000E+03 0. -1.
         -6    1    1    2    0  501  0.92371812883E+02 -0.26919058864E+03  0.73050327795E+03  0.80263015389E+03  0.17200000000E+03 0.  1.
</event>
<event>
 4    1  0.3211568E-002  0.2128079E+03  0.7818608E-02  0.1139362E+00
         -2   -1    0    0    0  501 -0.00000000000E+00  0.00000000000E+00  0.27102515551E+02  0.27102515551E+02  0.00000000000E+00 0.  1.
          2   -1    0    0  502    0  0.00000000000E+00 -0.00000000000E+00 -0.28796506945E+04  0.28796506945E+04  0.00000000000E+00 0. -1.
          6    1    1    2  502    0 -0.84354449316E+02  0.92668998335E+02 -0.23678728304E+04  0.23774164459E+04  0.17200000000E+03 0. -1.
         -6    1    1    2    0  501  0.84354449316E+02 -0.92668998335E+02 -0.48467534853E+03  0.52933676412E+03  0.17200000000E+03 0.  1.
</event>
<event>
 4    1  0.3211568E-002  0.1942054E+03  0.7818608E-02  0.1154722E+00
         -2   -1    0    0    0  501 -0.00000000000E+00  0.00000000000E+00  0.57524915987E+03  0.57524915987E+03  0.00000000000E+00 0.  1.
          2   -1    0    0  502    0  0.00000000000E+00 -0.00000000000E+00 -0.67183550127E+02  0.67183550127E+02  0.00000000000E+00 0. -1.
          6    1    1    2  502    0 -0.83457695491E+02 -0.34154900881E+02  0.20416294654E+03  0.28177695600E+03  0.17200000000E+03 0.  1.
         -6    1    1    2    0  501  0.83457695491E+02  0.34154900881E+02  0.30390266320E+03  0.36065575400E+03  0.17200000000E+03 0.  1.
</event>
<event>
 4    1  0.3211568E-002  0.2057659E+03  0.7818608E-02  0.1144964E+00
          2   -1    0    0  502    0  0.00000000000E+00  0.00000000000E+00  0.10221269235E+04  0.10221269235E+04  0.00000000000E+00 0. -1.
         -2   -1    0    0    0  501 -0.00000000000E+00 -0.00000000000E+00 -0.53583330313E+02  0.53583330313E+02  0.00000000000E+00 0.  1.
          6    1    1    2  502    0 -0.75888654514E+02  0.83645159959E+02  0.74049738500E+03  0.76855447293E+03  0.17200000000E+03 0. -1.
         -6    1    1    2    0  501  0.75888654514E+02 -0.83645159959E+02  0.22804620823E+03  0.30715578093E+03  0.17200000000E+03 0.  1.
</event>
<event>
 4    1  0.3211568E-002  0.4371653E+03  0.7818608E-02  0.1031620E+00
         -2   -1    0    0    0  501 -0.00000000000E+00  0.00000000000E+00  0.63052837005E+03  0.63052837005E+03  0.00000000000E+00 0.  1.
          2   -1    0    0  502    0  0.00000000000E+00 -0.00000000000E+00 -0.37787798860E+03  0.37787798860E+03  0.00000000000E+00 0. -1.
          6    1    1    2  502    0 -0.39779976360E+03  0.57313606594E+02 -0.97967462678E+02  0.44800795212E+03  0.17200000000E+03 0. -1.
         -6    1    1    2    0  501  0.39779976360E+03 -0.57313606594E+02  0.35061784413E+03  0.56039840653E+03  0.17200000000E+03 0.  1.
</event>
<event>
 4    1  0.3211568E-002  0.1790419E+03  0.7818608E-02  0.1168734E+00
         -2   -1    0    0    0  501 -0.00000000000E+00  0.00000000000E+00  0.32809174534E+02  0.32809174534E+02  0.00000000000E+00 0.  1.
          2   -1    0    0  502    0  0.00000000000E+00 -0.00000000000E+00 -0.21496408264E+04  0.21496408264E+04  0.00000000000E+00 0. -1.
          6    1    1    2  502    0  0.15560901603E+02 -0.47221335041E+02 -0.18643615133E+04  0.18729388266E+04  0.17200000000E+03 0. -1.
         -6    1    1    2    0  501 -0.15560901603E+02  0.47221335041E+02 -0.25247013865E+03  0.30951117436E+03  0.17200000000E+03 0.  1.
</event>
<event>
 4    1  0.3211568E-002  0.1763650E+03  0.7818608E-02  0.1171368E+00
          2   -1    0    0  502    0  0.00000000000E+00  0.00000000000E+00  0.44514594122E+03  0.44514594122E+03  0.00000000000E+00 0. -1.
         -2   -1    0    0    0  501 -0.00000000000E+00 -0.00000000000E+00 -0.73035194866E+02  0.73035194866E+02  0.00000000000E+00 0.  1.
          6    1    1    2  502    0 -0.15796772253E+02  0.35652189999E+02  0.23994878063E+03  0.29779193070E+03  0.17200000000E+03 0. -1.
         -6    1    1    2    0  501  0.15796772253E+02 -0.35652189999E+02  0.13216196572E+03  0.22038920538E+03  0.17200000000E+03 0. -1.
</event>
<event>
 4    1  0.3211568E-002  0.2065695E+03  0.7818608E-02  0.1144312E+00
          1   -1    0    0  502    0  0.00000000000E+00  0.00000000000E+00  0.11192876552E+04  0.11192876552E+04  0.00000000000E+00 0. -1.
         -1   -1    0    0    0  501 -0.00000000000E+00 -0.00000000000E+00 -0.71036312380E+02  0.71036312380E+02  0.00000000000E+00 0.  1.
          6    1    1    2  502    0 -0.53985728677E+02  0.10085875747E+03  0.92924106261E+03  0.95192431437E+03  0.17200000000E+03 0. -1.
         -6    1    1    2    0  501  0.53985728677E+02 -0.10085875747E+03  0.11901028023E+03  0.23839965323E+03  0.17200000000E+03 0.  1.
</event>
<event>
 4    1  0.3211568E-002  0.2882605E+03  0.7818608E-02  0.1091261E+00
         -2   -1    0    0    0  501 -0.00000000000E+00  0.00000000000E+00  0.91861235403E+02  0.91861235403E+02  0.00000000000E+00 0.  1.
          2   -1    0    0  502    0  0.00000000000E+00 -0.00000000000E+00 -0.94443562056E+03  0.94443562056E+03  0.00000000000E+00 0. -1.
          6    1    1    2  502    0 -0.17132681330E+02  0.23068717857E+03 -0.31982005800E+03  0.43055658470E+03  0.17200000000E+03 0.  1.
         -6    1    1    2    0  501  0.17132681330E+02 -0.23068717857E+03 -0.53275432716E+03  0.60574027127E+03  0.17200000000E+03 0. -1.
</event>
<event>
 4    1  0.3211568E-002  0.1760283E+03  0.7818608E-02  0.1171703E+00
          2   -1    0    0  502    0  0.00000000000E+00  0.00000000000E+00  0.57338717911E+03  0.57338717911E+03  0.00000000000E+00 0. -1.
         -2   -1    0    0    0  501 -0.00000000000E+00 -0.00000000000E+00 -0.55529799790E+02  0.55529799790E+02  0.00000000000E+00 0.  1.
          6    1    1    2  502    0 -0.36433875724E+02 -0.86329328883E+01  0.31043208200E+03  0.35686696732E+03  0.17200000000E+03 0.  1.
         -6    1    1    2    0  501  0.36433875724E+02  0.86329328883E+01  0.20742529732E+03  0.27205001157E+03  0.17200000000E+03 0.  1.
</event>
<event>
 4    1  0.3211568E-002  0.2772117E+03  0.7818608E-02  0.1097222E+00
         -2   -1    0    0    0  501 -0.00000000000E+00  0.00000000000E+00  0.29452569464E+02  0.29452569464E+02  0.00000000000E+00 0.  1.
          2   -1    0    0  502    0  0.00000000000E+00 -0.00000000000E+00 -0.26092331289E+04  0.26092331289E+04  0.00000000000E+00 0. -1.
          6    1    1    2  502    0 -0.20651372380E+03  0.67929353748E+02 -0.12826650419E+04  0.13122789052E+04  0.17200000000E+03 0. -1.
         -6    1    1    2    0  501  0.20651372380E+03 -0.67929353748E+02 -0.12971155175E+04  0.13264067932E+04  0.17200000000E+03 0.  1.
</event>
<event>
 4    1  0.3211568E-002  0.3150061E+03  0.7818608E-02  0.1077971E+00
          1   -1    0    0  502    0  0.00000000000E+00  0.00000000000E+00  0.99192907740E+03  0.99192907740E+03  0.00000000000E+00 0. -1.
         -1   -1    0    0    0  501 -0.00000000000E+00 -0.00000000000E+00 -0.10324300272E+03  0.10324300272E+03  0.00000000000E+00 0.  1.
          6    1    1    2  502    0  0.26307956973E+03  0.20832653598E+02  0.54084922932E+03  0.62589675533E+03  0.17200000000E+03 0. -1.
         -6    1    1    2    0  501 -0.26307956973E+03 -0.20832653598E+02  0.34783684536E+03  0.46927532479E+03  0.17200000000E+03 0.  1.
</event>
<event>
 4    1  0.3211568E-002  0.2773367E+03  0.7818608E-02  0.1097153E+00
         -1   -1    0    0    0  501 -0.00000000000E+00  0.00000000000E+00  0.96411987268E+03  0.96411987268E+03  0.00000000000E+00 0.  1.
          1   -1    0    0  502    0  0.00000000000E+00 -0.00000000000E+00 -0.96038940153E+02  0.96038940153E+02  0.00000000000E+00 0. -1.
          6    1    1    2  502    0 -0.76112590111E+02  0.20381005462E+03  0.21592394555E+03  0.35148088852E+03  0.17200000000E+03 0. -1.
         -6    1    1    2    0  501  0.76112590111E+02 -0.20381005462E+03  0.65215698697E+03  0.70867792430E+03  0.17200000000E+03 0.  1.
</event>
<event>
 4    1  0.3211568E-002  0.3243035E+03  0.7818608E-02  0.1073686E+00
          3   -1    0    0  502    0  0.00000000000E+00  0.00000000000E+00  0.25535766160E+03  0.25535766160E+03  0.00000000000E+00 0. -1.
         -3   -1    0    0    0  501 -0.00000000000E+00 -0.00000000000E+00 -0.43527045927E+03  0.43527045927E+03  0.00000000000E+00 0.  1.
          6    1    1    2  502    0  0.24774470283E+03 -0.11921136889E+03 -0.98814440487E+01  0.32445405097E+03  0.17200000000E+03 0. -1.
         -6    1    1    2    0  501 -0.24774470283E+03  0.11921136889E+03 -0.17003135362E+03  0.36617406990E+03  0.17200000000E+03 0.  1.
</event>
<event>
 4    1  0.3211568E-002  0.1897861E+03  0.7818608E-02  0.1158654E+00
          2   -1    0    0  502    0  0.00000000000E+00  0.00000000000E+00  0.10915767933E+04  0.10915767933E+04  0.00000000000E+00 0. -1.
         -2   -1    0    0    0  501 -0.00000000000E+00 -0.00000000000E+00 -0.33599616514E+02  0.33599616514E+02  0.00000000000E+00 0.  1.
          6    1    1    2  502    0 -0.32297564395E+02 -0.73427706567E+02  0.60433169859E+03  0.63343157695E+03  0.17200000000E+03 0. -1.
         -6    1    1    2    0  501  0.32297564395E+02  0.73427706567E+02  0.45364547816E+03  0.49174483282E+03  0.17200000000E+03 0. -1.
</event>
<event>
 4    1  0.3211568E-002  0.6663322E+03  0.7818608E-02  0.9776607E-01
         -2   -1    0    0    0  501 -0.00000000000E+00  0.00000000000E+00  0.28796339008E+03  0.28796339008E+03  0.00000000000E+00 0.  1.
          2   -1    0    0  502    0  0.00000000000E+00 -0.00000000000E+00 -0.18391058757E+04  0.18391058757E+04  0.00000000000E+00 0. -1.
          6    1    1    2  502    0 -0.19692529734E+03  0.61289070363E+03 -0.12031418343E+04  0.13753359084E+04  0.17200000000E+03 0. -1.
         -6    1    1    2    0  501  0.19692529734E+03 -0.61289070363E+03 -0.34800065128E+03  0.75173335740E+03  0.17200000000E+03 0.  1.
</event>
<event>
 4    1  0.3211568E-002  0.2795729E+03  0.7818608E-02  0.1095922E+00
         -2   -1    0    0    0  501 -0.00000000000E+00  0.00000000000E+00  0.27368858439E+02  0.27368858439E+02  0.00000000000E+00 0.  1.
          2   -1    0    0  502    0  0.00000000000E+00 -0.00000000000E+00 -0.30003550643E+04  0.30003550643E+04  0.00000000000E+00 0. -1.
          6    1    1    2  502    0  0.73130012197E+02 -0.20791586728E+03 -0.11542464759E+04  0.11876219658E+04  0.17200000000E+03 0. -1.
         -6    1    1    2    0  501 -0.73130012197E+02  0.20791586728E+03 -0.18187397300E+04  0.18401019569E+04  0.17200000000E+03 0.  1.
</event>
<event>
 4    1  0.3211568E-002  0.2250544E+03  0.7818608E-02  0.1130170E+00
         -2   -1    0    0    0  501 -0.00000000000E+00  0.00000000000E+00  0.56523775324E+03  0.56523775324E+03  0.00000000000E+00 0.  1.
          2   -1    0    0  502    0  0.00000000000E+00 -0.00000000000E+00 -0.97102651135E+02  0.97102651135E+02  0.00000000000E+00 0. -1.
          6    1    1    2  502    0 -0.53972094061E+02  0.13473115534E+03  0.32607638706E+03  0.39620106178E+03  0.17200000000E+03 0. -1.
         -6    1    1    2    0  501  0.53972094061E+02 -0.13473115534E+03  0.14205871505E+03  0.26613934260E+03  0.17200000000E+03 0. -1.
</event>
<event>
 4    1  0.3211568E-002  0.1952692E+03  0.7818608E-02  0.1153793E+00
          2   -1    0    0  502    0  0.00000000000E+00  0.00000000000E+00  0.24068249622E+04  0.24068249622E+04  0.00000000000E+00 0. -1.
         -2   -1    0    0    0  501 -0.00000000000E+00 -0.00000000000E+00 -0.16193970680E+02  0.16193970680E+02  0.00000000000E+00 0.  1.
          6    1    1    2  502    0 -0.71733343156E+02 -0.58313012759E+02  0.10168286941E+04  0.10354084571E+04  0.17200000000E+03 0.  1.
         -6    1    1    2    0  501  0.71733343156E+02  0.58313012759E+02  0.13738022974E+04  0.13876104758E+04  0.17200000000E+03 0. -1.
</event>
<event>
 4    1  0.3211568E-002  0.2590327E+03  0.7818608E-02  0.1107726E+00
         -2   -1    0    0    0  501 -0.00000000000E+00  0.00000000000E+00  0.18386646091E+03  0.18386646091E+03  0.00000000000E+00 0.  1.
          2   -1    0    0  502    0  0.00000000000E+00 -0.00000000000E+00 -0.62879386668E+03  0.62879386668E+03  0.00000000000E+00 0. -1.
          6    1    1    2  502    0  0.15192167350E+03  0.12014062816E+03 -0.48568241842E+03  0.55044107493E+03  0.17200000000E+03 0. -1.
         -6    1    1    2    0  501 -0.15192167350E+03 -0.12014062816E+03  0.40755012647E+02  0.26221925266E+03  0.17200000000E+03 0.  1.
</event>
<event>
 4    1  0.3211568E-002  0.8527787E+03  0.7818608E-02  0.9486615E-01
          1   -1    0    0  502    0  0.00000000000E+00  0.00000000000E+00  0.70189360656E+03  0.70189360656E+03  0.00000000000E+00 0. -1.
         -1   -1    0    0    0  501 -0.00000000000E+00 -0.00000000000E+00 -0.24153766576E+04  0.24153766576E+04  0.00000000000E+00 0.  1.
          6    1    1    2  502    0  0.62425775803E+03  0.55493214112E+03  0.32107553877E+03  0.91121947483E+03  0.17200000000E+03 0. -1.
         -6    1    1    2    0  501 -0.62425775803E+03 -0.55493214112E+03 -0.20345585898E+04  0.22060507893E+04  0.17200000000E+03 0.  1.
</event>
<event>
 4    1  0.3211568E-002  0.1757966E+03  0.7818608E-02  0.1171934E+00
         -2   -1    0    0    0  501 -0.00000000000E+00  0.00000000000E+00  0.18970569543E+02  0.18970569543E+02  0.00000000000E+00 0.  1.
          2   -1    0    0  502    0  0.00000000000E+00 -0.00000000000E+00 -0.21660446455E+04  0.21660446455E+04  0.00000000000E+00 0. -1.
          6    1    1    2  502    0  0.28043850131E+02  0.23108149976E+02 -0.16174963464E+04  0.16270214733E+04  0.17200000000E+03 0. -1.
         -6    1    1    2    0  501 -0.28043850131E+02 -0.23108149976E+02 -0.52957772958E+03  0.55799374171E+03  0.17200000000E+03 0.  1.
</event>
<event>
 4    1  0.3211568E-002  0.3206890E+03  0.7818608E-02  0.1075333E+00
          2   -1    0    0  502    0  0.00000000000E+00  0.00000000000E+00  0.16282974683E+04  0.16282974683E+04  0.00000000000E+00 0. -1.
         -2   -1    0    0    0  501 -0.00000000000E+00 -0.00000000000E+00 -0.80647230434E+02  0.80647230434E+02  0.00000000000E+00 0.  1.
          6    1    1    2  502    0  0.26060064300E+03  0.73107608483E+02  0.11717287600E+04  0.12148208528E+04  0.17200000000E+03 0. -1.
         -6    1    1    2    0  501 -0.26060064300E+03 -0.73107608483E+02  0.37592147795E+03  0.49412384595E+03  0.17200000000E+03 0.  1.
</event>
<event>
 4    1  0.3211568E-002  0.1899135E+03  0.7818608E-02  0.1158539E+00
         -1   -1    0    0    0  501 -0.00000000000E+00  0.00000000000E+00  0.34302661380E+02  0.34302661380E+02  0.00000000000E+00 0.  1.
          1   -1    0    0  502    0  0.00000000000E+00 -0.00000000000E+00 -0.14715684900E+04  0.14715684900E+04  0.00000000000E+00 0. -1.
          6    1    1    2  502    0 -0.41866400102E+02  0.68777565714E+02 -0.31632436071E+03  0.36895562088E+03  0.17200000000E+03 0. -1.
         -6    1    1    2    0  501  0.41866400102E+02 -0.68777565714E+02 -0.11209414679E+04  0.11369155305E+04  0.17200000000E+03 0. -1.
</event>
<event>
 4    1  0.3211568E-002  0.4060099E+03  0.7818608E-02  0.1041718E+00
          1   -1    0    0  502    0  0.00000000000E+00  0.00000000000E+00  0.18588966447E+04  0.18588966447E+04  0.00000000000E+00 0. -1.
         -1   -1    0    0    0  501 -0.00000000000E+00 -0.00000000000E+00 -0.21845341424E+03  0.21845341424E+03  0.00000000000E+00 0.  1.
          6    1    1    2  502    0 -0.30374178028E+03 -0.20736675325E+03  0.16207850717E+04  0.16708645331E+04  0.17200000000E+03 0. -1.
         -6    1    1    2    0  501  0.30374178028E+03  0.20736675325E+03  0.19658158698E+02  0.40648552575E+03  0.17200000000E+03 0.  1.
</event>
<event>
 4    1  0.3211568E-002  0.3631527E+03  0.7818608E-02  0.1057342E+00
          1   -1    0    0  502    0  0.00000000000E+00  0.00000000000E+00  0.21523782379E+04  0.21523782379E+04  0.00000000000E+00 0. -1.
         -1   -1    0    0    0  501 -0.00000000000E+00 -0.00000000000E+00 -0.70361362499E+02  0.70361362499E+02  0.00000000000E+00 0.  1.
          6    1    1    2  502    0  0.63113415661E+02 -0.31354835476E+03  0.14404611242E+04  0.14855329428E+04  0.17200000000E+03 0. -1.
         -6    1    1    2    0  501 -0.63113415661E+02  0.31354835476E+03  0.64155575120E+03  0.73720665754E+03  0.17200000000E+03 0.  1.
</event>
<event>
 4    1  0.3211568E-002  0.3881604E+03  0.7818608E-02  0.1047958E+00
         -2   -1    0    0    0  501 -0.00000000000E+00  0.00000000000E+00  0.34812149262E+03  0.34812149262E+03  0.00000000000E+00 0.  1.
          2   -1    0    0  502    0  0.00000000000E+00 -0.00000000000E+00 -0.11390769794E+04  0.11390769794E+04  0.00000000000E+00 0. -1.
          6    1    1    2  502    0  0.16077192296E+03  0.30860478415E+03 -0.98100694760E+03  0.10550086043E+04  0.17200000000E+03 0. -1.
         -6    1    1    2    0  501 -0.16077192296E+03 -0.30860478415E+03  0.19005146077E+03  0.43218986772E+03  0.17200000000E+03 0.  1.
</event>
<event>
 4    1  0.3211568E-002  0.3059595E+03  0.7818608E-02  0.1082299E+00
          1   -1    0    0  502    0  0.00000000000E+00  0.00000000000E+00  0.28121831825E+04  0.28121831825E+04  0.00000000000E+00 0. -1.
         -1   -1    0    0    0  501 -0.00000000000E+00 -0.00000000000E+00 -0.37785061523E+02  0.37785061523E+02  0.00000000000E+00 0.  1.
          6    1    1    2  502    0 -0.54195242335E+02  0.24716415909E+03  0.18788156485E+04  0.19035649416E+04  0.17200000000E+03 0. -1.
         -6    1    1    2    0  501  0.54195242335E+02 -0.24716415909E+03  0.89558247240E+03  0.94640330235E+03  0.17200000000E+03 0. -1.
</event>
<event>
 4    1  0.3211568E-002  0.1729888E+03  0.7818608E-02  0.1174766E+00
          1   -1    0    0  502    0  0.00000000000E+00  0.00000000000E+00  0.17705141369E+04  0.17705141369E+04  0.00000000000E+00 0. -1.
         -1   -1    0    0    0  501 -0.00000000000E+00 -0.00000000000E+00 -0.21448372466E+02  0.21448372466E+02  0.00000000000E+00 0.  1.
          6    1    1    2  502    0  0.41917289275E+00 -0.18464981563E+02  0.46202056470E+03  0.49334382884E+03  0.17200000000E+03 0.  1.
         -6    1    1    2    0  501 -0.41917289275E+00  0.18464981563E+02  0.12870451998E+04  0.12986186806E+04  0.17200000000E+03 0. -1.
</event>
<event>
 4    1  0.3211568E-002  0.7140993E+03  0.7818608E-02  0.9693420E-01
          2   -1    0    0  502    0  0.00000000000E+00  0.00000000000E+00  0.98259852801E+03  0.98259852801E+03  0.00000000000E+00 0. -1.
         -2   -1    0    0    0  501 -0.00000000000E+00 -0.00000000000E+00 -0.74542579363E+03  0.74542579363E+03  0.00000000000E+00 0.  1.
          6    1    1    2  502    0 -0.25552680032E+02  0.69260444916E+03  0.59480965538E+03  0.92937419191E+03  0.17200000000E+03 0. -1.
         -6    1    1    2    0  501  0.25552680032E+02 -0.69260444916E+03 -0.35763692101E+03  0.79865012973E+03  0.17200000000E+03 0.  1.
</event>
<event>
 4    1  0.3211568E-002  0.2458355E+03  0.7818608E-02  0.1115965E+00
         -2   -1    0    0    0  501 -0.00000000000E+00  0.00000000000E+00  0.13247333744E+03  0.13247333744E+03  0.00000000000E+00 0.  1.
          2   -1    0    0  502    0  0.00000000000E+00 -0.00000000000E+00 -0.48166263275E+03  0.48166263275E+03  0.00000000000E+00 0. -1.
          6    1    1    2  502    0  0.41463294778E+02  0.17068062120E+03 -0.24518850224E+03  0.34720668326E+03  0.17200000000E+03 0. -1.
         -6    1    1    2    0  501 -0.41463294778E+02 -0.17068062120E+03 -0.10400079307E+03  0.26692928694E+03  0.17200000000E+03 0.  1.
</event>
<event>
 4    1  0.3211568E-002  0.2107465E+03  0.7818608E-02  0.1140976E+00
          1   -1    0    0  502    0  0.00000000000E+00  0.00000000000E+00  0.89428117447E+03  0.89428117447E+03  0.00000000000E+00 0. -1.
         -1   -1    0    0    0  501 -0.00000000000E+00 -0.00000000000E+00 -0.50185603406E+02  0.50185603406E+02  0.00000000000E+00 0.  1.
          6    1    1    2  502    0  0.24144769881E+01  0.12175487739E+03  0.37393011252E+03  0.42922931973E+03  0.17200000000E+03 0. -1.
         -6    1    1    2    0  501 -0.24144769881E+01 -0.12175487739E+03  0.47016545855E+03  0.51523745815E+03  0.17200000000E+03 0.  1.
</event>
<event>
 4    1  0.3211568E-002  0.1761549E+03  0.7818608E-02  0.1171577E+00
          2   -1    0    0  502    0  0.00000000000E+00  0.00000000000E+00  0.11632020339E+03  0.11632020339E+03  0.00000000000E+00 0. -1.
         -2   -1    0    0    0  501 -0.00000000000E+00 -0.00000000000E+00 -0.32521111961E+03  0.32521111961E+03  0.00000000000E+00 0.  1.
          6    1    1    2  502    0  0.37181429032E+02  0.80064339317E+01 -0.19803208868E+03  0.26504201515E+03  0.17200000000E+03 0.  1.
         -6    1    1    2    0  501 -0.37181429032E+02 -0.80064339317E+01 -0.10858827549E+02  0.17648930785E+03  0.17200000000E+03 0. -1.
</event>
<event>
 4    1  0.3211568E-002  0.1766010E+03  0.7818608E-02  0.1171134E+00
         -1   -1    0    0    0  501 -0.00000000000E+00  0.00000000000E+00  0.79148833447E+02  0.79148833447E+02  0.00000000000E+00 0.  1.
          1   -1    0    0  502    0  0.00000000000E+00 -0.00000000000E+00 -0.64316949400E+03  0.64316949400E+03  0.00000000000E+00 0. -1.
          6    1    1    2  502    0  0.35891487039E+02  0.17767990816E+02 -0.50678504636E+03  0.53667400119E+03  0.17200000000E+03 0. -1.
         -6    1    1    2    0  501 -0.35891487039E+02 -0.17767990816E+02 -0.57235614195E+02  0.18564432626E+03  0.17200000000E+03 0.  1.
</event>
<event>
 4    1  0.3211568E-002  0.2688126E+03  0.7818608E-02  0.1101961E+00
         -3   -1    0    0    0  501 -0.00000000000E+00  0.00000000000E+00  0.52237673886E+03  0.52237673886E+03  0.00000000000E+00 0.  1.
          3   -1    0    0  502    0  0.00000000000E+00 -0.00000000000E+00 -0.14659880865E+03  0.14659880865E+03  0.00000000000E+00 0. -1.
          6    1    1    2  502    0 -0.18780875058E+03  0.86047132435E+02  0.26732973797E+03  0.37911136174E+03  0.17200000000E+03 0. -1.
         -6    1    1    2    0  501  0.18780875058E+03 -0.86047132435E+02  0.10844819223E+03  0.28986418577E+03  0.17200000000E+03 0.  1.
</event>
<event>
 4    1  0.3211568E-002  0.2525206E+03  0.7818608E-02  0.1111722E+00
          2   -1    0    0  502    0  0.00000000000E+00  0.00000000000E+00  0.15972319348E+03  0.15972319348E+03  0.00000000000E+00 0. -1.
         -2   -1    0    0    0  501 -0.00000000000E+00 -0.00000000000E+00 -0.68738917403E+03  0.68738917403E+03  0.00000000000E+00 0.  1.
          6    1    1    2  502    0  0.18351883956E+03  0.22439054566E+02 -0.53806875371E+03  0.59437753941E+03  0.17200000000E+03 0. -1.
         -6    1    1    2    0  501 -0.18351883956E+03 -0.22439054566E+02  0.10402773161E+02  0.25273482810E+03  0.17200000000E+03 0. -1.
</event>
<event>
 4    1  0.3211568E-002  0.2496203E+03  0.7818608E-02  0.1113545E+00
          1   -1    0    0  502    0  0.00000000000E+00  0.00000000000E+00  0.10787984385E+04  0.10787984385E+04  0.00000000000E+00 0. -1.
         -1   -1    0    0    0  501 -0.00000000000E+00 -0.00000000000E+00 -0.58680913211E+02  0.58680913211E+02  0.00000000000E+00 0.  1.
          6    1    1    2  502    0 -0.12824071030E+03 -0.12759552682E+03  0.58134647007E+03  0.63267212401E+03  0.17200000000E+03 0. -1.
         -6    1    1    2    0  501  0.12824071030E+03  0.12759552682E+03  0.43877105526E+03  0.50480722774E+03  0.17200000000E+03 0.  1.
</event>
<event>
 4    1  0.3211568E-002  0.2709049E+03  0.7818608E-02  0.1100763E+00
         -2   -1    0    0    0  501 -0.00000000000E+00  0.00000000000E+00  0.16520553077E+03  0.16520553077E+03  0.00000000000E+00 0.  1.
          2   -1    0    0  502    0  0.00000000000E+00 -0.00000000000E+00 -0.47692016115E+03  0.47692016115E+03  0.00000000000E+00 0. -1.
          6    1    1    2  502    0 -0.90490604414E+02 -0.18872447826E+03 -0.23991292126E+03  0.36186694788E+03  0.17200000000E+03 0. -1.
         -6    1    1    2    0  501  0.90490604414E+02  0.18872447826E+03 -0.71801709120E+02  0.28025874404E+03  0.17200000000E+03 0.  1.
</event>
<event>
 4    1  0.3211568E-002  0.1887548E+03  0.7818608E-02  0.1159589E+00
         -1   -1    0    0    0  501 -0.00000000000E+00  0.00000000000E+00  0.36830659516E+02  0.36830659516E+02  0.00000000000E+00 0.  1.
          1   -1    0    0  502    0  0.00000000000E+00 -0.00000000000E+00 -0.11168114317E+04  0.11168114317E+04  0.00000000000E+00 0. -1.
          6    1    1    2  502    0 -0.41231958745E+02  0.65911262620E+02 -0.32897863127E+03  0.37928262390E+03  0.17200000000E+03 0. -1.
         -6    1    1    2    0  501  0.41231958745E+02 -0.65911262620E+02 -0.75100214095E+03  0.77435946735E+03  0.17200000000E+03 0.  1.
</event>
<event>
 4    1  0.3211568E-002  0.2187183E+03  0.7818608E-02  0.1134842E+00
         -1   -1    0    0    0  501 -0.00000000000E+00  0.00000000000E+00  0.79492333264E+03  0.79492333264E+03  0.00000000000E+00 0.  1.
          1   -1    0    0  502    0  0.00000000000E+00 -0.00000000000E+00 -0.66971550843E+02  0.66971550843E+02  0.00000000000E+00 0. -1.
          6    1    1    2  502    0 -0.12598180332E+03 -0.48808465711E+02  0.50122071841E+03  0.54686368472E+03  0.17200000000E+03 0. -1.
         -6    1    1    2    0  501  0.12598180332E+03  0.48808465711E+02  0.22673106339E+03  0.31503119877E+03  0.17200000000E+03 0.  1.
</event>
<event>
 4    1  0.3211568E-002  0.2586922E+03  0.7818608E-02  0.1107932E+00
          2   -1    0    0  502    0  0.00000000000E+00  0.00000000000E+00  0.25242359221E+03  0.25242359221E+03  0.00000000000E+00 0. -1.
         -2   -1    0    0    0  501 -0.00000000000E+00 -0.00000000000E+00 -0.35370076597E+03  0.35370076597E+03  0.00000000000E+00 0.  1.
          6    1    1    2  502    0  0.20454884062E+02 -0.19214389766E+03  0.10102867234E+03  0.27772013309E+03  0.17200000000E+03 0. -1.
         -6    1    1    2    0  501 -0.20454884062E+02  0.19214389766E+03 -0.20230584610E+03  0.32840422509E+03  0.17200000000E+03 0.  1.
</event>
<event>
 4    1  0.3211568E-002  0.1792214E+03  0.7818608E-02  0.1168559E+00
         -2   -1    0    0    0  501 -0.00000000000E+00  0.00000000000E+00  0.66390502698E+02  0.66390502698E+02  0.00000000000E+00 0.  1.
          2   -1    0    0  502    0  0.00000000000E+00 -0.00000000000E+00 -0.72255615682E+03  0.72255615682E+03  0.00000000000E+00 0. -1.
          6    1    1    2  502    0  0.61828913242E+01 -0.49980985792E+02 -0.55483470232E+03  0.58306249578E+03  0.17200000000E+03 0. -1.
         -6    1    1    2    0  501 -0.61828913242E+01  0.49980985792E+02 -0.10133095181E+03  0.20588416374E+03  0.17200000000E+03 0.  1.
</event>
<event>
 4    1  0.3211568E-002  0.3952492E+03  0.7818608E-02  0.1045437E+00
         -2   -1    0    0    0  501 -0.00000000000E+00  0.00000000000E+00  0.30096780640E+03  0.30096780640E+03  0.00000000000E+00 0.  1.
          2   -1    0    0  502    0  0.00000000000E+00 -0.00000000000E+00 -0.52755590137E+03  0.52755590137E+03  0.00000000000E+00 0. -1.
          6    1    1    2  502    0  0.25514883736E+02 -0.35494632122E+03 -0.16584900714E+03  0.42863480191E+03  0.17200000000E+03 0.  1.
         -6    1    1    2    0  501 -0.25514883736E+02  0.35494632122E+03 -0.60739087827E+02  0.39988890586E+03  0.17200000000E+03 0.  1.
</event>
<event>
 4    1  0.3211568E-002  0.3938327E+03  0.7818608E-02  0.1045936E+00
          1   -1    0    0  502    0  0.00000000000E+00  0.00000000000E+00  0.13911066374E+04  0.13911066374E+04  0.00000000000E+00 0. -1.
         -1   -1    0    0    0  501 -0.00000000000E+00 -0.00000000000E+00 -0.11238185702E+03  0.11238185702E+03  0.00000000000E+00 0.  1.
          6    1    1    2  502    0  0.27628920149E+03 -0.22177567374E+03  0.70606862049E+03  0.80847824285E+03  0.17200000000E+03 0. -1.
         -6    1    1    2    0  501 -0.27628920149E+03  0.22177567374E+03  0.57265615991E+03  0.69501025158E+03  0.17200000000E+03 0. -1.
</event>
<event>
 4    1  0.3211568E-002  0.2296070E+03  0.7818608E-02  0.1126917E+00
          2   -1    0    0  502    0  0.00000000000E+00  0.00000000000E+00  0.33672170554E+03  0.33672170554E+03  0.00000000000E+00 0. -1.
         -2   -1    0    0    0  501 -0.00000000000E+00 -0.00000000000E+00 -0.16037278629E+03  0.16037278629E+03  0.00000000000E+00 0.  1.
          6    1    1    2  502    0 -0.14420073151E+03 -0.48389176114E+02  0.12646488624E+03  0.26213113281E+03  0.17200000000E+03 0. -1.
         -6    1    1    2    0  501  0.14420073151E+03  0.48389176114E+02  0.49884033006E+02  0.23496335902E+03  0.17200000000E+03 0.  1.
</event>
<event>
 4    1  0.3211568E-002  0.1858130E+03  0.7818608E-02  0.1162293E+00
          2   -1    0    0  502    0  0.00000000000E+00  0.00000000000E+00  0.10885297947E+03  0.10885297947E+03  0.00000000000E+00 0. -1.
         -2   -1    0    0    0  501 -0.00000000000E+00 -0.00000000000E+00 -0.56703456548E+03  0.56703456548E+03  0.00000000000E+00 0.  1.
          6    1    1    2  502    0  0.68082756026E+02  0.17527299464E+02 -0.47648539548E+01  0.18587407492E+03  0.17200000000E+03 0. -1.
         -6    1    1    2    0  501 -0.68082756026E+02 -0.17527299464E+02 -0.45341673206E+03  0.49001347003E+03  0.17200000000E+03 0.  1.
</event>
<event>
 4    1  0.3211568E-002  0.2272980E+03  0.7818608E-02  0.1128556E+00
         -1   -1    0    0    0  501 -0.00000000000E+00  0.00000000000E+00  0.38032310502E+02  0.38032310502E+02  0.00000000000E+00 0.  1.
          1   -1    0    0  502    0  0.00000000000E+00 -0.00000000000E+00 -0.13588668006E+04  0.13588668006E+04  0.00000000000E+00 0. -1.
          6    1    1    2  502    0 -0.59880776912E+02 -0.13599513929E+03 -0.64795292818E+03  0.68666395165E+03  0.17200000000E+03 0. -1.
         -6    1    1    2    0  501  0.59880776912E+02  0.13599513929E+03 -0.67288156191E+03  0.71023515944E+03  0.17200000000E+03 0.  1.
</event>
<event>
 4    1  0.3211568E-002  0.2210429E+03  0.7818608E-02  0.1133108E+00
          2   -1    0    0  502    0  0.00000000000E+00  0.00000000000E+00  0.41857198310E+03  0.41857198310E+03  0.00000000000E+00 0. -1.
         -2   -1    0    0    0  501 -0.00000000000E+00 -0.00000000000E+00 -0.11730862922E+03  0.11730862922E+03  0.00000000000E+00 0.  1.
          6    1    1    2  502    0  0.58712745234E+02  0.12581244152E+03  0.16944775199E+03  0.27851839714E+03  0.17200000000E+03 0. -1.
         -6    1    1    2    0  501 -0.58712745234E+02 -0.12581244152E+03  0.13181560190E+03  0.25736221517E+03  0.17200000000E+03 0.  1.
</event>
<event>
 4    1  0.3211568E-002  0.3029211E+03  0.7818608E-02  0.1083789E+00
         -1   -1    0    0    0  501 -0.00000000000E+00  0.00000000000E+00  0.17927408486E+03  0.17927408486E+03  0.00000000000E+00 0.  1.
          1   -1    0    0  502    0  0.00000000000E+00 -0.00000000000E+00 -0.54918228339E+03  0.54918228339E+03  0.00000000000E+00 0. -1.
          6    1    1    2  502    0 -0.68413691494E+02 -0.23978485113E+03 -0.89988764420E+02  0.31600504068E+03  0.17200000000E+03 0.  1.
         -6    1    1    2    0  501  0.68413691494E+02  0.23978485113E+03 -0.27991943412E+03  0.41245132757E+03  0.17200000000E+03 0.  1.
</event>
<event>
 4    1  0.3211568E-002  0.4060828E+03  0.7818608E-02  0.1041694E+00
          1   -1    0    0  502    0  0.00000000000E+00  0.00000000000E+00  0.74737546494E+03  0.74737546494E+03  0.00000000000E+00 0. -1.
         -1   -1    0    0    0  501 -0.00000000000E+00 -0.00000000000E+00 -0.23118283141E+03  0.23118283141E+03  0.00000000000E+00 0.  1.
          6    1    1    2  502    0 -0.18470374377E+03  0.31812533493E+03  0.36256707126E+03  0.54438780557E+03  0.17200000000E+03 0. -1.
         -6    1    1    2    0  501  0.18470374377E+03 -0.31812533493E+03  0.15362556227E+03  0.43417049078E+03  0.17200000000E+03 0.  1.
</event>
<event>
 4    1  0.3211568E-002  0.2420398E+03  0.7818608E-02  0.1118441E+00
          1   -1    0    0  502    0  0.00000000000E+00  0.00000000000E+00  0.22688638815E+04  0.22688638815E+04  0.00000000000E+00 0. -1.
         -1   -1    0    0    0  501 -0.00000000000E+00 -0.00000000000E+00 -0.27459713383E+02  0.27459713383E+02  0.00000000000E+00 0.  1.
          6    1    1    2  502    0 -0.92990337043E+02 -0.14266069912E+03  0.14012249607E+04  0.14219756215E+04  0.17200000000E+03 0. -1.
         -6    1    1    2    0  501  0.92990337043E+02  0.14266069912E+03  0.84017920743E+03  0.87434797332E+03  0.17200000000E+03 0.  1.
</event>
<event>
 4    1  0.3211568E-002  0.2720966E+03  0.7818608E-02  0.1100086E+00
         -2   -1    0    0    0  501 -0.00000000000E+00  0.00000000000E+00  0.28357273656E+03  0.28357273656E+03  0.00000000000E+00 0.  1.
          2   -1    0    0  502    0  0.00000000000E+00 -0.00000000000E+00 -0.83879188337E+03  0.83879188337E+03  0.00000000000E+00 0. -1.
          6    1    1    2  502    0  0.15118827308E+03  0.14695126480E+03 -0.74333576231E+03  0.79157098461E+03  0.17200000000E+03 0. -1.
         -6    1    1    2    0  501 -0.15118827308E+03 -0.14695126480E+03  0.18811661551E+03  0.33079363532E+03  0.17200000000E+03 0.  1.
</event>
<event>
 4    1  0.3211568E-002  0.1854084E+03  0.7818608E-02  0.1162669E+00
         -1   -1    0    0    0  501 -0.00000000000E+00  0.00000000000E+00  0.21470334815E+03  0.21470334815E+03  0.00000000000E+00 0.  1.
          1   -1    0    0  502    0  0.00000000000E+00 -0.00000000000E+00 -0.17130147432E+03  0.17130147432E+03  0.00000000000E+00 0. -1.
          6    1    1    2  502    0  0.37722220090E+02  0.58045639860E+02 -0.27629614934E+02  0.18745574896E+03  0.17200000000E+03 0. -1.
         -6    1    1    2    0  501 -0.37722220090E+02 -0.58045639860E+02  0.71031488765E+02  0.19854907351E+03  0.17200000000E+03 0.  1.
</event>
<event>
 4    1  0.3211568E-002  0.7238889E+03  0.7818608E-02  0.9677229E-01
          2   -1    0    0  502    0  0.00000000000E+00  0.00000000000E+00  0.24980201734E+04  0.24980201734E+04  0.00000000000E+00 0. -1.
         -2   -1    0    0    0  501 -0.00000000000E+00 -0.00000000000E+00 -0.83127242133E+03  0.83127242133E+03  0.00000000000E+00 0.  1.
          6    1    1    2  502    0  0.64705444778E+03  0.27523027487E+03  0.22727388500E+04  0.23852373138E+04  0.17200000000E+03 0. -1.
         -6    1    1    2    0  501 -0.64705444778E+03 -0.27523027487E+03 -0.60599109799E+03  0.94405528093E+03  0.17200000000E+03 0.  1.
</event>
<event>
 4    1  0.3211568E-002  0.3321512E+03  0.7818608E-02  0.1070189E+00
         -2   -1    0    0    0  501 -0.00000000000E+00  0.00000000000E+00  0.49992564278E+03  0.49992564278E+03  0.00000000000E+00 0.  1.
          2   -1    0    0  502    0  0.00000000000E+00 -0.00000000000E+00 -0.44949168253E+03  0.44949168253E+03  0.00000000000E+00 0. -1.
          6    1    1    2  502    0 -0.12267601344E+03  0.25630252550E+03 -0.31347421728E+03  0.45671706093E+03  0.17200000000E+03 0. -1.
         -6    1    1    2    0  501  0.12267601344E+03 -0.25630252550E+03  0.36390817753E+03  0.49270026438E+03  0.17200000000E+03 0.  1.
</event>
<event>
 4    1  0.3211568E-002  0.2001313E+03  0.7818608E-02  0.1149628E+00
         -1   -1    0    0    0  501 -0.00000000000E+00  0.00000000000E+00  0.58299309841E+03  0.58299309841E+03  0.00000000000E+00 0.  1.
          1   -1    0    0  502    0  0.00000000000E+00 -0.00000000000E+00 -0.68713867069E+02  0.68713867069E+02  0.00000000000E+00 0. -1.
          6    1    1    2  502    0  0.68359267741E+02  0.76128388943E+02  0.25277437644E+03  0.32240875682E+03  0.17200000000E+03 0. -1.
         -6    1    1    2    0  501 -0.68359267741E+02 -0.76128388943E+02  0.26150485491E+03  0.32929820866E+03  0.17200000000E+03 0.  1.
</event>
<event>
 4    1  0.3211568E-002  0.1729456E+03  0.7818608E-02  0.1174810E+00
          2   -1    0    0  502    0  0.00000000000E+00  0.00000000000E+00  0.17294696492E+03  0.17294696492E+03  0.00000000000E+00 0. -1.
         -2   -1    0    0    0  501 -0.00000000000E+00 -0.00000000000E+00 -0.22064556547E+03  0.22064556547E+03  0.00000000000E+00 0.  1.
          6    1    1    2  502    0  0.97082933396E+01  0.15229381486E+02  0.67653498680E+02  0.18570724516E+03  0.17200000000E+03 0. -1.
         -6    1    1    2    0  501 -0.97082933396E+01 -0.15229381486E+02 -0.11535209923E+03  0.20788528524E+03  0.17200000000E+03 0.  1.
</event>
<event>
 4    1  0.3211568E-002  0.1791504E+03  0.7818608E-02  0.1168628E+00
         -2   -1    0    0    0  501 -0.00000000000E+00  0.00000000000E+00  0.23378818813E+02  0.23378818813E+02  0.00000000000E+00 0.  1.
          2   -1    0    0  502    0  0.00000000000E+00 -0.00000000000E+00 -0.14182704102E+04  0.14182704102E+04  0.00000000000E+00 0. -1.
          6    1    1    2  502    0  0.25527984084E+02  0.43118185459E+02 -0.56840410119E+03  0.59596818551E+03  0.17200000000E+03 0.  1.
         -6    1    1    2    0  501 -0.25527984084E+02 -0.43118185459E+02 -0.82648749016E+03  0.84568104347E+03  0.17200000000E+03 0. -1.
</event>
<event>
 4    1  0.3211568E-002  0.2090066E+03  0.7818608E-02  0.1142355E+00
          2   -1    0    0  502    0  0.00000000000E+00  0.00000000000E+00  0.11102736527E+04  0.11102736527E+04  0.00000000000E+00 0. -1.
         -2   -1    0    0    0  501 -0.00000000000E+00 -0.00000000000E+00 -0.39496378738E+02  0.39496378738E+02  0.00000000000E+00 0.  1.
          6    1    1    2  502    0 -0.17494307101E+02 -0.11744653388E+03  0.49980043396E+03  0.54174183232E+03  0.17200000000E+03 0.  1.
         -6    1    1    2    0  501  0.17494307101E+02  0.11744653388E+03  0.57097684001E+03  0.60802819912E+03  0.17200000000E+03 0.  1.
</event>
<event>
 4    1  0.3211568E-002  0.2041856E+03  0.7818608E-02  0.1146255E+00
          2   -1    0    0  502    0  0.00000000000E+00  0.00000000000E+00  0.11858352266E+04  0.11858352266E+04  0.00000000000E+00 0. -1.
         -2   -1    0    0    0  501 -0.00000000000E+00 -0.00000000000E+00 -0.39043932153E+02  0.39043932153E+02  0.00000000000E+00 0.  1.
          6    1    1    2  502    0  0.97905041202E+02 -0.50223154502E+02  0.76660413046E+03  0.79333073506E+03  0.17200000000E+03 0. -1.
         -6    1    1    2    0  501 -0.97905041202E+02  0.50223154502E+02  0.38018716401E+03  0.43154842373E+03  0.17200000000E+03 0.  1.
</event>
<event>
 4    1  0.3211568E-002  0.1738111E+03  0.7818608E-02  0.1173931E+00
          2   -1    0    0  502    0  0.00000000000E+00  0.00000000000E+00  0.15231686063E+04  0.15231686063E+04  0.00000000000E+00 0. -1.
         -2   -1    0    0    0  501 -0.00000000000E+00 -0.00000000000E+00 -0.21280925017E+02  0.21280925017E+02  0.00000000000E+00 0.  1.
          6    1    1    2  502    0 -0.22561815746E+02  0.10828710922E+02  0.54957414618E+03  0.57640440548E+03  0.17200000000E+03 0.  1.
         -6    1    1    2    0  501  0.22561815746E+02 -0.10828710922E+02  0.95231353508E+03  0.96804512581E+03  0.17200000000E+03 0. -1.
</event>
<event>
 4    1  0.3211568E-002  0.1924964E+03  0.7818608E-02  0.1156229E+00
         -1   -1    0    0    0  501 -0.00000000000E+00  0.00000000000E+00  0.97256302578E+02  0.97256302578E+02  0.00000000000E+00 0.  1.
          1   -1    0    0  502    0  0.00000000000E+00 -0.00000000000E+00 -0.38175451247E+03  0.38175451247E+03  0.00000000000E+00 0. -1.
          6    1    1    2  502    0 -0.68894954203E+02 -0.52195274394E+02 -0.13161664328E+03  0.23319048474E+03  0.17200000000E+03 0.  1.
         -6    1    1    2    0  501  0.68894954203E+02  0.52195274394E+02 -0.15288156660E+03  0.24582033030E+03  0.17200000000E+03 0.  1.
</event>
<event>
 4    1  0.3211568E-002  0.4741651E+03  0.7818608E-02  0.1020751E+00
          1   -1    0    0  502    0  0.00000000000E+00  0.00000000000E+00  0.12161812370E+04  0.12161812370E+04  0.00000000000E+00 0. -1.
         -1   -1    0    0    0  501 -0.00000000000E+00 -0.00000000000E+00 -0.19760996777E+03  0.19760996777E+03  0.00000000000E+00 0.  1.
          6    1    1    2  502    0 -0.42307307627E+03  0.12750562560E+03  0.68879034116E+03  0.83622045329E+03  0.17200000000E+03 0. -1.
         -6    1    1    2    0  501  0.42307307627E+03 -0.12750562560E+03  0.32978092803E+03  0.57757075144E+03  0.17200000000E+03 0.  1.
</event>
<event>
 4    1  0.3211568E-002  0.2134190E+03  0.7818608E-02  0.1138887E+00
         -2   -1    0    0    0  501 -0.00000000000E+00  0.00000000000E+00  0.84694031748E+03  0.84694031748E+03  0.00000000000E+00 0.  1.
          2   -1    0    0  502    0  0.00000000000E+00 -0.00000000000E+00 -0.55134234892E+02  0.55134234892E+02  0.00000000000E+00 0. -1.
          6    1    1    2  502    0 -0.90033083050E+02 -0.88643795410E+02  0.32519076389E+03  0.38896877951E+03  0.17200000000E+03 0. -1.
         -6    1    1    2    0  501  0.90033083050E+02  0.88643795410E+02  0.46661531869E+03  0.51310577286E+03  0.17200000000E+03 0. -1.
</event>
<event>
 4    1  0.3211568E-002  0.1913893E+03  0.7818608E-02  0.1157214E+00
          2   -1    0    0  502    0  0.00000000000E+00  0.00000000000E+00  0.75266139629E+03  0.75266139629E+03  0.00000000000E+00 0. -1.
         -2   -1    0    0    0  501 -0.00000000000E+00 -0.00000000000E+00 -0.50522679958E+02  0.50522679958E+02  0.00000000000E+00 0.  1.
          6    1    1    2  502    0 -0.56731276746E+02 -0.61866150825E+02  0.42803201292E+03  0.46887233066E+03  0.17200000000E+03 0. -1.
         -6    1    1    2    0  501  0.56731276746E+02  0.61866150825E+02  0.27410670341E+03  0.33431174558E+03  0.17200000000E+03 0.  1.
</event>
<event>
 4    1  0.3211568E-002  0.2078392E+03  0.7818608E-02  0.1143289E+00
          2   -1    0    0  502    0  0.00000000000E+00  0.00000000000E+00  0.67667898562E+03  0.67667898562E+03  0.00000000000E+00 0. -1.
         -2   -1    0    0    0  501 -0.00000000000E+00 -0.00000000000E+00 -0.12397976042E+03  0.12397976042E+03  0.00000000000E+00 0.  1.
          6    1    1    2  502    0 -0.11561423367E+03  0.15699221628E+02  0.55517605091E+03  0.59280482799E+03  0.17200000000E+03 0. -1.
         -6    1    1    2    0  501  0.11561423367E+03 -0.15699221628E+02 -0.24768257063E+01  0.20785391806E+03  0.17200000000E+03 0.  1.
</event>
<event>
 4    1  0.3211568E-002  0.1789194E+03  0.7818608E-02  0.1168853E+00
         -1   -1    0    0    0  501 -0.00000000000E+00  0.00000000000E+00  0.52364045839E+02  0.52364045839E+02  0.00000000000E+00 0.  1.
          1   -1    0    0  502    0  0.00000000000E+00 -0.00000000000E+00 -0.16349819275E+04  0.16349819275E+04  0.00000000000E+00 0. -1.
          6    1    1    2  502    0  0.46590756092E+02  0.16045537538E+02 -0.14588715667E+04  0.14698021656E+04  0.17200000000E+03 0. -1.
         -6    1    1    2    0  501 -0.46590756092E+02 -0.16045537538E+02 -0.12374631497E+03  0.21754380777E+03  0.17200000000E+03 0.  1.
</event>
<event>
 4    1  0.3211568E-002  0.2058164E+03  0.7818608E-02  0.1144922E+00
         -1   -1    0    0    0  501 -0.00000000000E+00  0.00000000000E+00  0.24542623847E+02  0.24542623847E+02  0.00000000000E+00 0.  1.
          1   -1    0    0  502    0  0.00000000000E+00 -0.00000000000E+00 -0.18136815504E+04  0.18136815504E+04  0.00000000000E+00 0. -1.
          6    1    1    2  502    0 -0.10385718139E+03 -0.44610448364E+02 -0.10966658134E+04  0.11158119521E+04  0.17200000000E+03 0. -1.
         -6    1    1    2    0  501  0.10385718139E+03  0.44610448364E+02 -0.69247311317E+03  0.72241222214E+03  0.17200000000E+03 0. -1.
</event>
<event>
 4    1  0.3211568E-002  0.2953066E+03  0.7818608E-02  0.1087611E+00
         -1   -1    0    0    0  501 -0.00000000000E+00  0.00000000000E+00  0.58445463498E+02  0.58445463498E+02  0.00000000000E+00 0.  1.
          1   -1    0    0  502    0  0.00000000000E+00 -0.00000000000E+00 -0.21269643380E+04  0.21269643380E+04  0.00000000000E+00 0. -1.
          6    1    1    2  502    0  0.21263382426E+03 -0.11139496743E+03 -0.16312481836E+04  0.16577625338E+04  0.17200000000E+03 0. -1.
         -6    1    1    2    0  501 -0.21263382426E+03  0.11139496743E+03 -0.43727069094E+03  0.52764726773E+03  0.17200000000E+03 0.  1.
</event>
<event>
 4    1  0.3211568E-002  0.2727318E+03  0.7818608E-02  0.1099726E+00
          2   -1    0    0  502    0  0.00000000000E+00  0.00000000000E+00  0.55243980329E+03  0.55243980329E+03  0.00000000000E+00 0. -1.
         -2   -1    0    0    0  501 -0.00000000000E+00 -0.00000000000E+00 -0.17252337544E+03  0.17252337544E+03  0.00000000000E+00 0.  1.
          6    1    1    2  502    0 -0.17848627747E+03 -0.11375987083E+03  0.35980755105E+03  0.45149101126E+03  0.17200000000E+03 0. -1.
         -6    1    1    2    0  501  0.17848627747E+03  0.11375987083E+03  0.20108876808E+02  0.27347216748E+03  0.17200000000E+03 0.  1.
</event>
<event>
 4    1  0.3211568E-002  0.1868252E+03  0.7818608E-02  0.1161356E+00
          1   -1    0    0  502    0  0.00000000000E+00  0.00000000000E+00  0.17301148706E+03  0.17301148706E+03  0.00000000000E+00 0. -1.
         -1   -1    0    0    0  501 -0.00000000000E+00 -0.00000000000E+00 -0.20243347879E+03  0.20243347879E+03  0.00000000000E+00 0.  1.
          6    1    1    2  502    0  0.47171193738E+02 -0.55628510936E+02 -0.37381261405E+01  0.18686258677E+03  0.17200000000E+03 0. -1.
         -6    1    1    2    0  501 -0.47171193738E+02  0.55628510936E+02 -0.25683865582E+02  0.18858237908E+03  0.17200000000E+03 0. -1.
</event>
<event>
 4    1  0.3211568E-002  0.1982769E+03  0.7818608E-02  0.1151201E+00
         -2   -1    0    0    0  501 -0.00000000000E+00  0.00000000000E+00  0.34146186854E+02  0.34146186854E+02  0.00000000000E+00 0.  1.
          2   -1    0    0  502    0  0.00000000000E+00 -0.00000000000E+00 -0.12052683441E+04  0.12052683441E+04  0.00000000000E+00 0. -1.
          6    1    1    2  502    0 -0.57438802897E+02  0.80190455136E+02 -0.71665133836E+03  0.74357438495E+03  0.17200000000E+03 0. -1.
         -6    1    1    2    0  501  0.57438802897E+02 -0.80190455136E+02 -0.45447081886E+03  0.49584014598E+03  0.17200000000E+03 0.  1.
</event>
<event>
 4    1  0.3211568E-002  0.3433788E+03  0.7818608E-02  0.1065366E+00
         -1   -1    0    0    0  501 -0.00000000000E+00  0.00000000000E+00  0.43863994549E+03  0.43863994549E+03  0.00000000000E+00 0.  1.
          1   -1    0    0  502    0  0.00000000000E+00 -0.00000000000E+00 -0.30134125875E+03  0.30134125875E+03  0.00000000000E+00 0. -1.
          6    1    1    2  502    0  0.79844032938E+01 -0.29708797204E+03 -0.52924197136E+02  0.34743342451E+03  0.17200000000E+03 0. -1.
         -6    1    1    2    0  501 -0.79844032938E+01  0.29708797204E+03  0.19022288387E+03  0.39254777973E+03  0.17200000000E+03 0.  1.
</event>
<event>
 4    1  0.3211568E-002  0.2699318E+03  0.7818608E-02  0.1101319E+00
         -2   -1    0    0    0  501 -0.00000000000E+00  0.00000000000E+00  0.11379275974E+03  0.11379275974E+03  0.00000000000E+00 0.  1.
          2   -1    0    0  502    0  0.00000000000E+00 -0.00000000000E+00 -0.85061452301E+03  0.85061452301E+03  0.00000000000E+00 0. -1.
          6    1    1    2  502    0  0.19800149751E+03 -0.63832379190E+02 -0.60817469860E+03  0.66538682709E+03  0.17200000000E+03 0. -1.
         -6    1    1    2    0  501 -0.19800149751E+03  0.63832379190E+02 -0.12864706468E+03  0.29902045566E+03  0.17200000000E+03 0.  1.
</event>
<event>
 4    1  0.3211568E-002  0.1852961E+03  0.7818608E-02  0.1162774E+00
         -1   -1    0    0    0  501 -0.00000000000E+00  0.00000000000E+00  0.18058077712E+03  0.18058077712E+03  0.00000000000E+00 0.  1.
          1   -1    0    0  502    0  0.00000000000E+00 -0.00000000000E+00 -0.24941894706E+03  0.24941894706E+03  0.00000000000E+00 0. -1.
          6    1    1    2  502    0  0.22373941875E+02  0.65192463090E+02  0.70400768483E+02  0.19821937020E+03  0.17200000000E+03 0. -1.
         -6    1    1    2    0  501 -0.22373941875E+02 -0.65192463090E+02 -0.13923893843E+03  0.23178035398E+03  0.17200000000E+03 0. -1.
</event>
<event>
 4    1  0.3211568E-002  0.1865368E+03  0.7818608E-02  0.1161623E+00
         -1   -1    0    0    0  501 -0.00000000000E+00  0.00000000000E+00  0.86114646896E+02  0.86114646896E+02  0.00000000000E+00 0.  1.
          1   -1    0    0  502    0  0.00000000000E+00 -0.00000000000E+00 -0.42093870593E+03  0.42093870593E+03  0.00000000000E+00 0. -1.
          6    1    1    2  502    0 -0.18791081071E+02 -0.69705590693E+02 -0.21817074320E+03  0.28704432984E+03  0.17200000000E+03 0. -1.
         -6    1    1    2    0  501  0.18791081071E+02  0.69705590693E+02 -0.11665331583E+03  0.22000902299E+03  0.17200000000E+03 0.  1.
</event>
<event>
 4    1  0.3211568E-002  0.2354886E+03  0.7818608E-02  0.1122835E+00
         -1   -1    0    0    0  501 -0.00000000000E+00  0.00000000000E+00  0.13718077389E+03  0.13718077389E+03  0.00000000000E+00 0.  1.
          1   -1    0    0  502    0  0.00000000000E+00 -0.00000000000E+00 -0.54391560964E+03  0.54391560964E+03  0.00000000000E+00 0. -1.
          6    1    1    2  502    0  0.97825735089E+02 -0.12767538799E+03 -0.37593636260E+03  0.44360233078E+03  0.17200000000E+03 0. -1.
         -6    1    1    2    0  501 -0.97825735089E+02  0.12767538799E+03 -0.30798473153E+02  0.23749405275E+03  0.17200000000E+03 0.  1.
</event>
<event>
 4    1  0.3211568E-002  0.2245328E+03  0.7818608E-02  0.1130548E+00
         -1   -1    0    0    0  501 -0.00000000000E+00  0.00000000000E+00  0.16201632795E+02  0.16201632795E+02  0.00000000000E+00 0.  1.
          1   -1    0    0  502    0  0.00000000000E+00 -0.00000000000E+00 -0.34523360371E+04  0.34523360371E+04  0.00000000000E+00 0. -1.
          6    1    1    2  502    0  0.14361850626E+03  0.14308007478E+02 -0.22628087274E+04  0.22739213556E+04  0.17200000000E+03 0. -1.
         -6    1    1    2    0  501 -0.14361850626E+03 -0.14308007478E+02 -0.11733256769E+04  0.11946163143E+04  0.17200000000E+03 0.  1.
</event>
<event>
 4    1  0.3211568E-002  0.2753180E+03  0.7818608E-02  0.1098274E+00
          2   -1    0    0  502    0  0.00000000000E+00  0.00000000000E+00  0.15134575875E+04  0.15134575875E+04  0.00000000000E+00 0. -1.
         -2   -1    0    0    0  501 -0.00000000000E+00 -0.00000000000E+00 -0.50089181850E+02  0.50089181850E+02  0.00000000000E+00 0.  1.
          6    1    1    2  502    0 -0.21396099012E+03 -0.20897443245E+02  0.73963644442E+03  0.78921611637E+03  0.17200000000E+03 0. -1.
         -6    1    1    2    0  501  0.21396099012E+03  0.20897443245E+02  0.72373196119E+03  0.77433065293E+03  0.17200000000E+03 0.  1.
</event>
<event>
 4    1  0.3211568E-002  0.1969768E+03  0.7818608E-02  0.1152315E+00
          2   -1    0    0  502    0  0.00000000000E+00  0.00000000000E+00  0.84242307697E+03  0.84242307697E+03  0.00000000000E+00 0. -1.
         -2   -1    0    0    0  501 -0.00000000000E+00 -0.00000000000E+00 -0.46144741256E+02  0.46144741256E+02  0.00000000000E+00 0.  1.
          6    1    1    2  502    0  0.87561519176E+02 -0.39355524691E+02  0.41746023217E+03  0.46159822617E+03  0.17200000000E+03 0. -1.
         -6    1    1    2    0  501 -0.87561519176E+02  0.39355524691E+02  0.37881810354E+03  0.42696959205E+03  0.17200000000E+03 0. -1.
</event>
<event>
 4    1  0.3211568E-002  0.3906493E+03  0.7818608E-02  0.1047066E+00
          2   -1    0    0  502    0  0.00000000000E+00  0.00000000000E+00  0.34550146528E+04  0.34550146528E+04  0.00000000000E+00 0. -1.
         -2   -1    0    0    0  501 -0.00000000000E+00 -0.00000000000E+00 -0.44456808188E+02  0.44456808188E+02  0.00000000000E+00 0.  1.
          6    1    1    2  502    0  0.76535445201E+02 -0.34229399635E+03  0.18458996694E+04  0.18867836240E+04  0.17200000000E+03 0. -1.
         -6    1    1    2    0  501 -0.76535445201E+02  0.34229399635E+03  0.15646581752E+04  0.16126878369E+04  0.17200000000E+03 0.  1.
</event>
<event>
 4    1  0.3211568E-002  0.2143999E+03  0.7818608E-02  0.1138128E+00
         -1   -1    0    0    0  501 -0.00000000000E+00  0.00000000000E+00  0.47481322384E+03  0.47481322384E+03  0.00000000000E+00 0.  1.
          1   -1    0    0  502    0  0.00000000000E+00 -0.00000000000E+00 -0.21669884538E+03  0.21669884538E+03  0.00000000000E+00 0. -1.
          6    1    1    2  502    0  0.96266360219E+01 -0.12763486325E+03 -0.12811756455E+03  0.24976276901E+03  0.17200000000E+03 0. -1.
         -6    1    1    2    0  501 -0.96266360219E+01  0.12763486325E+03  0.38623194301E+03  0.44174930021E+03  0.17200000000E+03 0.  1.
</event>
<event>
 4    1  0.3211568E-002  0.3647583E+03  0.7818608E-02  0.1056715E+00
          1   -1    0    0  502    0  0.00000000000E+00  0.00000000000E+00  0.19517251917E+03  0.19517251917E+03  0.00000000000E+00 0. -1.
         -1   -1    0    0    0  501 -0.00000000000E+00 -0.00000000000E+00 -0.70562015516E+03  0.70562015516E+03  0.00000000000E+00 0.  1.
          6    1    1    2  502    0  0.31141131020E+03  0.80545843983E+02 -0.17229352865E+03  0.40340264887E+03  0.17200000000E+03 0. -1.
         -6    1    1    2    0  501 -0.31141131020E+03 -0.80545843983E+02 -0.33815410735E+03  0.49739002545E+03  0.17200000000E+03 0.  1.
</event>
<event>
 4    1  0.3211568E-002  0.3780542E+03  0.7818608E-02  0.1051655E+00
         -2   -1    0    0    0  501 -0.00000000000E+00  0.00000000000E+00  0.37303169417E+03  0.37303169417E+03  0.00000000000E+00 0.  1.
          2   -1    0    0  502    0  0.00000000000E+00 -0.00000000000E+00 -0.42955227637E+03  0.42955227637E+03  0.00000000000E+00 0. -1.
          6    1    1    2  502    0  0.29616027408E+03  0.16009401525E+03 -0.16016137326E+03  0.41058088990E+03  0.17200000000E+03 0. -1.
         -6    1    1    2    0  501 -0.29616027408E+03 -0.16009401525E+03  0.10364079106E+03  0.39200308064E+03  0.17200000000E+03 0.  1.
</event>
<event>
 4    1  0.3211568E-002  0.1822528E+03  0.7818608E-02  0.1165640E+00
         -2   -1    0    0    0  501 -0.00000000000E+00  0.00000000000E+00  0.12794609076E+03  0.12794609076E+03  0.00000000000E+00 0.  1.
          2   -1    0    0  502    0  0.00000000000E+00 -0.00000000000E+00 -0.27989690083E+03  0.27989690083E+03  0.00000000000E+00 0. -1.
          6    1    1    2  502    0 -0.10759940327E+02 -0.59298471305E+02 -0.13087533412E+03  0.22437566289E+03  0.17200000000E+03 0. -1.
         -6    1    1    2    0  501  0.10759940327E+02  0.59298471305E+02 -0.21075475951E+02  0.18346732870E+03  0.17200000000E+03 0.  1.
</event>
<event>
 4    1  0.3211568E-002  0.2054324E+03  0.7818608E-02  0.1145235E+00
         -4   -1    0    0    0  501 -0.00000000000E+00  0.00000000000E+00  0.17752925255E+03  0.17752925255E+03  0.00000000000E+00 0.  1.
          4   -1    0    0  502    0  0.00000000000E+00 -0.00000000000E+00 -0.32877870317E+03  0.32877870317E+03  0.00000000000E+00 0. -1.
          6    1    1    2  502    0  0.28651392477E+02 -0.10861663685E+03 -0.20885123888E+03  0.29295275400E+03  0.17200000000E+03 0. -1.
         -6    1    1    2    0  501 -0.28651392477E+02  0.10861663685E+03  0.57601788263E+02  0.21335520173E+03  0.17200000000E+03 0.  1.
</event>
<event>
 4    1  0.3211568E-002  0.1761769E+03  0.7818608E-02  0.1171555E+00
          2   -1    0    0  502    0  0.00000000000E+00  0.00000000000E+00  0.16297719526E+04  0.16297719526E+04  0.00000000000E+00 0. -1.
         -2   -1    0    0    0  501 -0.00000000000E+00 -0.00000000000E+00 -0.39822009229E+02  0.39822009229E+02  0.00000000000E+00 0.  1.
          6    1    1    2  502    0  0.66286882198E+01 -0.37554746302E+02  0.13979722394E+04  0.14090296947E+04  0.17200000000E+03 0. -1.
         -6    1    1    2    0  501 -0.66286882198E+01  0.37554746302E+02  0.19197770402E+03  0.26056426715E+03  0.17200000000E+03 0.  1.
</event>
<event>
 4    1  0.3211568E-002  0.4169019E+03  0.7818608E-02  0.1038079E+00
          2   -1    0    0  502    0  0.00000000000E+00  0.00000000000E+00  0.26202578165E+04  0.26202578165E+04  0.00000000000E+00 0. -1.
         -2   -1    0    0    0  501 -0.00000000000E+00 -0.00000000000E+00 -0.66343793499E+02  0.66343793499E+02  0.00000000000E+00 0.  1.
          6    1    1    2  502    0  0.30906452590E+03 -0.22068591376E+03  0.12948053617E+04  0.13602676496E+04  0.17200000000E+03 0. -1.
         -6    1    1    2    0  501 -0.30906452590E+03  0.22068591376E+03  0.12591086612E+04  0.13263339604E+04  0.17200000000E+03 0.  1.
</event>
<event>
 4    1  0.3211568E-002  0.2809819E+03  0.7818608E-02  0.1095154E+00
         -1   -1    0    0    0  501 -0.00000000000E+00  0.00000000000E+00  0.52582720765E+03  0.52582720765E+03  0.00000000000E+00 0.  1.
          1   -1    0    0  502    0  0.00000000000E+00 -0.00000000000E+00 -0.15639129393E+03  0.15639129393E+03  0.00000000000E+00 0. -1.
          6    1    1    2  502    0 -0.21770768611E+03  0.44386616375E+02  0.11655215681E+03  0.30419601175E+03  0.17200000000E+03 0. -1.
         -6    1    1    2    0  501  0.21770768611E+03 -0.44386616375E+02  0.25288375692E+03  0.37802248983E+03  0.17200000000E+03 0.  1.
</event>
<event>
 4    1  0.3211568E-002  0.2101739E+03  0.7818608E-02  0.1141428E+00
          2   -1    0    0  502    0  0.00000000000E+00  0.00000000000E+00  0.22627696110E+04  0.22627696110E+04  0.00000000000E+00 0. -1.
         -2   -1    0    0    0  501 -0.00000000000E+00 -0.00000000000E+00 -0.38375615174E+02  0.38375615174E+02  0.00000000000E+00 0.  1.
          6    1    1    2  502    0 -0.11391710215E+03 -0.40149437815E+02  0.30572876717E+03  0.37100291453E+03  0.17200000000E+03 0.  1.
         -6    1    1    2    0  501  0.11391710215E+03  0.40149437815E+02  0.19186652287E+04  0.19301423117E+04  0.17200000000E+03 0. -1.
</event>
<event>
 4    1  0.3211568E-002  0.2002960E+03  0.7818608E-02  0.1149490E+00
          3   -1    0    0  502    0  0.00000000000E+00  0.00000000000E+00  0.70537699397E+03  0.70537699397E+03  0.00000000000E+00 0. -1.
         -3   -1    0    0    0  501 -0.00000000000E+00 -0.00000000000E+00 -0.56976054358E+02  0.56976054358E+02  0.00000000000E+00 0.  1.
          6    1    1    2  502    0 -0.78788425593E+02  0.65778856108E+02  0.30816515454E+03  0.36753807475E+03  0.17200000000E+03 0.  1.
         -6    1    1    2    0  501  0.78788425593E+02 -0.65778856108E+02  0.34023578507E+03  0.39481497357E+03  0.17200000000E+03 0.  1.
</event>
<event>
 4    1  0.3211568E-002  0.4388118E+03  0.7818608E-02  0.1031112E+00
          1   -1    0    0  502    0  0.00000000000E+00  0.00000000000E+00  0.18306537271E+04  0.18306537271E+04  0.00000000000E+00 0. -1.
         -1   -1    0    0    0  501 -0.00000000000E+00 -0.00000000000E+00 -0.13376724819E+03  0.13376724819E+03  0.00000000000E+00 0.  1.
          6    1    1    2  502    0  0.10254033793E+03 -0.39045773977E+03  0.13024729518E+04  0.13744058926E+04  0.17200000000E+03 0. -1.
         -6    1    1    2    0  501 -0.10254033793E+03  0.39045773977E+03  0.39441352718E+03  0.59001508275E+03  0.17200000000E+03 0.  1.
</event>
<event>
 4    1  0.3211568E-002  0.2238230E+03  0.7818608E-02  0.1131065E+00
          4   -1    0    0  502    0  0.00000000000E+00  0.00000000000E+00  0.98688138961E+02  0.98688138961E+02  0.00000000000E+00 0. -1.
         -4   -1    0    0    0  501 -0.00000000000E+00 -0.00000000000E+00 -0.10177668393E+04  0.10177668393E+04  0.00000000000E+00 0.  1.
          6    1    1    2  502    0  0.10082786144E+03 -0.10171757116E+03 -0.85475294215E+03  0.88357190655E+03  0.17200000000E+03 0.  1.
         -6    1    1    2    0  501 -0.10082786144E+03  0.10171757116E+03 -0.64325758190E+02  0.23288307172E+03  0.17200000000E+03 0. -1.
</event>
<event>
 4    1  0.3211568E-002  0.2378907E+03  0.7818608E-02  0.1121206E+00
         -1   -1    0    0    0  501 -0.00000000000E+00  0.00000000000E+00  0.14265770869E+03  0.14265770869E+03  0.00000000000E+00 0.  1.
          1   -1    0    0  502    0  0.00000000000E+00 -0.00000000000E+00 -0.41467607974E+03  0.41467607974E+03  0.00000000000E+00 0. -1.
          6    1    1    2  502    0 -0.75188254535E+01  0.16416892944E+03 -0.77985219204E+02  0.25034708815E+03  0.17200000000E+03 0. -1.
         -6    1    1    2    0  501  0.75188254535E+01 -0.16416892944E+03 -0.19403315185E+03  0.30698670028E+03  0.17200000000E+03 0.  1.
</event>
<event>
 4    1  0.3211568E-002  0.2091556E+03  0.7818608E-02  0.1142236E+00
          1   -1    0    0  502    0  0.00000000000E+00  0.00000000000E+00  0.46359250652E+03  0.46359250652E+03  0.00000000000E+00 0. -1.
         -1   -1    0    0    0  501 -0.00000000000E+00 -0.00000000000E+00 -0.94755106286E+02  0.94755106286E+02  0.00000000000E+00 0.  1.
          6    1    1    2  502    0 -0.90886666443E+01  0.11865698694E+03  0.16646515870E+03  0.26731392308E+03  0.17200000000E+03 0.  1.
         -6    1    1    2    0  501  0.90886666443E+01 -0.11865698694E+03  0.20237224154E+03  0.29103368973E+03  0.17200000000E+03 0.  1.
</event>
<event>
 4    1  0.3211568E-002  0.2351691E+03  0.7818608E-02  0.1123054E+00
         -2   -1    0    0    0  501 -0.00000000000E+00  0.00000000000E+00  0.44157702967E+02  0.44157702967E+02  0.00000000000E+00 0.  1.
          2   -1    0    0  502    0  0.00000000000E+00 -0.00000000000E+00 -0.12526389156E+04  0.12526389156E+04  0.00000000000E+00 0. -1.
          6    1    1    2  502    0 -0.12859878037E+03  0.95827174546E+02 -0.59589504547E+03  0.64062110401E+03  0.17200000000E+03 0. -1.
         -6    1    1    2    0  501  0.12859878037E+03 -0.95827174546E+02 -0.61258616713E+03  0.65617551452E+03  0.17200000000E+03 0.  1.
</event>
<event>
 4    1  0.3211568E-002  0.1939697E+03  0.7818608E-02  0.1154929E+00
          2   -1    0    0  502    0  0.00000000000E+00  0.00000000000E+00  0.92985519601E+03  0.92985519601E+03  0.00000000000E+00 0. -1.
         -2   -1    0    0    0  501 -0.00000000000E+00 -0.00000000000E+00 -0.41151180554E+02  0.41151180554E+02  0.00000000000E+00 0.  1.
          6    1    1    2  502    0  0.71154943472E+02  0.54563955750E+02  0.50715998463E+03  0.54298757007E+03  0.17200000000E+03 0. -1.
         -6    1    1    2    0  501 -0.71154943472E+02 -0.54563955750E+02  0.38154403083E+03  0.42801880649E+03  0.17200000000E+03 0.  1.
</event>
<event>
 4    1  0.3211568E-002  0.2656253E+03  0.7818608E-02  0.1103810E+00
          2   -1    0    0  502    0  0.00000000000E+00  0.00000000000E+00  0.19146819043E+04  0.19146819043E+04  0.00000000000E+00 0. -1.
         -2   -1    0    0    0  501 -0.00000000000E+00 -0.00000000000E+00 -0.42249079992E+02  0.42249079992E+02  0.00000000000E+00 0.  1.
          6    1    1    2  502    0  0.66138863047E+02 -0.19130722658E+03  0.12859847283E+04  0.13131311913E+04  0.17200000000E+03 0. -1.
         -6    1    1    2    0  501 -0.66138863047E+02  0.19130722658E+03  0.58644809606E+03  0.64379979304E+03  0.17200000000E+03 0.  1.
</event>
<event>
 4    1  0.3211568E-002  0.1849682E+03  0.7818608E-02  0.1163080E+00
         -2   -1    0    0    0  501 -0.00000000000E+00  0.00000000000E+00  0.38014416000E+02  0.38014416000E+02  0.00000000000E+00 0.  1.
          2   -1    0    0  502    0  0.00000000000E+00 -0.00000000000E+00 -0.10861061508E+04  0.10861061508E+04  0.00000000000E+00 0. -1.
          6    1    1    2  502    0  0.64668841082E+02 -0.21146832264E+02 -0.75670426983E+03  0.77898305470E+03  0.17200000000E+03 0. -1.
         -6    1    1    2    0  501 -0.64668841082E+02  0.21146832264E+02 -0.29138746498E+03  0.34513751212E+03  0.17200000000E+03 0.  1.
</event>
<event>
 4    1  0.3211568E-002  0.1805614E+03  0.7818608E-02  0.1167261E+00
         -2   -1    0    0    0  501 -0.00000000000E+00  0.00000000000E+00  0.32390114532E+02  0.32390114532E+02  0.00000000000E+00 0.  1.
          2   -1    0    0  502    0  0.00000000000E+00 -0.00000000000E+00 -0.22734345601E+04  0.22734345601E+04  0.00000000000E+00 0. -1.
          6    1    1    2  502    0 -0.49339657088E+01 -0.54718240235E+02 -0.19811646117E+04  0.19893756931E+04  0.17200000000E+03 0. -1.
         -6    1    1    2    0  501  0.49339657088E+01  0.54718240235E+02 -0.25987983387E+03  0.31644898149E+03  0.17200000000E+03 0.  1.
</event>
<event>
 4    1  0.3211568E-002  0.1756426E+03  0.7818608E-02  0.1172088E+00
          2   -1    0    0  502    0  0.00000000000E+00  0.00000000000E+00  0.87782367838E+03  0.87782367838E+03  0.00000000000E+00 0. -1.
         -2   -1    0    0    0  501 -0.00000000000E+00 -0.00000000000E+00 -0.35721025422E+02  0.35721025422E+02  0.00000000000E+00 0.  1.
          6    1    1    2  502    0  0.13195644018E+02  0.33048571059E+02  0.36300250217E+03  0.40326312706E+03  0.17200000000E+03 0. -1.
         -6    1    1    2    0  501 -0.13195644018E+02 -0.33048571059E+02  0.47910015079E+03  0.51028157673E+03  0.17200000000E+03 0. -1.
</event>
<event>
 4    1  0.3211568E-002  0.1883161E+03  0.7818608E-02  0.1159989E+00
          1   -1    0    0  502    0  0.00000000000E+00  0.00000000000E+00  0.54049359922E+03  0.54049359922E+03  0.00000000000E+00 0. -1.
         -1   -1    0    0    0  501 -0.00000000000E+00 -0.00000000000E+00 -0.10652096183E+03  0.10652096183E+03  0.00000000000E+00 0.  1.
          6    1    1    2  502    0  0.62311792883E+02 -0.44678854608E+02  0.41746806181E+03  0.45797657387E+03  0.17200000000E+03 0. -1.
         -6    1    1    2    0  501 -0.62311792883E+02  0.44678854608E+02  0.16504575580E+02  0.18903798718E+03  0.17200000000E+03 0.  1.
</event>
<event>
 4    1  0.3211568E-002  0.4065466E+03  0.7818608E-02  0.1041536E+00
          1   -1    0    0  502    0  0.00000000000E+00  0.00000000000E+00  0.14392003744E+04  0.14392003744E+04  0.00000000000E+00 0. -1.
         -1   -1    0    0    0  501 -0.00000000000E+00 -0.00000000000E+00 -0.11622476694E+03  0.11622476694E+03  0.00000000000E+00 0.  1.
          6    1    1    2  502    0 -0.36084774750E+03  0.74061044710E+02  0.74632774655E+03  0.84987366149E+03  0.17200000000E+03 0. -1.
         -6    1    1    2    0  501  0.36084774750E+03 -0.74061044710E+02  0.57664786090E+03  0.70555147983E+03  0.17200000000E+03 0.  1.
</event>
<event>
 4    1  0.3211568E-002  0.2121861E+03  0.7818608E-02  0.1139846E+00
         -1   -1    0    0    0  501 -0.00000000000E+00  0.00000000000E+00  0.87578334358E+02  0.87578334358E+02  0.00000000000E+00 0.  1.
          1   -1    0    0  502    0  0.00000000000E+00 -0.00000000000E+00 -0.51876528789E+03  0.51876528789E+03  0.00000000000E+00 0. -1.
          6    1    1    2  502    0  0.11919489236E+03  0.35093229088E+02 -0.24438122241E+03  0.32364353687E+03  0.17200000000E+03 0. -1.
         -6    1    1    2    0  501 -0.11919489236E+03 -0.35093229088E+02 -0.18680573111E+03  0.28270008537E+03  0.17200000000E+03 0.  1.
</event>
<event>
 4    1  0.3211568E-002  0.2366708E+03  0.7818608E-02  0.1122031E+00
          2   -1    0    0  502    0  0.00000000000E+00  0.00000000000E+00  0.37733256172E+04  0.37733256172E+04  0.00000000000E+00 0. -1.
         -2   -1    0    0    0  501 -0.00000000000E+00 -0.00000000000E+00 -0.22575057786E+02  0.22575057786E+02  0.00000000000E+00 0.  1.
          6    1    1    2  502    0  0.74992974065E+02 -0.14423979570E+03  0.29860229896E+04  0.29953875140E+04  0.17200000000E+03 0. -1.
         -6    1    1    2    0  501 -0.74992974065E+02  0.14423979570E+03  0.76472756982E+03  0.80051316096E+03  0.17200000000E+03 0.  1.
</event>
<event>
 4    1  0.3211568E-002  0.2451181E+03  0.7818608E-02  0.1116429E+00
         -2   -1    0    0    0  501 -0.00000000000E+00  0.00000000000E+00  0.10426112410E+03  0.10426112410E+03  0.00000000000E+00 0.  1.
          2   -1    0    0  502    0  0.00000000000E+00 -0.00000000000E+00 -0.70107903299E+03  0.70107903299E+03  0.00000000000E+00 0. -1.
          6    1    1    2  502    0 -0.27462504030E+02 -0.17246656121E+03 -0.46830493613E+03  0.52857583852E+03  0.17200000000E+03 0.  1.
         -6    1    1    2    0  501  0.27462504030E+02  0.17246656121E+03 -0.12851297276E+03  0.27676431857E+03  0.17200000000E+03 0.  1.
</event>
<event>
 4    1  0.3211568E-002  0.1930200E+03  0.7818608E-02  0.1155765E+00
          2   -1    0    0  502    0  0.00000000000E+00  0.00000000000E+00  0.30849721725E+03  0.30849721725E+03  0.00000000000E+00 0. -1.
         -2   -1    0    0    0  501 -0.00000000000E+00 -0.00000000000E+00 -0.26086755507E+03  0.26086755507E+03  0.00000000000E+00 0.  1.
          6    1    1    2  502    0  0.51175800790E+02 -0.71089750286E+02  0.23244077865E+03  0.30213478906E+03  0.17200000000E+03 0. -1.
         -6    1    1    2    0  501 -0.51175800790E+02  0.71089750286E+02 -0.18481111647E+03  0.26722998326E+03  0.17200000000E+03 0.  1.
</event>
<event>
 4    1  0.3211568E-002  0.4210884E+03  0.7818608E-02  0.1036713E+00
         -2   -1    0    0    0  501 -0.00000000000E+00  0.00000000000E+00  0.48211891199E+03  0.48211891199E+03  0.00000000000E+00 0.  1.
          2   -1    0    0  502    0  0.00000000000E+00 -0.00000000000E+00 -0.97485983642E+03  0.97485983642E+03  0.00000000000E+00 0. -1.
          6    1    1    2  502    0  0.12339128255E+03 -0.36401373457E+03  0.32850499096E+03  0.53407016079E+03  0.17200000000E+03 0.  1.
         -6    1    1    2    0  501 -0.12339128255E+03  0.36401373457E+03 -0.82124591539E+03  0.92290858762E+03  0.17200000000E+03 0. -1.
</event>
<event>
 4    1  0.3211568E-002  0.3927342E+03  0.7818608E-02  0.1046325E+00
          2   -1    0    0  502    0  0.00000000000E+00  0.00000000000E+00  0.55000949735E+03  0.55000949735E+03  0.00000000000E+00 0. -1.
         -2   -1    0    0    0  501 -0.00000000000E+00 -0.00000000000E+00 -0.33603166907E+03  0.33603166907E+03  0.00000000000E+00 0.  1.
          6    1    1    2  502    0 -0.25733912209E+03  0.24172863772E+03  0.28719549681E+03  0.48654024648E+03  0.17200000000E+03 0. -1.
         -6    1    1    2    0  501  0.25733912209E+03 -0.24172863772E+03 -0.73217668533E+02  0.39950091995E+03  0.17200000000E+03 0.  1.
</event>
<event>
 4    1  0.3211568E-002  0.2087660E+03  0.7818608E-02  0.1142547E+00
          1   -1    0    0  502    0  0.00000000000E+00  0.00000000000E+00  0.85489233353E+02  0.85489233353E+02  0.00000000000E+00 0. -1.
         -1   -1    0    0    0  501 -0.00000000000E+00 -0.00000000000E+00 -0.57643976582E+03  0.57643976582E+03  0.00000000000E+00 0.  1.
          6    1    1    2  502    0 -0.12356133728E+02  0.11767145569E+03 -0.35799776603E+03  0.41442206265E+03  0.17200000000E+03 0.  1.
         -6    1    1    2    0  501  0.12356133728E+02 -0.11767145569E+03 -0.13295276644E+03  0.24750693653E+03  0.17200000000E+03 0. -1.
</event>
<event>
 4    1  0.3211568E-002  0.2898359E+03  0.7818608E-02  0.1090435E+00
          1   -1    0    0  502    0  0.00000000000E+00  0.00000000000E+00  0.18951997520E+03  0.18951997520E+03  0.00000000000E+00 0. -1.
         -1   -1    0    0    0  501 -0.00000000000E+00 -0.00000000000E+00 -0.70624267553E+03  0.70624267553E+03  0.00000000000E+00 0.  1.
          6    1    1    2  502    0 -0.22730031863E+03  0.52491805636E+02 -0.53167252369E+03  0.60554149070E+03  0.17200000000E+03 0.  1.
         -6    1    1    2    0  501  0.22730031863E+03 -0.52491805636E+02  0.14949823367E+02  0.29022116003E+03  0.17200000000E+03 0.  1.
</event>
<event>
 4    1  0.3211568E-002  0.1791555E+03  0.7818608E-02  0.1168623E+00
         -2   -1    0    0    0  501 -0.00000000000E+00  0.00000000000E+00  0.23578953483E+02  0.23578953483E+02  0.00000000000E+00 0.  1.
          2   -1    0    0  502    0  0.00000000000E+00 -0.00000000000E+00 -0.36152599796E+04  0.36152599796E+04  0.00000000000E+00 0. -1.
          6    1    1    2  502    0 -0.45170625258E+02  0.21732947254E+02 -0.32324594143E+04  0.32374203576E+04  0.17200000000E+03 0. -1.
         -6    1    1    2    0  501  0.45170625258E+02 -0.21732947254E+02 -0.35922161177E+03  0.40141857549E+03  0.17200000000E+03 0.  1.
</event>
<event>
 4    1  0.3211568E-002  0.1731053E+03  0.7818608E-02  0.1174648E+00
         -2   -1    0    0    0  501 -0.00000000000E+00  0.00000000000E+00  0.19726045675E+03  0.19726045675E+03  0.00000000000E+00 0.  1.
          2   -1    0    0  502    0  0.00000000000E+00 -0.00000000000E+00 -0.15282458816E+03  0.15282458816E+03  0.00000000000E+00 0. -1.
          6    1    1    2  502    0  0.14044210189E+02 -0.13571784353E+02  0.86615451441E+01  0.17332182648E+03  0.17200000000E+03 0. -1.
         -6    1    1    2    0  501 -0.14044210189E+02  0.13571784353E+02  0.35774323445E+02  0.17676321843E+03  0.17200000000E+03 0.  1.
</event>
<event>
 4    1  0.3211568E-002  0.2108733E+03  0.7818608E-02  0.1140876E+00
         -2   -1    0    0    0  501 -0.00000000000E+00  0.00000000000E+00  0.49379629257E+03  0.49379629257E+03  0.00000000000E+00 0.  1.
          2   -1    0    0  502    0  0.00000000000E+00 -0.00000000000E+00 -0.13721002356E+03  0.13721002356E+03  0.00000000000E+00 0. -1.
          6    1    1    2  502    0 -0.82519895008E+02 -0.89855415896E+02 -0.66707181058E+01  0.21097873665E+03  0.17200000000E+03 0. -1.
         -6    1    1    2    0  501  0.82519895008E+02  0.89855415896E+02  0.36325698711E+03  0.42002757948E+03  0.17200000000E+03 0.  1.
</event>
<event>
 4    1  0.3211568E-002  0.8282687E+03  0.7818608E-02  0.9519977E-01
          2   -1    0    0  502    0  0.00000000000E+00  0.00000000000E+00  0.58007819648E+03  0.58007819648E+03  0.00000000000E+00 0. -1.
         -2   -1    0    0    0  501 -0.00000000000E+00 -0.00000000000E+00 -0.12080454948E+04  0.12080454948E+04  0.00000000000E+00 0.  1.
          6    1    1    2  502    0  0.77007860829E+03  0.25184117334E+03 -0.18435209297E+03  0.84853681930E+03  0.17200000000E+03 0. -1.
         -6    1    1    2    0  501 -0.77007860829E+03 -0.25184117334E+03 -0.44361520532E+03  0.93958687194E+03  0.17200000000E+03 0.  1.
</event>
<event>
 4    1  0.3211568E-002  0.2375973E+03  0.7818608E-02  0.1121404E+00
          2   -1    0    0  502    0  0.00000000000E+00  0.00000000000E+00  0.82176707599E+03  0.82176707599E+03  0.00000000000E+00 0. -1.
         -2   -1    0    0    0  501 -0.00000000000E+00 -0.00000000000E+00 -0.68912818014E+02  0.68912818014E+02  0.00000000000E+00 0.  1.
          6    1    1    2  502    0 -0.15683163916E+03 -0.47668627084E+02  0.35147185416E+03  0.42424630265E+03  0.17200000000E+03 0.  1.
         -6    1    1    2    0  501  0.15683163916E+03  0.47668627084E+02  0.40138240382E+03  0.46643359136E+03  0.17200000000E+03 0.  1.
</event>
<event>
 4    1  0.3211568E-002  0.1947559E+03  0.7818608E-02  0.1154240E+00
         -2   -1    0    0    0  501 -0.00000000000E+00  0.00000000000E+00  0.21730680813E+02  0.21730680813E+02  0.00000000000E+00 0.  1.
          2   -1    0    0  502    0  0.00000000000E+00 -0.00000000000E+00 -0.38517537077E+04  0.38517537077E+04  0.00000000000E+00 0. -1.
          6    1    1    2  502    0 -0.90364591187E+02 -0.13420682912E+02 -0.33472085942E+04  0.33528697033E+04  0.17200000000E+03 0. -1.
         -6    1    1    2    0  501  0.90364591187E+02  0.13420682912E+02 -0.48281443266E+03  0.52061468521E+03  0.17200000000E+03 0.  1.
</event>
<event>
 4    1  0.3211568E-002  0.2035209E+03  0.7818608E-02  0.1146802E+00
          2   -1    0    0  502    0  0.00000000000E+00  0.00000000000E+00  0.79586017735E+02  0.79586017735E+02  0.00000000000E+00 0. -1.
         -2   -1    0    0    0  501 -0.00000000000E+00 -0.00000000000E+00 -0.52482353926E+03  0.52482353926E+03  0.00000000000E+00 0.  1.
          6    1    1    2  502    0 -0.63272989828E+02  0.88505807975E+02 -0.25019800837E+03  0.32252099572E+03  0.17200000000E+03 0.  1.
         -6    1    1    2    0  501  0.63272989828E+02 -0.88505807975E+02 -0.19503951316E+03  0.28188856128E+03  0.17200000000E+03 0. -1.
</event>
<event>
 4    1  0.3211568E-002  0.1743667E+03  0.7818608E-02  0.1173369E+00
          2   -1    0    0  502    0  0.00000000000E+00  0.00000000000E+00  0.14905830963E+04  0.14905830963E+04  0.00000000000E+00 0. -1.
         -2   -1    0    0    0  501 -0.00000000000E+00 -0.00000000000E+00 -0.20765941930E+02  0.20765941930E+02  0.00000000000E+00 0.  1.
          6    1    1    2  502    0 -0.22191121123E+02 -0.18091088616E+02  0.83560535097E+03  0.85360414474E+03  0.17200000000E+03 0. -1.
         -6    1    1    2    0  501  0.22191121123E+02  0.18091088616E+02  0.63421180342E+03  0.65774489352E+03  0.17200000000E+03 0.  1.
</event>
<event>
 4    1  0.3211568E-002  0.3009499E+03  0.7818608E-02  0.1084767E+00
          2   -1    0    0  502    0  0.00000000000E+00  0.00000000000E+00  0.92207654180E+03  0.92207654180E+03  0.00000000000E+00 0. -1.
         -2   -1    0    0    0  501 -0.00000000000E+00 -0.00000000000E+00 -0.11456654885E+04  0.11456654885E+04  0.00000000000E+00 0.  1.
          6    1    1    2  502    0  0.24437383331E+03 -0.35612469737E+02  0.87676353101E+03  0.92697632533E+03  0.17200000000E+03 0. -1.
         -6    1    1    2    0  501 -0.24437383331E+03  0.35612469737E+02 -0.11003524778E+04  0.11407657050E+04  0.17200000000E+03 0.  1.
</event>
<event>
 4    1  0.3211568E-002  0.3534674E+03  0.7818608E-02  0.1061201E+00
         -2   -1    0    0    0  501 -0.00000000000E+00  0.00000000000E+00  0.24628579712E+03  0.24628579712E+03  0.00000000000E+00 0.  1.
          2   -1    0    0  502    0  0.00000000000E+00 -0.00000000000E+00 -0.51992356332E+03  0.51992356332E+03  0.00000000000E+00 0. -1.
          6    1    1    2  502    0 -0.10044714069E+03  0.29200271617E+03 -0.19652905975E+03  0.40442908606E+03  0.17200000000E+03 0. -1.
         -6    1    1    2    0  501  0.10044714069E+03 -0.29200271617E+03 -0.77108706450E+02  0.36178027439E+03  0.17200000000E+03 0.  1.
</event>
<event>
 4    1  0.3211568E-002  0.1988792E+03  0.7818608E-02  0.1150688E+00
         -2   -1    0    0    0  501 -0.00000000000E+00  0.00000000000E+00  0.18229093593E+02  0.18229093593E+02  0.00000000000E+00 0.  1.
          2   -1    0    0  502    0  0.00000000000E+00 -0.00000000000E+00 -0.21748916963E+04  0.21748916963E+04  0.00000000000E+00 0. -1.
          6    1    1    2  502    0  0.36072666466E+02  0.93100389122E+02 -0.10251120510E+04  0.10442258553E+04  0.17200000000E+03 0.  1.
         -6    1    1    2    0  501 -0.36072666466E+02 -0.93100389122E+02 -0.11315505517E+04  0.11488949346E+04  0.17200000000E+03 0.  1.
</event>
<event>
 4    1  0.3211568E-002  0.6572185E+03  0.7818608E-02  0.9793328E-01
          2   -1    0    0  502    0  0.00000000000E+00  0.00000000000E+00  0.68500143018E+03  0.68500143018E+03  0.00000000000E+00 0. -1.
         -2   -1    0    0    0  501 -0.00000000000E+00 -0.00000000000E+00 -0.80985297050E+03  0.80985297050E+03  0.00000000000E+00 0.  1.
          6    1    1    2  502    0 -0.77211122427E+02 -0.62959555370E+03 -0.41410326855E+03  0.77679961103E+03  0.17200000000E+03 0. -1.
         -6    1    1    2    0  501  0.77211122427E+02  0.62959555370E+03  0.28925172823E+03  0.71805478965E+03  0.17200000000E+03 0.  1.
</event>
<event>
 4    1  0.3211568E-002  0.1805289E+03  0.7818608E-02  0.1167292E+00
         -1   -1    0    0    0  501 -0.00000000000E+00  0.00000000000E+00  0.14623859948E+03  0.14623859948E+03  0.00000000000E+00 0.  1.
          1   -1    0    0  502    0  0.00000000000E+00 -0.00000000000E+00 -0.41201850614E+03  0.41201850614E+03  0.00000000000E+00 0. -1.
          6    1    1    2  502    0  0.54813760104E+02  0.14605578452E+01 -0.32201944454E+03  0.36917096878E+03  0.17200000000E+03 0. -1.
         -6    1    1    2    0  501 -0.54813760104E+02 -0.14605578452E+01  0.56239537876E+02  0.18908613684E+03  0.17200000000E+03 0.  1.
</event>
<event>
 4    1  0.3211568E-002  0.5984834E+03  0.7818608E-02  0.9908558E-01
         -2   -1    0    0    0  501 -0.00000000000E+00  0.00000000000E+00  0.15229718513E+03  0.15229718513E+03  0.00000000000E+00 0.  1.
          2   -1    0    0  502    0  0.00000000000E+00 -0.00000000000E+00 -0.25454544089E+04  0.25454544089E+04  0.00000000000E+00 0. -1.
          6    1    1    2  502    0 -0.43437180959E+03  0.37405811400E+03 -0.15685681020E+04  0.16788651620E+04  0.17200000000E+03 0. -1.
         -6    1    1    2    0  501  0.43437180959E+03 -0.37405811400E+03 -0.82458912175E+03  0.10188864320E+04  0.17200000000E+03 0. -1.
</event>
<event>
 4    1  0.3211568E-002  0.2813662E+03  0.7818608E-02  0.1094945E+00
         -1   -1    0    0    0  501 -0.00000000000E+00  0.00000000000E+00  0.10049462042E+03  0.10049462042E+03  0.00000000000E+00 0.  1.
          1   -1    0    0  502    0  0.00000000000E+00 -0.00000000000E+00 -0.78914563522E+03  0.78914563522E+03  0.00000000000E+00 0. -1.
          6    1    1    2  502    0 -0.21958768446E+03  0.36934690137E+02 -0.32577206444E+03  0.43045831444E+03  0.17200000000E+03 0. -1.
         -6    1    1    2    0  501  0.21958768446E+03 -0.36934690137E+02 -0.36287895036E+03  0.45918194119E+03  0.17200000000E+03 0. -1.
</event>
<event>
 4    1  0.3211568E-002  0.2232635E+03  0.7818608E-02  0.1131473E+00
         -1   -1    0    0    0  501 -0.00000000000E+00  0.00000000000E+00  0.83999758204E+02  0.83999758204E+02  0.00000000000E+00 0.  1.
          1   -1    0    0  502    0  0.00000000000E+00 -0.00000000000E+00 -0.15527886922E+04  0.15527886922E+04  0.00000000000E+00 0. -1.
          6    1    1    2  502    0  0.11345598611E+03 -0.85967024876E+02 -0.13776753118E+04  0.13956489010E+04  0.17200000000E+03 0. -1.
         -6    1    1    2    0  501 -0.11345598611E+03  0.85967024876E+02 -0.91113622257E+02  0.24113954945E+03  0.17200000000E+03 0.  1.
</event>
<event>
 4    1  0.3211568E-002  0.2116101E+03  0.7818608E-02  0.1140297E+00
          1   -1    0    0  502    0  0.00000000000E+00  0.00000000000E+00  0.11204715833E+03  0.11204715833E+03  0.00000000000E+00 0. -1.
         -1   -1    0    0    0  501 -0.00000000000E+00 -0.00000000000E+00 -0.42932839775E+03  0.42932839775E+03  0.00000000000E+00 0.  1.
          6    1    1    2  502    0 -0.97198399848E+02 -0.75810963994E+02 -0.87462367619E+02  0.22897269912E+03  0.17200000000E+03 0. -1.
         -6    1    1    2    0  501  0.97198399848E+02  0.75810963994E+02 -0.22981887181E+03  0.31240285695E+03  0.17200000000E+03 0.  1.
</event>
<event>
 4    1  0.3211568E-002  0.1888728E+03  0.7818608E-02  0.1159482E+00
         -2   -1    0    0    0  501 -0.00000000000E+00  0.00000000000E+00  0.24528688439E+03  0.24528688439E+03  0.00000000000E+00 0.  1.
          2   -1    0    0  502    0  0.00000000000E+00 -0.00000000000E+00 -0.58177772510E+03  0.58177772510E+03  0.00000000000E+00 0. -1.
          6    1    1    2  502    0 -0.28081166259E+02  0.72803812093E+02 -0.52637935936E+03  0.55923892650E+03  0.17200000000E+03 0. -1.
         -6    1    1    2    0  501  0.28081166259E+02 -0.72803812093E+02  0.18988851865E+03  0.26782568299E+03  0.17200000000E+03 0.  1.
</event>
<event>
 4    1  0.3211568E-002  0.2240939E+03  0.7818608E-02  0.1130867E+00
         -1   -1    0    0    0  501 -0.00000000000E+00  0.00000000000E+00  0.29721124421E+02  0.29721124421E+02  0.00000000000E+00 0.  1.
          1   -1    0    0  502    0  0.00000000000E+00 -0.00000000000E+00 -0.17460968345E+04  0.17460968345E+04  0.00000000000E+00 0. -1.
          6    1    1    2  502    0  0.14176468773E+03  0.23169786665E+02 -0.10178434458E+04  0.10422203922E+04  0.17200000000E+03 0.  1.
         -6    1    1    2    0  501 -0.14176468773E+03 -0.23169786665E+02 -0.69853226428E+03  0.73359756675E+03  0.17200000000E+03 0.  1.
</event>
<event>
 4    1  0.3211568E-002  0.1880078E+03  0.7818608E-02  0.1160271E+00
         -2   -1    0    0    0  501 -0.00000000000E+00  0.00000000000E+00  0.23049047532E+02  0.23049047532E+02  0.00000000000E+00 0.  1.
          2   -1    0    0  502    0  0.00000000000E+00 -0.00000000000E+00 -0.32262987738E+04  0.32262987738E+04  0.00000000000E+00 0. -1.
          6    1    1    2  502    0  0.18293552492E+01 -0.75891822375E+02 -0.27784444810E+04  0.27847981344E+04  0.17200000000E+03 0. -1.
         -6    1    1    2    0  501 -0.18293552492E+01  0.75891822375E+02 -0.42480524530E+03  0.46454968699E+03  0.17200000000E+03 0.  1.
</event>
<event>
 4    1  0.3211568E-002  0.2131214E+03  0.7818608E-02  0.1139118E+00
          2   -1    0    0  502    0  0.00000000000E+00  0.00000000000E+00  0.28240243288E+03  0.28240243288E+03  0.00000000000E+00 0. -1.
         -2   -1    0    0    0  501 -0.00000000000E+00 -0.00000000000E+00 -0.34559671065E+03  0.34559671065E+03  0.00000000000E+00 0.  1.
          6    1    1    2  502    0  0.54363314125E+02 -0.11349602353E+03  0.19799027207E+03  0.29089665710E+03  0.17200000000E+03 0. -1.
         -6    1    1    2    0  501 -0.54363314125E+02  0.11349602353E+03 -0.26118454984E+03  0.33710248643E+03  0.17200000000E+03 0.  1.
</event>
<event>
 4    1  0.3211568E-002  0.1978590E+03  0.7818608E-02  0.1151558E+00
         -1   -1    0    0    0  501 -0.00000000000E+00  0.00000000000E+00  0.69901523576E+02  0.69901523576E+02  0.00000000000E+00 0.  1.
          1   -1    0    0  502    0  0.00000000000E+00 -0.00000000000E+00 -0.29996710840E+04  0.29996710840E+04  0.00000000000E+00 0. -1.
          6    1    1    2  502    0 -0.84088832459E+02 -0.49932285871E+02 -0.28490008762E+04  0.28558631195E+04  0.17200000000E+03 0. -1.
         -6    1    1    2    0  501  0.84088832459E+02  0.49932285871E+02 -0.80768684179E+02  0.21370948800E+03  0.17200000000E+03 0.  1.
</event>
<event>
 4    1  0.3211568E-002  0.2992639E+03  0.7818608E-02  0.1085609E+00
          1   -1    0    0  502    0  0.00000000000E+00  0.00000000000E+00  0.46438233714E+03  0.46438233714E+03  0.00000000000E+00 0. -1.
         -1   -1    0    0    0  501 -0.00000000000E+00 -0.00000000000E+00 -0.19315089299E+03  0.19315089299E+03  0.00000000000E+00 0.  1.
          6    1    1    2  502    0  0.24891567597E+02 -0.24362944387E+03  0.14846295359E+03  0.33406607826E+03  0.17200000000E+03 0. -1.
         -6    1    1    2    0  501 -0.24891567597E+02  0.24362944387E+03  0.12276849056E+03  0.32346715186E+03  0.17200000000E+03 0.  1.
</event>
<event>
 4    1  0.3211568E-002  0.2403569E+03  0.7818608E-02  0.1119555E+00
         -1   -1    0    0    0  501 -0.00000000000E+00  0.00000000000E+00  0.89382995695E+02  0.89382995695E+02  0.00000000000E+00 0.  1.
          1   -1    0    0  502    0  0.00000000000E+00 -0.00000000000E+00 -0.72127236905E+03  0.72127236905E+03  0.00000000000E+00 0. -1.
          6    1    1    2  502    0  0.31537532582E+02 -0.16490240052E+03 -0.44659303434E+03  0.50716541283E+03  0.17200000000E+03 0. -1.
         -6    1    1    2    0  501 -0.31537532582E+02  0.16490240052E+03 -0.18529633902E+03  0.30348995191E+03  0.17200000000E+03 0.  1.
</event>
<event>
 4    1  0.3211568E-002  0.2044409E+03  0.7818608E-02  0.1146045E+00
         -2   -1    0    0    0  501 -0.00000000000E+00  0.00000000000E+00  0.39821205552E+02  0.39821205552E+02  0.00000000000E+00 0.  1.
          2   -1    0    0  502    0  0.00000000000E+00 -0.00000000000E+00 -0.12534164254E+04  0.12534164254E+04  0.00000000000E+00 0. -1.
          6    1    1    2  502    0 -0.68716833138E+02  0.86545293792E+02 -0.86754911696E+03  0.89131226928E+03  0.17200000000E+03 0. -1.
         -6    1    1    2    0  501  0.68716833138E+02 -0.86545293792E+02 -0.34604610292E+03  0.40192536170E+03  0.17200000000E+03 0.  1.
</event>
<event>
 4    1  0.3211568E-002  0.2427963E+03  0.7818608E-02  0.1117944E+00
          2   -1    0    0  502    0  0.00000000000E+00  0.00000000000E+00  0.26761910951E+03  0.26761910951E+03  0.00000000000E+00 0. -1.
         -2   -1    0    0    0  501 -0.00000000000E+00 -0.00000000000E+00 -0.32338604755E+03  0.32338604755E+03  0.00000000000E+00 0.  1.
          6    1    1    2  502    0 -0.15424150286E+03  0.74669864843E+02  0.13897621650E+03  0.27975778573E+03  0.17200000000E+03 0. -1.
         -6    1    1    2    0  501  0.15424150286E+03 -0.74669864843E+02 -0.19474315454E+03  0.31124737133E+03  0.17200000000E+03 0.  1.
</event>
<event>
 4    1  0.3211568E-002  0.6932479E+03  0.7818608E-02  0.9728849E-01
          1   -1    0    0  502    0  0.00000000000E+00  0.00000000000E+00  0.57881451697E+03  0.57881451697E+03  0.00000000000E+00 0. -1.
         -1   -1    0    0    0  501 -0.00000000000E+00 -0.00000000000E+00 -0.11328735494E+04  0.11328735494E+04  0.00000000000E+00 0.  1.
          6    1    1    2  502    0 -0.53858644903E+03 -0.40116484831E+03  0.16526930971E+03  0.71267562280E+03  0.17200000000E+03 0. -1.
         -6    1    1    2    0  501  0.53858644903E+03  0.40116484831E+03 -0.71932834212E+03  0.99901244356E+03  0.17200000000E+03 0.  1.
</event>
<event>
 4    1  0.3211568E-002  0.1882368E+03  0.7818608E-02  0.1160061E+00
         -2   -1    0    0    0  501 -0.00000000000E+00  0.00000000000E+00  0.45515408996E+03  0.45515408996E+03  0.00000000000E+00 0.  1.
          2   -1    0    0  502    0  0.00000000000E+00 -0.00000000000E+00 -0.84413442312E+02  0.84413442312E+02  0.00000000000E+00 0. -1.
          6    1    1    2  502    0  0.30100636456E+02  0.70306756701E+02  0.26060596645E+03  0.32147870552E+03  0.17200000000E+03 0.  1.
         -6    1    1    2    0  501 -0.30100636456E+02 -0.70306756701E+02  0.11013468120E+03  0.21808882676E+03  0.17200000000E+03 0. -1.
</event>
<event>
 4    1  0.3211568E-002  0.4787246E+03  0.7818608E-02  0.1019486E+00
         -2   -1    0    0    0  501 -0.00000000000E+00  0.00000000000E+00  0.15601815723E+03  0.15601815723E+03  0.00000000000E+00 0.  1.
          2   -1    0    0  502    0  0.00000000000E+00 -0.00000000000E+00 -0.18144922262E+04  0.18144922262E+04  0.00000000000E+00 0. -1.
          6    1    1    2  502    0  0.43432161183E+03  0.10468059030E+03 -0.12592130475E+04  0.13471431949E+04  0.17200000000E+03 0. -1.
         -6    1    1    2    0  501 -0.43432161183E+03 -0.10468059030E+03 -0.39926102139E+03  0.62336718849E+03  0.17200000000E+03 0.  1.
</event>
<event>
 4    1  0.3211568E-002  0.4431399E+03  0.7818608E-02  0.1029788E+00
         -2   -1    0    0    0  501 -0.00000000000E+00  0.00000000000E+00  0.36174886209E+03  0.36174886209E+03  0.00000000000E+00 0.  1.
          2   -1    0    0  502    0  0.00000000000E+00 -0.00000000000E+00 -0.91485107137E+03  0.91485107137E+03  0.00000000000E+00 0. -1.
          6    1    1    2  502    0 -0.18850553448E+03  0.36229084535E+03 -0.68358029081E+03  0.81465023607E+03  0.17200000000E+03 0. -1.
         -6    1    1    2    0  501  0.18850553448E+03 -0.36229084535E+03  0.13047808152E+03  0.46194969738E+03  0.17200000000E+03 0.  1.
</event>
<event>
 4    1  0.3211568E-002  0.4649507E+03  0.7818608E-02  0.1023355E+00
         -1   -1    0    0    0  501 -0.00000000000E+00  0.00000000000E+00  0.93337903944E+03  0.93337903944E+03  0.00000000000E+00 0.  1.
          1   -1    0    0  502    0  0.00000000000E+00 -0.00000000000E+00 -0.24185826362E+03  0.24185826362E+03  0.00000000000E+00 0. -1.
          6    1    1    2  502    0  0.32140665912E+03  0.28860506843E+03  0.22479579767E+03  0.51644193933E+03  0.17200000000E+03 0. -1.
         -6    1    1    2    0  501 -0.32140665912E+03 -0.28860506843E+03  0.46672497815E+03  0.65879536374E+03  0.17200000000E+03 0.  1.
</event>
<event>
 4    1  0.3211568E-002  0.2118137E+03  0.7818608E-02  0.1140138E+00
          1   -1    0    0  502    0  0.00000000000E+00  0.00000000000E+00  0.50873008621E+03  0.50873008621E+03  0.00000000000E+00 0. -1.
         -1   -1    0    0    0  501 -0.00000000000E+00 -0.00000000000E+00 -0.11437027592E+03  0.11437027592E+03  0.00000000000E+00 0.  1.
          6    1    1    2  502    0 -0.11379328110E+03 -0.48291941012E+02  0.34623836876E+03  0.40588918487E+03  0.17200000000E+03 0. -1.
         -6    1    1    2    0  501  0.11379328110E+03  0.48291941012E+02  0.48121441529E+02  0.21721117726E+03  0.17200000000E+03 0.  1.
</event>
<event>
 4    1  0.3211568E-002  0.2690170E+03  0.7818608E-02  0.1101844E+00
          2   -1    0    0  502    0  0.00000000000E+00  0.00000000000E+00  0.73490265316E+03  0.73490265316E+03  0.00000000000E+00 0. -1.
         -2   -1    0    0    0  501 -0.00000000000E+00 -0.00000000000E+00 -0.98815414838E+02  0.98815414838E+02  0.00000000000E+00 0.  1.
          6    1    1    2  502    0  0.77723868642E+02  0.19169027121E+03  0.29360698655E+03  0.39821504541E+03  0.17200000000E+03 0.  1.
         -6    1    1    2    0  501 -0.77723868642E+02 -0.19169027121E+03  0.34248025177E+03  0.43550302259E+03  0.17200000000E+03 0.  1.
</event>
<event>
 4    1  0.3211568E-002  0.2034844E+03  0.7818608E-02  0.1146832E+00
          1   -1    0    0  502    0  0.00000000000E+00  0.00000000000E+00  0.14201352485E+04  0.14201352485E+04  0.00000000000E+00 0. -1.
         -1   -1    0    0    0  501 -0.00000000000E+00 -0.00000000000E+00 -0.40236591315E+02  0.40236591315E+02  0.00000000000E+00 0.  1.
          6    1    1    2  502    0  0.10470566444E+03 -0.29302404098E+02  0.10731252482E+04  0.10922470899E+04  0.17200000000E+03 0. -1.
         -6    1    1    2    0  501 -0.10470566444E+03  0.29302404098E+02  0.30677340904E+03  0.36812474998E+03  0.17200000000E+03 0.  1.
</event>
<event>
 4    1  0.3211568E-002  0.3710120E+03  0.7818608E-02  0.1054307E+00
         -1   -1    0    0    0  501 -0.00000000000E+00  0.00000000000E+00  0.11304681452E+03  0.11304681452E+03  0.00000000000E+00 0.  1.
          1   -1    0    0  502    0  0.00000000000E+00 -0.00000000000E+00 -0.12201773131E+04  0.12201773131E+04  0.00000000000E+00 0. -1.
          6    1    1    2  502    0 -0.25318819339E+03  0.20967036879E+03 -0.52314588455E+03  0.64135134002E+03  0.17200000000E+03 0. -1.
         -6    1    1    2    0  501  0.25318819339E+03 -0.20967036879E+03 -0.58398461406E+03  0.69187278764E+03  0.17200000000E+03 0.  1.
</event>
<event>
 4    1  0.3211568E-002  0.2062736E+03  0.7818608E-02  0.1144551E+00
          2   -1    0    0  502    0  0.00000000000E+00  0.00000000000E+00  0.53485759106E+03  0.53485759106E+03  0.00000000000E+00 0. -1.
         -2   -1    0    0    0  501 -0.00000000000E+00 -0.00000000000E+00 -0.19427384565E+03  0.19427384565E+03  0.00000000000E+00 0.  1.
          6    1    1    2  502    0 -0.85592917592E+02 -0.75090961441E+02  0.45044301521E+03  0.49542679578E+03  0.17200000000E+03 0. -1.
         -6    1    1    2    0  501  0.85592917592E+02  0.75090961441E+02 -0.10985926980E+03  0.23370464093E+03  0.17200000000E+03 0.  1.
</event>
<event>
 4    1  0.3211568E-002  0.1937695E+03  0.7818608E-02  0.1155105E+00
          2   -1    0    0  502    0  0.00000000000E+00  0.00000000000E+00  0.17840150976E+04  0.17840150976E+04  0.00000000000E+00 0. -1.
         -2   -1    0    0    0  501 -0.00000000000E+00 -0.00000000000E+00 -0.60266583387E+02  0.60266583387E+02  0.00000000000E+00 0.  1.
          6    1    1    2  502    0  0.37879923302E+02 -0.80794389311E+02  0.16057754420E+04  0.16174243079E+04  0.17200000000E+03 0. -1.
         -6    1    1    2    0  501 -0.37879923302E+02  0.80794389311E+02  0.11797307229E+03  0.22685737307E+03  0.17200000000E+03 0.  1.
</event>
<event>
 4    1  0.3211568E-002  0.1894617E+03  0.7818608E-02  0.1158948E+00
         -2   -1    0    0    0  501 -0.00000000000E+00  0.00000000000E+00  0.25856325030E+02  0.25856325030E+02  0.00000000000E+00 0.  1.
          2   -1    0    0  502    0  0.00000000000E+00 -0.00000000000E+00 -0.13883265151E+04  0.13883265151E+04  0.00000000000E+00 0. -1.
          6    1    1    2  502    0  0.64928484255E+02  0.45782397535E+02 -0.68546669515E+03  0.71116828259E+03  0.17200000000E+03 0.  1.
         -6    1    1    2    0  501 -0.64928484255E+02 -0.45782397535E+02 -0.67700349494E+03  0.70301455757E+03  0.17200000000E+03 0. -1.
</event>
<event>
 4    1  0.3211568E-002  0.3073523E+03  0.7818608E-02  0.1081622E+00
          1   -1    0    0  502    0  0.00000000000E+00  0.00000000000E+00  0.26479185587E+04  0.26479185587E+04  0.00000000000E+00 0. -1.
         -1   -1    0    0    0  501 -0.00000000000E+00 -0.00000000000E+00 -0.40999843481E+02  0.40999843481E+02  0.00000000000E+00 0.  1.
          6    1    1    2  502    0 -0.12296167871E+03 -0.22307367905E+03  0.17879611409E+04  0.18141859006E+04  0.17200000000E+03 0. -1.
         -6    1    1    2    0  501  0.12296167871E+03  0.22307367905E+03  0.81895757432E+03  0.87473250154E+03  0.17200000000E+03 0.  1.
</event>
<event>
 4    1  0.3211568E-002  0.3846556E+03  0.7818608E-02  0.1049226E+00
          1   -1    0    0  502    0  0.00000000000E+00  0.00000000000E+00  0.13479722346E+04  0.13479722346E+04  0.00000000000E+00 0. -1.
         -1   -1    0    0    0  501 -0.00000000000E+00 -0.00000000000E+00 -0.14235881522E+03  0.14235881522E+03  0.00000000000E+00 0.  1.
          6    1    1    2  502    0 -0.32447855624E+03 -0.11440990149E+03  0.95936392177E+03  0.10336049020E+04  0.17200000000E+03 0. -1.
         -6    1    1    2    0  501  0.32447855624E+03  0.11440990149E+03  0.24624949757E+03  0.45672614778E+03  0.17200000000E+03 0.  1.
</event>
<event>
 4    1  0.3211568E-002  0.3119064E+03  0.7818608E-02  0.1079436E+00
          1   -1    0    0  502    0  0.00000000000E+00  0.00000000000E+00  0.98382573450E+03  0.98382573450E+03  0.00000000000E+00 0. -1.
         -1   -1    0    0    0  501 -0.00000000000E+00 -0.00000000000E+00 -0.10024559839E+03  0.10024559839E+03  0.00000000000E+00 0.  1.
          6    1    1    2  502    0  0.23592956256E+03 -0.10972155987E+03  0.50493882682E+03  0.59350551642E+03  0.17200000000E+03 0. -1.
         -6    1    1    2    0  501 -0.23592956256E+03  0.10972155987E+03  0.37864130929E+03  0.49056581647E+03  0.17200000000E+03 0.  1.
</event>
<event>
 4    1  0.3211568E-002  0.3446776E+03  0.7818608E-02  0.1064821E+00
          1   -1    0    0  502    0  0.00000000000E+00  0.00000000000E+00  0.96172632113E+03  0.96172632113E+03  0.00000000000E+00 0. -1.
         -1   -1    0    0    0  501 -0.00000000000E+00 -0.00000000000E+00 -0.18484080308E+03  0.18484080308E+03  0.00000000000E+00 0.  1.
          6    1    1    2  502    0 -0.55757129117E+02 -0.29344467258E+03  0.71861224164E+03  0.79699823535E+03  0.17200000000E+03 0. -1.
         -6    1    1    2    0  501  0.55757129117E+02  0.29344467258E+03  0.58273276405E+02  0.34956888886E+03  0.17200000000E+03 0.  1.
</event>
<event>
 4    1  0.3211568E-002  0.3937709E+03  0.7818608E-02  0.1045958E+00
          1   -1    0    0  502    0  0.00000000000E+00  0.00000000000E+00  0.19886679387E+03  0.19886679387E+03  0.00000000000E+00 0. -1.
         -1   -1    0    0    0  501 -0.00000000000E+00 -0.00000000000E+00 -0.80687803286E+03  0.80687803286E+03  0.00000000000E+00 0.  1.
          6    1    1    2  502    0  0.27299849769E+03 -0.22570639543E+03 -0.39630490276E+03  0.55867086252E+03  0.17200000000E+03 0. -1.
         -6    1    1    2    0  501 -0.27299849769E+03  0.22570639543E+03 -0.21170633623E+03  0.44707396422E+03  0.17200000000E+03 0.  1.
</event>
<event>
 4    1  0.3211568E-002  0.1987135E+03  0.7818608E-02  0.1150829E+00
          2   -1    0    0  502    0  0.00000000000E+00  0.00000000000E+00  0.96591560855E+02  0.96591560855E+02  0.00000000000E+00 0. -1.
         -2   -1    0    0    0  501 -0.00000000000E+00 -0.00000000000E+00 -0.40964688047E+03  0.40964688047E+03  0.00000000000E+00 0.  1.
          6    1    1    2  502    0 -0.14658297036E+02  0.98428661575E+02 -0.14504960838E+03  0.24602125108E+03  0.17200000000E+03 0.  1.
         -6    1    1    2    0  501  0.14658297036E+02 -0.98428661575E+02 -0.16800571123E+03  0.26021719024E+03  0.17200000000E+03 0.  1.
</event>
<event>
 4    1  0.3211568E-002  0.2385579E+03  0.7818608E-02  0.1120757E+00
         -1   -1    0    0    0  501 -0.00000000000E+00  0.00000000000E+00  0.41225922924E+02  0.41225922924E+02  0.00000000000E+00 0.  1.
          1   -1    0    0  502    0  0.00000000000E+00 -0.00000000000E+00 -0.18188393262E+04  0.18188393262E+04  0.00000000000E+00 0. -1.
          6    1    1    2  502    0 -0.11693094554E+02  0.16489133782E+03 -0.13454071467E+04  0.13663931617E+04  0.17200000000E+03 0. -1.
         -6    1    1    2    0  501  0.11693094554E+02 -0.16489133782E+03 -0.43220625656E+03  0.49367208748E+03  0.17200000000E+03 0.  1.
</event>
<event>
 4    1  0.3211568E-002  0.7026313E+03  0.7818608E-02  0.9712743E-01
          1   -1    0    0  502    0  0.00000000000E+00  0.00000000000E+00  0.96970167297E+03  0.96970167297E+03  0.00000000000E+00 0. -1.
         -1   -1    0    0    0  501 -0.00000000000E+00 -0.00000000000E+00 -0.51049825342E+03  0.51049825342E+03  0.00000000000E+00 0.  1.
          6    1    1    2  502    0  0.15854537050E+02  0.68106931656E+03  0.26811085349E+03  0.75204668077E+03  0.17200000000E+03 0. -1.
         -6    1    1    2    0  501 -0.15854537050E+02 -0.68106931656E+03  0.19109256605E+03  0.72815324562E+03  0.17200000000E+03 0.  1.
</event>
<event>
 4    1  0.3211568E-002  0.5708210E+03  0.7818608E-02  0.9967864E-01
         -2   -1    0    0    0  501 -0.00000000000E+00  0.00000000000E+00  0.34750757562E+03  0.34750757562E+03  0.00000000000E+00 0.  1.
          2   -1    0    0  502    0  0.00000000000E+00 -0.00000000000E+00 -0.14571154012E+04  0.14571154012E+04  0.00000000000E+00 0. -1.
          6    1    1    2  502    0 -0.15505015467E+02 -0.54406999732E+03 -0.10935604220E+04  0.12335764930E+04  0.17200000000E+03 0. -1.
         -6    1    1    2    0  501  0.15505015467E+02  0.54406999732E+03 -0.16047403526E+02  0.57104648379E+03  0.17200000000E+03 0.  1.
</event>
<event>
 4    1  0.3211568E-002  0.2858236E+03  0.7818608E-02  0.1092550E+00
          2   -1    0    0  502    0  0.00000000000E+00  0.00000000000E+00  0.54990245959E+03  0.54990245959E+03  0.00000000000E+00 0. -1.
         -2   -1    0    0    0  501 -0.00000000000E+00 -0.00000000000E+00 -0.18029135151E+03  0.18029135151E+03  0.00000000000E+00 0.  1.
          6    1    1    2  502    0 -0.72656730966E+02 -0.21640735020E+03  0.33796531317E+03  0.44262364903E+03  0.17200000000E+03 0.  1.
         -6    1    1    2    0  501  0.72656730966E+02  0.21640735020E+03  0.31645794902E+02  0.28757016206E+03  0.17200000000E+03 0.  1.
</event>
<event>
 4    1  0.3211568E-002  0.4617090E+03  0.7818608E-02  0.1024287E+00
         -2   -1    0    0    0  501 -0.00000000000E+00  0.00000000000E+00  0.12461079097E+03  0.12461079097E+03  0.00000000000E+00 0.  1.
          2   -1    0    0  502    0  0.00000000000E+00 -0.00000000000E+00 -0.17197371217E+04  0.17197371217E+04  0.00000000000E+00 0. -1.
          6    1    1    2  502    0  0.42318607754E+03 -0.67117153273E+02 -0.73081748121E+03  0.86444743006E+03  0.17200000000E+03 0. -1.
         -6    1    1    2    0  501 -0.42318607754E+03  0.67117153273E+02 -0.86430884956E+03  0.97990048266E+03  0.17200000000E+03 0.  1.
</event>
<event>
 4    1  0.3211568E-002  0.2055559E+03  0.7818608E-02  0.1145134E+00
         -1   -1    0    0    0  501 -0.00000000000E+00  0.00000000000E+00  0.97969792423E+02  0.97969792423E+02  0.00000000000E+00 0.  1.
          1   -1    0    0  502    0  0.00000000000E+00 -0.00000000000E+00 -0.70194244278E+03  0.70194244278E+03  0.00000000000E+00 0. -1.
          6    1    1    2  502    0  0.84651094668E+02  0.74184999619E+02 -0.55033906678E+03  0.58747451895E+03  0.17200000000E+03 0.  1.
         -6    1    1    2    0  501 -0.84651094668E+02 -0.74184999619E+02 -0.53633583576E+02  0.21243771625E+03  0.17200000000E+03 0. -1.
</event>
<event>
 4    1  0.3211568E-002  0.2584984E+03  0.7818608E-02  0.1108049E+00
          2   -1    0    0  502    0  0.00000000000E+00  0.00000000000E+00  0.32811090208E+03  0.32811090208E+03  0.00000000000E+00 0. -1.
         -2   -1    0    0    0  501 -0.00000000000E+00 -0.00000000000E+00 -0.37176468668E+03  0.37176468668E+03  0.00000000000E+00 0.  1.
          6    1    1    2  502    0  0.12801367263E+03 -0.14439509130E+03  0.21348998975E+03  0.33526022504E+03  0.17200000000E+03 0. -1.
         -6    1    1    2    0  501 -0.12801367263E+03  0.14439509130E+03 -0.25714377436E+03  0.36461536372E+03  0.17200000000E+03 0.  1.
</event>
<event>
 4    1  0.3211568E-002  0.2398313E+03  0.7818608E-02  0.1119905E+00
          1   -1    0    0  502    0  0.00000000000E+00  0.00000000000E+00  0.11810336162E+04  0.11810336162E+04  0.00000000000E+00 0. -1.
         -1   -1    0    0    0  501 -0.00000000000E+00 -0.00000000000E+00 -0.73213497319E+02  0.73213497319E+02  0.00000000000E+00 0.  1.
          6    1    1    2  502    0  0.34527502799E+02  0.16353252115E+03  0.91677077093E+03  0.94762211897E+03  0.17200000000E+03 0. -1.
         -6    1    1    2    0  501 -0.34527502799E+02 -0.16353252115E+03  0.19104934791E+03  0.30662499451E+03  0.17200000000E+03 0.  1.
</event>
<event>
 4    1  0.3211568E-002  0.2444101E+03  0.7818608E-02  0.1116889E+00
         -2   -1    0    0    0  501 -0.00000000000E+00  0.00000000000E+00  0.49583874065E+02  0.49583874065E+02  0.00000000000E+00 0.  1.
          2   -1    0    0  502    0  0.00000000000E+00 -0.00000000000E+00 -0.12537590929E+04  0.12537590929E+04  0.00000000000E+00 0. -1.
          6    1    1    2  502    0 -0.60355410833E+02 -0.16281745981E+03 -0.73092695605E+03  0.77070780190E+03  0.17200000000E+03 0. -1.
         -6    1    1    2    0  501  0.60355410833E+02  0.16281745981E+03 -0.47324826283E+03  0.53263516511E+03  0.17200000000E+03 0.  1.
</event>
<event>
 4    1  0.3211568E-002  0.2188754E+03  0.7818608E-02  0.1134724E+00
         -2   -1    0    0    0  501 -0.00000000000E+00  0.00000000000E+00  0.21646289972E+02  0.21646289972E+02  0.00000000000E+00 0.  1.
          2   -1    0    0  502    0  0.00000000000E+00 -0.00000000000E+00 -0.25730862120E+04  0.25730862120E+04  0.00000000000E+00 0. -1.
          6    1    1    2  502    0 -0.60623262377E+02 -0.12102588172E+03 -0.17609519091E+04  0.17745022035E+04  0.17200000000E+03 0. -1.
         -6    1    1    2    0  501  0.60623262377E+02  0.12102588172E+03 -0.79048801298E+03  0.82023029855E+03  0.17200000000E+03 0. -1.
</event>
<event>
 4    1  0.3211568E-002  0.2801088E+03  0.7818608E-02  0.1095630E+00
         -1   -1    0    0    0  501 -0.00000000000E+00  0.00000000000E+00  0.30437659040E+03  0.30437659040E+03  0.00000000000E+00 0.  1.
          1   -1    0    0  502    0  0.00000000000E+00 -0.00000000000E+00 -0.30740426874E+03  0.30740426874E+03  0.00000000000E+00 0. -1.
          6    1    1    2  502    0 -0.19773147150E+03  0.98889988280E+02 -0.12442058662E+03  0.30649869001E+03  0.17200000000E+03 0. -1.
         -6    1    1    2    0  501  0.19773147150E+03 -0.98889988280E+02  0.12139290829E+03  0.30528216913E+03  0.17200000000E+03 0.  1.
</event>
<event>
 4    1  0.3211568E-002  0.2986373E+03  0.7818608E-02  0.1085924E+00
          2   -1    0    0  502    0  0.00000000000E+00  0.00000000000E+00  0.43847302303E+03  0.43847302303E+03  0.00000000000E+00 0. -1.
         -2   -1    0    0    0  501 -0.00000000000E+00 -0.00000000000E+00 -0.20727661881E+03  0.20727661881E+03  0.00000000000E+00 0.  1.
          6    1    1    2  502    0  0.12108448120E+03  0.21198774487E+03  0.15976880902E+03  0.33868913165E+03  0.17200000000E+03 0. -1.
         -6    1    1    2    0  501 -0.12108448120E+03 -0.21198774487E+03  0.71427595201E+02  0.30706051019E+03  0.17200000000E+03 0.  1.
</event>
<event>
 4    1  0.3211568E-002  0.2555675E+03  0.7818608E-02  0.1109836E+00
          1   -1    0    0  502    0  0.00000000000E+00  0.00000000000E+00  0.36060579676E+03  0.36060579676E+03  0.00000000000E+00 0. -1.
         -1   -1    0    0    0  501 -0.00000000000E+00 -0.00000000000E+00 -0.19984395766E+03  0.19984395766E+03  0.00000000000E+00 0.  1.
          6    1    1    2  502    0 -0.15919562665E+03 -0.10191917123E+03 -0.53822294202E+01  0.25562420347E+03  0.17200000000E+03 0. -1.
         -6    1    1    2    0  501  0.15919562665E+03  0.10191917123E+03  0.16614406852E+03  0.30482555095E+03  0.17200000000E+03 0. -1.
</event>
<event>
 4    1  0.3211568E-002  0.1724750E+03  0.7818608E-02  0.1175291E+00
          1   -1    0    0  502    0  0.00000000000E+00  0.00000000000E+00  0.17148662147E+04  0.17148662147E+04  0.00000000000E+00 0. -1.
         -1   -1    0    0    0  501 -0.00000000000E+00 -0.00000000000E+00 -0.10461864998E+03  0.10461864998E+03  0.00000000000E+00 0.  1.
          6    1    1    2  502    0 -0.12789363679E+02  0.23173850000E+00  0.16360275446E+04  0.16450938418E+04  0.17200000000E+03 0. -1.
         -6    1    1    2    0  501  0.12789363679E+02 -0.23173850000E+00 -0.25779979836E+02  0.17439102295E+03  0.17200000000E+03 0.  1.
</event>
<event>
 4    1  0.3211568E-002  0.1998054E+03  0.7818608E-02  0.1149903E+00
          2   -1    0    0  502    0  0.00000000000E+00  0.00000000000E+00  0.80895730309E+03  0.80895730309E+03  0.00000000000E+00 0. -1.
         -2   -1    0    0    0  501 -0.00000000000E+00 -0.00000000000E+00 -0.72449026935E+02  0.72449026935E+02  0.00000000000E+00 0.  1.
          6    1    1    2  502    0 -0.36522514821E+02  0.94890996915E+02  0.61709687070E+03  0.64863760545E+03  0.17200000000E+03 0.  1.
         -6    1    1    2    0  501  0.36522514821E+02 -0.94890996915E+02  0.11941140545E+03  0.23276872457E+03  0.17200000000E+03 0.  1.
</event>
<event>
 4    1  0.3211568E-002  0.3253787E+03  0.7818608E-02  0.1073200E+00
         -2   -1    0    0    0  501 -0.00000000000E+00  0.00000000000E+00  0.38879335682E+03  0.38879335682E+03  0.00000000000E+00 0.  1.
          2   -1    0    0  502    0  0.00000000000E+00 -0.00000000000E+00 -0.63621314765E+03  0.63621314765E+03  0.00000000000E+00 0. -1.
          6    1    1    2  502    0  0.20205054373E+03  0.18831584865E+03 -0.51131528289E+03  0.60606484767E+03  0.17200000000E+03 0. -1.
         -6    1    1    2    0  501 -0.20205054373E+03 -0.18831584865E+03  0.26389549206E+03  0.41894165680E+03  0.17200000000E+03 0.  1.
</event>
<event>
 4    1  0.3211568E-002  0.6314255E+03  0.7818608E-02  0.9842271E-01
          1   -1    0    0  502    0  0.00000000000E+00  0.00000000000E+00  0.52059898432E+03  0.52059898432E+03  0.00000000000E+00 0. -1.
         -1   -1    0    0    0  501 -0.00000000000E+00 -0.00000000000E+00 -0.17740371854E+04  0.17740371854E+04  0.00000000000E+00 0.  1.
          6    1    1    2  502    0 -0.56399549259E+03 -0.22588338920E+03  0.23819724620E+03  0.67486009607E+03  0.17200000000E+03 0. -1.
         -6    1    1    2    0  501  0.56399549259E+03  0.22588338920E+03 -0.14916354473E+04  0.16197760737E+04  0.17200000000E+03 0.  1.
</event>
<event>
 4    1  0.3211568E-002  0.2228645E+03  0.7818608E-02  0.1131765E+00
         -2   -1    0    0    0  501 -0.00000000000E+00  0.00000000000E+00  0.90206555443E+02  0.90206555443E+02  0.00000000000E+00 0.  1.
          2   -1    0    0  502    0  0.00000000000E+00 -0.00000000000E+00 -0.10345264697E+04  0.10345264697E+04  0.00000000000E+00 0. -1.
          6    1    1    2  502    0 -0.13885053632E+03  0.28374475344E+02 -0.85678193291E+03  0.88529309432E+03  0.17200000000E+03 0. -1.
         -6    1    1    2    0  501  0.13885053632E+03 -0.28374475344E+02 -0.87537981327E+02  0.23943993080E+03  0.17200000000E+03 0.  1.
</event>
<event>
 4    1  0.3211568E-002  0.3821458E+03  0.7818608E-02  0.1050143E+00
          2   -1    0    0  502    0  0.00000000000E+00  0.00000000000E+00  0.52224990777E+03  0.52224990777E+03  0.00000000000E+00 0. -1.
         -2   -1    0    0    0  501 -0.00000000000E+00 -0.00000000000E+00 -0.31913356859E+03  0.31913356859E+03  0.00000000000E+00 0.  1.
          6    1    1    2  502    0  0.23791884610E+03 -0.24463453190E+03  0.24957452060E+03  0.45642400557E+03  0.17200000000E+03 0. -1.
         -6    1    1    2    0  501 -0.23791884610E+03  0.24463453190E+03 -0.46458181428E+02  0.38495947079E+03  0.17200000000E+03 0.  1.
</event>
<event>
 4    1  0.3211568E-002  0.2136836E+03  0.7818608E-02  0.1138682E+00
         -2   -1    0    0    0  501 -0.00000000000E+00  0.00000000000E+00  0.29389887992E+02  0.29389887992E+02  0.00000000000E+00 0.  1.
          2   -1    0    0  502    0  0.00000000000E+00 -0.00000000000E+00 -0.15709061087E+04  0.15709061087E+04  0.00000000000E+00 0. -1.
          6    1    1    2  502    0  0.85817568689E+02  0.93338132554E+02 -0.85469785328E+03  0.88100458709E+03  0.17200000000E+03 0. -1.
         -6    1    1    2    0  501 -0.85817568689E+02 -0.93338132554E+02 -0.68681836746E+03  0.71929140963E+03  0.17200000000E+03 0. -1.
</event>
<event>
 4    1  0.3211568E-002  0.4209350E+03  0.7818608E-02  0.1036762E+00
         -2   -1    0    0    0  501 -0.00000000000E+00  0.00000000000E+00  0.98784844350E+02  0.98784844350E+02  0.00000000000E+00 0.  1.
          2   -1    0    0  502    0  0.00000000000E+00 -0.00000000000E+00 -0.20295418403E+04  0.20295418403E+04  0.00000000000E+00 0. -1.
          6    1    1    2  502    0  0.28396389762E+03 -0.25877942469E+03 -0.13281706059E+04  0.13932779493E+04  0.17200000000E+03 0. -1.
         -6    1    1    2    0  501 -0.28396389762E+03  0.25877942469E+03 -0.60258639011E+03  0.73504873535E+03  0.17200000000E+03 0.  1.
</event>
<event>
 4    1  0.3211568E-002  0.2723026E+03  0.7818608E-02  0.1099969E+00
         -3   -1    0    0    0  501 -0.00000000000E+00  0.00000000000E+00  0.50971879088E+02  0.50971879088E+02  0.00000000000E+00 0.  1.
          3   -1    0    0  502    0  0.00000000000E+00 -0.00000000000E+00 -0.15613235561E+04  0.15613235561E+04  0.00000000000E+00 0. -1.
          6    1    1    2  502    0 -0.16171276080E+03 -0.13569702291E+03 -0.96584379813E+03  0.10034953619E+04  0.17200000000E+03 0. -1.
         -6    1    1    2    0  501  0.16171276080E+03  0.13569702291E+03 -0.54450787890E+03  0.60880007327E+03  0.17200000000E+03 0.  1.
</event>
<event>
 4    1  0.3211568E-002  0.2093395E+03  0.7818608E-02  0.1142090E+00
         -1   -1    0    0    0  501 -0.00000000000E+00  0.00000000000E+00  0.27513560816E+02  0.27513560816E+02  0.00000000000E+00 0.  1.
          1   -1    0    0  502    0  0.00000000000E+00 -0.00000000000E+00 -0.15986148415E+04  0.15986148415E+04  0.00000000000E+00 0. -1.
          6    1    1    2  502    0  0.10324653118E+03  0.59826157570E+02 -0.83467688051E+03  0.86052804149E+03  0.17200000000E+03 0. -1.
         -6    1    1    2    0  501 -0.10324653118E+03 -0.59826157570E+02 -0.73642440022E+03  0.76560036087E+03  0.17200000000E+03 0.  1.
</event>
<event>
 4    1  0.3211568E-002  0.2472578E+03  0.7818608E-02  0.1115050E+00
         -2   -1    0    0    0  501 -0.00000000000E+00  0.00000000000E+00  0.54804103263E+02  0.54804103263E+02  0.00000000000E+00 0.  1.
          2   -1    0    0  502    0  0.00000000000E+00 -0.00000000000E+00 -0.13312854040E+04  0.13312854040E+04  0.00000000000E+00 0. -1.
          6    1    1    2  502    0 -0.17761054200E+03 -0.26335384708E+01 -0.91723248838E+03  0.94997467224E+03  0.17200000000E+03 0. -1.
         -6    1    1    2    0  501  0.17761054200E+03  0.26335384708E+01 -0.35924881238E+03  0.43611483505E+03  0.17200000000E+03 0.  1.
</event>
<event>
 4    1  0.3211568E-002  0.3459474E+03  0.7818608E-02  0.1064291E+00
         -2   -1    0    0    0  501 -0.00000000000E+00  0.00000000000E+00  0.50529012490E+03  0.50529012490E+03  0.00000000000E+00 0.  1.
          2   -1    0    0  502    0  0.00000000000E+00 -0.00000000000E+00 -0.38090136447E+03  0.38090136447E+03  0.00000000000E+00 0. -1.
          6    1    1    2  502    0  0.23417857880E+03 -0.18776578950E+03 -0.21029220931E+03  0.40484862822E+03  0.17200000000E+03 0. -1.
         -6    1    1    2    0  501 -0.23417857880E+03  0.18776578950E+03  0.33468096974E+03  0.48134286115E+03  0.17200000000E+03 0.  1.
</event>
<event>
 4    1  0.3211568E-002  0.1787826E+03  0.7818608E-02  0.1168986E+00
          1   -1    0    0  502    0  0.00000000000E+00  0.00000000000E+00  0.55648230400E+03  0.55648230400E+03  0.00000000000E+00 0. -1.
         -1   -1    0    0    0  501 -0.00000000000E+00 -0.00000000000E+00 -0.67743042964E+02  0.67743042964E+02  0.00000000000E+00 0.  1.
          6    1    1    2  502    0  0.47629010768E+02  0.10521396502E+02  0.36610149235E+03  0.40742302972E+03  0.17200000000E+03 0. -1.
         -6    1    1    2    0  501 -0.47629010768E+02 -0.10521396502E+02  0.12263776869E+03  0.21680231724E+03  0.17200000000E+03 0.  1.
</event>
<event>
 4    1  0.3211568E-002  0.1979276E+03  0.7818608E-02  0.1151499E+00
          2   -1    0    0  502    0  0.00000000000E+00  0.00000000000E+00  0.27031167105E+04  0.27031167105E+04  0.00000000000E+00 0. -1.
         -2   -1    0    0    0  501 -0.00000000000E+00 -0.00000000000E+00 -0.20385498788E+02  0.20385498788E+02  0.00000000000E+00 0.  1.
          6    1    1    2  502    0  0.63794230706E+02 -0.74307605507E+02  0.20735150174E+04  0.20829401939E+04  0.17200000000E+03 0. -1.
         -6    1    1    2    0  501 -0.63794230706E+02  0.74307605507E+02  0.60921619432E+03  0.64056201536E+03  0.17200000000E+03 0. -1.
</event>
<event>
 4    1  0.3211568E-002  0.4443654E+03  0.7818608E-02  0.1029416E+00
          2   -1    0    0  502    0  0.00000000000E+00  0.00000000000E+00  0.38695530443E+03  0.38695530443E+03  0.00000000000E+00 0. -1.
         -2   -1    0    0    0  501 -0.00000000000E+00 -0.00000000000E+00 -0.16918072446E+04  0.16918072446E+04  0.00000000000E+00 0.  1.
          6    1    1    2  502    0  0.26608406377E+03 -0.31157007959E+03  0.21617218076E+03  0.49415691357E+03  0.17200000000E+03 0. -1.
         -6    1    1    2    0  501 -0.26608406377E+03  0.31157007959E+03 -0.15210241209E+04  0.15846056354E+04  0.17200000000E+03 0.  1.
</event>
<event>
 4    1  0.3211568E-002  0.1997582E+03  0.7818608E-02  0.1149943E+00
         -1   -1    0    0    0  501 -0.00000000000E+00  0.00000000000E+00  0.79731883894E+02  0.79731883894E+02  0.00000000000E+00 0.  1.
          1   -1    0    0  502    0  0.00000000000E+00 -0.00000000000E+00 -0.71458846966E+03  0.71458846966E+03  0.00000000000E+00 0. -1.
          6    1    1    2  502    0 -0.17344941610E+02 -0.10009248436E+03 -0.10002527607E+03  0.22340189855E+03  0.17200000000E+03 0.  1.
         -6    1    1    2    0  501  0.17344941610E+02  0.10009248436E+03 -0.53483130969E+03  0.57091845500E+03  0.17200000000E+03 0. -1.
</event>
<event>
 4    1  0.3211568E-002  0.2379583E+03  0.7818608E-02  0.1121160E+00
          2   -1    0    0  502    0  0.00000000000E+00  0.00000000000E+00  0.33014083923E+04  0.33014083923E+04  0.00000000000E+00 0. -1.
         -2   -1    0    0    0  501 -0.00000000000E+00 -0.00000000000E+00 -0.20894856016E+02  0.20894856016E+02  0.00000000000E+00 0.  1.
          6    1    1    2  502    0 -0.11621424645E+03  0.11633735805E+03  0.23433609726E+04  0.23554118068E+04  0.17200000000E+03 0. -1.
         -6    1    1    2    0  501  0.11621424645E+03 -0.11633735805E+03  0.93715256365E+03  0.96689144143E+03  0.17200000000E+03 0.  1.
</event>
<event>
 4    1  0.3211568E-002  0.3944752E+03  0.7818608E-02  0.1045710E+00
         -2   -1    0    0    0  501 -0.00000000000E+00  0.00000000000E+00  0.58286978344E+03  0.58286978344E+03  0.00000000000E+00 0.  1.
          2   -1    0    0  502    0  0.00000000000E+00 -0.00000000000E+00 -0.27022424578E+03  0.27022424578E+03  0.00000000000E+00 0. -1.
          6    1    1    2  502    0  0.16717116267E+03 -0.31317803728E+03  0.20310795266E+03  0.44369304829E+03  0.17200000000E+03 0. -1.
         -6    1    1    2    0  501 -0.16717116267E+03  0.31317803728E+03  0.10953758500E+03  0.40940098094E+03  0.17200000000E+03 0. -1.
</event>
<event>
 4    1  0.3211568E-002  0.1839878E+03  0.7818608E-02  0.1163998E+00
         -1   -1    0    0    0  501 -0.00000000000E+00  0.00000000000E+00  0.24352583036E+03  0.24352583036E+03  0.00000000000E+00 0.  1.
          1   -1    0    0  502    0  0.00000000000E+00 -0.00000000000E+00 -0.59108130028E+03  0.59108130028E+03  0.00000000000E+00 0. -1.
          6    1    1    2  502    0  0.62134296235E+02  0.20170507365E+02 -0.53872821306E+03  0.56927990276E+03  0.17200000000E+03 0. -1.
         -6    1    1    2    0  501 -0.62134296235E+02 -0.20170507365E+02  0.19117274314E+03  0.26532722788E+03  0.17200000000E+03 0.  1.
</event>
<event>
 4    1  0.3211568E-002  0.2367701E+03  0.7818608E-02  0.1121963E+00
          3   -1    0    0  502    0  0.00000000000E+00  0.00000000000E+00  0.41624343273E+03  0.41624343273E+03  0.00000000000E+00 0. -1.
         -3   -1    0    0    0  501 -0.00000000000E+00 -0.00000000000E+00 -0.15033895368E+03  0.15033895368E+03  0.00000000000E+00 0.  1.
          6    1    1    2  502    0  0.57397835988E+02  0.15225491307E+03  0.22437728847E+03  0.32619815713E+03  0.17200000000E+03 0. -1.
         -6    1    1    2    0  501 -0.57397835988E+02 -0.15225491307E+03  0.41527190577E+02  0.24038422928E+03  0.17200000000E+03 0.  1.
</event>
<event>
 4    1  0.3211568E-002  0.2088728E+03  0.7818608E-02  0.1142462E+00
          2   -1    0    0  502    0  0.00000000000E+00  0.00000000000E+00  0.11417254466E+04  0.11417254466E+04  0.00000000000E+00 0. -1.
         -2   -1    0    0    0  501 -0.00000000000E+00 -0.00000000000E+00 -0.38317327407E+02  0.38317327407E+02  0.00000000000E+00 0.  1.
          6    1    1    2  502    0 -0.77254949044E+02 -0.89863884815E+02  0.58260852164E+03  0.61891884317E+03  0.17200000000E+03 0. -1.
         -6    1    1    2    0  501  0.77254949044E+02  0.89863884815E+02  0.52079959758E+03  0.56112393086E+03  0.17200000000E+03 0.  1.
</event>
<event>
 4    1  0.3211568E-002  0.2160888E+03  0.7818608E-02  0.1136833E+00
         -3   -1    0    0    0  501 -0.00000000000E+00  0.00000000000E+00  0.29774276655E+03  0.29774276655E+03  0.00000000000E+00 0.  1.
          3   -1    0    0  502    0  0.00000000000E+00 -0.00000000000E+00 -0.16277786562E+03  0.16277786562E+03  0.00000000000E+00 0. -1.
          6    1    1    2  502    0  0.11889738315E+03 -0.54532216762E+02  0.23459271594E+02  0.21735843165E+03  0.17200000000E+03 0. -1.
         -6    1    1    2    0  501 -0.11889738315E+03  0.54532216762E+02  0.11150562934E+03  0.24316220052E+03  0.17200000000E+03 0.  1.
</event>
<event>
 4    1  0.3211568E-002  0.1897157E+03  0.7818608E-02  0.1158718E+00
         -1   -1    0    0    0  501 -0.00000000000E+00  0.00000000000E+00  0.24224918400E+03  0.24224918400E+03  0.00000000000E+00 0.  1.
          1   -1    0    0  502    0  0.00000000000E+00 -0.00000000000E+00 -0.15163661737E+03  0.15163661737E+03  0.00000000000E+00 0. -1.
          6    1    1    2  502    0 -0.75634012211E+02  0.26220973036E+02  0.73292976784E+02  0.20338117827E+03  0.17200000000E+03 0. -1.
         -6    1    1    2    0  501  0.75634012211E+02 -0.26220973036E+02  0.17319589844E+02  0.19050462310E+03  0.17200000000E+03 0.  1.
</event>
<event>
 4    1  0.3211568E-002  0.3583492E+03  0.7818608E-02  0.1059239E+00
         -2   -1    0    0    0  501 -0.00000000000E+00  0.00000000000E+00  0.22577041230E+03  0.22577041230E+03  0.00000000000E+00 0.  1.
          2   -1    0    0  502    0  0.00000000000E+00 -0.00000000000E+00 -0.11004305211E+04  0.11004305211E+04  0.00000000000E+00 0. -1.
          6    1    1    2  502    0  0.30213190942E+03  0.86870290404E+02 -0.89823390932E+03  0.96707719129E+03  0.17200000000E+03 0. -1.
         -6    1    1    2    0  501 -0.30213190942E+03 -0.86870290404E+02  0.23573800578E+02  0.35912374207E+03  0.17200000000E+03 0.  1.
</event>
<event>
 4    1  0.3211568E-002  0.3507269E+03  0.7818608E-02  0.1062317E+00
         -2   -1    0    0    0  501 -0.00000000000E+00  0.00000000000E+00  0.80318896648E+02  0.80318896648E+02  0.00000000000E+00 0.  1.
          2   -1    0    0  502    0  0.00000000000E+00 -0.00000000000E+00 -0.23228114444E+04  0.23228114444E+04  0.00000000000E+00 0. -1.
          6    1    1    2  502    0 -0.21222796703E+03  0.21996508266E+03 -0.18225575228E+04  0.18559971098E+04  0.17200000000E+03 0. -1.
         -6    1    1    2    0  501  0.21222796703E+03 -0.21996508266E+03 -0.41993502494E+03  0.54713323127E+03  0.17200000000E+03 0.  1.
</event>
<event>
 4    1  0.3211568E-002  0.1758872E+03  0.7818608E-02  0.1171844E+00
         -2   -1    0    0    0  501 -0.00000000000E+00  0.00000000000E+00  0.21736436798E+02  0.21736436798E+02  0.00000000000E+00 0.  1.
          2   -1    0    0  502    0  0.00000000000E+00 -0.00000000000E+00 -0.15593990720E+04  0.15593990720E+04  0.00000000000E+00 0. -1.
          6    1    1    2  502    0 -0.28416983345E+02 -0.23340379888E+02 -0.53523065547E+03  0.56338987640E+03  0.17200000000E+03 0.  1.
         -6    1    1    2    0  501  0.28416983345E+02  0.23340379888E+02 -0.10024319797E+04  0.10177456324E+04  0.17200000000E+03 0. -1.
</event>
<event>
 4    1  0.3211568E-002  0.3037584E+03  0.7818608E-02  0.1083377E+00
          2   -1    0    0  502    0  0.00000000000E+00  0.00000000000E+00  0.49240725605E+04  0.49240725605E+04  0.00000000000E+00 0. -1.
         -2   -1    0    0    0  501 -0.00000000000E+00 -0.00000000000E+00 -0.40568473521E+02  0.40568473521E+02  0.00000000000E+00 0.  1.
          6    1    1    2  502    0  0.24926188855E+03 -0.23530597048E+02  0.42626736549E+04  0.42734828730E+04  0.17200000000E+03 0. -1.
         -6    1    1    2    0  501 -0.24926188855E+03  0.23530597048E+02  0.62083043211E+03  0.69115816100E+03  0.17200000000E+03 0.  1.
</event>
<event>
 4    1  0.3211568E-002  0.1859948E+03  0.7818608E-02  0.1162124E+00
         -2   -1    0    0    0  501 -0.00000000000E+00  0.00000000000E+00  0.15371370110E+03  0.15371370110E+03  0.00000000000E+00 0.  1.
          2   -1    0    0  502    0  0.00000000000E+00 -0.00000000000E+00 -0.23325597368E+03  0.23325597368E+03  0.00000000000E+00 0. -1.
          6    1    1    2  502    0  0.12457155411E+02  0.69676930786E+02 -0.34917369344E+01  0.18602754536E+03  0.17200000000E+03 0.  1.
         -6    1    1    2    0  501 -0.12457155411E+02 -0.69676930786E+02 -0.76050535643E+02  0.20094212942E+03  0.17200000000E+03 0. -1.
</event>
<event>
 4    1  0.3211568E-002  0.1902783E+03  0.7818608E-02  0.1158211E+00
          3   -1    0    0  502    0  0.00000000000E+00  0.00000000000E+00  0.39088764749E+03  0.39088764749E+03  0.00000000000E+00 0. -1.
         -3   -1    0    0    0  501 -0.00000000000E+00 -0.00000000000E+00 -0.16295642452E+03  0.16295642452E+03  0.00000000000E+00 0.  1.
          6    1    1    2  502    0  0.25858304740E+02 -0.77156876952E+02  0.29589276649E+03  0.35179307106E+03  0.17200000000E+03 0. -1.
         -6    1    1    2    0  501 -0.25858304740E+02  0.77156876952E+02 -0.67961543526E+02  0.20205100095E+03  0.17200000000E+03 0.  1.
</event>
<event>
 4    1  0.3211568E-002  0.3818951E+03  0.7818608E-02  0.1050236E+00
          2   -1    0    0  502    0  0.00000000000E+00  0.00000000000E+00  0.10528660419E+04  0.10528660419E+04  0.00000000000E+00 0. -1.
         -2   -1    0    0    0  501 -0.00000000000E+00 -0.00000000000E+00 -0.14665093283E+03  0.14665093283E+03  0.00000000000E+00 0.  1.
          6    1    1    2  502    0 -0.72352880714E+02  0.33320408789E+03  0.31189238254E+03  0.49307277538E+03  0.17200000000E+03 0. -1.
         -6    1    1    2    0  501  0.72352880714E+02 -0.33320408789E+03  0.59432272654E+03  0.70644419936E+03  0.17200000000E+03 0.  1.
</event>
<event>
 4    1  0.3211568E-002  0.1993282E+03  0.7818608E-02  0.1150307E+00
          1   -1    0    0  502    0  0.00000000000E+00  0.00000000000E+00  0.95055365534E+03  0.95055365534E+03  0.00000000000E+00 0. -1.
         -1   -1    0    0    0  501 -0.00000000000E+00 -0.00000000000E+00 -0.41836399893E+02  0.41836399893E+02  0.00000000000E+00 0.  1.
          6    1    1    2  502    0  0.84740847250E+02 -0.54467457278E+02  0.46929363734E+03  0.50987080044E+03  0.17200000000E+03 0. -1.
         -6    1    1    2    0  501 -0.84740847250E+02  0.54467457278E+02  0.43942361810E+03  0.48251925479E+03  0.17200000000E+03 0.  1.
</event>
<event>
 4    1  0.3211568E-002  0.1743593E+03  0.7818608E-02  0.1173377E+00
         -2   -1    0    0    0  501 -0.00000000000E+00  0.00000000000E+00  0.18385215964E+02  0.18385215964E+02  0.00000000000E+00 0.  1.
          2   -1    0    0  502    0  0.00000000000E+00 -0.00000000000E+00 -0.17022426650E+04  0.17022426650E+04  0.00000000000E+00 0. -1.
          6    1    1    2  502    0  0.10828733976E+02 -0.26455664578E+02 -0.69644725190E+03  0.71794145886E+03  0.17200000000E+03 0.  1.
         -6    1    1    2    0  501 -0.10828733976E+02  0.26455664578E+02 -0.98741019710E+03  0.10026864221E+04  0.17200000000E+03 0. -1.
</event>
<event>
 4    1  0.3211568E-002  0.3787068E+03  0.7818608E-02  0.1051413E+00
         -2   -1    0    0    0  501 -0.00000000000E+00  0.00000000000E+00  0.69348335758E+02  0.69348335758E+02  0.00000000000E+00 0.  1.
          2   -1    0    0  502    0  0.00000000000E+00 -0.00000000000E+00 -0.21525896755E+04  0.21525896755E+04  0.00000000000E+00 0. -1.
          6    1    1    2  502    0  0.33627430381E+03 -0.27466838188E+02 -0.12617308515E+04  0.13173395827E+04  0.17200000000E+03 0. -1.
         -6    1    1    2    0  501 -0.33627430381E+03  0.27466838188E+02 -0.82151048828E+03  0.90459842857E+03  0.17200000000E+03 0.  1.
</event>
<event>
 4    1  0.3211568E-002  0.2092815E+03  0.7818608E-02  0.1142136E+00
          1   -1    0    0  502    0  0.00000000000E+00  0.00000000000E+00  0.46342080688E+03  0.46342080688E+03  0.00000000000E+00 0. -1.
         -1   -1    0    0    0  501 -0.00000000000E+00 -0.00000000000E+00 -0.95167294643E+02  0.95167294643E+02  0.00000000000E+00 0.  1.
          6    1    1    2  502    0 -0.95880199669E+02  0.70864130289E+02  0.20730605138E+03  0.29457517986E+03  0.17200000000E+03 0.  1.
         -6    1    1    2    0  501  0.95880199669E+02 -0.70864130289E+02  0.16094746086E+03  0.26401292167E+03  0.17200000000E+03 0.  1.
</event>
<event>
 4    1  0.3211568E-002  0.1819048E+03  0.7818608E-02  0.1165972E+00
         -2   -1    0    0    0  501 -0.00000000000E+00  0.00000000000E+00  0.28736440600E+02  0.28736440600E+02  0.00000000000E+00 0.  1.
          2   -1    0    0  502    0  0.00000000000E+00 -0.00000000000E+00 -0.26367891174E+04  0.26367891174E+04  0.00000000000E+00 0. -1.
          6    1    1    2  502    0  0.58379000613E+02  0.98610222446E+01 -0.23043119772E+04  0.23114807020E+04  0.17200000000E+03 0. -1.
         -6    1    1    2    0  501 -0.58379000613E+02 -0.98610222446E+01 -0.30374069970E+03  0.35404485609E+03  0.17200000000E+03 0.  1.
</event>
<event>
 4    1  0.3211568E-002  0.2257653E+03  0.7818608E-02  0.1129656E+00
          2   -1    0    0  502    0  0.00000000000E+00  0.00000000000E+00  0.14535543277E+04  0.14535543277E+04  0.00000000000E+00 0. -1.
         -2   -1    0    0    0  501 -0.00000000000E+00 -0.00000000000E+00 -0.35614094929E+02  0.35614094929E+02  0.00000000000E+00 0.  1.
          6    1    1    2  502    0  0.14147771817E+03  0.37013655013E+02  0.80136214177E+03  0.83255704769E+03  0.17200000000E+03 0.  1.
         -6    1    1    2    0  501 -0.14147771817E+03 -0.37013655013E+02  0.61657809099E+03  0.65661137493E+03  0.17200000000E+03 0.  1.
</event>
<event>
 4    1  0.3211568E-002  0.1883697E+03  0.7818608E-02  0.1159940E+00
         -2   -1    0    0    0  501 -0.00000000000E+00  0.00000000000E+00  0.57553846798E+02  0.57553846798E+02  0.00000000000E+00 0.  1.
          2   -1    0    0  502    0  0.00000000000E+00 -0.00000000000E+00 -0.65225528620E+03  0.65225528620E+03  0.00000000000E+00 0. -1.
          6    1    1    2  502    0 -0.67174214904E+02 -0.37239490697E+02 -0.38042094301E+03  0.42450353202E+03  0.17200000000E+03 0. -1.
         -6    1    1    2    0  501  0.67174214904E+02  0.37239490697E+02 -0.21428049638E+03  0.28530560097E+03  0.17200000000E+03 0.  1.
</event>
<event>
 4    1  0.3211568E-002  0.2995394E+03  0.7818608E-02  0.1085471E+00
          2   -1    0    0  502    0  0.00000000000E+00  0.00000000000E+00  0.65943365777E+03  0.65943365777E+03  0.00000000000E+00 0. -1.
         -2   -1    0    0    0  501 -0.00000000000E+00 -0.00000000000E+00 -0.16936047752E+03  0.16936047752E+03  0.00000000000E+00 0.  1.
          6    1    1    2  502    0  0.22750920710E+03 -0.91539250640E+02  0.42878462995E+03  0.52304888166E+03  0.17200000000E+03 0.  1.
         -6    1    1    2    0  501 -0.22750920710E+03  0.91539250640E+02  0.61288550294E+02  0.30574525363E+03  0.17200000000E+03 0.  1.
</event>
<event>
 4    1  0.3211568E-002  0.1931088E+03  0.7818608E-02  0.1155687E+00
         -1   -1    0    0    0  501 -0.00000000000E+00  0.00000000000E+00  0.42343335728E+02  0.42343335728E+02  0.00000000000E+00 0.  1.
          1   -1    0    0  502    0  0.00000000000E+00 -0.00000000000E+00 -0.15361574596E+04  0.15361574596E+04  0.00000000000E+00 0. -1.
          6    1    1    2  502    0  0.82970087322E+02 -0.28687399425E+02 -0.12624623541E+04  0.12771461145E+04  0.17200000000E+03 0. -1.
         -6    1    1    2    0  501 -0.82970087322E+02  0.28687399425E+02 -0.23135176976E+03  0.30135468081E+03  0.17200000000E+03 0.  1.
</event>
<event>
 4    1  0.3211568E-002  0.1753055E+03  0.7818608E-02  0.1172425E+00
          3   -1    0    0  502    0  0.00000000000E+00  0.00000000000E+00  0.17151503238E+04  0.17151503238E+04  0.00000000000E+00 0. -1.
         -3   -1    0    0    0  501 -0.00000000000E+00 -0.00000000000E+00 -0.19839208795E+02  0.19839208795E+02  0.00000000000E+00 0.  1.
          6    1    1    2  502    0  0.23992742373E+02  0.23923938566E+02  0.11176132623E+04  0.11312786618E+04  0.17200000000E+03 0. -1.
         -6    1    1    2    0  501 -0.23992742373E+02 -0.23923938566E+02  0.57769785269E+03  0.60371087080E+03  0.17200000000E+03 0.  1.
</event>
<event>
 4    1  0.3211568E-002  0.3335628E+03  0.7818608E-02  0.1069571E+00
          2   -1    0    0  502    0  0.00000000000E+00  0.00000000000E+00  0.77366526303E+03  0.77366526303E+03  0.00000000000E+00 0. -1.
         -2   -1    0    0    0  501 -0.00000000000E+00 -0.00000000000E+00 -0.14610888669E+03  0.14610888669E+03  0.00000000000E+00 0.  1.
          6    1    1    2  502    0  0.13264398258E+01 -0.28579435449E+03  0.37140965974E+03  0.49920868167E+03  0.17200000000E+03 0. -1.
         -6    1    1    2    0  501 -0.13264398258E+01  0.28579435449E+03  0.25614671660E+03  0.42056546806E+03  0.17200000000E+03 0.  1.
</event>
<event>
 4    1  0.3211568E-002  0.1726110E+03  0.7818608E-02  0.1175152E+00
          1   -1    0    0  502    0  0.00000000000E+00  0.00000000000E+00  0.57093320389E+02  0.57093320389E+02  0.00000000000E+00 0. -1.
         -1   -1    0    0    0  501 -0.00000000000E+00 -0.00000000000E+00 -0.12782281257E+04  0.12782281257E+04  0.00000000000E+00 0.  1.
          6    1    1    2  502    0 -0.12407656691E+02 -0.75233992552E+01 -0.96974396090E+02  0.19798632523E+03  0.17200000000E+03 0. -1.
         -6    1    1    2    0  501  0.12407656691E+02  0.75233992552E+01 -0.11241604092E+04  0.11373351208E+04  0.17200000000E+03 0.  1.
</event>
<event>
 4    1  0.3211568E-002  0.1723440E+03  0.7818608E-02  0.1175425E+00
         -2   -1    0    0    0  501 -0.00000000000E+00  0.00000000000E+00  0.20636279272E+02  0.20636279272E+02  0.00000000000E+00 0.  1.
          2   -1    0    0  502    0  0.00000000000E+00 -0.00000000000E+00 -0.20764449836E+04  0.20764449836E+04  0.00000000000E+00 0. -1.
          6    1    1    2  502    0  0.87646622103E+01  0.64535446809E+01 -0.16087130420E+04  0.16179184525E+04  0.17200000000E+03 0. -1.
         -6    1    1    2    0  501 -0.87646622103E+01 -0.64535446809E+01 -0.44709566236E+03  0.47916281037E+03  0.17200000000E+03 0.  1.
</event>
<event>
 4    1  0.3211568E-002  0.1994062E+03  0.7818608E-02  0.1150241E+00
          3   -1    0    0  502    0  0.00000000000E+00  0.00000000000E+00  0.11726142253E+03  0.11726142253E+03  0.00000000000E+00 0. -1.
         -3   -1    0    0    0  501 -0.00000000000E+00 -0.00000000000E+00 -0.35546679541E+03  0.35546679541E+03  0.00000000000E+00 0.  1.
          6    1    1    2  502    0 -0.18149676565E+02  0.99244227714E+02 -0.68377603447E+02  0.21080399462E+03  0.17200000000E+03 0.  1.
         -6    1    1    2    0  501  0.18149676565E+02 -0.99244227714E+02 -0.16982776944E+03  0.26192422333E+03  0.17200000000E+03 0. -1.
</event>
<event>
 4    1  0.3211568E-002  0.4486059E+03  0.7818608E-02  0.1028139E+00
          2   -1    0    0  502    0  0.00000000000E+00  0.00000000000E+00  0.20678833801E+03  0.20678833801E+03  0.00000000000E+00 0. -1.
         -2   -1    0    0    0  501 -0.00000000000E+00 -0.00000000000E+00 -0.10144061230E+04  0.10144061230E+04  0.00000000000E+00 0.  1.
          6    1    1    2  502    0 -0.69075828962E+02 -0.40852393671E+03 -0.28075150396E+03  0.52921515850E+03  0.17200000000E+03 0. -1.
         -6    1    1    2    0  501  0.69075828962E+02  0.40852393671E+03 -0.52686628101E+03  0.69197930249E+03  0.17200000000E+03 0. -1.
</event>
<event>
 4    1  0.3211568E-002  0.1849447E+03  0.7818608E-02  0.1163102E+00
          1   -1    0    0  502    0  0.00000000000E+00  0.00000000000E+00  0.15066494949E+04  0.15066494949E+04  0.00000000000E+00 0. -1.
         -1   -1    0    0    0  501 -0.00000000000E+00 -0.00000000000E+00 -0.23925033043E+02  0.23925033043E+02  0.00000000000E+00 0.  1.
          6    1    1    2  502    0 -0.67809275764E+02 -0.47391604373E+01  0.56836206907E+03  0.59769557392E+03  0.17200000000E+03 0. -1.
         -6    1    1    2    0  501  0.67809275764E+02  0.47391604373E+01  0.91436239278E+03  0.93287895402E+03  0.17200000000E+03 0. -1.
</event>
<event>
 4    1  0.3211568E-002  0.7501451E+03  0.7818608E-02  0.9635123E-01
         -2   -1    0    0    0  501 -0.00000000000E+00  0.00000000000E+00  0.83760483710E+03  0.83760483710E+03  0.00000000000E+00 0.  1.
          2   -1    0    0  502    0  0.00000000000E+00 -0.00000000000E+00 -0.98134312501E+03  0.98134312501E+03  0.00000000000E+00 0. -1.
          6    1    1    2  502    0  0.29663767018E+03 -0.66718795123E+03 -0.58264230955E+03  0.94983668624E+03  0.17200000000E+03 0. -1.
         -6    1    1    2    0  501 -0.29663767018E+03  0.66718795123E+03  0.43890402164E+03  0.86911127588E+03  0.17200000000E+03 0.  1.
</event>
<event>
 4    1  0.3211568E-002  0.1990470E+03  0.7818608E-02  0.1150546E+00
         -2   -1    0    0    0  501 -0.00000000000E+00  0.00000000000E+00  0.70862202395E+02  0.70862202395E+02  0.00000000000E+00 0.  1.
          2   -1    0    0  502    0  0.00000000000E+00 -0.00000000000E+00 -0.22542053845E+04  0.22542053845E+04  0.00000000000E+00 0. -1.
          6    1    1    2  502    0 -0.51037167870E+02 -0.86202810741E+02 -0.20997771367E+04  0.21091903045E+04  0.17200000000E+03 0. -1.
         -6    1    1    2    0  501  0.51037167870E+02  0.86202810741E+02 -0.83566045423E+02  0.21587728234E+03  0.17200000000E+03 0.  1.
</event>
<event>
 4    1  0.3211568E-002  0.2505912E+03  0.7818608E-02  0.1112932E+00
          1   -1    0    0  502    0  0.00000000000E+00  0.00000000000E+00  0.32486424032E+03  0.32486424032E+03  0.00000000000E+00 0. -1.
         -1   -1    0    0    0  501 -0.00000000000E+00 -0.00000000000E+00 -0.27681129205E+03  0.27681129205E+03  0.00000000000E+00 0.  1.
          6    1    1    2  502    0 -0.13651449911E+03  0.12072994425E+03  0.18926666759E+03  0.31403471045E+03  0.17200000000E+03 0. -1.
         -6    1    1    2    0  501  0.13651449911E+03 -0.12072994425E+03 -0.14121371931E+03  0.28764082191E+03  0.17200000000E+03 0.  1.
</event>
<event>
 4    1  0.3211568E-002  0.1986073E+03  0.7818608E-02  0.1150919E+00
         -2   -1    0    0    0  501 -0.00000000000E+00  0.00000000000E+00  0.58989953698E+02  0.58989953698E+02  0.00000000000E+00 0.  1.
          2   -1    0    0  502    0  0.00000000000E+00 -0.00000000000E+00 -0.10734088779E+04  0.10734088779E+04  0.00000000000E+00 0. -1.
          6    1    1    2  502    0 -0.31855835999E+02 -0.94053487170E+02 -0.85488482751E+03  0.87765193616E+03  0.17200000000E+03 0. -1.
         -6    1    1    2    0  501  0.31855835999E+02  0.94053487170E+02 -0.15953409673E+03  0.25474689548E+03  0.17200000000E+03 0.  1.
</event>
<event>
 4    1  0.3211568E-002  0.4234825E+03  0.7818608E-02  0.1035939E+00
          2   -1    0    0  502    0  0.00000000000E+00  0.00000000000E+00  0.31249645685E+03  0.31249645685E+03  0.00000000000E+00 0. -1.
         -2   -1    0    0    0  501 -0.00000000000E+00 -0.00000000000E+00 -0.58464897078E+03  0.58464897078E+03  0.00000000000E+00 0.  1.
          6    1    1    2  502    0 -0.24058440668E+02  0.38623134900E+03 -0.19693787153E+03  0.46703531854E+03  0.17200000000E+03 0. -1.
         -6    1    1    2    0  501  0.24058440668E+02 -0.38623134900E+03 -0.75214642393E+02  0.43011010910E+03  0.17200000000E+03 0. -1.
</event>
<event>
 4    1  0.3211568E-002  0.4829312E+03  0.7818608E-02  0.1018333E+00
         -2   -1    0    0    0  501 -0.00000000000E+00  0.00000000000E+00  0.15314902308E+03  0.15314902308E+03  0.00000000000E+00 0.  1.
          2   -1    0    0  502    0  0.00000000000E+00 -0.00000000000E+00 -0.25901092481E+04  0.25901092481E+04  0.00000000000E+00 0. -1.
          6    1    1    2  502    0 -0.13332787672E+03  0.43111742407E+03 -0.20989473494E+04  0.21537879495E+04  0.17200000000E+03 0. -1.
         -6    1    1    2    0  501  0.13332787672E+03 -0.43111742407E+03 -0.33801287571E+03  0.58947032172E+03  0.17200000000E+03 0.  1.
</event>
<event>
 4    1  0.3211568E-002  0.1823517E+03  0.7818608E-02  0.1165546E+00
         -4   -1    0    0    0  501 -0.00000000000E+00  0.00000000000E+00  0.54647745153E+02  0.54647745153E+02  0.00000000000E+00 0.  1.
          4   -1    0    0  502    0  0.00000000000E+00 -0.00000000000E+00 -0.65118797812E+03  0.65118797812E+03  0.00000000000E+00 0. -1.
          6    1    1    2  502    0  0.54315383630E+02  0.26795070171E+02 -0.20789105646E+03  0.27653359297E+03  0.17200000000E+03 0.  1.
         -6    1    1    2    0  501 -0.54315383630E+02 -0.26795070171E+02 -0.38864917651E+03  0.42930213031E+03  0.17200000000E+03 0. -1.
</event>
<event>
 4    1  0.3211568E-002  0.3186997E+03  0.7818608E-02  0.1076249E+00
          2   -1    0    0  502    0  0.00000000000E+00  0.00000000000E+00  0.15052984424E+03  0.15052984424E+03  0.00000000000E+00 0. -1.
         -2   -1    0    0    0  501 -0.00000000000E+00 -0.00000000000E+00 -0.76692097151E+03  0.76692097151E+03  0.00000000000E+00 0.  1.
          6    1    1    2  502    0  0.18649879324E+03 -0.19288254762E+03 -0.46722698831E+03  0.56557098198E+03  0.17200000000E+03 0. -1.
         -6    1    1    2    0  501 -0.18649879324E+03  0.19288254762E+03 -0.14916413897E+03  0.35187983377E+03  0.17200000000E+03 0.  1.
</event>
<event>
 4    1  0.3211568E-002  0.1949358E+03  0.7818608E-02  0.1154083E+00
          3   -1    0    0  502    0  0.00000000000E+00  0.00000000000E+00  0.63867186625E+02  0.63867186625E+02  0.00000000000E+00 0. -1.
         -3   -1    0    0    0  501 -0.00000000000E+00 -0.00000000000E+00 -0.82959680345E+03  0.82959680345E+03  0.00000000000E+00 0.  1.
          6    1    1    2  502    0 -0.18443489540E+02  0.89865415982E+02 -0.14529603193E+03  0.24312731683E+03  0.17200000000E+03 0. -1.
         -6    1    1    2    0  501  0.18443489540E+02 -0.89865415982E+02 -0.62043358490E+03  0.65033667325E+03  0.17200000000E+03 0.  1.
</event>
<event>
 4    1  0.3211568E-002  0.1724136E+03  0.7818608E-02  0.1175354E+00
          2   -1    0    0  502    0  0.00000000000E+00  0.00000000000E+00  0.11844508582E+03  0.11844508582E+03  0.00000000000E+00 0. -1.
         -2   -1    0    0    0  501 -0.00000000000E+00 -0.00000000000E+00 -0.35979517382E+03  0.35979517382E+03  0.00000000000E+00 0.  1.
          6    1    1    2  502    0 -0.63060366859E+01 -0.10133331153E+02 -0.25218187595E+03  0.30548674121E+03  0.17200000000E+03 0.  1.
         -6    1    1    2    0  501  0.63060366859E+01  0.10133331153E+02  0.10831787942E+02  0.17275351843E+03  0.17200000000E+03 0. -1.
</event>
<event>
 4    1  0.3211568E-002  0.4706594E+03  0.7818608E-02  0.1021734E+00
          2   -1    0    0  502    0  0.00000000000E+00  0.00000000000E+00  0.89000312305E+03  0.89000312305E+03  0.00000000000E+00 0. -1.
         -2   -1    0    0    0  501 -0.00000000000E+00 -0.00000000000E+00 -0.26231388121E+03  0.26231388121E+03  0.00000000000E+00 0.  1.
          6    1    1    2  502    0  0.43366379335E+03 -0.62224960210E+02  0.44414230137E+03  0.64713415549E+03  0.17200000000E+03 0. -1.
         -6    1    1    2    0  501 -0.43366379335E+03  0.62224960210E+02  0.18354694047E+03  0.50518284877E+03  0.17200000000E+03 0.  1.
</event>
<event>
 4    1  0.3211568E-002  0.1915354E+03  0.7818608E-02  0.1157084E+00
          2   -1    0    0  502    0  0.00000000000E+00  0.00000000000E+00  0.20578198707E+04  0.20578198707E+04  0.00000000000E+00 0. -1.
         -2   -1    0    0    0  501 -0.00000000000E+00 -0.00000000000E+00 -0.40923488177E+02  0.40923488177E+02  0.00000000000E+00 0.  1.
          6    1    1    2  502    0 -0.86653934348E+01  0.83825482213E+02  0.22011245395E+03  0.29177952789E+03  0.17200000000E+03 0.  1.
         -6    1    1    2    0  501  0.86653934348E+01 -0.83825482213E+02  0.17967839286E+04  0.18069638310E+04  0.17200000000E+03 0. -1.
</event>
<event>
 4    1  0.3211568E-002  0.2529449E+03  0.7818608E-02  0.1111458E+00
         -2   -1    0    0    0  501 -0.00000000000E+00  0.00000000000E+00  0.36885888484E+02  0.36885888484E+02  0.00000000000E+00 0.  1.
          2   -1    0    0  502    0  0.00000000000E+00 -0.00000000000E+00 -0.17432435948E+04  0.17432435948E+04  0.00000000000E+00 0. -1.
          6    1    1    2  502    0  0.18524270613E+03  0.90689202576E+01 -0.91596677723E+03  0.95025062088E+03  0.17200000000E+03 0. -1.
         -6    1    1    2    0  501 -0.18524270613E+03 -0.90689202576E+01 -0.79039092911E+03  0.82987886243E+03  0.17200000000E+03 0.  1.
</event>
<event>
 4    1  0.3211568E-002  0.1931213E+03  0.7818608E-02  0.1155676E+00
         -1   -1    0    0    0  501 -0.00000000000E+00  0.00000000000E+00  0.50245931622E+02  0.50245931622E+02  0.00000000000E+00 0.  1.
          1   -1    0    0  502    0  0.00000000000E+00 -0.00000000000E+00 -0.80091274816E+03  0.80091274816E+03  0.00000000000E+00 0. -1.
          6    1    1    2  502    0  0.35311026399E+02 -0.80404919551E+02 -0.26017069410E+03  0.32401328637E+03  0.17200000000E+03 0.  1.
         -6    1    1    2    0  501 -0.35311026399E+02  0.80404919551E+02 -0.49049612244E+03  0.52714539342E+03  0.17200000000E+03 0. -1.
</event>
<event>
 4    1  0.3211568E-002  0.1902082E+03  0.7818608E-02  0.1158274E+00
         -1   -1    0    0    0  501 -0.00000000000E+00  0.00000000000E+00  0.71207992438E+02  0.71207992438E+02  0.00000000000E+00 0.  1.
          1   -1    0    0  502    0  0.00000000000E+00 -0.00000000000E+00 -0.15441743772E+04  0.15441743772E+04  0.00000000000E+00 0. -1.
          6    1    1    2  502    0  0.55189474124E+02 -0.59575972967E+02 -0.74880343375E+02  0.20441683011E+03  0.17200000000E+03 0.  1.
         -6    1    1    2    0  501 -0.55189474124E+02  0.59575972967E+02 -0.13980860414E+04  0.14109655396E+04  0.17200000000E+03 0. -1.
</event>
<event>
 4    1  0.3211568E-002  0.2351217E+03  0.7818608E-02  0.1123086E+00
         -1   -1    0    0    0  501 -0.00000000000E+00  0.00000000000E+00  0.59446474341E+02  0.59446474341E+02  0.00000000000E+00 0.  1.
          1   -1    0    0  502    0  0.00000000000E+00 -0.00000000000E+00 -0.25854924828E+04  0.25854924828E+04  0.00000000000E+00 0. -1.
          6    1    1    2  502    0  0.91460649280E+02  0.13165550190E+03 -0.23212631741E+04  0.23331405755E+04  0.17200000000E+03 0. -1.
         -6    1    1    2    0  501 -0.91460649280E+02 -0.13165550190E+03 -0.20478283432E+03  0.31179838162E+03  0.17200000000E+03 0.  1.
</event>
<event>
 4    1  0.3211568E-002  0.1902169E+03  0.7818608E-02  0.1158266E+00
         -2   -1    0    0    0  501 -0.00000000000E+00  0.00000000000E+00  0.11729121250E+04  0.11729121250E+04  0.00000000000E+00 0.  1.
          2   -1    0    0  502    0  0.00000000000E+00 -0.00000000000E+00 -0.42007420772E+02  0.42007420772E+02  0.00000000000E+00 0. -1.
          6    1    1    2  502    0 -0.79762778574E+02  0.15374513090E+02  0.25236370211E+03  0.31602201607E+03  0.17200000000E+03 0. -1.
         -6    1    1    2    0  501  0.79762778574E+02 -0.15374513090E+02  0.87854100208E+03  0.89889752966E+03  0.17200000000E+03 0.  1.
</event>
<event>
 4    1  0.3211568E-002  0.2069420E+03  0.7818608E-02  0.1144011E+00
          3   -1    0    0  502    0  0.00000000000E+00  0.00000000000E+00  0.13906625773E+03  0.13906625773E+03  0.00000000000E+00 0. -1.
         -3   -1    0    0    0  501 -0.00000000000E+00 -0.00000000000E+00 -0.51008641141E+03  0.51008641141E+03  0.00000000000E+00 0.  1.
          6    1    1    2  502    0  0.96101176259E+02  0.63289347704E+02  0.18814651675E+02  0.20779549737E+03  0.17200000000E+03 0. -1.
         -6    1    1    2    0  501 -0.96101176259E+02 -0.63289347704E+02 -0.38983480535E+03  0.44135717177E+03  0.17200000000E+03 0.  1.
</event>
<event>
 4    1  0.3211568E-002  0.2262486E+03  0.7818608E-02  0.1129308E+00
         -2   -1    0    0    0  501 -0.00000000000E+00  0.00000000000E+00  0.89527319979E+02  0.89527319979E+02  0.00000000000E+00 0.  1.
          2   -1    0    0  502    0  0.00000000000E+00 -0.00000000000E+00 -0.10534157575E+04  0.10534157575E+04  0.00000000000E+00 0. -1.
          6    1    1    2  502    0 -0.13051793085E+03  0.67597931818E+02 -0.86836610675E+03  0.89735617566E+03  0.17200000000E+03 0. -1.
         -6    1    1    2    0  501  0.13051793085E+03 -0.67597931818E+02 -0.95522330752E+02  0.24558690179E+03  0.17200000000E+03 0.  1.
</event>
<event>
 4    1  0.3211568E-002  0.1936475E+03  0.7818608E-02  0.1155212E+00
          1   -1    0    0  502    0  0.00000000000E+00  0.00000000000E+00  0.15593373502E+04  0.15593373502E+04  0.00000000000E+00 0. -1.
         -1   -1    0    0    0  501 -0.00000000000E+00 -0.00000000000E+00 -0.63702641575E+02  0.63702641575E+02  0.00000000000E+00 0.  1.
          6    1    1    2  502    0  0.52382373634E+02  0.71912665473E+02  0.13880917198E+04  0.14015341476E+04  0.17200000000E+03 0. -1.
         -6    1    1    2    0  501 -0.52382373634E+02 -0.71912665473E+02  0.10754298882E+03  0.22150584409E+03  0.17200000000E+03 0.  1.
</event>
<event>
 4    1  0.3211568E-002  0.2053125E+04  0.7818608E-02  0.8582178E-01
          2   -1    0    0  502    0  0.00000000000E+00  0.00000000000E+00  0.18180377945E+04  0.18180377945E+04  0.00000000000E+00 0. -1.
         -2   -1    0    0    0  501 -0.00000000000E+00 -0.00000000000E+00 -0.32309554551E+04  0.32309554551E+04  0.00000000000E+00 0.  1.
          6    1    1    2  502    0 -0.20390248654E+04  0.16767920168E+03 -0.20479526924E+04  0.28999022305E+04  0.17200000000E+03 0. -1.
         -6    1    1    2    0  501  0.20390248654E+04 -0.16767920168E+03  0.63503503174E+03  0.21490910190E+04  0.17200000000E+03 0.  1.
</event>
<event>
 4    1  0.3211568E-002  0.4267182E+03  0.7818608E-02  0.1034902E+00
         -2   -1    0    0    0  501 -0.00000000000E+00  0.00000000000E+00  0.32970889981E+03  0.32970889981E+03  0.00000000000E+00 0.  1.
          2   -1    0    0  502    0  0.00000000000E+00 -0.00000000000E+00 -0.55261258559E+03  0.55261258559E+03  0.00000000000E+00 0. -1.
          6    1    1    2  502    0  0.94977702861E+02  0.37879233169E+03 -0.12243316673E+03  0.44393498950E+03  0.17200000000E+03 0. -1.
         -6    1    1    2    0  501 -0.94977702861E+02 -0.37879233169E+03 -0.10047051904E+03  0.43838649590E+03  0.17200000000E+03 0.  1.
</event>
<event>
 4    1  0.3211568E-002  0.1782890E+03  0.7818608E-02  0.1169469E+00
         -2   -1    0    0    0  501 -0.00000000000E+00  0.00000000000E+00  0.30490860394E+02  0.30490860394E+02  0.00000000000E+00 0.  1.
          2   -1    0    0  502    0  0.00000000000E+00 -0.00000000000E+00 -0.13680621508E+04  0.13680621508E+04  0.00000000000E+00 0. -1.
          6    1    1    2  502    0  0.29560052728E+02 -0.36457949696E+02 -0.10099057833E+04  0.10255226326E+04  0.17200000000E+03 0. -1.
         -6    1    1    2    0  501 -0.29560052728E+02  0.36457949696E+02 -0.32766550710E+03  0.37303037860E+03  0.17200000000E+03 0.  1.
</event>
<event>
 4    1  0.3211568E-002  0.3107373E+03  0.7818608E-02  0.1079993E+00
          2   -1    0    0  502    0  0.00000000000E+00  0.00000000000E+00  0.28368101190E+04  0.28368101190E+04  0.00000000000E+00 0. -1.
         -2   -1    0    0    0  501 -0.00000000000E+00 -0.00000000000E+00 -0.10335795945E+03  0.10335795945E+03  0.00000000000E+00 0.  1.
          6    1    1    2  502    0 -0.17262469895E+03 -0.19280651602E+03  0.25706560624E+04  0.25893686934E+04  0.17200000000E+03 0. -1.
         -6    1    1    2    0  501  0.17262469895E+03  0.19280651602E+03  0.16279609719E+03  0.35079938507E+03  0.17200000000E+03 0.  1.
</event>
<event>
 4    1  0.3211568E-002  0.2641176E+03  0.7818608E-02  0.1104694E+00
         -1   -1    0    0    0  501 -0.00000000000E+00  0.00000000000E+00  0.10952336099E+03  0.10952336099E+03  0.00000000000E+00 0.  1.
          1   -1    0    0  502    0  0.00000000000E+00 -0.00000000000E+00 -0.93192651006E+03  0.93192651006E+03  0.00000000000E+00 0. -1.
          6    1    1    2  502    0 -0.10655676024E+03 -0.16976389176E+03 -0.70417616856E+03  0.75207858530E+03  0.17200000000E+03 0. -1.
         -6    1    1    2    0  501  0.10655676024E+03  0.16976389176E+03 -0.11822698051E+03  0.28937128575E+03  0.17200000000E+03 0.  1.
</event>
<event>
 4    1  0.3211568E-002  0.2193451E+03  0.7818608E-02  0.1134372E+00
         -2   -1    0    0    0  501 -0.00000000000E+00  0.00000000000E+00  0.13715375293E+03  0.13715375293E+03  0.00000000000E+00 0.  1.
          2   -1    0    0  502    0  0.00000000000E+00 -0.00000000000E+00 -0.53403028150E+03  0.53403028150E+03  0.00000000000E+00 0. -1.
          6    1    1    2  502    0 -0.12046594010E+03  0.63373892406E+02 -0.39501768420E+03  0.45183101243E+03  0.17200000000E+03 0. -1.
         -6    1    1    2    0  501  0.12046594010E+03 -0.63373892406E+02 -0.18588443731E+01  0.21935302201E+03  0.17200000000E+03 0. -1.
</event>
<event>
 4    1  0.3211568E-002  0.5018036E+03  0.7818608E-02  0.1013309E+00
          2   -1    0    0  502    0  0.00000000000E+00  0.00000000000E+00  0.12899800003E+04  0.12899800003E+04  0.00000000000E+00 0. -1.
         -2   -1    0    0    0  501 -0.00000000000E+00 -0.00000000000E+00 -0.19757473625E+03  0.19757473625E+03  0.00000000000E+00 0.  1.
          6    1    1    2  502    0 -0.25107945715E+03 -0.39897610575E+03  0.62770895317E+03  0.80363260054E+03  0.17200000000E+03 0. -1.
         -6    1    1    2    0  501  0.25107945715E+03  0.39897610575E+03  0.46469631083E+03  0.68392213596E+03  0.17200000000E+03 0.  1.
</event>
<event>
 4    1  0.3211568E-002  0.1850317E+03  0.7818608E-02  0.1163020E+00
         -2   -1    0    0    0  501 -0.00000000000E+00  0.00000000000E+00  0.30488644884E+03  0.30488644884E+03  0.00000000000E+00 0.  1.
          2   -1    0    0  502    0  0.00000000000E+00 -0.00000000000E+00 -0.11848151120E+03  0.11848151120E+03  0.00000000000E+00 0. -1.
          6    1    1    2  502    0 -0.67997823116E+02 -0.53866759049E+01  0.14157998476E+03  0.23298414605E+03  0.17200000000E+03 0.  1.
         -6    1    1    2    0  501  0.67997823116E+02  0.53866759049E+01  0.44824952881E+02  0.19038381398E+03  0.17200000000E+03 0. -1.
</event>
<event>
 4    1  0.3211568E-002  0.2836363E+03  0.7818608E-02  0.1093719E+00
         -2   -1    0    0    0  501 -0.00000000000E+00  0.00000000000E+00  0.17911849293E+03  0.17911849293E+03  0.00000000000E+00 0.  1.
          2   -1    0    0  502    0  0.00000000000E+00 -0.00000000000E+00 -0.56678271500E+03  0.56678271500E+03  0.00000000000E+00 0. -1.
          6    1    1    2  502    0  0.21262170644E+03  0.75216797489E+02 -0.36374357568E+03  0.46125800320E+03  0.17200000000E+03 0. -1.
         -6    1    1    2    0  501 -0.21262170644E+03 -0.75216797489E+02 -0.23920646391E+02  0.28464320472E+03  0.17200000000E+03 0.  1.
</event>
<event>
 4    1  0.3211568E-002  0.1730956E+03  0.7818608E-02  0.1174658E+00
         -1   -1    0    0    0  501 -0.00000000000E+00  0.00000000000E+00  0.14160770381E+04  0.14160770381E+04  0.00000000000E+00 0.  1.
          1   -1    0    0  502    0  0.00000000000E+00 -0.00000000000E+00 -0.22815255728E+02  0.22815255728E+02  0.00000000000E+00 0. -1.
          6    1    1    2  502    0 -0.15860792232E+02 -0.11247700425E+02  0.89050239686E+03  0.90716955103E+03  0.17200000000E+03 0.  1.
         -6    1    1    2    0  501  0.15860792232E+02  0.11247700425E+02  0.50275938554E+03  0.53172274283E+03  0.17200000000E+03 0. -1.
</event>
<event>
 4    1  0.3211568E-002  0.6092067E+03  0.7818608E-02  0.9886487E-01
          2   -1    0    0  502    0  0.00000000000E+00  0.00000000000E+00  0.88603127718E+03  0.88603127718E+03  0.00000000000E+00 0. -1.
         -2   -1    0    0    0  501 -0.00000000000E+00 -0.00000000000E+00 -0.41888684127E+03  0.41888684127E+03  0.00000000000E+00 0.  1.
          6    1    1    2  502    0  0.19513337557E+03 -0.55088270751E+03  0.23758677979E+03  0.65389622237E+03  0.17200000000E+03 0. -1.
         -6    1    1    2    0  501 -0.19513337557E+03  0.55088270751E+03  0.22955765612E+03  0.65102189608E+03  0.17200000000E+03 0.  1.
</event>
<event>
 4    1  0.3211568E-002  0.3636753E+03  0.7818608E-02  0.1057138E+00
          2   -1    0    0  502    0  0.00000000000E+00  0.00000000000E+00  0.33794379346E+03  0.33794379346E+03  0.00000000000E+00 0. -1.
         -2   -1    0    0    0  501 -0.00000000000E+00 -0.00000000000E+00 -0.41483889879E+03  0.41483889879E+03  0.00000000000E+00 0.  1.
          6    1    1    2  502    0 -0.29093954064E+03 -0.13427561767E+03  0.51085206001E+02  0.36724577068E+03  0.17200000000E+03 0. -1.
         -6    1    1    2    0  501  0.29093954064E+03  0.13427561767E+03 -0.12798031133E+03  0.38553692157E+03  0.17200000000E+03 0.  1.
</event>
<event>
 4    1  0.3211568E-002  0.2664660E+03  0.7818608E-02  0.1103319E+00
         -2   -1    0    0    0  501 -0.00000000000E+00  0.00000000000E+00  0.24064935755E+03  0.24064935755E+03  0.00000000000E+00 0.  1.
          2   -1    0    0  502    0  0.00000000000E+00 -0.00000000000E+00 -0.30647367663E+03  0.30647367663E+03  0.00000000000E+00 0. -1.
          6    1    1    2  502    0  0.19197513247E+03 -0.67569977483E+02 -0.85722272338E+02  0.27991509663E+03  0.17200000000E+03 0. -1.
         -6    1    1    2    0  501 -0.19197513247E+03  0.67569977483E+02  0.19897953259E+02  0.26720793755E+03  0.17200000000E+03 0. -1.
</event>
<event>
 4    1  0.3211568E-002  0.1836090E+03  0.7818608E-02  0.1164355E+00
          2   -1    0    0  502    0  0.00000000000E+00  0.00000000000E+00  0.24603834499E+03  0.24603834499E+03  0.00000000000E+00 0. -1.
         -2   -1    0    0    0  501 -0.00000000000E+00 -0.00000000000E+00 -0.17543723993E+03  0.17543723993E+03  0.00000000000E+00 0.  1.
          6    1    1    2  502    0  0.19790198089E+02 -0.61127915919E+02  0.13391540188E+03  0.22725670266E+03  0.17200000000E+03 0.  1.
         -6    1    1    2    0  501 -0.19790198089E+02  0.61127915919E+02 -0.63314296815E+02  0.19421888226E+03  0.17200000000E+03 0.  1.
</event>
<event>
 4    1  0.3211568E-002  0.1941832E+03  0.7818608E-02  0.1154742E+00
          2   -1    0    0  502    0  0.00000000000E+00  0.00000000000E+00  0.37369748295E+04  0.37369748295E+04  0.00000000000E+00 0. -1.
         -2   -1    0    0    0  501 -0.00000000000E+00 -0.00000000000E+00 -0.45078325495E+02  0.45078325495E+02  0.00000000000E+00 0.  1.
          6    1    1    2  502    0 -0.38934782940E+02  0.81284560815E+02  0.35119430013E+04  0.35173073141E+04  0.17200000000E+03 0. -1.
         -6    1    1    2    0  501  0.38934782940E+02 -0.81284560815E+02  0.17995350266E+03  0.26474584089E+03  0.17200000000E+03 0.  1.
</event>
<event>
 4    1  0.3211568E-002  0.2526340E+03  0.7818608E-02  0.1111651E+00
          1   -1    0    0  502    0  0.00000000000E+00  0.00000000000E+00  0.17998444856E+03  0.17998444856E+03  0.00000000000E+00 0. -1.
         -1   -1    0    0    0  501 -0.00000000000E+00 -0.00000000000E+00 -0.41070663228E+03  0.41070663228E+03  0.00000000000E+00 0.  1.
          6    1    1    2  502    0 -0.11274722319E+02  0.18469659239E+03 -0.62069668531E+01  0.25271026303E+03  0.17200000000E+03 0. -1.
         -6    1    1    2    0  501  0.11274722319E+02 -0.18469659239E+03 -0.22451521687E+03  0.33798081781E+03  0.17200000000E+03 0.  1.
</event>
<event>
 4    1  0.3211568E-002  0.2927890E+03  0.7818608E-02  0.1088902E+00
         -1   -1    0    0    0  501 -0.00000000000E+00  0.00000000000E+00  0.21243644691E+03  0.21243644691E+03  0.00000000000E+00 0.  1.
          1   -1    0    0  502    0  0.00000000000E+00 -0.00000000000E+00 -0.47329423719E+03  0.47329423719E+03  0.00000000000E+00 0. -1.
          6    1    1    2  502    0  0.17219736668E+03  0.16275578600E+03 -0.26206081748E+03  0.39293924598E+03  0.17200000000E+03 0. -1.
         -6    1    1    2    0  501 -0.17219736668E+03 -0.16275578600E+03  0.12030272014E+01  0.29279143813E+03  0.17200000000E+03 0.  1.
</event>
<event>
 4    1  0.3211568E-002  0.2236337E+03  0.7818608E-02  0.1131203E+00
          2   -1    0    0  502    0  0.00000000000E+00  0.00000000000E+00  0.27219333583E+03  0.27219333583E+03  0.00000000000E+00 0. -1.
         -2   -1    0    0    0  501 -0.00000000000E+00 -0.00000000000E+00 -0.18505207444E+03  0.18505207444E+03  0.00000000000E+00 0.  1.
          6    1    1    2  502    0  0.13484348233E+01 -0.14292028285E+03  0.62842513324E+02  0.23229551655E+03  0.17200000000E+03 0. -1.
         -6    1    1    2    0  501 -0.13484348233E+01  0.14292028285E+03  0.24298748065E+02  0.22494989372E+03  0.17200000000E+03 0.  1.
</event>
<event>
 4    1  0.3211568E-002  0.2459330E+03  0.7818608E-02  0.1115902E+00
         -2   -1    0    0    0  501 -0.00000000000E+00  0.00000000000E+00  0.98227097880E+02  0.98227097880E+02  0.00000000000E+00 0.  1.
          2   -1    0    0  502    0  0.00000000000E+00 -0.00000000000E+00 -0.62134513591E+03  0.62134513591E+03  0.00000000000E+00 0. -1.
          6    1    1    2  502    0 -0.14327273772E+03  0.10184277703E+03 -0.29571010342E+03  0.38461343434E+03  0.17200000000E+03 0. -1.
         -6    1    1    2    0  501  0.14327273772E+03 -0.10184277703E+03 -0.22740793461E+03  0.33495879946E+03  0.17200000000E+03 0. -1.
</event>
<event>
 4    1  0.3211568E-002  0.2756306E+03  0.7818608E-02  0.1098100E+00
         -1   -1    0    0    0  501 -0.00000000000E+00  0.00000000000E+00  0.16459724471E+03  0.16459724471E+03  0.00000000000E+00 0.  1.
          1   -1    0    0  502    0  0.00000000000E+00 -0.00000000000E+00 -0.48414414657E+03  0.48414414657E+03  0.00000000000E+00 0. -1.
          6    1    1    2  502    0  0.21404642486E+02 -0.21431302431E+03 -0.22982433948E+03  0.35887526820E+03  0.17200000000E+03 0. -1.
         -6    1    1    2    0  501 -0.21404642486E+02  0.21431302431E+03 -0.89722562373E+02  0.28986612308E+03  0.17200000000E+03 0.  1.
</event>
<event>
 4    1  0.3211568E-002  0.2351953E+03  0.7818608E-02  0.1123036E+00
         -1   -1    0    0    0  501 -0.00000000000E+00  0.00000000000E+00  0.58877308697E+03  0.58877308697E+03  0.00000000000E+00 0.  1.
          1   -1    0    0  502    0  0.00000000000E+00 -0.00000000000E+00 -0.95160332325E+02  0.95160332325E+02  0.00000000000E+00 0. -1.
          6    1    1    2  502    0  0.15943845521E+03  0.17669827003E+02  0.20828371230E+03  0.31416388812E+03  0.17200000000E+03 0. -1.
         -6    1    1    2    0  501 -0.15943845521E+03 -0.17669827003E+02  0.28532904234E+03  0.36976953118E+03  0.17200000000E+03 0.  1.
</event>
<event>
 4    1  0.3211568E-002  0.1826573E+03  0.7818608E-02  0.1165256E+00
          2   -1    0    0  502    0  0.00000000000E+00  0.00000000000E+00  0.35185739551E+02  0.35185739551E+02  0.00000000000E+00 0. -1.
         -2   -1    0    0    0  501 -0.00000000000E+00 -0.00000000000E+00 -0.94832890461E+03  0.94832890461E+03  0.00000000000E+00 0.  1.
          6    1    1    2  502    0  0.41820131306E+02 -0.45063834644E+02 -0.46194312293E+03  0.49674452327E+03  0.17200000000E+03 0.  1.
         -6    1    1    2    0  501 -0.41820131306E+02  0.45063834644E+02 -0.45120004213E+03  0.48677012089E+03  0.17200000000E+03 0.  1.
</event>
<event>
 4    1  0.3211568E-002  0.2830059E+03  0.7818608E-02  0.1094058E+00
          1   -1    0    0  502    0  0.00000000000E+00  0.00000000000E+00  0.84732920936E+03  0.84732920936E+03  0.00000000000E+00 0. -1.
         -1   -1    0    0    0  501 -0.00000000000E+00 -0.00000000000E+00 -0.17277703918E+03  0.17277703918E+03  0.00000000000E+00 0.  1.
          6    1    1    2  502    0 -0.18874127958E+03  0.12200445702E+03  0.68053745472E+03  0.73703703125E+03  0.17200000000E+03 0. -1.
         -6    1    1    2    0  501  0.18874127958E+03 -0.12200445702E+03 -0.59852845437E+01  0.28306921729E+03  0.17200000000E+03 0.  1.
</event>
<event>
 4    1  0.3211568E-002  0.3034586E+03  0.7818608E-02  0.1083524E+00
          2   -1    0    0  502    0  0.00000000000E+00  0.00000000000E+00  0.39806127723E+03  0.39806127723E+03  0.00000000000E+00 0. -1.
         -2   -1    0    0    0  501 -0.00000000000E+00 -0.00000000000E+00 -0.43993842245E+03  0.43993842245E+03  0.00000000000E+00 0.  1.
          6    1    1    2  502    0  0.24876060194E+03 -0.24925229934E+02  0.26758045177E+03  0.40458176224E+03  0.17200000000E+03 0. -1.
         -6    1    1    2    0  501 -0.24876060194E+03  0.24925229934E+02 -0.30945759699E+03  0.43341793744E+03  0.17200000000E+03 0.  1.
</event>
<event>
 4    1  0.3211568E-002  0.2909745E+03  0.7818608E-02  0.1089841E+00
         -2   -1    0    0    0  501 -0.00000000000E+00  0.00000000000E+00  0.56418247454E+02  0.56418247454E+02  0.00000000000E+00 0.  1.
          2   -1    0    0  502    0  0.00000000000E+00 -0.00000000000E+00 -0.17139944381E+04  0.17139944381E+04  0.00000000000E+00 0. -1.
          6    1    1    2  502    0  0.21318527768E+03 -0.98153987641E+02 -0.11410666338E+04  0.11775819422E+04  0.17200000000E+03 0. -1.
         -6    1    1    2    0  501 -0.21318527768E+03  0.98153987641E+02 -0.51650955686E+03  0.59283074333E+03  0.17200000000E+03 0.  1.
</event>
<event>
 4    1  0.3211568E-002  0.2182309E+03  0.7818608E-02  0.1135209E+00
          2   -1    0    0  502    0  0.00000000000E+00  0.00000000000E+00  0.59402941336E+02  0.59402941336E+02  0.00000000000E+00 0. -1.
         -2   -1    0    0    0  501 -0.00000000000E+00 -0.00000000000E+00 -0.84811303698E+03  0.84811303698E+03  0.00000000000E+00 0.  1.
          6    1    1    2  502    0 -0.13350644355E+03 -0.14723121265E+02 -0.50047740881E+03  0.54598752504E+03  0.17200000000E+03 0. -1.
         -6    1    1    2    0  501  0.13350644355E+03  0.14723121265E+02 -0.28823268683E+03  0.36152845327E+03  0.17200000000E+03 0.  1.
</event>
<event>
 4    1  0.3211568E-002  0.2563118E+03  0.7818608E-02  0.1109380E+00
          2   -1    0    0  502    0  0.00000000000E+00  0.00000000000E+00  0.27869826599E+04  0.27869826599E+04  0.00000000000E+00 0. -1.
         -2   -1    0    0    0  501 -0.00000000000E+00 -0.00000000000E+00 -0.24554512545E+02  0.24554512545E+02  0.00000000000E+00 0.  1.
          6    1    1    2  502    0  0.13927732942E+03  0.12928090492E+03  0.11000627295E+04  0.11295281031E+04  0.17200000000E+03 0.  1.
         -6    1    1    2    0  501 -0.13927732942E+03 -0.12928090492E+03  0.16623654179E+04  0.16820090693E+04  0.17200000000E+03 0.  1.
</event>
<event>
 4    1  0.3211568E-002  0.2070566E+03  0.7818608E-02  0.1143918E+00
          2   -1    0    0  502    0  0.00000000000E+00  0.00000000000E+00  0.80898533140E+03  0.80898533140E+03  0.00000000000E+00 0. -1.
         -2   -1    0    0    0  501 -0.00000000000E+00 -0.00000000000E+00 -0.57767157453E+02  0.57767157453E+02  0.00000000000E+00 0.  1.
          6    1    1    2  502    0  0.94525078472E+02  0.65980669445E+02  0.50016583829E+03  0.54133012570E+03  0.17200000000E+03 0. -1.
         -6    1    1    2    0  501 -0.94525078472E+02 -0.65980669445E+02  0.25105233566E+03  0.32542236315E+03  0.17200000000E+03 0.  1.
</event>
<event>
 4    1  0.3211568E-002  0.2062829E+03  0.7818608E-02  0.1144544E+00
          3   -1    0    0  502    0  0.00000000000E+00  0.00000000000E+00  0.84861709703E+02  0.84861709703E+02  0.00000000000E+00 0. -1.
         -3   -1    0    0    0  501 -0.00000000000E+00 -0.00000000000E+00 -0.52014683167E+03  0.52014683167E+03  0.00000000000E+00 0.  1.
          6    1    1    2  502    0  0.22111327688E+02 -0.11171262028E+03 -0.27501828719E+03  0.34378434902E+03  0.17200000000E+03 0. -1.
         -6    1    1    2    0  501 -0.22111327688E+02  0.11171262028E+03 -0.16026683478E+03  0.26122419235E+03  0.17200000000E+03 0. -1.
</event>
<event>
 4    1  0.3211568E-002  0.1940498E+03  0.7818608E-02  0.1154859E+00
         -4   -1    0    0    0  501 -0.00000000000E+00  0.00000000000E+00  0.70265353718E+02  0.70265353718E+02  0.00000000000E+00 0.  1.
          4   -1    0    0  502    0  0.00000000000E+00 -0.00000000000E+00 -0.54423307245E+03  0.54423307245E+03  0.00000000000E+00 0. -1.
          6    1    1    2  502    0 -0.87533547067E+02  0.20228416166E+02 -0.27499938291E+03  0.33657090083E+03  0.17200000000E+03 0. -1.
         -6    1    1    2    0  501  0.87533547067E+02 -0.20228416166E+02 -0.19896833583E+03  0.27792752535E+03  0.17200000000E+03 0. -1.
</event>
<event>
 4    1  0.3211568E-002  0.2207760E+03  0.7818608E-02  0.1133306E+00
          2   -1    0    0  502    0  0.00000000000E+00  0.00000000000E+00  0.10720163241E+03  0.10720163241E+03  0.00000000000E+00 0. -1.
         -2   -1    0    0    0  501 -0.00000000000E+00 -0.00000000000E+00 -0.55184714158E+03  0.55184714158E+03  0.00000000000E+00 0.  1.
          6    1    1    2  502    0 -0.11954113918E+03 -0.69770897726E+02 -0.84047102296E+02  0.23623288833E+03  0.17200000000E+03 0. -1.
         -6    1    1    2    0  501  0.11954113918E+03  0.69770897726E+02 -0.36059840687E+03  0.42281588566E+03  0.17200000000E+03 0.  1.
</event>
<event>
 4    1  0.3211568E-002  0.1942022E+03  0.7818608E-02  0.1154725E+00
          1   -1    0    0  502    0  0.00000000000E+00  0.00000000000E+00  0.22461804107E+04  0.22461804107E+04  0.00000000000E+00 0. -1.
         -1   -1    0    0    0  501 -0.00000000000E+00 -0.00000000000E+00 -0.24707150808E+02  0.24707150808E+02  0.00000000000E+00 0.  1.
          6    1    1    2  502    0 -0.54377376253E+01  0.90005044708E+02  0.17534616879E+04  0.17641832014E+04  0.17200000000E+03 0. -1.
         -6    1    1    2    0  501  0.54377376253E+01 -0.90005044708E+02  0.46801157198E+03  0.50670436013E+03  0.17200000000E+03 0. -1.
</event>
<event>
 4    1  0.3211568E-002  0.1941074E+03  0.7818608E-02  0.1154808E+00
         -1   -1    0    0    0  501 -0.00000000000E+00  0.00000000000E+00  0.10528374910E+03  0.10528374910E+03  0.00000000000E+00 0.  1.
          1   -1    0    0  502    0  0.00000000000E+00 -0.00000000000E+00 -0.55032793617E+03  0.55032793617E+03  0.00000000000E+00 0. -1.
          6    1    1    2  502    0 -0.75863029784E+02  0.48357747396E+02 -0.41637674482E+03  0.45939880784E+03  0.17200000000E+03 0. -1.
         -6    1    1    2    0  501  0.75863029784E+02 -0.48357747396E+02 -0.28667442253E+02  0.19621287742E+03  0.17200000000E+03 0.  1.
</event>
<event>
 4    1  0.3211568E-002  0.3831607E+03  0.7818608E-02  0.1049772E+00
          1   -1    0    0  502    0  0.00000000000E+00  0.00000000000E+00  0.29984632043E+04  0.29984632043E+04  0.00000000000E+00 0. -1.
         -1   -1    0    0    0  501 -0.00000000000E+00 -0.00000000000E+00 -0.52273386157E+02  0.52273386157E+02  0.00000000000E+00 0.  1.
          6    1    1    2  502    0  0.32670917930E+03  0.10241681733E+03  0.18569878030E+04  0.18961054277E+04  0.17200000000E+03 0. -1.
         -6    1    1    2    0  501 -0.32670917930E+03 -0.10241681733E+03  0.10892020151E+04  0.11546311628E+04  0.17200000000E+03 0.  1.
</event>
<event>
 4    1  0.3211568E-002  0.1875881E+03  0.7818608E-02  0.1160655E+00
         -2   -1    0    0    0  501 -0.00000000000E+00  0.00000000000E+00  0.13045131879E+03  0.13045131879E+03  0.00000000000E+00 0.  1.
          2   -1    0    0  502    0  0.00000000000E+00 -0.00000000000E+00 -0.74871265409E+03  0.74871265409E+03  0.00000000000E+00 0. -1.
          6    1    1    2  502    0 -0.54752423381E+02 -0.51063443097E+02 -0.66071775663E+03  0.68683131627E+03  0.17200000000E+03 0. -1.
         -6    1    1    2    0  501  0.54752423381E+02  0.51063443097E+02  0.42456421325E+02  0.19233265661E+03  0.17200000000E+03 0.  1.
</event>
<event>
 4    1  0.3211568E-002  0.4174903E+03  0.7818608E-02  0.1037886E+00
          2   -1    0    0  502    0  0.00000000000E+00  0.00000000000E+00  0.28635329249E+04  0.28635329249E+04  0.00000000000E+00 0. -1.
         -2   -1    0    0    0  501 -0.00000000000E+00 -0.00000000000E+00 -0.65608090091E+02  0.65608090091E+02  0.00000000000E+00 0.  1.
          6    1    1    2  502    0 -0.32642073137E+03 -0.19535526440E+03  0.10053085996E+04  0.10885511258E+04  0.17200000000E+03 0. -1.
         -6    1    1    2    0  501  0.32642073137E+03  0.19535526440E+03  0.17926162352E+04  0.18405898891E+04  0.17200000000E+03 0. -1.
</event>
<event>
 4    1  0.3211568E-002  0.2069669E+03  0.7818608E-02  0.1143991E+00
         -2   -1    0    0    0  501 -0.00000000000E+00  0.00000000000E+00  0.14097982909E+02  0.14097982909E+02  0.00000000000E+00 0.  1.
          2   -1    0    0  502    0  0.00000000000E+00 -0.00000000000E+00 -0.30440355918E+04  0.30440355918E+04  0.00000000000E+00 0. -1.
          6    1    1    2  502    0  0.10757354954E+03 -0.40978267165E+02 -0.14491669934E+04  0.14638716684E+04  0.17200000000E+03 0. -1.
         -6    1    1    2    0  501 -0.10757354954E+03  0.40978267165E+02 -0.15807706155E+04  0.15942619063E+04  0.17200000000E+03 0.  1.
</event>
<event>
 4    1  0.3211568E-002  0.3450528E+03  0.7818608E-02  0.1064664E+00
          1   -1    0    0  502    0  0.00000000000E+00  0.00000000000E+00  0.14056792292E+04  0.14056792292E+04  0.00000000000E+00 0. -1.
         -1   -1    0    0    0  501 -0.00000000000E+00 -0.00000000000E+00 -0.85629627125E+02  0.85629627125E+02  0.00000000000E+00 0.  1.
          6    1    1    2  502    0 -0.13944446153E+03 -0.26463684407E+03  0.58234363199E+03  0.67689402628E+03  0.17200000000E+03 0. -1.
         -6    1    1    2    0  501  0.13944446153E+03  0.26463684407E+03  0.73770597004E+03  0.81441483000E+03  0.17200000000E+03 0.  1.
</event>
<event>
 4    1  0.3211568E-002  0.2047430E+03  0.7818608E-02  0.1145798E+00
          1   -1    0    0  502    0  0.00000000000E+00  0.00000000000E+00  0.35097022671E+03  0.35097022671E+03  0.00000000000E+00 0. -1.
         -1   -1    0    0    0  501 -0.00000000000E+00 -0.00000000000E+00 -0.15697605939E+03  0.15697605939E+03  0.00000000000E+00 0.  1.
          6    1    1    2  502    0 -0.73838693812E+02  0.82967089610E+02  0.22119050912E+03  0.30140493027E+03  0.17200000000E+03 0. -1.
         -6    1    1    2    0  501  0.73838693812E+02 -0.82967089610E+02 -0.27196341807E+02  0.20654135583E+03  0.17200000000E+03 0.  1.
</event>
<event>
 4    1  0.3211568E-002  0.1731171E+03  0.7818608E-02  0.1174636E+00
         -2   -1    0    0    0  501 -0.00000000000E+00  0.00000000000E+00  0.14160428010E+03  0.14160428010E+03  0.00000000000E+00 0.  1.
          2   -1    0    0  502    0  0.00000000000E+00 -0.00000000000E+00 -0.24621651116E+03  0.24621651116E+03  0.00000000000E+00 0. -1.
          6    1    1    2  502    0  0.24749129062E+01 -0.19478050942E+02 -0.12496952997E+03  0.21351089687E+03  0.17200000000E+03 0. -1.
         -6    1    1    2    0  501 -0.24749129062E+01  0.19478050942E+02  0.20357298912E+02  0.17430989439E+03  0.17200000000E+03 0.  1.
</event>
<event>
 4    1  0.3211568E-002  0.7138776E+03  0.7818608E-02  0.9693790E-01
         -1   -1    0    0    0  501 -0.00000000000E+00  0.00000000000E+00  0.69766312249E+03  0.69766312249E+03  0.00000000000E+00 0.  1.
          1   -1    0    0  502    0  0.00000000000E+00 -0.00000000000E+00 -0.10734910562E+04  0.10734910562E+04  0.00000000000E+00 0. -1.
          6    1    1    2  502    0  0.68708940856E+03  0.89137134305E+02 -0.68851089416E+03  0.99180065308E+03  0.17200000000E+03 0. -1.
         -6    1    1    2    0  501 -0.68708940856E+03 -0.89137134305E+02  0.31268296047E+03  0.77935352558E+03  0.17200000000E+03 0.  1.
</event>
<event>
 4    1  0.3211568E-002  0.2077777E+03  0.7818608E-02  0.1143338E+00
          2   -1    0    0  502    0  0.00000000000E+00  0.00000000000E+00  0.79570244349E+03  0.79570244349E+03  0.00000000000E+00 0. -1.
         -2   -1    0    0    0  501 -0.00000000000E+00 -0.00000000000E+00 -0.10300574886E+03  0.10300574886E+03  0.00000000000E+00 0.  1.
          6    1    1    2  502    0 -0.88203941851E+02  0.76207875526E+02  0.65548071383E+03  0.68762383746E+03  0.17200000000E+03 0. -1.
         -6    1    1    2    0  501  0.88203941851E+02 -0.76207875526E+02  0.37215980809E+02  0.21108435489E+03  0.17200000000E+03 0.  1.
</event>
<event>
 4    1  0.3211568E-002  0.2604748E+03  0.7818608E-02  0.1106858E+00
         -2   -1    0    0    0  501 -0.00000000000E+00  0.00000000000E+00  0.75968505115E+02  0.75968505115E+02  0.00000000000E+00 0.  1.
          2   -1    0    0  502    0  0.00000000000E+00 -0.00000000000E+00 -0.21277012704E+04  0.21277012704E+04  0.00000000000E+00 0. -1.
          6    1    1    2  502    0  0.18198394581E+03  0.71728344229E+02 -0.18651821586E+04  0.18832821341E+04  0.17200000000E+03 0. -1.
         -6    1    1    2    0  501 -0.18198394581E+03 -0.71728344229E+02 -0.18655060664E+03  0.32038764136E+03  0.17200000000E+03 0.  1.
</event>
<event>
 4    1  0.3211568E-002  0.3252764E+03  0.7818608E-02  0.1073246E+00
         -1   -1    0    0    0  501 -0.00000000000E+00  0.00000000000E+00  0.64708532626E+03  0.64708532626E+03  0.00000000000E+00 0.  1.
          1   -1    0    0  502    0  0.00000000000E+00 -0.00000000000E+00 -0.16358077488E+03  0.16358077488E+03  0.00000000000E+00 0. -1.
          6    1    1    2  502    0  0.16402149328E+03 -0.22207578748E+03  0.25020326317E+03  0.41037346228E+03  0.17200000000E+03 0. -1.
         -6    1    1    2    0  501 -0.16402149328E+03  0.22207578748E+03  0.23330128820E+03  0.40029263885E+03  0.17200000000E+03 0. -1.
</event>
<event>
 4    1  0.3211568E-002  0.1735200E+03  0.7818608E-02  0.1174226E+00
          2   -1    0    0  502    0  0.00000000000E+00  0.00000000000E+00  0.81503707275E+03  0.81503707275E+03  0.00000000000E+00 0. -1.
         -2   -1    0    0    0  501 -0.00000000000E+00 -0.00000000000E+00 -0.37438246382E+02  0.37438246382E+02  0.00000000000E+00 0.  1.
          6    1    1    2  502    0  0.21909511389E+02  0.67195888742E+01  0.43786757394E+03  0.47099595738E+03  0.17200000000E+03 0. -1.
         -6    1    1    2    0  501 -0.21909511389E+02 -0.67195888742E+01  0.33973125244E+03  0.38147936176E+03  0.17200000000E+03 0. -1.
</event>
<event>
 4    1  0.3211568E-002  0.2838339E+03  0.7818608E-02  0.1093613E+00
          4   -1    0    0  502    0  0.00000000000E+00  0.00000000000E+00  0.83011291627E+02  0.83011291627E+02  0.00000000000E+00 0. -1.
         -4   -1    0    0    0  501 -0.00000000000E+00 -0.00000000000E+00 -0.99982379039E+03  0.99982379039E+03  0.00000000000E+00 0.  1.
          6    1    1    2  502    0 -0.20847171925E+03  0.86702005215E+02 -0.55114232298E+03  0.61993512210E+03  0.17200000000E+03 0. -1.
         -6    1    1    2    0  501  0.20847171925E+03 -0.86702005215E+02 -0.36567017579E+03  0.46289995992E+03  0.17200000000E+03 0.  1.
</event>
<event>
 4    1  0.3211568E-002  0.1768005E+03  0.7818608E-02  0.1170936E+00
         -2   -1    0    0    0  501 -0.00000000000E+00  0.00000000000E+00  0.18680606256E+03  0.18680606256E+03  0.00000000000E+00 0.  1.
          2   -1    0    0  502    0  0.00000000000E+00 -0.00000000000E+00 -0.22957616268E+03  0.22957616268E+03  0.00000000000E+00 0. -1.
          6    1    1    2  502    0  0.38923328544E+02 -0.12625347168E+02 -0.12979071391E+03  0.21932636484E+03  0.17200000000E+03 0. -1.
         -6    1    1    2    0  501 -0.38923328544E+02  0.12625347168E+02  0.87020613793E+02  0.19705586041E+03  0.17200000000E+03 0.  1.
</event>
<event>
 4    1  0.3211568E-002  0.4373545E+03  0.7818608E-02  0.1031562E+00
         -2   -1    0    0    0  501 -0.00000000000E+00  0.00000000000E+00  0.23212119526E+03  0.23212119526E+03  0.00000000000E+00 0.  1.
          2   -1    0    0  502    0  0.00000000000E+00 -0.00000000000E+00 -0.91683319070E+03  0.91683319070E+03  0.00000000000E+00 0. -1.
          6    1    1    2  502    0  0.37435196543E+03  0.14681804472E+03 -0.52511034265E+03  0.68338847242E+03  0.17200000000E+03 0. -1.
         -6    1    1    2    0  501 -0.37435196543E+03 -0.14681804472E+03 -0.15960165280E+03  0.46556591354E+03  0.17200000000E+03 0.  1.
</event>
<event>
 4    1  0.3211568E-002  0.1979288E+03  0.7818608E-02  0.1151498E+00
         -2   -1    0    0    0  501 -0.00000000000E+00  0.00000000000E+00  0.47013180755E+03  0.47013180755E+03  0.00000000000E+00 0.  1.
          2   -1    0    0  502    0  0.00000000000E+00 -0.00000000000E+00 -0.90956407871E+02  0.90956407871E+02  0.00000000000E+00 0. -1.
          6    1    1    2  502    0  0.89635484603E+02  0.39462282008E+02  0.10834914622E+03  0.22564425383E+03  0.17200000000E+03 0. -1.
         -6    1    1    2    0  501 -0.89635484603E+02 -0.39462282008E+02  0.27082625346E+03  0.33544396159E+03  0.17200000000E+03 0.  1.
</event>
<event>
 4    1  0.3211568E-002  0.2363260E+03  0.7818608E-02  0.1122265E+00
          2   -1    0    0  502    0  0.00000000000E+00  0.00000000000E+00  0.89657821188E+03  0.89657821188E+03  0.00000000000E+00 0. -1.
         -2   -1    0    0    0  501 -0.00000000000E+00 -0.00000000000E+00 -0.72892403316E+02  0.72892403316E+02  0.00000000000E+00 0.  1.
          6    1    1    2  502    0 -0.95528957428E+01 -0.16178608321E+03  0.59669179200E+03  0.64178741744E+03  0.17200000000E+03 0. -1.
         -6    1    1    2    0  501  0.95528957428E+01  0.16178608321E+03  0.22699401656E+03  0.32768319776E+03  0.17200000000E+03 0.  1.
</event>
<event>
 4    1  0.3211568E-002  0.3811062E+03  0.7818608E-02  0.1050526E+00
          1   -1    0    0  502    0  0.00000000000E+00  0.00000000000E+00  0.61685988752E+03  0.61685988752E+03  0.00000000000E+00 0. -1.
         -1   -1    0    0    0  501 -0.00000000000E+00 -0.00000000000E+00 -0.23696284959E+03  0.23696284959E+03  0.00000000000E+00 0.  1.
          6    1    1    2  502    0  0.14492211507E+03 -0.30766138725E+03  0.22401775497E+03  0.44207002068E+03  0.17200000000E+03 0.  1.
         -6    1    1    2    0  501 -0.14492211507E+03  0.30766138725E+03  0.15587928295E+03  0.41175271644E+03  0.17200000000E+03 0.  1.
</event>
<event>
 4    1  0.3211568E-002  0.1727522E+03  0.7818608E-02  0.1175008E+00
          2   -1    0    0  502    0  0.00000000000E+00  0.00000000000E+00  0.20274221287E+04  0.20274221287E+04  0.00000000000E+00 0. -1.
         -2   -1    0    0    0  501 -0.00000000000E+00 -0.00000000000E+00 -0.24756632831E+02  0.24756632831E+02  0.00000000000E+00 0.  1.
          6    1    1    2  502    0  0.15837454820E+02  0.29126681890E+01  0.16546695260E+04  0.16636629913E+04  0.17200000000E+03 0. -1.
         -6    1    1    2    0  501 -0.15837454820E+02 -0.29126681890E+01  0.34799596987E+03  0.38851577015E+03  0.17200000000E+03 0.  1.
</event>
<event>
 4    1  0.3211568E-002  0.3977523E+03  0.7818608E-02  0.1044561E+00
          1   -1    0    0  502    0  0.00000000000E+00  0.00000000000E+00  0.39169744909E+03  0.39169744909E+03  0.00000000000E+00 0. -1.
         -1   -1    0    0    0  501 -0.00000000000E+00 -0.00000000000E+00 -0.43950119665E+03  0.43950119665E+03  0.00000000000E+00 0.  1.
          6    1    1    2  502    0  0.35560620982E+03 -0.46552245464E+02  0.94381201778E+02  0.40879664782E+03  0.17200000000E+03 0. -1.
         -6    1    1    2    0  501 -0.35560620982E+03  0.46552245464E+02 -0.14218494934E+03  0.42240199791E+03  0.17200000000E+03 0.  1.
</event>
<event>
 4    1  0.3211568E-002  0.3410807E+03  0.7818608E-02  0.1066337E+00
          1   -1    0    0  502    0  0.00000000000E+00  0.00000000000E+00  0.15580755294E+04  0.15580755294E+04  0.00000000000E+00 0. -1.
         -1   -1    0    0    0  501 -0.00000000000E+00 -0.00000000000E+00 -0.26129943333E+03  0.26129943333E+03  0.00000000000E+00 0.  1.
          6    1    1    2  502    0  0.20102566022E+03  0.21526896473E+03  0.14171946918E+04  0.14576614277E+04  0.17200000000E+03 0. -1.
         -6    1    1    2    0  501 -0.20102566022E+03 -0.21526896473E+03 -0.12041859573E+03  0.36171353506E+03  0.17200000000E+03 0.  1.
</event>
<event>
 4    1  0.3211568E-002  0.2225510E+03  0.7818608E-02  0.1131995E+00
         -2   -1    0    0    0  501 -0.00000000000E+00  0.00000000000E+00  0.14436464132E+03  0.14436464132E+03  0.00000000000E+00 0.  1.
          2   -1    0    0  502    0  0.00000000000E+00 -0.00000000000E+00 -0.49034747018E+03  0.49034747018E+03  0.00000000000E+00 0. -1.
          6    1    1    2  502    0  0.12004278104E+03 -0.74395385662E+02  0.92675250892E+00  0.22255291855E+03  0.17200000000E+03 0. -1.
         -6    1    1    2    0  501 -0.12004278104E+03  0.74395385662E+02 -0.34690958136E+03  0.41215919295E+03  0.17200000000E+03 0. -1.
</event>
<event>
 4    1  0.3211568E-002  0.3726979E+03  0.7818608E-02  0.1053666E+00
         -2   -1    0    0    0  501 -0.00000000000E+00  0.00000000000E+00  0.19480793630E+03  0.19480793630E+03  0.00000000000E+00 0.  1.
          2   -1    0    0  502    0  0.00000000000E+00 -0.00000000000E+00 -0.72689923119E+03  0.72689923119E+03  0.00000000000E+00 0. -1.
          6    1    1    2  502    0  0.31362130319E+03  0.10469679461E+03 -0.20238587326E+03  0.42410350424E+03  0.17200000000E+03 0.  1.
         -6    1    1    2    0  501 -0.31362130319E+03 -0.10469679461E+03 -0.32970542164E+03  0.49760366325E+03  0.17200000000E+03 0. -1.
</event>
<event>
 4    1  0.3211568E-002  0.1825037E+03  0.7818608E-02  0.1165402E+00
          3   -1    0    0  502    0  0.00000000000E+00  0.00000000000E+00  0.52162501697E+02  0.52162501697E+02  0.00000000000E+00 0. -1.
         -3   -1    0    0    0  501 -0.00000000000E+00 -0.00000000000E+00 -0.64364652644E+03  0.64364652644E+03  0.00000000000E+00 0.  1.
          6    1    1    2  502    0  0.46328664321E+02  0.39714560190E+02 -0.32674508995E+03  0.37425919526E+03  0.17200000000E+03 0. -1.
         -6    1    1    2    0  501 -0.46328664321E+02 -0.39714560190E+02 -0.26473893479E+03  0.32154983287E+03  0.17200000000E+03 0.  1.
</event>
<event>
 4    1  0.3211568E-002  0.1903225E+03  0.7818608E-02  0.1158171E+00
         -1   -1    0    0    0  501 -0.00000000000E+00  0.00000000000E+00  0.25873487425E+02  0.25873487425E+02  0.00000000000E+00 0.  1.
          1   -1    0    0  502    0  0.00000000000E+00 -0.00000000000E+00 -0.14237011155E+04  0.14237011155E+04  0.00000000000E+00 0. -1.
          6    1    1    2  502    0 -0.81210399226E+02 -0.65986787433E+01 -0.79244581403E+03  0.81498039220E+03  0.17200000000E+03 0. -1.
         -6    1    1    2    0  501  0.81210399226E+02  0.65986787433E+01 -0.60538181404E+03  0.63459421071E+03  0.17200000000E+03 0.  1.
</event>
<event>
 4    1  0.3211568E-002  0.2779764E+03  0.7818608E-02  0.1096799E+00
          2   -1    0    0  502    0  0.00000000000E+00  0.00000000000E+00  0.88884990507E+03  0.88884990507E+03  0.00000000000E+00 0. -1.
         -2   -1    0    0    0  501 -0.00000000000E+00 -0.00000000000E+00 -0.14363996251E+03  0.14363996251E+03  0.00000000000E+00 0.  1.
          6    1    1    2  502    0  0.19982810731E+03 -0.88065993654E+02  0.69697012120E+03  0.75035874190E+03  0.17200000000E+03 0. -1.
         -6    1    1    2    0  501 -0.19982810731E+03  0.88065993654E+02  0.48239821370E+02  0.28213112568E+03  0.17200000000E+03 0.  1.
</event>
<event>
 4    1  0.3211568E-002  0.2542615E+03  0.7818608E-02  0.1110641E+00
          2   -1    0    0  502    0  0.00000000000E+00  0.00000000000E+00  0.10745899118E+04  0.10745899118E+04  0.00000000000E+00 0. -1.
         -2   -1    0    0    0  501 -0.00000000000E+00 -0.00000000000E+00 -0.87739315056E+02  0.87739315056E+02  0.00000000000E+00 0.  1.
          6    1    1    2  502    0  0.58494864419E+02  0.17788555832E+03  0.81924858219E+03  0.85779785523E+03  0.17200000000E+03 0. -1.
         -6    1    1    2    0  501 -0.58494864419E+02 -0.17788555832E+03  0.16760201456E+03  0.30453137163E+03  0.17200000000E+03 0.  1.
</event>
<event>
 4    1  0.3211568E-002  0.4183151E+03  0.7818608E-02  0.1037616E+00
          3   -1    0    0  502    0  0.00000000000E+00  0.00000000000E+00  0.27057826383E+03  0.27057826383E+03  0.00000000000E+00 0. -1.
         -3   -1    0    0    0  501 -0.00000000000E+00 -0.00000000000E+00 -0.68983205239E+03  0.68983205239E+03  0.00000000000E+00 0.  1.
          6    1    1    2  502    0 -0.32147206470E+03  0.20508342283E+03 -0.32967927938E+03  0.53261235994E+03  0.17200000000E+03 0. -1.
         -6    1    1    2    0  501  0.32147206470E+03 -0.20508342283E+03 -0.89574509186E+02  0.42779795628E+03  0.17200000000E+03 0.  1.
</event>
<event>
 4    1  0.3211568E-002  0.3159648E+03  0.7818608E-02  0.1077522E+00
         -2   -1    0    0    0  501 -0.00000000000E+00  0.00000000000E+00  0.14602674226E+03  0.14602674226E+03  0.00000000000E+00 0.  1.
          2   -1    0    0  502    0  0.00000000000E+00 -0.00000000000E+00 -0.72235767105E+03  0.72235767105E+03  0.00000000000E+00 0. -1.
          6    1    1    2  502    0  0.12923607070E+03 -0.23140402199E+03 -0.38865120865E+03  0.50088276608E+03  0.17200000000E+03 0. -1.
         -6    1    1    2    0  501 -0.12923607070E+03  0.23140402199E+03 -0.18767972013E+03  0.36750164723E+03  0.17200000000E+03 0. -1.
</event>
<event>
 4    1  0.3211568E-002  0.2292573E+03  0.7818608E-02  0.1127164E+00
         -2   -1    0    0    0  501 -0.00000000000E+00  0.00000000000E+00  0.39653105468E+02  0.39653105468E+02  0.00000000000E+00 0.  1.
          2   -1    0    0  502    0  0.00000000000E+00 -0.00000000000E+00 -0.13257238991E+04  0.13257238991E+04  0.00000000000E+00 0. -1.
          6    1    1    2  502    0 -0.13881788914E+03 -0.60864444174E+02 -0.65253681858E+03  0.69163804588E+03  0.17200000000E+03 0. -1.
         -6    1    1    2    0  501  0.13881788914E+03  0.60864444174E+02 -0.63353397509E+03  0.67373895873E+03  0.17200000000E+03 0.  1.
</event>
<event>
 4    1  0.3211568E-002  0.1839888E+03  0.7818608E-02  0.1163998E+00
         -2   -1    0    0    0  501 -0.00000000000E+00  0.00000000000E+00  0.93926055585E+03  0.93926055585E+03  0.00000000000E+00 0.  1.
          2   -1    0    0  502    0  0.00000000000E+00 -0.00000000000E+00 -0.47265938718E+02  0.47265938718E+02  0.00000000000E+00 0. -1.
          6    1    1    2  502    0  0.47951351313E+02 -0.44368349082E+02  0.20561818270E+03  0.27591795801E+03  0.17200000000E+03 0. -1.
         -6    1    1    2    0  501 -0.47951351313E+02  0.44368349082E+02  0.68637643443E+03  0.71060853656E+03  0.17200000000E+03 0. -1.
</event>
<event>
 4    1  0.3211568E-002  0.8802429E+03  0.7818608E-02  0.9450621E-01
         -1   -1    0    0    0  501 -0.00000000000E+00  0.00000000000E+00  0.53097483621E+03  0.53097483621E+03  0.00000000000E+00 0.  1.
          1   -1    0    0  502    0  0.00000000000E+00 -0.00000000000E+00 -0.15780971978E+04  0.15780971978E+04  0.00000000000E+00 0. -1.
          6    1    1    2  502    0 -0.84704966484E+03  0.16658458021E+03 -0.81294904819E+03  0.11982127157E+04  0.17200000000E+03 0. -1.
         -6    1    1    2    0  501  0.84704966484E+03 -0.16658458021E+03 -0.23417331340E+03  0.91085931833E+03  0.17200000000E+03 0.  1.
</event>
<event>
 4    1  0.3211568E-002  0.1797449E+03  0.7818608E-02  0.1168050E+00
          1   -1    0    0  502    0  0.00000000000E+00  0.00000000000E+00  0.58925401456E+03  0.58925401456E+03  0.00000000000E+00 0. -1.
         -1   -1    0    0    0  501 -0.00000000000E+00 -0.00000000000E+00 -0.82906488445E+02  0.82906488445E+02  0.00000000000E+00 0.  1.
          6    1    1    2  502    0 -0.20286310922E+02  0.48090516334E+02  0.44875516249E+03  0.48341434405E+03  0.17200000000E+03 0. -1.
         -6    1    1    2    0  501  0.20286310922E+02 -0.48090516334E+02  0.57592363624E+02  0.18874615895E+03  0.17200000000E+03 0.  1.
</event>
<event>
 4    1  0.3211568E-002  0.2987143E+03  0.7818608E-02  0.1085885E+00
         -2   -1    0    0    0  501 -0.00000000000E+00  0.00000000000E+00  0.15611601515E+03  0.15611601515E+03  0.00000000000E+00 0.  1.
          2   -1    0    0  502    0  0.00000000000E+00 -0.00000000000E+00 -0.15870461344E+04  0.15870461344E+04  0.00000000000E+00 0. -1.
          6    1    1    2  502    0 -0.22587146192E+03  0.92888633730E+02 -0.14126520377E+04  0.14438891908E+04  0.17200000000E+03 0. -1.
         -6    1    1    2    0  501  0.22587146192E+03 -0.92888633730E+02 -0.18278081521E+02  0.29927295877E+03  0.17200000000E+03 0.  1.
</event>
<event>
 4    1  0.3211568E-002  0.2326842E+03  0.7818608E-02  0.1124765E+00
         -3   -1    0    0    0  501 -0.00000000000E+00  0.00000000000E+00  0.21793821795E+03  0.21793821795E+03  0.00000000000E+00 0.  1.
          3   -1    0    0  502    0  0.00000000000E+00 -0.00000000000E+00 -0.41068272634E+03  0.41068272634E+03  0.00000000000E+00 0. -1.
          6    1    1    2  502    0 -0.71216692912E+02  0.13959261450E+03 -0.29393477458E+03  0.37488607213E+03  0.17200000000E+03 0. -1.
         -6    1    1    2    0  501  0.71216692912E+02 -0.13959261450E+03  0.10119026619E+03  0.25373487215E+03  0.17200000000E+03 0.  1.
</event>
<event>
 4    1  0.3211568E-002  0.5671080E+03  0.7818608E-02  0.9976099E-01
         -2   -1    0    0    0  501 -0.00000000000E+00  0.00000000000E+00  0.61948593588E+03  0.61948593588E+03  0.00000000000E+00 0.  1.
          2   -1    0    0  502    0  0.00000000000E+00 -0.00000000000E+00 -0.55381320347E+03  0.55381320347E+03  0.00000000000E+00 0. -1.
          6    1    1    2  502    0 -0.40616617019E+03  0.35644994595E+03 -0.11391321029E+03  0.57843559819E+03  0.17200000000E+03 0. -1.
         -6    1    1    2    0  501  0.40616617019E+03 -0.35644994595E+03  0.17958594270E+03  0.59486354115E+03  0.17200000000E+03 0.  1.
</event>
<event>
 4    1  0.3211568E-002  0.2453851E+03  0.7818608E-02  0.1116257E+00
          1   -1    0    0  502    0  0.00000000000E+00  0.00000000000E+00  0.18987544682E+03  0.18987544682E+03  0.00000000000E+00 0. -1.
         -1   -1    0    0    0  501 -0.00000000000E+00 -0.00000000000E+00 -0.32120754160E+03  0.32120754160E+03  0.00000000000E+00 0.  1.
          6    1    1    2  502    0 -0.62013387814E+02 -0.16365874495E+03 -0.94482968336E+02  0.26294652759E+03  0.17200000000E+03 0.  1.
         -6    1    1    2    0  501  0.62013387814E+02  0.16365874495E+03 -0.36849126444E+02  0.24813646082E+03  0.17200000000E+03 0. -1.
</event>
<event>
 4    1  0.3211568E-002  0.2372443E+03  0.7818608E-02  0.1121642E+00
         -1   -1    0    0    0  501 -0.00000000000E+00  0.00000000000E+00  0.47360058194E+02  0.47360058194E+02  0.00000000000E+00 0.  1.
          1   -1    0    0  502    0  0.00000000000E+00 -0.00000000000E+00 -0.17268457003E+04  0.17268457003E+04  0.00000000000E+00 0. -1.
          6    1    1    2  502    0 -0.18298092042E+02  0.16237616326E+03 -0.13350788398E+04  0.13559942282E+04  0.17200000000E+03 0. -1.
         -6    1    1    2    0  501  0.18298092042E+02 -0.16237616326E+03 -0.34440680239E+03  0.41821153033E+03  0.17200000000E+03 0. -1.
</event>
<event>
 4    1  0.3211568E-002  0.2076887E+03  0.7818608E-02  0.1143409E+00
         -2   -1    0    0    0  501 -0.00000000000E+00  0.00000000000E+00  0.87068082040E+02  0.87068082040E+02  0.00000000000E+00 0.  1.
          2   -1    0    0  502    0  0.00000000000E+00 -0.00000000000E+00 -0.54433049839E+03  0.54433049839E+03  0.00000000000E+00 0. -1.
          6    1    1    2  502    0 -0.20028562856E+02  0.11467106374E+03 -0.13399057646E+03  0.24716001046E+03  0.17200000000E+03 0. -1.
         -6    1    1    2    0  501  0.20028562856E+02 -0.11467106374E+03 -0.32327183989E+03  0.38423856997E+03  0.17200000000E+03 0. -1.
</event>
<event>
 4    1  0.3211568E-002  0.2116514E+03  0.7818608E-02  0.1140265E+00
          2   -1    0    0  502    0  0.00000000000E+00  0.00000000000E+00  0.11306999495E+03  0.11306999495E+03  0.00000000000E+00 0. -1.
         -2   -1    0    0    0  501 -0.00000000000E+00 -0.00000000000E+00 -0.41259706389E+03  0.41259706389E+03  0.00000000000E+00 0.  1.
          6    1    1    2  502    0  0.12321457458E+03 -0.55202218534E+01 -0.20218849492E+03  0.29270546923E+03  0.17200000000E+03 0. -1.
         -6    1    1    2    0  501 -0.12321457458E+03  0.55202218534E+01 -0.97338574019E+02  0.23296158961E+03  0.17200000000E+03 0. -1.
</event>
<event>
 4    1  0.3211568E-002  0.2249434E+03  0.7818608E-02  0.1130250E+00
         -2   -1    0    0    0  501 -0.00000000000E+00  0.00000000000E+00  0.11092293640E+04  0.11092293640E+04  0.00000000000E+00 0.  1.
          2   -1    0    0  502    0  0.00000000000E+00 -0.00000000000E+00 -0.49999601478E+02  0.49999601478E+02  0.00000000000E+00 0. -1.
          6    1    1    2  502    0 -0.12247899293E+03 -0.77552736798E+02  0.70121999292E+03  0.73641632869E+03  0.17200000000E+03 0.  1.
         -6    1    1    2    0  501  0.12247899293E+03  0.77552736798E+02  0.35800976960E+03  0.42281263678E+03  0.17200000000E+03 0.  1.
</event>
<event>
 4    1  0.3211568E-002  0.1903596E+03  0.7818608E-02  0.1158137E+00
         -2   -1    0    0    0  501 -0.00000000000E+00  0.00000000000E+00  0.47399641352E+02  0.47399641352E+02  0.00000000000E+00 0.  1.
          2   -1    0    0  502    0  0.00000000000E+00 -0.00000000000E+00 -0.77306280160E+03  0.77306280160E+03  0.00000000000E+00 0. -1.
          6    1    1    2  502    0  0.32719643845E+02  0.74714160678E+02 -0.40601929798E+03  0.44842886976E+03  0.17200000000E+03 0. -1.
         -6    1    1    2    0  501 -0.32719643845E+02 -0.74714160678E+02 -0.31964386226E+03  0.37203357319E+03  0.17200000000E+03 0. -1.
</event>
<event>
 4    1  0.3211568E-002  0.1893192E+03  0.7818608E-02  0.1159077E+00
         -1   -1    0    0    0  501 -0.00000000000E+00  0.00000000000E+00  0.19324022332E+02  0.19324022332E+02  0.00000000000E+00 0.  1.
          1   -1    0    0  502    0  0.00000000000E+00 -0.00000000000E+00 -0.20981307187E+04  0.20981307187E+04  0.00000000000E+00 0. -1.
          6    1    1    2  502    0  0.78217314354E+02  0.11824292611E+02 -0.13999707012E+04  0.14127136038E+04  0.17200000000E+03 0. -1.
         -6    1    1    2    0  501 -0.78217314354E+02 -0.11824292611E+02 -0.67883599516E+03  0.70474113722E+03  0.17200000000E+03 0.  1.
</event>
<event>
 4    1  0.3211568E-002  0.2070782E+03  0.7818608E-02  0.1143901E+00
          2   -1    0    0  502    0  0.00000000000E+00  0.00000000000E+00  0.17470950697E+04  0.17470950697E+04  0.00000000000E+00 0. -1.
         -2   -1    0    0    0  501 -0.00000000000E+00 -0.00000000000E+00 -0.31723223899E+02  0.31723223899E+02  0.00000000000E+00 0.  1.
          6    1    1    2  502    0 -0.45284122305E+02 -0.10605067855E+03  0.12807826045E+04  0.12974149214E+04  0.17200000000E+03 0.  1.
         -6    1    1    2    0  501  0.45284122305E+02  0.10605067855E+03  0.43458924126E+03  0.48140337220E+03  0.17200000000E+03 0.  1.
</event>
<event>
 4    1  0.3211568E-002  0.2541190E+03  0.7818608E-02  0.1110729E+00
         -1   -1    0    0    0  501 -0.00000000000E+00  0.00000000000E+00  0.70277161695E+02  0.70277161695E+02  0.00000000000E+00 0.  1.
          1   -1    0    0  502    0  0.00000000000E+00 -0.00000000000E+00 -0.12056046208E+04  0.12056046208E+04  0.00000000000E+00 0. -1.
          6    1    1    2  502    0  0.10019058118E+01  0.18705999439E+03 -0.87876994153E+03  0.91477486599E+03  0.17200000000E+03 0. -1.
         -6    1    1    2    0  501 -0.10019058118E+01 -0.18705999439E+03 -0.25655751755E+03  0.36110691648E+03  0.17200000000E+03 0.  1.
</event>
<event>
 4    1  0.3211568E-002  0.1728652E+03  0.7818608E-02  0.1174892E+00
          2   -1    0    0  502    0  0.00000000000E+00  0.00000000000E+00  0.11341721460E+04  0.11341721460E+04  0.00000000000E+00 0. -1.
         -2   -1    0    0    0  501 -0.00000000000E+00 -0.00000000000E+00 -0.31095169550E+02  0.31095169550E+02  0.00000000000E+00 0.  1.
          6    1    1    2  502    0 -0.17255643747E+02 -0.78727516563E+00  0.32387239117E+03  0.36711810471E+03  0.17200000000E+03 0.  1.
         -6    1    1    2    0  501  0.17255643747E+02  0.78727516563E+00  0.77920458524E+03  0.79814921080E+03  0.17200000000E+03 0. -1.
</event>
<event>
 4    1  0.3211568E-002  0.1782185E+03  0.7818608E-02  0.1169538E+00
          2   -1    0    0  502    0  0.00000000000E+00  0.00000000000E+00  0.16425333387E+03  0.16425333387E+03  0.00000000000E+00 0. -1.
         -2   -1    0    0    0  501 -0.00000000000E+00 -0.00000000000E+00 -0.23772790542E+03  0.23772790542E+03  0.00000000000E+00 0.  1.
          6    1    1    2  502    0  0.38745850494E+02  0.26011364802E+02  0.50082020032E+02  0.18512169176E+03  0.17200000000E+03 0. -1.
         -6    1    1    2    0  501 -0.38745850494E+02 -0.26011364802E+02 -0.12355659158E+03  0.21685954752E+03  0.17200000000E+03 0.  1.
</event>
<event>
 4    1  0.3211568E-002  0.3264721E+03  0.7818608E-02  0.1072709E+00
          2   -1    0    0  502    0  0.00000000000E+00  0.00000000000E+00  0.90675404730E+03  0.90675404730E+03  0.00000000000E+00 0. -1.
         -2   -1    0    0    0  501 -0.00000000000E+00 -0.00000000000E+00 -0.15590653634E+03  0.15590653634E+03  0.00000000000E+00 0.  1.
          6    1    1    2  502    0  0.14274819717E+03 -0.23795581982E+03  0.11186174546E+03  0.34510443359E+03  0.17200000000E+03 0. -1.
         -6    1    1    2    0  501 -0.14274819717E+03  0.23795581982E+03  0.63898576549E+03  0.71755615006E+03  0.17200000000E+03 0.  1.
</event>
<event>
 4    1  0.3211568E-002  0.2239942E+03  0.7818608E-02  0.1130940E+00
         -2   -1    0    0    0  501 -0.00000000000E+00  0.00000000000E+00  0.33834797163E+02  0.33834797163E+02  0.00000000000E+00 0.  1.
          2   -1    0    0  502    0  0.00000000000E+00 -0.00000000000E+00 -0.17034167664E+04  0.17034167664E+04  0.00000000000E+00 0. -1.
          6    1    1    2  502    0 -0.11924916600E+03  0.79806326207E+02 -0.11473263021E+04  0.11689871927E+04  0.17200000000E+03 0. -1.
         -6    1    1    2    0  501  0.11924916600E+03 -0.79806326207E+02 -0.52225566716E+03  0.56826437085E+03  0.17200000000E+03 0.  1.
</event>
<event>
 4    1  0.3211568E-002  0.2087455E+03  0.7818608E-02  0.1142563E+00
         -2   -1    0    0    0  501 -0.00000000000E+00  0.00000000000E+00  0.43152005694E+02  0.43152005694E+02  0.00000000000E+00 0.  1.
          2   -1    0    0  502    0  0.00000000000E+00 -0.00000000000E+00 -0.10551272884E+04  0.10551272884E+04  0.00000000000E+00 0. -1.
          6    1    1    2  502    0  0.59432786453E+02 -0.10226649278E+03 -0.39216390034E+03  0.44426030250E+03  0.17200000000E+03 0. -1.
         -6    1    1    2    0  501 -0.59432786453E+02  0.10226649278E+03 -0.61981138236E+03  0.65401899158E+03  0.17200000000E+03 0.  1.
</event>
<event>
 4    1  0.3211568E-002  0.1748923E+03  0.7818608E-02  0.1172840E+00
         -1   -1    0    0    0  501 -0.00000000000E+00  0.00000000000E+00  0.52217836541E+03  0.52217836541E+03  0.00000000000E+00 0.  1.
          1   -1    0    0  502    0  0.00000000000E+00 -0.00000000000E+00 -0.78101092485E+02  0.78101092485E+02  0.00000000000E+00 0. -1.
          6    1    1    2  502    0  0.18986073847E+01  0.31618352369E+02  0.71970974761E+02  0.18912204029E+03  0.17200000000E+03 0. -1.
         -6    1    1    2    0  501 -0.18986073847E+01 -0.31618352369E+02  0.37210629817E+03  0.41115741760E+03  0.17200000000E+03 0.  1.
</event>
<event>
 4    1  0.3211568E-002  0.1968835E+03  0.7818608E-02  0.1152395E+00
         -1   -1    0    0    0  501 -0.00000000000E+00  0.00000000000E+00  0.53584469394E+03  0.53584469394E+03  0.00000000000E+00 0.  1.
          1   -1    0    0  502    0  0.00000000000E+00 -0.00000000000E+00 -0.11249573240E+03  0.11249573240E+03  0.00000000000E+00 0. -1.
          6    1    1    2  502    0 -0.78355601023E+02  0.55131663128E+02  0.40535141257E+03  0.45063607064E+03  0.17200000000E+03 0.  1.
         -6    1    1    2    0  501  0.78355601023E+02 -0.55131663128E+02  0.17997548969E+02  0.19770435569E+03  0.17200000000E+03 0. -1.
</event>
<event>
 4    1  0.3211568E-002  0.2218657E+03  0.7818608E-02  0.1132500E+00
         -2   -1    0    0    0  501 -0.00000000000E+00  0.00000000000E+00  0.33512226592E+02  0.33512226592E+02  0.00000000000E+00 0.  1.
          2   -1    0    0  502    0  0.00000000000E+00 -0.00000000000E+00 -0.16134460614E+04  0.16134460614E+04  0.00000000000E+00 0. -1.
          6    1    1    2  502    0 -0.13902431789E+02  0.13945286852E+03 -0.10364891119E+04  0.10599688954E+04  0.17200000000E+03 0. -1.
         -6    1    1    2    0  501  0.13902431789E+02 -0.13945286852E+03 -0.54344472292E+03  0.58698939259E+03  0.17200000000E+03 0.  1.
</event>
<event>
 4    1  0.3211568E-002  0.2006152E+03  0.7818608E-02  0.1149221E+00
         -4   -1    0    0    0  501 -0.00000000000E+00  0.00000000000E+00  0.90608981057E+03  0.90608981057E+03  0.00000000000E+00 0.  1.
          4   -1    0    0  502    0  0.00000000000E+00 -0.00000000000E+00 -0.44434106981E+02  0.44434106981E+02  0.00000000000E+00 0. -1.
          6    1    1    2  502    0  0.60160468178E+02 -0.83923521004E+02  0.42169964238E+03  0.46698718151E+03  0.17200000000E+03 0.  1.
         -6    1    1    2    0  501 -0.60160468178E+02  0.83923521004E+02  0.43995606121E+03  0.48353673604E+03  0.17200000000E+03 0. -1.
</event>
<event>
 4    1  0.3211568E-002  0.4637090E+03  0.7818608E-02  0.1023711E+00
         -2   -1    0    0    0  501 -0.00000000000E+00  0.00000000000E+00  0.85816269564E+02  0.85816269564E+02  0.00000000000E+00 0.  1.
          2   -1    0    0  502    0  0.00000000000E+00 -0.00000000000E+00 -0.34364221218E+04  0.34364221218E+04  0.00000000000E+00 0. -1.
          6    1    1    2  502    0 -0.43041188165E+03  0.13696829209E+02 -0.25918524662E+04  0.26330068738E+04  0.17200000000E+03 0. -1.
         -6    1    1    2    0  501  0.43041188165E+03 -0.13696829209E+02 -0.75875338606E+03  0.88923151757E+03  0.17200000000E+03 0.  1.
</event>
<event>
 4    1  0.3211568E-002  0.2115340E+03  0.7818608E-02  0.1140357E+00
         -1   -1    0    0    0  501 -0.00000000000E+00  0.00000000000E+00  0.64282507746E+02  0.64282507746E+02  0.00000000000E+00 0.  1.
          1   -1    0    0  502    0  0.00000000000E+00 -0.00000000000E+00 -0.72645971735E+03  0.72645971735E+03  0.00000000000E+00 0. -1.
          6    1    1    2  502    0 -0.61275810589E+02 -0.10680782786E+03 -0.41192266159E+03  0.46306254026E+03  0.17200000000E+03 0. -1.
         -6    1    1    2    0  501  0.61275810589E+02  0.10680782786E+03 -0.25025454801E+03  0.32767968484E+03  0.17200000000E+03 0.  1.
</event>
<event>
 4    1  0.3211568E-002  0.4082185E+03  0.7818608E-02  0.1040970E+00
          2   -1    0    0  502    0  0.00000000000E+00  0.00000000000E+00  0.89548131946E+02  0.89548131946E+02  0.00000000000E+00 0. -1.
         -2   -1    0    0    0  501 -0.00000000000E+00 -0.00000000000E+00 -0.22034589168E+04  0.22034589168E+04  0.00000000000E+00 0.  1.
          6    1    1    2  502    0  0.19190012920E+03  0.31659545971E+03 -0.60491754736E+03  0.72977228215E+03  0.17200000000E+03 0. -1.
         -6    1    1    2    0  501 -0.19190012920E+03 -0.31659545971E+03 -0.15089932375E+04  0.15632347666E+04  0.17200000000E+03 0.  1.
</event>
<event>
 4    1  0.3211568E-002  0.2190223E+03  0.7818608E-02  0.1134614E+00
         -4   -1    0    0    0  501 -0.00000000000E+00  0.00000000000E+00  0.27633787821E+03  0.27633787821E+03  0.00000000000E+00 0.  1.
          4   -1    0    0  502    0  0.00000000000E+00 -0.00000000000E+00 -0.18251412679E+03  0.18251412679E+03  0.00000000000E+00 0. -1.
          6    1    1    2  502    0  0.16236793732E+02  0.13462215636E+03  0.97630298695E+02  0.23979665068E+03  0.17200000000E+03 0. -1.
         -6    1    1    2    0  501 -0.16236793732E+02 -0.13462215636E+03 -0.38065472797E+01  0.21905535432E+03  0.17200000000E+03 0. -1.
</event>
<event>
 4    1  0.3211568E-002  0.1990192E+03  0.7818608E-02  0.1150569E+00
         -2   -1    0    0    0  501 -0.00000000000E+00  0.00000000000E+00  0.38161796822E+02  0.38161796822E+02  0.00000000000E+00 0.  1.
          2   -1    0    0  502    0  0.00000000000E+00 -0.00000000000E+00 -0.11345358249E+04  0.11345358249E+04  0.00000000000E+00 0. -1.
          6    1    1    2  502    0 -0.65600991476E+02  0.75638355762E+02 -0.37707311767E+03  0.42637165362E+03  0.17200000000E+03 0.  1.
         -6    1    1    2    0  501  0.65600991476E+02 -0.75638355762E+02 -0.71930091042E+03  0.74632596811E+03  0.17200000000E+03 0. -1.
</event>
<event>
 4    1  0.3211568E-002  0.2454709E+03  0.7818608E-02  0.1116201E+00
          2   -1    0    0  502    0  0.00000000000E+00  0.00000000000E+00  0.12517794514E+04  0.12517794514E+04  0.00000000000E+00 0. -1.
         -2   -1    0    0    0  501 -0.00000000000E+00 -0.00000000000E+00 -0.57797921208E+02  0.57797921208E+02  0.00000000000E+00 0.  1.
          6    1    1    2  502    0 -0.10064312194E+03 -0.14332807997E+03  0.86470474054E+03  0.89887166203E+03  0.17200000000E+03 0. -1.
         -6    1    1    2    0  501  0.10064312194E+03  0.14332807997E+03  0.32927678970E+03  0.41070571062E+03  0.17200000000E+03 0.  1.
</event>
<event>
 4    1  0.3211568E-002  0.2605269E+03  0.7818608E-02  0.1106827E+00
         -4   -1    0    0    0  501 -0.00000000000E+00  0.00000000000E+00  0.24793974124E+03  0.24793974124E+03  0.00000000000E+00 0.  1.
          4   -1    0    0  502    0  0.00000000000E+00 -0.00000000000E+00 -0.27625957404E+03  0.27625957404E+03  0.00000000000E+00 0. -1.
          6    1    1    2  502    0  0.19177196255E+03  0.38907399734E+02 -0.39125394135E+02  0.26344841590E+03  0.17200000000E+03 0. -1.
         -6    1    1    2    0  501 -0.19177196255E+03 -0.38907399734E+02  0.10805561332E+02  0.26075089939E+03  0.17200000000E+03 0.  1.
</event>
<event>
 4    1  0.3211568E-002  0.2927194E+03  0.7818608E-02  0.1088938E+00
         -1   -1    0    0    0  501 -0.00000000000E+00  0.00000000000E+00  0.87858030671E+02  0.87858030671E+02  0.00000000000E+00 0.  1.
          1   -1    0    0  502    0  0.00000000000E+00 -0.00000000000E+00 -0.10234116920E+04  0.10234116920E+04  0.00000000000E+00 0. -1.
          6    1    1    2  502    0  0.22955742784E+03  0.58344076188E+02 -0.58829672313E+03  0.65709792143E+03  0.17200000000E+03 0. -1.
         -6    1    1    2    0  501 -0.22955742784E+03 -0.58344076188E+02 -0.34725693815E+03  0.45417180119E+03  0.17200000000E+03 0.  1.
</event>
<event>
 4    1  0.3211568E-002  0.2193150E+03  0.7818608E-02  0.1134395E+00
          2   -1    0    0  502    0  0.00000000000E+00  0.00000000000E+00  0.51823628941E+02  0.51823628941E+02  0.00000000000E+00 0. -1.
         -2   -1    0    0    0  501 -0.00000000000E+00 -0.00000000000E+00 -0.13473650169E+04  0.13473650169E+04  0.00000000000E+00 0.  1.
          6    1    1    2  502    0 -0.10828756182E+03 -0.82394574417E+02 -0.25753009815E+03  0.33826145715E+03  0.17200000000E+03 0. -1.
         -6    1    1    2    0  501  0.10828756182E+03  0.82394574417E+02 -0.10380112898E+04  0.10609271887E+04  0.17200000000E+03 0.  1.
</event>
<event>
 4    1  0.3211568E-002  0.1900975E+03  0.7818608E-02  0.1158373E+00
          2   -1    0    0  502    0  0.00000000000E+00  0.00000000000E+00  0.98036904472E+03  0.98036904472E+03  0.00000000000E+00 0. -1.
         -2   -1    0    0    0  501 -0.00000000000E+00 -0.00000000000E+00 -0.43101046056E+02  0.43101046056E+02  0.00000000000E+00 0.  1.
          6    1    1    2  502    0 -0.30196225340E+02 -0.75108303556E+02  0.66335208899E+03  0.69005294236E+03  0.17200000000E+03 0. -1.
         -6    1    1    2    0  501  0.30196225340E+02  0.75108303556E+02  0.27391590967E+03  0.33341714842E+03  0.17200000000E+03 0.  1.
</event>
<event>
 4    1  0.3211568E-002  0.1859680E+03  0.7818608E-02  0.1162149E+00
          2   -1    0    0  502    0  0.00000000000E+00  0.00000000000E+00  0.75221152526E+03  0.75221152526E+03  0.00000000000E+00 0. -1.
         -2   -1    0    0    0  501 -0.00000000000E+00 -0.00000000000E+00 -0.56989406588E+02  0.56989406588E+02  0.00000000000E+00 0.  1.
          6    1    1    2  502    0  0.18521348906E+02  0.68242763276E+02  0.16975090453E+03  0.25179254297E+03  0.17200000000E+03 0.  1.
         -6    1    1    2    0  501 -0.18521348906E+02 -0.68242763276E+02  0.52547121414E+03  0.55740838888E+03  0.17200000000E+03 0. -1.
</event>
<event>
 4    1  0.3211568E-002  0.2093289E+03  0.7818608E-02  0.1142099E+00
         -2   -1    0    0    0  501 -0.00000000000E+00  0.00000000000E+00  0.21556858714E+02  0.21556858714E+02  0.00000000000E+00 0.  1.
          2   -1    0    0  502    0  0.00000000000E+00 -0.00000000000E+00 -0.26235979246E+04  0.26235979246E+04  0.00000000000E+00 0. -1.
          6    1    1    2  502    0 -0.11921191002E+03  0.48087800435E+01 -0.19286872166E+04  0.19400136555E+04  0.17200000000E+03 0. -1.
         -6    1    1    2    0  501  0.11921191002E+03 -0.48087800435E+01 -0.67335384924E+03  0.70514112781E+03  0.17200000000E+03 0.  1.
</event>
<event>
 4    1  0.3211568E-002  0.1818006E+03  0.7818608E-02  0.1166072E+00
          2   -1    0    0  502    0  0.00000000000E+00  0.00000000000E+00  0.34885866615E+02  0.34885866615E+02  0.00000000000E+00 0. -1.
         -2   -1    0    0    0  501 -0.00000000000E+00 -0.00000000000E+00 -0.10944491607E+04  0.10944491607E+04  0.00000000000E+00 0.  1.
          6    1    1    2  502    0  0.54519307908E+02 -0.22251171438E+02 -0.32281474355E+03  0.37048728483E+03  0.17200000000E+03 0. -1.
         -6    1    1    2    0  501 -0.54519307908E+02  0.22251171438E+02 -0.73674855057E+03  0.75884774253E+03  0.17200000000E+03 0. -1.
</event>
<event>
 4    1  0.3211568E-002  0.1787930E+03  0.7818608E-02  0.1168976E+00
          2   -1    0    0  502    0  0.00000000000E+00  0.00000000000E+00  0.89537804545E+03  0.89537804545E+03  0.00000000000E+00 0. -1.
         -2   -1    0    0    0  501 -0.00000000000E+00 -0.00000000000E+00 -0.20883537940E+03  0.20883537940E+03  0.00000000000E+00 0.  1.
          6    1    1    2  502    0 -0.35209945063E+02 -0.33810973164E+02  0.84597401607E+03  0.86466118105E+03  0.17200000000E+03 0. -1.
         -6    1    1    2    0  501  0.35209945063E+02  0.33810973164E+02 -0.15943135003E+03  0.23955224380E+03  0.17200000000E+03 0.  1.
</event>
<event>
 4    1  0.3211568E-002  0.2117640E+03  0.7818608E-02  0.1140177E+00
         -2   -1    0    0    0  501 -0.00000000000E+00  0.00000000000E+00  0.15840635750E+03  0.15840635750E+03  0.00000000000E+00 0.  1.
          2   -1    0    0  502    0  0.00000000000E+00 -0.00000000000E+00 -0.42494245288E+03  0.42494245288E+03  0.00000000000E+00 0. -1.
          6    1    1    2  502    0  0.87676624186E+02 -0.87021751886E+02 -0.30178543909E+03  0.36867116375E+03  0.17200000000E+03 0. -1.
         -6    1    1    2    0  501 -0.87676624186E+02  0.87021751886E+02  0.35249343714E+02  0.21467764663E+03  0.17200000000E+03 0.  1.
</event>
<event>
 4    1  0.3211568E-002  0.2431343E+03  0.7818608E-02  0.1117722E+00
         -1   -1    0    0    0  501 -0.00000000000E+00  0.00000000000E+00  0.14082879905E+03  0.14082879905E+03  0.00000000000E+00 0.  1.
          1   -1    0    0  502    0  0.00000000000E+00 -0.00000000000E+00 -0.46414555280E+03  0.46414555280E+03  0.00000000000E+00 0. -1.
          6    1    1    2  502    0  0.16291728421E+03 -0.54664686865E+02 -0.25519929581E+03  0.35247829730E+03  0.17200000000E+03 0. -1.
         -6    1    1    2    0  501 -0.16291728421E+03  0.54664686865E+02 -0.68117457945E+02  0.25249605455E+03  0.17200000000E+03 0.  1.
</event>
<event>
 4    1  0.3211568E-002  0.2441131E+03  0.7818608E-02  0.1117083E+00
          2   -1    0    0  502    0  0.00000000000E+00  0.00000000000E+00  0.87367620288E+03  0.87367620288E+03  0.00000000000E+00 0. -1.
         -2   -1    0    0    0  501 -0.00000000000E+00 -0.00000000000E+00 -0.70944123891E+02  0.70944123891E+02  0.00000000000E+00 0.  1.
          6    1    1    2  502    0  0.16999545529E+03 -0.33297872698E+02  0.49413072343E+03  0.55114097560E+03  0.17200000000E+03 0.  1.
         -6    1    1    2    0  501 -0.16999545529E+03  0.33297872698E+02  0.30860135556E+03  0.39347935117E+03  0.17200000000E+03 0.  1.
</event>
<event>
 4    1  0.3211568E-002  0.2081094E+03  0.7818608E-02  0.1143072E+00
          2   -1    0    0  502    0  0.00000000000E+00  0.00000000000E+00  0.65322285252E+02  0.65322285252E+02  0.00000000000E+00 0. -1.
         -2   -1    0    0    0  501 -0.00000000000E+00 -0.00000000000E+00 -0.66772533355E+03  0.66772533355E+03  0.00000000000E+00 0.  1.
          6    1    1    2  502    0 -0.95497612526E+01 -0.11676618757E+03 -0.27041151222E+03  0.34122122801E+03  0.17200000000E+03 0. -1.
         -6    1    1    2    0  501  0.95497612526E+01  0.11676618757E+03 -0.33199153607E+03  0.39182639079E+03  0.17200000000E+03 0.  1.
</event>
<event>
 4    1  0.3211568E-002  0.2352180E+03  0.7818608E-02  0.1123020E+00
         -1   -1    0    0    0  501 -0.00000000000E+00  0.00000000000E+00  0.26838352020E+02  0.26838352020E+02  0.00000000000E+00 0.  1.
          1   -1    0    0  502    0  0.00000000000E+00 -0.00000000000E+00 -0.22830099304E+04  0.22830099304E+04  0.00000000000E+00 0. -1.
          6    1    1    2  502    0  0.89554793291E+02  0.13312937252E+03 -0.14878250404E+04  0.15063037017E+04  0.17200000000E+03 0. -1.
         -6    1    1    2    0  501 -0.89554793291E+02 -0.13312937252E+03 -0.76834653801E+03  0.80354458078E+03  0.17200000000E+03 0.  1.
</event>
<event>
 4    1  0.3211568E-002  0.2493596E+03  0.7818608E-02  0.1113710E+00
         -2   -1    0    0    0  501 -0.00000000000E+00  0.00000000000E+00  0.55399363320E+02  0.55399363320E+02  0.00000000000E+00 0.  1.
          2   -1    0    0  502    0  0.00000000000E+00 -0.00000000000E+00 -0.19510596440E+04  0.19510596440E+04  0.00000000000E+00 0. -1.
          6    1    1    2  502    0 -0.15260255868E+03 -0.96481482890E+02 -0.16016426854E+04  0.16209378487E+04  0.17200000000E+03 0. -1.
         -6    1    1    2    0  501  0.15260255868E+03  0.96481482890E+02 -0.29401759527E+03  0.38552115867E+03  0.17200000000E+03 0.  1.
</event>
<event>
 4    1  0.3211568E-002  0.3167817E+03  0.7818608E-02  0.1077140E+00
         -1   -1    0    0    0  501 -0.00000000000E+00  0.00000000000E+00  0.70003683207E+02  0.70003683207E+02  0.00000000000E+00 0.  1.
          1   -1    0    0  502    0  0.00000000000E+00 -0.00000000000E+00 -0.15000016082E+04  0.15000016082E+04  0.00000000000E+00 0. -1.
          6    1    1    2  502    0  0.25610867320E+03  0.71937629705E+02 -0.88027994969E+03  0.93554447510E+03  0.17200000000E+03 0.  1.
         -6    1    1    2    0  501 -0.25610867320E+03 -0.71937629705E+02 -0.54971797527E+03  0.63446081628E+03  0.17200000000E+03 0.  1.
</event>
<event>
 4    1  0.3211568E-002  0.1751924E+03  0.7818608E-02  0.1172539E+00
          2   -1    0    0  502    0  0.00000000000E+00  0.00000000000E+00  0.11587315325E+04  0.11587315325E+04  0.00000000000E+00 0. -1.
         -2   -1    0    0    0  501 -0.00000000000E+00 -0.00000000000E+00 -0.71401715610E+02  0.71401715610E+02  0.00000000000E+00 0.  1.
          6    1    1    2  502    0 -0.29756391489E+02  0.14930622676E+02  0.10314828933E+04  0.10462549046E+04  0.17200000000E+03 0. -1.
         -6    1    1    2    0  501  0.29756391489E+02 -0.14930622676E+02  0.55846923620E+02  0.18387834349E+03  0.17200000000E+03 0.  1.
</event>
<event>
 4    1  0.3211568E-002  0.2255075E+03  0.7818608E-02  0.1129842E+00
         -2   -1    0    0    0  501 -0.00000000000E+00  0.00000000000E+00  0.47108235717E+02  0.47108235717E+02  0.00000000000E+00 0.  1.
          2   -1    0    0  502    0  0.00000000000E+00 -0.00000000000E+00 -0.11500375905E+04  0.11500375905E+04  0.00000000000E+00 0. -1.
          6    1    1    2  502    0  0.82513138824E+02 -0.12025483807E+03 -0.69969993244E+03  0.73514191801E+03  0.17200000000E+03 0. -1.
         -6    1    1    2    0  501 -0.82513138824E+02  0.12025483807E+03 -0.40322942237E+03  0.46200390823E+03  0.17200000000E+03 0.  1.
</event>
<event>
 4    1  0.3211568E-002  0.3372789E+03  0.7818608E-02  0.1067961E+00
          2   -1    0    0  502    0  0.00000000000E+00  0.00000000000E+00  0.65360568595E+03  0.65360568595E+03  0.00000000000E+00 0. -1.
         -2   -1    0    0    0  501 -0.00000000000E+00 -0.00000000000E+00 -0.19014092485E+03  0.19014092485E+03  0.00000000000E+00 0.  1.
          6    1    1    2  502    0 -0.26715817954E+03  0.11313523586E+03  0.10898942400E+03  0.35445136342E+03  0.17200000000E+03 0. -1.
         -6    1    1    2    0  501  0.26715817954E+03 -0.11313523586E+03  0.35447533710E+03  0.48929524737E+03  0.17200000000E+03 0.  1.
</event>
<event>
 4    1  0.3211568E-002  0.1884913E+03  0.7818608E-02  0.1159829E+00
         -2   -1    0    0    0  501 -0.00000000000E+00  0.00000000000E+00  0.10077964426E+03  0.10077964426E+03  0.00000000000E+00 0.  1.
          2   -1    0    0  502    0  0.00000000000E+00 -0.00000000000E+00 -0.35255570550E+03  0.35255570550E+03  0.00000000000E+00 0. -1.
          6    1    1    2  502    0  0.46380727209E+02 -0.61593943810E+02 -0.12443861265E+03  0.22586268857E+03  0.17200000000E+03 0. -1.
         -6    1    1    2    0  501 -0.46380727209E+02  0.61593943810E+02 -0.12733744859E+03  0.22747266118E+03  0.17200000000E+03 0.  1.
</event>
<event>
 4    1  0.3211568E-002  0.2281875E+03  0.7818608E-02  0.1127922E+00
         -2   -1    0    0    0  501 -0.00000000000E+00  0.00000000000E+00  0.78985287970E+02  0.78985287970E+02  0.00000000000E+00 0.  1.
          2   -1    0    0  502    0  0.00000000000E+00 -0.00000000000E+00 -0.84915003184E+03  0.84915003184E+03  0.00000000000E+00 0. -1.
          6    1    1    2  502    0 -0.11512666526E+03  0.96080036599E+02 -0.60455165080E+03  0.64618280770E+03  0.17200000000E+03 0. -1.
         -6    1    1    2    0  501  0.11512666526E+03 -0.96080036599E+02 -0.16561309307E+03  0.28195251211E+03  0.17200000000E+03 0.  1.
</event>
<event>
 4    1  0.3211568E-002  0.2556017E+03  0.7818608E-02  0.1109815E+00
         -1   -1    0    0    0  501 -0.00000000000E+00  0.00000000000E+00  0.55568277794E+02  0.55568277794E+02  0.00000000000E+00 0.  1.
          1   -1    0    0  502    0  0.00000000000E+00 -0.00000000000E+00 -0.12020962000E+04  0.12020962000E+04  0.00000000000E+00 0. -1.
          6    1    1    2  502    0  0.84398925111E+02  0.16918944280E+03 -0.48010088859E+03  0.54390174604E+03  0.17200000000E+03 0. -1.
         -6    1    1    2    0  501 -0.84398925111E+02 -0.16918944280E+03 -0.66642703363E+03  0.71376273177E+03  0.17200000000E+03 0.  1.
</event>
<event>
 4    1  0.3211568E-002  0.3279784E+03  0.7818608E-02  0.1072035E+00
          2   -1    0    0  502    0  0.00000000000E+00  0.00000000000E+00  0.35964039641E+03  0.35964039641E+03  0.00000000000E+00 0. -1.
         -2   -1    0    0    0  501 -0.00000000000E+00 -0.00000000000E+00 -0.35460385477E+03  0.35460385477E+03  0.00000000000E+00 0.  1.
          6    1    1    2  502    0  0.27277474207E+02  0.27792401110E+03  0.14380183997E+03  0.35811839624E+03  0.17200000000E+03 0. -1.
         -6    1    1    2    0  501 -0.27277474207E+02 -0.27792401110E+03 -0.13876529833E+03  0.35612585495E+03  0.17200000000E+03 0.  1.
</event>
<event>
 4    1  0.3211568E-002  0.2142403E+03  0.7818608E-02  0.1138251E+00
         -2   -1    0    0    0  501 -0.00000000000E+00  0.00000000000E+00  0.19218690654E+02  0.19218690654E+02  0.00000000000E+00 0.  1.
          2   -1    0    0  502    0  0.00000000000E+00 -0.00000000000E+00 -0.27977180699E+04  0.27977180699E+04  0.00000000000E+00 0. -1.
          6    1    1    2  502    0  0.12676732746E+03  0.15650966983E+02 -0.19280883306E+04  0.19399545146E+04  0.17200000000E+03 0. -1.
         -6    1    1    2    0  501 -0.12676732746E+03 -0.15650966983E+02 -0.85041104860E+03  0.87698224592E+03  0.17200000000E+03 0.  1.
</event>
<event>
 4    1  0.3211568E-002  0.2031943E+03  0.7818608E-02  0.1147072E+00
          2   -1    0    0  502    0  0.00000000000E+00  0.00000000000E+00  0.46976758897E+03  0.46976758897E+03  0.00000000000E+00 0. -1.
         -2   -1    0    0    0  501 -0.00000000000E+00 -0.00000000000E+00 -0.16662364457E+03  0.16662364457E+03  0.00000000000E+00 0.  1.
          6    1    1    2  502    0  0.99177874851E+02 -0.43216406360E+02  0.37030071099E+03  0.42238670102E+03  0.17200000000E+03 0. -1.
         -6    1    1    2    0  501 -0.99177874851E+02  0.43216406360E+02 -0.67156766594E+02  0.21400453252E+03  0.17200000000E+03 0.  1.
</event>
<event>
 4    1  0.3211568E-002  0.1906649E+03  0.7818608E-02  0.1157863E+00
          1   -1    0    0  502    0  0.00000000000E+00  0.00000000000E+00  0.35709559832E+03  0.35709559832E+03  0.00000000000E+00 0. -1.
         -1   -1    0    0    0  501 -0.00000000000E+00 -0.00000000000E+00 -0.10593657957E+03  0.10593657957E+03  0.00000000000E+00 0.  1.
          6    1    1    2  502    0  0.50759663639E+02 -0.64750008805E+02  0.17131621825E+03  0.25632470371E+03  0.17200000000E+03 0. -1.
         -6    1    1    2    0  501 -0.50759663639E+02  0.64750008805E+02  0.79842800488E+02  0.20670747418E+03  0.17200000000E+03 0.  1.
</event>
<event>
 4    1  0.3211568E-002  0.1024416E+04  0.7818608E-02  0.9282164E-01
         -2   -1    0    0    0  501 -0.00000000000E+00  0.00000000000E+00  0.21448456887E+04  0.21448456887E+04  0.00000000000E+00 0.  1.
          2   -1    0    0  502    0  0.00000000000E+00 -0.00000000000E+00 -0.61191698061E+03  0.61191698061E+03  0.00000000000E+00 0. -1.
          6    1    1    2  502    0  0.62519573915E+03 -0.79307899855E+03  0.14939272453E+03  0.10352517550E+04  0.17200000000E+03 0. -1.
         -6    1    1    2    0  501 -0.62519573915E+03  0.79307899855E+03  0.13835359836E+04  0.17215109143E+04  0.17200000000E+03 0.  1.
</event>
<event>
 4    1  0.3211568E-002  0.2536106E+03  0.7818608E-02  0.1111044E+00
          1   -1    0    0  502    0  0.00000000000E+00  0.00000000000E+00  0.62284781510E+03  0.62284781510E+03  0.00000000000E+00 0. -1.
         -1   -1    0    0    0  501 -0.00000000000E+00 -0.00000000000E+00 -0.10424883326E+03  0.10424883326E+03  0.00000000000E+00 0.  1.
          6    1    1    2  502    0 -0.14538773946E+02  0.18580355065E+03  0.29461804972E+03  0.38873915497E+03  0.17200000000E+03 0.  1.
         -6    1    1    2    0  501  0.14538773946E+02 -0.18580355065E+03  0.22398093212E+03  0.33835749339E+03  0.17200000000E+03 0.  1.
</event>
<event>
 4    1  0.3211568E-002  0.2089515E+03  0.7818608E-02  0.1142399E+00
          2   -1    0    0  502    0  0.00000000000E+00  0.00000000000E+00  0.16623668863E+03  0.16623668863E+03  0.00000000000E+00 0. -1.
         -2   -1    0    0    0  501 -0.00000000000E+00 -0.00000000000E+00 -0.28665584142E+03  0.28665584142E+03  0.00000000000E+00 0.  1.
          6    1    1    2  502    0 -0.52745407963E+02 -0.10627624533E+03  0.53319515334E+01  0.20901949213E+03  0.17200000000E+03 0. -1.
         -6    1    1    2    0  501  0.52745407963E+02  0.10627624533E+03 -0.12575110433E+03  0.24387303792E+03  0.17200000000E+03 0.  1.
</event>
<event>
 4    1  0.3211568E-002  0.2297331E+03  0.7818608E-02  0.1126828E+00
          2   -1    0    0  502    0  0.00000000000E+00  0.00000000000E+00  0.88393749446E+03  0.88393749446E+03  0.00000000000E+00 0. -1.
         -2   -1    0    0    0  501 -0.00000000000E+00 -0.00000000000E+00 -0.93808647741E+02  0.93808647741E+02  0.00000000000E+00 0.  1.
          6    1    1    2  502    0  0.12437237488E+03 -0.87890925521E+02  0.68981999629E+03  0.72706872419E+03  0.17200000000E+03 0. -1.
         -6    1    1    2    0  501 -0.12437237488E+03  0.87890925521E+02  0.10030885043E+03  0.25067741800E+03  0.17200000000E+03 0.  1.
</event>
<event>
 4    1  0.3211568E-002  0.5434393E+03  0.7818608E-02  0.1003024E+00
          2   -1    0    0  502    0  0.00000000000E+00  0.00000000000E+00  0.24076387219E+04  0.24076387219E+04  0.00000000000E+00 0. -1.
         -2   -1    0    0    0  501 -0.00000000000E+00 -0.00000000000E+00 -0.12673976129E+03  0.12673976129E+03  0.00000000000E+00 0.  1.
          6    1    1    2  502    0  0.75994304193E+02  0.50986970881E+03  0.91315679212E+03  0.10626295597E+04  0.17200000000E+03 0. -1.
         -6    1    1    2    0  501 -0.75994304193E+02 -0.50986970881E+03  0.13677421685E+04  0.14717489235E+04  0.17200000000E+03 0.  1.
</event>
<event>
 4    1  0.3211568E-002  0.2358954E+03  0.7818608E-02  0.1122558E+00
         -2   -1    0    0    0  501 -0.00000000000E+00  0.00000000000E+00  0.29684457752E+02  0.29684457752E+02  0.00000000000E+00 0.  1.
          2   -1    0    0  502    0  0.00000000000E+00 -0.00000000000E+00 -0.23208669832E+04  0.23208669832E+04  0.00000000000E+00 0. -1.
          6    1    1    2  502    0  0.16132418650E+03  0.60965197438E+01 -0.16609493901E+04  0.16776172201E+04  0.17200000000E+03 0. -1.
         -6    1    1    2    0  501 -0.16132418650E+03 -0.60965197438E+01 -0.63023313537E+03  0.67293422087E+03  0.17200000000E+03 0.  1.
</event>
<event>
 4    1  0.3211568E-002  0.1777967E+03  0.7818608E-02  0.1169953E+00
         -1   -1    0    0    0  501 -0.00000000000E+00  0.00000000000E+00  0.79662599571E+02  0.79662599571E+02  0.00000000000E+00 0.  1.
          1   -1    0    0  502    0  0.00000000000E+00 -0.00000000000E+00 -0.46745157466E+03  0.46745157466E+03  0.00000000000E+00 0. -1.
          6    1    1    2  502    0  0.32104882348E+02 -0.31574596304E+02 -0.87558463048E+02  0.19818719195E+03  0.17200000000E+03 0.  1.
         -6    1    1    2    0  501 -0.32104882348E+02  0.31574596304E+02 -0.30023051204E+03  0.34892698228E+03  0.17200000000E+03 0. -1.
</event>
<event>
 4    1  0.3211568E-002  0.3476894E+03  0.7818608E-02  0.1063567E+00
          1   -1    0    0  502    0  0.00000000000E+00  0.00000000000E+00  0.34926400529E+03  0.34926400529E+03  0.00000000000E+00 0. -1.
         -1   -1    0    0    0  501 -0.00000000000E+00 -0.00000000000E+00 -0.48607470898E+03  0.48607470898E+03  0.00000000000E+00 0.  1.
          6    1    1    2  502    0 -0.30196168715E+03 -0.11094194822E+02  0.15571011007E+03  0.38096401410E+03  0.17200000000E+03 0. -1.
         -6    1    1    2    0  501  0.30196168715E+03  0.11094194822E+02 -0.29252081376E+03  0.45437470016E+03  0.17200000000E+03 0.  1.
</event>
<event>
 4    1  0.3211568E-002  0.3195244E+03  0.7818608E-02  0.1075868E+00
         -4   -1    0    0    0  501 -0.00000000000E+00  0.00000000000E+00  0.80504287062E+03  0.80504287062E+03  0.00000000000E+00 0.  1.
          4   -1    0    0  502    0  0.00000000000E+00 -0.00000000000E+00 -0.30464149214E+03  0.30464149214E+03  0.00000000000E+00 0. -1.
          6    1    1    2  502    0  0.26916093125E+03  0.80127991376E+01 -0.17370246828E+03  0.36368717237E+03  0.17200000000E+03 0. -1.
         -6    1    1    2    0  501 -0.26916093125E+03 -0.80127991376E+01  0.67410384675E+03  0.74599719039E+03  0.17200000000E+03 0.  1.
</event>
<event>
 4    1  0.3211568E-002  0.1982328E+03  0.7818608E-02  0.1151239E+00
         -2   -1    0    0    0  501 -0.00000000000E+00  0.00000000000E+00  0.25861221376E+03  0.25861221376E+03  0.00000000000E+00 0.  1.
          2   -1    0    0  502    0  0.00000000000E+00 -0.00000000000E+00 -0.39641389856E+03  0.39641389856E+03  0.00000000000E+00 0. -1.
          6    1    1    2  502    0  0.84383808303E+02  0.50908048046E+02 -0.32609500026E+03  0.38162049952E+03  0.17200000000E+03 0. -1.
         -6    1    1    2    0  501 -0.84383808303E+02 -0.50908048046E+02  0.18829331546E+03  0.27340561279E+03  0.17200000000E+03 0.  1.
</event>
<event>
 4    1  0.3211568E-002  0.1976404E+03  0.7818608E-02  0.1151745E+00
          2   -1    0    0  502    0  0.00000000000E+00  0.00000000000E+00  0.37409819776E+03  0.37409819776E+03  0.00000000000E+00 0. -1.
         -2   -1    0    0    0  501 -0.00000000000E+00 -0.00000000000E+00 -0.17206715188E+03  0.17206715188E+03  0.00000000000E+00 0.  1.
          6    1    1    2  502    0 -0.39299531310E+02 -0.89069024586E+02  0.27224698297E+03  0.33642259739E+03  0.17200000000E+03 0. -1.
         -6    1    1    2    0  501  0.39299531310E+02  0.89069024586E+02 -0.70215937082E+02  0.20974275225E+03  0.17200000000E+03 0.  1.
</event>
<event>
 4    1  0.3211568E-002  0.1917078E+03  0.7818608E-02  0.1156930E+00
          2   -1    0    0  502    0  0.00000000000E+00  0.00000000000E+00  0.30011975614E+04  0.30011975614E+04  0.00000000000E+00 0. -1.
         -2   -1    0    0    0  501 -0.00000000000E+00 -0.00000000000E+00 -0.19917697996E+02  0.19917697996E+02  0.00000000000E+00 0.  1.
          6    1    1    2  502    0  0.31675750282E+02 -0.78514483232E+02  0.24281391386E+04  0.24356952916E+04  0.17200000000E+03 0. -1.
         -6    1    1    2    0  501 -0.31675750282E+02  0.78514483232E+02  0.55314072484E+03  0.58541996781E+03  0.17200000000E+03 0.  1.
</event>
<event>
 4    1  0.3211568E-002  0.2046499E+03  0.7818608E-02  0.1145874E+00
          2   -1    0    0  502    0  0.00000000000E+00  0.00000000000E+00  0.75277524673E+03  0.75277524673E+03  0.00000000000E+00 0. -1.
         -2   -1    0    0    0  501 -0.00000000000E+00 -0.00000000000E+00 -0.11227223958E+03  0.11227223958E+03  0.00000000000E+00 0.  1.
          6    1    1    2  502    0 -0.10529136399E+03  0.34803954061E+02  0.62745067027E+03  0.65998176503E+03  0.17200000000E+03 0. -1.
         -6    1    1    2    0  501  0.10529136399E+03 -0.34803954061E+02  0.13052336874E+02  0.20506572128E+03  0.17200000000E+03 0.  1.
</event>
<event>
 4    1  0.3211568E-002  0.2529157E+03  0.7818608E-02  0.1111476E+00
          1   -1    0    0  502    0  0.00000000000E+00  0.00000000000E+00  0.90413866843E+03  0.90413866843E+03  0.00000000000E+00 0. -1.
         -1   -1    0    0    0  501 -0.00000000000E+00 -0.00000000000E+00 -0.18290645681E+03  0.18290645681E+03  0.00000000000E+00 0.  1.
          6    1    1    2  502    0  0.86325712913E+02  0.16410431727E+03  0.78623246773E+03  0.82591031533E+03  0.17200000000E+03 0. -1.
         -6    1    1    2    0  501 -0.86325712913E+02 -0.16410431727E+03 -0.65000256108E+02  0.26113480992E+03  0.17200000000E+03 0.  1.
</event>
<event>
 4    1  0.3211568E-002  0.2645106E+03  0.7818608E-02  0.1104463E+00
          2   -1    0    0  502    0  0.00000000000E+00  0.00000000000E+00  0.14082255646E+04  0.14082255646E+04  0.00000000000E+00 0. -1.
         -2   -1    0    0    0  501 -0.00000000000E+00 -0.00000000000E+00 -0.91556001094E+02  0.91556001094E+02  0.00000000000E+00 0.  1.
          6    1    1    2  502    0 -0.19514864387E+03  0.47946308337E+02  0.11654633498E+04  0.11951027828E+04  0.17200000000E+03 0. -1.
         -6    1    1    2    0  501  0.19514864387E+03 -0.47946308337E+02  0.15120621368E+03  0.30467878289E+03  0.17200000000E+03 0.  1.
</event>
<event>
 4    1  0.3211568E-002  0.2640741E+03  0.7818608E-02  0.1104720E+00
          2   -1    0    0  502    0  0.00000000000E+00  0.00000000000E+00  0.16211955941E+04  0.16211955941E+04  0.00000000000E+00 0. -1.
         -2   -1    0    0    0  501 -0.00000000000E+00 -0.00000000000E+00 -0.55816619226E+02  0.55816619226E+02  0.00000000000E+00 0.  1.
          6    1    1    2  502    0 -0.68087631621E+02 -0.18845478619E+03  0.38111773197E+03  0.46366567442E+03  0.17200000000E+03 0. -1.
         -6    1    1    2    0  501  0.68087631621E+02  0.18845478619E+03  0.11842612429E+04  0.12133465389E+04  0.17200000000E+03 0. -1.
</event>
<event>
 4    1  0.3211568E-002  0.2700569E+03  0.7818608E-02  0.1101247E+00
         -2   -1    0    0    0  501 -0.00000000000E+00  0.00000000000E+00  0.23722774599E+03  0.23722774599E+03  0.00000000000E+00 0.  1.
          2   -1    0    0  502    0  0.00000000000E+00 -0.00000000000E+00 -0.32769648424E+03  0.32769648424E+03  0.00000000000E+00 0. -1.
          6    1    1    2  502    0  0.10737948701E+03  0.17837149969E+03 -0.11548037649E+03  0.29371153108E+03  0.17200000000E+03 0. -1.
         -6    1    1    2    0  501 -0.10737948701E+03 -0.17837149969E+03  0.25011638242E+02  0.27121269915E+03  0.17200000000E+03 0.  1.
</event>
<event>
 4    1  0.3211568E-002  0.3453659E+03  0.7818608E-02  0.1064533E+00
          2   -1    0    0  502    0  0.00000000000E+00  0.00000000000E+00  0.75469747093E+03  0.75469747093E+03  0.00000000000E+00 0. -1.
         -2   -1    0    0    0  501 -0.00000000000E+00 -0.00000000000E+00 -0.15837346902E+03  0.15837346902E+03  0.00000000000E+00 0.  1.
          6    1    1    2  502    0  0.13988705069E+03  0.26481172888E+03  0.27743278256E+03  0.44299727712E+03  0.17200000000E+03 0. -1.
         -6    1    1    2    0  501 -0.13988705069E+03 -0.26481172888E+03  0.31889121935E+03  0.47007366282E+03  0.17200000000E+03 0.  1.
</event>
<event>
 4    1  0.3211568E-002  0.1758600E+03  0.7818608E-02  0.1171871E+00
         -3   -1    0    0    0  501 -0.00000000000E+00  0.00000000000E+00  0.64345246533E+02  0.64345246533E+02  0.00000000000E+00 0.  1.
          3   -1    0    0  502    0  0.00000000000E+00 -0.00000000000E+00 -0.81054258966E+03  0.81054258966E+03  0.00000000000E+00 0. -1.
          6    1    1    2  502    0  0.26288481871E+02  0.25527232908E+02 -0.65217893195E+03  0.67547322906E+03  0.17200000000E+03 0. -1.
         -6    1    1    2    0  501 -0.26288481871E+02 -0.25527232908E+02 -0.94018411185E+02  0.19941460714E+03  0.17200000000E+03 0.  1.
</event>
<event>
 4    1  0.3211568E-002  0.2010279E+03  0.7818608E-02  0.1148875E+00
          1   -1    0    0  502    0  0.00000000000E+00  0.00000000000E+00  0.85723287946E+03  0.85723287946E+03  0.00000000000E+00 0. -1.
         -1   -1    0    0    0  501 -0.00000000000E+00 -0.00000000000E+00 -0.48942440713E+02  0.48942440713E+02  0.00000000000E+00 0.  1.
          6    1    1    2  502    0 -0.84447861393E+02 -0.60801011272E+02  0.49103205730E+03  0.53058899872E+03  0.17200000000E+03 0. -1.
         -6    1    1    2    0  501  0.84447861393E+02  0.60801011272E+02  0.31725838145E+03  0.37558632145E+03  0.17200000000E+03 0.  1.
</event>
<event>
 4    1  0.3211568E-002  0.1720313E+03  0.7818608E-02  0.1175746E+00
          1   -1    0    0  502    0  0.00000000000E+00  0.00000000000E+00  0.18347257265E+04  0.18347257265E+04  0.00000000000E+00 0. -1.
         -1   -1    0    0    0  501 -0.00000000000E+00 -0.00000000000E+00 -0.27168094617E+02  0.27168094617E+02  0.00000000000E+00 0.  1.
          6    1    1    2  502    0 -0.14252729773E+01 -0.29540277192E+01  0.14971625090E+04  0.15070137146E+04  0.17200000000E+03 0. -1.
         -6    1    1    2    0  501  0.14252729773E+01  0.29540277192E+01  0.31039512290E+03  0.35488010652E+03  0.17200000000E+03 0.  1.
</event>
<event>
 4    1  0.3211568E-002  0.1839451E+03  0.7818608E-02  0.1164039E+00
         -1   -1    0    0    0  501 -0.00000000000E+00  0.00000000000E+00  0.13823555688E+03  0.13823555688E+03  0.00000000000E+00 0.  1.
          1   -1    0    0  502    0  0.00000000000E+00 -0.00000000000E+00 -0.25231462883E+03  0.25231462883E+03  0.00000000000E+00 0. -1.
          6    1    1    2  502    0 -0.65106554517E+02  0.35954165258E+01 -0.90808751774E+02  0.20513902569E+03  0.17200000000E+03 0. -1.
         -6    1    1    2    0  501  0.65106554517E+02 -0.35954165258E+01 -0.23270320169E+02  0.18541116002E+03  0.17200000000E+03 0.  1.
</event>
<event>
 4    1  0.3211568E-002  0.1850896E+03  0.7818608E-02  0.1162966E+00
         -2   -1    0    0    0  501 -0.00000000000E+00  0.00000000000E+00  0.39501815743E+02  0.39501815743E+02  0.00000000000E+00 0.  1.
          2   -1    0    0  502    0  0.00000000000E+00 -0.00000000000E+00 -0.13252256880E+04  0.13252256880E+04  0.00000000000E+00 0. -1.
          6    1    1    2  502    0 -0.58746399079E+02  0.34971625049E+02 -0.10439962239E+04  0.10602765062E+04  0.17200000000E+03 0. -1.
         -6    1    1    2    0  501  0.58746399079E+02 -0.34971625049E+02 -0.24172764839E+03  0.30445099763E+03  0.17200000000E+03 0.  1.
</event>
<event>
 4    1  0.3211568E-002  0.4828219E+03  0.7818608E-02  0.1018363E+00
         -1   -1    0    0    0  501 -0.00000000000E+00  0.00000000000E+00  0.12840752732E+04  0.12840752732E+04  0.00000000000E+00 0.  1.
          1   -1    0    0  502    0  0.00000000000E+00 -0.00000000000E+00 -0.23852974359E+03  0.23852974359E+03  0.00000000000E+00 0. -1.
          6    1    1    2  502    0 -0.64919882626E+02 -0.44645084680E+03  0.15066668983E+03  0.50578394715E+03  0.17200000000E+03 0. -1.
         -6    1    1    2    0  501  0.64919882626E+02  0.44645084680E+03  0.89487883973E+03  0.10168210696E+04  0.17200000000E+03 0.  1.
</event>
<event>
 4    1  0.3211568E-002  0.2002171E+03  0.7818608E-02  0.1149556E+00
         -4   -1    0    0    0  501 -0.00000000000E+00  0.00000000000E+00  0.19834766043E+03  0.19834766043E+03  0.00000000000E+00 0.  1.
          4   -1    0    0  502    0  0.00000000000E+00 -0.00000000000E+00 -0.30321414872E+03  0.30321414872E+03  0.00000000000E+00 0. -1.
          6    1    1    2  502    0  0.73203683660E+02 -0.71722561152E+02 -0.19724925219E+03  0.28105901972E+03  0.17200000000E+03 0. -1.
         -6    1    1    2    0  501 -0.73203683660E+02  0.71722561152E+02  0.92382763896E+02  0.22050278943E+03  0.17200000000E+03 0.  1.
</event>
<event>
 4    1  0.3211568E-002  0.1863407E+03  0.7818608E-02  0.1161804E+00
          2   -1    0    0  502    0  0.00000000000E+00  0.00000000000E+00  0.15001348583E+03  0.15001348583E+03  0.00000000000E+00 0. -1.
         -2   -1    0    0    0  501 -0.00000000000E+00 -0.00000000000E+00 -0.31760595619E+03  0.31760595619E+03  0.00000000000E+00 0.  1.
          6    1    1    2  502    0  0.25743612000E+02  0.66903957656E+02  0.37968929811E+02  0.19016969459E+03  0.17200000000E+03 0. -1.
         -6    1    1    2    0  501 -0.25743612000E+02 -0.66903957656E+02 -0.20556140017E+03  0.27744974743E+03  0.17200000000E+03 0.  1.
</event>
<event>
 4    1  0.3211568E-002  0.9160020E+03  0.7818608E-02  0.9405796E-01
          1   -1    0    0  502    0  0.00000000000E+00  0.00000000000E+00  0.14438245084E+04  0.14438245084E+04  0.00000000000E+00 0. -1.
         -1   -1    0    0    0  501 -0.00000000000E+00 -0.00000000000E+00 -0.58117320653E+03  0.58117320653E+03  0.00000000000E+00 0.  1.
          6    1    1    2  502    0  0.65567809975E+03  0.61608600553E+03  0.42332587595E+03  0.10090909443E+04  0.17200000000E+03 0. -1.
         -6    1    1    2    0  501 -0.65567809975E+03 -0.61608600553E+03  0.43932542595E+03  0.10159067706E+04  0.17200000000E+03 0.  1.
</event>
<event>
 4    1  0.3211568E-002  0.1858621E+03  0.7818608E-02  0.1162247E+00
          2   -1    0    0  502    0  0.00000000000E+00  0.00000000000E+00  0.25264024264E+04  0.25264024264E+04  0.00000000000E+00 0. -1.
         -2   -1    0    0    0  501 -0.00000000000E+00 -0.00000000000E+00 -0.15012041378E+02  0.15012041378E+02  0.00000000000E+00 0.  1.
          6    1    1    2  502    0  0.68786263251E+02 -0.15138409596E+02  0.16351361705E+04  0.16456655242E+04  0.17200000000E+03 0. -1.
         -6    1    1    2    0  501 -0.68786263251E+02  0.15138409596E+02  0.87625421452E+03  0.89574894358E+03  0.17200000000E+03 0. -1.
</event>
<event>
 4    1  0.3211568E-002  0.2226984E+03  0.7818608E-02  0.1131887E+00
         -2   -1    0    0    0  501 -0.00000000000E+00  0.00000000000E+00  0.34930399739E+02  0.34930399739E+02  0.00000000000E+00 0.  1.
          2   -1    0    0  502    0  0.00000000000E+00 -0.00000000000E+00 -0.16120733562E+04  0.16120733562E+04  0.00000000000E+00 0. -1.
          6    1    1    2  502    0  0.13618172830E+03  0.38277059361E+02 -0.50417885045E+03  0.55117230486E+03  0.17200000000E+03 0.  1.
         -6    1    1    2    0  501 -0.13618172830E+03 -0.38277059361E+02 -0.10729641060E+04  0.10958314511E+04  0.17200000000E+03 0. -1.
</event>
<event>
 4    1  0.3211568E-002  0.2707674E+03  0.7818608E-02  0.1100841E+00
         -2   -1    0    0    0  501 -0.00000000000E+00  0.00000000000E+00  0.82606356505E+02  0.82606356505E+02  0.00000000000E+00 0.  1.
          2   -1    0    0  502    0  0.00000000000E+00 -0.00000000000E+00 -0.88932456300E+03  0.88932456300E+03  0.00000000000E+00 0. -1.
          6    1    1    2  502    0  0.14193512740E+03  0.15357544599E+03 -0.42523486660E+03  0.50412269318E+03  0.17200000000E+03 0. -1.
         -6    1    1    2    0  501 -0.14193512740E+03 -0.15357544599E+03 -0.38148333989E+03  0.46780822633E+03  0.17200000000E+03 0.  1.
</event>
<event>
 4    1  0.3211568E-002  0.2460620E+03  0.7818608E-02  0.1115819E+00
         -1   -1    0    0    0  501 -0.00000000000E+00  0.00000000000E+00  0.41429927824E+02  0.41429927824E+02  0.00000000000E+00 0.  1.
          1   -1    0    0  502    0  0.00000000000E+00 -0.00000000000E+00 -0.18767076644E+04  0.18767076644E+04  0.00000000000E+00 0. -1.
          6    1    1    2  502    0  0.17102405669E+03 -0.41391937498E+02 -0.13687941249E+04  0.13907350131E+04  0.17200000000E+03 0. -1.
         -6    1    1    2    0  501 -0.17102405669E+03  0.41391937498E+02 -0.46648361176E+03  0.52740257915E+03  0.17200000000E+03 0.  1.
</event>
<event>
 4    1  0.3211568E-002  0.3300066E+03  0.7818608E-02  0.1071134E+00
          1   -1    0    0  502    0  0.00000000000E+00  0.00000000000E+00  0.12724214562E+03  0.12724214562E+03  0.00000000000E+00 0. -1.
         -1   -1    0    0    0  501 -0.00000000000E+00 -0.00000000000E+00 -0.11822275636E+04  0.11822275636E+04  0.00000000000E+00 0.  1.
          6    1    1    2  502    0 -0.23424134490E+03  0.15636933189E+03 -0.87148854342E+03  0.93187802685E+03  0.17200000000E+03 0. -1.
         -6    1    1    2    0  501  0.23424134490E+03 -0.15636933189E+03 -0.18349687454E+03  0.37759168235E+03  0.17200000000E+03 0.  1.
</event>
<event>
 4    1  0.3211568E-002  0.1995419E+03  0.7818608E-02  0.1150126E+00
         -2   -1    0    0    0  501 -0.00000000000E+00  0.00000000000E+00  0.40453035528E+02  0.40453035528E+02  0.00000000000E+00 0.  1.
          2   -1    0    0  502    0  0.00000000000E+00 -0.00000000000E+00 -0.17130342357E+04  0.17130342357E+04  0.00000000000E+00 0. -1.
          6    1    1    2  502    0  0.63940353936E+02 -0.78387565900E+02 -0.14081392987E+04  0.14222071803E+04  0.17200000000E+03 0. -1.
         -6    1    1    2    0  501 -0.63940353936E+02  0.78387565900E+02 -0.26444190150E+03  0.33128009089E+03  0.17200000000E+03 0.  1.
</event>
<event>
 4    1  0.3211568E-002  0.1837047E+03  0.7818608E-02  0.1164265E+00
          2   -1    0    0  502    0  0.00000000000E+00  0.00000000000E+00  0.45884586651E+03  0.45884586651E+03  0.00000000000E+00 0. -1.
         -2   -1    0    0    0  501 -0.00000000000E+00 -0.00000000000E+00 -0.78507493382E+02  0.78507493382E+02  0.00000000000E+00 0.  1.
          6    1    1    2  502    0  0.87141448965E+01 -0.63933413059E+02  0.12264304953E+03  0.22088172225E+03  0.17200000000E+03 0. -1.
         -6    1    1    2    0  501 -0.87141448965E+01  0.63933413059E+02  0.25769532360E+03  0.31647163764E+03  0.17200000000E+03 0. -1.
</event>
<event>
 4    1  0.3211568E-002  0.2010616E+03  0.7818608E-02  0.1148846E+00
         -1   -1    0    0    0  501 -0.00000000000E+00  0.00000000000E+00  0.42321703358E+02  0.42321703358E+02  0.00000000000E+00 0.  1.
          1   -1    0    0  502    0  0.00000000000E+00 -0.00000000000E+00 -0.14579372824E+04  0.14579372824E+04  0.00000000000E+00 0. -1.
          6    1    1    2  502    0 -0.15454506670E+02 -0.10297060403E+03 -0.26731745165E+03  0.33449126599E+03  0.17200000000E+03 0.  1.
         -6    1    1    2    0  501  0.15454506670E+02  0.10297060403E+03 -0.11482981274E+04  0.11657677198E+04  0.17200000000E+03 0. -1.
</event>
<event>
 4    1  0.3211568E-002  0.2027194E+03  0.7818608E-02  0.1147465E+00
          2   -1    0    0  502    0  0.00000000000E+00  0.00000000000E+00  0.19209755722E+04  0.19209755722E+04  0.00000000000E+00 0. -1.
         -2   -1    0    0    0  501 -0.00000000000E+00 -0.00000000000E+00 -0.23313222515E+02  0.23313222515E+02  0.00000000000E+00 0.  1.
          6    1    1    2  502    0 -0.19467109719E+02  0.10550909275E+03  0.12278430406E+04  0.12444652142E+04  0.17200000000E+03 0. -1.
         -6    1    1    2    0  501  0.19467109719E+02 -0.10550909275E+03  0.66981930905E+03  0.69982358048E+03  0.17200000000E+03 0.  1.
</event>
<event>
 4    1  0.3211568E-002  0.1791667E+03  0.7818608E-02  0.1168612E+00
         -2   -1    0    0    0  501 -0.00000000000E+00  0.00000000000E+00  0.12126969353E+03  0.12126969353E+03  0.00000000000E+00 0.  1.
          2   -1    0    0  502    0  0.00000000000E+00 -0.00000000000E+00 -0.46314851139E+03  0.46314851139E+03  0.00000000000E+00 0. -1.
          6    1    1    2  502    0  0.41873951328E+02 -0.27627243011E+02 -0.36221170554E+03  0.40410148724E+03  0.17200000000E+03 0. -1.
         -6    1    1    2    0  501 -0.41873951328E+02  0.27627243011E+02  0.20332887685E+02  0.18031671769E+03  0.17200000000E+03 0.  1.
</event>
<event>
 4    1  0.3211568E-002  0.2460279E+03  0.7818608E-02  0.1115841E+00
         -2   -1    0    0    0  501 -0.00000000000E+00  0.00000000000E+00  0.34170677203E+02  0.34170677203E+02  0.00000000000E+00 0.  1.
          2   -1    0    0  502    0  0.00000000000E+00 -0.00000000000E+00 -0.18529804919E+04  0.18529804919E+04  0.00000000000E+00 0. -1.
          6    1    1    2  502    0 -0.16283722415E+03 -0.66556358285E+02 -0.11073989523E+04  0.11343994667E+04  0.17200000000E+03 0.  1.
         -6    1    1    2    0  501  0.16283722415E+03  0.66556358285E+02 -0.71141086235E+03  0.75275170240E+03  0.17200000000E+03 0.  1.
</event>
<event>
 4    1  0.3211568E-002  0.3893040E+03  0.7818608E-02  0.1047548E+00
         -2   -1    0    0    0  501 -0.00000000000E+00  0.00000000000E+00  0.18708804259E+03  0.18708804259E+03  0.00000000000E+00 0.  1.
          2   -1    0    0  502    0  0.00000000000E+00 -0.00000000000E+00 -0.81157814147E+03  0.81157814147E+03  0.00000000000E+00 0. -1.
          6    1    1    2  502    0 -0.34782062720E+03 -0.31534879740E+02 -0.29084333096E+03  0.48595008027E+03  0.17200000000E+03 0.  1.
         -6    1    1    2    0  501  0.34782062720E+03  0.31534879740E+02 -0.33364676792E+03  0.51271610379E+03  0.17200000000E+03 0.  1.
</event>
<event>
 4    1  0.3211568E-002  0.1755981E+03  0.7818608E-02  0.1172132E+00
         -1   -1    0    0    0  501 -0.00000000000E+00  0.00000000000E+00  0.33378094042E+02  0.33378094042E+02  0.00000000000E+00 0.  1.
          1   -1    0    0  502    0  0.00000000000E+00 -0.00000000000E+00 -0.13597667527E+04  0.13597667527E+04  0.00000000000E+00 0. -1.
          6    1    1    2  502    0  0.35358386016E+02  0.70157530747E+00 -0.10576156559E+04  0.10720940179E+04  0.17200000000E+03 0. -1.
         -6    1    1    2    0  501 -0.35358386016E+02 -0.70157530747E+00 -0.26877300274E+03  0.32105082880E+03  0.17200000000E+03 0.  1.
</event>
<event>
 4    1  0.3211568E-002  0.1804033E+03  0.7818608E-02  0.1167413E+00
          2   -1    0    0  502    0  0.00000000000E+00  0.00000000000E+00  0.94147883200E+03  0.94147883200E+03  0.00000000000E+00 0. -1.
         -2   -1    0    0    0  501 -0.00000000000E+00 -0.00000000000E+00 -0.48557324850E+02  0.48557324850E+02  0.00000000000E+00 0.  1.
          6    1    1    2  502    0  0.45549628591E+02  0.29775812153E+02  0.71215776141E+03  0.73465232920E+03  0.17200000000E+03 0. -1.
         -6    1    1    2    0  501 -0.45549628591E+02 -0.29775812153E+02  0.18076374574E+03  0.25538382766E+03  0.17200000000E+03 0.  1.
</event>
<event>
 4    1  0.3211568E-002  0.2405298E+03  0.7818608E-02  0.1119440E+00
         -1   -1    0    0    0  501 -0.00000000000E+00  0.00000000000E+00  0.12797303925E+03  0.12797303925E+03  0.00000000000E+00 0.  1.
          1   -1    0    0  502    0  0.00000000000E+00 -0.00000000000E+00 -0.75424223472E+03  0.75424223472E+03  0.00000000000E+00 0. -1.
          6    1    1    2  502    0  0.12903461010E+03  0.10779919594E+03 -0.59232866192E+03  0.63930262081E+03  0.17200000000E+03 0. -1.
         -6    1    1    2    0  501 -0.12903461010E+03 -0.10779919594E+03 -0.33940533548E+02  0.24291265316E+03  0.17200000000E+03 0.  1.
</event>
<event>
 4    1  0.3211568E-002  0.3527878E+03  0.7818608E-02  0.1061477E+00
          2   -1    0    0  502    0  0.00000000000E+00  0.00000000000E+00  0.12471224848E+04  0.12471224848E+04  0.00000000000E+00 0. -1.
         -2   -1    0    0    0  501 -0.00000000000E+00 -0.00000000000E+00 -0.17793031166E+03  0.17793031166E+03  0.00000000000E+00 0.  1.
          6    1    1    2  502    0 -0.84303138027E+02 -0.29625702596E+03  0.10067610360E+04  0.10667834964E+04  0.17200000000E+03 0. -1.
         -6    1    1    2    0  501  0.84303138027E+02  0.29625702596E+03  0.62431137151E+02  0.35826930010E+03  0.17200000000E+03 0.  1.
</event>
<event>
 4    1  0.3211568E-002  0.3357695E+03  0.7818608E-02  0.1068612E+00
         -1   -1    0    0    0  501 -0.00000000000E+00  0.00000000000E+00  0.25569233936E+02  0.25569233936E+02  0.00000000000E+00 0.  1.
          1   -1    0    0  502    0  0.00000000000E+00 -0.00000000000E+00 -0.48538345491E+04  0.48538345491E+04  0.00000000000E+00 0. -1.
          6    1    1    2  502    0 -0.39691269750E+02  0.28562516647E+03 -0.31524986618E+04  0.31703294695E+04  0.17200000000E+03 0. -1.
         -6    1    1    2    0  501  0.39691269750E+02 -0.28562516647E+03 -0.16757666534E+04  0.17090743135E+04  0.17200000000E+03 0.  1.
</event>
<event>
 4    1  0.3211568E-002  0.1790073E+03  0.7818608E-02  0.1168767E+00
          3   -1    0    0  502    0  0.00000000000E+00  0.00000000000E+00  0.22071507166E+03  0.22071507166E+03  0.00000000000E+00 0. -1.
         -3   -1    0    0    0  501 -0.00000000000E+00 -0.00000000000E+00 -0.23668847535E+03  0.23668847535E+03  0.00000000000E+00 0.  1.
          6    1    1    2  502    0  0.23677384411E+02  0.43577351813E+02  0.13421657140E+03  0.22373576415E+03  0.17200000000E+03 0. -1.
         -6    1    1    2    0  501 -0.23677384411E+02 -0.43577351813E+02 -0.15018997509E+03  0.23366778285E+03  0.17200000000E+03 0.  1.
</event>
<event>
 4    1  0.3211568E-002  0.3294575E+03  0.7818608E-02  0.1071377E+00
         -2   -1    0    0    0  501 -0.00000000000E+00  0.00000000000E+00  0.15299465244E+04  0.15299465244E+04  0.00000000000E+00 0.  1.
          2   -1    0    0  502    0  0.00000000000E+00 -0.00000000000E+00 -0.83363313921E+02  0.83363313921E+02  0.00000000000E+00 0. -1.
          6    1    1    2  502    0  0.97435014050E+02 -0.26356147694E+03  0.41195543069E+03  0.52749361225E+03  0.17200000000E+03 0. -1.
         -6    1    1    2    0  501 -0.97435014050E+02  0.26356147694E+03  0.10346277798E+04  0.10858162261E+04  0.17200000000E+03 0.  1.
</event>
<event>
 4    1  0.3211568E-002  0.3085307E+03  0.7818608E-02  0.1081052E+00
         -2   -1    0    0    0  501 -0.00000000000E+00  0.00000000000E+00  0.13373238690E+03  0.13373238690E+03  0.00000000000E+00 0.  1.
          2   -1    0    0  502    0  0.00000000000E+00 -0.00000000000E+00 -0.93685420323E+03  0.93685420323E+03  0.00000000000E+00 0. -1.
          6    1    1    2  502    0 -0.17755284342E+03 -0.18461356512E+03 -0.66391992153E+03  0.73210712524E+03  0.17200000000E+03 0. -1.
         -6    1    1    2    0  501  0.17755284342E+03  0.18461356512E+03 -0.13920189481E+03  0.33847946489E+03  0.17200000000E+03 0.  1.
</event>
<event>
 4    1  0.3211568E-002  0.1888320E+03  0.7818608E-02  0.1159519E+00
         -1   -1    0    0    0  501 -0.00000000000E+00  0.00000000000E+00  0.12938548561E+04  0.12938548561E+04  0.00000000000E+00 0.  1.
          1   -1    0    0  502    0  0.00000000000E+00 -0.00000000000E+00 -0.60844431393E+02  0.60844431393E+02  0.00000000000E+00 0. -1.
          6    1    1    2  502    0 -0.76819474036E+02  0.13125370905E+02  0.11551554182E+03  0.22136247956E+03  0.17200000000E+03 0. -1.
         -6    1    1    2    0  501  0.76819474036E+02 -0.13125370905E+02  0.11174948829E+04  0.11333368079E+04  0.17200000000E+03 0.  1.
</event>
<event>
 4    1  0.3211568E-002  0.3231131E+03  0.7818608E-02  0.1074225E+00
          1   -1    0    0  502    0  0.00000000000E+00  0.00000000000E+00  0.99136383912E+03  0.99136383912E+03  0.00000000000E+00 0. -1.
         -1   -1    0    0    0  501 -0.00000000000E+00 -0.00000000000E+00 -0.12042587469E+03  0.12042587469E+03  0.00000000000E+00 0.  1.
          6    1    1    2  502    0  0.25614115504E+03  0.95967667916E+02  0.23853221471E+03  0.40162134162E+03  0.17200000000E+03 0. -1.
         -6    1    1    2    0  501 -0.25614115504E+03 -0.95967667916E+02  0.63240574972E+03  0.71016837220E+03  0.17200000000E+03 0. -1.
</event>
<event>
 4    1  0.3211568E-002  0.3791874E+03  0.7818608E-02  0.1051234E+00
          1   -1    0    0  502    0  0.00000000000E+00  0.00000000000E+00  0.52181189334E+03  0.52181189334E+03  0.00000000000E+00 0. -1.
         -1   -1    0    0    0  501 -0.00000000000E+00 -0.00000000000E+00 -0.32804186473E+03  0.32804186473E+03  0.00000000000E+00 0.  1.
          6    1    1    2  502    0 -0.20398842005E+03 -0.26942131226E+03 -0.73100767763E+02  0.38616944631E+03  0.17200000000E+03 0.  1.
         -6    1    1    2    0  501  0.20398842005E+03  0.26942131226E+03  0.26687079637E+03  0.46368431176E+03  0.17200000000E+03 0. -1.
</event>
<event>
 4    1  0.3211568E-002  0.2055034E+03  0.7818608E-02  0.1145177E+00
          1   -1    0    0  502    0  0.00000000000E+00  0.00000000000E+00  0.17468985327E+03  0.17468985327E+03  0.00000000000E+00 0. -1.
         -1   -1    0    0    0  501 -0.00000000000E+00 -0.00000000000E+00 -0.52766334175E+03  0.52766334175E+03  0.00000000000E+00 0.  1.
          6    1    1    2  502    0 -0.82479935426E+02 -0.76450808363E+02  0.82014479598E+02  0.22126463954E+03  0.17200000000E+03 0. -1.
         -6    1    1    2    0  501  0.82479935426E+02  0.76450808363E+02 -0.43498796807E+03  0.48108855548E+03  0.17200000000E+03 0.  1.
</event>
<event>
 4    1  0.3211568E-002  0.3552634E+03  0.7818608E-02  0.1060475E+00
         -2   -1    0    0    0  501 -0.00000000000E+00  0.00000000000E+00  0.18420336604E+03  0.18420336604E+03  0.00000000000E+00 0.  1.
          2   -1    0    0  502    0  0.00000000000E+00 -0.00000000000E+00 -0.20458148424E+04  0.20458148424E+04  0.00000000000E+00 0. -1.
          6    1    1    2  502    0 -0.29330271674E+03 -0.10296390070E+03 -0.21486449670E+02  0.35591251175E+03  0.17200000000E+03 0.  1.
         -6    1    1    2    0  501  0.29330271674E+03  0.10296390070E+03 -0.18401250267E+04  0.18741056967E+04  0.17200000000E+03 0. -1.
</event>
<event>
 4    1  0.3211568E-002  0.1831074E+03  0.7818608E-02  0.1164829E+00
         -2   -1    0    0    0  501 -0.00000000000E+00  0.00000000000E+00  0.41712361384E+02  0.41712361384E+02  0.00000000000E+00 0.  1.
          2   -1    0    0  502    0  0.00000000000E+00 -0.00000000000E+00 -0.15306143348E+04  0.15306143348E+04  0.00000000000E+00 0. -1.
          6    1    1    2  502    0  0.62721354346E+02 -0.32171142179E+01 -0.20270936313E+03  0.27316552494E+03  0.17200000000E+03 0.  1.
         -6    1    1    2    0  501 -0.62721354346E+02  0.32171142179E+01 -0.12861926103E+04  0.12991611713E+04  0.17200000000E+03 0. -1.
</event>
<event>
 4    1  0.3211568E-002  0.4470660E+03  0.7818608E-02  0.1028601E+00
         -2   -1    0    0    0  501 -0.00000000000E+00  0.00000000000E+00  0.19099998737E+03  0.19099998737E+03  0.00000000000E+00 0.  1.
          2   -1    0    0  502    0  0.00000000000E+00 -0.00000000000E+00 -0.12917686584E+04  0.12917686584E+04  0.00000000000E+00 0. -1.
          6    1    1    2  502    0 -0.10383556954E+03 -0.39937727316E+03 -0.87348244239E+03  0.98124390902E+03  0.17200000000E+03 0. -1.
         -6    1    1    2    0  501  0.10383556954E+03  0.39937727316E+03 -0.22728622859E+03  0.50152473671E+03  0.17200000000E+03 0.  1.
</event>
<event>
 4    1  0.3211568E-002  0.3143192E+03  0.7818608E-02  0.1078294E+00
          2   -1    0    0  502    0  0.00000000000E+00  0.00000000000E+00  0.13737708279E+04  0.13737708279E+04  0.00000000000E+00 0. -1.
         -2   -1    0    0    0  501 -0.00000000000E+00 -0.00000000000E+00 -0.20502522864E+03  0.20502522864E+03  0.00000000000E+00 0.  1.
          6    1    1    2  502    0  0.22242915580E+03 -0.14049128934E+03  0.12204296860E+04  0.12602559860E+04  0.17200000000E+03 0. -1.
         -6    1    1    2    0  501 -0.22242915580E+03  0.14049128934E+03 -0.51684086743E+02  0.31854007056E+03  0.17200000000E+03 0.  1.
</event>
<event>
 4    1  0.3211568E-002  0.1796526E+03  0.7818608E-02  0.1168140E+00
         -1   -1    0    0    0  501 -0.00000000000E+00  0.00000000000E+00  0.67170727679E+02  0.67170727679E+02  0.00000000000E+00 0.  1.
          1   -1    0    0  502    0  0.00000000000E+00 -0.00000000000E+00 -0.51152007523E+03  0.51152007523E+03  0.00000000000E+00 0. -1.
          6    1    1    2  502    0 -0.42210754186E+02 -0.30154581047E+02 -0.29343659560E+03  0.34406406695E+03  0.17200000000E+03 0.  1.
         -6    1    1    2    0  501  0.42210754186E+02  0.30154581047E+02 -0.15091275195E+03  0.23462673596E+03  0.17200000000E+03 0.  1.
</event>
<event>
 4    1  0.3211568E-002  0.4441651E+03  0.7818608E-02  0.1029476E+00
         -1   -1    0    0    0  501 -0.00000000000E+00  0.00000000000E+00  0.27402487086E+03  0.27402487086E+03  0.00000000000E+00 0.  1.
          1   -1    0    0  502    0  0.00000000000E+00 -0.00000000000E+00 -0.72357468377E+03  0.72357468377E+03  0.00000000000E+00 0. -1.
          6    1    1    2  502    0 -0.40499136044E+03 -0.60667961109E+02 -0.26010702130E+03  0.51472154226E+03  0.17200000000E+03 0. -1.
         -6    1    1    2    0  501  0.40499136044E+03  0.60667961109E+02 -0.18944279161E+03  0.48287801237E+03  0.17200000000E+03 0.  1.
</event>
<event>
 4    1  0.3211568E-002  0.1733746E+03  0.7818608E-02  0.1174374E+00
         -1   -1    0    0    0  501 -0.00000000000E+00  0.00000000000E+00  0.31777306662E+02  0.31777306662E+02  0.00000000000E+00 0.  1.
          1   -1    0    0  502    0  0.00000000000E+00 -0.00000000000E+00 -0.12469127456E+04  0.12469127456E+04  0.00000000000E+00 0. -1.
          6    1    1    2  502    0 -0.15558118858E+02 -0.15254173466E+02 -0.92168823081E+03  0.93785283477E+03  0.17200000000E+03 0. -1.
         -6    1    1    2    0  501  0.15558118858E+02  0.15254173466E+02 -0.29344720813E+03  0.34083721749E+03  0.17200000000E+03 0.  1.
</event>
<event>
 4    1  0.3211568E-002  0.2774816E+03  0.7818608E-02  0.1097072E+00
          1   -1    0    0  502    0  0.00000000000E+00  0.00000000000E+00  0.88560750447E+03  0.88560750447E+03  0.00000000000E+00 0. -1.
         -1   -1    0    0    0  501 -0.00000000000E+00 -0.00000000000E+00 -0.89179745220E+02  0.89179745220E+02  0.00000000000E+00 0.  1.
          6    1    1    2  502    0 -0.13593144583E+03 -0.17010200067E+03  0.32099915038E+03  0.42430708590E+03  0.17200000000E+03 0. -1.
         -6    1    1    2    0  501  0.13593144583E+03  0.17010200067E+03  0.47542860887E+03  0.55048016379E+03  0.17200000000E+03 0. -1.
</event>
<event>
 4    1  0.3211568E-002  0.1776611E+03  0.7818608E-02  0.1170086E+00
         -1   -1    0    0    0  501 -0.00000000000E+00  0.00000000000E+00  0.17959050799E+03  0.17959050799E+03  0.00000000000E+00 0.  1.
          1   -1    0    0  502    0  0.00000000000E+00 -0.00000000000E+00 -0.18084053510E+03  0.18084053510E+03  0.00000000000E+00 0. -1.
          6    1    1    2  502    0  0.24703417995E+02 -0.37002898910E+02 -0.30853827066E+02  0.18032035945E+03  0.17200000000E+03 0. -1.
         -6    1    1    2    0  501 -0.24703417995E+02  0.37002898910E+02  0.29603799961E+02  0.18011068364E+03  0.17200000000E+03 0.  1.
</event>
<event>
 4    1  0.3211568E-002  0.1769843E+03  0.7818608E-02  0.1170754E+00
          1   -1    0    0  502    0  0.00000000000E+00  0.00000000000E+00  0.29860442125E+04  0.29860442125E+04  0.00000000000E+00 0. -1.
         -1   -1    0    0    0  501 -0.00000000000E+00 -0.00000000000E+00 -0.19812103323E+02  0.19812103323E+02  0.00000000000E+00 0.  1.
          6    1    1    2  502    0 -0.34378918941E+02 -0.23612049259E+02  0.25140507866E+04  0.25202727623E+04  0.17200000000E+03 0. -1.
         -6    1    1    2    0  501  0.34378918941E+02  0.23612049259E+02  0.45218132261E+03  0.48558355353E+03  0.17200000000E+03 0.  1.
</event>
<event>
 4    1  0.3211568E-002  0.2670541E+03  0.7818608E-02  0.1102978E+00
          1   -1    0    0  502    0  0.00000000000E+00  0.00000000000E+00  0.10229211526E+03  0.10229211526E+03  0.00000000000E+00 0. -1.
         -1   -1    0    0    0  501 -0.00000000000E+00 -0.00000000000E+00 -0.11054354448E+04  0.11054354448E+04  0.00000000000E+00 0.  1.
          6    1    1    2  502    0  0.16440375428E+01 -0.20428210280E+03 -0.13460332978E+03  0.29905841699E+03  0.17200000000E+03 0. -1.
         -6    1    1    2    0  501 -0.16440375428E+01  0.20428210280E+03 -0.86853999975E+03  0.90866914306E+03  0.17200000000E+03 0.  1.
</event>
<event>
 4    1  0.3211568E-002  0.2585744E+03  0.7818608E-02  0.1108003E+00
         -2   -1    0    0    0  501 -0.00000000000E+00  0.00000000000E+00  0.90859817957E+02  0.90859817957E+02  0.00000000000E+00 0.  1.
          2   -1    0    0  502    0  0.00000000000E+00 -0.00000000000E+00 -0.12882518882E+04  0.12882518882E+04  0.00000000000E+00 0. -1.
          6    1    1    2  502    0 -0.18775678630E+03 -0.44990150781E+02 -0.10502295843E+04  0.10815927626E+04  0.17200000000E+03 0. -1.
         -6    1    1    2    0  501  0.18775678630E+03  0.44990150781E+02 -0.14716248592E+03  0.29751894349E+03  0.17200000000E+03 0.  1.
</event>
<event>
 4    1  0.3211568E-002  0.1908243E+03  0.7818608E-02  0.1157720E+00
          1   -1    0    0  502    0  0.00000000000E+00  0.00000000000E+00  0.18929763798E+03  0.18929763798E+03  0.00000000000E+00 0. -1.
         -1   -1    0    0    0  501 -0.00000000000E+00 -0.00000000000E+00 -0.35945665775E+03  0.35945665775E+03  0.00000000000E+00 0.  1.
          6    1    1    2  502    0  0.52292220598E+02  0.63995633671E+02  0.10199054361E+03  0.21637002669E+03  0.17200000000E+03 0. -1.
         -6    1    1    2    0  501 -0.52292220598E+02 -0.63995633671E+02 -0.27214956337E+03  0.33238426904E+03  0.17200000000E+03 0.  1.
</event>
<event>
 4    1  0.3211568E-002  0.2248095E+03  0.7818608E-02  0.1130347E+00
          2   -1    0    0  502    0  0.00000000000E+00  0.00000000000E+00  0.16776407474E+04  0.16776407474E+04  0.00000000000E+00 0. -1.
         -2   -1    0    0    0  501 -0.00000000000E+00 -0.00000000000E+00 -0.98684319964E+02  0.98684319964E+02  0.00000000000E+00 0.  1.
          6    1    1    2  502    0 -0.10057212354E+03 -0.10411807215E+03  0.15297664919E+04  0.15461968971E+04  0.17200000000E+03 0. -1.
         -6    1    1    2    0  501  0.10057212354E+03  0.10411807215E+03  0.49189935557E+02  0.23012817025E+03  0.17200000000E+03 0.  1.
</event>
<event>
 4    1  0.3211568E-002  0.2221467E+03  0.7818608E-02  0.1132293E+00
          1   -1    0    0  502    0  0.00000000000E+00  0.00000000000E+00  0.24247614408E+04  0.24247614408E+04  0.00000000000E+00 0. -1.
         -1   -1    0    0    0  501 -0.00000000000E+00 -0.00000000000E+00 -0.21263514572E+02  0.21263514572E+02  0.00000000000E+00 0.  1.
          6    1    1    2  502    0 -0.10944426914E+03  0.88244667095E+02  0.14549429945E+04  0.14718044322E+04  0.17200000000E+03 0. -1.
         -6    1    1    2    0  501  0.10944426914E+03 -0.88244667095E+02  0.94855493175E+03  0.97422052322E+03  0.17200000000E+03 0.  1.
</event>
<event>
 4    1  0.3211568E-002  0.1948367E+03  0.7818608E-02  0.1154170E+00
          2   -1    0    0  502    0  0.00000000000E+00  0.00000000000E+00  0.68054197566E+03  0.68054197566E+03  0.00000000000E+00 0. -1.
         -2   -1    0    0    0  501 -0.00000000000E+00 -0.00000000000E+00 -0.57164269140E+02  0.57164269140E+02  0.00000000000E+00 0.  1.
          6    1    1    2  502    0  0.23362141947E+02 -0.88496005087E+02  0.36906610171E+03  0.41733813632E+03  0.17200000000E+03 0.  1.
         -6    1    1    2    0  501 -0.23362141947E+02  0.88496005087E+02  0.25431160481E+03  0.32036810849E+03  0.17200000000E+03 0.  1.
</event>
<event>
 4    1  0.3211568E-002  0.1827532E+03  0.7818608E-02  0.1165165E+00
         -2   -1    0    0    0  501 -0.00000000000E+00  0.00000000000E+00  0.46626846168E+02  0.46626846168E+02  0.00000000000E+00 0.  1.
          2   -1    0    0  502    0  0.00000000000E+00 -0.00000000000E+00 -0.75869357962E+03  0.75869357962E+03  0.00000000000E+00 0. -1.
          6    1    1    2  502    0 -0.90031116876E+01 -0.61103751244E+02 -0.45121758518E+03  0.48682238405E+03  0.17200000000E+03 0. -1.
         -6    1    1    2    0  501  0.90031116876E+01  0.61103751244E+02 -0.26084914827E+03  0.31849804173E+03  0.17200000000E+03 0.  1.
</event>
<event>
 4    1  0.3211568E-002  0.1862984E+03  0.7818608E-02  0.1161843E+00
          2   -1    0    0  502    0  0.00000000000E+00  0.00000000000E+00  0.10391905991E+04  0.10391905991E+04  0.00000000000E+00 0. -1.
         -2   -1    0    0    0  501 -0.00000000000E+00 -0.00000000000E+00 -0.74255887360E+02  0.74255887360E+02  0.00000000000E+00 0.  1.
          6    1    1    2  502    0 -0.71553205486E+02  0.17978488497E+01  0.89543003806E+03  0.91460485814E+03  0.17200000000E+03 0. -1.
         -6    1    1    2    0  501  0.71553205486E+02 -0.17978488497E+01  0.69504673630E+02  0.19884162827E+03  0.17200000000E+03 0.  1.
</event>
<event>
 4    1  0.3211568E-002  0.2368400E+03  0.7818608E-02  0.1121916E+00
          2   -1    0    0  502    0  0.00000000000E+00  0.00000000000E+00  0.53007265981E+03  0.53007265981E+03  0.00000000000E+00 0. -1.
         -2   -1    0    0    0  501 -0.00000000000E+00 -0.00000000000E+00 -0.16368162453E+03  0.16368162453E+03  0.00000000000E+00 0.  1.
          6    1    1    2  502    0  0.16268077008E+03  0.66441943046E+01  0.38943163951E+03  0.45579620459E+03  0.17200000000E+03 0. -1.
         -6    1    1    2    0  501 -0.16268077008E+03 -0.66441943046E+01 -0.23040604224E+02  0.23795807974E+03  0.17200000000E+03 0.  1.
</event>
<event>
 4    1  0.3211568E-002  0.1839050E+03  0.7818608E-02  0.1164076E+00
         -1   -1    0    0    0  501 -0.00000000000E+00  0.00000000000E+00  0.19663697835E+03  0.19663697835E+03  0.00000000000E+00 0.  1.
          1   -1    0    0  502    0  0.00000000000E+00 -0.00000000000E+00 -0.11674503755E+04  0.11674503755E+04  0.00000000000E+00 0. -1.
          6    1    1    2  502    0 -0.95747547405E+01  0.64384713901E+02 -0.11152076708E+04  0.11302695326E+04  0.17200000000E+03 0. -1.
         -6    1    1    2    0  501  0.95747547405E+01 -0.64384713901E+02  0.14439427360E+03  0.23381782130E+03  0.17200000000E+03 0.  1.
</event>
<event>
 4    1  0.3211568E-002  0.3388012E+03  0.7818608E-02  0.1067308E+00
          2   -1    0    0  502    0  0.00000000000E+00  0.00000000000E+00  0.25820544032E+03  0.25820544032E+03  0.00000000000E+00 0. -1.
         -2   -1    0    0    0  501 -0.00000000000E+00 -0.00000000000E+00 -0.44480892494E+03  0.44480892494E+03  0.00000000000E+00 0.  1.
          6    1    1    2  502    0 -0.13500039846E+03  0.25879936684E+03 -0.84884102790E+02  0.34927286005E+03  0.17200000000E+03 0. -1.
         -6    1    1    2    0  501  0.13500039846E+03 -0.25879936684E+03 -0.10171938183E+03  0.35374150520E+03  0.17200000000E+03 0.  1.
</event>
<event>
 4    1  0.3211568E-002  0.1741070E+03  0.7818608E-02  0.1173631E+00
         -1   -1    0    0    0  501 -0.00000000000E+00  0.00000000000E+00  0.39540212681E+03  0.39540212681E+03  0.00000000000E+00 0.  1.
          1   -1    0    0  502    0  0.00000000000E+00 -0.00000000000E+00 -0.17712257077E+03  0.17712257077E+03  0.00000000000E+00 0. -1.
          6    1    1    2  502    0 -0.26214587894E+02  0.64837073849E+01 -0.10644596628E+03  0.20406858361E+03  0.17200000000E+03 0. -1.
         -6    1    1    2    0  501  0.26214587894E+02 -0.64837073849E+01  0.32472552232E+03  0.36845611397E+03  0.17200000000E+03 0.  1.
</event>
<event>
 4    1  0.3211568E-002  0.1765953E+03  0.7818608E-02  0.1171139E+00
         -4   -1    0    0    0  501 -0.00000000000E+00  0.00000000000E+00  0.21320766633E+03  0.21320766633E+03  0.00000000000E+00 0.  1.
          4   -1    0    0  502    0  0.00000000000E+00 -0.00000000000E+00 -0.15038576163E+03  0.15038576163E+03  0.00000000000E+00 0. -1.
          6    1    1    2  502    0  0.39560089042E+02 -0.60739195900E+01  0.13359376371E+01  0.17660033373E+03  0.17200000000E+03 0.  1.
         -6    1    1    2    0  501 -0.39560089042E+02  0.60739195900E+01  0.61485967057E+02  0.18699309423E+03  0.17200000000E+03 0.  1.
</event>
<event>
 4    1  0.3211568E-002  0.2193678E+03  0.7818608E-02  0.1134355E+00
         -2   -1    0    0    0  501 -0.00000000000E+00  0.00000000000E+00  0.34516991865E+03  0.34516991865E+03  0.00000000000E+00 0.  1.
          2   -1    0    0  502    0  0.00000000000E+00 -0.00000000000E+00 -0.13706329286E+04  0.13706329286E+04  0.00000000000E+00 0. -1.
          6    1    1    2  502    0 -0.13413107862E+03  0.23389721603E+02 -0.13258317441E+04  0.13438571498E+04  0.17200000000E+03 0. -1.
         -6    1    1    2    0  501  0.13413107862E+03 -0.23389721603E+02  0.30036873422E+03  0.37194569742E+03  0.17200000000E+03 0.  1.
</event>
<event>
 4    1  0.3211568E-002  0.1804604E+03  0.7818608E-02  0.1167358E+00
          2   -1    0    0  502    0  0.00000000000E+00  0.00000000000E+00  0.31372529818E+03  0.31372529818E+03  0.00000000000E+00 0. -1.
         -2   -1    0    0    0  501 -0.00000000000E+00 -0.00000000000E+00 -0.12394261900E+03  0.12394261900E+03  0.00000000000E+00 0.  1.
          6    1    1    2  502    0 -0.53866024995E+02 -0.89665440111E+01  0.66811014705E+01  0.18058401003E+03  0.17200000000E+03 0.  1.
         -6    1    1    2    0  501  0.53866024995E+02  0.89665440111E+01  0.18310157770E+03  0.25708390715E+03  0.17200000000E+03 0. -1.
</event>
<event>
 4    1  0.3211568E-002  0.1812538E+03  0.7818608E-02  0.1166595E+00
         -1   -1    0    0    0  501 -0.00000000000E+00  0.00000000000E+00  0.17434282919E+03  0.17434282919E+03  0.00000000000E+00 0.  1.
          1   -1    0    0  502    0  0.00000000000E+00 -0.00000000000E+00 -0.18907080964E+03  0.18907080964E+03  0.00000000000E+00 0. -1.
          6    1    1    2  502    0  0.41047214097E+01  0.57027196326E+02  0.31417837887E+01  0.18128105434E+03  0.17200000000E+03 0. -1.
         -6    1    1    2    0  501 -0.41047214097E+01 -0.57027196326E+02 -0.17869764233E+02  0.18213258449E+03  0.17200000000E+03 0.  1.
</event>
<event>
 4    1  0.3211568E-002  0.2987125E+03  0.7818608E-02  0.1085886E+00
          2   -1    0    0  502    0  0.00000000000E+00  0.00000000000E+00  0.65344920880E+03  0.65344920880E+03  0.00000000000E+00 0. -1.
         -2   -1    0    0    0  501 -0.00000000000E+00 -0.00000000000E+00 -0.22116942460E+03  0.22116942460E+03  0.00000000000E+00 0.  1.
          6    1    1    2  502    0 -0.21148260578E+03 -0.12214863133E+03  0.48663443342E+03  0.57100109673E+03  0.17200000000E+03 0. -1.
         -6    1    1    2    0  501  0.21148260578E+03  0.12214863133E+03 -0.54354649225E+02  0.30361753667E+03  0.17200000000E+03 0. -1.
</event>
<event>
 4    1  0.3211568E-002  0.1911032E+03  0.7818608E-02  0.1157470E+00
         -2   -1    0    0    0  501 -0.00000000000E+00  0.00000000000E+00  0.32351386869E+02  0.32351386869E+02  0.00000000000E+00 0.  1.
          2   -1    0    0  502    0  0.00000000000E+00 -0.00000000000E+00 -0.12887825277E+04  0.12887825277E+04  0.00000000000E+00 0. -1.
          6    1    1    2  502    0  0.18334000452E+02  0.81242326696E+02 -0.86090183149E+03  0.88185736641E+03  0.17200000000E+03 0. -1.
         -6    1    1    2    0  501 -0.18334000452E+02 -0.81242326696E+02 -0.39552930934E+03  0.43927654816E+03  0.17200000000E+03 0.  1.
</event>
<event>
 4    1  0.3211568E-002  0.3132793E+03  0.7818608E-02  0.1078785E+00
          2   -1    0    0  502    0  0.00000000000E+00  0.00000000000E+00  0.25491521200E+04  0.25491521200E+04  0.00000000000E+00 0. -1.
         -2   -1    0    0    0  501 -0.00000000000E+00 -0.00000000000E+00 -0.48178210277E+02  0.48178210277E+02  0.00000000000E+00 0.  1.
          6    1    1    2  502    0 -0.32634691914E+02 -0.25979783802E+03  0.18325304663E+04  0.18591158785E+04  0.17200000000E+03 0. -1.
         -6    1    1    2    0  501  0.32634691914E+02  0.25979783802E+03  0.66844344338E+03  0.73821445174E+03  0.17200000000E+03 0.  1.
</event>
<event>
 4    1  0.3211568E-002  0.1801148E+03  0.7818608E-02  0.1167692E+00
         -1   -1    0    0    0  501 -0.00000000000E+00  0.00000000000E+00  0.17948818441E+03  0.17948818441E+03  0.00000000000E+00 0.  1.
          1   -1    0    0  502    0  0.00000000000E+00 -0.00000000000E+00 -0.18120814737E+03  0.18120814737E+03  0.00000000000E+00 0. -1.
          6    1    1    2  502    0 -0.42879708673E+02 -0.31916661268E+02  0.82713155318E+01  0.18030462374E+03  0.17200000000E+03 0.  1.
         -6    1    1    2    0  501  0.42879708673E+02  0.31916661268E+02 -0.99912784865E+01  0.18039170804E+03  0.17200000000E+03 0.  1.
</event>
<event>
 4    1  0.3211568E-002  0.2205370E+03  0.7818608E-02  0.1133483E+00
          2   -1    0    0  502    0  0.00000000000E+00  0.00000000000E+00  0.78381155978E+03  0.78381155978E+03  0.00000000000E+00 0. -1.
         -2   -1    0    0    0  501 -0.00000000000E+00 -0.00000000000E+00 -0.96981825414E+02  0.96981825414E+02  0.00000000000E+00 0.  1.
          6    1    1    2  502    0 -0.60653243047E+02  0.12399088638E+03  0.60771732166E+03  0.64649586143E+03  0.17200000000E+03 0. -1.
         -6    1    1    2    0  501  0.60653243047E+02 -0.12399088638E+03  0.79112412701E+02  0.23429752376E+03  0.17200000000E+03 0.  1.
</event>
<event>
 4    1  0.3211568E-002  0.4588735E+03  0.7818608E-02  0.1025108E+00
          1   -1    0    0  502    0  0.00000000000E+00  0.00000000000E+00  0.18596313590E+04  0.18596313590E+04  0.00000000000E+00 0. -1.
         -1   -1    0    0    0  501 -0.00000000000E+00 -0.00000000000E+00 -0.11394237990E+03  0.11394237990E+03  0.00000000000E+00 0.  1.
          6    1    1    2  502    0 -0.41692586506E+03  0.84579734040E+02  0.79478512104E+03  0.91774086593E+03  0.17200000000E+03 0. -1.
         -6    1    1    2    0  501  0.41692586506E+03 -0.84579734040E+02  0.95090385801E+03  0.10558328729E+04  0.17200000000E+03 0.  1.
</event>
<event>
 4    1  0.3211568E-002  0.2510513E+03  0.7818608E-02  0.1112642E+00
          2   -1    0    0  502    0  0.00000000000E+00  0.00000000000E+00  0.49977070149E+03  0.49977070149E+03  0.00000000000E+00 0. -1.
         -2   -1    0    0    0  501 -0.00000000000E+00 -0.00000000000E+00 -0.12611931332E+03  0.12611931332E+03  0.00000000000E+00 0.  1.
          6    1    1    2  502    0  0.69262477017E+01  0.18274237219E+03  0.18433575555E+03  0.31145853380E+03  0.17200000000E+03 0.  1.
         -6    1    1    2    0  501 -0.69262477017E+01 -0.18274237219E+03  0.18931563262E+03  0.31443148101E+03  0.17200000000E+03 0. -1.
</event>
<event>
 4    1  0.3211568E-002  0.7087109E+03  0.7818608E-02  0.9702450E-01
          2   -1    0    0  502    0  0.00000000000E+00  0.00000000000E+00  0.30137476819E+04  0.30137476819E+04  0.00000000000E+00 0. -1.
         -2   -1    0    0    0  501 -0.00000000000E+00 -0.00000000000E+00 -0.17131837391E+03  0.17131837391E+03  0.00000000000E+00 0.  1.
          6    1    1    2  502    0  0.13269160771E+03 -0.67459620119E+03  0.11586084029E+04  0.13581769136E+04  0.17200000000E+03 0. -1.
         -6    1    1    2    0  501 -0.13269160771E+03  0.67459620119E+03  0.16838209051E+04  0.18268891422E+04  0.17200000000E+03 0.  1.
</event>
<event>
 4    1  0.3211568E-002  0.3239950E+03  0.7818608E-02  0.1073825E+00
         -1   -1    0    0    0  501 -0.00000000000E+00  0.00000000000E+00  0.24874031164E+03  0.24874031164E+03  0.00000000000E+00 0.  1.
          1   -1    0    0  502    0  0.00000000000E+00 -0.00000000000E+00 -0.49580870629E+03  0.49580870629E+03  0.00000000000E+00 0. -1.
          6    1    1    2  502    0 -0.23541367787E+03 -0.14131219550E+03 -0.26715219355E+03  0.41993217410E+03  0.17200000000E+03 0. -1.
         -6    1    1    2    0  501  0.23541367787E+03  0.14131219550E+03  0.20083798896E+02  0.32461684384E+03  0.17200000000E+03 0.  1.
</event>
<event>
 4    1  0.3211568E-002  0.8231374E+03  0.7818608E-02  0.9527118E-01
         -2   -1    0    0    0  501 -0.00000000000E+00  0.00000000000E+00  0.20456847661E+04  0.20456847661E+04  0.00000000000E+00 0.  1.
          2   -1    0    0  502    0  0.00000000000E+00 -0.00000000000E+00 -0.37519045693E+03  0.37519045693E+03  0.00000000000E+00 0. -1.
          6    1    1    2  502    0  0.79609520888E+03  0.11917874827E+03  0.42083072627E+03  0.92447479999E+03  0.17200000000E+03 0. -1.
         -6    1    1    2    0  501 -0.79609520888E+03 -0.11917874827E+03  0.12496635829E+04  0.14964004230E+04  0.17200000000E+03 0.  1.
</event>
<event>
 4    1  0.3211568E-002  0.2512377E+03  0.7818608E-02  0.1112525E+00
          2   -1    0    0  502    0  0.00000000000E+00  0.00000000000E+00  0.11885484734E+04  0.11885484734E+04  0.00000000000E+00 0. -1.
         -2   -1    0    0    0  501 -0.00000000000E+00 -0.00000000000E+00 -0.60400882591E+02  0.60400882591E+02  0.00000000000E+00 0.  1.
          6    1    1    2  502    0 -0.89166731492E+02 -0.15995530495E+03  0.78107818628E+03  0.82048981631E+03  0.17200000000E+03 0. -1.
         -6    1    1    2    0  501  0.89166731492E+02  0.15995530495E+03  0.34706940455E+03  0.42845953970E+03  0.17200000000E+03 0.  1.
</event>
<event>
 4    1  0.3211568E-002  0.2561457E+03  0.7818608E-02  0.1109481E+00
         -1   -1    0    0    0  501 -0.00000000000E+00  0.00000000000E+00  0.48210950717E+02  0.48210950717E+02  0.00000000000E+00 0.  1.
          1   -1    0    0  502    0  0.00000000000E+00 -0.00000000000E+00 -0.13665926589E+04  0.13665926589E+04  0.00000000000E+00 0. -1.
          6    1    1    2  502    0  0.70869241426E+02  0.17608000646E+03 -0.70481962880E+03  0.74992088062E+03  0.17200000000E+03 0. -1.
         -6    1    1    2    0  501 -0.70869241426E+02 -0.17608000646E+03 -0.61356207937E+03  0.66488272898E+03  0.17200000000E+03 0.  1.
</event>
<event>
 4    1  0.3211568E-002  0.1855189E+03  0.7818608E-02  0.1162566E+00
          2   -1    0    0  502    0  0.00000000000E+00  0.00000000000E+00  0.62270478924E+03  0.62270478924E+03  0.00000000000E+00 0. -1.
         -2   -1    0    0    0  501 -0.00000000000E+00 -0.00000000000E+00 -0.13870426580E+03  0.13870426580E+03  0.00000000000E+00 0.  1.
          6    1    1    2  502    0  0.42214577398E+02 -0.55237488170E+02  0.53726655036E+03  0.56839475436E+03  0.17200000000E+03 0. -1.
         -6    1    1    2    0  501 -0.42214577398E+02  0.55237488170E+02 -0.53266026917E+02  0.19301430068E+03  0.17200000000E+03 0.  1.
</event>
<event>
 4    1  0.3211568E-002  0.1802080E+03  0.7818608E-02  0.1167602E+00
         -2   -1    0    0    0  501 -0.00000000000E+00  0.00000000000E+00  0.16894827869E+02  0.16894827869E+02  0.00000000000E+00 0.  1.
          2   -1    0    0  502    0  0.00000000000E+00 -0.00000000000E+00 -0.21926897003E+04  0.21926897003E+04  0.00000000000E+00 0. -1.
          6    1    1    2  502    0 -0.19945773863E+02 -0.49930915515E+02 -0.14759423837E+04  0.14869031072E+04  0.17200000000E+03 0. -1.
         -6    1    1    2    0  501  0.19945773863E+02  0.49930915515E+02 -0.69985248867E+03  0.72268142090E+03  0.17200000000E+03 0.  1.
</event>
<event>
 4    1  0.3211568E-002  0.5229327E+03  0.7818608E-02  0.1007961E+00
          2   -1    0    0  502    0  0.00000000000E+00  0.00000000000E+00  0.12785816867E+04  0.12785816867E+04  0.00000000000E+00 0. -1.
         -2   -1    0    0    0  501 -0.00000000000E+00 -0.00000000000E+00 -0.22127068869E+03  0.22127068869E+03  0.00000000000E+00 0.  1.
          6    1    1    2  502    0  0.34403126423E+03 -0.35428397283E+03  0.66574376319E+03  0.84656565156E+03  0.17200000000E+03 0. -1.
         -6    1    1    2    0  501 -0.34403126423E+03  0.35428397283E+03  0.39156723487E+03  0.65328672388E+03  0.17200000000E+03 0.  1.
</event>
<event>
 4    1  0.3211568E-002  0.3071869E+03  0.7818608E-02  0.1081702E+00
          1   -1    0    0  502    0  0.00000000000E+00  0.00000000000E+00  0.42418077812E+03  0.42418077812E+03  0.00000000000E+00 0. -1.
         -1   -1    0    0    0  501 -0.00000000000E+00 -0.00000000000E+00 -0.35687259185E+03  0.35687259185E+03  0.00000000000E+00 0.  1.
          6    1    1    2  502    0 -0.24270132535E+03 -0.76653973771E+02  0.27332325446E+03  0.41118045485E+03  0.17200000000E+03 0. -1.
         -6    1    1    2    0  501  0.24270132535E+03  0.76653973771E+02 -0.20601506818E+03  0.36987291512E+03  0.17200000000E+03 0.  1.
</event>
<event>
 4    1  0.3211568E-002  0.4800233E+03  0.7818608E-02  0.1019129E+00
         -2   -1    0    0    0  501 -0.00000000000E+00  0.00000000000E+00  0.14050059977E+03  0.14050059977E+03  0.00000000000E+00 0.  1.
          2   -1    0    0  502    0  0.00000000000E+00 -0.00000000000E+00 -0.17402142643E+04  0.17402142643E+04  0.00000000000E+00 0. -1.
          6    1    1    2  502    0 -0.44587823743E+03  0.45066389085E+02 -0.10255065544E+04  0.11322923982E+04  0.17200000000E+03 0. -1.
         -6    1    1    2    0  501  0.44587823743E+03 -0.45066389085E+02 -0.57420711020E+03  0.74842246589E+03  0.17200000000E+03 0. -1.
</event>
<event>
 4    1  0.3211568E-002  0.2325656E+03  0.7818608E-02  0.1124847E+00
         -3   -1    0    0    0  501 -0.00000000000E+00  0.00000000000E+00  0.37397856910E+03  0.37397856910E+03  0.00000000000E+00 0.  1.
          3   -1    0    0  502    0  0.00000000000E+00 -0.00000000000E+00 -0.25592232898E+03  0.25592232898E+03  0.00000000000E+00 0. -1.
          6    1    1    2  502    0 -0.81903152434E+01  0.15631908908E+03 -0.14866879807E+03  0.27602382215E+03  0.17200000000E+03 0. -1.
         -6    1    1    2    0  501  0.81903152434E+01 -0.15631908908E+03  0.26672503819E+03  0.35387707594E+03  0.17200000000E+03 0.  1.
</event>
<event>
 4    1  0.3211568E-002  0.2388393E+03  0.7818608E-02  0.1120568E+00
         -1   -1    0    0    0  501 -0.00000000000E+00  0.00000000000E+00  0.15884247289E+03  0.15884247289E+03  0.00000000000E+00 0.  1.
          1   -1    0    0  502    0  0.00000000000E+00 -0.00000000000E+00 -0.38653719499E+03  0.38653719499E+03  0.00000000000E+00 0. -1.
          6    1    1    2  502    0 -0.12411716870E+03  0.10979598981E+03 -0.18646611715E+03  0.30300799294E+03  0.17200000000E+03 0.  1.
         -6    1    1    2    0  501  0.12411716870E+03 -0.10979598981E+03 -0.41228604960E+02  0.24237167494E+03  0.17200000000E+03 0.  1.
</event>
<event>
 4    1  0.3211568E-002  0.1974616E+03  0.7818608E-02  0.1151899E+00
         -2   -1    0    0    0  501 -0.00000000000E+00  0.00000000000E+00  0.29578615048E+03  0.29578615048E+03  0.00000000000E+00 0.  1.
          2   -1    0    0  502    0  0.00000000000E+00 -0.00000000000E+00 -0.13840681969E+03  0.13840681969E+03  0.00000000000E+00 0. -1.
          6    1    1    2  502    0  0.92829161642E+02 -0.28103870824E+02  0.12604300088E+03  0.23426036557E+03  0.17200000000E+03 0.  1.
         -6    1    1    2    0  501 -0.92829161642E+02  0.28103870824E+02  0.31336329913E+02  0.19993260459E+03  0.17200000000E+03 0. -1.
</event>
<event>
 4    1  0.3211568E-002  0.2583852E+03  0.7818608E-02  0.1108117E+00
          1   -1    0    0  502    0  0.00000000000E+00  0.00000000000E+00  0.54529275969E+03  0.54529275969E+03  0.00000000000E+00 0. -1.
         -1   -1    0    0    0  501 -0.00000000000E+00 -0.00000000000E+00 -0.19445103422E+03  0.19445103422E+03  0.00000000000E+00 0.  1.
          6    1    1    2  502    0  0.88236577393E+01  0.19261631207E+03  0.40051330267E+03  0.47662753406E+03  0.17200000000E+03 0. -1.
         -6    1    1    2    0  501 -0.88236577393E+01 -0.19261631207E+03 -0.49671577196E+02  0.26311625984E+03  0.17200000000E+03 0.  1.
</event>
<event>
 4    1  0.3211568E-002  0.3312253E+03  0.7818608E-02  0.1070596E+00
          2   -1    0    0  502    0  0.00000000000E+00  0.00000000000E+00  0.18735430616E+04  0.18735430616E+04  0.00000000000E+00 0. -1.
         -2   -1    0    0    0  501 -0.00000000000E+00 -0.00000000000E+00 -0.58739280624E+02  0.58739280624E+02  0.00000000000E+00 0.  1.
          6    1    1    2  502    0  0.43901494128E+01 -0.28303164005E+03  0.96113378839E+03  0.10166062866E+04  0.17200000000E+03 0. -1.
         -6    1    1    2    0  501 -0.43901494128E+01  0.28303164005E+03  0.85366999264E+03  0.91567605572E+03  0.17200000000E+03 0. -1.
</event>
<event>
 4    1  0.3211568E-002  0.3754994E+03  0.7818608E-02  0.1052610E+00
          2   -1    0    0  502    0  0.00000000000E+00  0.00000000000E+00  0.13217274420E+04  0.13217274420E+04  0.00000000000E+00 0. -1.
         -2   -1    0    0    0  501 -0.00000000000E+00 -0.00000000000E+00 -0.22408676961E+03  0.22408676961E+03  0.00000000000E+00 0.  1.
          6    1    1    2  502    0 -0.27371143375E+03  0.19104411037E+03  0.11082798654E+04  0.11701641171E+04  0.17200000000E+03 0. -1.
         -6    1    1    2    0  501  0.27371143375E+03 -0.19104411037E+03 -0.10639192945E+02  0.37565009450E+03  0.17200000000E+03 0.  1.
</event>
<event>
 4    1  0.3211568E-002  0.1857351E+03  0.7818608E-02  0.1162365E+00
         -2   -1    0    0    0  501 -0.00000000000E+00  0.00000000000E+00  0.19384351425E+02  0.19384351425E+02  0.00000000000E+00 0.  1.
          2   -1    0    0  502    0  0.00000000000E+00 -0.00000000000E+00 -0.21926070422E+04  0.21926070422E+04  0.00000000000E+00 0. -1.
          6    1    1    2  502    0 -0.69590812992E+02 -0.84044958017E+01 -0.15665892518E+04  0.15775612193E+04  0.17200000000E+03 0. -1.
         -6    1    1    2    0  501  0.69590812992E+02  0.84044958017E+01 -0.60663343893E+03  0.63443017428E+03  0.17200000000E+03 0.  1.
</event>
<event>
 4    1  0.3211568E-002  0.1805491E+03  0.7818608E-02  0.1167273E+00
         -2   -1    0    0    0  501 -0.00000000000E+00  0.00000000000E+00  0.35362541246E+02  0.35362541246E+02  0.00000000000E+00 0.  1.
          2   -1    0    0  502    0  0.00000000000E+00 -0.00000000000E+00 -0.92182834075E+03  0.92182834075E+03  0.00000000000E+00 0. -1.
          6    1    1    2  502    0 -0.46732568902E+02 -0.28810483928E+02 -0.44200167220E+03  0.47745518660E+03  0.17200000000E+03 0.  1.
         -6    1    1    2    0  501  0.46732568902E+02  0.28810483928E+02 -0.44446412730E+03  0.47973569539E+03  0.17200000000E+03 0.  1.
</event>
<event>
 4    1  0.3211568E-002  0.2439725E+03  0.7818608E-02  0.1117174E+00
         -2   -1    0    0    0  501 -0.00000000000E+00  0.00000000000E+00  0.47825211774E+03  0.47825211774E+03  0.00000000000E+00 0.  1.
          2   -1    0    0  502    0  0.00000000000E+00 -0.00000000000E+00 -0.17377351623E+03  0.17377351623E+03  0.00000000000E+00 0. -1.
          6    1    1    2  502    0  0.13213945127E+03  0.11170377195E+03 -0.21433668840E+02  0.24491216672E+03  0.17200000000E+03 0. -1.
         -6    1    1    2    0  501 -0.13213945127E+03 -0.11170377195E+03  0.32591227035E+03  0.40711346724E+03  0.17200000000E+03 0.  1.
</event>
<event>
 4    1  0.3211568E-002  0.2142473E+03  0.7818608E-02  0.1138246E+00
          2   -1    0    0  502    0  0.00000000000E+00  0.00000000000E+00  0.20857726231E+03  0.20857726231E+03  0.00000000000E+00 0. -1.
         -2   -1    0    0    0  501 -0.00000000000E+00 -0.00000000000E+00 -0.35682149432E+03  0.35682149432E+03  0.00000000000E+00 0.  1.
          6    1    1    2  502    0  0.75884494800E+02  0.10275920018E+03  0.10088794545E+03  0.23681276847E+03  0.17200000000E+03 0. -1.
         -6    1    1    2    0  501 -0.75884494800E+02 -0.10275920018E+03 -0.24913217746E+03  0.32858598817E+03  0.17200000000E+03 0.  1.
</event>
<event>
 4    1  0.3211568E-002  0.3424783E+03  0.7818608E-02  0.1065745E+00
         -1   -1    0    0    0  501 -0.00000000000E+00  0.00000000000E+00  0.14681038993E+03  0.14681038993E+03  0.00000000000E+00 0.  1.
          1   -1    0    0  502    0  0.00000000000E+00 -0.00000000000E+00 -0.87562020180E+03  0.87562020180E+03  0.00000000000E+00 0. -1.
          6    1    1    2  502    0 -0.25494308997E+03  0.15070297065E+03 -0.21311386881E+03  0.40337189486E+03  0.17200000000E+03 0. -1.
         -6    1    1    2    0  501  0.25494308997E+03 -0.15070297065E+03 -0.51569594305E+03  0.61905869687E+03  0.17200000000E+03 0.  1.
</event>
<event>
 4    1  0.3211568E-002  0.6327649E+03  0.7818608E-02  0.9839668E-01
         -2   -1    0    0    0  501 -0.00000000000E+00  0.00000000000E+00  0.86159775558E+03  0.86159775558E+03  0.00000000000E+00 0.  1.
          2   -1    0    0  502    0  0.00000000000E+00 -0.00000000000E+00 -0.48561562557E+03  0.48561562557E+03  0.00000000000E+00 0. -1.
          6    1    1    2  502    0 -0.31717787908E+03 -0.51981301605E+03  0.48221595671E+02  0.63459963829E+03  0.17200000000E+03 0. -1.
         -6    1    1    2    0  501  0.31717787908E+03  0.51981301605E+03  0.32776053434E+03  0.71261374285E+03  0.17200000000E+03 0.  1.
</event>
<event>
 4    1  0.3211568E-002  0.2228505E+03  0.7818608E-02  0.1131776E+00
         -2   -1    0    0    0  501 -0.00000000000E+00  0.00000000000E+00  0.25077461182E+03  0.25077461182E+03  0.00000000000E+00 0.  1.
          2   -1    0    0  502    0  0.00000000000E+00 -0.00000000000E+00 -0.35438825807E+03  0.35438825807E+03  0.00000000000E+00 0. -1.
          6    1    1    2  502    0 -0.10101207340E+03 -0.99372579829E+02 -0.25278781509E+03  0.33699262314E+03  0.17200000000E+03 0. -1.
         -6    1    1    2    0  501  0.10101207340E+03  0.99372579829E+02  0.14917416884E+03  0.26817024675E+03  0.17200000000E+03 0.  1.
</event>
<event>
 4    1  0.3211568E-002  0.2116757E+03  0.7818608E-02  0.1140246E+00
          2   -1    0    0  502    0  0.00000000000E+00  0.00000000000E+00  0.30874529438E+03  0.30874529438E+03  0.00000000000E+00 0. -1.
         -2   -1    0    0    0  501 -0.00000000000E+00 -0.00000000000E+00 -0.16218623451E+03  0.16218623451E+03  0.00000000000E+00 0.  1.
          6    1    1    2  502    0  0.87824160833E+02  0.86657561345E+02  0.14965041866E+03  0.25923322312E+03  0.17200000000E+03 0. -1.
         -6    1    1    2    0  501 -0.87824160833E+02 -0.86657561345E+02 -0.30913587881E+01  0.21169830576E+03  0.17200000000E+03 0.  1.
</event>
<event>
 4    1  0.3211568E-002  0.2889354E+03  0.7818608E-02  0.1090906E+00
         -1   -1    0    0    0  501 -0.00000000000E+00  0.00000000000E+00  0.22956565362E+03  0.22956565362E+03  0.00000000000E+00 0.  1.
          1   -1    0    0  502    0  0.00000000000E+00 -0.00000000000E+00 -0.39413538365E+03  0.39413538365E+03  0.00000000000E+00 0. -1.
          6    1    1    2  502    0  0.21916767924E+03  0.76584453058E+02 -0.16900189944E+03  0.33473167177E+03  0.17200000000E+03 0. -1.
         -6    1    1    2    0  501 -0.21916767924E+03 -0.76584453058E+02  0.44321694152E+01  0.28896936550E+03  0.17200000000E+03 0.  1.
</event>
<event>
 4    1  0.3211568E-002  0.2130801E+03  0.7818608E-02  0.1139150E+00
         -1   -1    0    0    0  501 -0.00000000000E+00  0.00000000000E+00  0.15278621461E+03  0.15278621461E+03  0.00000000000E+00 0.  1.
          1   -1    0    0  502    0  0.00000000000E+00 -0.00000000000E+00 -0.13195564089E+04  0.13195564089E+04  0.00000000000E+00 0. -1.
          6    1    1    2  502    0 -0.17112164937E+02  0.12460455281E+03 -0.12313820167E+04  0.12496818763E+04  0.17200000000E+03 0. -1.
         -6    1    1    2    0  501  0.17112164937E+02 -0.12460455281E+03  0.64611822412E+02  0.22266074725E+03  0.17200000000E+03 0.  1.
</event>
<event>
 4    1  0.3211568E-002  0.3885864E+03  0.7818608E-02  0.1047805E+00
          2   -1    0    0  502    0  0.00000000000E+00  0.00000000000E+00  0.13417809484E+03  0.13417809484E+03  0.00000000000E+00 0. -1.
         -2   -1    0    0    0  501 -0.00000000000E+00 -0.00000000000E+00 -0.11724719849E+04  0.11724719849E+04  0.00000000000E+00 0.  1.
          6    1    1    2  502    0  0.30369541027E+03  0.17083457300E+03 -0.38819258294E+03  0.54926572349E+03  0.17200000000E+03 0. -1.
         -6    1    1    2    0  501 -0.30369541027E+03 -0.17083457300E+03 -0.65010130707E+03  0.75738435620E+03  0.17200000000E+03 0.  1.
</event>
<event>
 4    1  0.3211568E-002  0.2307121E+03  0.7818608E-02  0.1126140E+00
         -2   -1    0    0    0  501 -0.00000000000E+00  0.00000000000E+00  0.16921360186E+03  0.16921360186E+03  0.00000000000E+00 0.  1.
          2   -1    0    0  502    0  0.00000000000E+00 -0.00000000000E+00 -0.19147921435E+04  0.19147921435E+04  0.00000000000E+00 0. -1.
          6    1    1    2  502    0  0.15375296126E+03  0.20287253669E+01 -0.18253647231E+04  0.18398870784E+04  0.17200000000E+03 0. -1.
         -6    1    1    2    0  501 -0.15375296126E+03 -0.20287253669E+01  0.79786181459E+02  0.24411866699E+03  0.17200000000E+03 0.  1.
</event>
<event>
 4    1  0.3211568E-002  0.1744758E+03  0.7818608E-02  0.1173259E+00
         -2   -1    0    0    0  501 -0.00000000000E+00  0.00000000000E+00  0.38708562063E+03  0.38708562063E+03  0.00000000000E+00 0.  1.
          2   -1    0    0  502    0  0.00000000000E+00 -0.00000000000E+00 -0.81807660232E+02  0.81807660232E+02  0.00000000000E+00 0. -1.
          6    1    1    2  502    0 -0.28866257383E+02 -0.49533870583E+01  0.10653152568E+03  0.20442789150E+03  0.17200000000E+03 0. -1.
         -6    1    1    2    0  501  0.28866257383E+02  0.49533870583E+01  0.19874643472E+03  0.26446538936E+03  0.17200000000E+03 0.  1.
</event>
<event>
 4    1  0.3211568E-002  0.3122438E+03  0.7818608E-02  0.1079275E+00
         -2   -1    0    0    0  501 -0.00000000000E+00  0.00000000000E+00  0.15065083845E+04  0.15065083845E+04  0.00000000000E+00 0.  1.
          2   -1    0    0  502    0  0.00000000000E+00 -0.00000000000E+00 -0.68631546199E+02  0.68631546199E+02  0.00000000000E+00 0. -1.
          6    1    1    2  502    0 -0.25565661236E+03 -0.50516194507E+02  0.53083924781E+03  0.61586240052E+03  0.17200000000E+03 0. -1.
         -6    1    1    2    0  501  0.25565661236E+03  0.50516194507E+02  0.90703759047E+03  0.95927753017E+03  0.17200000000E+03 0.  1.
</event>
<event>
 4    1  0.3211568E-002  0.3011290E+03  0.7818608E-02  0.1084678E+00
         -2   -1    0    0    0  501 -0.00000000000E+00  0.00000000000E+00  0.23712606340E+03  0.23712606340E+03  0.00000000000E+00 0.  1.
          2   -1    0    0  502    0  0.00000000000E+00 -0.00000000000E+00 -0.63041638155E+03  0.63041638155E+03  0.00000000000E+00 0. -1.
          6    1    1    2  502    0  0.20979325577E+03  0.13069609311E+03 -0.46871537442E+03  0.55711110305E+03  0.17200000000E+03 0. -1.
         -6    1    1    2    0  501 -0.20979325577E+03 -0.13069609311E+03  0.75425056268E+02  0.31043134190E+03  0.17200000000E+03 0.  1.
</event>
<event>
 4    1  0.3211568E-002  0.2292030E+03  0.7818608E-02  0.1127202E+00
         -2   -1    0    0    0  501 -0.00000000000E+00  0.00000000000E+00  0.21538626704E+03  0.21538626704E+03  0.00000000000E+00 0.  1.
          2   -1    0    0  502    0  0.00000000000E+00 -0.00000000000E+00 -0.30151360665E+03  0.30151360665E+03  0.00000000000E+00 0. -1.
          6    1    1    2  502    0 -0.75214872196E+01 -0.15130585428E+03 -0.15603346417E+03  0.27727328802E+03  0.17200000000E+03 0. -1.
         -6    1    1    2    0  501  0.75214872196E+01  0.15130585428E+03  0.69906124562E+02  0.23962658567E+03  0.17200000000E+03 0. -1.
</event>
<event>
 4    1  0.3211568E-002  0.2688456E+03  0.7818608E-02  0.1101942E+00
         -2   -1    0    0    0  501 -0.00000000000E+00  0.00000000000E+00  0.24675081499E+03  0.24675081499E+03  0.00000000000E+00 0.  1.
          2   -1    0    0  502    0  0.00000000000E+00 -0.00000000000E+00 -0.40342203709E+03  0.40342203709E+03  0.00000000000E+00 0. -1.
          6    1    1    2  502    0  0.20483252317E+03  0.27158545255E+02  0.91804438529E+02  0.28408802168E+03  0.17200000000E+03 0. -1.
         -6    1    1    2    0  501 -0.20483252317E+03 -0.27158545255E+02 -0.24847566062E+03  0.36608483040E+03  0.17200000000E+03 0.  1.
</event>
<event>
 4    1  0.3211568E-002  0.1853092E+03  0.7818608E-02  0.1162761E+00
         -2   -1    0    0    0  501 -0.00000000000E+00  0.00000000000E+00  0.11749197182E+02  0.11749197182E+02  0.00000000000E+00 0.  1.
          2   -1    0    0  502    0  0.00000000000E+00 -0.00000000000E+00 -0.29282782932E+04  0.29282782932E+04  0.00000000000E+00 0. -1.
          6    1    1    2  502    0 -0.64496417429E+02 -0.24407203011E+02 -0.15223656112E+04  0.15336024758E+04  0.17200000000E+03 0.  1.
         -6    1    1    2    0  501  0.64496417429E+02  0.24407203011E+02 -0.13941634848E+04  0.14064250146E+04  0.17200000000E+03 0.  1.
</event>
<event>
 4    1  0.3211568E-002  0.7801702E+03  0.7818608E-02  0.9589172E-01
         -2   -1    0    0    0  501 -0.00000000000E+00  0.00000000000E+00  0.38098673095E+03  0.38098673095E+03  0.00000000000E+00 0.  1.
          2   -1    0    0  502    0  0.00000000000E+00 -0.00000000000E+00 -0.16317735264E+04  0.16317735264E+04  0.00000000000E+00 0. -1.
          6    1    1    2  502    0 -0.10117714032E+03 -0.75421800459E+03 -0.77102539791E+03  0.10968800191E+04  0.17200000000E+03 0. -1.
         -6    1    1    2    0  501  0.10117714032E+03  0.75421800459E+03 -0.47976139755E+03  0.91588023822E+03  0.17200000000E+03 0.  1.
</event>
<event>
 4    1  0.3211568E-002  0.2403121E+03  0.7818608E-02  0.1119585E+00
          2   -1    0    0  502    0  0.00000000000E+00  0.00000000000E+00  0.96367999752E+02  0.96367999752E+02  0.00000000000E+00 0. -1.
         -2   -1    0    0    0  501 -0.00000000000E+00 -0.00000000000E+00 -0.67881187976E+03  0.67881187976E+03  0.00000000000E+00 0.  1.
          6    1    1    2  502    0  0.16764292582E+03 -0.78592795582E+01 -0.42390356580E+03  0.48728241498E+03  0.17200000000E+03 0.  1.
         -6    1    1    2    0  501 -0.16764292582E+03  0.78592795582E+01 -0.15854031420E+03  0.28789746453E+03  0.17200000000E+03 0. -1.
</event>
<event>
 4    1  0.3211568E-002  0.2589739E+03  0.7818608E-02  0.1107761E+00
         -1   -1    0    0    0  501 -0.00000000000E+00  0.00000000000E+00  0.32610706711E+02  0.32610706711E+02  0.00000000000E+00 0.  1.
          1   -1    0    0  502    0  0.00000000000E+00 -0.00000000000E+00 -0.20716825015E+04  0.20716825015E+04  0.00000000000E+00 0. -1.
          6    1    1    2  502    0 -0.15091343845E+03 -0.12127898679E+03 -0.11092845803E+04  0.11391135758E+04  0.17200000000E+03 0. -1.
         -6    1    1    2    0  501  0.15091343845E+03  0.12127898679E+03 -0.92978721442E+03  0.96517963231E+03  0.17200000000E+03 0.  1.
</event>
<event>
 4    1  0.3211568E-002  0.1989948E+03  0.7818608E-02  0.1150590E+00
         -1   -1    0    0    0  501 -0.00000000000E+00  0.00000000000E+00  0.20732298984E+03  0.20732298984E+03  0.00000000000E+00 0.  1.
          1   -1    0    0  502    0  0.00000000000E+00 -0.00000000000E+00 -0.47211825157E+03  0.47211825157E+03  0.00000000000E+00 0. -1.
          6    1    1    2  502    0 -0.83529473824E+02  0.55115980932E+02 -0.39454173330E+03  0.44188474026E+03  0.17200000000E+03 0. -1.
         -6    1    1    2    0  501  0.83529473824E+02 -0.55115980932E+02  0.12974647158E+03  0.23755650115E+03  0.17200000000E+03 0.  1.
</event>
<event>
 4    1  0.3211568E-002  0.1858505E+03  0.7818608E-02  0.1162258E+00
         -2   -1    0    0    0  501 -0.00000000000E+00  0.00000000000E+00  0.19462354706E+03  0.19462354706E+03  0.00000000000E+00 0.  1.
          2   -1    0    0  502    0  0.00000000000E+00 -0.00000000000E+00 -0.26558370699E+03  0.26558370699E+03  0.00000000000E+00 0. -1.
          6    1    1    2  502    0  0.59624243218E+02  0.37434658072E+02 -0.16801714709E+03  0.25053974878E+03  0.17200000000E+03 0. -1.
         -6    1    1    2    0  501 -0.59624243218E+02 -0.37434658072E+02  0.97056987160E+02  0.20966750526E+03  0.17200000000E+03 0.  1.
</event>
<event>
 4    1  0.3211568E-002  0.5106146E+03  0.7818608E-02  0.1011045E+00
          2   -1    0    0  502    0  0.00000000000E+00  0.00000000000E+00  0.28230951875E+04  0.28230951875E+04  0.00000000000E+00 0. -1.
         -2   -1    0    0    0  501 -0.00000000000E+00 -0.00000000000E+00 -0.26268962157E+03  0.26268962157E+03  0.00000000000E+00 0.  1.
          6    1    1    2  502    0 -0.43084963675E+03 -0.21333498556E+03  0.25226144668E+04  0.25737736835E+04  0.17200000000E+03 0. -1.
         -6    1    1    2    0  501  0.43084963675E+03  0.21333498556E+03  0.37791099100E+02  0.51201112558E+03  0.17200000000E+03 0.  1.
</event>
<event>
 4    1  0.3211568E-002  0.2044855E+03  0.7818608E-02  0.1146009E+00
         -2   -1    0    0    0  501 -0.00000000000E+00  0.00000000000E+00  0.75578406431E+02  0.75578406431E+02  0.00000000000E+00 0.  1.
          2   -1    0    0  502    0  0.00000000000E+00 -0.00000000000E+00 -0.13194197704E+04  0.13194197704E+04  0.00000000000E+00 0. -1.
          6    1    1    2  502    0  0.10126414541E+03 -0.44450798881E+02 -0.11534321074E+04  0.11714179131E+04  0.17200000000E+03 0. -1.
         -6    1    1    2    0  501 -0.10126414541E+03  0.44450798881E+02 -0.90409256543E+02  0.22358026374E+03  0.17200000000E+03 0.  1.
</event>
<event>
 4    1  0.3211568E-002  0.1749829E+03  0.7818608E-02  0.1172749E+00
          1   -1    0    0  502    0  0.00000000000E+00  0.00000000000E+00  0.46280864058E+02  0.46280864058E+02  0.00000000000E+00 0. -1.
         -1   -1    0    0    0  501 -0.00000000000E+00 -0.00000000000E+00 -0.13349521312E+04  0.13349521312E+04  0.00000000000E+00 0.  1.
          6    1    1    2  502    0  0.21052647570E+02  0.24327172442E+02 -0.15384810450E+03  0.23299842177E+03  0.17200000000E+03 0. -1.
         -6    1    1    2    0  501 -0.21052647570E+02 -0.24327172442E+02 -0.11348231626E+04  0.11482345735E+04  0.17200000000E+03 0.  1.
</event>
<event>
 4    1  0.3211568E-002  0.2189678E+03  0.7818608E-02  0.1134655E+00
         -1   -1    0    0    0  501 -0.00000000000E+00  0.00000000000E+00  0.10850779018E+03  0.10850779018E+03  0.00000000000E+00 0.  1.
          1   -1    0    0  502    0  0.00000000000E+00 -0.00000000000E+00 -0.48790127702E+03  0.48790127702E+03  0.00000000000E+00 0. -1.
          6    1    1    2  502    0 -0.12957720491E+03  0.39656599767E+02 -0.28128723681E+03  0.35646796143E+03  0.17200000000E+03 0. -1.
         -6    1    1    2    0  501  0.12957720491E+03 -0.39656599767E+02 -0.98106250037E+02  0.23994110576E+03  0.17200000000E+03 0.  1.
</event>
<event>
 4    1  0.3211568E-002  0.3018918E+03  0.7818608E-02  0.1084299E+00
         -1   -1    0    0    0  501 -0.00000000000E+00  0.00000000000E+00  0.18686514758E+03  0.18686514758E+03  0.00000000000E+00 0.  1.
          1   -1    0    0  502    0  0.00000000000E+00 -0.00000000000E+00 -0.50867920934E+03  0.50867920934E+03  0.00000000000E+00 0. -1.
          6    1    1    2  502    0  0.72596308215E+02 -0.23724342175E+03 -0.23149264346E+03  0.38043068896E+03  0.17200000000E+03 0. -1.
         -6    1    1    2    0  501 -0.72596308215E+02  0.23724342175E+03 -0.90321418298E+02  0.31511366796E+03  0.17200000000E+03 0.  1.
</event>
<event>
 4    1  0.3211568E-002  0.2131888E+03  0.7818608E-02  0.1139065E+00
         -1   -1    0    0    0  501 -0.00000000000E+00  0.00000000000E+00  0.19125589729E+03  0.19125589729E+03  0.00000000000E+00 0.  1.
          1   -1    0    0  502    0  0.00000000000E+00 -0.00000000000E+00 -0.95706524687E+03  0.95706524687E+03  0.00000000000E+00 0. -1.
          6    1    1    2  502    0 -0.10868056184E+03 -0.63671105168E+02 -0.88070633544E+03  0.90614188924E+03  0.17200000000E+03 0. -1.
         -6    1    1    2    0  501  0.10868056184E+03  0.63671105168E+02  0.11489698586E+03  0.24217925492E+03  0.17200000000E+03 0.  1.
</event>
<event>
 4    1  0.3211568E-002  0.4085876E+03  0.7818608E-02  0.1040846E+00
         -2   -1    0    0    0  501 -0.00000000000E+00  0.00000000000E+00  0.19585123283E+03  0.19585123283E+03  0.00000000000E+00 0.  1.
          2   -1    0    0  502    0  0.00000000000E+00 -0.00000000000E+00 -0.95916853149E+03  0.95916853149E+03  0.00000000000E+00 0. -1.
          6    1    1    2  502    0  0.36436869638E+03 -0.67788497508E+02 -0.18898108900E+03  0.45017516513E+03  0.17200000000E+03 0. -1.
         -6    1    1    2    0  501 -0.36436869638E+03  0.67788497508E+02 -0.57433620966E+03  0.70484459920E+03  0.17200000000E+03 0.  1.
</event>
<event>
 4    1  0.3211568E-002  0.2133833E+03  0.7818608E-02  0.1138914E+00
          2   -1    0    0  502    0  0.00000000000E+00  0.00000000000E+00  0.72341771307E+03  0.72341771307E+03  0.00000000000E+00 0. -1.
         -2   -1    0    0    0  501 -0.00000000000E+00 -0.00000000000E+00 -0.64518102312E+02  0.64518102312E+02  0.00000000000E+00 0.  1.
          6    1    1    2  502    0  0.66318468277E+02 -0.10747222504E+03  0.39105127506E+03  0.44548122083E+03  0.17200000000E+03 0. -1.
         -6    1    1    2    0  501 -0.66318468277E+02  0.10747222504E+03  0.26784833570E+03  0.34245459455E+03  0.17200000000E+03 0.  1.
</event>
<event>
 4    1  0.3211568E-002  0.6361931E+03  0.7818608E-02  0.9833037E-01
          1   -1    0    0  502    0  0.00000000000E+00  0.00000000000E+00  0.44975815433E+03  0.44975815433E+03  0.00000000000E+00 0. -1.
         -1   -1    0    0    0  501 -0.00000000000E+00 -0.00000000000E+00 -0.99339247416E+03  0.99339247416E+03  0.00000000000E+00 0.  1.
          6    1    1    2  502    0 -0.12195877845E+03 -0.60023639868E+03 -0.50463209430E+02  0.63819136115E+03  0.17200000000E+03 0. -1.
         -6    1    1    2    0  501  0.12195877845E+03  0.60023639868E+03 -0.49317111040E+03  0.80495926734E+03  0.17200000000E+03 0.  1.
</event>
<event>
 4    1  0.3211568E-002  0.2684212E+03  0.7818608E-02  0.1102187E+00
         -2   -1    0    0    0  501 -0.00000000000E+00  0.00000000000E+00  0.34784685304E+02  0.34784685304E+02  0.00000000000E+00 0.  1.
          2   -1    0    0  502    0  0.00000000000E+00 -0.00000000000E+00 -0.25887834118E+04  0.25887834118E+04  0.00000000000E+00 0. -1.
          6    1    1    2  502    0  0.15339198431E+02  0.20550099860E+03 -0.18634851379E+04  0.18827179318E+04  0.17200000000E+03 0. -1.
         -6    1    1    2    0  501 -0.15339198431E+02 -0.20550099860E+03 -0.69051358856E+03  0.74085016530E+03  0.17200000000E+03 0. -1.
</event>
<event>
 4    1  0.3211568E-002  0.2058636E+03  0.7818608E-02  0.1144884E+00
         -2   -1    0    0    0  501 -0.00000000000E+00  0.00000000000E+00  0.77182709186E+02  0.77182709186E+02  0.00000000000E+00 0.  1.
          2   -1    0    0  502    0  0.00000000000E+00 -0.00000000000E+00 -0.75672909580E+03  0.75672909580E+03  0.00000000000E+00 0. -1.
          6    1    1    2  502    0 -0.96633961653E+02  0.58802073275E+02 -0.55818722553E+03  0.59493931212E+03  0.17200000000E+03 0. -1.
         -6    1    1    2    0  501  0.96633961653E+02 -0.58802073275E+02 -0.12135916109E+03  0.23897249286E+03  0.17200000000E+03 0.  1.
</event>
<event>
 4    1  0.3211568E-002  0.1997921E+03  0.7818608E-02  0.1149915E+00
          2   -1    0    0  502    0  0.00000000000E+00  0.00000000000E+00  0.73498318666E+03  0.73498318666E+03  0.00000000000E+00 0. -1.
         -2   -1    0    0    0  501 -0.00000000000E+00 -0.00000000000E+00 -0.58970192647E+02  0.58970192647E+02  0.00000000000E+00 0.  1.
          6    1    1    2  502    0 -0.29603373319E+02  0.97244630438E+02  0.22640901167E+03  0.30195681550E+03  0.17200000000E+03 0. -1.
         -6    1    1    2    0  501  0.29603373319E+02 -0.97244630438E+02  0.44960398234E+03  0.49199656381E+03  0.17200000000E+03 0.  1.
</event>
<event>
 4    1  0.3211568E-002  0.1866682E+03  0.7818608E-02  0.1161501E+00
          2   -1    0    0  502    0  0.00000000000E+00  0.00000000000E+00  0.30635753052E+04  0.30635753052E+04  0.00000000000E+00 0. -1.
         -2   -1    0    0    0  501 -0.00000000000E+00 -0.00000000000E+00 -0.11672515910E+02  0.11672515910E+02  0.00000000000E+00 0.  1.
          6    1    1    2  502    0  0.19639425563E+02 -0.69823458243E+02  0.12800441215E+04  0.12935833856E+04  0.17200000000E+03 0.  1.
         -6    1    1    2    0  501 -0.19639425563E+02  0.69823458243E+02  0.17718586678E+04  0.17816644356E+04  0.17200000000E+03 0.  1.
</event>
<event>
 4    1  0.3211568E-002  0.1720184E+03  0.7818608E-02  0.1175759E+00
          3   -1    0    0  502    0  0.00000000000E+00  0.00000000000E+00  0.11412588835E+04  0.11412588835E+04  0.00000000000E+00 0. -1.
         -3   -1    0    0    0  501 -0.00000000000E+00 -0.00000000000E+00 -0.30720956607E+03  0.30720956607E+03  0.00000000000E+00 0.  1.
          6    1    1    2  502    0  0.23894882469E+01  0.79633861548E+00  0.11100234210E+04  0.11232730474E+04  0.17200000000E+03 0. -1.
         -6    1    1    2    0  501 -0.23894882469E+01 -0.79633861548E+00 -0.27597410353E+03  0.32519540223E+03  0.17200000000E+03 0.  1.
</event>
<event>
 4    1  0.3211568E-002  0.3178363E+03  0.7818608E-02  0.1076649E+00
          1   -1    0    0  502    0  0.00000000000E+00  0.00000000000E+00  0.15566607838E+03  0.15566607838E+03  0.00000000000E+00 0. -1.
         -1   -1    0    0    0  501 -0.00000000000E+00 -0.00000000000E+00 -0.71504405296E+03  0.71504405296E+03  0.00000000000E+00 0.  1.
          6    1    1    2  502    0  0.22988866586E+02  0.26628444547E+03 -0.14733101221E+03  0.35032316658E+03  0.17200000000E+03 0. -1.
         -6    1    1    2    0  501 -0.22988866586E+02 -0.26628444547E+03 -0.41204696237E+03  0.52038696475E+03  0.17200000000E+03 0. -1.
</event>
<event>
 4    1  0.3211568E-002  0.2155982E+03  0.7818608E-02  0.1137208E+00
         -2   -1    0    0    0  501 -0.00000000000E+00  0.00000000000E+00  0.35737485943E+02  0.35737485943E+02  0.00000000000E+00 0.  1.
          2   -1    0    0  502    0  0.00000000000E+00 -0.00000000000E+00 -0.13254375572E+04  0.13254375572E+04  0.00000000000E+00 0. -1.
          6    1    1    2  502    0  0.10722327938E+03  0.73496757877E+02 -0.55181140757E+03  0.59243432935E+03  0.17200000000E+03 0. -1.
         -6    1    1    2    0  501 -0.10722327938E+03 -0.73496757877E+02 -0.73788866371E+03  0.76874071383E+03  0.17200000000E+03 0.  1.
</event>
<event>
 4    1  0.3211568E-002  0.2194944E+03  0.7818608E-02  0.1134261E+00
          4   -1    0    0  502    0  0.00000000000E+00  0.00000000000E+00  0.22398157953E+03  0.22398157953E+03  0.00000000000E+00 0. -1.
         -4   -1    0    0    0  501 -0.00000000000E+00 -0.00000000000E+00 -0.38479652003E+03  0.38479652003E+03  0.00000000000E+00 0.  1.
          6    1    1    2  502    0  0.12451748588E+03 -0.55580638881E+02  0.12173310710E+03  0.25099155578E+03  0.17200000000E+03 0. -1.
         -6    1    1    2    0  501 -0.12451748588E+03  0.55580638881E+02 -0.28254804761E+03  0.35778654379E+03  0.17200000000E+03 0.  1.
</event>
<event>
 4    1  0.3211568E-002  0.1903442E+03  0.7818608E-02  0.1158151E+00
         -2   -1    0    0    0  501 -0.00000000000E+00  0.00000000000E+00  0.43500200001E+02  0.43500200001E+02  0.00000000000E+00 0.  1.
          2   -1    0    0  502    0  0.00000000000E+00 -0.00000000000E+00 -0.84486804749E+03  0.84486804749E+03  0.00000000000E+00 0. -1.
          6    1    1    2  502    0 -0.78943241267E+02 -0.20368522280E+02 -0.45357092081E+03  0.49189174850E+03  0.17200000000E+03 0. -1.
         -6    1    1    2    0  501  0.78943241267E+02  0.20368522280E+02 -0.34779692668E+03  0.39647649899E+03  0.17200000000E+03 0. -1.
</event>
<event>
 4    1  0.3211568E-002  0.2053805E+03  0.7818608E-02  0.1145277E+00
          2   -1    0    0  502    0  0.00000000000E+00  0.00000000000E+00  0.26250752389E+02  0.26250752389E+02  0.00000000000E+00 0. -1.
         -2   -1    0    0    0  501 -0.00000000000E+00 -0.00000000000E+00 -0.20715250159E+04  0.20715250159E+04  0.00000000000E+00 0.  1.
          6    1    1    2  502    0  0.66498987829E+02  0.90416010113E+02 -0.52586641187E+03  0.56454995651E+03  0.17200000000E+03 0. -1.
         -6    1    1    2    0  501 -0.66498987829E+02 -0.90416010113E+02 -0.15194078517E+04  0.15332258118E+04  0.17200000000E+03 0.  1.
</event>
<event>
 4    1  0.3211568E-002  0.5059215E+03  0.7818608E-02  0.1012245E+00
          1   -1    0    0  502    0  0.00000000000E+00  0.00000000000E+00  0.15254728613E+03  0.15254728613E+03  0.00000000000E+00 0. -1.
         -1   -1    0    0    0  501 -0.00000000000E+00 -0.00000000000E+00 -0.17033868208E+04  0.17033868208E+04  0.00000000000E+00 0.  1.
          6    1    1    2  502    0 -0.31659564069E+02 -0.47473177001E+03 -0.66187323188E+03  0.83308628397E+03  0.17200000000E+03 0. -1.
         -6    1    1    2    0  501  0.31659564069E+02  0.47473177001E+03 -0.88896630282E+03  0.10228478230E+04  0.17200000000E+03 0.  1.
</event>
<event>
 4    1  0.3211568E-002  0.2583020E+03  0.7818608E-02  0.1108168E+00
          1   -1    0    0  502    0  0.00000000000E+00  0.00000000000E+00  0.13165668164E+04  0.13165668164E+04  0.00000000000E+00 0. -1.
         -1   -1    0    0    0  501 -0.00000000000E+00 -0.00000000000E+00 -0.55293854534E+02  0.55293854534E+02  0.00000000000E+00 0.  1.
          6    1    1    2  502    0 -0.58340821872E+02  0.18366341339E+03  0.43243543450E+03  0.50370656729E+03  0.17200000000E+03 0.  1.
         -6    1    1    2    0  501  0.58340821872E+02 -0.18366341339E+03  0.82883752736E+03  0.86815410364E+03  0.17200000000E+03 0.  1.
</event>
<event>
 4    1  0.3211568E-002  0.3591926E+03  0.7818608E-02  0.1058904E+00
         -2   -1    0    0    0  501 -0.00000000000E+00  0.00000000000E+00  0.10033168782E+03  0.10033168782E+03  0.00000000000E+00 0.  1.
          2   -1    0    0  502    0  0.00000000000E+00 -0.00000000000E+00 -0.14265125813E+04  0.14265125813E+04  0.00000000000E+00 0. -1.
          6    1    1    2  502    0  0.14184254497E+03  0.28163095993E+03 -0.90275075924E+03  0.97158542520E+03  0.17200000000E+03 0. -1.
         -6    1    1    2    0  501 -0.14184254497E+03 -0.28163095993E+03 -0.42343013421E+03  0.55525884388E+03  0.17200000000E+03 0.  1.
</event>
<event>
 4    1  0.3211568E-002  0.6036791E+03  0.7818608E-02  0.9897802E-01
          2   -1    0    0  502    0  0.00000000000E+00  0.00000000000E+00  0.25433349683E+04  0.25433349683E+04  0.00000000000E+00 0. -1.
         -2   -1    0    0    0  501 -0.00000000000E+00 -0.00000000000E+00 -0.14695122692E+03  0.14695122692E+03  0.00000000000E+00 0.  1.
          6    1    1    2  502    0  0.46926419785E+03 -0.33857877675E+03  0.98580146539E+03  0.11559554510E+04  0.17200000000E+03 0. -1.
         -6    1    1    2    0  501 -0.46926419785E+03  0.33857877675E+03  0.14105822760E+04  0.15343307443E+04  0.17200000000E+03 0.  1.
</event>
<event>
 4    1  0.3211568E-002  0.3977659E+03  0.7818608E-02  0.1044556E+00
         -2   -1    0    0    0  501 -0.00000000000E+00  0.00000000000E+00  0.11514922338E+03  0.11514922338E+03  0.00000000000E+00 0.  1.
          2   -1    0    0  502    0  0.00000000000E+00 -0.00000000000E+00 -0.18085553896E+04  0.18085553896E+04  0.00000000000E+00 0. -1.
          6    1    1    2  502    0 -0.25231052596E+03  0.25489815783E+03 -0.13181725795E+04  0.13768793055E+04  0.17200000000E+03 0. -1.
         -6    1    1    2    0  501  0.25231052596E+03 -0.25489815783E+03 -0.37523358670E+03  0.54682530754E+03  0.17200000000E+03 0.  1.
</event>
<event>
 4    1  0.3211568E-002  0.2960741E+03  0.7818608E-02  0.1087220E+00
         -2   -1    0    0    0  501 -0.00000000000E+00  0.00000000000E+00  0.37114427291E+03  0.37114427291E+03  0.00000000000E+00 0.  1.
          2   -1    0    0  502    0  0.00000000000E+00 -0.00000000000E+00 -0.26568439543E+03  0.26568439543E+03  0.00000000000E+00 0. -1.
          6    1    1    2  502    0 -0.20859210275E+03 -0.12068641742E+03 -0.53364594304E+02  0.30084490456E+03  0.17200000000E+03 0. -1.
         -6    1    1    2    0  501  0.20859210275E+03  0.12068641742E+03  0.15882447178E+03  0.33598376377E+03  0.17200000000E+03 0.  1.
</event>
<event>
 4    1  0.3211568E-002  0.1997317E+03  0.7818608E-02  0.1149966E+00
          2   -1    0    0  502    0  0.00000000000E+00  0.00000000000E+00  0.37268193421E+03  0.37268193421E+03  0.00000000000E+00 0. -1.
         -2   -1    0    0    0  501 -0.00000000000E+00 -0.00000000000E+00 -0.10765380249E+03  0.10765380249E+03  0.00000000000E+00 0.  1.
          6    1    1    2  502    0 -0.10067469661E+03 -0.13166124848E+02  0.15061453490E+03  0.25015491101E+03  0.17200000000E+03 0. -1.
         -6    1    1    2    0  501  0.10067469661E+03  0.13166124848E+02  0.11441359681E+03  0.23018082569E+03  0.17200000000E+03 0.  1.
</event>
<event>
 4    1  0.3211568E-002  0.2884891E+03  0.7818608E-02  0.1091141E+00
          2   -1    0    0  502    0  0.00000000000E+00  0.00000000000E+00  0.16699373693E+04  0.16699373693E+04  0.00000000000E+00 0. -1.
         -2   -1    0    0    0  501 -0.00000000000E+00 -0.00000000000E+00 -0.54061200047E+02  0.54061200047E+02  0.00000000000E+00 0.  1.
          6    1    1    2  502    0  0.56910632583E+02  0.22450643952E+03  0.56700496561E+03  0.63617654194E+03  0.17200000000E+03 0. -1.
         -6    1    1    2    0  501 -0.56910632583E+02 -0.22450643952E+03  0.10488712037E+04  0.10878220274E+04  0.17200000000E+03 0.  1.
</event>
<event>
 4    1  0.3211568E-002  0.2985162E+03  0.7818608E-02  0.1085985E+00
          1   -1    0    0  502    0  0.00000000000E+00  0.00000000000E+00  0.89759241426E+03  0.89759241426E+03  0.00000000000E+00 0. -1.
         -1   -1    0    0    0  501 -0.00000000000E+00 -0.00000000000E+00 -0.13669693907E+03  0.13669693907E+03  0.00000000000E+00 0.  1.
          6    1    1    2  502    0  0.24316790240E+03 -0.19932196822E+02  0.65101397634E+03  0.71619209617E+03  0.17200000000E+03 0. -1.
         -6    1    1    2    0  501 -0.24316790240E+03  0.19932196822E+02  0.10988149885E+03  0.31809725717E+03  0.17200000000E+03 0.  1.
</event>
<event>
 4    1  0.3211568E-002  0.4794812E+03  0.7818608E-02  0.1019278E+00
         -2   -1    0    0    0  501 -0.00000000000E+00  0.00000000000E+00  0.13035339290E+03  0.13035339290E+03  0.00000000000E+00 0.  1.
          2   -1    0    0  502    0  0.00000000000E+00 -0.00000000000E+00 -0.18271664837E+04  0.18271664837E+04  0.00000000000E+00 0. -1.
          6    1    1    2  502    0  0.27532547522E+03 -0.35286552961E+03 -0.10308439666E+04  0.11368999441E+04  0.17200000000E+03 0. -1.
         -6    1    1    2    0  501 -0.27532547522E+03  0.35286552961E+03 -0.66596912413E+03  0.82061993248E+03  0.17200000000E+03 0.  1.
</event>
<event>
 4    1  0.3211568E-002  0.1774156E+03  0.7818608E-02  0.1170328E+00
          1   -1    0    0  502    0  0.00000000000E+00  0.00000000000E+00  0.20160796633E+03  0.20160796633E+03  0.00000000000E+00 0. -1.
         -1   -1    0    0    0  501 -0.00000000000E+00 -0.00000000000E+00 -0.15998718486E+03  0.15998718486E+03  0.00000000000E+00 0.  1.
          6    1    1    2  502    0 -0.12409999489E+02  0.41692909247E+02 -0.72758211636E+01  0.17756476098E+03  0.17200000000E+03 0.  1.
         -6    1    1    2    0  501  0.12409999489E+02 -0.41692909247E+02  0.48896602636E+02  0.18403039020E+03  0.17200000000E+03 0. -1.
</event>
<event>
 4    1  0.3211568E-002  0.4613353E+03  0.7818608E-02  0.1024395E+00
          2   -1    0    0  502    0  0.00000000000E+00  0.00000000000E+00  0.63127548441E+03  0.63127548441E+03  0.00000000000E+00 0. -1.
         -2   -1    0    0    0  501 -0.00000000000E+00 -0.00000000000E+00 -0.48307448129E+03  0.48307448129E+03  0.00000000000E+00 0.  1.
          6    1    1    2  502    0  0.40260221066E+03 -0.14545705440E+03  0.38033817863E+03  0.59790252117E+03  0.17200000000E+03 0. -1.
         -6    1    1    2    0  501 -0.40260221066E+03  0.14545705440E+03 -0.23213717551E+03  0.51644744452E+03  0.17200000000E+03 0.  1.
</event>
<event>
 4    1  0.3211568E-002  0.3856574E+03  0.7818608E-02  0.1048862E+00
          1   -1    0    0  502    0  0.00000000000E+00  0.00000000000E+00  0.11133466946E+04  0.11133466946E+04  0.00000000000E+00 0. -1.
         -1   -1    0    0    0  501 -0.00000000000E+00 -0.00000000000E+00 -0.15691956067E+03  0.15691956067E+03  0.00000000000E+00 0.  1.
          6    1    1    2  502    0 -0.33516096805E+03 -0.82551300191E+02  0.72311018731E+03  0.81952421237E+03  0.17200000000E+03 0. -1.
         -6    1    1    2    0  501  0.33516096805E+03  0.82551300191E+02  0.23331694663E+03  0.45074204292E+03  0.17200000000E+03 0.  1.
</event>
<event>
 4    1  0.3211568E-002  0.1762742E+03  0.7818608E-02  0.1171458E+00
          4   -1    0    0  502    0  0.00000000000E+00  0.00000000000E+00  0.96194003142E+02  0.96194003142E+02  0.00000000000E+00 0. -1.
         -4   -1    0    0    0  501 -0.00000000000E+00 -0.00000000000E+00 -0.77821623285E+03  0.77821623285E+03  0.00000000000E+00 0.  1.
          6    1    1    2  502    0 -0.79006862335E+01 -0.37764738274E+02 -0.66356697782E+01  0.17639906013E+03  0.17200000000E+03 0. -1.
         -6    1    1    2    0  501  0.79006862335E+01  0.37764738274E+02 -0.67538655993E+03  0.69801117587E+03  0.17200000000E+03 0.  1.
</event>
<event>
 4    1  0.3211568E-002  0.2182363E+03  0.7818608E-02  0.1135205E+00
         -1   -1    0    0    0  501 -0.00000000000E+00  0.00000000000E+00  0.18332912593E+03  0.18332912593E+03  0.00000000000E+00 0.  1.
          1   -1    0    0  502    0  0.00000000000E+00 -0.00000000000E+00 -0.39050704863E+03  0.39050704863E+03  0.00000000000E+00 0. -1.
          6    1    1    2  502    0 -0.34186270529E+02 -0.12990135602E+03 -0.26958957669E+03  0.34685098133E+03  0.17200000000E+03 0. -1.
         -6    1    1    2    0  501  0.34186270529E+02  0.12990135602E+03  0.62411653989E+02  0.22698519322E+03  0.17200000000E+03 0.  1.
</event>
<event>
 4    1  0.3211568E-002  0.2142795E+03  0.7818608E-02  0.1138221E+00
         -2   -1    0    0    0  501 -0.00000000000E+00  0.00000000000E+00  0.93504814382E+02  0.93504814382E+02  0.00000000000E+00 0.  1.
          2   -1    0    0  502    0  0.00000000000E+00 -0.00000000000E+00 -0.50203836806E+03  0.50203836806E+03  0.00000000000E+00 0. -1.
          6    1    1    2  502    0  0.75849493902E+02 -0.10285205175E+03 -0.24831713610E+03  0.32798946684E+03  0.17200000000E+03 0. -1.
         -6    1    1    2    0  501 -0.75849493902E+02  0.10285205175E+03 -0.16021641757E+03  0.26755371560E+03  0.17200000000E+03 0.  1.
</event>
<event>
 4    1  0.3211568E-002  0.2525705E+03  0.7818608E-02  0.1111691E+00
         -2   -1    0    0    0  501 -0.00000000000E+00  0.00000000000E+00  0.74805439615E+02  0.74805439615E+02  0.00000000000E+00 0.  1.
          2   -1    0    0  502    0  0.00000000000E+00 -0.00000000000E+00 -0.85286779033E+03  0.85286779033E+03  0.00000000000E+00 0. -1.
          6    1    1    2  502    0 -0.11649696481E+03 -0.14365343562E+03 -0.39399193265E+03  0.46799732410E+03  0.17200000000E+03 0. -1.
         -6    1    1    2    0  501  0.11649696481E+03  0.14365343562E+03 -0.38407041806E+03  0.45967590584E+03  0.17200000000E+03 0.  1.
</event>
<event>
 4    1  0.3211568E-002  0.1787704E+03  0.7818608E-02  0.1168998E+00
          2   -1    0    0  502    0  0.00000000000E+00  0.00000000000E+00  0.14588476111E+04  0.14588476111E+04  0.00000000000E+00 0. -1.
         -2   -1    0    0    0  501 -0.00000000000E+00 -0.00000000000E+00 -0.24854516516E+02  0.24854516516E+02  0.00000000000E+00 0.  1.
          6    1    1    2  502    0  0.31616758816E+02  0.37084194755E+02  0.97247138413E+03  0.98876663065E+03  0.17200000000E+03 0. -1.
         -6    1    1    2    0  501 -0.31616758816E+02 -0.37084194755E+02  0.46152171051E+03  0.49493549702E+03  0.17200000000E+03 0.  1.
</event>
<event>
 4    1  0.3211568E-002  0.1959059E+03  0.7818608E-02  0.1153240E+00
          1   -1    0    0  502    0  0.00000000000E+00  0.00000000000E+00  0.50533636192E+03  0.50533636192E+03  0.00000000000E+00 0. -1.
         -1   -1    0    0    0  501 -0.00000000000E+00 -0.00000000000E+00 -0.75983676857E+02  0.75983676857E+02  0.00000000000E+00 0.  1.
          6    1    1    2  502    0 -0.68976569431E+02  0.63540158426E+02  0.20834898441E+03  0.28598674474E+03  0.17200000000E+03 0. -1.
         -6    1    1    2    0  501  0.68976569431E+02 -0.63540158426E+02  0.22100370065E+03  0.29533329403E+03  0.17200000000E+03 0.  1.
</event>
<event>
 4    1  0.3211568E-002  0.2762561E+03  0.7818608E-02  0.1097752E+00
         -1   -1    0    0    0  501 -0.00000000000E+00  0.00000000000E+00  0.75931160917E+03  0.75931160917E+03  0.00000000000E+00 0.  1.
          1   -1    0    0  502    0  0.00000000000E+00 -0.00000000000E+00 -0.11591527895E+03  0.11591527895E+03  0.00000000000E+00 0. -1.
          6    1    1    2  502    0  0.12930437834E+03 -0.17324498075E+03  0.16215691327E+03  0.32033156281E+03  0.17200000000E+03 0. -1.
         -6    1    1    2    0  501 -0.12930437834E+03  0.17324498075E+03  0.48123941695E+03  0.55489532530E+03  0.17200000000E+03 0.  1.
</event>
<event>
 4    1  0.3211568E-002  0.1994726E+03  0.7818608E-02  0.1150185E+00
         -1   -1    0    0    0  501 -0.00000000000E+00  0.00000000000E+00  0.89227149810E+03  0.89227149810E+03  0.00000000000E+00 0.  1.
          1   -1    0    0  502    0  0.00000000000E+00 -0.00000000000E+00 -0.49449407263E+02  0.49449407263E+02  0.00000000000E+00 0. -1.
          6    1    1    2  502    0  0.94737556435E+02 -0.35072815513E+02  0.27385500613E+03  0.33880063661E+03  0.17200000000E+03 0. -1.
         -6    1    1    2    0  501 -0.94737556435E+02  0.35072815513E+02  0.56896708471E+03  0.60292026875E+03  0.17200000000E+03 0.  1.
</event>
<event>
 4    1  0.3211568E-002  0.4382984E+03  0.7818608E-02  0.1031270E+00
         -2   -1    0    0    0  501 -0.00000000000E+00  0.00000000000E+00  0.10975422685E+03  0.10975422685E+03  0.00000000000E+00 0.  1.
          2   -1    0    0  502    0  0.00000000000E+00 -0.00000000000E+00 -0.17569493148E+04  0.17569493148E+04  0.00000000000E+00 0. -1.
          6    1    1    2  502    0  0.19032117327E+03 -0.35538614540E+03 -0.76628260833E+03  0.88277658395E+03  0.17200000000E+03 0. -1.
         -6    1    1    2    0  501 -0.19032117327E+03  0.35538614540E+03 -0.88091247965E+03  0.98392695773E+03  0.17200000000E+03 0.  1.
</event>
<event>
 4    1  0.3211568E-002  0.3420529E+03  0.7818608E-02  0.1065925E+00
          1   -1    0    0  502    0  0.00000000000E+00  0.00000000000E+00  0.16409443527E+04  0.16409443527E+04  0.00000000000E+00 0. -1.
         -1   -1    0    0    0  501 -0.00000000000E+00 -0.00000000000E+00 -0.76222395843E+02  0.76222395843E+02  0.00000000000E+00 0.  1.
          6    1    1    2  502    0 -0.27329894507E+03 -0.11280015139E+03  0.56418524078E+03  0.65977660875E+03  0.17200000000E+03 0. -1.
         -6    1    1    2    0  501  0.27329894507E+03  0.11280015139E+03  0.10005367161E+04  0.10573901398E+04  0.17200000000E+03 0. -1.
</event>
<event>
 4    1  0.3211568E-002  0.2930088E+03  0.7818608E-02  0.1088789E+00
         -2   -1    0    0    0  501 -0.00000000000E+00  0.00000000000E+00  0.20896612073E+03  0.20896612073E+03  0.00000000000E+00 0.  1.
          2   -1    0    0  502    0  0.00000000000E+00 -0.00000000000E+00 -0.44448928946E+03  0.44448928946E+03  0.00000000000E+00 0. -1.
          6    1    1    2  502    0 -0.20910461619E+03  0.11200620052E+03 -0.27880893828E+02  0.29433225054E+03  0.17200000000E+03 0. -1.
         -6    1    1    2    0  501  0.20910461619E+03 -0.11200620052E+03 -0.20764227490E+03  0.35912315964E+03  0.17200000000E+03 0.  1.
</event>
<event>
 4    1  0.3211568E-002  0.1915998E+03  0.7818608E-02  0.1157026E+00
         -2   -1    0    0    0  501 -0.00000000000E+00  0.00000000000E+00  0.25215055698E+02  0.25215055698E+02  0.00000000000E+00 0.  1.
          2   -1    0    0  502    0  0.00000000000E+00 -0.00000000000E+00 -0.17326933625E+04  0.17326933625E+04  0.00000000000E+00 0. -1.
          6    1    1    2  502    0 -0.45079286056E+02  0.71374624905E+02 -0.12050462950E+04  0.12201832044E+04  0.17200000000E+03 0. -1.
         -6    1    1    2    0  501  0.45079286056E+02 -0.71374624905E+02 -0.50243201178E+03  0.53772521381E+03  0.17200000000E+03 0.  1.
</event>
<event>
 4    1  0.3211568E-002  0.1954997E+03  0.7818608E-02  0.1153592E+00
         -1   -1    0    0    0  501 -0.00000000000E+00  0.00000000000E+00  0.26228146796E+03  0.26228146796E+03  0.00000000000E+00 0.  1.
          1   -1    0    0  502    0  0.00000000000E+00 -0.00000000000E+00 -0.17090700183E+03  0.17090700183E+03  0.00000000000E+00 0. -1.
          6    1    1    2  502    0 -0.81319207467E+02  0.44981136866E+02 -0.37458517648E+02  0.19905591355E+03  0.17200000000E+03 0. -1.
         -6    1    1    2    0  501  0.81319207467E+02 -0.44981136866E+02  0.12883298378E+03  0.23413255623E+03  0.17200000000E+03 0.  1.
</event>
<event>
 4    1  0.3211568E-002  0.2441227E+03  0.7818608E-02  0.1117076E+00
          1   -1    0    0  502    0  0.00000000000E+00  0.00000000000E+00  0.14316328675E+04  0.14316328675E+04  0.00000000000E+00 0. -1.
         -1   -1    0    0    0  501 -0.00000000000E+00 -0.00000000000E+00 -0.46385246450E+02  0.46385246450E+02  0.00000000000E+00 0.  1.
          6    1    1    2  502    0  0.50856035838E+02  0.16560662819E+03  0.45595473172E+03  0.51719494299E+03  0.17200000000E+03 0.  1.
         -6    1    1    2    0  501 -0.50856035838E+02 -0.16560662819E+03  0.92929288931E+03  0.96082317094E+03  0.17200000000E+03 0. -1.
</event>
<event>
 4    1  0.3211568E-002  0.1996394E+03  0.7818608E-02  0.1150044E+00
          2   -1    0    0  502    0  0.00000000000E+00  0.00000000000E+00  0.93980305137E+03  0.93980305137E+03  0.00000000000E+00 0. -1.
         -2   -1    0    0    0  501 -0.00000000000E+00 -0.00000000000E+00 -0.51297481105E+02  0.51297481105E+02  0.00000000000E+00 0.  1.
          6    1    1    2  502    0 -0.24520077776E+02  0.98339480711E+02  0.65053376578E+03  0.68047782338E+03  0.17200000000E+03 0. -1.
         -6    1    1    2    0  501  0.24520077776E+02 -0.98339480711E+02  0.23797180448E+03  0.31062270910E+03  0.17200000000E+03 0.  1.
</event>
<event>
 4    1  0.3211568E-002  0.2188611E+03  0.7818608E-02  0.1134735E+00
         -1   -1    0    0    0  501 -0.00000000000E+00  0.00000000000E+00  0.10762628084E+03  0.10762628084E+03  0.00000000000E+00 0.  1.
          1   -1    0    0  502    0  0.00000000000E+00 -0.00000000000E+00 -0.50771180906E+03  0.50771180906E+03  0.00000000000E+00 0. -1.
          6    1    1    2  502    0 -0.42541059893E+01  0.13527047643E+03 -0.91963973569E+02  0.23739749714E+03  0.17200000000E+03 0.  1.
         -6    1    1    2    0  501  0.42541059893E+01 -0.13527047643E+03 -0.30812155465E+03  0.37794059276E+03  0.17200000000E+03 0.  1.
</event>
<event>
 4    1  0.3211568E-002  0.3929060E+03  0.7818608E-02  0.1046264E+00
         -1   -1    0    0    0  501 -0.00000000000E+00  0.00000000000E+00  0.78421292771E+02  0.78421292771E+02  0.00000000000E+00 0.  1.
          1   -1    0    0  502    0  0.00000000000E+00 -0.00000000000E+00 -0.27643087853E+04  0.27643087853E+04  0.00000000000E+00 0. -1.
          6    1    1    2  502    0 -0.32551733680E+03  0.13722086955E+03 -0.21055616783E+04  0.21419068805E+04  0.17200000000E+03 0. -1.
         -6    1    1    2    0  501  0.32551733680E+03 -0.13722086955E+03 -0.58032581425E+03  0.70082319760E+03  0.17200000000E+03 0.  1.
</event>
<event>
 4    1  0.3211568E-002  0.1977938E+03  0.7818608E-02  0.1151614E+00
         -2   -1    0    0    0  501 -0.00000000000E+00  0.00000000000E+00  0.34632993496E+02  0.34632993496E+02  0.00000000000E+00 0.  1.
          2   -1    0    0  502    0  0.00000000000E+00 -0.00000000000E+00 -0.11347771834E+04  0.11347771834E+04  0.00000000000E+00 0. -1.
          6    1    1    2  502    0  0.87871203588E+02  0.42626764254E+02 -0.51068421571E+03  0.54765021467E+03  0.17200000000E+03 0.  1.
         -6    1    1    2    0  501 -0.87871203588E+02 -0.42626764254E+02 -0.58945997417E+03  0.62175996220E+03  0.17200000000E+03 0. -1.
</event>
<event>
 4    1  0.3211568E-002  0.3052552E+03  0.7818608E-02  0.1082643E+00
         -2   -1    0    0    0  501 -0.00000000000E+00  0.00000000000E+00  0.50701085947E+02  0.50701085947E+02  0.00000000000E+00 0.  1.
          2   -1    0    0  502    0  0.00000000000E+00 -0.00000000000E+00 -0.19681957916E+04  0.19681957916E+04  0.00000000000E+00 0. -1.
          6    1    1    2  502    0  0.51910407254E+02  0.24678336291E+03 -0.12185283877E+04  0.12561815754E+04  0.17200000000E+03 0. -1.
         -6    1    1    2    0  501 -0.51910407254E+02 -0.24678336291E+03 -0.69896631797E+03  0.76271530222E+03  0.17200000000E+03 0.  1.
</event>
<event>
 4    1  0.3211568E-002  0.5821918E+03  0.7818608E-02  0.9943057E-01
         -2   -1    0    0    0  501 -0.00000000000E+00  0.00000000000E+00  0.14565063442E+03  0.14565063442E+03  0.00000000000E+00 0.  1.
          2   -1    0    0  502    0  0.00000000000E+00 -0.00000000000E+00 -0.28514143408E+04  0.28514143408E+04  0.00000000000E+00 0. -1.
          6    1    1    2  502    0 -0.18578421566E+03  0.52425897554E+03 -0.19954533656E+04  0.20786489320E+04  0.17200000000E+03 0. -1.
         -6    1    1    2    0  501  0.18578421566E+03 -0.52425897554E+03 -0.71031034081E+03  0.91841604324E+03  0.17200000000E+03 0.  1.
</event>
<event>
 4    1  0.3211568E-002  0.2047277E+03  0.7818608E-02  0.1145810E+00
         -1   -1    0    0    0  501 -0.00000000000E+00  0.00000000000E+00  0.49159548912E+02  0.49159548912E+02  0.00000000000E+00 0.  1.
          1   -1    0    0  502    0  0.00000000000E+00 -0.00000000000E+00 -0.88771299392E+03  0.88771299392E+03  0.00000000000E+00 0. -1.
          6    1    1    2  502    0  0.10861688313E+03  0.23061165184E+02 -0.51244037191E+03  0.55182296020E+03  0.17200000000E+03 0. -1.
         -6    1    1    2    0  501 -0.10861688313E+03 -0.23061165184E+02 -0.32611307310E+03  0.38504958263E+03  0.17200000000E+03 0. -1.
</event>
<event>
 4    1  0.3211568E-002  0.1968065E+03  0.7818608E-02  0.1152462E+00
         -1   -1    0    0    0  501 -0.00000000000E+00  0.00000000000E+00  0.16721964221E+02  0.16721964221E+02  0.00000000000E+00 0.  1.
          1   -1    0    0  502    0  0.00000000000E+00 -0.00000000000E+00 -0.31111190575E+04  0.31111190575E+04  0.00000000000E+00 0. -1.
          6    1    1    2  502    0  0.55113831476E+02 -0.78174537022E+02 -0.23376865508E+04  0.23459563514E+04  0.17200000000E+03 0. -1.
         -6    1    1    2    0  501 -0.55113831476E+02  0.78174537022E+02 -0.75671054249E+03  0.78188467038E+03  0.17200000000E+03 0.  1.
</event>
<event>
 4    1  0.3211568E-002  0.2057554E+03  0.7818608E-02  0.1144972E+00
         -2   -1    0    0    0  501 -0.00000000000E+00  0.00000000000E+00  0.11252481912E+04  0.11252481912E+04  0.00000000000E+00 0.  1.
          2   -1    0    0  502    0  0.00000000000E+00 -0.00000000000E+00 -0.57799879599E+02  0.57799879599E+02  0.00000000000E+00 0. -1.
          6    1    1    2  502    0  0.10315235849E+03 -0.45944168316E+02  0.18423369357E+03  0.27618350695E+03  0.17200000000E+03 0. -1.
         -6    1    1    2    0  501 -0.10315235849E+03  0.45944168316E+02  0.88321461801E+03  0.90686456383E+03  0.17200000000E+03 0. -1.
</event>
<event>
 4    1  0.3211568E-002  0.2581397E+03  0.7818608E-02  0.1108266E+00
         -1   -1    0    0    0  501 -0.00000000000E+00  0.00000000000E+00  0.15315177132E+03  0.15315177132E+03  0.00000000000E+00 0.  1.
          1   -1    0    0  502    0  0.00000000000E+00 -0.00000000000E+00 -0.20364102186E+04  0.20364102186E+04  0.00000000000E+00 0. -1.
          6    1    1    2  502    0 -0.12209028662E+03 -0.14881561247E+03 -0.19124354213E+04  0.19297785793E+04  0.17200000000E+03 0. -1.
         -6    1    1    2    0  501  0.12209028662E+03  0.14881561247E+03  0.29176974019E+02  0.25978341059E+03  0.17200000000E+03 0.  1.
</event>
<event>
 4    1  0.3211568E-002  0.2558743E+03  0.7818608E-02  0.1109648E+00
         -1   -1    0    0    0  501 -0.00000000000E+00  0.00000000000E+00  0.26176221197E+02  0.26176221197E+02  0.00000000000E+00 0.  1.
          1   -1    0    0  502    0  0.00000000000E+00 -0.00000000000E+00 -0.26538113100E+04  0.26538113100E+04  0.00000000000E+00 0. -1.
          6    1    1    2  502    0 -0.16822718530E+03 -0.87104928936E+02 -0.16351672929E+04  0.16550660804E+04  0.17200000000E+03 0. -1.
         -6    1    1    2    0  501  0.16822718530E+03  0.87104928936E+02 -0.99246779583E+03  0.10249214508E+04  0.17200000000E+03 0.  1.
</event>
<event>
 4    1  0.3211568E-002  0.1986015E+03  0.7818608E-02  0.1150924E+00
          2   -1    0    0  502    0  0.00000000000E+00  0.00000000000E+00  0.98131701166E+03  0.98131701166E+03  0.00000000000E+00 0. -1.
         -2   -1    0    0    0  501 -0.00000000000E+00 -0.00000000000E+00 -0.40367648626E+02  0.40367648626E+02  0.00000000000E+00 0.  1.
          6    1    1    2  502    0 -0.88021663245E+01  0.98899289528E+02  0.43692003446E+03  0.47993922960E+03  0.17200000000E+03 0. -1.
         -6    1    1    2    0  501  0.88021663245E+01 -0.98899289528E+02  0.50402932858E+03  0.54174543069E+03  0.17200000000E+03 0.  1.
</event>
<event>
 4    1  0.3211568E-002  0.1805006E+03  0.7818608E-02  0.1167319E+00
          2   -1    0    0  502    0  0.00000000000E+00  0.00000000000E+00  0.17368957083E+04  0.17368957083E+04  0.00000000000E+00 0. -1.
         -2   -1    0    0    0  501 -0.00000000000E+00 -0.00000000000E+00 -0.19804554577E+02  0.19804554577E+02  0.00000000000E+00 0.  1.
          6    1    1    2  502    0  0.53007326399E+02  0.13663168800E+02  0.10604722306E+04  0.10757238543E+04  0.17200000000E+03 0.  1.
         -6    1    1    2    0  501 -0.53007326399E+02 -0.13663168800E+02  0.65661892305E+03  0.68097640851E+03  0.17200000000E+03 0. -1.
</event>
<event>
 4    1  0.3211568E-002  0.2383214E+03  0.7818608E-02  0.1120916E+00
         -1   -1    0    0    0  501 -0.00000000000E+00  0.00000000000E+00  0.61606059414E+02  0.61606059414E+02  0.00000000000E+00 0.  1.
          1   -1    0    0  502    0  0.00000000000E+00 -0.00000000000E+00 -0.10861148505E+04  0.10861148505E+04  0.00000000000E+00 0. -1.
          6    1    1    2  502    0  0.11916012728E+03 -0.11407872500E+03 -0.73536577191E+03  0.77301999322E+03  0.17200000000E+03 0. -1.
         -6    1    1    2    0  501 -0.11916012728E+03  0.11407872500E+03 -0.28914301920E+03  0.37470091671E+03  0.17200000000E+03 0.  1.
</event>
<event>
 4    1  0.3211568E-002  0.1890692E+03  0.7818608E-02  0.1159304E+00
         -1   -1    0    0    0  501 -0.00000000000E+00  0.00000000000E+00  0.15938651400E+03  0.15938651400E+03  0.00000000000E+00 0.  1.
          1   -1    0    0  502    0  0.00000000000E+00 -0.00000000000E+00 -0.35933975208E+03  0.35933975208E+03  0.00000000000E+00 0. -1.
          6    1    1    2  502    0 -0.64941186361E+02 -0.44111336297E+02 -0.25898462310E+03  0.32065589450E+03  0.17200000000E+03 0. -1.
         -6    1    1    2    0  501  0.64941186361E+02  0.44111336297E+02  0.59031385022E+02  0.19807037157E+03  0.17200000000E+03 0.  1.
</event>
<event>
 4    1  0.3211568E-002  0.2447088E+03  0.7818608E-02  0.1116695E+00
          2   -1    0    0  502    0  0.00000000000E+00  0.00000000000E+00  0.91540830975E+03  0.91540830975E+03  0.00000000000E+00 0. -1.
         -2   -1    0    0    0  501 -0.00000000000E+00 -0.00000000000E+00 -0.10772199612E+03  0.10772199612E+03  0.00000000000E+00 0.  1.
          6    1    1    2  502    0  0.42124668678E+02 -0.16889029354E+03  0.72443268547E+03  0.76464706547E+03  0.17200000000E+03 0. -1.
         -6    1    1    2    0  501 -0.42124668678E+02  0.16889029354E+03  0.83253628158E+02  0.25848324040E+03  0.17200000000E+03 0.  1.
</event>
<event>
 4    1  0.3211568E-002  0.3300822E+03  0.7818608E-02  0.1071100E+00
         -2   -1    0    0    0  501 -0.00000000000E+00  0.00000000000E+00  0.57013890571E+03  0.57013890571E+03  0.00000000000E+00 0.  1.
          2   -1    0    0  502    0  0.00000000000E+00 -0.00000000000E+00 -0.19418627080E+03  0.19418627080E+03  0.00000000000E+00 0. -1.
          6    1    1    2  502    0 -0.19759451667E+03 -0.20081507203E+03  0.13980767312E+03  0.35846962443E+03  0.17200000000E+03 0. -1.
         -6    1    1    2    0  501  0.19759451667E+03  0.20081507203E+03  0.23614496180E+03  0.40585555209E+03  0.17200000000E+03 0.  1.
</event>
<event>
 4    1  0.3211568E-002  0.2121633E+03  0.7818608E-02  0.1139864E+00
          2   -1    0    0  502    0  0.00000000000E+00  0.00000000000E+00  0.38905943429E+03  0.38905943429E+03  0.00000000000E+00 0. -1.
         -2   -1    0    0    0  501 -0.00000000000E+00 -0.00000000000E+00 -0.19982628883E+03  0.19982628883E+03  0.00000000000E+00 0.  1.
          6    1    1    2  502    0 -0.10720442131E+03 -0.62741278965E+02  0.28566641823E+03  0.35583501590E+03  0.17200000000E+03 0. -1.
         -6    1    1    2    0  501  0.10720442131E+03  0.62741278965E+02 -0.96433272771E+02  0.23305070721E+03  0.17200000000E+03 0.  1.
</event>
<event>
 4    1  0.3211568E-002  0.2705768E+03  0.7818608E-02  0.1100950E+00
         -2   -1    0    0    0  501 -0.00000000000E+00  0.00000000000E+00  0.55115865173E+02  0.55115865173E+02  0.00000000000E+00 0.  1.
          2   -1    0    0  502    0  0.00000000000E+00 -0.00000000000E+00 -0.26726768241E+04  0.26726768241E+04  0.00000000000E+00 0. -1.
          6    1    1    2  502    0 -0.16126033095E+03 -0.13275138370E+03 -0.22760878281E+04  0.22921142261E+04  0.17200000000E+03 0. -1.
         -6    1    1    2    0  501  0.16126033095E+03  0.13275138370E+03 -0.34147313086E+03  0.43567846322E+03  0.17200000000E+03 0.  1.
</event>
<event>
 4    1  0.3211568E-002  0.1932257E+03  0.7818608E-02  0.1155584E+00
         -2   -1    0    0    0  501 -0.00000000000E+00  0.00000000000E+00  0.35578487394E+02  0.35578487394E+02  0.00000000000E+00 0.  1.
          2   -1    0    0  502    0  0.00000000000E+00 -0.00000000000E+00 -0.10713626951E+04  0.10713626951E+04  0.00000000000E+00 0. -1.
          6    1    1    2  502    0  0.32076358170E+02 -0.81995569882E+02 -0.59713144935E+03  0.62761623150E+03  0.17200000000E+03 0. -1.
         -6    1    1    2    0  501 -0.32076358170E+02  0.81995569882E+02 -0.43865275833E+03  0.47932495097E+03  0.17200000000E+03 0.  1.
</event>
<event>
 4    1  0.3211568E-002  0.2412031E+03  0.7818608E-02  0.1118994E+00
         -2   -1    0    0    0  501 -0.00000000000E+00  0.00000000000E+00  0.13309366485E+03  0.13309366485E+03  0.00000000000E+00 0.  1.
          2   -1    0    0  502    0  0.00000000000E+00 -0.00000000000E+00 -0.45322196049E+03  0.45322196049E+03  0.00000000000E+00 0. -1.
          6    1    1    2  502    0 -0.16907721632E+03  0.27954747245E+01 -0.10482050507E+03  0.26299478710E+03  0.17200000000E+03 0.  1.
         -6    1    1    2    0  501  0.16907721632E+03 -0.27954747245E+01 -0.21530779057E+03  0.32332083823E+03  0.17200000000E+03 0. -1.
</event>
<event>
 4    1  0.3211568E-002  0.2119015E+03  0.7818608E-02  0.1140069E+00
         -2   -1    0    0    0  501 -0.00000000000E+00  0.00000000000E+00  0.90224082985E+02  0.90224082985E+02  0.00000000000E+00 0.  1.
          2   -1    0    0  502    0  0.00000000000E+00 -0.00000000000E+00 -0.86390247253E+03  0.86390247253E+03  0.00000000000E+00 0. -1.
          6    1    1    2  502    0 -0.43848591090E+02  0.11573913987E+03 -0.69745191764E+03  0.72893170110E+03  0.17200000000E+03 0. -1.
         -6    1    1    2    0  501  0.43848591090E+02 -0.11573913987E+03 -0.76226471905E+02  0.22519485442E+03  0.17200000000E+03 0.  1.
</event>
<event>
 4    1  0.3211568E-002  0.5073328E+03  0.7818608E-02  0.1011882E+00
          2   -1    0    0  502    0  0.00000000000E+00  0.00000000000E+00  0.19138196098E+03  0.19138196098E+03  0.00000000000E+00 0. -1.
         -2   -1    0    0    0  501 -0.00000000000E+00 -0.00000000000E+00 -0.13693731332E+04  0.13693731332E+04  0.00000000000E+00 0.  1.
          6    1    1    2  502    0  0.14133917721E+03  0.45587910810E+03 -0.48463628232E+03  0.70161160933E+03  0.17200000000E+03 0. -1.
         -6    1    1    2    0  501 -0.14133917721E+03 -0.45587910810E+03 -0.69335488992E+03  0.85914348486E+03  0.17200000000E+03 0.  1.
</event>
<event>
 4    1  0.3211568E-002  0.3087569E+03  0.7818608E-02  0.1080943E+00
          2   -1    0    0  502    0  0.00000000000E+00  0.00000000000E+00  0.34744703569E+04  0.34744703569E+04  0.00000000000E+00 0. -1.
         -2   -1    0    0    0  501 -0.00000000000E+00 -0.00000000000E+00 -0.28039510978E+02  0.28039510978E+02  0.00000000000E+00 0.  1.
          6    1    1    2  502    0  0.25424163044E+03  0.33286561447E+02  0.19798198459E+04  0.20037508388E+04  0.17200000000E+03 0.  1.
         -6    1    1    2    0  501 -0.25424163044E+03 -0.33286561447E+02  0.14666110001E+04  0.14987590291E+04  0.17200000000E+03 0.  1.
</event>
<event>
 4    1  0.3211568E-002  0.2089771E+03  0.7818608E-02  0.1142379E+00
          2   -1    0    0  502    0  0.00000000000E+00  0.00000000000E+00  0.10776210583E+04  0.10776210583E+04  0.00000000000E+00 0. -1.
         -2   -1    0    0    0  501 -0.00000000000E+00 -0.00000000000E+00 -0.40532308463E+02  0.40532308463E+02  0.00000000000E+00 0.  1.
          6    1    1    2  502    0 -0.10202264074E+03  0.60653281718E+02  0.51145194975E+03  0.55249844951E+03  0.17200000000E+03 0. -1.
         -6    1    1    2    0  501  0.10202264074E+03 -0.60653281718E+02  0.52563680008E+03  0.56565491725E+03  0.17200000000E+03 0.  1.
</event>
<event>
 4    1  0.3211568E-002  0.3455100E+03  0.7818608E-02  0.1064473E+00
          2   -1    0    0  502    0  0.00000000000E+00  0.00000000000E+00  0.15298664252E+04  0.15298664252E+04  0.00000000000E+00 0. -1.
         -2   -1    0    0    0  501 -0.00000000000E+00 -0.00000000000E+00 -0.14493249697E+03  0.14493249697E+03  0.00000000000E+00 0.  1.
          6    1    1    2  502    0 -0.78739496762E+02  0.28912492060E+03  0.12614082511E+04  0.13078715166E+04  0.17200000000E+03 0. -1.
         -6    1    1    2    0  501  0.78739496762E+02 -0.28912492060E+03  0.12352567720E+03  0.36692740562E+03  0.17200000000E+03 0.  1.
</event>
<event>
 4    1  0.3211568E-002  0.2168851E+03  0.7818608E-02  0.1136227E+00
          2   -1    0    0  502    0  0.00000000000E+00  0.00000000000E+00  0.12235520913E+04  0.12235520913E+04  0.00000000000E+00 0. -1.
         -2   -1    0    0    0  501 -0.00000000000E+00 -0.00000000000E+00 -0.48827892947E+02  0.48827892947E+02  0.00000000000E+00 0.  1.
          6    1    1    2  502    0 -0.12712823002E+03 -0.35966058954E+02  0.88073326629E+03  0.90704477873E+03  0.17200000000E+03 0. -1.
         -6    1    1    2    0  501  0.12712823002E+03  0.35966058954E+02  0.29399093210E+03  0.36533520556E+03  0.17200000000E+03 0.  1.
</event>
<event>
 4    1  0.3211568E-002  0.1802738E+03  0.7818608E-02  0.1167538E+00
         -2   -1    0    0    0  501 -0.00000000000E+00  0.00000000000E+00  0.16642398091E+03  0.16642398091E+03  0.00000000000E+00 0.  1.
          2   -1    0    0  502    0  0.00000000000E+00 -0.00000000000E+00 -0.50473357175E+03  0.50473357175E+03  0.00000000000E+00 0. -1.
          6    1    1    2  502    0  0.46967425433E+02  0.26621183760E+02 -0.43191759128E+03  0.46802930691E+03  0.17200000000E+03 0. -1.
         -6    1    1    2    0  501 -0.46967425433E+02 -0.26621183760E+02  0.93608000434E+02  0.20312824575E+03  0.17200000000E+03 0.  1.
</event>
<event>
 4    1  0.3211568E-002  0.1983892E+03  0.7818608E-02  0.1151105E+00
         -2   -1    0    0    0  501 -0.00000000000E+00  0.00000000000E+00  0.17421822324E+03  0.17421822324E+03  0.00000000000E+00 0.  1.
          2   -1    0    0  502    0  0.00000000000E+00 -0.00000000000E+00 -0.31427547847E+03  0.31427547847E+03  0.00000000000E+00 0. -1.
          6    1    1    2  502    0 -0.51196992744E+02 -0.84576297571E+02 -0.19953942180E+03  0.28137921570E+03  0.17200000000E+03 0. -1.
         -6    1    1    2    0  501  0.51196992744E+02  0.84576297571E+02  0.59482166566E+02  0.20711448601E+03  0.17200000000E+03 0.  1.
</event>
<event>
 4    1  0.3211568E-002  0.1794876E+03  0.7818608E-02  0.1168300E+00
         -2   -1    0    0    0  501 -0.00000000000E+00  0.00000000000E+00  0.16415132765E+03  0.16415132765E+03  0.00000000000E+00 0.  1.
          2   -1    0    0  502    0  0.00000000000E+00 -0.00000000000E+00 -0.30720980037E+03  0.30720980037E+03  0.00000000000E+00 0. -1.
          6    1    1    2  502    0 -0.49775019893E+02 -0.12420275664E+02  0.70107445007E+02  0.19269371992E+03  0.17200000000E+03 0.  1.
         -6    1    1    2    0  501  0.49775019893E+02  0.12420275664E+02 -0.21316591773E+03  0.27866740810E+03  0.17200000000E+03 0. -1.
</event>
<event>
 4    1  0.3211568E-002  0.2117111E+03  0.7818608E-02  0.1140218E+00
         -2   -1    0    0    0  501 -0.00000000000E+00  0.00000000000E+00  0.66442506607E+02  0.66442506607E+02  0.00000000000E+00 0.  1.
          2   -1    0    0  502    0  0.00000000000E+00 -0.00000000000E+00 -0.88561911675E+03  0.88561911675E+03  0.00000000000E+00 0. -1.
          6    1    1    2  502    0  0.12342733965E+03  0.18084383077E+01 -0.64195869110E+03  0.67596785404E+03  0.17200000000E+03 0. -1.
         -6    1    1    2    0  501 -0.12342733965E+03 -0.18084383077E+01 -0.17721791905E+03  0.27609376931E+03  0.17200000000E+03 0. -1.
</event>
<event>
 4    1  0.3211568E-002  0.2170555E+03  0.7818608E-02  0.1136098E+00
          2   -1    0    0  502    0  0.00000000000E+00  0.00000000000E+00  0.77917195888E+03  0.77917195888E+03  0.00000000000E+00 0. -1.
         -2   -1    0    0    0  501 -0.00000000000E+00 -0.00000000000E+00 -0.60642953064E+02  0.60642953064E+02  0.00000000000E+00 0.  1.
          6    1    1    2  502    0  0.12813703337E+03  0.33316348166E+02  0.38197448203E+03  0.43933766433E+03  0.17200000000E+03 0. -1.
         -6    1    1    2    0  501 -0.12813703337E+03 -0.33316348166E+02  0.33655452379E+03  0.40047724762E+03  0.17200000000E+03 0.  1.
</event>
<event>
 4    1  0.3211568E-002  0.3286426E+03  0.7818608E-02  0.1071739E+00
          2   -1    0    0  502    0  0.00000000000E+00  0.00000000000E+00  0.42829655212E+03  0.42829655212E+03  0.00000000000E+00 0. -1.
         -2   -1    0    0    0  501 -0.00000000000E+00 -0.00000000000E+00 -0.29493457921E+03  0.29493457921E+03  0.00000000000E+00 0.  1.
          6    1    1    2  502    0 -0.22573234027E+03  0.16573133804E+03  0.20436947336E+03  0.38700497089E+03  0.17200000000E+03 0. -1.
         -6    1    1    2    0  501  0.22573234027E+03 -0.16573133804E+03 -0.71007500439E+02  0.33622616045E+03  0.17200000000E+03 0.  1.
</event>
<event>
 4    1  0.3211568E-002  0.2605569E+03  0.7818608E-02  0.1106809E+00
         -2   -1    0    0    0  501 -0.00000000000E+00  0.00000000000E+00  0.15592030303E+03  0.15592030303E+03  0.00000000000E+00 0.  1.
          2   -1    0    0  502    0  0.00000000000E+00 -0.00000000000E+00 -0.48732402545E+03  0.48732402545E+03  0.00000000000E+00 0. -1.
          6    1    1    2  502    0 -0.16849934232E+03 -0.99568295792E+02 -0.60732411828E+02  0.26754121128E+03  0.17200000000E+03 0.  1.
         -6    1    1    2    0  501  0.16849934232E+03  0.99568295792E+02 -0.27067131060E+03  0.37570311720E+03  0.17200000000E+03 0. -1.
</event>
<event>
 4    1  0.3211568E-002  0.2312649E+03  0.7818608E-02  0.1125753E+00
          2   -1    0    0  502    0  0.00000000000E+00  0.00000000000E+00  0.10259060319E+04  0.10259060319E+04  0.00000000000E+00 0. -1.
         -2   -1    0    0    0  501 -0.00000000000E+00 -0.00000000000E+00 -0.93044072319E+02  0.93044072319E+02  0.00000000000E+00 0.  1.
          6    1    1    2  502    0 -0.60549387970E+02 -0.14224350290E+03  0.83741688111E+03  0.86876376264E+03  0.17200000000E+03 0. -1.
         -6    1    1    2    0  501  0.60549387970E+02  0.14224350290E+03  0.95445078433E+02  0.25018634155E+03  0.17200000000E+03 0.  1.
</event>
<event>
 4    1  0.3211568E-002  0.1822124E+03  0.7818608E-02  0.1165679E+00
         -1   -1    0    0    0  501 -0.00000000000E+00  0.00000000000E+00  0.15328892534E+02  0.15328892534E+02  0.00000000000E+00 0.  1.
          1   -1    0    0  502    0  0.00000000000E+00 -0.00000000000E+00 -0.21933087285E+04  0.21933087285E+04  0.00000000000E+00 0. -1.
          6    1    1    2  502    0 -0.59259225989E+02 -0.10282044223E+02 -0.96561809280E+03  0.98265949211E+03  0.17200000000E+03 0.  1.
         -6    1    1    2    0  501  0.59259225989E+02  0.10282044223E+02 -0.12123617432E+04  0.12259781289E+04  0.17200000000E+03 0. -1.
</event>
<event>
 4    1  0.3211568E-002  0.2015752E+03  0.7818608E-02  0.1148417E+00
         -3   -1    0    0    0  501 -0.00000000000E+00  0.00000000000E+00  0.16522493273E+04  0.16522493273E+04  0.00000000000E+00 0.  1.
          3   -1    0    0  502    0  0.00000000000E+00 -0.00000000000E+00 -0.25500409100E+02  0.25500409100E+02  0.00000000000E+00 0. -1.
          6    1    1    2  502    0 -0.29591513534E+02  0.10086076616E+03  0.65506706260E+03  0.68537975483E+03  0.17200000000E+03 0. -1.
         -6    1    1    2    0  501  0.29591513534E+02 -0.10086076616E+03  0.97168185560E+03  0.99236998158E+03  0.17200000000E+03 0.  1.
</event>
<event>
 4    1  0.3211568E-002  0.1833909E+03  0.7818608E-02  0.1164561E+00
          1   -1    0    0  502    0  0.00000000000E+00  0.00000000000E+00  0.58131319551E+03  0.58131319551E+03  0.00000000000E+00 0. -1.
         -1   -1    0    0    0  501 -0.00000000000E+00 -0.00000000000E+00 -0.87099590437E+02  0.87099590437E+02  0.00000000000E+00 0.  1.
          6    1    1    2  502    0  0.53533745978E+02  0.34385629113E+02  0.44076009670E+03  0.47739050713E+03  0.17200000000E+03 0. -1.
         -6    1    1    2    0  501 -0.53533745978E+02 -0.34385629113E+02  0.53453508367E+02  0.19102227882E+03  0.17200000000E+03 0.  1.
</event>
<event>
 4    1  0.3211568E-002  0.2630540E+03  0.7818608E-02  0.1105322E+00
          1   -1    0    0  502    0  0.00000000000E+00  0.00000000000E+00  0.66006500620E+03  0.66006500620E+03  0.00000000000E+00 0. -1.
         -1   -1    0    0    0  501 -0.00000000000E+00 -0.00000000000E+00 -0.10613040267E+03  0.10613040267E+03  0.00000000000E+00 0.  1.
          6    1    1    2  502    0  0.14470589182E+03  0.13665150590E+03  0.31930384138E+03  0.41370565903E+03  0.17200000000E+03 0. -1.
         -6    1    1    2    0  501 -0.14470589182E+03 -0.13665150590E+03  0.23463076215E+03  0.35248974984E+03  0.17200000000E+03 0.  1.
</event>
<event>
 4    1  0.3211568E-002  0.2575517E+03  0.7818608E-02  0.1108623E+00
         -1   -1    0    0    0  501 -0.00000000000E+00  0.00000000000E+00  0.85762436629E+02  0.85762436629E+02  0.00000000000E+00 0.  1.
          1   -1    0    0  502    0  0.00000000000E+00 -0.00000000000E+00 -0.85711925834E+03  0.85711925834E+03  0.00000000000E+00 0. -1.
          6    1    1    2  502    0  0.55042270909E+02 -0.18362801408E+03 -0.53297452201E+03  0.59194150070E+03  0.17200000000E+03 0. -1.
         -6    1    1    2    0  501 -0.55042270909E+02  0.18362801408E+03 -0.23838229970E+03  0.35094019426E+03  0.17200000000E+03 0.  1.
</event>
<event>
 4    1  0.3211568E-002  0.5647302E+03  0.7818608E-02  0.9981408E-01
         -2   -1    0    0    0  501 -0.00000000000E+00  0.00000000000E+00  0.56814948784E+03  0.56814948784E+03  0.00000000000E+00 0.  1.
          2   -1    0    0  502    0  0.00000000000E+00 -0.00000000000E+00 -0.67116228026E+03  0.67116228026E+03  0.00000000000E+00 0. -1.
          6    1    1    2  502    0  0.13107431201E+03 -0.52168543825E+03 -0.30217443032E+03  0.64049165341E+03  0.17200000000E+03 0. -1.
         -6    1    1    2    0  501 -0.13107431201E+03  0.52168543825E+03  0.19916163791E+03  0.59882011469E+03  0.17200000000E+03 0.  1.
</event>
<event>
 4    1  0.3211568E-002  0.2751289E+03  0.7818608E-02  0.1098380E+00
          2   -1    0    0  502    0  0.00000000000E+00  0.00000000000E+00  0.48008658156E+03  0.48008658156E+03  0.00000000000E+00 0. -1.
         -2   -1    0    0    0  501 -0.00000000000E+00 -0.00000000000E+00 -0.28931460522E+03  0.28931460522E+03  0.00000000000E+00 0.  1.
          6    1    1    2  502    0  0.21359719428E+03 -0.22094233517E+02  0.35488572670E+03  0.44904320012E+03  0.17200000000E+03 0. -1.
         -6    1    1    2    0  501 -0.21359719428E+03  0.22094233517E+02 -0.16411375036E+03  0.32035798666E+03  0.17200000000E+03 0.  1.
</event>
<event>
 4    1  0.3211568E-002  0.1793502E+03  0.7818608E-02  0.1168433E+00
          1   -1    0    0  502    0  0.00000000000E+00  0.00000000000E+00  0.25885836884E+03  0.25885836884E+03  0.00000000000E+00 0. -1.
         -1   -1    0    0    0  501 -0.00000000000E+00 -0.00000000000E+00 -0.12432037760E+03  0.12432037760E+03  0.00000000000E+00 0.  1.
          6    1    1    2  502    0  0.48767901843E+02  0.14288890781E+02  0.63147931866E+02  0.19014242543E+03  0.17200000000E+03 0. -1.
         -6    1    1    2    0  501 -0.48767901843E+02 -0.14288890781E+02  0.71390059373E+02  0.19303632101E+03  0.17200000000E+03 0.  1.
</event>
<event>
 4    1  0.3211568E-002  0.5346412E+03  0.7818608E-02  0.1005113E+00
          1   -1    0    0  502    0  0.00000000000E+00  0.00000000000E+00  0.50837502411E+03  0.50837502411E+03  0.00000000000E+00 0. -1.
         -1   -1    0    0    0  501 -0.00000000000E+00 -0.00000000000E+00 -0.57409010836E+03  0.57409010836E+03  0.00000000000E+00 0.  1.
          6    1    1    2  502    0  0.48187362943E+03 -0.15509689932E+03 -0.11053680976E+03  0.54594837598E+03  0.17200000000E+03 0. -1.
         -6    1    1    2    0  501 -0.48187362943E+03  0.15509689932E+03  0.44821725508E+02  0.53651675649E+03  0.17200000000E+03 0.  1.
</event>
<event>
 4    1  0.3211568E-002  0.5547557E+03  0.7818608E-02  0.1000399E+00
         -1   -1    0    0    0  501 -0.00000000000E+00  0.00000000000E+00  0.18986787792E+03  0.18986787792E+03  0.00000000000E+00 0.  1.
          1   -1    0    0  502    0  0.00000000000E+00 -0.00000000000E+00 -0.17514984302E+04  0.17514984302E+04  0.00000000000E+00 0. -1.
          6    1    1    2  502    0 -0.45960988655E+03 -0.25870563219E+03 -0.51574087480E+03  0.75745792086E+03  0.17200000000E+03 0. -1.
         -6    1    1    2    0  501  0.45960988655E+03  0.25870563219E+03 -0.10458896775E+04  0.11839083872E+04  0.17200000000E+03 0.  1.
</event>
<event>
 4    1  0.3211568E-002  0.4150848E+03  0.7818608E-02  0.1038678E+00
         -1   -1    0    0    0  501 -0.00000000000E+00  0.00000000000E+00  0.12889035551E+04  0.12889035551E+04  0.00000000000E+00 0.  1.
          1   -1    0    0  502    0  0.00000000000E+00 -0.00000000000E+00 -0.13369705201E+03  0.13369705201E+03  0.00000000000E+00 0. -1.
          6    1    1    2  502    0 -0.34959063604E+03 -0.14317037716E+03  0.56866087218E+03  0.70403874698E+03  0.17200000000E+03 0. -1.
         -6    1    1    2    0  501  0.34959063604E+03  0.14317037716E+03  0.58654563093E+03  0.71856186015E+03  0.17200000000E+03 0.  1.
</event>
<event>
 4    1  0.3211568E-002  0.3534164E+03  0.7818608E-02  0.1061221E+00
          2   -1    0    0  502    0  0.00000000000E+00  0.00000000000E+00  0.40053742412E+04  0.40053742412E+04  0.00000000000E+00 0. -1.
         -2   -1    0    0    0  501 -0.00000000000E+00 -0.00000000000E+00 -0.32673905963E+02  0.32673905963E+02  0.00000000000E+00 0.  1.
          6    1    1    2  502    0 -0.10976242192E+02 -0.30854279937E+03  0.24175086123E+04  0.24432050728E+04  0.17200000000E+03 0. -1.
         -6    1    1    2    0  501  0.10976242192E+02  0.30854279937E+03  0.15551917229E+04  0.15948430744E+04  0.17200000000E+03 0.  1.
</event>
<event>
 4    1  0.3211568E-002  0.2618760E+03  0.7818608E-02  0.1106021E+00
          2   -1    0    0  502    0  0.00000000000E+00  0.00000000000E+00  0.73143337394E+03  0.73143337394E+03  0.00000000000E+00 0. -1.
         -2   -1    0    0    0  501 -0.00000000000E+00 -0.00000000000E+00 -0.97086175039E+02  0.97086175039E+02  0.00000000000E+00 0.  1.
          6    1    1    2  502    0  0.19107349772E+03  0.49859218334E+02  0.39385354362E+03  0.47296895987E+03  0.17200000000E+03 0. -1.
         -6    1    1    2    0  501 -0.19107349772E+03 -0.49859218334E+02  0.24049365529E+03  0.35555058911E+03  0.17200000000E+03 0.  1.
</event>
