<event>
 4    1  0.5714562E+000  0.1751748E+03  0.7818608E-02  0.1172556E+00
         21   -1    0    0  503  502  0.00000000000E+00  0.00000000000E+00  0.63524240042E+02  0.63524240042E+02  0.00000000000E+00 0. -1.
         21   -1    0    0  501  503 -0.00000000000E+00 -0.00000000000E+00 -0.10401609059E+04  0.10401609059E+04  0.00000000000E+00 0. -1.
          6    1    1    2  501    0 -0.30975759309E+02 -0.11946182046E+02 -0.89217820918E+03  0.90921293759E+03  0.17200000000E+03 0. -1.
         -6    1    1    2    0  502  0.30975759309E+02  0.11946182046E+02 -0.84458456723E+02  0.19447220841E+03  0.17200000000E+03 0. -1.
</event>
<event>
 4    1  0.5714562E+000  0.1831460E+03  0.7818608E-02  0.1164793E+00
         21   -1    0    0  501  502  0.00000000000E+00  0.00000000000E+00  0.51727819757E+03  0.51727819757E+03  0.00000000000E+00 0. -1.
         21   -1    0    0  502  503 -0.00000000000E+00 -0.00000000000E+00 -0.14363583650E+03  0.14363583650E+03  0.00000000000E+00 0. -1.
          6    1    1    2  501    0 -0.62874620799E+02 -0.22905668825E+01  0.43157178588E+03  0.46882477644E+03  0.17200000000E+03 0. -1.
         -6    1    1    2    0  503  0.62874620799E+02  0.22905668825E+01 -0.57929424806E+02  0.19208925763E+03  0.17200000000E+03 0. -1.
</event>
<event>
 4    1  0.5714562E+000  0.2298505E+03  0.7818608E-02  0.1126745E+00
         21   -1    0    0  503  502  0.00000000000E+00  0.00000000000E+00  0.38519990718E+02  0.38519990718E+02  0.00000000000E+00 0. -1.
         21   -1    0    0  501  503 -0.00000000000E+00 -0.00000000000E+00 -0.13715315465E+04  0.13715315465E+04  0.00000000000E+00 0.  1.
          6    1    1    2  501    0 -0.80436435495E+02 -0.12952687792E+03 -0.66769445857E+03  0.70614950419E+03  0.17200000000E+03 0. -1.
         -6    1    1    2    0  502  0.80436435495E+02  0.12952687792E+03 -0.66531709719E+03  0.70390203301E+03  0.17200000000E+03 0. -1.
</event>
<event>
 4    1  0.5714562E+000  0.2473101E+03  0.7818608E-02  0.1115017E+00
         21   -1    0    0  503  502  0.00000000000E+00  0.00000000000E+00  0.21271853272E+04  0.21271853272E+04  0.00000000000E+00 0.  1.
         21   -1    0    0  501  503 -0.00000000000E+00 -0.00000000000E+00 -0.61682140833E+02  0.61682140833E+02  0.00000000000E+00 0.  1.
          6    1    1    2  501    0  0.17764797902E+03  0.44127395524E+01  0.23309767655E+03  0.33984820660E+03  0.17200000000E+03 0.  1.
         -6    1    1    2    0  502 -0.17764797902E+03 -0.44127395524E+01  0.18324055099E+04  0.18490192615E+04  0.17200000000E+03 0.  1.
</event>
<event>
 4    1  0.5714562E+000  0.1902189E+03  0.7818608E-02  0.1158264E+00
         21   -1    0    0  503  502  0.00000000000E+00  0.00000000000E+00  0.44348741544E+03  0.44348741544E+03  0.00000000000E+00 0. -1.
         21   -1    0    0  501  503 -0.00000000000E+00 -0.00000000000E+00 -0.81651593847E+02  0.81651593847E+02  0.00000000000E+00 0.  1.
          6    1    1    2  501    0  0.73783578371E+02 -0.33988433285E+02  0.18824839722E+03  0.26762041979E+03  0.17200000000E+03 0. -1.
         -6    1    1    2    0  502 -0.73783578371E+02  0.33988433285E+02  0.17358742438E+03  0.25751858950E+03  0.17200000000E+03 0.  1.
</event>
<event>
 4    1  0.5714562E+000  0.2050262E+03  0.7818608E-02  0.1145566E+00
         21   -1    0    0  501  502  0.00000000000E+00  0.00000000000E+00  0.53445460001E+03  0.53445460001E+03  0.00000000000E+00 0. -1.
         21   -1    0    0  502  503 -0.00000000000E+00 -0.00000000000E+00 -0.41084838444E+03  0.41084838444E+03  0.00000000000E+00 0. -1.
          6    1    1    2  501    0 -0.89088695593E+02  0.67193418511E+02  0.48681188847E+03  0.52822491983E+03  0.17200000000E+03 0. -1.
         -6    1    1    2    0  503  0.89088695593E+02 -0.67193418511E+02 -0.36320567290E+03  0.41707806463E+03  0.17200000000E+03 0. -1.
</event>
<event>
 4    1  0.5714562E+000  0.2803410E+03  0.7818608E-02  0.1095503E+00
         21   -1    0    0  501  502  0.00000000000E+00  0.00000000000E+00  0.23058735082E+03  0.23058735082E+03  0.00000000000E+00 0.  1.
         21   -1    0    0  502  503 -0.00000000000E+00 -0.00000000000E+00 -0.65979313383E+03  0.65979313383E+03  0.00000000000E+00 0. -1.
          6    1    1    2  501    0 -0.67793418074E+02  0.21073954219E+03  0.94933660382E+02  0.29597888784E+03  0.17200000000E+03 0.  1.
         -6    1    1    2    0  503  0.67793418074E+02 -0.21073954219E+03 -0.52413944339E+03  0.59440159681E+03  0.17200000000E+03 0. -1.
</event>
<event>
 4    1  0.5714562E+000  0.1827917E+03  0.7818608E-02  0.1165128E+00
         21   -1    0    0  501  502  0.00000000000E+00  0.00000000000E+00  0.62956489138E+03  0.62956489138E+03  0.00000000000E+00 0. -1.
         21   -1    0    0  502  503 -0.00000000000E+00 -0.00000000000E+00 -0.56894895553E+02  0.56894895553E+02  0.00000000000E+00 0. -1.
          6    1    1    2  501    0  0.53972850555E+02 -0.30260943163E+02  0.37529550794E+03  0.41744402207E+03  0.17200000000E+03 0. -1.
         -6    1    1    2    0  503 -0.53972850555E+02  0.30260943163E+02  0.19737448788E+03  0.26901576486E+03  0.17200000000E+03 0. -1.
</event>
<event>
 4    1  0.5714562E+000  0.1991415E+03  0.7818608E-02  0.1150465E+00
         21   -1    0    0  501  502  0.00000000000E+00  0.00000000000E+00  0.11233437072E+03  0.11233437072E+03  0.00000000000E+00 0. -1.
         21   -1    0    0  502  503 -0.00000000000E+00 -0.00000000000E+00 -0.38508638412E+03  0.38508638412E+03  0.00000000000E+00 0. -1.
          6    1    1    2  501    0 -0.98100811995E+02  0.21202722207E+02 -0.20813507716E+03  0.28805821475E+03  0.17200000000E+03 0. -1.
         -6    1    1    2    0  503  0.98100811995E+02 -0.21202722207E+02 -0.64616936242E+02  0.20936254009E+03  0.17200000000E+03 0. -1.
</event>
<event>
 4    1  0.5714562E+000  0.2049588E+03  0.7818608E-02  0.1145621E+00
         21   -1    0    0  501  502  0.00000000000E+00  0.00000000000E+00  0.26850725412E+03  0.26850725412E+03  0.00000000000E+00 0. -1.
         21   -1    0    0  502  503 -0.00000000000E+00 -0.00000000000E+00 -0.22793983545E+03  0.22793983545E+03  0.00000000000E+00 0. -1.
          6    1    1    2  501    0  0.10978803903E+03 -0.19253819454E+02  0.15929598758E+03  0.25958300163E+03  0.17200000000E+03 0. -1.
         -6    1    1    2    0  503 -0.10978803903E+03  0.19253819454E+02 -0.11872856891E+03  0.23686408793E+03  0.17200000000E+03 0. -1.
</event>
<event>
 4    1  0.5714562E+000  0.2972701E+03  0.7818608E-02  0.1086613E+00
         21   -1    0    0  503  502  0.00000000000E+00  0.00000000000E+00  0.77269717113E+02  0.77269717113E+02  0.00000000000E+00 0.  1.
         21   -1    0    0  501  503 -0.00000000000E+00 -0.00000000000E+00 -0.14132903850E+04  0.14132903850E+04  0.00000000000E+00 0. -1.
          6    1    1    2  501    0  0.11949419216E+03  0.21096601244E+03 -0.99354420026E+03  0.10370629673E+04  0.17200000000E+03 0. -1.
         -6    1    1    2    0  502 -0.11949419216E+03 -0.21096601244E+03 -0.34247646763E+03  0.45349713477E+03  0.17200000000E+03 0.  1.
</event>
<event>
 4    1  0.5714562E+000  0.1861998E+03  0.7818608E-02  0.1161934E+00
         21   -1    0    0  501  502  0.00000000000E+00  0.00000000000E+00  0.79522625169E+03  0.79522625169E+03  0.00000000000E+00 0.  1.
         21   -1    0    0  502  503 -0.00000000000E+00 -0.00000000000E+00 -0.49338805991E+02  0.49338805991E+02  0.00000000000E+00 0. -1.
          6    1    1    2  501    0 -0.55302174600E+02 -0.45033787995E+02  0.22890125679E+03  0.29506975097E+03  0.17200000000E+03 0. -1.
         -6    1    1    2    0  503  0.55302174600E+02  0.45033787995E+02  0.51698618891E+03  0.54949530671E+03  0.17200000000E+03 0.  1.
</event>
<event>
 4    1  0.5714562E+000  0.2385652E+03  0.7818608E-02  0.1120752E+00
         21   -1    0    0  501  502  0.00000000000E+00  0.00000000000E+00  0.81180485762E+03  0.81180485762E+03  0.00000000000E+00 0.  1.
         21   -1    0    0  502  503 -0.00000000000E+00 -0.00000000000E+00 -0.70110877134E+02  0.70110877134E+02  0.00000000000E+00 0.  1.
          6    1    1    2  501    0 -0.64012134413E+02  0.15241984804E+03  0.36765243307E+03  0.43827123448E+03  0.17200000000E+03 0.  1.
         -6    1    1    2    0  503  0.64012134413E+02 -0.15241984804E+03  0.37404154742E+03  0.44364450027E+03  0.17200000000E+03 0.  1.
</event>
<event>
 4    1  0.5714562E+000  0.1860031E+03  0.7818608E-02  0.1162116E+00
         21   -1    0    0  503  502  0.00000000000E+00  0.00000000000E+00  0.18882200214E+03  0.18882200214E+03  0.00000000000E+00 0. -1.
         21   -1    0    0  501  503 -0.00000000000E+00 -0.00000000000E+00 -0.38013864378E+03  0.38013864378E+03  0.00000000000E+00 0. -1.
          6    1    1    2  501    0  0.69036709787E+02  0.15719207558E+02 -0.30040537847E+03  0.35332782539E+03  0.17200000000E+03 0. -1.
         -6    1    1    2    0  502 -0.69036709787E+02 -0.15719207558E+02  0.10908873683E+03  0.21563282053E+03  0.17200000000E+03 0. -1.
</event>
<event>
 4    1  0.5714562E+000  0.1823834E+03  0.7818608E-02  0.1165516E+00
         21   -1    0    0  501  502  0.00000000000E+00  0.00000000000E+00  0.16465022285E+03  0.16465022285E+03  0.00000000000E+00 0.  1.
         21   -1    0    0  502  503 -0.00000000000E+00 -0.00000000000E+00 -0.20418198943E+03  0.20418198943E+03  0.00000000000E+00 0.  1.
          6    1    1    2  501    0 -0.81687555890E+01 -0.60107905132E+02 -0.81737773871E+00  0.18238518836E+03  0.17200000000E+03 0.  1.
         -6    1    1    2    0  503  0.81687555890E+01  0.60107905132E+02 -0.38714388840E+02  0.18644702392E+03  0.17200000000E+03 0.  1.
</event>
<event>
 4    1  0.5714562E+000  0.2879453E+03  0.7818608E-02  0.1091427E+00
         21   -1    0    0  501  502  0.00000000000E+00  0.00000000000E+00  0.13837056783E+04  0.13837056783E+04  0.00000000000E+00 0.  1.
         21   -1    0    0  502  503 -0.00000000000E+00 -0.00000000000E+00 -0.11889314451E+04  0.11889314451E+04  0.00000000000E+00 0.  1.
          6    1    1    2  501    0  0.28774614809E+02  0.22912989235E+03  0.13508722431E+04  0.13812198605E+04  0.17200000000E+03 0.  1.
         -6    1    1    2    0  503 -0.28774614809E+02 -0.22912989235E+03 -0.11560980099E+04  0.11914172630E+04  0.17200000000E+03 0.  1.
</event>
<event>
 4    1  0.5714562E+000  0.2283078E+03  0.7818608E-02  0.1127836E+00
         21   -1    0    0  501  502  0.00000000000E+00  0.00000000000E+00  0.61308694858E+03  0.61308694858E+03  0.00000000000E+00 0.  1.
         21   -1    0    0  502  503 -0.00000000000E+00 -0.00000000000E+00 -0.92723674198E+02  0.92723674198E+02  0.00000000000E+00 0. -1.
          6    1    1    2  501    0 -0.61176553489E+02 -0.13710542305E+03  0.15845836516E+03  0.27790919599E+03  0.17200000000E+03 0. -1.
         -6    1    1    2    0  503  0.61176553489E+02  0.13710542305E+03  0.36190490922E+03  0.42790142678E+03  0.17200000000E+03 0.  1.
</event>
<event>
 4    1  0.5714562E+000  0.2292812E+03  0.7818608E-02  0.1127147E+00
         21   -1    0    0  503  502  0.00000000000E+00  0.00000000000E+00  0.63885020311E+03  0.63885020311E+03  0.00000000000E+00 0.  1.
         21   -1    0    0  501  503 -0.00000000000E+00 -0.00000000000E+00 -0.11041889372E+03  0.11041889372E+03  0.00000000000E+00 0. -1.
          6    1    1    2  501    0 -0.75857548166E+02  0.13126887787E+03  0.75122540433E+02  0.24127428788E+03  0.17200000000E+03 0. -1.
         -6    1    1    2    0  502  0.75857548166E+02 -0.13126887787E+03  0.45330876895E+03  0.50799480895E+03  0.17200000000E+03 0.  1.
</event>
<event>
 4    1  0.5714562E+000  0.2144774E+03  0.7818608E-02  0.1138069E+00
         21   -1    0    0  501  502  0.00000000000E+00  0.00000000000E+00  0.95131060448E+02  0.95131060448E+02  0.00000000000E+00 0.  1.
         21   -1    0    0  502  503 -0.00000000000E+00 -0.00000000000E+00 -0.62350703269E+03  0.62350703269E+03  0.00000000000E+00 0.  1.
          6    1    1    2  501    0  0.74593955781E+02 -0.10417433615E+03 -0.93949352053E+02  0.23415172710E+03  0.17200000000E+03 0.  1.
         -6    1    1    2    0  503 -0.74593955781E+02  0.10417433615E+03 -0.43442662019E+03  0.48448636604E+03  0.17200000000E+03 0.  1.
</event>
<event>
 4    1  0.5714562E+000  0.1734717E+03  0.7818608E-02  0.1174275E+00
         21   -1    0    0  503  502  0.00000000000E+00  0.00000000000E+00  0.25009724004E+03  0.25009724004E+03  0.00000000000E+00 0.  1.
         21   -1    0    0  501  503 -0.00000000000E+00 -0.00000000000E+00 -0.13459232091E+03  0.13459232091E+03  0.00000000000E+00 0.  1.
          6    1    1    2  501    0  0.66826783186E+01  0.21535207530E+02  0.12038118185E+03  0.21114936016E+03  0.17200000000E+03 0.  1.
         -6    1    1    2    0  502 -0.66826783186E+01 -0.21535207530E+02 -0.48762627215E+01  0.17354020079E+03  0.17200000000E+03 0.  1.
</event>
<event>
 4    1  0.5714562E+000  0.1862938E+03  0.7818608E-02  0.1161847E+00
         21   -1    0    0  503  502  0.00000000000E+00  0.00000000000E+00  0.32240095136E+03  0.32240095136E+03  0.00000000000E+00 0. -1.
         21   -1    0    0  501  503 -0.00000000000E+00 -0.00000000000E+00 -0.29435657980E+03  0.29435657980E+03  0.00000000000E+00 0. -1.
          6    1    1    2  501    0 -0.63714149131E+02 -0.32586669265E+02 -0.23157947217E+03  0.29721109627E+03  0.17200000000E+03 0. -1.
         -6    1    1    2    0  502  0.63714149131E+02  0.32586669265E+02  0.25962384374E+03  0.31954643489E+03  0.17200000000E+03 0. -1.
</event>
<event>
 4    1  0.5714562E+000  0.1908047E+03  0.7818608E-02  0.1157738E+00
         21   -1    0    0  501  502  0.00000000000E+00  0.00000000000E+00  0.37523916551E+03  0.37523916551E+03  0.00000000000E+00 0.  1.
         21   -1    0    0  502  503 -0.00000000000E+00 -0.00000000000E+00 -0.15424940857E+03  0.15424940857E+03  0.00000000000E+00 0. -1.
          6    1    1    2  501    0 -0.60666822947E+02  0.56053438907E+02  0.27175126091E+03  0.33204698346E+03  0.17200000000E+03 0.  1.
         -6    1    1    2    0  503  0.60666822947E+02 -0.56053438907E+02 -0.50761503978E+02  0.19744159062E+03  0.17200000000E+03 0. -1.
</event>
<event>
 4    1  0.5714562E+000  0.1987839E+03  0.7818608E-02  0.1150769E+00
         21   -1    0    0  503  502  0.00000000000E+00  0.00000000000E+00  0.42387862245E+02  0.42387862245E+02  0.00000000000E+00 0.  1.
         21   -1    0    0  501  503 -0.00000000000E+00 -0.00000000000E+00 -0.95531954311E+03  0.95531954311E+03  0.00000000000E+00 0.  1.
          6    1    1    2  501    0  0.99146027990E+02 -0.10054124816E+02 -0.53402883613E+03  0.56982612972E+03  0.17200000000E+03 0.  1.
         -6    1    1    2    0  502 -0.99146027990E+02  0.10054124816E+02 -0.37890284474E+03  0.42788127564E+03  0.17200000000E+03 0.  1.
</event>
<event>
 4    1  0.5714562E+000  0.1940269E+03  0.7818608E-02  0.1154879E+00
         21   -1    0    0  503  502  0.00000000000E+00  0.00000000000E+00  0.66521030315E+02  0.66521030315E+02  0.00000000000E+00 0.  1.
         21   -1    0    0  501  503 -0.00000000000E+00 -0.00000000000E+00 -0.67436897109E+03  0.67436897109E+03  0.00000000000E+00 0.  1.
          6    1    1    2  501    0 -0.73244868220E+02 -0.51938863014E+02 -0.45247009809E+03  0.49231661142E+03  0.17200000000E+03 0.  1.
         -6    1    1    2    0  502  0.73244868220E+02  0.51938863014E+02 -0.15537784268E+03  0.24857338998E+03  0.17200000000E+03 0.  1.
</event>
<event>
 4    1  0.5714562E+000  0.1745429E+03  0.7818608E-02  0.1173191E+00
         21   -1    0    0  503  502  0.00000000000E+00  0.00000000000E+00  0.18218058379E+03  0.18218058379E+03  0.00000000000E+00 0. -1.
         21   -1    0    0  501  503 -0.00000000000E+00 -0.00000000000E+00 -0.17327263945E+03  0.17327263945E+03  0.00000000000E+00 0. -1.
          6    1    1    2  501    0  0.17432742222E+02 -0.24027755579E+02 -0.28747976661E+02  0.17689454401E+03  0.17200000000E+03 0. -1.
         -6    1    1    2    0  502 -0.17432742222E+02  0.24027755579E+02  0.37655921000E+02  0.17855867922E+03  0.17200000000E+03 0. -1.
</event>
<event>
 4    1  0.5714562E+000  0.1992758E+03  0.7818608E-02  0.1150351E+00
         21   -1    0    0  501  502  0.00000000000E+00  0.00000000000E+00  0.17840666223E+03  0.17840666223E+03  0.00000000000E+00 0. -1.
         21   -1    0    0  502  503 -0.00000000000E+00 -0.00000000000E+00 -0.72940278406E+03  0.72940278406E+03  0.00000000000E+00 0. -1.
          6    1    1    2  501    0 -0.98556230022E+02 -0.20334855485E+02  0.10286302245E+03  0.22425797246E+03  0.17200000000E+03 0. -1.
         -6    1    1    2    0  503  0.98556230022E+02  0.20334855485E+02 -0.65385914428E+03  0.68355147383E+03  0.17200000000E+03 0. -1.
</event>
<event>
 4    1  0.5714562E+000  0.1795700E+03  0.7818608E-02  0.1168220E+00
         21   -1    0    0  501  502  0.00000000000E+00  0.00000000000E+00  0.95933466512E+02  0.95933466512E+02  0.00000000000E+00 0. -1.
         21   -1    0    0  502  503 -0.00000000000E+00 -0.00000000000E+00 -0.34632934560E+03  0.34632934560E+03  0.00000000000E+00 0. -1.
          6    1    1    2  501    0  0.21574795481E+01  0.51543503460E+02 -0.87235546726E+02  0.19963824303E+03  0.17200000000E+03 0. -1.
         -6    1    1    2    0  503 -0.21574795481E+01 -0.51543503460E+02 -0.16316033236E+03  0.24262456909E+03  0.17200000000E+03 0. -1.
</event>
<event>
 4    1  0.5714562E+000  0.2257686E+03  0.7818608E-02  0.1129654E+00
         21   -1    0    0  503  502  0.00000000000E+00  0.00000000000E+00  0.27429567030E+03  0.27429567030E+03  0.00000000000E+00 0. -1.
         21   -1    0    0  501  503 -0.00000000000E+00 -0.00000000000E+00 -0.30299673154E+03  0.30299673154E+03  0.00000000000E+00 0. -1.
          6    1    1    2  501    0 -0.13931306945E+03  0.44489640591E+02 -0.19384668397E+03  0.29757015362E+03  0.17200000000E+03 0. -1.
         -6    1    1    2    0  502  0.13931306945E+03 -0.44489640591E+02  0.16514562274E+03  0.27972224822E+03  0.17200000000E+03 0. -1.
</event>
<event>
 4    1  0.5714562E+000  0.1982078E+03  0.7818608E-02  0.1151260E+00
         21   -1    0    0  501  502  0.00000000000E+00  0.00000000000E+00  0.27399588122E+04  0.27399588122E+04  0.00000000000E+00 0.  1.
         21   -1    0    0  502  503 -0.00000000000E+00 -0.00000000000E+00 -0.17372551565E+02  0.17372551565E+02  0.00000000000E+00 0.  1.
          6    1    1    2  501    0  0.32042586941E+01 -0.98448366296E+02  0.19374663119E+04  0.19475785114E+04  0.17200000000E+03 0.  1.
         -6    1    1    2    0  503 -0.32042586941E+01  0.98448366296E+02  0.78511994864E+03  0.80975285233E+03  0.17200000000E+03 0.  1.
</event>
<event>
 4    1  0.5714562E+000  0.1766530E+03  0.7818608E-02  0.1171082E+00
         21   -1    0    0  503  502  0.00000000000E+00  0.00000000000E+00  0.46853070401E+02  0.46853070401E+02  0.00000000000E+00 0. -1.
         21   -1    0    0  501  503 -0.00000000000E+00 -0.00000000000E+00 -0.76802929411E+03  0.76802929411E+03  0.00000000000E+00 0. -1.
          6    1    1    2  501    0 -0.97597691445E+01 -0.39077140183E+02 -0.50905911612E+03  0.53883899236E+03  0.17200000000E+03 0. -1.
         -6    1    1    2    0  502  0.97597691445E+01  0.39077140183E+02 -0.21211710759E+03  0.27604337215E+03  0.17200000000E+03 0. -1.
</event>
<event>
 4    1  0.5714562E+000  0.1937556E+03  0.7818608E-02  0.1155117E+00
         21   -1    0    0  503  502  0.00000000000E+00  0.00000000000E+00  0.31261782620E+03  0.31261782620E+03  0.00000000000E+00 0.  1.
         21   -1    0    0  501  503 -0.00000000000E+00 -0.00000000000E+00 -0.14907111091E+03  0.14907111091E+03  0.00000000000E+00 0. -1.
          6    1    1    2  501    0 -0.78495919127E+02 -0.42374871818E+02 -0.20016630583E+02  0.19478681829E+03  0.17200000000E+03 0.  1.
         -6    1    1    2    0  502  0.78495919127E+02  0.42374871818E+02  0.18356334588E+03  0.26690211882E+03  0.17200000000E+03 0.  1.
</event>
<event>
 4    1  0.5714562E+000  0.2388830E+03  0.7818608E-02  0.1120539E+00
         21   -1    0    0  503  502  0.00000000000E+00  0.00000000000E+00  0.52559080111E+03  0.52559080111E+03  0.00000000000E+00 0. -1.
         21   -1    0    0  501  503 -0.00000000000E+00 -0.00000000000E+00 -0.23986210984E+03  0.23986210984E+03  0.00000000000E+00 0. -1.
          6    1    1    2  501    0 -0.67102280527E+02 -0.15158626144E+03 -0.14028891549E+03  0.27703084759E+03  0.17200000000E+03 0. -1.
         -6    1    1    2    0  502  0.67102280527E+02  0.15158626144E+03  0.42601760676E+03  0.48842206336E+03  0.17200000000E+03 0. -1.
</event>
<event>
 4    1  0.5714562E+000  0.1838139E+03  0.7818608E-02  0.1164162E+00
         21   -1    0    0  503  502  0.00000000000E+00  0.00000000000E+00  0.46119638456E+03  0.46119638456E+03  0.00000000000E+00 0.  1.
         21   -1    0    0  501  503 -0.00000000000E+00 -0.00000000000E+00 -0.26652269344E+03  0.26652269344E+03  0.00000000000E+00 0.  1.
          6    1    1    2  501    0 -0.17935217045E+02 -0.62304767348E+02 -0.21250489917E+03  0.28097310942E+03  0.17200000000E+03 0.  1.
         -6    1    1    2    0  502  0.17935217045E+02  0.62304767348E+02  0.40717859030E+03  0.44674596858E+03  0.17200000000E+03 0.  1.
</event>
<event>
 4    1  0.5714562E+000  0.2101978E+03  0.7818608E-02  0.1141409E+00
         21   -1    0    0  503  502  0.00000000000E+00  0.00000000000E+00  0.18632535087E+03  0.18632535087E+03  0.00000000000E+00 0. -1.
         21   -1    0    0  501  503 -0.00000000000E+00 -0.00000000000E+00 -0.50149547370E+03  0.50149547370E+03  0.00000000000E+00 0. -1.
          6    1    1    2  501    0  0.88279655118E+02 -0.82497439638E+02 -0.40728307598E+03  0.45832589828E+03  0.17200000000E+03 0. -1.
         -6    1    1    2    0  502 -0.88279655118E+02  0.82497439638E+02  0.92112953147E+02  0.22949492629E+03  0.17200000000E+03 0. -1.
</event>
<event>
 4    1  0.5714562E+000  0.2675028E+03  0.7818608E-02  0.1102717E+00
         21   -1    0    0  503  502  0.00000000000E+00  0.00000000000E+00  0.15932379062E+03  0.15932379062E+03  0.00000000000E+00 0.  1.
         21   -1    0    0  501  503 -0.00000000000E+00 -0.00000000000E+00 -0.45192739102E+03  0.45192739102E+03  0.00000000000E+00 0.  1.
          6    1    1    2  501    0  0.19870830276E+03  0.49887351284E+02 -0.17032983817E+03  0.31712772060E+03  0.17200000000E+03 0.  1.
         -6    1    1    2    0  502 -0.19870830276E+03 -0.49887351284E+02 -0.12227376223E+03  0.29412346104E+03  0.17200000000E+03 0.  1.
</event>
<event>
 4    1  0.5714562E+000  0.2244940E+03  0.7818608E-02  0.1130576E+00
         21   -1    0    0  501  502  0.00000000000E+00  0.00000000000E+00  0.14409747823E+04  0.14409747823E+04  0.00000000000E+00 0.  1.
         21   -1    0    0  502  503 -0.00000000000E+00 -0.00000000000E+00 -0.42586450470E+02  0.42586450470E+02  0.00000000000E+00 0.  1.
          6    1    1    2  501    0 -0.20597167408E+02  0.14279110915E+03  0.10128001475E+04  0.10373821296E+04  0.17200000000E+03 0.  1.
         -6    1    1    2    0  503  0.20597167408E+02 -0.14279110915E+03  0.38558818433E+03  0.44617910311E+03  0.17200000000E+03 0.  1.
</event>
<event>
 4    1  0.5714562E+000  0.1927743E+03  0.7818608E-02  0.1155983E+00
         21   -1    0    0  501  502  0.00000000000E+00  0.00000000000E+00  0.28750388200E+03  0.28750388200E+03  0.00000000000E+00 0.  1.
         21   -1    0    0  502  503 -0.00000000000E+00 -0.00000000000E+00 -0.17228579708E+03  0.17228579708E+03  0.00000000000E+00 0. -1.
          6    1    1    2  501    0  0.40786079374E+02 -0.76905421867E+02  0.17249926033E+03  0.25868502662E+03  0.17200000000E+03 0.  1.
         -6    1    1    2    0  503 -0.40786079374E+02  0.76905421867E+02 -0.57281175408E+02  0.20110465246E+03  0.17200000000E+03 0. -1.
</event>
<event>
 4    1  0.5714562E+000  0.1978398E+03  0.7818608E-02  0.1151575E+00
         21   -1    0    0  503  502  0.00000000000E+00  0.00000000000E+00  0.71240384336E+03  0.71240384336E+03  0.00000000000E+00 0. -1.
         21   -1    0    0  501  503 -0.00000000000E+00 -0.00000000000E+00 -0.59022381618E+02  0.59022381618E+02  0.00000000000E+00 0. -1.
          6    1    1    2  501    0  0.29512764515E+02 -0.93196401895E+02  0.22526917113E+03  0.29981122737E+03  0.17200000000E+03 0. -1.
         -6    1    1    2    0  502 -0.29512764515E+02  0.93196401895E+02  0.42811229061E+03  0.47161499761E+03  0.17200000000E+03 0. -1.
</event>
<event>
 4    1  0.5714562E+000  0.2041144E+03  0.7818608E-02  0.1146313E+00
         21   -1    0    0  501  502  0.00000000000E+00  0.00000000000E+00  0.16417674431E+03  0.16417674431E+03  0.00000000000E+00 0. -1.
         21   -1    0    0  502  503 -0.00000000000E+00 -0.00000000000E+00 -0.25655750842E+03  0.25655750842E+03  0.00000000000E+00 0.  1.
          6    1    1    2  501    0 -0.10336802715E+03 -0.37333049206E+02 -0.24252433025E+02  0.20555020338E+03  0.17200000000E+03 0.  1.
         -6    1    1    2    0  503  0.10336802715E+03  0.37333049206E+02 -0.68128331088E+02  0.21518404936E+03  0.17200000000E+03 0. -1.
</event>
<event>
 4    1  0.5714562E+000  0.1848719E+03  0.7818608E-02  0.1163170E+00
         21   -1    0    0  503  502  0.00000000000E+00  0.00000000000E+00  0.10805785528E+04  0.10805785528E+04  0.00000000000E+00 0. -1.
         21   -1    0    0  501  503 -0.00000000000E+00 -0.00000000000E+00 -0.43587511878E+02  0.43587511878E+02  0.00000000000E+00 0. -1.
          6    1    1    2  501    0 -0.67513734384E+02  0.59603741219E+01  0.22408195618E+03  0.29050017810E+03  0.17200000000E+03 0. -1.
         -6    1    1    2    0  502  0.67513734384E+02 -0.59603741219E+01  0.81290908475E+03  0.83366588659E+03  0.17200000000E+03 0. -1.
</event>
<event>
 4    1  0.5714562E+000  0.2449655E+03  0.7818608E-02  0.1116528E+00
         21   -1    0    0  501  502  0.00000000000E+00  0.00000000000E+00  0.22344502302E+03  0.22344502302E+03  0.00000000000E+00 0.  1.
         21   -1    0    0  502  503 -0.00000000000E+00 -0.00000000000E+00 -0.26917407422E+03  0.26917407422E+03  0.00000000000E+00 0. -1.
          6    1    1    2  501    0 -0.14506476156E+03  0.96852010742E+02 -0.34641852061E+02  0.24740281920E+03  0.17200000000E+03 0.  1.
         -6    1    1    2    0  503  0.14506476156E+03 -0.96852010742E+02 -0.11087199136E+02  0.24521627804E+03  0.17200000000E+03 0.  1.
</event>
<event>
 4    1  0.5714562E+000  0.1829051E+03  0.7818608E-02  0.1165021E+00
         21   -1    0    0  501  502  0.00000000000E+00  0.00000000000E+00  0.98590267260E+02  0.98590267260E+02  0.00000000000E+00 0. -1.
         21   -1    0    0  502  503 -0.00000000000E+00 -0.00000000000E+00 -0.63169517445E+03  0.63169517445E+03  0.00000000000E+00 0. -1.
          6    1    1    2  501    0 -0.32320337769E+02  0.53157077103E+02 -0.18139423795E+02  0.18380238784E+03  0.17200000000E+03 0. -1.
         -6    1    1    2    0  503  0.32320337769E+02 -0.53157077103E+02 -0.51496548340E+03  0.54648305387E+03  0.17200000000E+03 0. -1.
</event>
<event>
 4    1  0.5714562E+000  0.1963964E+03  0.7818608E-02  0.1152815E+00
         21   -1    0    0  501  502  0.00000000000E+00  0.00000000000E+00  0.24596683647E+03  0.24596683647E+03  0.00000000000E+00 0.  1.
         21   -1    0    0  502  503 -0.00000000000E+00 -0.00000000000E+00 -0.26737697743E+03  0.26737697743E+03  0.00000000000E+00 0.  1.
          6    1    1    2  501    0 -0.71895977375E+02 -0.61794222560E+02  0.15434552325E+03  0.24978810630E+03  0.17200000000E+03 0.  1.
         -6    1    1    2    0  503  0.71895977375E+02  0.61794222560E+02 -0.17575566421E+03  0.26355570760E+03  0.17200000000E+03 0.  1.
</event>
<event>
 4    1  0.5714562E+000  0.1983483E+03  0.7818608E-02  0.1151140E+00
         21   -1    0    0  501  502  0.00000000000E+00  0.00000000000E+00  0.54108490944E+03  0.54108490944E+03  0.00000000000E+00 0. -1.
         21   -1    0    0  502  503 -0.00000000000E+00 -0.00000000000E+00 -0.75728664758E+02  0.75728664758E+02  0.00000000000E+00 0. -1.
          6    1    1    2  501    0 -0.31927683863E+02  0.93480784479E+02  0.29425737497E+03  0.35486537840E+03  0.17200000000E+03 0.  1.
         -6    1    1    2    0  503  0.31927683863E+02 -0.93480784479E+02  0.17109886970E+03  0.26194819579E+03  0.17200000000E+03 0.  1.
</event>
<event>
 4    1  0.5714562E+000  0.2235535E+03  0.7818608E-02  0.1131261E+00
         21   -1    0    0  501  502  0.00000000000E+00  0.00000000000E+00  0.11380846144E+04  0.11380846144E+04  0.00000000000E+00 0.  1.
         21   -1    0    0  502  503 -0.00000000000E+00 -0.00000000000E+00 -0.44103925275E+02  0.44103925275E+02  0.00000000000E+00 0.  1.
          6    1    1    2  501    0 -0.73756360014E+02 -0.12227914402E+03  0.58592791484E+03  0.62712655110E+03  0.17200000000E+03 0.  1.
         -6    1    1    2    0  503  0.73756360014E+02  0.12227914402E+03  0.50805277429E+03  0.55506198858E+03  0.17200000000E+03 0.  1.
</event>
<event>
 4    1  0.5714562E+000  0.2369896E+03  0.7818608E-02  0.1121815E+00
         21   -1    0    0  503  502  0.00000000000E+00  0.00000000000E+00  0.33687225497E+02  0.33687225497E+02  0.00000000000E+00 0.  1.
         21   -1    0    0  501  503 -0.00000000000E+00 -0.00000000000E+00 -0.16717254264E+04  0.16717254264E+04  0.00000000000E+00 0. -1.
          6    1    1    2  501    0  0.37118497061E+02  0.15875235615E+03 -0.77476288037E+03  0.81019850297E+03  0.17200000000E+03 0. -1.
         -6    1    1    2    0  502 -0.37118497061E+02 -0.15875235615E+03 -0.86327532049E+03  0.89521414889E+03  0.17200000000E+03 0.  1.
</event>
<event>
 4    1  0.5714562E+000  0.1875414E+03  0.7818608E-02  0.1160698E+00
         21   -1    0    0  501  502  0.00000000000E+00  0.00000000000E+00  0.37396581039E+02  0.37396581039E+02  0.00000000000E+00 0. -1.
         21   -1    0    0  502  503 -0.00000000000E+00 -0.00000000000E+00 -0.94389749127E+03  0.94389749127E+03  0.00000000000E+00 0. -1.
          6    1    1    2  501    0 -0.66955520849E+02 -0.33237746560E+02 -0.42384933559E+03  0.46348683783E+03  0.17200000000E+03 0. -1.
         -6    1    1    2    0  503  0.66955520849E+02  0.33237746560E+02 -0.48265157465E+03  0.51780723448E+03  0.17200000000E+03 0. -1.
</event>
<event>
 4    1  0.5714562E+000  0.2454252E+03  0.7818608E-02  0.1116231E+00
         21   -1    0    0  503  502  0.00000000000E+00  0.00000000000E+00  0.16225716517E+03  0.16225716517E+03  0.00000000000E+00 0. -1.
         21   -1    0    0  501  503 -0.00000000000E+00 -0.00000000000E+00 -0.38185144083E+03  0.38185144083E+03  0.00000000000E+00 0. -1.
          6    1    1    2  501    0  0.17465346401E+03  0.12070463073E+02 -0.15518618875E+03  0.29037266013E+03  0.17200000000E+03 0. -1.
         -6    1    1    2    0  502 -0.17465346401E+03 -0.12070463073E+02 -0.64408086912E+02  0.25373594587E+03  0.17200000000E+03 0. -1.
</event>
<event>
 4    1  0.5714562E+000  0.1901271E+03  0.7818608E-02  0.1158347E+00
         21   -1    0    0  503  502  0.00000000000E+00  0.00000000000E+00  0.13623068669E+03  0.13623068669E+03  0.00000000000E+00 0. -1.
         21   -1    0    0  501  503 -0.00000000000E+00 -0.00000000000E+00 -0.26535038336E+03  0.26535038336E+03  0.00000000000E+00 0. -1.
          6    1    1    2  501    0 -0.66566400538E+02 -0.46186834276E+02 -0.65347032461E+02  0.20104363704E+03  0.17200000000E+03 0. -1.
         -6    1    1    2    0  502  0.66566400538E+02  0.46186834276E+02 -0.63772664202E+02  0.20053743302E+03  0.17200000000E+03 0. -1.
</event>
<event>
 4    1  0.5714562E+000  0.2529650E+03  0.7818608E-02  0.1111445E+00
         21   -1    0    0  503  502  0.00000000000E+00  0.00000000000E+00  0.31249807691E+03  0.31249807691E+03  0.00000000000E+00 0.  1.
         21   -1    0    0  501  503 -0.00000000000E+00 -0.00000000000E+00 -0.21755286036E+03  0.21755286036E+03  0.00000000000E+00 0. -1.
          6    1    1    2  501    0 -0.16831216253E+03 -0.77963443539E+02 -0.16760963849E+02  0.25351964913E+03  0.17200000000E+03 0. -1.
         -6    1    1    2    0  502  0.16831216253E+03  0.77963443539E+02  0.11170618040E+03  0.27653128815E+03  0.17200000000E+03 0.  1.
</event>
<event>
 4    1  0.5714562E+000  0.1735837E+03  0.7818608E-02  0.1174161E+00
         21   -1    0    0  503  502  0.00000000000E+00  0.00000000000E+00  0.42703079282E+02  0.42703079282E+02  0.00000000000E+00 0.  1.
         21   -1    0    0  501  503 -0.00000000000E+00 -0.00000000000E+00 -0.85777072029E+03  0.85777072029E+03  0.00000000000E+00 0.  1.
          6    1    1    2  501    0 -0.12807975174E+02 -0.19577364568E+02 -0.59716956438E+03  0.62188648969E+03  0.17200000000E+03 0.  1.
         -6    1    1    2    0  502  0.12807975174E+02  0.19577364568E+02 -0.21789807663E+03  0.27858730989E+03  0.17200000000E+03 0.  1.
</event>
<event>
 4    1  0.5714562E+000  0.2157570E+03  0.7818608E-02  0.1137086E+00
         21   -1    0    0  501  502  0.00000000000E+00  0.00000000000E+00  0.54823744402E+02  0.54823744402E+02  0.00000000000E+00 0.  1.
         21   -1    0    0  502  503 -0.00000000000E+00 -0.00000000000E+00 -0.85459224925E+03  0.85459224925E+03  0.00000000000E+00 0.  1.
          6    1    1    2  501    0 -0.30704331475E+02 -0.12658719984E+03 -0.43632267681E+03  0.48675307234E+03  0.17200000000E+03 0. -1.
         -6    1    1    2    0  503  0.30704331475E+02  0.12658719984E+03 -0.36344582804E+03  0.42266292132E+03  0.17200000000E+03 0. -1.
</event>
<event>
 4    1  0.5714562E+000  0.3050857E+03  0.7818608E-02  0.1082726E+00
         21   -1    0    0  503  502  0.00000000000E+00  0.00000000000E+00  0.50961454569E+03  0.50961454569E+03  0.00000000000E+00 0. -1.
         21   -1    0    0  501  503 -0.00000000000E+00 -0.00000000000E+00 -0.18989247226E+03  0.18989247226E+03  0.00000000000E+00 0. -1.
          6    1    1    2  501    0 -0.11798179744E+03 -0.22265122732E+03  0.91520805565E+02  0.31851739576E+03  0.17200000000E+03 0. -1.
         -6    1    1    2    0  502  0.11798179744E+03  0.22265122732E+03  0.22820126787E+03  0.38098962218E+03  0.17200000000E+03 0. -1.
</event>
<event>
 4    1  0.5714562E+000  0.1774181E+03  0.7818608E-02  0.1170325E+00
         21   -1    0    0  501  502  0.00000000000E+00  0.00000000000E+00  0.77896753160E+03  0.77896753160E+03  0.00000000000E+00 0.  1.
         21   -1    0    0  502  503 -0.00000000000E+00 -0.00000000000E+00 -0.43401881219E+02  0.43401881219E+02  0.00000000000E+00 0.  1.
          6    1    1    2  501    0 -0.15099924756E+02 -0.40806592747E+02  0.47576149279E+03  0.50776587495E+03  0.17200000000E+03 0.  1.
         -6    1    1    2    0  503  0.15099924756E+02  0.40806592747E+02  0.25980415759E+03  0.31460353787E+03  0.17200000000E+03 0.  1.
</event>
<event>
 4    1  0.5714562E+000  0.3327933E+03  0.7818608E-02  0.1069908E+00
         21   -1    0    0  503  502  0.00000000000E+00  0.00000000000E+00  0.13755243096E+04  0.13755243096E+04  0.00000000000E+00 0.  1.
         21   -1    0    0  501  503 -0.00000000000E+00 -0.00000000000E+00 -0.12348893639E+03  0.12348893639E+03  0.00000000000E+00 0. -1.
          6    1    1    2  501    0  0.16965399727E+03 -0.22887751108E+03  0.18387734147E+03  0.38021345397E+03  0.17200000000E+03 0. -1.
         -6    1    1    2    0  502 -0.16965399727E+03  0.22887751108E+03  0.10681580317E+04  0.11187997920E+04  0.17200000000E+03 0.  1.
</event>
<event>
 4    1  0.5714562E+000  0.1960112E+03  0.7818608E-02  0.1153149E+00
         21   -1    0    0  501  502  0.00000000000E+00  0.00000000000E+00  0.78089815948E+03  0.78089815948E+03  0.00000000000E+00 0.  1.
         21   -1    0    0  502  503 -0.00000000000E+00 -0.00000000000E+00 -0.62459610134E+02  0.62459610134E+02  0.00000000000E+00 0. -1.
          6    1    1    2  501    0 -0.21387939376E+01  0.93977801751E+02  0.16493254099E+03  0.25617014802E+03  0.17200000000E+03 0. -1.
         -6    1    1    2    0  503  0.21387939376E+01 -0.93977801751E+02  0.55350600836E+03  0.58718762159E+03  0.17200000000E+03 0.  1.
</event>
<event>
 4    1  0.5714562E+000  0.1811521E+03  0.7818608E-02  0.1166693E+00
         21   -1    0    0  503  502  0.00000000000E+00  0.00000000000E+00  0.68318219462E+02  0.68318219462E+02  0.00000000000E+00 0. -1.
         21   -1    0    0  501  503 -0.00000000000E+00 -0.00000000000E+00 -0.30732590644E+04  0.30732590644E+04  0.00000000000E+00 0. -1.
          6    1    1    2  501    0  0.15103656806E+02  0.54808421486E+02 -0.29452916137E+04  0.29508572946E+04  0.17200000000E+03 0. -1.
         -6    1    1    2    0  502 -0.15103656806E+02 -0.54808421486E+02 -0.59649231269E+02  0.19071998927E+03  0.17200000000E+03 0. -1.
</event>
<event>
 4    1  0.5714562E+000  0.1897817E+03  0.7818608E-02  0.1158658E+00
         21   -1    0    0  503  502  0.00000000000E+00  0.00000000000E+00  0.67413415470E+02  0.67413415470E+02  0.00000000000E+00 0. -1.
         21   -1    0    0  501  503 -0.00000000000E+00 -0.00000000000E+00 -0.11612105610E+04  0.11612105610E+04  0.00000000000E+00 0. -1.
          6    1    1    2  501    0 -0.60863488108E+02 -0.52237293634E+02 -0.99828240569E+03  0.10161618279E+04  0.17200000000E+03 0. -1.
         -6    1    1    2    0  502  0.60863488108E+02  0.52237293634E+02 -0.95514739820E+02  0.21246214852E+03  0.17200000000E+03 0. -1.
</event>
<event>
 4    1  0.5714562E+000  0.2612424E+03  0.7818608E-02  0.1106399E+00
         21   -1    0    0  503  502  0.00000000000E+00  0.00000000000E+00  0.32617927733E+03  0.32617927733E+03  0.00000000000E+00 0. -1.
         21   -1    0    0  501  503 -0.00000000000E+00 -0.00000000000E+00 -0.21630837943E+03  0.21630837943E+03  0.00000000000E+00 0.  1.
          6    1    1    2  501    0 -0.17173406937E+03  0.95765407784E+02  0.10399068181E+03  0.28117906361E+03  0.17200000000E+03 0. -1.
         -6    1    1    2    0  502  0.17173406937E+03 -0.95765407784E+02  0.58802160877E+01  0.26130859315E+03  0.17200000000E+03 0.  1.
</event>
<event>
 4    1  0.5714562E+000  0.2017020E+03  0.7818608E-02  0.1148311E+00
         21   -1    0    0  503  502  0.00000000000E+00  0.00000000000E+00  0.40498164753E+03  0.40498164753E+03  0.00000000000E+00 0. -1.
         21   -1    0    0  501  503 -0.00000000000E+00 -0.00000000000E+00 -0.10638854562E+03  0.10638854562E+03  0.00000000000E+00 0.  1.
          6    1    1    2  501    0 -0.64046055745E+02  0.83652737973E+02  0.88929152811E+02  0.22043609515E+03  0.17200000000E+03 0.  1.
         -6    1    1    2    0  502  0.64046055745E+02 -0.83652737973E+02  0.20966394910E+03  0.29093409800E+03  0.17200000000E+03 0. -1.
</event>
<event>
 4    1  0.5714562E+000  0.1753431E+03  0.7818608E-02  0.1172388E+00
         21   -1    0    0  501  502  0.00000000000E+00  0.00000000000E+00  0.10386694097E+03  0.10386694097E+03  0.00000000000E+00 0.  1.
         21   -1    0    0  502  503 -0.00000000000E+00 -0.00000000000E+00 -0.30914589159E+03  0.30914589159E+03  0.00000000000E+00 0.  1.
          6    1    1    2  501    0 -0.33804745921E+02 -0.42963034020E+01 -0.60064866090E+02  0.18534564254E+03  0.17200000000E+03 0.  1.
         -6    1    1    2    0  503  0.33804745921E+02  0.42963034020E+01 -0.14521408453E+03  0.22766719003E+03  0.17200000000E+03 0.  1.
</event>
<event>
 4    1  0.5714562E+000  0.2001642E+03  0.7818608E-02  0.1149601E+00
         21   -1    0    0  501  502  0.00000000000E+00  0.00000000000E+00  0.41097341858E+02  0.41097341858E+02  0.00000000000E+00 0.  1.
         21   -1    0    0  502  503 -0.00000000000E+00 -0.00000000000E+00 -0.10359134154E+04  0.10359134154E+04  0.00000000000E+00 0. -1.
          6    1    1    2  501    0 -0.75938116000E+02 -0.68666640350E+02 -0.62810006326E+03  0.65922332667E+03  0.17200000000E+03 0. -1.
         -6    1    1    2    0  503  0.75938116000E+02  0.68666640350E+02 -0.36671601027E+03  0.41778743057E+03  0.17200000000E+03 0. -1.
</event>
<event>
 4    1  0.5714562E+000  0.2059255E+03  0.7818608E-02  0.1144834E+00
         21   -1    0    0  503  502  0.00000000000E+00  0.00000000000E+00  0.20891359286E+03  0.20891359286E+03  0.00000000000E+00 0.  1.
         21   -1    0    0  501  503 -0.00000000000E+00 -0.00000000000E+00 -0.25263939807E+03  0.25263939807E+03  0.00000000000E+00 0.  1.
          6    1    1    2  501    0 -0.12985953493E+02  0.11248416983E+03 -0.12417827132E+03  0.24046947107E+03  0.17200000000E+03 0.  1.
         -6    1    1    2    0  502  0.12985953493E+02 -0.11248416983E+03  0.80452466104E+02  0.22108351986E+03  0.17200000000E+03 0.  1.
</event>
<event>
 4    1  0.5714562E+000  0.1979299E+03  0.7818608E-02  0.1151497E+00
         21   -1    0    0  503  502  0.00000000000E+00  0.00000000000E+00  0.14271637807E+04  0.14271637807E+04  0.00000000000E+00 0. -1.
         21   -1    0    0  501  503 -0.00000000000E+00 -0.00000000000E+00 -0.10394710298E+03  0.10394710298E+03  0.00000000000E+00 0. -1.
          6    1    1    2  501    0  0.18645628039E+01  0.97922273607E+02  0.48709396053E+01  0.19798983387E+03  0.17200000000E+03 0. -1.
         -6    1    1    2    0  502 -0.18645628039E+01 -0.97922273607E+02  0.13183457381E+04  0.13331210498E+04  0.17200000000E+03 0. -1.
</event>
<event>
 4    1  0.5714562E+000  0.1834025E+03  0.7818608E-02  0.1164550E+00
         21   -1    0    0  501  502  0.00000000000E+00  0.00000000000E+00  0.24435508373E+03  0.24435508373E+03  0.00000000000E+00 0.  1.
         21   -1    0    0  502  503 -0.00000000000E+00 -0.00000000000E+00 -0.86232663339E+03  0.86232663339E+03  0.00000000000E+00 0. -1.
          6    1    1    2  501    0  0.45928052624E+02 -0.44080450895E+02  0.19827087462E+03  0.27008852603E+03  0.17200000000E+03 0.  1.
         -6    1    1    2    0  503 -0.45928052624E+02  0.44080450895E+02 -0.81624242428E+03  0.83659319108E+03  0.17200000000E+03 0. -1.
</event>
<event>
 4    1  0.5714562E+000  0.2770421E+03  0.7818608E-02  0.1097316E+00
         21   -1    0    0  501  502  0.00000000000E+00  0.00000000000E+00  0.14846770808E+03  0.14846770808E+03  0.00000000000E+00 0.  1.
         21   -1    0    0  502  503 -0.00000000000E+00 -0.00000000000E+00 -0.67913029017E+03  0.67913029017E+03  0.00000000000E+00 0.  1.
          6    1    1    2  501    0  0.16616153524E+03  0.13985232161E+03 -0.63125135601E+02  0.28414276411E+03  0.17200000000E+03 0.  1.
         -6    1    1    2    0  503 -0.16616153524E+03 -0.13985232161E+03 -0.46753744648E+03  0.54345523414E+03  0.17200000000E+03 0.  1.
</event>
<event>
 4    1  0.5714562E+000  0.1721150E+03  0.7818608E-02  0.1175660E+00
         21   -1    0    0  501  502  0.00000000000E+00  0.00000000000E+00  0.95997280822E+03  0.95997280822E+03  0.00000000000E+00 0.  1.
         21   -1    0    0  502  503 -0.00000000000E+00 -0.00000000000E+00 -0.42009969477E+02  0.42009969477E+02  0.00000000000E+00 0.  1.
          6    1    1    2  501    0 -0.28081467398E+01 -0.56293247320E+01  0.71709744785E+03  0.73746343957E+03  0.17200000000E+03 0. -1.
         -6    1    1    2    0  503  0.28081467398E+01  0.56293247320E+01  0.20086539089E+03  0.26451933812E+03  0.17200000000E+03 0. -1.
</event>
<event>
 4    1  0.5714562E+000  0.2327492E+03  0.7818608E-02  0.1124720E+00
         21   -1    0    0  503  502  0.00000000000E+00  0.00000000000E+00  0.32056946956E+03  0.32056946956E+03  0.00000000000E+00 0. -1.
         21   -1    0    0  501  503 -0.00000000000E+00 -0.00000000000E+00 -0.32453853724E+03  0.32453853724E+03  0.00000000000E+00 0.  1.
          6    1    1    2  501    0  0.13980059383E+03 -0.71021007160E+02 -0.22529338925E+03  0.32392792521E+03  0.17200000000E+03 0.  1.
         -6    1    1    2    0  502 -0.13980059383E+03  0.71021007160E+02  0.22132432156E+03  0.32118008159E+03  0.17200000000E+03 0. -1.
</event>
<event>
 4    1  0.5714562E+000  0.2360043E+03  0.7818608E-02  0.1122484E+00
         21   -1    0    0  501  502  0.00000000000E+00  0.00000000000E+00  0.22932979646E+03  0.22932979646E+03  0.00000000000E+00 0. -1.
         21   -1    0    0  502  503 -0.00000000000E+00 -0.00000000000E+00 -0.32342407926E+03  0.32342407926E+03  0.00000000000E+00 0. -1.
          6    1    1    2  501    0 -0.13295451532E+03  0.91853726327E+02  0.90880519664E+02  0.25289776401E+03  0.17200000000E+03 0. -1.
         -6    1    1    2    0  503  0.13295451532E+03 -0.91853726327E+02 -0.18497480247E+03  0.29985611172E+03  0.17200000000E+03 0. -1.
</event>
<event>
 4    1  0.5714562E+000  0.1828296E+03  0.7818608E-02  0.1165092E+00
         21   -1    0    0  501  502  0.00000000000E+00  0.00000000000E+00  0.79622877748E+03  0.79622877748E+03  0.00000000000E+00 0. -1.
         21   -1    0    0  502  503 -0.00000000000E+00 -0.00000000000E+00 -0.51782268401E+02  0.51782268401E+02  0.00000000000E+00 0. -1.
          6    1    1    2  501    0  0.48415733214E+02  0.38711631159E+02  0.55668942858E+03  0.58594350710E+03  0.17200000000E+03 0. -1.
         -6    1    1    2    0  503 -0.48415733214E+02 -0.38711631159E+02  0.18775708050E+03  0.26206753879E+03  0.17200000000E+03 0. -1.
</event>
<event>
 4    1  0.5714562E+000  0.1894721E+03  0.7818608E-02  0.1158938E+00
         21   -1    0    0  501  502  0.00000000000E+00  0.00000000000E+00  0.10990212158E+03  0.10990212158E+03  0.00000000000E+00 0.  1.
         21   -1    0    0  502  503 -0.00000000000E+00 -0.00000000000E+00 -0.52604287809E+03  0.52604287809E+03  0.00000000000E+00 0.  1.
          6    1    1    2  501    0 -0.58711849120E+02 -0.53559322724E+02 -0.12306625818E+02  0.18987136518E+03  0.17200000000E+03 0.  1.
         -6    1    1    2    0  503  0.58711849120E+02  0.53559322724E+02 -0.40383413069E+03  0.44607363449E+03  0.17200000000E+03 0.  1.
</event>
<event>
 4    1  0.5714562E+000  0.1826740E+03  0.7818608E-02  0.1165240E+00
         21   -1    0    0  501  502  0.00000000000E+00  0.00000000000E+00  0.10043943062E+03  0.10043943062E+03  0.00000000000E+00 0. -1.
         21   -1    0    0  502  503 -0.00000000000E+00 -0.00000000000E+00 -0.34081807953E+03  0.34081807953E+03  0.00000000000E+00 0. -1.
          6    1    1    2  501    0  0.22034797398E+02 -0.57447872497E+02 -0.15519575008E+03  0.23969879264E+03  0.17200000000E+03 0. -1.
         -6    1    1    2    0  503 -0.22034797398E+02  0.57447872497E+02 -0.85182898820E+02  0.20155871750E+03  0.17200000000E+03 0. -1.
</event>
<event>
 4    1  0.5714562E+000  0.2180218E+03  0.7818608E-02  0.1135367E+00
         21   -1    0    0  501  502  0.00000000000E+00  0.00000000000E+00  0.32670639956E+04  0.32670639956E+04  0.00000000000E+00 0. -1.
         21   -1    0    0  502  503 -0.00000000000E+00 -0.00000000000E+00 -0.15288852485E+02  0.15288852485E+02  0.00000000000E+00 0. -1.
          6    1    1    2  501    0 -0.13316563666E+03  0.14711545008E+02  0.12649348391E+04  0.12835862509E+04  0.17200000000E+03 0. -1.
         -6    1    1    2    0  503  0.13316563666E+03 -0.14711545008E+02  0.19868403040E+04  0.19987665972E+04  0.17200000000E+03 0. -1.
</event>
<event>
 4    1  0.5714562E+000  0.1889456E+03  0.7818608E-02  0.1159416E+00
         21   -1    0    0  503  502  0.00000000000E+00  0.00000000000E+00  0.42860105160E+03  0.42860105160E+03  0.00000000000E+00 0. -1.
         21   -1    0    0  501  503 -0.00000000000E+00 -0.00000000000E+00 -0.94248659188E+02  0.94248659188E+02  0.00000000000E+00 0. -1.
          6    1    1    2  501    0 -0.51929431626E+02  0.58478855695E+02  0.78054499143E+02  0.20443323426E+03  0.17200000000E+03 0. -1.
         -6    1    1    2    0  502  0.51929431626E+02 -0.58478855695E+02  0.25629789327E+03  0.31841647653E+03  0.17200000000E+03 0. -1.
</event>
<event>
 4    1  0.5714562E+000  0.2276959E+03  0.7818608E-02  0.1128272E+00
         21   -1    0    0  503  502  0.00000000000E+00  0.00000000000E+00  0.14769655093E+04  0.14769655093E+04  0.00000000000E+00 0. -1.
         21   -1    0    0  501  503 -0.00000000000E+00 -0.00000000000E+00 -0.12699115806E+03  0.12699115806E+03  0.00000000000E+00 0.  1.
          6    1    1    2  501    0  0.41177479220E+02  0.14340802033E+03 -0.72045177517E+01  0.22780989919E+03  0.17200000000E+03 0.  1.
         -6    1    1    2    0  502 -0.41177479220E+02 -0.14340802033E+03  0.13571788690E+04  0.13761467682E+04  0.17200000000E+03 0. -1.
</event>
<event>
 4    1  0.5714562E+000  0.1742171E+03  0.7818608E-02  0.1173520E+00
         21   -1    0    0  503  502  0.00000000000E+00  0.00000000000E+00  0.56968363909E+03  0.56968363909E+03  0.00000000000E+00 0. -1.
         21   -1    0    0  501  503 -0.00000000000E+00 -0.00000000000E+00 -0.11968981446E+03  0.11968981446E+03  0.00000000000E+00 0. -1.
          6    1    1    2  501    0  0.26650390332E+02 -0.75729893006E+01 -0.31757964698E+02  0.17708800579E+03  0.17200000000E+03 0. -1.
         -6    1    1    2    0  502 -0.26650390332E+02  0.75729893006E+01  0.48175178932E+03  0.51228544776E+03  0.17200000000E+03 0. -1.
</event>
<event>
 4    1  0.5714562E+000  0.1783668E+03  0.7818608E-02  0.1169393E+00
         21   -1    0    0  501  502  0.00000000000E+00  0.00000000000E+00  0.11184591611E+04  0.11184591611E+04  0.00000000000E+00 0. -1.
         21   -1    0    0  502  503 -0.00000000000E+00 -0.00000000000E+00 -0.52333340662E+02  0.52333340662E+02  0.00000000000E+00 0. -1.
          6    1    1    2  501    0 -0.38206566275E+02 -0.27766619130E+02  0.92856832284E+03  0.94554421209E+03  0.17200000000E+03 0. -1.
         -6    1    1    2    0  503  0.38206566275E+02  0.27766619130E+02  0.13755749755E+03  0.22524828962E+03  0.17200000000E+03 0. -1.
</event>
<event>
 4    1  0.5714562E+000  0.2976282E+03  0.7818608E-02  0.1086432E+00
         21   -1    0    0  503  502  0.00000000000E+00  0.00000000000E+00  0.37271501612E+03  0.37271501612E+03  0.00000000000E+00 0. -1.
         21   -1    0    0  501  503 -0.00000000000E+00 -0.00000000000E+00 -0.37451262463E+03  0.37451262463E+03  0.00000000000E+00 0.  1.
          6    1    1    2  501    0  0.23050356607E+03  0.76594152683E+02 -0.22673993406E+03  0.37415712728E+03  0.17200000000E+03 0. -1.
         -6    1    1    2    0  502 -0.23050356607E+03 -0.76594152683E+02  0.22494232555E+03  0.37307051347E+03  0.17200000000E+03 0. -1.
</event>
<event>
 4    1  0.5714562E+000  0.2133054E+03  0.7818608E-02  0.1138975E+00
         21   -1    0    0  501  502  0.00000000000E+00  0.00000000000E+00  0.78531957935E+03  0.78531957935E+03  0.00000000000E+00 0.  1.
         21   -1    0    0  502  503 -0.00000000000E+00 -0.00000000000E+00 -0.59382743016E+02  0.59382743016E+02  0.00000000000E+00 0.  1.
          6    1    1    2  501    0  0.12583883056E+03 -0.89326702791E+01  0.42886481794E+03  0.47898250066E+03  0.17200000000E+03 0.  1.
         -6    1    1    2    0  503 -0.12583883056E+03  0.89326702791E+01  0.29707201840E+03  0.36571982171E+03  0.17200000000E+03 0.  1.
</event>
<event>
 4    1  0.5714562E+000  0.2283029E+03  0.7818608E-02  0.1127840E+00
         21   -1    0    0  503  502  0.00000000000E+00  0.00000000000E+00  0.10795160311E+04  0.10795160311E+04  0.00000000000E+00 0.  1.
         21   -1    0    0  501  503 -0.00000000000E+00 -0.00000000000E+00 -0.57784939477E+02  0.57784939477E+02  0.00000000000E+00 0.  1.
          6    1    1    2  501    0 -0.69716315698E+02  0.13295805581E+03  0.28027284731E+03  0.36149008039E+03  0.17200000000E+03 0.  1.
         -6    1    1    2    0  502  0.69716315698E+02 -0.13295805581E+03  0.74145824434E+03  0.77581089022E+03  0.17200000000E+03 0.  1.
</event>
<event>
 4    1  0.5714562E+000  0.1912056E+03  0.7818608E-02  0.1157378E+00
         21   -1    0    0  501  502  0.00000000000E+00  0.00000000000E+00  0.13329470721E+03  0.13329470721E+03  0.00000000000E+00 0. -1.
         21   -1    0    0  502  503 -0.00000000000E+00 -0.00000000000E+00 -0.27427636158E+03  0.27427636158E+03  0.00000000000E+00 0. -1.
          6    1    1    2  501    0 -0.62637531112E+02  0.55245903609E+02 -0.70351286064E+02  0.20373726615E+03  0.17200000000E+03 0. -1.
         -6    1    1    2    0  503  0.62637531112E+02 -0.55245903609E+02 -0.70630368303E+02  0.20383380263E+03  0.17200000000E+03 0. -1.
</event>
<event>
 4    1  0.5714562E+000  0.1727341E+03  0.7818608E-02  0.1175026E+00
         21   -1    0    0  503  502  0.00000000000E+00  0.00000000000E+00  0.30883893767E+03  0.30883893767E+03  0.00000000000E+00 0. -1.
         21   -1    0    0  501  503 -0.00000000000E+00 -0.00000000000E+00 -0.99345778385E+02  0.99345778385E+02  0.00000000000E+00 0. -1.
          6    1    1    2  501    0 -0.40517868370E+01  0.15383623288E+02  0.70881217967E+02  0.18671159552E+03  0.17200000000E+03 0.  1.
         -6    1    1    2    0  502  0.40517868370E+01 -0.15383623288E+02  0.13861194132E+03  0.22147312053E+03  0.17200000000E+03 0.  1.
</event>
<event>
 4    1  0.5714562E+000  0.1877575E+03  0.7818608E-02  0.1160500E+00
         21   -1    0    0  503  502  0.00000000000E+00  0.00000000000E+00  0.79350529607E+02  0.79350529607E+02  0.00000000000E+00 0.  1.
         21   -1    0    0  501  503 -0.00000000000E+00 -0.00000000000E+00 -0.45433991696E+03  0.45433991696E+03  0.00000000000E+00 0.  1.
          6    1    1    2  501    0  0.31792199379E+02  0.68250529384E+02 -0.22722584370E+03  0.29476170502E+03  0.17200000000E+03 0.  1.
         -6    1    1    2    0  502 -0.31792199379E+02 -0.68250529384E+02 -0.14776354366E+03  0.23892874154E+03  0.17200000000E+03 0.  1.
</event>
<event>
 4    1  0.5714562E+000  0.2330195E+03  0.7818608E-02  0.1124532E+00
         21   -1    0    0  503  502  0.00000000000E+00  0.00000000000E+00  0.69260427043E+03  0.69260427043E+03  0.00000000000E+00 0. -1.
         21   -1    0    0  501  503 -0.00000000000E+00 -0.00000000000E+00 -0.80348680739E+02  0.80348680739E+02  0.00000000000E+00 0. -1.
          6    1    1    2  501    0 -0.37668053936E+02 -0.15262759520E+03  0.24589358761E+03  0.33876499455E+03  0.17200000000E+03 0. -1.
         -6    1    1    2    0  502  0.37668053936E+02  0.15262759520E+03  0.36636200208E+03  0.43418795662E+03  0.17200000000E+03 0. -1.
</event>
<event>
 4    1  0.5714562E+000  0.2182733E+03  0.7818608E-02  0.1135177E+00
         21   -1    0    0  503  502  0.00000000000E+00  0.00000000000E+00  0.16537408633E+03  0.16537408633E+03  0.00000000000E+00 0.  1.
         21   -1    0    0  501  503 -0.00000000000E+00 -0.00000000000E+00 -0.35024202702E+03  0.35024202702E+03  0.00000000000E+00 0. -1.
          6    1    1    2  501    0 -0.65203976400E+02  0.11750599624E+03 -0.20103336103E+03  0.29674505883E+03  0.17200000000E+03 0.  1.
         -6    1    1    2    0  502  0.65203976400E+02 -0.11750599624E+03  0.16165420336E+02  0.21887105452E+03  0.17200000000E+03 0.  1.
</event>
<event>
 4    1  0.5714562E+000  0.1826987E+03  0.7818608E-02  0.1165216E+00
         21   -1    0    0  501  502  0.00000000000E+00  0.00000000000E+00  0.77581709059E+02  0.77581709059E+02  0.00000000000E+00 0.  1.
         21   -1    0    0  502  503 -0.00000000000E+00 -0.00000000000E+00 -0.43154028748E+03  0.43154028748E+03  0.00000000000E+00 0.  1.
          6    1    1    2  501    0 -0.46956586644E+02  0.39873541921E+02 -0.19094808762E+03  0.26427257243E+03  0.17200000000E+03 0.  1.
         -6    1    1    2    0  503  0.46956586644E+02 -0.39873541921E+02 -0.16301049081E+03  0.24484942411E+03  0.17200000000E+03 0.  1.
</event>
<event>
 4    1  0.5714562E+000  0.2278588E+03  0.7818608E-02  0.1128156E+00
         21   -1    0    0  501  502  0.00000000000E+00  0.00000000000E+00  0.33765724475E+03  0.33765724475E+03  0.00000000000E+00 0.  1.
         21   -1    0    0  502  503 -0.00000000000E+00 -0.00000000000E+00 -0.16316371902E+03  0.16316371902E+03  0.00000000000E+00 0. -1.
          6    1    1    2  501    0 -0.15435143382E+02  0.14865193692E+03  0.14734896463E+03  0.27135098927E+03  0.17200000000E+03 0.  1.
         -6    1    1    2    0  503  0.15435143382E+02 -0.14865193692E+03  0.27144561103E+02  0.22946997450E+03  0.17200000000E+03 0.  1.
</event>
<event>
 4    1  0.5714562E+000  0.1943356E+03  0.7818608E-02  0.1154608E+00
         21   -1    0    0  501  502  0.00000000000E+00  0.00000000000E+00  0.19063010005E+04  0.19063010005E+04  0.00000000000E+00 0. -1.
         21   -1    0    0  502  503 -0.00000000000E+00 -0.00000000000E+00 -0.22295061969E+02  0.22295061969E+02  0.00000000000E+00 0.  1.
          6    1    1    2  501    0 -0.35963232615E+02 -0.82999775111E+02  0.12638586671E+04  0.12787122613E+04  0.17200000000E+03 0. -1.
         -6    1    1    2    0  503  0.35963232615E+02  0.82999775111E+02  0.62014727136E+03  0.64988380111E+03  0.17200000000E+03 0.  1.
</event>
<event>
 4    1  0.5714562E+000  0.2007773E+03  0.7818608E-02  0.1149085E+00
         21   -1    0    0  501  502  0.00000000000E+00  0.00000000000E+00  0.32020486084E+02  0.32020486084E+02  0.00000000000E+00 0.  1.
         21   -1    0    0  502  503 -0.00000000000E+00 -0.00000000000E+00 -0.12655726601E+04  0.12655726601E+04  0.00000000000E+00 0.  1.
          6    1    1    2  501    0  0.10077837300E+03 -0.23900457280E+02 -0.56976773343E+03  0.60410825386E+03  0.17200000000E+03 0. -1.
         -6    1    1    2    0  503 -0.10077837300E+03  0.23900457280E+02 -0.66378444063E+03  0.69348489237E+03  0.17200000000E+03 0. -1.
</event>
<event>
 4    1  0.5714562E+000  0.1800603E+03  0.7818608E-02  0.1167745E+00
         21   -1    0    0  501  502  0.00000000000E+00  0.00000000000E+00  0.12707885510E+02  0.12707885510E+02  0.00000000000E+00 0. -1.
         21   -1    0    0  502  503 -0.00000000000E+00 -0.00000000000E+00 -0.25781164052E+04  0.25781164052E+04  0.00000000000E+00 0. -1.
          6    1    1    2  501    0 -0.14323576668E+02  0.51308279796E+02 -0.11506025400E+04  0.11646063324E+04  0.17200000000E+03 0.  1.
         -6    1    1    2    0  503  0.14323576668E+02 -0.51308279796E+02 -0.14148059797E+04  0.14262179583E+04  0.17200000000E+03 0.  1.
</event>
<event>
 4    1  0.5714562E+000  0.1893761E+03  0.7818608E-02  0.1159025E+00
         21   -1    0    0  501  502  0.00000000000E+00  0.00000000000E+00  0.15273661273E+04  0.15273661273E+04  0.00000000000E+00 0. -1.
         21   -1    0    0  502  503 -0.00000000000E+00 -0.00000000000E+00 -0.42795527364E+02  0.42795527364E+02  0.00000000000E+00 0. -1.
          6    1    1    2  501    0  0.78812038318E+02 -0.82438986705E+01  0.12697130785E+04  0.12837579994E+04  0.17200000000E+03 0. -1.
         -6    1    1    2    0  503 -0.78812038318E+02  0.82438986705E+01  0.21485752147E+03  0.28640365532E+03  0.17200000000E+03 0. -1.
</event>
<event>
 4    1  0.5714562E+000  0.4221182E+03  0.7818608E-02  0.1036379E+00
         21   -1    0    0  503  502  0.00000000000E+00  0.00000000000E+00  0.25620863407E+03  0.25620863407E+03  0.00000000000E+00 0. -1.
         21   -1    0    0  501  503 -0.00000000000E+00 -0.00000000000E+00 -0.69665422270E+03  0.69665422270E+03  0.00000000000E+00 0.  1.
          6    1    1    2  501    0 -0.93072889948E+02 -0.37408185932E+03 -0.20052744571E+03  0.46732756906E+03  0.17200000000E+03 0.  1.
         -6    1    1    2    0  502  0.93072889948E+02  0.37408185932E+03 -0.23991814292E+03  0.48553528772E+03  0.17200000000E+03 0. -1.
</event>
<event>
 4    1  0.5714562E+000  0.2300333E+03  0.7818608E-02  0.1126616E+00
         21   -1    0    0  503  502  0.00000000000E+00  0.00000000000E+00  0.57371107107E+02  0.57371107107E+02  0.00000000000E+00 0. -1.
         21   -1    0    0  501  503 -0.00000000000E+00 -0.00000000000E+00 -0.93009092205E+03  0.93009092205E+03  0.00000000000E+00 0.  1.
          6    1    1    2  501    0  0.89695051371E+02 -0.12363696077E+03 -0.48145023046E+03  0.53358188193E+03  0.17200000000E+03 0.  1.
         -6    1    1    2    0  502 -0.89695051371E+02  0.12363696077E+03 -0.39126958448E+03  0.45388014723E+03  0.17200000000E+03 0. -1.
</event>
<event>
 4    1  0.5714562E+000  0.2255550E+03  0.7818608E-02  0.1129808E+00
         21   -1    0    0  503  502  0.00000000000E+00  0.00000000000E+00  0.11009807471E+03  0.11009807471E+03  0.00000000000E+00 0.  1.
         21   -1    0    0  501  503 -0.00000000000E+00 -0.00000000000E+00 -0.48686754103E+03  0.48686754103E+03  0.00000000000E+00 0.  1.
          6    1    1    2  501    0 -0.13344384842E+02  0.14530301066E+03 -0.25572231030E+03  0.34098231259E+03  0.17200000000E+03 0.  1.
         -6    1    1    2    0  502  0.13344384842E+02 -0.14530301066E+03 -0.12104715602E+03  0.25598330315E+03  0.17200000000E+03 0.  1.
</event>
<event>
 4    1  0.5714562E+000  0.2998062E+03  0.7818608E-02  0.1085338E+00
         21   -1    0    0  503  502  0.00000000000E+00  0.00000000000E+00  0.26564487367E+03  0.26564487367E+03  0.00000000000E+00 0. -1.
         21   -1    0    0  501  503 -0.00000000000E+00 -0.00000000000E+00 -0.33850471230E+03  0.33850471230E+03  0.00000000000E+00 0.  1.
          6    1    1    2  501    0  0.23702475005E+03 -0.64179619854E+02 -0.42662963998E+02  0.30282649197E+03  0.17200000000E+03 0.  1.
         -6    1    1    2    0  502 -0.23702475005E+03  0.64179619854E+02 -0.30196874631E+02  0.30132309400E+03  0.17200000000E+03 0.  1.
</event>
<event>
 4    1  0.5714562E+000  0.1730485E+03  0.7818608E-02  0.1174706E+00
         21   -1    0    0  501  502  0.00000000000E+00  0.00000000000E+00  0.98649283727E+02  0.98649283727E+02  0.00000000000E+00 0.  1.
         21   -1    0    0  502  503 -0.00000000000E+00 -0.00000000000E+00 -0.94523553141E+03  0.94523553141E+03  0.00000000000E+00 0.  1.
          6    1    1    2  501    0  0.13871881540E+02 -0.13013066335E+02  0.67490186220E+01  0.17318001688E+03  0.17200000000E+03 0.  1.
         -6    1    1    2    0  503 -0.13871881540E+02  0.13013066335E+02 -0.85333526630E+03  0.87070479826E+03  0.17200000000E+03 0.  1.
</event>
<event>
 4    1  0.5714562E+000  0.1725802E+03  0.7818608E-02  0.1175184E+00
         21   -1    0    0  503  502  0.00000000000E+00  0.00000000000E+00  0.14398535226E+02  0.14398535226E+02  0.00000000000E+00 0.  1.
         21   -1    0    0  501  503 -0.00000000000E+00 -0.00000000000E+00 -0.20885188552E+04  0.20885188552E+04  0.00000000000E+00 0.  1.
          6    1    1    2  501    0 -0.70851373701E+01 -0.12235741653E+02 -0.93421505843E+03  0.95002194077E+03  0.17200000000E+03 0.  1.
         -6    1    1    2    0  502  0.70851373701E+01  0.12235741653E+02 -0.11399052616E+04  0.11528954497E+04  0.17200000000E+03 0.  1.
</event>
<event>
 4    1  0.5714562E+000  0.1907131E+03  0.7818608E-02  0.1157820E+00
         21   -1    0    0  501  502  0.00000000000E+00  0.00000000000E+00  0.23302569677E+04  0.23302569677E+04  0.00000000000E+00 0.  1.
         21   -1    0    0  502  503 -0.00000000000E+00 -0.00000000000E+00 -0.25304362981E+02  0.25304362981E+02  0.00000000000E+00 0.  1.
          6    1    1    2  501    0 -0.65360276711E+02  0.50155095543E+02  0.18815358349E+04  0.18911765115E+04  0.17200000000E+03 0.  1.
         -6    1    1    2    0  503  0.65360276711E+02 -0.50155095543E+02  0.42341676978E+03  0.46438481921E+03  0.17200000000E+03 0.  1.
</event>
<event>
 4    1  0.5714562E+000  0.4439150E+03  0.7818608E-02  0.1029552E+00
         21   -1    0    0  503  502  0.00000000000E+00  0.00000000000E+00  0.73200788502E+03  0.73200788502E+03  0.00000000000E+00 0.  1.
         21   -1    0    0  501  503 -0.00000000000E+00 -0.00000000000E+00 -0.29218906914E+03  0.29218906914E+03  0.00000000000E+00 0. -1.
          6    1    1    2  501    0 -0.28549443557E+03  0.29320544408E+03  0.76284157376E+02  0.45042177772E+03  0.17200000000E+03 0. -1.
         -6    1    1    2    0  502  0.28549443557E+03 -0.29320544408E+03  0.36353465850E+03  0.57377517645E+03  0.17200000000E+03 0.  1.
</event>
<event>
 4    1  0.5714562E+000  0.1871265E+03  0.7818608E-02  0.1161079E+00
         21   -1    0    0  501  502  0.00000000000E+00  0.00000000000E+00  0.46643264850E+03  0.46643264850E+03  0.00000000000E+00 0. -1.
         21   -1    0    0  502  503 -0.00000000000E+00 -0.00000000000E+00 -0.16113596182E+03  0.16113596182E+03  0.00000000000E+00 0. -1.
          6    1    1    2  501    0  0.71272468516E+02 -0.18776411882E+02  0.38196948548E+03  0.42534339803E+03  0.17200000000E+03 0. -1.
         -6    1    1    2    0  503 -0.71272468516E+02  0.18776411882E+02 -0.76672798803E+02  0.20222521229E+03  0.17200000000E+03 0. -1.
</event>
<event>
 4    1  0.5714562E+000  0.2118725E+03  0.7818608E-02  0.1140092E+00
         21   -1    0    0  503  502  0.00000000000E+00  0.00000000000E+00  0.67973613490E+02  0.67973613490E+02  0.00000000000E+00 0.  1.
         21   -1    0    0  501  503 -0.00000000000E+00 -0.00000000000E+00 -0.66085867486E+03  0.66085867486E+03  0.00000000000E+00 0.  1.
          6    1    1    2  501    0 -0.82617079088E+02 -0.92089010468E+02 -0.28687178904E+03  0.35663060855E+03  0.17200000000E+03 0. -1.
         -6    1    1    2    0  502  0.82617079088E+02  0.92089010468E+02 -0.30601327232E+03  0.37220167980E+03  0.17200000000E+03 0. -1.
</event>
<event>
 4    1  0.5714562E+000  0.2653858E+03  0.7818608E-02  0.1103950E+00
         21   -1    0    0  503  502  0.00000000000E+00  0.00000000000E+00  0.22413108176E+04  0.22413108176E+04  0.00000000000E+00 0.  1.
         21   -1    0    0  501  503 -0.00000000000E+00 -0.00000000000E+00 -0.79469497551E+02  0.79469497551E+02  0.00000000000E+00 0.  1.
          6    1    1    2  501    0 -0.19333774662E+03  0.58873862104E+02  0.17865829416E+03  0.31991936793E+03  0.17200000000E+03 0.  1.
         -6    1    1    2    0  502  0.19333774662E+03 -0.58873862104E+02  0.19831830258E+04  0.20008609472E+04  0.17200000000E+03 0.  1.
</event>
<event>
 4    1  0.5714562E+000  0.1870042E+03  0.7818608E-02  0.1161191E+00
         21   -1    0    0  501  502  0.00000000000E+00  0.00000000000E+00  0.45012073673E+02  0.45012073673E+02  0.00000000000E+00 0. -1.
         21   -1    0    0  502  503 -0.00000000000E+00 -0.00000000000E+00 -0.81860201413E+03  0.81860201413E+03  0.00000000000E+00 0.  1.
          6    1    1    2  501    0 -0.46775015681E+02 -0.56556934520E+02 -0.28935215763E+03  0.34452178460E+03  0.17200000000E+03 0.  1.
         -6    1    1    2    0  503  0.46775015681E+02  0.56556934520E+02 -0.48423778282E+03  0.51909230320E+03  0.17200000000E+03 0. -1.
</event>
<event>
 4    1  0.5714562E+000  0.2329255E+03  0.7818608E-02  0.1124597E+00
         21   -1    0    0  501  502  0.00000000000E+00  0.00000000000E+00  0.81051966375E+02  0.81051966375E+02  0.00000000000E+00 0. -1.
         21   -1    0    0  502  503 -0.00000000000E+00 -0.00000000000E+00 -0.67989906733E+03  0.67989906733E+03  0.00000000000E+00 0.  1.
          6    1    1    2  501    0  0.15186477654E+03  0.40091867712E+02 -0.25209003609E+03  0.34322536984E+03  0.17200000000E+03 0. -1.
         -6    1    1    2    0  503 -0.15186477654E+03 -0.40091867712E+02 -0.34675706487E+03  0.41772566386E+03  0.17200000000E+03 0.  1.
</event>
<event>
 4    1  0.5714562E+000  0.1927483E+03  0.7818608E-02  0.1156006E+00
         21   -1    0    0  503  502  0.00000000000E+00  0.00000000000E+00  0.13189633851E+03  0.13189633851E+03  0.00000000000E+00 0. -1.
         21   -1    0    0  501  503 -0.00000000000E+00 -0.00000000000E+00 -0.40218430162E+03  0.40218430162E+03  0.00000000000E+00 0. -1.
          6    1    1    2  501    0  0.86825307815E+02  0.54104351553E+01 -0.28131944819E+03  0.34101691866E+03  0.17200000000E+03 0.  1.
         -6    1    1    2    0  502 -0.86825307815E+02 -0.54104351553E+01  0.11031485074E+02  0.19306372147E+03  0.17200000000E+03 0.  1.
</event>
<event>
 4    1  0.5714562E+000  0.2615933E+03  0.7818608E-02  0.1106190E+00
         21   -1    0    0  501  502  0.00000000000E+00  0.00000000000E+00  0.19935816821E+04  0.19935816821E+04  0.00000000000E+00 0.  1.
         21   -1    0    0  502  503 -0.00000000000E+00 -0.00000000000E+00 -0.34589553978E+02  0.34589553978E+02  0.00000000000E+00 0. -1.
          6    1    1    2  501    0 -0.16144584260E+03 -0.11305886956E+03  0.10680670890E+04  0.10996355645E+04  0.17200000000E+03 0. -1.
         -6    1    1    2    0  503  0.16144584260E+03  0.11305886956E+03  0.89092503906E+03  0.92853567153E+03  0.17200000000E+03 0.  1.
</event>
<event>
 4    1  0.5714562E+000  0.4483641E+03  0.7818608E-02  0.1028211E+00
         21   -1    0    0  501  502  0.00000000000E+00  0.00000000000E+00  0.98637798760E+02  0.98637798760E+02  0.00000000000E+00 0. -1.
         21   -1    0    0  502  503 -0.00000000000E+00 -0.00000000000E+00 -0.20401614953E+04  0.20401614953E+04  0.00000000000E+00 0. -1.
          6    1    1    2  501    0  0.18964874178E+03 -0.36807569885E+03 -0.10050329964E+04  0.11005097406E+04  0.17200000000E+03 0. -1.
         -6    1    1    2    0  503 -0.18964874178E+03  0.36807569885E+03 -0.93649070021E+03  0.10382895535E+04  0.17200000000E+03 0. -1.
</event>
<event>
 4    1  0.5714562E+000  0.2837451E+03  0.7818608E-02  0.1093661E+00
         21   -1    0    0  501  502  0.00000000000E+00  0.00000000000E+00  0.70165989919E+03  0.70165989919E+03  0.00000000000E+00 0.  1.
         21   -1    0    0  502  503 -0.00000000000E+00 -0.00000000000E+00 -0.14145736425E+03  0.14145736425E+03  0.00000000000E+00 0.  1.
          6    1    1    2  501    0 -0.19675136334E+03 -0.11052674720E+03  0.46329454345E+03  0.54327994148E+03  0.17200000000E+03 0.  1.
         -6    1    1    2    0  503  0.19675136334E+03  0.11052674720E+03  0.96907991492E+02  0.29983732196E+03  0.17200000000E+03 0.  1.
</event>
<event>
 4    1  0.5714562E+000  0.2301204E+03  0.7818608E-02  0.1126555E+00
         21   -1    0    0  501  502  0.00000000000E+00  0.00000000000E+00  0.38257062167E+03  0.38257062167E+03  0.00000000000E+00 0. -1.
         21   -1    0    0  502  503 -0.00000000000E+00 -0.00000000000E+00 -0.14664520896E+03  0.14664520896E+03  0.00000000000E+00 0. -1.
          6    1    1    2  501    0  0.31747978627E+02  0.14954422458E+03  0.18063036652E+03  0.29254527609E+03  0.17200000000E+03 0. -1.
         -6    1    1    2    0  503 -0.31747978627E+02 -0.14954422458E+03  0.55295046192E+02  0.23667055454E+03  0.17200000000E+03 0. -1.
</event>
<event>
 4    1  0.5714562E+000  0.2759507E+03  0.7818608E-02  0.1097921E+00
         21   -1    0    0  501  502  0.00000000000E+00  0.00000000000E+00  0.65538533960E+02  0.65538533960E+02  0.00000000000E+00 0.  1.
         21   -1    0    0  502  503 -0.00000000000E+00 -0.00000000000E+00 -0.23523999068E+04  0.23523999068E+04  0.00000000000E+00 0.  1.
          6    1    1    2  501    0 -0.14640310283E+03  0.15852728554E+03 -0.28337689784E+03  0.39553917001E+03  0.17200000000E+03 0.  1.
         -6    1    1    2    0  503  0.14640310283E+03 -0.15852728554E+03 -0.20034844750E+04  0.20223992707E+04  0.17200000000E+03 0.  1.
</event>
<event>
 4    1  0.5714562E+000  0.1860603E+03  0.7818608E-02  0.1162063E+00
         21   -1    0    0  503  502  0.00000000000E+00  0.00000000000E+00  0.19152712887E+03  0.19152712887E+03  0.00000000000E+00 0. -1.
         21   -1    0    0  501  503 -0.00000000000E+00 -0.00000000000E+00 -0.24044190077E+03  0.24044190077E+03  0.00000000000E+00 0. -1.
          6    1    1    2  501    0  0.46780410789E+02 -0.53348202486E+02 -0.13207341714E+03  0.22817060516E+03  0.17200000000E+03 0. -1.
         -6    1    1    2    0  502 -0.46780410789E+02  0.53348202486E+02  0.83158645246E+02  0.20379842448E+03  0.17200000000E+03 0. -1.
</event>
<event>
 4    1  0.5714562E+000  0.1763730E+03  0.7818608E-02  0.1171360E+00
         21   -1    0    0  501  502  0.00000000000E+00  0.00000000000E+00  0.92253615220E+03  0.92253615220E+03  0.00000000000E+00 0. -1.
         21   -1    0    0  502  503 -0.00000000000E+00 -0.00000000000E+00 -0.57395826031E+02  0.57395826031E+02  0.00000000000E+00 0. -1.
          6    1    1    2  501    0  0.32026991586E+02  0.22309687782E+02  0.74726021134E+03  0.76779246793E+03  0.17200000000E+03 0. -1.
         -6    1    1    2    0  503 -0.32026991586E+02 -0.22309687782E+02  0.11788011483E+03  0.21213951030E+03  0.17200000000E+03 0. -1.
</event>
<event>
 4    1  0.5714562E+000  0.2005653E+03  0.7818608E-02  0.1149263E+00
         21   -1    0    0  503  502  0.00000000000E+00  0.00000000000E+00  0.97620580017E+02  0.97620580017E+02  0.00000000000E+00 0.  1.
         21   -1    0    0  501  503 -0.00000000000E+00 -0.00000000000E+00 -0.61083960105E+03  0.61083960105E+03  0.00000000000E+00 0.  1.
          6    1    1    2  501    0 -0.76190186124E+02 -0.69552209006E+02 -0.45867748664E+03  0.50061111753E+03  0.17200000000E+03 0.  1.
         -6    1    1    2    0  502  0.76190186124E+02  0.69552209006E+02 -0.54541534386E+02  0.20784906353E+03  0.17200000000E+03 0.  1.
</event>
<event>
 4    1  0.5714562E+000  0.2193584E+03  0.7818608E-02  0.1134362E+00
         21   -1    0    0  501  502  0.00000000000E+00  0.00000000000E+00  0.75281138869E+03  0.75281138869E+03  0.00000000000E+00 0.  1.
         21   -1    0    0  502  503 -0.00000000000E+00 -0.00000000000E+00 -0.10019760041E+03  0.10019760041E+03  0.00000000000E+00 0. -1.
          6    1    1    2  501    0 -0.14674876939E+02  0.13534673272E+03  0.58294849761E+03  0.62285394832E+03  0.17200000000E+03 0.  1.
         -6    1    1    2    0  503  0.14674876939E+02 -0.13534673272E+03  0.69665290666E+02  0.23015504078E+03  0.17200000000E+03 0. -1.
</event>
<event>
 4    1  0.5714562E+000  0.1767646E+03  0.7818608E-02  0.1170971E+00
         21   -1    0    0  503  502  0.00000000000E+00  0.00000000000E+00  0.13700380050E+03  0.13700380050E+03  0.00000000000E+00 0.  1.
         21   -1    0    0  501  503 -0.00000000000E+00 -0.00000000000E+00 -0.26467158961E+03  0.26467158961E+03  0.00000000000E+00 0.  1.
          6    1    1    2  501    0  0.40669269324E+02 -0.27835996519E+01 -0.13852565010E+03  0.22457758933E+03  0.17200000000E+03 0.  1.
         -6    1    1    2    0  502 -0.40669269324E+02  0.27835996519E+01  0.10857860987E+02  0.17709780078E+03  0.17200000000E+03 0.  1.
</event>
<event>
 4    1  0.5714562E+000  0.1783491E+03  0.7818608E-02  0.1169410E+00
         21   -1    0    0  503  502  0.00000000000E+00  0.00000000000E+00  0.31562993884E+03  0.31562993884E+03  0.00000000000E+00 0. -1.
         21   -1    0    0  501  503 -0.00000000000E+00 -0.00000000000E+00 -0.26971557343E+03  0.26971557343E+03  0.00000000000E+00 0. -1.
          6    1    1    2  501    0 -0.43413736304E+01 -0.46963410130E+02 -0.20867185359E+03  0.27450382857E+03  0.17200000000E+03 0. -1.
         -6    1    1    2    0  502  0.43413736304E+01  0.46963410130E+02  0.25458621901E+03  0.31084168370E+03  0.17200000000E+03 0. -1.
</event>
<event>
 4    1  0.5714562E+000  0.1766203E+03  0.7818608E-02  0.1171115E+00
         21   -1    0    0  503  502  0.00000000000E+00  0.00000000000E+00  0.15129975211E+04  0.15129975211E+04  0.00000000000E+00 0.  1.
         21   -1    0    0  501  503 -0.00000000000E+00 -0.00000000000E+00 -0.21293009266E+02  0.21293009266E+02  0.00000000000E+00 0. -1.
          6    1    1    2  501    0 -0.34199555800E+02  0.21003091084E+02  0.60924753487E+03  0.63433216709E+03  0.17200000000E+03 0. -1.
         -6    1    1    2    0  502  0.34199555800E+02 -0.21003091084E+02  0.88245697700E+03  0.89995836332E+03  0.17200000000E+03 0.  1.
</event>
<event>
 4    1  0.5714562E+000  0.1869828E+03  0.7818608E-02  0.1161211E+00
         21   -1    0    0  503  502  0.00000000000E+00  0.00000000000E+00  0.16944782670E+03  0.16944782670E+03  0.00000000000E+00 0. -1.
         21   -1    0    0  501  503 -0.00000000000E+00 -0.00000000000E+00 -0.26480834081E+03  0.26480834081E+03  0.00000000000E+00 0. -1.
          6    1    1    2  501    0  0.26645353870E+02 -0.68327097809E+02  0.54352351116E+02  0.19472222588E+03  0.17200000000E+03 0. -1.
         -6    1    1    2    0  502 -0.26645353870E+02  0.68327097809E+02 -0.14971286523E+03  0.23953394163E+03  0.17200000000E+03 0. -1.
</event>
<event>
 4    1  0.5714562E+000  0.1729295E+03  0.7818608E-02  0.1174827E+00
         21   -1    0    0  503  502  0.00000000000E+00  0.00000000000E+00  0.13271589377E+04  0.13271589377E+04  0.00000000000E+00 0.  1.
         21   -1    0    0  501  503 -0.00000000000E+00 -0.00000000000E+00 -0.23132481805E+02  0.23132481805E+02  0.00000000000E+00 0.  1.
          6    1    1    2  501    0 -0.57807093973E+01  0.16946404040E+02  0.76071821791E+03  0.78012614638E+03  0.17200000000E+03 0.  1.
         -6    1    1    2    0  502  0.57807093973E+01 -0.16946404040E+02  0.54330823797E+03  0.57016527310E+03  0.17200000000E+03 0.  1.
</event>
<event>
 4    1  0.5714562E+000  0.2149981E+03  0.7818608E-02  0.1137668E+00
         21   -1    0    0  503  502  0.00000000000E+00  0.00000000000E+00  0.54874949470E+03  0.54874949470E+03  0.00000000000E+00 0. -1.
         21   -1    0    0  501  503 -0.00000000000E+00 -0.00000000000E+00 -0.15677691289E+03  0.15677691289E+03  0.00000000000E+00 0.  1.
          6    1    1    2  501    0  0.12872626628E+03 -0.83493382937E+01 -0.43971781889E+02  0.21944858324E+03  0.17200000000E+03 0.  1.
         -6    1    1    2    0  502 -0.12872626628E+03  0.83493382937E+01  0.43594436370E+03  0.48607782435E+03  0.17200000000E+03 0. -1.
</event>
<event>
 4    1  0.5714562E+000  0.1929740E+03  0.7818608E-02  0.1155806E+00
         21   -1    0    0  501  502  0.00000000000E+00  0.00000000000E+00  0.50160511023E+03  0.50160511023E+03  0.00000000000E+00 0.  1.
         21   -1    0    0  502  503 -0.00000000000E+00 -0.00000000000E+00 -0.77041120004E+02  0.77041120004E+02  0.00000000000E+00 0.  1.
          6    1    1    2  501    0 -0.33255226390E+02  0.80926322782E+02  0.26745365703E+03  0.32980363622E+03  0.17200000000E+03 0.  1.
         -6    1    1    2    0  503  0.33255226390E+02 -0.80926322782E+02  0.15711033319E+03  0.24884259402E+03  0.17200000000E+03 0.  1.
</event>
<event>
 4    1  0.5714562E+000  0.2019716E+03  0.7818608E-02  0.1148086E+00
         21   -1    0    0  503  502  0.00000000000E+00  0.00000000000E+00  0.51825514792E+02  0.51825514792E+02  0.00000000000E+00 0.  1.
         21   -1    0    0  501  503 -0.00000000000E+00 -0.00000000000E+00 -0.86331441817E+03  0.86331441817E+03  0.00000000000E+00 0.  1.
          6    1    1    2  501    0 -0.10400424513E+03 -0.19789705196E+02 -0.26980181317E+03  0.33702453000E+03  0.17200000000E+03 0. -1.
         -6    1    1    2    0  502  0.10400424513E+03  0.19789705196E+02 -0.54168709021E+03  0.57811540296E+03  0.17200000000E+03 0. -1.
</event>
<event>
 4    1  0.5714562E+000  0.1984299E+03  0.7818608E-02  0.1151070E+00
         21   -1    0    0  503  502  0.00000000000E+00  0.00000000000E+00  0.63818539475E+03  0.63818539475E+03  0.00000000000E+00 0. -1.
         21   -1    0    0  501  503 -0.00000000000E+00 -0.00000000000E+00 -0.16333916144E+03  0.16333916144E+03  0.00000000000E+00 0. -1.
          6    1    1    2  501    0 -0.96018305908E+02  0.23893997133E+02 -0.78715516326E+02  0.21347264621E+03  0.17200000000E+03 0. -1.
         -6    1    1    2    0  502  0.96018305908E+02 -0.23893997133E+02  0.55356174964E+03  0.58805190998E+03  0.17200000000E+03 0. -1.
</event>
<event>
 4    1  0.5714562E+000  0.2867809E+03  0.7818608E-02  0.1092042E+00
         21   -1    0    0  501  502  0.00000000000E+00  0.00000000000E+00  0.63775742990E+03  0.63775742990E+03  0.00000000000E+00 0. -1.
         21   -1    0    0  502  503 -0.00000000000E+00 -0.00000000000E+00 -0.15719705382E+03  0.15719705382E+03  0.00000000000E+00 0.  1.
          6    1    1    2  501    0 -0.22191997561E+03  0.58401956906E+02  0.40875038227E+03  0.49931967631E+03  0.17200000000E+03 0. -1.
         -6    1    1    2    0  503  0.22191997561E+03 -0.58401956906E+02  0.71809993808E+02  0.29563480742E+03  0.17200000000E+03 0. -1.
</event>
<event>
 4    1  0.5714562E+000  0.1728539E+03  0.7818608E-02  0.1174904E+00
         21   -1    0    0  501  502  0.00000000000E+00  0.00000000000E+00  0.60012249172E+02  0.60012249172E+02  0.00000000000E+00 0. -1.
         21   -1    0    0  502  503 -0.00000000000E+00 -0.00000000000E+00 -0.10123031539E+04  0.10123031539E+04  0.00000000000E+00 0. -1.
          6    1    1    2  501    0 -0.57169566244E+01  0.16180123360E+02 -0.85835405009E+03  0.87558560706E+03  0.17200000000E+03 0. -1.
         -6    1    1    2    0  503  0.57169566244E+01 -0.16180123360E+02 -0.93936854666E+02  0.19672979604E+03  0.17200000000E+03 0. -1.
</event>
<event>
 4    1  0.5714562E+000  0.1860035E+03  0.7818608E-02  0.1162116E+00
         21   -1    0    0  503  502  0.00000000000E+00  0.00000000000E+00  0.16680433262E+03  0.16680433262E+03  0.00000000000E+00 0.  1.
         21   -1    0    0  501  503 -0.00000000000E+00 -0.00000000000E+00 -0.21331387192E+03  0.21331387192E+03  0.00000000000E+00 0.  1.
          6    1    1    2  501    0  0.70439197164E+02  0.71842520710E+01 -0.54867190068E+02  0.19392705464E+03  0.17200000000E+03 0.  1.
         -6    1    1    2    0  502 -0.70439197164E+02 -0.71842520710E+01  0.83576507643E+01  0.18619114990E+03  0.17200000000E+03 0.  1.
</event>
<event>
 4    1  0.5714562E+000  0.2359557E+03  0.7818608E-02  0.1122517E+00
         21   -1    0    0  501  502  0.00000000000E+00  0.00000000000E+00  0.35604393279E+03  0.35604393279E+03  0.00000000000E+00 0.  1.
         21   -1    0    0  502  503 -0.00000000000E+00 -0.00000000000E+00 -0.15675570051E+03  0.15675570051E+03  0.00000000000E+00 0.  1.
          6    1    1    2  501    0  0.13584953917E+01 -0.16152161705E+03  0.86948396987E+02  0.25146590628E+03  0.17200000000E+03 0.  1.
         -6    1    1    2    0  503 -0.13584953917E+01  0.16152161705E+03  0.11233983530E+03  0.26133372702E+03  0.17200000000E+03 0.  1.
</event>
<event>
 4    1  0.5714562E+000  0.3183415E+03  0.7818608E-02  0.1076415E+00
         21   -1    0    0  503  502  0.00000000000E+00  0.00000000000E+00  0.18822881963E+03  0.18822881963E+03  0.00000000000E+00 0. -1.
         21   -1    0    0  501  503 -0.00000000000E+00 -0.00000000000E+00 -0.59618052429E+03  0.59618052429E+03  0.00000000000E+00 0.  1.
          6    1    1    2  501    0  0.26437034400E+03 -0.43192835713E+02 -0.32608171151E+03  0.45570887903E+03  0.17200000000E+03 0.  1.
         -6    1    1    2    0  502 -0.26437034400E+03  0.43192835713E+02 -0.81869993147E+02  0.32870046489E+03  0.17200000000E+03 0. -1.
</event>
<event>
 4    1  0.5714562E+000  0.2076401E+03  0.7818608E-02  0.1143448E+00
         21   -1    0    0  501  502  0.00000000000E+00  0.00000000000E+00  0.11332900942E+03  0.11332900942E+03  0.00000000000E+00 0.  1.
         21   -1    0    0  502  503 -0.00000000000E+00 -0.00000000000E+00 -0.40696636232E+03  0.40696636232E+03  0.00000000000E+00 0. -1.
          6    1    1    2  501    0  0.85284781309E+02  0.79100746938E+02 -0.80396479695E+02  0.22266121359E+03  0.17200000000E+03 0.  1.
         -6    1    1    2    0  503 -0.85284781309E+02 -0.79100746938E+02 -0.21324087321E+03  0.29763415815E+03  0.17200000000E+03 0.  1.
</event>
<event>
 4    1  0.5714562E+000  0.2400538E+03  0.7818608E-02  0.1119757E+00
         21   -1    0    0  501  502  0.00000000000E+00  0.00000000000E+00  0.70532066091E+03  0.70532066091E+03  0.00000000000E+00 0.  1.
         21   -1    0    0  502  503 -0.00000000000E+00 -0.00000000000E+00 -0.83641247530E+02  0.83641247530E+02  0.00000000000E+00 0. -1.
          6    1    1    2  501    0  0.78864307055E+02  0.14772356536E+03  0.37091232125E+03  0.44181645595E+03  0.17200000000E+03 0.  1.
         -6    1    1    2    0  503 -0.78864307055E+02 -0.14772356536E+03  0.25076709213E+03  0.34714545249E+03  0.17200000000E+03 0. -1.
</event>
<event>
 4    1  0.5714562E+000  0.2102142E+03  0.7818608E-02  0.1141396E+00
         21   -1    0    0  501  502  0.00000000000E+00  0.00000000000E+00  0.53093896042E+03  0.53093896042E+03  0.00000000000E+00 0. -1.
         21   -1    0    0  502  503 -0.00000000000E+00 -0.00000000000E+00 -0.11664156357E+03  0.11664156357E+03  0.00000000000E+00 0. -1.
          6    1    1    2  501    0 -0.11865124428E+03 -0.22976145871E+02  0.38044363253E+03  0.43465777179E+03  0.17200000000E+03 0.  1.
         -6    1    1    2    0  503  0.11865124428E+03  0.22976145871E+02  0.33853764322E+02  0.21292275221E+03  0.17200000000E+03 0.  1.
</event>
<event>
 4    1  0.5714562E+000  0.2074807E+03  0.7818608E-02  0.1143577E+00
         21   -1    0    0  503  502  0.00000000000E+00  0.00000000000E+00  0.10546821702E+04  0.10546821702E+04  0.00000000000E+00 0. -1.
         21   -1    0    0  501  503 -0.00000000000E+00 -0.00000000000E+00 -0.45025386168E+02  0.45025386168E+02  0.00000000000E+00 0. -1.
          6    1    1    2  501    0 -0.73080663355E+02  0.90130290442E+02  0.33671163938E+03  0.39550345221E+03  0.17200000000E+03 0. -1.
         -6    1    1    2    0  502  0.73080663355E+02 -0.90130290442E+02  0.67294514466E+03  0.70420410418E+03  0.17200000000E+03 0. -1.
</event>
<event>
 4    1  0.5714562E+000  0.2261863E+03  0.7818608E-02  0.1129353E+00
         21   -1    0    0  503  502  0.00000000000E+00  0.00000000000E+00  0.18537539888E+04  0.18537539888E+04  0.00000000000E+00 0.  1.
         21   -1    0    0  501  503 -0.00000000000E+00 -0.00000000000E+00 -0.58800241457E+02  0.58800241457E+02  0.00000000000E+00 0.  1.
          6    1    1    2  501    0  0.72285837550E+02  0.12787107307E+03  0.20087315794E+03  0.30250665979E+03  0.17200000000E+03 0.  1.
         -6    1    1    2    0  502 -0.72285837550E+02 -0.12787107307E+03  0.15940805894E+04  0.16100475705E+04  0.17200000000E+03 0.  1.
</event>
<event>
 4    1  0.5714562E+000  0.1890667E+03  0.7818608E-02  0.1159306E+00
         21   -1    0    0  501  502  0.00000000000E+00  0.00000000000E+00  0.50056084337E+03  0.50056084337E+03  0.00000000000E+00 0. -1.
         21   -1    0    0  502  503 -0.00000000000E+00 -0.00000000000E+00 -0.72378309744E+02  0.72378309744E+02  0.00000000000E+00 0. -1.
          6    1    1    2  501    0 -0.74276812937E+02 -0.25400322069E+02  0.24718577838E+03  0.31120255516E+03  0.17200000000E+03 0. -1.
         -6    1    1    2    0  503  0.74276812937E+02  0.25400322069E+02  0.18099675524E+03  0.26173659796E+03  0.17200000000E+03 0. -1.
</event>
<event>
 4    1  0.5714562E+000  0.2235268E+03  0.7818608E-02  0.1131281E+00
         21   -1    0    0  501  502  0.00000000000E+00  0.00000000000E+00  0.36081157453E+03  0.36081157453E+03  0.00000000000E+00 0. -1.
         21   -1    0    0  502  503 -0.00000000000E+00 -0.00000000000E+00 -0.19546770189E+03  0.19546770189E+03  0.00000000000E+00 0.  1.
          6    1    1    2  501    0 -0.13348034927E+03  0.50628320269E+02  0.23285676161E+03  0.32277933931E+03  0.17200000000E+03 0. -1.
         -6    1    1    2    0  503  0.13348034927E+03 -0.50628320269E+02 -0.67512888972E+02  0.23349993712E+03  0.17200000000E+03 0.  1.
</event>
<event>
 4    1  0.5714562E+000  0.1951411E+03  0.7818608E-02  0.1153904E+00
         21   -1    0    0  503  502  0.00000000000E+00  0.00000000000E+00  0.67922244867E+03  0.67922244867E+03  0.00000000000E+00 0.  1.
         21   -1    0    0  501  503 -0.00000000000E+00 -0.00000000000E+00 -0.56110713321E+02  0.56110713321E+02  0.00000000000E+00 0.  1.
          6    1    1    2  501    0 -0.56900900972E+02 -0.72514267808E+02  0.32214687569E+03  0.37664126312E+03  0.17200000000E+03 0.  1.
         -6    1    1    2    0  502  0.56900900972E+02  0.72514267808E+02  0.30096485965E+03  0.35869189887E+03  0.17200000000E+03 0.  1.
</event>
<event>
 4    1  0.5714562E+000  0.2587504E+03  0.7818608E-02  0.1107896E+00
         21   -1    0    0  503  502  0.00000000000E+00  0.00000000000E+00  0.34172602669E+03  0.34172602669E+03  0.00000000000E+00 0.  1.
         21   -1    0    0  501  503 -0.00000000000E+00 -0.00000000000E+00 -0.28300284821E+03  0.28300284821E+03  0.00000000000E+00 0. -1.
          6    1    1    2  501    0  0.92697135829E+02  0.16963191972E+03 -0.14390976590E+03  0.29607730055E+03  0.17200000000E+03 0. -1.
         -6    1    1    2    0  502 -0.92697135829E+02 -0.16963191972E+03  0.20263294438E+03  0.32865157436E+03  0.17200000000E+03 0.  1.
</event>
<event>
 4    1  0.5714562E+000  0.1808138E+03  0.7818608E-02  0.1167018E+00
         21   -1    0    0  501  502  0.00000000000E+00  0.00000000000E+00  0.22484765953E+02  0.22484765953E+02  0.00000000000E+00 0. -1.
         21   -1    0    0  502  503 -0.00000000000E+00 -0.00000000000E+00 -0.14576825985E+04  0.14576825985E+04  0.00000000000E+00 0. -1.
          6    1    1    2  501    0 -0.20555453498E+02 -0.51837415863E+02 -0.75461858254E+03  0.77597863983E+03  0.17200000000E+03 0. -1.
         -6    1    1    2    0  503  0.20555453498E+02  0.51837415863E+02 -0.68057925000E+03  0.70418872462E+03  0.17200000000E+03 0. -1.
</event>
<event>
 4    1  0.5714562E+000  0.1806471E+03  0.7818608E-02  0.1167178E+00
         21   -1    0    0  501  502  0.00000000000E+00  0.00000000000E+00  0.24185694299E+02  0.24185694299E+02  0.00000000000E+00 0. -1.
         21   -1    0    0  502  503 -0.00000000000E+00 -0.00000000000E+00 -0.13689730063E+04  0.13689730063E+04  0.00000000000E+00 0. -1.
          6    1    1    2  501    0  0.29169249292E+02 -0.46888372553E+02 -0.58885496229E+03  0.61594117511E+03  0.17200000000E+03 0. -1.
         -6    1    1    2    0  503 -0.29169249292E+02  0.46888372553E+02 -0.75593234974E+03  0.77721752552E+03  0.17200000000E+03 0. -1.
</event>
<event>
 4    1  0.5714562E+000  0.2174807E+03  0.7818608E-02  0.1135775E+00
         21   -1    0    0  501  502  0.00000000000E+00  0.00000000000E+00  0.94834158062E+03  0.94834158062E+03  0.00000000000E+00 0. -1.
         21   -1    0    0  502  503 -0.00000000000E+00 -0.00000000000E+00 -0.96915070845E+02  0.96915070845E+02  0.00000000000E+00 0.  1.
          6    1    1    2  501    0  0.10124736401E+03 -0.86387757230E+02  0.78982483915E+03  0.81921984220E+03  0.17200000000E+03 0. -1.
         -6    1    1    2    0  503 -0.10124736401E+03  0.86387757230E+02  0.61601670625E+02  0.22603680926E+03  0.17200000000E+03 0.  1.
</event>
<event>
 4    1  0.5714562E+000  0.2460439E+03  0.7818608E-02  0.1115831E+00
         21   -1    0    0  501  502  0.00000000000E+00  0.00000000000E+00  0.36556393148E+04  0.36556393148E+04  0.00000000000E+00 0. -1.
         21   -1    0    0  502  503 -0.00000000000E+00 -0.00000000000E+00 -0.22134358949E+02  0.22134358949E+02  0.00000000000E+00 0.  1.
          6    1    1    2  501    0  0.17362140369E+03 -0.28446442940E+02  0.27395720818E+04  0.27505986227E+04  0.17200000000E+03 0. -1.
         -6    1    1    2    0  503 -0.17362140369E+03  0.28446442940E+02  0.89393287399E+03  0.92717505097E+03  0.17200000000E+03 0.  1.
</event>
<event>
 4    1  0.5714562E+000  0.2162998E+03  0.7818608E-02  0.1136672E+00
         21   -1    0    0  503  502  0.00000000000E+00  0.00000000000E+00  0.58729177442E+03  0.58729177442E+03  0.00000000000E+00 0.  1.
         21   -1    0    0  501  503 -0.00000000000E+00 -0.00000000000E+00 -0.11005340264E+03  0.11005340264E+03  0.00000000000E+00 0.  1.
          6    1    1    2  501    0 -0.13078862062E+03  0.97954080541E+01  0.55395337769E+02  0.22328066811E+03  0.17200000000E+03 0.  1.
         -6    1    1    2    0  502  0.13078862062E+03 -0.97954080541E+01  0.42184303401E+03  0.47406450895E+03  0.17200000000E+03 0.  1.
</event>
<event>
 4    1  0.5714562E+000  0.1790794E+03  0.7818608E-02  0.1168697E+00
         21   -1    0    0  503  502  0.00000000000E+00  0.00000000000E+00  0.11965424373E+03  0.11965424373E+03  0.00000000000E+00 0.  1.
         21   -1    0    0  501  503 -0.00000000000E+00 -0.00000000000E+00 -0.29579655031E+03  0.29579655031E+03  0.00000000000E+00 0.  1.
          6    1    1    2  501    0  0.24095384838E+02  0.43644508254E+02 -0.15172897617E+03  0.23471496092E+03  0.17200000000E+03 0.  1.
         -6    1    1    2    0  502 -0.24095384838E+02 -0.43644508254E+02 -0.24413330403E+02  0.18073583312E+03  0.17200000000E+03 0.  1.
</event>
<event>
 4    1  0.5714562E+000  0.1811347E+03  0.7818608E-02  0.1166709E+00
         21   -1    0    0  501  502  0.00000000000E+00  0.00000000000E+00  0.12200802423E+02  0.12200802423E+02  0.00000000000E+00 0. -1.
         21   -1    0    0  502  503 -0.00000000000E+00 -0.00000000000E+00 -0.31164790281E+04  0.31164790281E+04  0.00000000000E+00 0. -1.
          6    1    1    2  501    0 -0.26244866437E+02  0.50368493818E+02 -0.97286966683E+03  0.98958838252E+03  0.17200000000E+03 0. -1.
         -6    1    1    2    0  503  0.26244866437E+02 -0.50368493818E+02 -0.21314085589E+04  0.21390914480E+04  0.17200000000E+03 0. -1.
</event>
<event>
 4    1  0.5714562E+000  0.1877141E+03  0.7818608E-02  0.1160539E+00
         21   -1    0    0  501  502  0.00000000000E+00  0.00000000000E+00  0.49347773675E+03  0.49347773675E+03  0.00000000000E+00 0.  1.
         21   -1    0    0  502  503 -0.00000000000E+00 -0.00000000000E+00 -0.10240201173E+03  0.10240201173E+03  0.00000000000E+00 0.  1.
          6    1    1    2  501    0  0.75106170633E+02  0.34123162159E+01  0.35945980678E+03  0.40552180393E+03  0.17200000000E+03 0.  1.
         -6    1    1    2    0  503 -0.75106170633E+02 -0.34123162159E+01  0.31615918240E+02  0.19035794456E+03  0.17200000000E+03 0.  1.
</event>
<event>
 4    1  0.5714562E+000  0.2156146E+03  0.7818608E-02  0.1137195E+00
         21   -1    0    0  501  502  0.00000000000E+00  0.00000000000E+00  0.40228316140E+03  0.40228316140E+03  0.00000000000E+00 0. -1.
         21   -1    0    0  502  503 -0.00000000000E+00 -0.00000000000E+00 -0.13680440925E+03  0.13680440925E+03  0.00000000000E+00 0. -1.
          6    1    1    2  501    0  0.11612073902E+03 -0.58494626630E+02  0.23894700950E+03  0.32184673484E+03  0.17200000000E+03 0. -1.
         -6    1    1    2    0  503 -0.11612073902E+03  0.58494626630E+02  0.26531742644E+02  0.21724083581E+03  0.17200000000E+03 0. -1.
</event>
<event>
 4    1  0.5714562E+000  0.1841115E+03  0.7818608E-02  0.1163882E+00
         21   -1    0    0  503  502  0.00000000000E+00  0.00000000000E+00  0.92475361683E+02  0.92475361683E+02  0.00000000000E+00 0. -1.
         21   -1    0    0  501  503 -0.00000000000E+00 -0.00000000000E+00 -0.13366764919E+04  0.13366764919E+04  0.00000000000E+00 0. -1.
          6    1    1    2  501    0  0.63140890342E+02 -0.18062633162E+02 -0.12308645566E+04  0.12445579887E+04  0.17200000000E+03 0. -1.
         -6    1    1    2    0  502 -0.63140890342E+02  0.18062633162E+02 -0.13336573688E+02  0.18459386487E+03  0.17200000000E+03 0. -1.
</event>
<event>
 4    1  0.5714562E+000  0.1774719E+03  0.7818608E-02  0.1170272E+00
         21   -1    0    0  501  502  0.00000000000E+00  0.00000000000E+00  0.12098106965E+03  0.12098106965E+03  0.00000000000E+00 0. -1.
         21   -1    0    0  502  503 -0.00000000000E+00 -0.00000000000E+00 -0.43034668486E+03  0.43034668486E+03  0.00000000000E+00 0. -1.
          6    1    1    2  501    0 -0.25999542362E+02  0.35161208195E+02  0.18578997981E+02  0.17844177182E+03  0.17200000000E+03 0. -1.
         -6    1    1    2    0  503  0.25999542362E+02 -0.35161208195E+02 -0.32794461320E+03  0.37288598269E+03  0.17200000000E+03 0. -1.
</event>
<event>
 4    1  0.5714562E+000  0.2175429E+03  0.7818608E-02  0.1135728E+00
         21   -1    0    0  501  502  0.00000000000E+00  0.00000000000E+00  0.73706398692E+03  0.73706398692E+03  0.00000000000E+00 0.  1.
         21   -1    0    0  502  503 -0.00000000000E+00 -0.00000000000E+00 -0.76182160282E+02  0.76182160282E+02  0.00000000000E+00 0.  1.
          6    1    1    2  501    0 -0.10743704365E+03 -0.78728511969E+02  0.49165403861E+03  0.53763239358E+03  0.17200000000E+03 0.  1.
         -6    1    1    2    0  503  0.10743704365E+03  0.78728511969E+02  0.16922778803E+03  0.27561375363E+03  0.17200000000E+03 0.  1.
</event>
<event>
 4    1  0.5714562E+000  0.1924882E+03  0.7818608E-02  0.1156236E+00
         21   -1    0    0  503  502  0.00000000000E+00  0.00000000000E+00  0.49241079092E+02  0.49241079092E+02  0.00000000000E+00 0. -1.
         21   -1    0    0  501  503 -0.00000000000E+00 -0.00000000000E+00 -0.10177861657E+04  0.10177861657E+04  0.00000000000E+00 0.  1.
          6    1    1    2  501    0  0.16559784649E+02 -0.84814441616E+02 -0.75667501537E+03  0.78077448400E+03  0.17200000000E+03 0.  1.
         -6    1    1    2    0  502 -0.16559784649E+02  0.84814441616E+02 -0.21187007122E+03  0.28625276078E+03  0.17200000000E+03 0. -1.
</event>
<event>
 4    1  0.5714562E+000  0.2325532E+03  0.7818608E-02  0.1124855E+00
         21   -1    0    0  503  502  0.00000000000E+00  0.00000000000E+00  0.10578488120E+04  0.10578488120E+04  0.00000000000E+00 0. -1.
         21   -1    0    0  501  503 -0.00000000000E+00 -0.00000000000E+00 -0.54909358217E+02  0.54909358217E+02  0.00000000000E+00 0. -1.
          6    1    1    2  501    0  0.14485781462E+03 -0.59272409070E+02  0.35537789844E+03  0.42470513963E+03  0.17200000000E+03 0.  1.
         -6    1    1    2    0  502 -0.14485781462E+03  0.59272409070E+02  0.64756155537E+03  0.68805303060E+03  0.17200000000E+03 0.  1.
</event>
<event>
 4    1  0.5714562E+000  0.2482233E+03  0.7818608E-02  0.1114433E+00
         21   -1    0    0  501  502  0.00000000000E+00  0.00000000000E+00  0.30671507792E+03  0.30671507792E+03  0.00000000000E+00 0.  1.
         21   -1    0    0  502  503 -0.00000000000E+00 -0.00000000000E+00 -0.21100432741E+03  0.21100432741E+03  0.00000000000E+00 0.  1.
          6    1    1    2  501    0 -0.15804796356E+03 -0.83974003425E+02 -0.88300291408E+01  0.24838027589E+03  0.17200000000E+03 0.  1.
         -6    1    1    2    0  503  0.15804796356E+03  0.83974003425E+02  0.10454077966E+03  0.26933912944E+03  0.17200000000E+03 0.  1.
</event>
<event>
 4    1  0.5714562E+000  0.1977433E+03  0.7818608E-02  0.1151657E+00
         21   -1    0    0  503  502  0.00000000000E+00  0.00000000000E+00  0.89826619658E+02  0.89826619658E+02  0.00000000000E+00 0. -1.
         21   -1    0    0  501  503 -0.00000000000E+00 -0.00000000000E+00 -0.65097615479E+03  0.65097615479E+03  0.00000000000E+00 0. -1.
          6    1    1    2  501    0  0.51677938157E+02  0.82751340629E+02 -0.49377193091E+03  0.53189577309E+03  0.17200000000E+03 0. -1.
         -6    1    1    2    0  502 -0.51677938157E+02 -0.82751340629E+02 -0.67377604217E+02  0.20890700136E+03  0.17200000000E+03 0. -1.
</event>
<event>
 4    1  0.5714562E+000  0.2616702E+03  0.7818608E-02  0.1106144E+00
         21   -1    0    0  501  502  0.00000000000E+00  0.00000000000E+00  0.18012147142E+03  0.18012147142E+03  0.00000000000E+00 0. -1.
         21   -1    0    0  502  503 -0.00000000000E+00 -0.00000000000E+00 -0.42909260880E+03  0.42909260880E+03  0.00000000000E+00 0. -1.
          6    1    1    2  501    0 -0.18958381417E+03 -0.54270532285E+02 -0.22737100148E+03  0.34665384115E+03  0.17200000000E+03 0. -1.
         -6    1    1    2    0  503  0.18958381417E+03  0.54270532285E+02 -0.21600135894E+02  0.26256023907E+03  0.17200000000E+03 0. -1.
</event>
<event>
 4    1  0.5714562E+000  0.1989185E+03  0.7818608E-02  0.1150655E+00
         21   -1    0    0  503  502  0.00000000000E+00  0.00000000000E+00  0.10526030014E+03  0.10526030014E+03  0.00000000000E+00 0.  1.
         21   -1    0    0  501  503 -0.00000000000E+00 -0.00000000000E+00 -0.41267678846E+03  0.41267678846E+03  0.00000000000E+00 0. -1.
          6    1    1    2  501    0  0.73819340382E+02 -0.67344344997E+02 -0.23100496450E+03  0.30484725592E+03  0.17200000000E+03 0. -1.
         -6    1    1    2    0  502 -0.73819340382E+02  0.67344344997E+02 -0.76411523823E+02  0.21308983268E+03  0.17200000000E+03 0.  1.
</event>
<event>
 4    1  0.5714562E+000  0.1940234E+03  0.7818608E-02  0.1154882E+00
         21   -1    0    0  501  502  0.00000000000E+00  0.00000000000E+00  0.33862547555E+03  0.33862547555E+03  0.00000000000E+00 0. -1.
         21   -1    0    0  502  503 -0.00000000000E+00 -0.00000000000E+00 -0.14731221501E+03  0.14731221501E+03  0.00000000000E+00 0. -1.
          6    1    1    2  501    0  0.69471515675E+02  0.56875293559E+02  0.21600407739E+03  0.29034953410E+03  0.17200000000E+03 0. -1.
         -6    1    1    2    0  503 -0.69471515675E+02 -0.56875293559E+02 -0.24690816853E+02  0.19558815645E+03  0.17200000000E+03 0. -1.
</event>
<event>
 4    1  0.5714562E+000  0.2132777E+03  0.7818608E-02  0.1138996E+00
         21   -1    0    0  503  502  0.00000000000E+00  0.00000000000E+00  0.13604057590E+04  0.13604057590E+04  0.00000000000E+00 0.  1.
         21   -1    0    0  501  503 -0.00000000000E+00 -0.00000000000E+00 -0.33457771642E+02  0.33457771642E+02  0.00000000000E+00 0. -1.
          6    1    1    2  501    0  0.61184100451E+02  0.11027189897E+03  0.68099250702E+03  0.71360926316E+03  0.17200000000E+03 0.  1.
         -6    1    1    2    0  502 -0.61184100451E+02 -0.11027189897E+03  0.64595548038E+03  0.68025426752E+03  0.17200000000E+03 0.  1.
</event>
<event>
 4    1  0.5714562E+000  0.1843585E+03  0.7818608E-02  0.1163650E+00
         21   -1    0    0  501  502  0.00000000000E+00  0.00000000000E+00  0.30396936937E+03  0.30396936937E+03  0.00000000000E+00 0. -1.
         21   -1    0    0  502  503 -0.00000000000E+00 -0.00000000000E+00 -0.11256338471E+03  0.11256338471E+03  0.00000000000E+00 0. -1.
          6    1    1    2  501    0 -0.42045590084E+02  0.51344080521E+02  0.78710443369E+02  0.20045792612E+03  0.17200000000E+03 0.  1.
         -6    1    1    2    0  503  0.42045590084E+02 -0.51344080521E+02  0.11269554129E+03  0.21607482796E+03  0.17200000000E+03 0.  1.
</event>
<event>
 4    1  0.5714562E+000  0.2069871E+03  0.7818608E-02  0.1143974E+00
         21   -1    0    0  503  502  0.00000000000E+00  0.00000000000E+00  0.12780947473E+03  0.12780947473E+03  0.00000000000E+00 0.  1.
         21   -1    0    0  501  503 -0.00000000000E+00 -0.00000000000E+00 -0.33663089958E+03  0.33663089958E+03  0.00000000000E+00 0.  1.
          6    1    1    2  501    0  0.39622328494E+02  0.10811914998E+03 -0.11947010603E+03  0.23899118340E+03  0.17200000000E+03 0. -1.
         -6    1    1    2    0  502 -0.39622328494E+02 -0.10811914998E+03 -0.89351318824E+02  0.22544919091E+03  0.17200000000E+03 0. -1.
</event>
<event>
 4    1  0.5714562E+000  0.2213266E+03  0.7818608E-02  0.1132898E+00
         21   -1    0    0  501  502  0.00000000000E+00  0.00000000000E+00  0.94629440306E+02  0.94629440306E+02  0.00000000000E+00 0.  1.
         21   -1    0    0  502  503 -0.00000000000E+00 -0.00000000000E+00 -0.11109377856E+04  0.11109377856E+04  0.00000000000E+00 0. -1.
          6    1    1    2  501    0  0.78675331706E+02 -0.11494204368E+03 -0.67652929074E+02  0.23143552026E+03  0.17200000000E+03 0.  1.
         -6    1    1    2    0  503 -0.78675331706E+02  0.11494204368E+03 -0.94865541625E+03  0.97413170567E+03  0.17200000000E+03 0. -1.
</event>
<event>
 4    1  0.5714562E+000  0.2577684E+03  0.7818608E-02  0.1108492E+00
         21   -1    0    0  503  502  0.00000000000E+00  0.00000000000E+00  0.67475058999E+03  0.67475058999E+03  0.00000000000E+00 0. -1.
         21   -1    0    0  501  503 -0.00000000000E+00 -0.00000000000E+00 -0.14450166661E+03  0.14450166661E+03  0.00000000000E+00 0.  1.
          6    1    1    2  501    0 -0.14768780816E+03 -0.12267369529E+03  0.33935681962E+02  0.25999260510E+03  0.17200000000E+03 0.  1.
         -6    1    1    2    0  502  0.14768780816E+03  0.12267369529E+03  0.49631324141E+03  0.55925965150E+03  0.17200000000E+03 0. -1.
</event>
<event>
 4    1  0.5714562E+000  0.2024706E+03  0.7818608E-02  0.1147671E+00
         21   -1    0    0  501  502  0.00000000000E+00  0.00000000000E+00  0.36387001078E+04  0.36387001078E+04  0.00000000000E+00 0. -1.
         21   -1    0    0  502  503 -0.00000000000E+00 -0.00000000000E+00 -0.11887333142E+02  0.11887333142E+02  0.00000000000E+00 0. -1.
          6    1    1    2  501    0  0.31242523090E+02 -0.10214819529E+03  0.22306410739E+04  0.22398111416E+04  0.17200000000E+03 0. -1.
         -6    1    1    2    0  503 -0.31242523090E+02  0.10214819529E+03  0.13961717007E+04  0.14107762994E+04  0.17200000000E+03 0. -1.
</event>
<event>
 4    1  0.5714562E+000  0.2131018E+03  0.7818608E-02  0.1139133E+00
         21   -1    0    0  501  502  0.00000000000E+00  0.00000000000E+00  0.68440049889E+03  0.68440049889E+03  0.00000000000E+00 0.  1.
         21   -1    0    0  502  503 -0.00000000000E+00 -0.00000000000E+00 -0.15836641191E+03  0.15836641191E+03  0.00000000000E+00 0.  1.
          6    1    1    2  501    0 -0.97488515512E+02  0.79525814713E+02  0.58421319876E+03  0.62186608483E+03  0.17200000000E+03 0.  1.
         -6    1    1    2    0  503  0.97488515512E+02 -0.79525814713E+02 -0.58179111787E+02  0.22090082596E+03  0.17200000000E+03 0.  1.
</event>
<event>
 4    1  0.5714562E+000  0.2679681E+03  0.7818608E-02  0.1102448E+00
         21   -1    0    0  501  502  0.00000000000E+00  0.00000000000E+00  0.31692316578E+03  0.31692316578E+03  0.00000000000E+00 0.  1.
         21   -1    0    0  502  503 -0.00000000000E+00 -0.00000000000E+00 -0.40325105759E+03  0.40325105759E+03  0.00000000000E+00 0. -1.
          6    1    1    2  501    0  0.15367942462E+03 -0.13640216066E+03 -0.28151028228E+03  0.38865788814E+03  0.17200000000E+03 0. -1.
         -6    1    1    2    0  503 -0.15367942462E+03  0.13640216066E+03  0.19518239046E+03  0.33151633524E+03  0.17200000000E+03 0.  1.
</event>
<event>
 4    1  0.5714562E+000  0.2084886E+03  0.7818608E-02  0.1142768E+00
         21   -1    0    0  501  502  0.00000000000E+00  0.00000000000E+00  0.24011915465E+03  0.24011915465E+03  0.00000000000E+00 0. -1.
         21   -1    0    0  502  503 -0.00000000000E+00 -0.00000000000E+00 -0.18344147936E+03  0.18344147936E+03  0.00000000000E+00 0. -1.
          6    1    1    2  501    0 -0.41157008688E+02  0.11040644250E+03  0.52647514517E+02  0.21503311999E+03  0.17200000000E+03 0. -1.
         -6    1    1    2    0  503  0.41157008688E+02 -0.11040644250E+03  0.40301607770E+01  0.20852751402E+03  0.17200000000E+03 0. -1.
</event>
<event>
 4    1  0.5714562E+000  0.2341928E+03  0.7818608E-02  0.1123723E+00
         21   -1    0    0  501  502  0.00000000000E+00  0.00000000000E+00  0.12297098945E+03  0.12297098945E+03  0.00000000000E+00 0.  1.
         21   -1    0    0  502  503 -0.00000000000E+00 -0.00000000000E+00 -0.92464008990E+03  0.92464008990E+03  0.00000000000E+00 0.  1.
          6    1    1    2  501    0 -0.51255213748E+02 -0.15044985320E+03 -0.77769786022E+03  0.81219469160E+03  0.17200000000E+03 0.  1.
         -6    1    1    2    0  503  0.51255213748E+02  0.15044985320E+03 -0.23971240225E+02  0.23541638775E+03  0.17200000000E+03 0.  1.
</event>
<event>
 4    1  0.5714562E+000  0.3590656E+03  0.7818608E-02  0.1058954E+00
         21   -1    0    0  503  502  0.00000000000E+00  0.00000000000E+00  0.18351789561E+03  0.18351789561E+03  0.00000000000E+00 0. -1.
         21   -1    0    0  501  503 -0.00000000000E+00 -0.00000000000E+00 -0.10088670078E+04  0.10088670078E+04  0.00000000000E+00 0.  1.
          6    1    1    2  501    0  0.28722145451E+03 -0.12979954466E+03 -0.74119650090E+03  0.82358990929E+03  0.17200000000E+03 0.  1.
         -6    1    1    2    0  502 -0.28722145451E+03  0.12979954466E+03 -0.84152611328E+02  0.36879499416E+03  0.17200000000E+03 0. -1.
</event>
<event>
 4    1  0.5714562E+000  0.2395521E+03  0.7818608E-02  0.1120092E+00
         21   -1    0    0  503  502  0.00000000000E+00  0.00000000000E+00  0.69328258841E+03  0.69328258841E+03  0.00000000000E+00 0.  1.
         21   -1    0    0  501  503 -0.00000000000E+00 -0.00000000000E+00 -0.83072385326E+02  0.83072385326E+02  0.00000000000E+00 0.  1.
          6    1    1    2  501    0 -0.15017756317E+03 -0.72442537441E+02  0.32840041860E+03  0.40648746186E+03  0.17200000000E+03 0.  1.
         -6    1    1    2    0  502  0.15017756317E+03  0.72442537441E+02  0.28180978448E+03  0.36986751187E+03  0.17200000000E+03 0.  1.
</event>
<event>
 4    1  0.5714562E+000  0.2258171E+03  0.7818608E-02  0.1129619E+00
         21   -1    0    0  503  502  0.00000000000E+00  0.00000000000E+00  0.19479481887E+04  0.19479481887E+04  0.00000000000E+00 0. -1.
         21   -1    0    0  501  503 -0.00000000000E+00 -0.00000000000E+00 -0.50324706717E+02  0.50324706717E+02  0.00000000000E+00 0. -1.
          6    1    1    2  501    0 -0.14589535550E+03 -0.11131630584E+02  0.25672071117E+03  0.34190479889E+03  0.17200000000E+03 0. -1.
         -6    1    1    2    0  502  0.14589535550E+03  0.11131630584E+02  0.16409027708E+04  0.16563680965E+04  0.17200000000E+03 0. -1.
</event>
<event>
 4    1  0.5714562E+000  0.1844859E+03  0.7818608E-02  0.1163531E+00
         21   -1    0    0  503  502  0.00000000000E+00  0.00000000000E+00  0.51418285368E+03  0.51418285368E+03  0.00000000000E+00 0.  1.
         21   -1    0    0  501  503 -0.00000000000E+00 -0.00000000000E+00 -0.22611359596E+03  0.22611359596E+03  0.00000000000E+00 0.  1.
          6    1    1    2  501    0  0.61011633513E+02  0.26992937064E+02 -0.16725542088E+03  0.24901689479E+03  0.17200000000E+03 0.  1.
         -6    1    1    2    0  502 -0.61011633513E+02 -0.26992937064E+02  0.45532467860E+03  0.49127955485E+03  0.17200000000E+03 0.  1.
</event>
<event>
 4    1  0.5714562E+000  0.2021298E+03  0.7818608E-02  0.1147954E+00
         21   -1    0    0  503  502  0.00000000000E+00  0.00000000000E+00  0.18601915658E+03  0.18601915658E+03  0.00000000000E+00 0.  1.
         21   -1    0    0  501  503 -0.00000000000E+00 -0.00000000000E+00 -0.21966665756E+03  0.21966665756E+03  0.00000000000E+00 0. -1.
          6    1    1    2  501    0 -0.10129959682E+03  0.31793952495E+02 -0.19228415205E+02  0.20304234948E+03  0.17200000000E+03 0.  1.
         -6    1    1    2    0  502  0.10129959682E+03 -0.31793952495E+02 -0.14419085772E+02  0.20264346465E+03  0.17200000000E+03 0. -1.
</event>
<event>
 4    1  0.5714562E+000  0.1722896E+03  0.7818608E-02  0.1175481E+00
         21   -1    0    0  503  502  0.00000000000E+00  0.00000000000E+00  0.23828820095E+02  0.23828820095E+02  0.00000000000E+00 0. -1.
         21   -1    0    0  501  503 -0.00000000000E+00 -0.00000000000E+00 -0.15906035119E+04  0.15906035119E+04  0.00000000000E+00 0. -1.
          6    1    1    2  501    0 -0.11649145184E+01  0.99169888654E+01 -0.11592714201E+04  0.11720042360E+04  0.17200000000E+03 0. -1.
         -6    1    1    2    0  502  0.11649145184E+01 -0.99169888654E+01 -0.40750327171E+03  0.44242809602E+03  0.17200000000E+03 0. -1.
</event>
<event>
 4    1  0.5714562E+000  0.1882061E+03  0.7818608E-02  0.1160089E+00
         21   -1    0    0  501  502  0.00000000000E+00  0.00000000000E+00  0.17572819630E+03  0.17572819630E+03  0.00000000000E+00 0.  1.
         21   -1    0    0  502  503 -0.00000000000E+00 -0.00000000000E+00 -0.20616127512E+03  0.20616127512E+03  0.00000000000E+00 0. -1.
          6    1    1    2  501    0  0.32737733111E+02 -0.69034645696E+02  0.13278443067E+02  0.18867394766E+03  0.17200000000E+03 0.  1.
         -6    1    1    2    0  503 -0.32737733111E+02  0.69034645696E+02 -0.43711521880E+02  0.19321552376E+03  0.17200000000E+03 0. -1.
</event>
<event>
 4    1  0.5714562E+000  0.2091591E+03  0.7818608E-02  0.1142234E+00
         21   -1    0    0  503  502  0.00000000000E+00  0.00000000000E+00  0.24267444923E+04  0.24267444923E+04  0.00000000000E+00 0.  1.
         21   -1    0    0  501  503 -0.00000000000E+00 -0.00000000000E+00 -0.27081497992E+02  0.27081497992E+02  0.00000000000E+00 0. -1.
          6    1    1    2  501    0 -0.79859436288E+02  0.88238336588E+02  0.49041125147E+03  0.53315169434E+03  0.17200000000E+03 0. -1.
         -6    1    1    2    0  502  0.79859436288E+02 -0.88238336588E+02  0.19092517429E+04  0.19206742960E+04  0.17200000000E+03 0.  1.
</event>
<event>
 4    1  0.5714562E+000  0.1801868E+03  0.7818608E-02  0.1167622E+00
         21   -1    0    0  501  502  0.00000000000E+00  0.00000000000E+00  0.14296900635E+03  0.14296900635E+03  0.00000000000E+00 0. -1.
         21   -1    0    0  502  503 -0.00000000000E+00 -0.00000000000E+00 -0.24811384042E+03  0.24811384042E+03  0.00000000000E+00 0. -1.
          6    1    1    2  501    0 -0.47547097812E+02 -0.24951116848E+02  0.43438707860E+01  0.18023915766E+03  0.17200000000E+03 0. -1.
         -6    1    1    2    0  503  0.47547097812E+02  0.24951116848E+02 -0.10948870486E+03  0.21084368910E+03  0.17200000000E+03 0. -1.
</event>
<event>
 4    1  0.5714562E+000  0.2526132E+03  0.7818608E-02  0.1111664E+00
         21   -1    0    0  503  502  0.00000000000E+00  0.00000000000E+00  0.14235510486E+04  0.14235510486E+04  0.00000000000E+00 0. -1.
         21   -1    0    0  501  503 -0.00000000000E+00 -0.00000000000E+00 -0.98288311934E+02  0.98288311934E+02  0.00000000000E+00 0. -1.
          6    1    1    2  501    0  0.41475576896E+02  0.18030306817E+03  0.10144388179E+03  0.27222101503E+03  0.17200000000E+03 0. -1.
         -6    1    1    2    0  502 -0.41475576896E+02 -0.18030306817E+03  0.12238188549E+04  0.12496183455E+04  0.17200000000E+03 0. -1.
</event>
<event>
 4    1  0.5714562E+000  0.2075021E+03  0.7818608E-02  0.1143559E+00
         21   -1    0    0  501  502  0.00000000000E+00  0.00000000000E+00  0.13192256138E+04  0.13192256138E+04  0.00000000000E+00 0. -1.
         21   -1    0    0  502  503 -0.00000000000E+00 -0.00000000000E+00 -0.64929071374E+02  0.64929071374E+02  0.00000000000E+00 0.  1.
          6    1    1    2  501    0 -0.97789321868E+02 -0.62533030681E+02  0.11152102876E+04  0.11343505265E+04  0.17200000000E+03 0. -1.
         -6    1    1    2    0  503  0.97789321868E+02  0.62533030681E+02  0.13908625477E+03  0.24980415862E+03  0.17200000000E+03 0.  1.
</event>
<event>
 4    1  0.5714562E+000  0.1754038E+03  0.7818608E-02  0.1172327E+00
         21   -1    0    0  501  502  0.00000000000E+00  0.00000000000E+00  0.15008608886E+03  0.15008608886E+03  0.00000000000E+00 0.  1.
         21   -1    0    0  502  503 -0.00000000000E+00 -0.00000000000E+00 -0.25732064376E+03  0.25732064376E+03  0.00000000000E+00 0.  1.
          6    1    1    2  501    0 -0.51543462819E+01 -0.33998770459E+02  0.38243397350E+02  0.17952448613E+03  0.17200000000E+03 0. -1.
         -6    1    1    2    0  503  0.51543462819E+01  0.33998770459E+02 -0.14547795225E+03  0.22788224650E+03  0.17200000000E+03 0. -1.
</event>
<event>
 4    1  0.5714562E+000  0.1810139E+03  0.7818608E-02  0.1166825E+00
         21   -1    0    0  503  502  0.00000000000E+00  0.00000000000E+00  0.19719320454E+03  0.19719320454E+03  0.00000000000E+00 0. -1.
         21   -1    0    0  501  503 -0.00000000000E+00 -0.00000000000E+00 -0.22885716305E+03  0.22885716305E+03  0.00000000000E+00 0. -1.
          6    1    1    2  501    0 -0.46147094639E+02 -0.32441991350E+02  0.95665580463E+02  0.20473871259E+03  0.17200000000E+03 0. -1.
         -6    1    1    2    0  502  0.46147094639E+02  0.32441991350E+02 -0.12732953897E+03  0.22131165501E+03  0.17200000000E+03 0. -1.
</event>
<event>
 4    1  0.5714562E+000  0.2086504E+03  0.7818608E-02  0.1142639E+00
         21   -1    0    0  501  502  0.00000000000E+00  0.00000000000E+00  0.51269779941E+03  0.51269779941E+03  0.00000000000E+00 0.  1.
         21   -1    0    0  502  503 -0.00000000000E+00 -0.00000000000E+00 -0.14837808657E+03  0.14837808657E+03  0.00000000000E+00 0.  1.
          6    1    1    2  501    0 -0.11202671296E+03 -0.37430075402E+02  0.39833311138E+03  0.44967128281E+03  0.17200000000E+03 0.  1.
         -6    1    1    2    0  503  0.11202671296E+03  0.37430075402E+02 -0.34013398546E+02  0.21140460317E+03  0.17200000000E+03 0.  1.
</event>
<event>
 4    1  0.5714562E+000  0.2212435E+03  0.7818608E-02  0.1132959E+00
         21   -1    0    0  503  502  0.00000000000E+00  0.00000000000E+00  0.87987721239E+02  0.87987721239E+02  0.00000000000E+00 0.  1.
         21   -1    0    0  501  503 -0.00000000000E+00 -0.00000000000E+00 -0.55679509802E+03  0.55679509802E+03  0.00000000000E+00 0.  1.
          6    1    1    2  501    0 -0.47992694361E+02 -0.13061928590E+03 -0.24389198861E+03  0.32929014359E+03  0.17200000000E+03 0.  1.
         -6    1    1    2    0  502  0.47992694361E+02  0.13061928590E+03 -0.22491538817E+03  0.31549267566E+03  0.17200000000E+03 0.  1.
</event>
<event>
 4    1  0.5714562E+000  0.1928827E+03  0.7818608E-02  0.1155887E+00
         21   -1    0    0  503  502  0.00000000000E+00  0.00000000000E+00  0.33706784425E+03  0.33706784425E+03  0.00000000000E+00 0.  1.
         21   -1    0    0  501  503 -0.00000000000E+00 -0.00000000000E+00 -0.44082059347E+03  0.44082059347E+03  0.00000000000E+00 0.  1.
          6    1    1    2  501    0 -0.83214478485E+02  0.26364649770E+02 -0.38862559416E+03  0.43385895937E+03  0.17200000000E+03 0.  1.
         -6    1    1    2    0  502  0.83214478485E+02 -0.26364649770E+02  0.28487284494E+03  0.34402947835E+03  0.17200000000E+03 0.  1.
</event>
<event>
 4    1  0.5714562E+000  0.1929257E+03  0.7818608E-02  0.1155849E+00
         21   -1    0    0  501  502  0.00000000000E+00  0.00000000000E+00  0.53414578686E+03  0.53414578686E+03  0.00000000000E+00 0. -1.
         21   -1    0    0  502  503 -0.00000000000E+00 -0.00000000000E+00 -0.96019153978E+02  0.96019153978E+02  0.00000000000E+00 0. -1.
          6    1    1    2  501    0  0.83094673243E+02  0.27048017667E+02  0.38408086781E+03  0.42981209034E+03  0.17200000000E+03 0. -1.
         -6    1    1    2    0  503 -0.83094673243E+02 -0.27048017667E+02  0.54045765069E+02  0.20035285050E+03  0.17200000000E+03 0. -1.
</event>
<event>
 4    1  0.5714562E+000  0.2081447E+03  0.7818608E-02  0.1143044E+00
         21   -1    0    0  503  502  0.00000000000E+00  0.00000000000E+00  0.29002493552E+03  0.29002493552E+03  0.00000000000E+00 0. -1.
         21   -1    0    0  501  503 -0.00000000000E+00 -0.00000000000E+00 -0.15848442066E+03  0.15848442066E+03  0.00000000000E+00 0.  1.
          6    1    1    2  501    0 -0.11604127525E+03 -0.16572626663E+02  0.12023864092E+02  0.20849173323E+03  0.17200000000E+03 0.  1.
         -6    1    1    2    0  502  0.11604127525E+03  0.16572626663E+02  0.11951665077E+03  0.24001762295E+03  0.17200000000E+03 0. -1.
</event>
<event>
 4    1  0.5714562E+000  0.2045729E+03  0.7818608E-02  0.1145937E+00
         21   -1    0    0  501  502  0.00000000000E+00  0.00000000000E+00  0.14867892844E+04  0.14867892844E+04  0.00000000000E+00 0.  1.
         21   -1    0    0  502  503 -0.00000000000E+00 -0.00000000000E+00 -0.30952623607E+02  0.30952623607E+02  0.00000000000E+00 0.  1.
          6    1    1    2  501    0  0.10997631695E+03  0.13087234306E+02  0.49948441039E+03  0.53975433506E+03  0.17200000000E+03 0.  1.
         -6    1    1    2    0  503 -0.10997631695E+03 -0.13087234306E+02  0.95635225043E+03  0.97798757297E+03  0.17200000000E+03 0.  1.
</event>
<event>
 4    1  0.5714562E+000  0.1756350E+03  0.7818608E-02  0.1172096E+00
         21   -1    0    0  501  502  0.00000000000E+00  0.00000000000E+00  0.34369383255E+03  0.34369383255E+03  0.00000000000E+00 0. -1.
         21   -1    0    0  502  503 -0.00000000000E+00 -0.00000000000E+00 -0.10735828901E+03  0.10735828901E+03  0.00000000000E+00 0. -1.
          6    1    1    2  501    0 -0.19500488816E+02  0.29721980907E+02  0.20949420149E+03  0.27337791731E+03  0.17200000000E+03 0. -1.
         -6    1    1    2    0  503  0.19500488816E+02 -0.29721980907E+02  0.26841342043E+02  0.17767420425E+03  0.17200000000E+03 0. -1.
</event>
<event>
 4    1  0.5714562E+000  0.1732511E+03  0.7818608E-02  0.1174499E+00
         21   -1    0    0  503  502  0.00000000000E+00  0.00000000000E+00  0.10369297571E+04  0.10369297571E+04  0.00000000000E+00 0. -1.
         21   -1    0    0  501  503 -0.00000000000E+00 -0.00000000000E+00 -0.52213852283E+02  0.52213852283E+02  0.00000000000E+00 0. -1.
          6    1    1    2  501    0 -0.18304830166E+02  0.98434006243E+01  0.12883526764E+03  0.21590388030E+03  0.17200000000E+03 0. -1.
         -6    1    1    2    0  502  0.18304830166E+02 -0.98434006243E+01  0.85588063722E+03  0.87323972912E+03  0.17200000000E+03 0. -1.
</event>
<event>
 4    1  0.5714562E+000  0.2495195E+03  0.7818608E-02  0.1113609E+00
         21   -1    0    0  501  502  0.00000000000E+00  0.00000000000E+00  0.13191308501E+03  0.13191308501E+03  0.00000000000E+00 0.  1.
         21   -1    0    0  502  503 -0.00000000000E+00 -0.00000000000E+00 -0.69965248951E+03  0.69965248951E+03  0.00000000000E+00 0. -1.
          6    1    1    2  501    0 -0.21707826285E+02  0.17945688158E+03 -0.46686995753E+02  0.25384971467E+03  0.17200000000E+03 0.  1.
         -6    1    1    2    0  503  0.21707826285E+02 -0.17945688158E+03 -0.52105240874E+03  0.57771585985E+03  0.17200000000E+03 0. -1.
</event>
<event>
 4    1  0.5714562E+000  0.2328684E+03  0.7818608E-02  0.1124637E+00
         21   -1    0    0  503  502  0.00000000000E+00  0.00000000000E+00  0.91150526251E+03  0.91150526251E+03  0.00000000000E+00 0. -1.
         21   -1    0    0  501  503 -0.00000000000E+00 -0.00000000000E+00 -0.91200360042E+02  0.91200360042E+02  0.00000000000E+00 0. -1.
          6    1    1    2  501    0  0.15282523054E+03  0.35890918505E+02  0.11453587863E+03  0.25951141904E+03  0.17200000000E+03 0. -1.
         -6    1    1    2    0  502 -0.15282523054E+03 -0.35890918505E+02  0.70576902384E+03  0.74319420351E+03  0.17200000000E+03 0. -1.
</event>
<event>
 4    1  0.5714562E+000  0.1869996E+03  0.7818608E-02  0.1161196E+00
         21   -1    0    0  503  502  0.00000000000E+00  0.00000000000E+00  0.13401795600E+03  0.13401795600E+03  0.00000000000E+00 0.  1.
         21   -1    0    0  501  503 -0.00000000000E+00 -0.00000000000E+00 -0.52133405068E+03  0.52133405068E+03  0.00000000000E+00 0.  1.
          6    1    1    2  501    0  0.73361175856E+02  0.17301617399E+01 -0.42524455727E+03  0.46454471159E+03  0.17200000000E+03 0.  1.
         -6    1    1    2    0  502 -0.73361175856E+02 -0.17301617399E+01  0.37928462592E+02  0.19080729508E+03  0.17200000000E+03 0.  1.
</event>
<event>
 4    1  0.5714562E+000  0.2387178E+03  0.7818608E-02  0.1120650E+00
         21   -1    0    0  503  502  0.00000000000E+00  0.00000000000E+00  0.64965908340E+03  0.64965908340E+03  0.00000000000E+00 0. -1.
         21   -1    0    0  501  503 -0.00000000000E+00 -0.00000000000E+00 -0.15385201610E+03  0.15385201610E+03  0.00000000000E+00 0. -1.
          6    1    1    2  501    0 -0.72994234042E+02  0.14857323998E+03 -0.15502621708E+02  0.23922060346E+03  0.17200000000E+03 0. -1.
         -6    1    1    2    0  502  0.72994234042E+02 -0.14857323998E+03  0.51130968901E+03  0.56429049604E+03  0.17200000000E+03 0. -1.
</event>
<event>
 4    1  0.5714562E+000  0.3572923E+03  0.7818608E-02  0.1059661E+00
         21   -1    0    0  503  502  0.00000000000E+00  0.00000000000E+00  0.53924144999E+03  0.53924144999E+03  0.00000000000E+00 0.  1.
         21   -1    0    0  501  503 -0.00000000000E+00 -0.00000000000E+00 -0.28777210613E+03  0.28777210613E+03  0.00000000000E+00 0. -1.
          6    1    1    2  501    0 -0.42731598540E+02 -0.31023833439E+03 -0.48404890037E+02  0.36055630215E+03  0.17200000000E+03 0. -1.
         -6    1    1    2    0  502  0.42731598540E+02  0.31023833439E+03  0.29987423389E+03  0.46645725398E+03  0.17200000000E+03 0.  1.
</event>
<event>
 4    1  0.5714562E+000  0.1965186E+03  0.7818608E-02  0.1152710E+00
         21   -1    0    0  501  502  0.00000000000E+00  0.00000000000E+00  0.20316898779E+02  0.20316898779E+02  0.00000000000E+00 0.  1.
         21   -1    0    0  502  503 -0.00000000000E+00 -0.00000000000E+00 -0.21643727629E+04  0.21643727629E+04  0.00000000000E+00 0. -1.
          6    1    1    2  501    0  0.48948119649E+02 -0.81483886390E+02 -0.69087777894E+03  0.71828382106E+03  0.17200000000E+03 0.  1.
         -6    1    1    2    0  503 -0.48948119649E+02  0.81483886390E+02 -0.14531780851E+04  0.14664058406E+04  0.17200000000E+03 0. -1.
</event>
<event>
 4    1  0.5714562E+000  0.2225807E+03  0.7818608E-02  0.1131974E+00
         21   -1    0    0  503  502  0.00000000000E+00  0.00000000000E+00  0.58766132160E+02  0.58766132160E+02  0.00000000000E+00 0.  1.
         21   -1    0    0  501  503 -0.00000000000E+00 -0.00000000000E+00 -0.10404451482E+04  0.10404451482E+04  0.00000000000E+00 0. -1.
          6    1    1    2  501    0 -0.12018651068E+03 -0.74251941156E+02 -0.73023821251E+03  0.76340683461E+03  0.17200000000E+03 0. -1.
         -6    1    1    2    0  502  0.12018651068E+03  0.74251941156E+02 -0.25144080357E+03  0.33580444580E+03  0.17200000000E+03 0.  1.
</event>
<event>
 4    1  0.5714562E+000  0.2214727E+03  0.7818608E-02  0.1132790E+00
         21   -1    0    0  503  502  0.00000000000E+00  0.00000000000E+00  0.73720540260E+02  0.73720540260E+02  0.00000000000E+00 0.  1.
         21   -1    0    0  501  503 -0.00000000000E+00 -0.00000000000E+00 -0.71482360323E+03  0.71482360323E+03  0.00000000000E+00 0.  1.
          6    1    1    2  501    0  0.74090618694E+02  0.11822325989E+03 -0.21682936369E+03  0.30994375605E+03  0.17200000000E+03 0.  1.
         -6    1    1    2    0  502 -0.74090618694E+02 -0.11822325989E+03 -0.42427369929E+03  0.47860038745E+03  0.17200000000E+03 0.  1.
</event>
<event>
 4    1  0.5714562E+000  0.2030584E+03  0.7818608E-02  0.1147184E+00
         21   -1    0    0  501  502  0.00000000000E+00  0.00000000000E+00  0.33828122249E+03  0.33828122249E+03  0.00000000000E+00 0.  1.
         21   -1    0    0  502  503 -0.00000000000E+00 -0.00000000000E+00 -0.12746577027E+03  0.12746577027E+03  0.00000000000E+00 0. -1.
          6    1    1    2  501    0 -0.12851240069E+02 -0.10716133617E+03  0.56697424177E+02  0.21082529319E+03  0.17200000000E+03 0.  1.
         -6    1    1    2    0  503  0.12851240069E+02  0.10716133617E+03  0.15411802804E+03  0.25492169956E+03  0.17200000000E+03 0. -1.
</event>
<event>
 4    1  0.5714562E+000  0.2700851E+03  0.7818608E-02  0.1101231E+00
         21   -1    0    0  501  502  0.00000000000E+00  0.00000000000E+00  0.11846962587E+03  0.11846962587E+03  0.00000000000E+00 0. -1.
         21   -1    0    0  502  503 -0.00000000000E+00 -0.00000000000E+00 -0.90446770900E+03  0.90446770900E+03  0.00000000000E+00 0.  1.
          6    1    1    2  501    0  0.93523653745E+02 -0.18605177720E+03 -0.10401742006E+03  0.28942280713E+03  0.17200000000E+03 0. -1.
         -6    1    1    2    0  503 -0.93523653745E+02  0.18605177720E+03 -0.68198066307E+03  0.73351452774E+03  0.17200000000E+03 0.  1.
</event>
<event>
 4    1  0.5714562E+000  0.2369290E+03  0.7818608E-02  0.1121856E+00
         21   -1    0    0  501  502  0.00000000000E+00  0.00000000000E+00  0.30372598402E+03  0.30372598402E+03  0.00000000000E+00 0. -1.
         21   -1    0    0  502  503 -0.00000000000E+00 -0.00000000000E+00 -0.23020126086E+03  0.23020126086E+03  0.00000000000E+00 0. -1.
          6    1    1    2  501    0  0.20878759256E+02 -0.16160265476E+03  0.15529158024E+03  0.28328574886E+03  0.17200000000E+03 0. -1.
         -6    1    1    2    0  503 -0.20878759256E+02  0.16160265476E+03 -0.81766857079E+02  0.25064149603E+03  0.17200000000E+03 0. -1.
</event>
<event>
 4    1  0.5714562E+000  0.1981202E+03  0.7818608E-02  0.1151335E+00
         21   -1    0    0  501  502  0.00000000000E+00  0.00000000000E+00  0.98291909141E+03  0.98291909141E+03  0.00000000000E+00 0. -1.
         21   -1    0    0  502  503 -0.00000000000E+00 -0.00000000000E+00 -0.57030612500E+02  0.57030612500E+02  0.00000000000E+00 0. -1.
          6    1    1    2  501    0  0.37944940348E+02 -0.90707241774E+02  0.74764382140E+03  0.77344870928E+03  0.17200000000E+03 0.  1.
         -6    1    1    2    0  503 -0.37944940348E+02  0.90707241774E+02  0.17824465751E+03  0.26650099463E+03  0.17200000000E+03 0.  1.
</event>
<event>
 4    1  0.5714562E+000  0.1988708E+03  0.7818608E-02  0.1150695E+00
         21   -1    0    0  503  502  0.00000000000E+00  0.00000000000E+00  0.14168895783E+03  0.14168895783E+03  0.00000000000E+00 0. -1.
         21   -1    0    0  501  503 -0.00000000000E+00 -0.00000000000E+00 -0.27915070391E+03  0.27915070391E+03  0.00000000000E+00 0.  1.
          6    1    1    2  501    0  0.67944813435E+02  0.73137459067E+02 -0.70559380973E+02  0.21101708896E+03  0.17200000000E+03 0.  1.
         -6    1    1    2    0  502 -0.67944813435E+02 -0.73137459067E+02 -0.66902365106E+02  0.20982257278E+03  0.17200000000E+03 0. -1.
</event>
<event>
 4    1  0.5714562E+000  0.1912898E+03  0.7818608E-02  0.1157303E+00
         21   -1    0    0  501  502  0.00000000000E+00  0.00000000000E+00  0.39286209270E+02  0.39286209270E+02  0.00000000000E+00 0.  1.
         21   -1    0    0  502  503 -0.00000000000E+00 -0.00000000000E+00 -0.10547299388E+04  0.10547299388E+04  0.00000000000E+00 0.  1.
          6    1    1    2  501    0  0.37108996183E+02  0.75038108103E+02 -0.32068398466E+03  0.37340328505E+03  0.17200000000E+03 0.  1.
         -6    1    1    2    0  503 -0.37108996183E+02 -0.75038108103E+02 -0.69475974487E+03  0.72061286303E+03  0.17200000000E+03 0.  1.
</event>
<event>
 4    1  0.5714562E+000  0.1726472E+03  0.7818608E-02  0.1175115E+00
         21   -1    0    0  503  502  0.00000000000E+00  0.00000000000E+00  0.39790248129E+03  0.39790248129E+03  0.00000000000E+00 0. -1.
         21   -1    0    0  501  503 -0.00000000000E+00 -0.00000000000E+00 -0.86909068818E+02  0.86909068818E+02  0.00000000000E+00 0. -1.
          6    1    1    2  501    0  0.97636837640E+01  0.11302138143E+02  0.65427692107E+02  0.18462895423E+03  0.17200000000E+03 0.  1.
         -6    1    1    2    0  502 -0.97636837640E+01 -0.11302138143E+02  0.24556572036E+03  0.30018259587E+03  0.17200000000E+03 0.  1.
</event>
<event>
 4    1  0.5714562E+000  0.3493370E+03  0.7818608E-02  0.1062887E+00
         21   -1    0    0  503  502  0.00000000000E+00  0.00000000000E+00  0.19848781244E+03  0.19848781244E+03  0.00000000000E+00 0. -1.
         21   -1    0    0  501  503 -0.00000000000E+00 -0.00000000000E+00 -0.86733501552E+03  0.86733501552E+03  0.00000000000E+00 0.  1.
          6    1    1    2  501    0  0.26828935662E+03 -0.14308453992E+03 -0.62196219347E+03  0.71335358311E+03  0.17200000000E+03 0.  1.
         -6    1    1    2    0  502 -0.26828935662E+03  0.14308453992E+03 -0.46885009619E+02  0.35246924485E+03  0.17200000000E+03 0. -1.
</event>
<event>
 4    1  0.5714562E+000  0.1968562E+03  0.7818608E-02  0.1152419E+00
         21   -1    0    0  501  502  0.00000000000E+00  0.00000000000E+00  0.31010161665E+03  0.31010161665E+03  0.00000000000E+00 0.  1.
         21   -1    0    0  502  503 -0.00000000000E+00 -0.00000000000E+00 -0.20512918794E+03  0.20512918794E+03  0.00000000000E+00 0.  1.
          6    1    1    2  501    0  0.95718301417E+02 -0.25262246109E+01  0.21352989739E+03  0.29042622491E+03  0.17200000000E+03 0.  1.
         -6    1    1    2    0  503 -0.95718301417E+02  0.25262246109E+01 -0.10855746868E+03  0.22480457968E+03  0.17200000000E+03 0.  1.
</event>
<event>
 4    1  0.5714562E+000  0.2537528E+03  0.7818608E-02  0.1110956E+00
         21   -1    0    0  503  502  0.00000000000E+00  0.00000000000E+00  0.11146410789E+04  0.11146410789E+04  0.00000000000E+00 0. -1.
         21   -1    0    0  501  503 -0.00000000000E+00 -0.00000000000E+00 -0.71163731588E+02  0.71163731588E+02  0.00000000000E+00 0. -1.
          6    1    1    2  501    0  0.39299613876E+02  0.18237874742E+03  0.77897885092E+03  0.81926706106E+03  0.17200000000E+03 0. -1.
         -6    1    1    2    0  502 -0.39299613876E+02 -0.18237874742E+03  0.26449849640E+03  0.36653774943E+03  0.17200000000E+03 0. -1.
</event>
<event>
 4    1  0.5714562E+000  0.2248002E+03  0.7818608E-02  0.1130354E+00
         21   -1    0    0  503  502  0.00000000000E+00  0.00000000000E+00  0.16455856128E+04  0.16455856128E+04  0.00000000000E+00 0. -1.
         21   -1    0    0  501  503 -0.00000000000E+00 -0.00000000000E+00 -0.53130025743E+02  0.53130025743E+02  0.00000000000E+00 0.  1.
          6    1    1    2  501    0 -0.13275437950E+03 -0.57683502512E+02  0.24447623305E+03  0.33212006905E+03  0.17200000000E+03 0.  1.
         -6    1    1    2    0  502  0.13275437950E+03  0.57683502512E+02  0.13479793540E+04  0.13665955695E+04  0.17200000000E+03 0. -1.
</event>
<event>
 4    1  0.5714562E+000  0.2618730E+03  0.7818608E-02  0.1106023E+00
         21   -1    0    0  503  502  0.00000000000E+00  0.00000000000E+00  0.12143403700E+04  0.12143403700E+04  0.00000000000E+00 0.  1.
         21   -1    0    0  501  503 -0.00000000000E+00 -0.00000000000E+00 -0.56850511463E+02  0.56850511463E+02  0.00000000000E+00 0.  1.
          6    1    1    2  501    0  0.17500063318E+03 -0.91478255938E+02  0.52695380402E+03  0.58843674638E+03  0.17200000000E+03 0.  1.
         -6    1    1    2    0  502 -0.17500063318E+03  0.91478255938E+02  0.63053605456E+03  0.68275413512E+03  0.17200000000E+03 0.  1.
</event>
<event>
 4    1  0.5714562E+000  0.2796162E+03  0.7818608E-02  0.1095899E+00
         21   -1    0    0  501  502  0.00000000000E+00  0.00000000000E+00  0.29498043775E+03  0.29498043775E+03  0.00000000000E+00 0.  1.
         21   -1    0    0  502  503 -0.00000000000E+00 -0.00000000000E+00 -0.26935002985E+03  0.26935002985E+03  0.00000000000E+00 0.  1.
          6    1    1    2  501    0 -0.21842868510E+03  0.29834689427E+02 -0.22827622411E+02  0.28054643022E+03  0.17200000000E+03 0.  1.
         -6    1    1    2    0  503  0.21842868510E+03 -0.29834689427E+02  0.48458030316E+02  0.28378403738E+03  0.17200000000E+03 0.  1.
</event>
<event>
 4    1  0.5714562E+000  0.2329474E+03  0.7818608E-02  0.1124582E+00
         21   -1    0    0  503  502  0.00000000000E+00  0.00000000000E+00  0.21253078325E+03  0.21253078325E+03  0.00000000000E+00 0. -1.
         21   -1    0    0  501  503 -0.00000000000E+00 -0.00000000000E+00 -0.50475061961E+03  0.50475061961E+03  0.00000000000E+00 0.  1.
          6    1    1    2  501    0 -0.12881206118E+03  0.89932877643E+02 -0.39822073575E+03  0.46135043510E+03  0.17200000000E+03 0.  1.
         -6    1    1    2    0  502  0.12881206118E+03 -0.89932877643E+02  0.10600089940E+03  0.25593096776E+03  0.17200000000E+03 0.  1.
</event>
<event>
 4    1  0.5714562E+000  0.1841820E+03  0.7818608E-02  0.1163816E+00
         21   -1    0    0  501  502  0.00000000000E+00  0.00000000000E+00  0.20765824263E+03  0.20765824263E+03  0.00000000000E+00 0. -1.
         21   -1    0    0  502  503 -0.00000000000E+00 -0.00000000000E+00 -0.26131535771E+03  0.26131535771E+03  0.00000000000E+00 0.  1.
          6    1    1    2  501    0  0.42375547261E+02 -0.50431236588E+02 -0.17039422877E+03  0.25091271356E+03  0.17200000000E+03 0.  1.
         -6    1    1    2    0  503 -0.42375547261E+02  0.50431236588E+02  0.11673711370E+03  0.21806088678E+03  0.17200000000E+03 0. -1.
</event>
<event>
 4    1  0.5714562E+000  0.1897823E+03  0.7818608E-02  0.1158658E+00
         21   -1    0    0  501  502  0.00000000000E+00  0.00000000000E+00  0.29476438641E+03  0.29476438641E+03  0.00000000000E+00 0. -1.
         21   -1    0    0  502  503 -0.00000000000E+00 -0.00000000000E+00 -0.20910191163E+03  0.20910191163E+03  0.00000000000E+00 0. -1.
          6    1    1    2  501    0 -0.60507500196E+02  0.52651218966E+02  0.20525350045E+03  0.27954661130E+03  0.17200000000E+03 0.  1.
         -6    1    1    2    0  503  0.60507500196E+02 -0.52651218966E+02 -0.11959102568E+03  0.22431968675E+03  0.17200000000E+03 0.  1.
</event>
<event>
 4    1  0.5714562E+000  0.1853819E+03  0.7818608E-02  0.1162694E+00
         21   -1    0    0  501  502  0.00000000000E+00  0.00000000000E+00  0.12585465709E+03  0.12585465709E+03  0.00000000000E+00 0.  1.
         21   -1    0    0  502  503 -0.00000000000E+00 -0.00000000000E+00 -0.39843086666E+03  0.39843086666E+03  0.00000000000E+00 0.  1.
          6    1    1    2  501    0  0.61658671610E-01 -0.69155315747E+02  0.10757345942E+02  0.18569378554E+03  0.17200000000E+03 0.  1.
         -6    1    1    2    0  503 -0.61658671610E-01  0.69155315747E+02 -0.28333355552E+03  0.33859173821E+03  0.17200000000E+03 0.  1.
</event>
<event>
 4    1  0.5714562E+000  0.1901131E+03  0.7818608E-02  0.1158359E+00
         21   -1    0    0  503  502  0.00000000000E+00  0.00000000000E+00  0.65832541811E+03  0.65832541811E+03  0.00000000000E+00 0.  1.
         21   -1    0    0  501  503 -0.00000000000E+00 -0.00000000000E+00 -0.86058276444E+02  0.86058276444E+02  0.00000000000E+00 0.  1.
          6    1    1    2  501    0 -0.15267541292E+02 -0.79535377479E+02  0.62185344191E+02  0.20002497624E+03  0.17200000000E+03 0.  1.
         -6    1    1    2    0  502  0.15267541292E+02  0.79535377479E+02  0.51008179747E+03  0.54435871831E+03  0.17200000000E+03 0.  1.
</event>
<event>
 4    1  0.5714562E+000  0.2415047E+03  0.7818608E-02  0.1118794E+00
         21   -1    0    0  503  502  0.00000000000E+00  0.00000000000E+00  0.25925397371E+03  0.25925397371E+03  0.00000000000E+00 0.  1.
         21   -1    0    0  501  503 -0.00000000000E+00 -0.00000000000E+00 -0.26721557500E+03  0.26721557500E+03  0.00000000000E+00 0. -1.
          6    1    1    2  501    0 -0.12898313394E+03 -0.11001760916E+03  0.10068381494E+03  0.26165197067E+03  0.17200000000E+03 0.  1.
         -6    1    1    2    0  502  0.12898313394E+03  0.11001760916E+03 -0.10864541624E+03  0.26481757803E+03  0.17200000000E+03 0. -1.
</event>
<event>
 4    1  0.5714562E+000  0.2068561E+03  0.7818608E-02  0.1144080E+00
         21   -1    0    0  501  502  0.00000000000E+00  0.00000000000E+00  0.26396522591E+02  0.26396522591E+02  0.00000000000E+00 0.  1.
         21   -1    0    0  502  503 -0.00000000000E+00 -0.00000000000E+00 -0.16243295406E+04  0.16243295406E+04  0.00000000000E+00 0.  1.
          6    1    1    2  501    0 -0.64147227078E+02 -0.95344509839E+02 -0.76174315332E+03  0.78933014255E+03  0.17200000000E+03 0.  1.
         -6    1    1    2    0  503  0.64147227078E+02  0.95344509839E+02 -0.83618986468E+03  0.86139592064E+03  0.17200000000E+03 0.  1.
</event>
<event>
 4    1  0.5714562E+000  0.3346112E+03  0.7818608E-02  0.1069115E+00
         21   -1    0    0  503  502  0.00000000000E+00  0.00000000000E+00  0.10914022204E+04  0.10914022204E+04  0.00000000000E+00 0. -1.
         21   -1    0    0  501  503 -0.00000000000E+00 -0.00000000000E+00 -0.16123415891E+03  0.16123415891E+03  0.00000000000E+00 0.  1.
          6    1    1    2  501    0  0.18872044290E+03  0.21625270154E+03  0.87349455282E+02  0.34582446968E+03  0.17200000000E+03 0.  1.
         -6    1    1    2    0  502 -0.18872044290E+03 -0.21625270154E+03  0.84281860622E+03  0.90681190965E+03  0.17200000000E+03 0. -1.
</event>
<event>
 4    1  0.5714562E+000  0.2377762E+03  0.7818608E-02  0.1121283E+00
         21   -1    0    0  501  502  0.00000000000E+00  0.00000000000E+00  0.31582632609E+03  0.31582632609E+03  0.00000000000E+00 0.  1.
         21   -1    0    0  502  503 -0.00000000000E+00 -0.00000000000E+00 -0.47369866990E+03  0.47369866990E+03  0.00000000000E+00 0.  1.
          6    1    1    2  501    0  0.22321071512E+02  0.16265086826E+03  0.23242403564E+03  0.33250333460E+03  0.17200000000E+03 0.  1.
         -6    1    1    2    0  503 -0.22321071512E+02 -0.16265086826E+03 -0.39029637945E+03  0.45702166140E+03  0.17200000000E+03 0.  1.
</event>
<event>
 4    1  0.5714562E+000  0.2092420E+03  0.7818608E-02  0.1142168E+00
         21   -1    0    0  503  502  0.00000000000E+00  0.00000000000E+00  0.10612496410E+04  0.10612496410E+04  0.00000000000E+00 0. -1.
         21   -1    0    0  501  503 -0.00000000000E+00 -0.00000000000E+00 -0.72639245474E+02  0.72639245474E+02  0.00000000000E+00 0.  1.
          6    1    1    2  501    0 -0.99633621614E+02 -0.65355757303E+02  0.12164911734E+03  0.24203458703E+03  0.17200000000E+03 0.  1.
         -6    1    1    2    0  502  0.99633621614E+02  0.65355757303E+02  0.86696127814E+03  0.89185429940E+03  0.17200000000E+03 0. -1.
</event>
<event>
 4    1  0.5714562E+000  0.1723657E+03  0.7818608E-02  0.1175403E+00
         21   -1    0    0  501  502  0.00000000000E+00  0.00000000000E+00  0.55052359961E+02  0.55052359961E+02  0.00000000000E+00 0. -1.
         21   -1    0    0  502  503 -0.00000000000E+00 -0.00000000000E+00 -0.84379352903E+03  0.84379352903E+03  0.00000000000E+00 0. -1.
          6    1    1    2  501    0 -0.10562352933E+02 -0.37914764940E+01 -0.12455667072E+03  0.21266006399E+03  0.17200000000E+03 0. -1.
         -6    1    1    2    0  503  0.10562352933E+02  0.37914764940E+01 -0.66418449834E+03  0.68618582500E+03  0.17200000000E+03 0. -1.
</event>
<event>
 4    1  0.5714562E+000  0.2103352E+03  0.7818608E-02  0.1141301E+00
         21   -1    0    0  503  502  0.00000000000E+00  0.00000000000E+00  0.68970411271E+03  0.68970411271E+03  0.00000000000E+00 0. -1.
         21   -1    0    0  501  503 -0.00000000000E+00 -0.00000000000E+00 -0.72183859460E+02  0.72183859460E+02  0.00000000000E+00 0.  1.
          6    1    1    2  501    0 -0.87120350757E+02 -0.84065220697E+02  0.43588903001E+03  0.48398363952E+03  0.17200000000E+03 0. -1.
         -6    1    1    2    0  502  0.87120350757E+02  0.84065220697E+02  0.18163122325E+03  0.27790433265E+03  0.17200000000E+03 0.  1.
</event>
<event>
 4    1  0.5714562E+000  0.2676989E+03  0.7818608E-02  0.1102604E+00
         21   -1    0    0  503  502  0.00000000000E+00  0.00000000000E+00  0.55547481515E+03  0.55547481515E+03  0.00000000000E+00 0.  1.
         21   -1    0    0  501  503 -0.00000000000E+00 -0.00000000000E+00 -0.17948083242E+03  0.17948083242E+03  0.00000000000E+00 0. -1.
          6    1    1    2  501    0 -0.60315090312E+01  0.20504226390E+03  0.38286266195E+03  0.46716862801E+03  0.17200000000E+03 0. -1.
         -6    1    1    2    0  502  0.60315090312E+01 -0.20504226390E+03 -0.68686792221E+01  0.26778701955E+03  0.17200000000E+03 0. -1.
</event>
<event>
 4    1  0.5714562E+000  0.2213749E+03  0.7818608E-02  0.1132862E+00
         21   -1    0    0  501  502  0.00000000000E+00  0.00000000000E+00  0.32271021908E+03  0.32271021908E+03  0.00000000000E+00 0.  1.
         21   -1    0    0  502  503 -0.00000000000E+00 -0.00000000000E+00 -0.17588148426E+03  0.17588148426E+03  0.00000000000E+00 0.  1.
          6    1    1    2  501    0  0.13912520015E+03 -0.81869581867E+01 -0.18716008836E+02  0.22216466098E+03  0.17200000000E+03 0.  1.
         -6    1    1    2    0  503 -0.13912520015E+03  0.81869581867E+01  0.16554474365E+03  0.27642704236E+03  0.17200000000E+03 0.  1.
</event>
<event>
 4    1  0.5714562E+000  0.4743987E+03  0.7818608E-02  0.1020686E+00
         21   -1    0    0  503  502  0.00000000000E+00  0.00000000000E+00  0.23530625059E+03  0.23530625059E+03  0.00000000000E+00 0. -1.
         21   -1    0    0  501  503 -0.00000000000E+00 -0.00000000000E+00 -0.95832479399E+03  0.95832479399E+03  0.00000000000E+00 0.  1.
          6    1    1    2  501    0  0.12543535721E+03  0.42395296473E+03 -0.33497707449E+03  0.58074416534E+03  0.17200000000E+03 0.  1.
         -6    1    1    2    0  502 -0.12543535721E+03 -0.42395296473E+03 -0.38804146892E+03  0.61288687924E+03  0.17200000000E+03 0. -1.
</event>
<event>
 4    1  0.5714562E+000  0.2145084E+03  0.7818608E-02  0.1138045E+00
         21   -1    0    0  501  502  0.00000000000E+00  0.00000000000E+00  0.63274064183E+02  0.63274064183E+02  0.00000000000E+00 0.  1.
         21   -1    0    0  502  503 -0.00000000000E+00 -0.00000000000E+00 -0.82988198383E+03  0.82988198383E+03  0.00000000000E+00 0. -1.
          6    1    1    2  501    0 -0.41693782467E+02  0.12120842559E+03 -0.54037799564E+03  0.58139679403E+03  0.17200000000E+03 0.  1.
         -6    1    1    2    0  503  0.41693782467E+02 -0.12120842559E+03 -0.22622992401E+03  0.31175925399E+03  0.17200000000E+03 0.  1.
</event>
<event>
 4    1  0.5714562E+000  0.1748806E+03  0.7818608E-02  0.1172852E+00
         21   -1    0    0  503  502  0.00000000000E+00  0.00000000000E+00  0.63942641051E+02  0.63942641051E+02  0.00000000000E+00 0. -1.
         21   -1    0    0  501  503 -0.00000000000E+00 -0.00000000000E+00 -0.71017152376E+03  0.71017152376E+03  0.00000000000E+00 0. -1.
          6    1    1    2  501    0 -0.18324828261E+02  0.25756875261E+02 -0.54428389437E+03  0.57168887834E+03  0.17200000000E+03 0. -1.
         -6    1    1    2    0  502  0.18324828261E+02 -0.25756875261E+02 -0.10194498834E+03  0.20242528647E+03  0.17200000000E+03 0. -1.
</event>
<event>
 4    1  0.5714562E+000  0.2282017E+03  0.7818608E-02  0.1127912E+00
         21   -1    0    0  501  502  0.00000000000E+00  0.00000000000E+00  0.11668273684E+04  0.11668273684E+04  0.00000000000E+00 0. -1.
         21   -1    0    0  502  503 -0.00000000000E+00 -0.00000000000E+00 -0.46114177768E+02  0.46114177768E+02  0.00000000000E+00 0. -1.
          6    1    1    2  501    0 -0.14784683955E+03 -0.25165976830E+02  0.45157090249E+03  0.50595681074E+03  0.17200000000E+03 0. -1.
         -6    1    1    2    0  503  0.14784683955E+03  0.25165976830E+02  0.66914228819E+03  0.70698473548E+03  0.17200000000E+03 0. -1.
</event>
<event>
 4    1  0.5714562E+000  0.2481957E+03  0.7818608E-02  0.1114450E+00
         21   -1    0    0  503  502  0.00000000000E+00  0.00000000000E+00  0.39016598959E+02  0.39016598959E+02  0.00000000000E+00 0.  1.
         21   -1    0    0  501  503 -0.00000000000E+00 -0.00000000000E+00 -0.15927566139E+04  0.15927566139E+04  0.00000000000E+00 0.  1.
          6    1    1    2  501    0 -0.15856270453E+03  0.82915401476E+02 -0.85312542468E+03  0.88849540534E+03  0.17200000000E+03 0.  1.
         -6    1    1    2    0  502  0.15856270453E+03 -0.82915401476E+02 -0.70061459029E+03  0.74327780755E+03  0.17200000000E+03 0.  1.
</event>
<event>
 4    1  0.5714562E+000  0.2040488E+03  0.7818608E-02  0.1146367E+00
         21   -1    0    0  503  502  0.00000000000E+00  0.00000000000E+00  0.15011062673E+04  0.15011062673E+04  0.00000000000E+00 0. -1.
         21   -1    0    0  501  503 -0.00000000000E+00 -0.00000000000E+00 -0.32426299471E+02  0.32426299471E+02  0.00000000000E+00 0. -1.
          6    1    1    2  501    0 -0.10807211627E+03 -0.19296244553E+02  0.10259324041E+04  0.10460273539E+04  0.17200000000E+03 0. -1.
         -6    1    1    2    0  502  0.10807211627E+03  0.19296244553E+02  0.44274756374E+03  0.48750521286E+03  0.17200000000E+03 0. -1.
</event>
<event>
 4    1  0.5714562E+000  0.2170212E+03  0.7818608E-02  0.1136124E+00
         21   -1    0    0  503  502  0.00000000000E+00  0.00000000000E+00  0.20213991572E+03  0.20213991572E+03  0.00000000000E+00 0. -1.
         21   -1    0    0  501  503 -0.00000000000E+00 -0.00000000000E+00 -0.54315766601E+03  0.54315766601E+03  0.00000000000E+00 0. -1.
          6    1    1    2  501    0 -0.85777979332E+02  0.10077856431E+03 -0.45210681480E+03  0.50149651320E+03  0.17200000000E+03 0. -1.
         -6    1    1    2    0  502  0.85777979332E+02 -0.10077856431E+03  0.11108906451E+03  0.24380106853E+03  0.17200000000E+03 0. -1.
</event>
<event>
 4    1  0.5714562E+000  0.1944830E+03  0.7818608E-02  0.1154479E+00
         21   -1    0    0  503  502  0.00000000000E+00  0.00000000000E+00  0.14361971926E+03  0.14361971926E+03  0.00000000000E+00 0. -1.
         21   -1    0    0  501  503 -0.00000000000E+00 -0.00000000000E+00 -0.27578420724E+03  0.27578420724E+03  0.00000000000E+00 0. -1.
          6    1    1    2  501    0  0.89825418299E+02  0.13077433351E+02 -0.11059248639E+03  0.22372823488E+03  0.17200000000E+03 0. -1.
         -6    1    1    2    0  502 -0.89825418299E+02 -0.13077433351E+02 -0.21572001588E+02  0.19567569161E+03  0.17200000000E+03 0. -1.
</event>
<event>
 4    1  0.5714562E+000  0.2130220E+03  0.7818608E-02  0.1139195E+00
         21   -1    0    0  503  502  0.00000000000E+00  0.00000000000E+00  0.37705739161E+02  0.37705739161E+02  0.00000000000E+00 0.  1.
         21   -1    0    0  501  503 -0.00000000000E+00 -0.00000000000E+00 -0.12036013647E+04  0.12036013647E+04  0.00000000000E+00 0.  1.
          6    1    1    2  501    0  0.36902835414E+01  0.12562155479E+03 -0.58897930356E+03  0.62631861959E+03  0.17200000000E+03 0.  1.
         -6    1    1    2    0  502 -0.36902835414E+01 -0.12562155479E+03 -0.57691632197E+03  0.61498848426E+03  0.17200000000E+03 0.  1.
</event>
<event>
 4    1  0.5714562E+000  0.1970378E+03  0.7818608E-02  0.1152263E+00
         21   -1    0    0  503  502  0.00000000000E+00  0.00000000000E+00  0.15931436420E+03  0.15931436420E+03  0.00000000000E+00 0. -1.
         21   -1    0    0  501  503 -0.00000000000E+00 -0.00000000000E+00 -0.25275675574E+03  0.25275675574E+03  0.00000000000E+00 0.  1.
          6    1    1    2  501    0 -0.15963360185E+02 -0.94789593685E+02 -0.85736030021E+02  0.21488267213E+03  0.17200000000E+03 0. -1.
         -6    1    1    2    0  502  0.15963360185E+02  0.94789593685E+02 -0.77063615208E+01  0.19718844780E+03  0.17200000000E+03 0. -1.
</event>
<event>
 4    1  0.5714562E+000  0.1749263E+03  0.7818608E-02  0.1172806E+00
         21   -1    0    0  503  502  0.00000000000E+00  0.00000000000E+00  0.17406630091E+03  0.17406630091E+03  0.00000000000E+00 0.  1.
         21   -1    0    0  501  503 -0.00000000000E+00 -0.00000000000E+00 -0.40135163210E+03  0.40135163210E+03  0.00000000000E+00 0.  1.
          6    1    1    2  501    0 -0.30718425937E+02 -0.84617028552E+01 -0.32932913540E+03  0.37290334074E+03  0.17200000000E+03 0.  1.
         -6    1    1    2    0  502  0.30718425937E+02  0.84617028552E+01  0.10204380420E+03  0.20251459227E+03  0.17200000000E+03 0.  1.
</event>
<event>
 4    1  0.5714562E+000  0.2289910E+03  0.7818608E-02  0.1127352E+00
         21   -1    0    0  501  502  0.00000000000E+00  0.00000000000E+00  0.65361786258E+03  0.65361786258E+03  0.00000000000E+00 0.  1.
         21   -1    0    0  502  503 -0.00000000000E+00 -0.00000000000E+00 -0.10820173355E+03  0.10820173355E+03  0.00000000000E+00 0. -1.
          6    1    1    2  501    0 -0.12418684058E+03 -0.86200411556E+02  0.46639436991E+03  0.51957731919E+03  0.17200000000E+03 0.  1.
         -6    1    1    2    0  503  0.12418684058E+03  0.86200411556E+02  0.79021759112E+02  0.24224227694E+03  0.17200000000E+03 0.  1.
</event>
<event>
 4    1  0.5714562E+000  0.3077579E+03  0.7818608E-02  0.1081426E+00
         21   -1    0    0  501  502  0.00000000000E+00  0.00000000000E+00  0.13356680217E+03  0.13356680217E+03  0.00000000000E+00 0. -1.
         21   -1    0    0  502  503 -0.00000000000E+00 -0.00000000000E+00 -0.71160265354E+03  0.71160265354E+03  0.00000000000E+00 0. -1.
          6    1    1    2  501    0 -0.61613452514E+02 -0.24765848985E+03 -0.31397636756E+03  0.43965452859E+03  0.17200000000E+03 0. -1.
         -6    1    1    2    0  503  0.61613452514E+02  0.24765848985E+03 -0.26405948381E+03  0.40551492712E+03  0.17200000000E+03 0. -1.
</event>
<event>
 4    1  0.5714562E+000  0.2498792E+03  0.7818608E-02  0.1113381E+00
         21   -1    0    0  503  502  0.00000000000E+00  0.00000000000E+00  0.51587069424E+03  0.51587069424E+03  0.00000000000E+00 0. -1.
         21   -1    0    0  501  503 -0.00000000000E+00 -0.00000000000E+00 -0.13241671814E+03  0.13241671814E+03  0.00000000000E+00 0. -1.
          6    1    1    2  501    0  0.17985586542E+03 -0.22527088590E+02  0.96704589850E+02  0.26793913440E+03  0.17200000000E+03 0. -1.
         -6    1    1    2    0  502 -0.17985586542E+03  0.22527088590E+02  0.28674938625E+03  0.38034827797E+03  0.17200000000E+03 0. -1.
</event>
<event>
 4    1  0.5714562E+000  0.2181834E+03  0.7818608E-02  0.1135245E+00
         21   -1    0    0  501  502  0.00000000000E+00  0.00000000000E+00  0.59293793826E+03  0.59293793826E+03  0.00000000000E+00 0.  1.
         21   -1    0    0  502  503 -0.00000000000E+00 -0.00000000000E+00 -0.80340666623E+02  0.80340666623E+02  0.00000000000E+00 0. -1.
          6    1    1    2  501    0 -0.13206161478E+03  0.24077868924E+02  0.26516101797E+03  0.34338663241E+03  0.17200000000E+03 0.  1.
         -6    1    1    2    0  503  0.13206161478E+03 -0.24077868924E+02  0.24743625367E+03  0.32989197247E+03  0.17200000000E+03 0.  1.
</event>
<event>
 4    1  0.5714562E+000  0.1973448E+03  0.7818608E-02  0.1151999E+00
         21   -1    0    0  503  502  0.00000000000E+00  0.00000000000E+00  0.89377691275E+03  0.89377691275E+03  0.00000000000E+00 0.  1.
         21   -1    0    0  501  503 -0.00000000000E+00 -0.00000000000E+00 -0.72704112539E+02  0.72704112539E+02  0.00000000000E+00 0.  1.
          6    1    1    2  501    0  0.71540976574E+02 -0.65137099674E+02  0.10465085835E+03  0.22337581614E+03  0.17200000000E+03 0.  1.
         -6    1    1    2    0  502 -0.71540976574E+02  0.65137099674E+02  0.71642194186E+03  0.74310520915E+03  0.17200000000E+03 0.  1.
</event>
<event>
 4    1  0.5714562E+000  0.2016379E+03  0.7818608E-02  0.1148364E+00
         21   -1    0    0  503  502  0.00000000000E+00  0.00000000000E+00  0.29986626041E+03  0.29986626041E+03  0.00000000000E+00 0.  1.
         21   -1    0    0  501  503 -0.00000000000E+00 -0.00000000000E+00 -0.14864228351E+03  0.14864228351E+03  0.00000000000E+00 0.  1.
          6    1    1    2  501    0  0.30670511550E+02  0.10066362683E+03  0.91506039772E+01  0.20184543492E+03  0.17200000000E+03 0. -1.
         -6    1    1    2    0  502 -0.30670511550E+02 -0.10066362683E+03  0.14207337292E+03  0.24666310900E+03  0.17200000000E+03 0. -1.
</event>
<event>
 4    1  0.5714562E+000  0.1965697E+03  0.7818608E-02  0.1152666E+00
         21   -1    0    0  503  502  0.00000000000E+00  0.00000000000E+00  0.83315266648E+03  0.83315266648E+03  0.00000000000E+00 0.  1.
         21   -1    0    0  501  503 -0.00000000000E+00 -0.00000000000E+00 -0.47679594076E+02  0.47679594076E+02  0.00000000000E+00 0.  1.
          6    1    1    2  501    0 -0.79876140008E+02 -0.51724593568E+02  0.31995865616E+03  0.37551720730E+03  0.17200000000E+03 0.  1.
         -6    1    1    2    0  502  0.79876140008E+02  0.51724593568E+02  0.46551441625E+03  0.50531505326E+03  0.17200000000E+03 0.  1.
</event>
<event>
 4    1  0.5714562E+000  0.2137450E+03  0.7818608E-02  0.1138634E+00
         21   -1    0    0  503  502  0.00000000000E+00  0.00000000000E+00  0.25375015110E+03  0.25375015110E+03  0.00000000000E+00 0.  1.
         21   -1    0    0  501  503 -0.00000000000E+00 -0.00000000000E+00 -0.18119249552E+03  0.18119249552E+03  0.00000000000E+00 0.  1.
          6    1    1    2  501    0 -0.71847641145E+01 -0.12669369968E+03  0.18986327682E+02  0.21458656764E+03  0.17200000000E+03 0.  1.
         -6    1    1    2    0  502  0.71847641145E+01  0.12669369968E+03  0.53571327900E+02  0.22035607899E+03  0.17200000000E+03 0.  1.
</event>
<event>
 4    1  0.5714562E+000  0.1775910E+03  0.7818608E-02  0.1170155E+00
         21   -1    0    0  501  502  0.00000000000E+00  0.00000000000E+00  0.80305576021E+02  0.80305576021E+02  0.00000000000E+00 0.  1.
         21   -1    0    0  502  503 -0.00000000000E+00 -0.00000000000E+00 -0.39491614959E+03  0.39491614959E+03  0.00000000000E+00 0.  1.
          6    1    1    2  501    0  0.34531897011E+02  0.27606152175E+02 -0.13963363138E+03  0.22591171409E+03  0.17200000000E+03 0.  1.
         -6    1    1    2    0  503 -0.34531897011E+02 -0.27606152175E+02 -0.17497694219E+03  0.24931001153E+03  0.17200000000E+03 0.  1.
</event>
<event>
 4    1  0.5714562E+000  0.1830794E+03  0.7818608E-02  0.1164856E+00
         21   -1    0    0  503  502  0.00000000000E+00  0.00000000000E+00  0.42570150310E+03  0.42570150310E+03  0.00000000000E+00 0.  1.
         21   -1    0    0  501  503 -0.00000000000E+00 -0.00000000000E+00 -0.11987751192E+03  0.11987751192E+03  0.00000000000E+00 0.  1.
          6    1    1    2  501    0 -0.44729358152E+02  0.43969967577E+02 -0.68959724864E+01  0.18320924640E+03  0.17200000000E+03 0.  1.
         -6    1    1    2    0  502  0.44729358152E+02 -0.43969967577E+02  0.31271996367E+03  0.36236976862E+03  0.17200000000E+03 0.  1.
</event>
<event>
 4    1  0.5714562E+000  0.1819251E+03  0.7818608E-02  0.1165953E+00
         21   -1    0    0  503  502  0.00000000000E+00  0.00000000000E+00  0.29739893226E+03  0.29739893226E+03  0.00000000000E+00 0. -1.
         21   -1    0    0  501  503 -0.00000000000E+00 -0.00000000000E+00 -0.11351881918E+03  0.11351881918E+03  0.00000000000E+00 0. -1.
          6    1    1    2  501    0  0.39352214209E+02  0.44318624789E+02  0.63133787664E+02  0.19256846162E+03  0.17200000000E+03 0. -1.
         -6    1    1    2    0  502 -0.39352214209E+02 -0.44318624789E+02  0.12074632541E+03  0.21834928983E+03  0.17200000000E+03 0. -1.
</event>
<event>
 4    1  0.5714562E+000  0.2117338E+03  0.7818608E-02  0.1140200E+00
         21   -1    0    0  501  502  0.00000000000E+00  0.00000000000E+00  0.29102951794E+03  0.29102951794E+03  0.00000000000E+00 0.  1.
         21   -1    0    0  502  503 -0.00000000000E+00 -0.00000000000E+00 -0.17496322396E+03  0.17496322396E+03  0.00000000000E+00 0.  1.
          6    1    1    2  501    0 -0.91126060231E+02 -0.83326246196E+02  0.13859939756E+03  0.25306326316E+03  0.17200000000E+03 0.  1.
         -6    1    1    2    0  503  0.91126060231E+02  0.83326246196E+02 -0.22533103588E+02  0.21292947874E+03  0.17200000000E+03 0.  1.
</event>
<event>
 4    1  0.5714562E+000  0.2769926E+03  0.7818608E-02  0.1097343E+00
         21   -1    0    0  503  502  0.00000000000E+00  0.00000000000E+00  0.97373534348E+02  0.97373534348E+02  0.00000000000E+00 0.  1.
         21   -1    0    0  501  503 -0.00000000000E+00 -0.00000000000E+00 -0.11188199480E+04  0.11188199480E+04  0.00000000000E+00 0. -1.
          6    1    1    2  501    0 -0.14980293260E+03 -0.15716220089E+03 -0.84141642124E+03  0.88583659325E+03  0.17200000000E+03 0.  1.
         -6    1    1    2    0  502  0.14980293260E+03  0.15716220089E+03 -0.18002999241E+03  0.33035688910E+03  0.17200000000E+03 0. -1.
</event>
<event>
 4    1  0.5714562E+000  0.1768446E+03  0.7818608E-02  0.1170892E+00
         21   -1    0    0  503  502  0.00000000000E+00  0.00000000000E+00  0.13863647429E+02  0.13863647429E+02  0.00000000000E+00 0. -1.
         21   -1    0    0  501  503 -0.00000000000E+00 -0.00000000000E+00 -0.22848533180E+04  0.22848533180E+04  0.00000000000E+00 0.  1.
          6    1    1    2  501    0  0.13418715978E+02 -0.38858211067E+02 -0.12650351293E+04  0.12773362521E+04  0.17200000000E+03 0.  1.
         -6    1    1    2    0  502 -0.13418715978E+02  0.38858211067E+02 -0.10059545413E+04  0.10213807134E+04  0.17200000000E+03 0. -1.
</event>
<event>
 4    1  0.5714562E+000  0.2154404E+03  0.7818608E-02  0.1137329E+00
         21   -1    0    0  503  502  0.00000000000E+00  0.00000000000E+00  0.10090868196E+04  0.10090868196E+04  0.00000000000E+00 0.  1.
         21   -1    0    0  501  503 -0.00000000000E+00 -0.00000000000E+00 -0.57791885978E+02  0.57791885978E+02  0.00000000000E+00 0. -1.
          6    1    1    2  501    0  0.86591072275E+02  0.96605059095E+02  0.23465355793E+03  0.31855430226E+03  0.17200000000E+03 0. -1.
         -6    1    1    2    0  502 -0.86591072275E+02 -0.96605059095E+02  0.71664137567E+03  0.74832440329E+03  0.17200000000E+03 0.  1.
</event>
<event>
 4    1  0.5714562E+000  0.2192531E+03  0.7818608E-02  0.1134441E+00
         21   -1    0    0  501  502  0.00000000000E+00  0.00000000000E+00  0.61794383096E+03  0.61794383096E+03  0.00000000000E+00 0.  1.
         21   -1    0    0  502  503 -0.00000000000E+00 -0.00000000000E+00 -0.78111082339E+02  0.78111082339E+02  0.00000000000E+00 0.  1.
          6    1    1    2  501    0 -0.10494056598E+03  0.86460428211E+02  0.29211263427E+03  0.36524200078E+03  0.17200000000E+03 0.  1.
         -6    1    1    2    0  503  0.10494056598E+03 -0.86460428211E+02  0.24772011436E+03  0.33081291252E+03  0.17200000000E+03 0.  1.
</event>
<event>
 4    1  0.5714562E+000  0.2312394E+03  0.7818608E-02  0.1125770E+00
         21   -1    0    0  503  502  0.00000000000E+00  0.00000000000E+00  0.46666979687E+02  0.46666979687E+02  0.00000000000E+00 0.  1.
         21   -1    0    0  501  503 -0.00000000000E+00 -0.00000000000E+00 -0.11508413114E+04  0.11508413114E+04  0.00000000000E+00 0. -1.
          6    1    1    2  501    0 -0.15033823166E+03  0.35861842643E+02 -0.59166299287E+03  0.63524542720E+03  0.17200000000E+03 0.  1.
         -6    1    1    2    0  502  0.15033823166E+03 -0.35861842643E+02 -0.51251133884E+03  0.56226286388E+03  0.17200000000E+03 0.  1.
</event>
<event>
 4    1  0.5714562E+000  0.2153528E+03  0.7818608E-02  0.1137396E+00
         21   -1    0    0  501  502  0.00000000000E+00  0.00000000000E+00  0.16064507591E+03  0.16064507591E+03  0.00000000000E+00 0.  1.
         21   -1    0    0  502  503 -0.00000000000E+00 -0.00000000000E+00 -0.30074151534E+03  0.30074151534E+03  0.00000000000E+00 0. -1.
          6    1    1    2  501    0  0.92257991252E+02 -0.91001578606E+02 -0.23870021838E+02  0.21667164605E+03  0.17200000000E+03 0. -1.
         -6    1    1    2    0  503 -0.92257991252E+02  0.91001578606E+02 -0.11622641759E+03  0.24471494520E+03  0.17200000000E+03 0. -1.
</event>
<event>
 4    1  0.5714562E+000  0.2317428E+03  0.7818608E-02  0.1125419E+00
         21   -1    0    0  501  502  0.00000000000E+00  0.00000000000E+00  0.12559435739E+03  0.12559435739E+03  0.00000000000E+00 0. -1.
         21   -1    0    0  502  503 -0.00000000000E+00 -0.00000000000E+00 -0.59900426346E+03  0.59900426346E+03  0.00000000000E+00 0. -1.
          6    1    1    2  501    0 -0.85342361285E+01  0.15507381053E+03 -0.43050665384E+03  0.48891788564E+03  0.17200000000E+03 0. -1.
         -6    1    1    2    0  503  0.85342361285E+01 -0.15507381053E+03 -0.42903252238E+02  0.23568073522E+03  0.17200000000E+03 0. -1.
</event>
<event>
 4    1  0.5714562E+000  0.1745146E+03  0.7818608E-02  0.1173220E+00
         21   -1    0    0  503  502  0.00000000000E+00  0.00000000000E+00  0.28911573014E+02  0.28911573014E+02  0.00000000000E+00 0.  1.
         21   -1    0    0  501  503 -0.00000000000E+00 -0.00000000000E+00 -0.11921867087E+04  0.11921867087E+04  0.00000000000E+00 0.  1.
          6    1    1    2  501    0 -0.29511793996E+02  0.62851825718E+00 -0.78995632568E+03  0.80900329882E+03  0.17200000000E+03 0.  1.
         -6    1    1    2    0  502  0.29511793996E+02 -0.62851825718E+00 -0.37331880998E+03  0.41209498287E+03  0.17200000000E+03 0.  1.
</event>
<event>
 4    1  0.5714562E+000  0.2612330E+03  0.7818608E-02  0.1106405E+00
         21   -1    0    0  501  502  0.00000000000E+00  0.00000000000E+00  0.70292341092E+03  0.70292341092E+03  0.00000000000E+00 0. -1.
         21   -1    0    0  502  503 -0.00000000000E+00 -0.00000000000E+00 -0.18471054181E+03  0.18471054181E+03  0.00000000000E+00 0. -1.
          6    1    1    2  501    0  0.16318238485E+03 -0.10968211816E+03  0.56479258284E+03  0.62228074002E+03  0.17200000000E+03 0. -1.
         -6    1    1    2    0  503 -0.16318238485E+03  0.10968211816E+03 -0.46579713718E+02  0.26535321272E+03  0.17200000000E+03 0. -1.
</event>
<event>
 4    1  0.5714562E+000  0.1983712E+03  0.7818608E-02  0.1151121E+00
         21   -1    0    0  503  502  0.00000000000E+00  0.00000000000E+00  0.17946078404E+03  0.17946078404E+03  0.00000000000E+00 0. -1.
         21   -1    0    0  501  503 -0.00000000000E+00 -0.00000000000E+00 -0.24660126200E+03  0.24660126200E+03  0.00000000000E+00 0. -1.
          6    1    1    2  501    0 -0.94735046991E+02  0.28149933763E+02  0.37345141081E+02  0.20185590767E+03  0.17200000000E+03 0. -1.
         -6    1    1    2    0  502  0.94735046991E+02 -0.28149933763E+02 -0.10448561904E+03  0.22420613838E+03  0.17200000000E+03 0. -1.
</event>
<event>
 4    1  0.5714562E+000  0.2016112E+03  0.7818608E-02  0.1148387E+00
         21   -1    0    0  503  502  0.00000000000E+00  0.00000000000E+00  0.26167181431E+02  0.26167181431E+02  0.00000000000E+00 0. -1.
         21   -1    0    0  501  503 -0.00000000000E+00 -0.00000000000E+00 -0.16258377777E+04  0.16258377777E+04  0.00000000000E+00 0. -1.
          6    1    1    2  501    0  0.82103477687E+02  0.65742726841E+02 -0.97423320187E+03  0.99487557956E+03  0.17200000000E+03 0. -1.
         -6    1    1    2    0  502 -0.82103477687E+02 -0.65742726841E+02 -0.62543739437E+03  0.65712937954E+03  0.17200000000E+03 0. -1.
</event>
<event>
 4    1  0.5714562E+000  0.3018307E+03  0.7818608E-02  0.1084329E+00
         21   -1    0    0  501  502  0.00000000000E+00  0.00000000000E+00  0.12763708090E+03  0.12763708090E+03  0.00000000000E+00 0. -1.
         21   -1    0    0  502  503 -0.00000000000E+00 -0.00000000000E+00 -0.81053637425E+03  0.81053637425E+03  0.00000000000E+00 0.  1.
          6    1    1    2  501    0 -0.23936704525E+03 -0.64970879095E+02 -0.17935846306E+03  0.35110006515E+03  0.17200000000E+03 0. -1.
         -6    1    1    2    0  503  0.23936704525E+03  0.64970879095E+02 -0.50354083028E+03  0.58707339000E+03  0.17200000000E+03 0.  1.
</event>
<event>
 4    1  0.5714562E+000  0.2347669E+03  0.7818608E-02  0.1123329E+00
         21   -1    0    0  501  502  0.00000000000E+00  0.00000000000E+00  0.21557205995E+03  0.21557205995E+03  0.00000000000E+00 0. -1.
         21   -1    0    0  502  503 -0.00000000000E+00 -0.00000000000E+00 -0.10361579336E+04  0.10361579336E+04  0.00000000000E+00 0. -1.
          6    1    1    2  501    0 -0.12983276395E+03 -0.93139363423E+02 -0.95348141629E+03  0.98195839974E+03  0.17200000000E+03 0. -1.
         -6    1    1    2    0  503  0.12983276395E+03  0.93139363423E+02  0.13289554259E+03  0.26977159386E+03  0.17200000000E+03 0. -1.
</event>
<event>
 4    1  0.5714562E+000  0.1850970E+03  0.7818608E-02  0.1162959E+00
         21   -1    0    0  501  502  0.00000000000E+00  0.00000000000E+00  0.29201733766E+03  0.29201733766E+03  0.00000000000E+00 0.  1.
         21   -1    0    0  502  503 -0.00000000000E+00 -0.00000000000E+00 -0.16595421627E+03  0.16595421627E+03  0.00000000000E+00 0.  1.
          6    1    1    2  501    0  0.53554690738E+02  0.42530137047E+02  0.18698633323E+03  0.26310607418E+03  0.17200000000E+03 0.  1.
         -6    1    1    2    0  503 -0.53554690738E+02 -0.42530137047E+02 -0.60923211836E+02  0.19486547975E+03  0.17200000000E+03 0.  1.
</event>
<event>
 4    1  0.5714562E+000  0.1853924E+03  0.7818608E-02  0.1162684E+00
         21   -1    0    0  501  502  0.00000000000E+00  0.00000000000E+00  0.83272148076E+02  0.83272148076E+02  0.00000000000E+00 0.  1.
         21   -1    0    0  502  503 -0.00000000000E+00 -0.00000000000E+00 -0.56576737264E+03  0.56576737264E+03  0.00000000000E+00 0. -1.
          6    1    1    2  501    0 -0.30853552071E+02  0.61922603125E+02 -0.72477140447E+02  0.19905598795E+03  0.17200000000E+03 0.  1.
         -6    1    1    2    0  503  0.30853552071E+02 -0.61922603125E+02 -0.41001808412E+03  0.44998353276E+03  0.17200000000E+03 0. -1.
</event>
<event>
 4    1  0.5714562E+000  0.2089274E+03  0.7818608E-02  0.1142418E+00
         21   -1    0    0  501  502  0.00000000000E+00  0.00000000000E+00  0.43873810257E+02  0.43873810257E+02  0.00000000000E+00 0.  1.
         21   -1    0    0  502  503 -0.00000000000E+00 -0.00000000000E+00 -0.15766059237E+04  0.15766059237E+04  0.00000000000E+00 0.  1.
          6    1    1    2  501    0 -0.31609519148E+02 -0.11431316467E+03 -0.27421479171E+03  0.34473818082E+03  0.17200000000E+03 0.  1.
         -6    1    1    2    0  503  0.31609519148E+02  0.11431316467E+03 -0.12585173218E+04  0.12757415532E+04  0.17200000000E+03 0.  1.
</event>
<event>
 4    1  0.5714562E+000  0.2024651E+03  0.7818608E-02  0.1147676E+00
         21   -1    0    0  503  502  0.00000000000E+00  0.00000000000E+00  0.39149113502E+03  0.39149113502E+03  0.00000000000E+00 0.  1.
         21   -1    0    0  501  503 -0.00000000000E+00 -0.00000000000E+00 -0.20595523032E+03  0.20595523032E+03  0.00000000000E+00 0.  1.
          6    1    1    2  501    0 -0.78241031432E+02 -0.72707937109E+02 -0.11667941993E+03  0.23367967424E+03  0.17200000000E+03 0.  1.
         -6    1    1    2    0  502  0.78241031432E+02  0.72707937109E+02  0.30221532462E+03  0.36376669110E+03  0.17200000000E+03 0.  1.
</event>
<event>
 4    1  0.5714562E+000  0.3223707E+03  0.7818608E-02  0.1074563E+00
         21   -1    0    0  501  502  0.00000000000E+00  0.00000000000E+00  0.13240884378E+03  0.13240884378E+03  0.00000000000E+00 0.  1.
         21   -1    0    0  502  503 -0.00000000000E+00 -0.00000000000E+00 -0.98056778809E+03  0.98056778809E+03  0.00000000000E+00 0.  1.
          6    1    1    2  501    0 -0.10499618405E+03 -0.25162409124E+03 -0.17547021404E+03  0.36703225740E+03  0.17200000000E+03 0.  1.
         -6    1    1    2    0  503  0.10499618405E+03  0.25162409124E+03 -0.67268873028E+03  0.74594437447E+03  0.17200000000E+03 0.  1.
</event>
<event>
 4    1  0.5714562E+000  0.2019752E+03  0.7818608E-02  0.1148083E+00
         21   -1    0    0  501  502  0.00000000000E+00  0.00000000000E+00  0.10150200436E+03  0.10150200436E+03  0.00000000000E+00 0. -1.
         21   -1    0    0  502  503 -0.00000000000E+00 -0.00000000000E+00 -0.53867094602E+03  0.53867094602E+03  0.00000000000E+00 0. -1.
          6    1    1    2  501    0  0.70417885215E+02  0.79065068236E+02 -0.37987083634E+03  0.43022763263E+03  0.17200000000E+03 0. -1.
         -6    1    1    2    0  503 -0.70417885215E+02 -0.79065068236E+02 -0.57298105321E+02  0.20994531775E+03  0.17200000000E+03 0. -1.
</event>
<event>
 4    1  0.5714562E+000  0.2361979E+03  0.7818608E-02  0.1122352E+00
         21   -1    0    0  501  502  0.00000000000E+00  0.00000000000E+00  0.15264336980E+03  0.15264336980E+03  0.00000000000E+00 0. -1.
         21   -1    0    0  502  503 -0.00000000000E+00 -0.00000000000E+00 -0.57527361803E+03  0.57527361803E+03  0.00000000000E+00 0.  1.
          6    1    1    2  501    0  0.11322320912E+03  0.11569767289E+03  0.84716866825E+01  0.23634977485E+03  0.17200000000E+03 0. -1.
         -6    1    1    2    0  503 -0.11322320912E+03 -0.11569767289E+03 -0.43110193491E+03  0.49156721299E+03  0.17200000000E+03 0.  1.
</event>
<event>
 4    1  0.5714562E+000  0.2038113E+03  0.7818608E-02  0.1146563E+00
         21   -1    0    0  503  502  0.00000000000E+00  0.00000000000E+00  0.46803478629E+02  0.46803478629E+02  0.00000000000E+00 0. -1.
         21   -1    0    0  501  503 -0.00000000000E+00 -0.00000000000E+00 -0.11260080530E+04  0.11260080530E+04  0.00000000000E+00 0. -1.
          6    1    1    2  501    0  0.56946051366E+02  0.93339208403E+02 -0.80947568261E+03  0.83473944517E+03  0.17200000000E+03 0. -1.
         -6    1    1    2    0  502 -0.56946051366E+02 -0.93339208403E+02 -0.26972889178E+03  0.33807208647E+03  0.17200000000E+03 0. -1.
</event>
<event>
 4    1  0.5714562E+000  0.2214115E+03  0.7818608E-02  0.1132835E+00
         21   -1    0    0  503  502  0.00000000000E+00  0.00000000000E+00  0.16344633890E+04  0.16344633890E+04  0.00000000000E+00 0. -1.
         21   -1    0    0  501  503 -0.00000000000E+00 -0.00000000000E+00 -0.31659264074E+02  0.31659264074E+02  0.00000000000E+00 0.  1.
          6    1    1    2  501    0  0.13374751653E+03 -0.39378232015E+02  0.99249823975E+03  0.10168951761E+04  0.17200000000E+03 0. -1.
         -6    1    1    2    0  502 -0.13374751653E+03  0.39378232015E+02  0.61030588514E+03  0.64922747690E+03  0.17200000000E+03 0.  1.
</event>
<event>
 4    1  0.5714562E+000  0.2052988E+03  0.7818608E-02  0.1145344E+00
         21   -1    0    0  501  502  0.00000000000E+00  0.00000000000E+00  0.22416153491E+03  0.22416153491E+03  0.00000000000E+00 0.  1.
         21   -1    0    0  502  503 -0.00000000000E+00 -0.00000000000E+00 -0.34895962475E+03  0.34895962475E+03  0.00000000000E+00 0. -1.
          6    1    1    2  501    0  0.10701975955E+03 -0.33321946220E+02  0.13220683559E+03  0.24418482429E+03  0.17200000000E+03 0.  1.
         -6    1    1    2    0  503 -0.10701975955E+03  0.33321946220E+02 -0.25700492544E+03  0.32893633538E+03  0.17200000000E+03 0. -1.
</event>
<event>
 4    1  0.5714562E+000  0.2647756E+03  0.7818608E-02  0.1104307E+00
         21   -1    0    0  503  502  0.00000000000E+00  0.00000000000E+00  0.26101880249E+03  0.26101880249E+03  0.00000000000E+00 0. -1.
         21   -1    0    0  501  503 -0.00000000000E+00 -0.00000000000E+00 -0.43204302735E+03  0.43204302735E+03  0.00000000000E+00 0. -1.
          6    1    1    2  501    0 -0.14890667355E+03 -0.13545825925E+03 -0.29865927901E+03  0.39912842841E+03  0.17200000000E+03 0. -1.
         -6    1    1    2    0  502  0.14890667355E+03  0.13545825925E+03  0.12763505415E+03  0.29393340143E+03  0.17200000000E+03 0. -1.
</event>
<event>
 4    1  0.5714562E+000  0.2137498E+03  0.7818608E-02  0.1138631E+00
         21   -1    0    0  503  502  0.00000000000E+00  0.00000000000E+00  0.19436834432E+03  0.19436834432E+03  0.00000000000E+00 0.  1.
         21   -1    0    0  501  503 -0.00000000000E+00 -0.00000000000E+00 -0.23553904024E+03  0.23553904024E+03  0.00000000000E+00 0.  1.
          6    1    1    2  501    0  0.70261599099E+02 -0.10568004334E+03 -0.30240625609E+02  0.21587834376E+03  0.17200000000E+03 0.  1.
         -6    1    1    2    0  502 -0.70261599099E+02  0.10568004334E+03 -0.10930070315E+02  0.21402904080E+03  0.17200000000E+03 0.  1.
</event>
<event>
 4    1  0.5714562E+000  0.1917539E+03  0.7818608E-02  0.1156889E+00
         21   -1    0    0  501  502  0.00000000000E+00  0.00000000000E+00  0.54485459795E+02  0.54485459795E+02  0.00000000000E+00 0. -1.
         21   -1    0    0  502  503 -0.00000000000E+00 -0.00000000000E+00 -0.11797842663E+04  0.11797842663E+04  0.00000000000E+00 0.  1.
          6    1    1    2  501    0  0.78816034481E+02  0.31202240724E+02 -0.15891484012E+03  0.24904512348E+03  0.17200000000E+03 0. -1.
         -6    1    1    2    0  503 -0.78816034481E+02 -0.31202240724E+02 -0.96638396641E+03  0.98522460265E+03  0.17200000000E+03 0.  1.
</event>
<event>
 4    1  0.5714562E+000  0.2278142E+03  0.7818608E-02  0.1128188E+00
         21   -1    0    0  503  502  0.00000000000E+00  0.00000000000E+00  0.49214281806E+03  0.49214281806E+03  0.00000000000E+00 0.  1.
         21   -1    0    0  501  503 -0.00000000000E+00 -0.00000000000E+00 -0.33551071182E+03  0.33551071182E+03  0.00000000000E+00 0.  1.
          6    1    1    2  501    0  0.14836159843E+03  0.17439544818E+02 -0.26435795213E+03  0.34897625774E+03  0.17200000000E+03 0.  1.
         -6    1    1    2    0  502 -0.14836159843E+03 -0.17439544818E+02  0.42099005838E+03  0.47867727214E+03  0.17200000000E+03 0.  1.
</event>
<event>
 4    1  0.5714562E+000  0.2074178E+03  0.7818608E-02  0.1143627E+00
         21   -1    0    0  503  502  0.00000000000E+00  0.00000000000E+00  0.97650390259E+02  0.97650390259E+02  0.00000000000E+00 0. -1.
         21   -1    0    0  501  503 -0.00000000000E+00 -0.00000000000E+00 -0.89428598694E+03  0.89428598694E+03  0.00000000000E+00 0.  1.
          6    1    1    2  501    0 -0.11592289240E+03 -0.11328363707E+00 -0.75158733808E+03  0.77968304880E+03  0.17200000000E+03 0.  1.
         -6    1    1    2    0  502  0.11592289240E+03  0.11328363707E+00 -0.45048258602E+02  0.21225332841E+03  0.17200000000E+03 0. -1.
</event>
<event>
 4    1  0.5714562E+000  0.1777925E+03  0.7818608E-02  0.1169957E+00
         21   -1    0    0  501  502  0.00000000000E+00  0.00000000000E+00  0.12741514256E+03  0.12741514256E+03  0.00000000000E+00 0.  1.
         21   -1    0    0  502  503 -0.00000000000E+00 -0.00000000000E+00 -0.37764287924E+03  0.37764287924E+03  0.00000000000E+00 0.  1.
          6    1    1    2  501    0  0.85430527910E+01 -0.44194800484E+02  0.22796140775E+02  0.17924795166E+03  0.17200000000E+03 0.  1.
         -6    1    1    2    0  503 -0.85430527910E+01  0.44194800484E+02 -0.27302387746E+03  0.32581007014E+03  0.17200000000E+03 0.  1.
</event>
<event>
 4    1  0.5714562E+000  0.2179675E+03  0.7818608E-02  0.1135407E+00
         21   -1    0    0  503  502  0.00000000000E+00  0.00000000000E+00  0.43580391578E+02  0.43580391578E+02  0.00000000000E+00 0.  1.
         21   -1    0    0  501  503 -0.00000000000E+00 -0.00000000000E+00 -0.11300189529E+04  0.11300189529E+04  0.00000000000E+00 0.  1.
          6    1    1    2  501    0  0.95880565095E+02 -0.93449142654E+02 -0.65341932530E+03  0.68881538869E+03  0.17200000000E+03 0.  1.
         -6    1    1    2    0  502 -0.95880565095E+02  0.93449142654E+02 -0.43301923606E+03  0.48478395583E+03  0.17200000000E+03 0.  1.
</event>
<event>
 4    1  0.5714562E+000  0.1891147E+03  0.7818608E-02  0.1159262E+00
         21   -1    0    0  503  502  0.00000000000E+00  0.00000000000E+00  0.23667677070E+02  0.23667677070E+02  0.00000000000E+00 0. -1.
         21   -1    0    0  501  503 -0.00000000000E+00 -0.00000000000E+00 -0.20494859198E+04  0.20494859198E+04  0.00000000000E+00 0.  1.
          6    1    1    2  501    0 -0.39708283289E+02  0.67849935163E+02 -0.15441892429E+04  0.15557264475E+04  0.17200000000E+03 0.  1.
         -6    1    1    2    0  502  0.39708283289E+02 -0.67849935163E+02 -0.48162899986E+03  0.51742714943E+03  0.17200000000E+03 0. -1.
</event>
<event>
 4    1  0.5714562E+000  0.2211044E+03  0.7818608E-02  0.1133062E+00
         21   -1    0    0  503  502  0.00000000000E+00  0.00000000000E+00  0.88850035370E+02  0.88850035370E+02  0.00000000000E+00 0. -1.
         21   -1    0    0  501  503 -0.00000000000E+00 -0.00000000000E+00 -0.10622735063E+04  0.10622735063E+04  0.00000000000E+00 0. -1.
          6    1    1    2  501    0 -0.79749378032E+02 -0.11376809409E+03 -0.88631688317E+03  0.91347947975E+03  0.17200000000E+03 0. -1.
         -6    1    1    2    0  502  0.79749378032E+02  0.11376809409E+03 -0.87106587743E+02  0.23764406190E+03  0.17200000000E+03 0. -1.
</event>
<event>
 4    1  0.5714562E+000  0.2220753E+03  0.7818608E-02  0.1132345E+00
         21   -1    0    0  503  502  0.00000000000E+00  0.00000000000E+00  0.34655626784E+03  0.34655626784E+03  0.00000000000E+00 0.  1.
         21   -1    0    0  501  503 -0.00000000000E+00 -0.00000000000E+00 -0.33518225710E+03  0.33518225710E+03  0.00000000000E+00 0. -1.
          6    1    1    2  501    0 -0.89392908555E+02  0.10836207664E+03 -0.25288733791E+03  0.33655525167E+03  0.17200000000E+03 0. -1.
         -6    1    1    2    0  502  0.89392908555E+02 -0.10836207664E+03  0.26426134865E+03  0.34518327327E+03  0.17200000000E+03 0.  1.
</event>
<event>
 4    1  0.5714562E+000  0.1804527E+03  0.7818608E-02  0.1167366E+00
         21   -1    0    0  503  502  0.00000000000E+00  0.00000000000E+00  0.46440190389E+03  0.46440190389E+03  0.00000000000E+00 0. -1.
         21   -1    0    0  501  503 -0.00000000000E+00 -0.00000000000E+00 -0.14140434766E+03  0.14140434766E+03  0.00000000000E+00 0. -1.
          6    1    1    2  501    0  0.47405336605E+02  0.27054016700E+02 -0.53568280735E+02  0.18823587984E+03  0.17200000000E+03 0. -1.
         -6    1    1    2    0  502 -0.47405336605E+02 -0.27054016700E+02  0.37656583697E+03  0.41757037171E+03  0.17200000000E+03 0. -1.
</event>
<event>
 4    1  0.5714562E+000  0.1854724E+03  0.7818608E-02  0.1162610E+00
         21   -1    0    0  503  502  0.00000000000E+00  0.00000000000E+00  0.54183257724E+03  0.54183257724E+03  0.00000000000E+00 0. -1.
         21   -1    0    0  501  503 -0.00000000000E+00 -0.00000000000E+00 -0.71214869854E+02  0.71214869854E+02  0.00000000000E+00 0. -1.
          6    1    1    2  501    0  0.21287192928E+01 -0.69364748005E+02  0.13434320313E+03  0.22901549279E+03  0.17200000000E+03 0. -1.
         -6    1    1    2    0  502 -0.21287192928E+01  0.69364748005E+02  0.33627450425E+03  0.38403195430E+03  0.17200000000E+03 0. -1.
</event>
<event>
 4    1  0.5714562E+000  0.1882663E+03  0.7818608E-02  0.1160034E+00
         21   -1    0    0  503  502  0.00000000000E+00  0.00000000000E+00  0.25619137342E+03  0.25619137342E+03  0.00000000000E+00 0.  1.
         21   -1    0    0  501  503 -0.00000000000E+00 -0.00000000000E+00 -0.17224223295E+03  0.17224223295E+03  0.00000000000E+00 0.  1.
          6    1    1    2  501    0  0.52588909103E+01  0.76371048176E+02 -0.53048900774E+02  0.19559749182E+03  0.17200000000E+03 0.  1.
         -6    1    1    2    0  502 -0.52588909103E+01 -0.76371048176E+02  0.13699804124E+03  0.23283611455E+03  0.17200000000E+03 0.  1.
</event>
<event>
 4    1  0.5714562E+000  0.2273220E+03  0.7818608E-02  0.1128539E+00
         21   -1    0    0  501  502  0.00000000000E+00  0.00000000000E+00  0.11704091466E+03  0.11704091466E+03  0.00000000000E+00 0.  1.
         21   -1    0    0  502  503 -0.00000000000E+00 -0.00000000000E+00 -0.44582232796E+03  0.44582232796E+03  0.00000000000E+00 0.  1.
          6    1    1    2  501    0 -0.11034007640E+03 -0.99580881073E+02 -0.13672695522E+03  0.26527258550E+03  0.17200000000E+03 0.  1.
         -6    1    1    2    0  503  0.11034007640E+03  0.99580881073E+02 -0.19205445808E+03  0.29759065712E+03  0.17200000000E+03 0.  1.
</event>
<event>
 4    1  0.5714562E+000  0.1997451E+03  0.7818608E-02  0.1149954E+00
         21   -1    0    0  503  502  0.00000000000E+00  0.00000000000E+00  0.20535795025E+03  0.20535795025E+03  0.00000000000E+00 0.  1.
         21   -1    0    0  501  503 -0.00000000000E+00 -0.00000000000E+00 -0.55942120433E+03  0.55942120433E+03  0.00000000000E+00 0.  1.
          6    1    1    2  501    0 -0.10126765593E+03  0.76798216189E+01 -0.48596412984E+03  0.52541341179E+03  0.17200000000E+03 0.  1.
         -6    1    1    2    0  502  0.10126765593E+03 -0.76798216189E+01  0.13190087576E+03  0.23936574279E+03  0.17200000000E+03 0.  1.
</event>
<event>
 4    1  0.5714562E+000  0.2289342E+03  0.7818608E-02  0.1127392E+00
         21   -1    0    0  503  502  0.00000000000E+00  0.00000000000E+00  0.72652021675E+03  0.72652021675E+03  0.00000000000E+00 0.  1.
         21   -1    0    0  501  503 -0.00000000000E+00 -0.00000000000E+00 -0.81446941073E+02  0.81446941073E+02  0.00000000000E+00 0. -1.
          6    1    1    2  501    0  0.48550767925E+02 -0.14307233436E+03  0.18597164330E+03  0.29495138928E+03  0.17200000000E+03 0. -1.
         -6    1    1    2    0  502 -0.48550767925E+02  0.14307233436E+03  0.45910163238E+03  0.51301576855E+03  0.17200000000E+03 0.  1.
</event>
<event>
 4    1  0.5714562E+000  0.2210301E+03  0.7818608E-02  0.1133117E+00
         21   -1    0    0  501  502  0.00000000000E+00  0.00000000000E+00  0.11718568108E+04  0.11718568108E+04  0.00000000000E+00 0.  1.
         21   -1    0    0  502  503 -0.00000000000E+00 -0.00000000000E+00 -0.16670695844E+03  0.16670695844E+03  0.00000000000E+00 0.  1.
          6    1    1    2  501    0 -0.10898026960E+03  0.85986158905E+02  0.10821600784E+04  0.11045020389E+04  0.17200000000E+03 0.  1.
         -6    1    1    2    0  503  0.10898026960E+03 -0.85986158905E+02 -0.77010226043E+02  0.23406173032E+03  0.17200000000E+03 0.  1.
</event>
<event>
 4    1  0.5714562E+000  0.2561751E+03  0.7818608E-02  0.1109463E+00
         21   -1    0    0  501  502  0.00000000000E+00  0.00000000000E+00  0.16893690402E+04  0.16893690402E+04  0.00000000000E+00 0.  1.
         21   -1    0    0  502  503 -0.00000000000E+00 -0.00000000000E+00 -0.82868717113E+02  0.82868717113E+02  0.00000000000E+00 0. -1.
          6    1    1    2  501    0 -0.18963602044E+03 -0.89372604181E+01  0.14491032569E+04  0.14715726092E+04  0.17200000000E+03 0.  1.
         -6    1    1    2    0  503  0.18963602044E+03  0.89372604181E+01  0.15739706620E+03  0.30066514816E+03  0.17200000000E+03 0. -1.
</event>
<event>
 4    1  0.5714562E+000  0.4097952E+03  0.7818608E-02  0.1040440E+00
         21   -1    0    0  503  502  0.00000000000E+00  0.00000000000E+00  0.51929769794E+03  0.51929769794E+03  0.00000000000E+00 0. -1.
         21   -1    0    0  501  503 -0.00000000000E+00 -0.00000000000E+00 -0.37625532304E+03  0.37625532304E+03  0.00000000000E+00 0.  1.
          6    1    1    2  501    0  0.37019596267E+03 -0.36097823794E+02 -0.96333600139E+02  0.42096587294E+03  0.17200000000E+03 0. -1.
         -6    1    1    2    0  502 -0.37019596267E+03  0.36097823794E+02  0.23937597503E+03  0.47458714804E+03  0.17200000000E+03 0. -1.
</event>
<event>
 4    1  0.5714562E+000  0.2330365E+03  0.7818608E-02  0.1124521E+00
         21   -1    0    0  503  502  0.00000000000E+00  0.00000000000E+00  0.33766139558E+03  0.33766139558E+03  0.00000000000E+00 0.  1.
         21   -1    0    0  501  503 -0.00000000000E+00 -0.00000000000E+00 -0.20882618098E+03  0.20882618098E+03  0.00000000000E+00 0.  1.
          6    1    1    2  501    0  0.14547591246E+03  0.59655254789E+02 -0.66579707893E+02  0.24236098703E+03  0.17200000000E+03 0.  1.
         -6    1    1    2    0  502 -0.14547591246E+03 -0.59655254789E+02  0.19541492249E+03  0.30412658954E+03  0.17200000000E+03 0.  1.
</event>
<event>
 4    1  0.5714562E+000  0.1758422E+03  0.7818608E-02  0.1171889E+00
         21   -1    0    0  501  502  0.00000000000E+00  0.00000000000E+00  0.86728885421E+02  0.86728885421E+02  0.00000000000E+00 0.  1.
         21   -1    0    0  502  503 -0.00000000000E+00 -0.00000000000E+00 -0.57847930506E+03  0.57847930506E+03  0.00000000000E+00 0.  1.
          6    1    1    2  501    0  0.28435766396E+02  0.22976073482E+02 -0.39849525071E+02  0.18030107435E+03  0.17200000000E+03 0.  1.
         -6    1    1    2    0  503 -0.28435766396E+02 -0.22976073482E+02 -0.45190089457E+03  0.48490711613E+03  0.17200000000E+03 0.  1.
</event>
<event>
 4    1  0.5714562E+000  0.2213553E+03  0.7818608E-02  0.1132877E+00
         21   -1    0    0  501  502  0.00000000000E+00  0.00000000000E+00  0.19101744288E+04  0.19101744288E+04  0.00000000000E+00 0. -1.
         21   -1    0    0  502  503 -0.00000000000E+00 -0.00000000000E+00 -0.27532297204E+02  0.27532297204E+02  0.00000000000E+00 0. -1.
          6    1    1    2  501    0  0.91630044310E+01 -0.13903311485E+03  0.11945704547E+04  0.12149060618E+04  0.17200000000E+03 0. -1.
         -6    1    1    2    0  503 -0.91630044310E+01  0.13903311485E+03  0.68807167689E+03  0.72280066423E+03  0.17200000000E+03 0. -1.
</event>
<event>
 4    1  0.5714562E+000  0.2893646E+03  0.7818608E-02  0.1090681E+00
         21   -1    0    0  501  502  0.00000000000E+00  0.00000000000E+00  0.53866249628E+02  0.53866249628E+02  0.00000000000E+00 0.  1.
         21   -1    0    0  502  503 -0.00000000000E+00 -0.00000000000E+00 -0.16444077310E+04  0.16444077310E+04  0.00000000000E+00 0.  1.
          6    1    1    2  501    0 -0.22112945827E+03  0.72454420277E+02 -0.99388716891E+03  0.10351538943E+04  0.17200000000E+03 0.  1.
         -6    1    1    2    0  503  0.22112945827E+03 -0.72454420277E+02 -0.59665431249E+03  0.66312008637E+03  0.17200000000E+03 0.  1.
</event>
<event>
 4    1  0.5714562E+000  0.1912856E+03  0.7818608E-02  0.1157307E+00
         21   -1    0    0  501  502  0.00000000000E+00  0.00000000000E+00  0.18748063227E+03  0.18748063227E+03  0.00000000000E+00 0. -1.
         21   -1    0    0  502  503 -0.00000000000E+00 -0.00000000000E+00 -0.48686663267E+03  0.48686663267E+03  0.00000000000E+00 0. -1.
          6    1    1    2  501    0 -0.55846183420E+02  0.62348862786E+02  0.11129225216E+03  0.22130554056E+03  0.17200000000E+03 0. -1.
         -6    1    1    2    0  503  0.55846183420E+02 -0.62348862786E+02 -0.41067825257E+03  0.45304172437E+03  0.17200000000E+03 0. -1.
</event>
<event>
 4    1  0.5714562E+000  0.2804781E+03  0.7818608E-02  0.1095428E+00
         21   -1    0    0  503  502  0.00000000000E+00  0.00000000000E+00  0.61013286650E+03  0.61013286650E+03  0.00000000000E+00 0.  1.
         21   -1    0    0  501  503 -0.00000000000E+00 -0.00000000000E+00 -0.13042072183E+03  0.13042072183E+03  0.00000000000E+00 0. -1.
          6    1    1    2  501    0  0.13859627113E+03  0.17284402986E+03  0.27936554278E+03  0.39587004373E+03  0.17200000000E+03 0. -1.
         -6    1    1    2    0  502 -0.13859627113E+03 -0.17284402986E+03  0.20034660189E+03  0.34468354460E+03  0.17200000000E+03 0. -1.
</event>
<event>
 4    1  0.5714562E+000  0.1755861E+03  0.7818608E-02  0.1172144E+00
         21   -1    0    0  503  502  0.00000000000E+00  0.00000000000E+00  0.57047081500E+02  0.57047081500E+02  0.00000000000E+00 0.  1.
         21   -1    0    0  501  503 -0.00000000000E+00 -0.00000000000E+00 -0.54139386474E+03  0.54139386474E+03  0.00000000000E+00 0.  1.
          6    1    1    2  501    0 -0.76273248919E+01 -0.34471862825E+02 -0.25473759239E+03  0.30938927969E+03  0.17200000000E+03 0.  1.
         -6    1    1    2    0  502  0.76273248919E+01  0.34471862825E+02 -0.22960919085E+03  0.28905166655E+03  0.17200000000E+03 0.  1.
</event>
<event>
 4    1  0.5714562E+000  0.1757560E+03  0.7818608E-02  0.1171975E+00
         21   -1    0    0  501  502  0.00000000000E+00  0.00000000000E+00  0.30679366246E+03  0.30679366246E+03  0.00000000000E+00 0.  1.
         21   -1    0    0  502  503 -0.00000000000E+00 -0.00000000000E+00 -0.11507329925E+03  0.11507329925E+03  0.00000000000E+00 0.  1.
          6    1    1    2  501    0 -0.40255196686E+01  0.35916007944E+02  0.17044170665E+03  0.24482757157E+03  0.17200000000E+03 0.  1.
         -6    1    1    2    0  503  0.40255196686E+01 -0.35916007944E+02  0.21278656562E+02  0.17703939014E+03  0.17200000000E+03 0.  1.
</event>
<event>
 4    1  0.5714562E+000  0.2173773E+03  0.7818608E-02  0.1135854E+00
         21   -1    0    0  503  502  0.00000000000E+00  0.00000000000E+00  0.56751997976E+02  0.56751997976E+02  0.00000000000E+00 0.  1.
         21   -1    0    0  501  503 -0.00000000000E+00 -0.00000000000E+00 -0.14760144560E+04  0.14760144560E+04  0.00000000000E+00 0. -1.
          6    1    1    2  501    0  0.11737128646E+02  0.13240513289E+03 -0.12156179966E+04  0.12349008029E+04  0.17200000000E+03 0. -1.
         -6    1    1    2    0  502 -0.11737128646E+02 -0.13240513289E+03 -0.20364446140E+03  0.29786565103E+03  0.17200000000E+03 0.  1.
</event>
<event>
 4    1  0.5714562E+000  0.1764513E+03  0.7818608E-02  0.1171282E+00
         21   -1    0    0  501  502  0.00000000000E+00  0.00000000000E+00  0.20410264212E+04  0.20410264212E+04  0.00000000000E+00 0.  1.
         21   -1    0    0  502  503 -0.00000000000E+00 -0.00000000000E+00 -0.15315964033E+02  0.15315964033E+02  0.00000000000E+00 0. -1.
          6    1    1    2  501    0 -0.38654335814E+02 -0.75438349372E+01  0.10779290086E+04  0.10922756130E+04  0.17200000000E+03 0. -1.
         -6    1    1    2    0  503  0.38654335814E+02  0.75438349372E+01  0.94778144857E+03  0.96406677226E+03  0.17200000000E+03 0.  1.
</event>
<event>
 4    1  0.5714562E+000  0.1738315E+03  0.7818608E-02  0.1173910E+00
         21   -1    0    0  503  502  0.00000000000E+00  0.00000000000E+00  0.65110974723E+02  0.65110974723E+02  0.00000000000E+00 0.  1.
         21   -1    0    0  501  503 -0.00000000000E+00 -0.00000000000E+00 -0.46615656327E+03  0.46615656327E+03  0.00000000000E+00 0.  1.
          6    1    1    2  501    0 -0.24222665182E+02 -0.68299569167E+01 -0.18283850673E+03  0.25228417581E+03  0.17200000000E+03 0.  1.
         -6    1    1    2    0  502  0.24222665182E+02  0.68299569167E+01 -0.21820708181E+03  0.27898336218E+03  0.17200000000E+03 0.  1.
</event>
<event>
 4    1  0.5714562E+000  0.1842006E+03  0.7818608E-02  0.1163799E+00
         21   -1    0    0  503  502  0.00000000000E+00  0.00000000000E+00  0.17882048449E+03  0.17882048449E+03  0.00000000000E+00 0. -1.
         21   -1    0    0  501  503 -0.00000000000E+00 -0.00000000000E+00 -0.18974256511E+03  0.18974256511E+03  0.00000000000E+00 0. -1.
          6    1    1    2  501    0  0.47115375392E+02 -0.46108409337E+02 -0.53451829970E+01  0.18427809146E+03  0.17200000000E+03 0. -1.
         -6    1    1    2    0  502 -0.47115375392E+02  0.46108409337E+02 -0.55768976261E+01  0.18428495814E+03  0.17200000000E+03 0. -1.
</event>
<event>
 4    1  0.5714562E+000  0.1810970E+03  0.7818608E-02  0.1166746E+00
         21   -1    0    0  501  502  0.00000000000E+00  0.00000000000E+00  0.13210170540E+03  0.13210170540E+03  0.00000000000E+00 0.  1.
         21   -1    0    0  502  503 -0.00000000000E+00 -0.00000000000E+00 -0.26152620862E+03  0.26152620862E+03  0.00000000000E+00 0.  1.
          6    1    1    2  501    0 -0.53707228834E+02  0.18101115597E+02 -0.20391832984E+02  0.18224144333E+03  0.17200000000E+03 0.  1.
         -6    1    1    2    0  503  0.53707228834E+02 -0.18101115597E+02 -0.10903267023E+03  0.21138647070E+03  0.17200000000E+03 0.  1.
</event>
<event>
 4    1  0.5714562E+000  0.2074030E+03  0.7818608E-02  0.1143639E+00
         21   -1    0    0  503  502  0.00000000000E+00  0.00000000000E+00  0.10561919504E+03  0.10561919504E+03  0.00000000000E+00 0.  1.
         21   -1    0    0  501  503 -0.00000000000E+00 -0.00000000000E+00 -0.55532424076E+03  0.55532424076E+03  0.00000000000E+00 0. -1.
          6    1    1    2  501    0 -0.80048306562E+02  0.83810998268E+02 -0.39548616843E+03  0.44657062626E+03  0.17200000000E+03 0. -1.
         -6    1    1    2    0  502  0.80048306562E+02 -0.83810998268E+02 -0.54218877285E+02  0.21437280954E+03  0.17200000000E+03 0.  1.
</event>
<event>
 4    1  0.5714562E+000  0.1953542E+03  0.7818608E-02  0.1153719E+00
         21   -1    0    0  503  502  0.00000000000E+00  0.00000000000E+00  0.28793470801E+03  0.28793470801E+03  0.00000000000E+00 0.  1.
         21   -1    0    0  501  503 -0.00000000000E+00 -0.00000000000E+00 -0.42245260401E+03  0.42245260401E+03  0.00000000000E+00 0.  1.
          6    1    1    2  501    0 -0.92248385815E+02  0.83356968455E+01 -0.36150372221E+03  0.41091141344E+03  0.17200000000E+03 0.  1.
         -6    1    1    2    0  502  0.92248385815E+02 -0.83356968455E+01  0.22698582621E+03  0.29947589858E+03  0.17200000000E+03 0.  1.
</event>
<event>
 4    1  0.5714562E+000  0.2885465E+03  0.7818608E-02  0.1091110E+00
         21   -1    0    0  503  502  0.00000000000E+00  0.00000000000E+00  0.24097658185E+03  0.24097658185E+03  0.00000000000E+00 0. -1.
         21   -1    0    0  501  503 -0.00000000000E+00 -0.00000000000E+00 -0.41597102349E+03  0.41597102349E+03  0.00000000000E+00 0. -1.
          6    1    1    2  501    0 -0.14162817087E+03  0.18334813751E+03 -0.22268988988E+03  0.36448575468E+03  0.17200000000E+03 0. -1.
         -6    1    1    2    0  502  0.14162817087E+03 -0.18334813751E+03  0.47695448242E+02  0.29246185066E+03  0.17200000000E+03 0. -1.
</event>
<event>
 4    1  0.5714562E+000  0.2355168E+03  0.7818608E-02  0.1122816E+00
         21   -1    0    0  501  502  0.00000000000E+00  0.00000000000E+00  0.10106397360E+03  0.10106397360E+03  0.00000000000E+00 0. -1.
         21   -1    0    0  502  503 -0.00000000000E+00 -0.00000000000E+00 -0.73431413893E+03  0.73431413893E+03  0.00000000000E+00 0.  1.
          6    1    1    2  501    0 -0.20010975109E+00  0.16088549786E+03 -0.10670637539E+03  0.25856224399E+03  0.17200000000E+03 0. -1.
         -6    1    1    2    0  503  0.20010975109E+00 -0.16088549786E+03 -0.52654378995E+03  0.57681586854E+03  0.17200000000E+03 0.  1.
</event>
<event>
 4    1  0.5714562E+000  0.1745830E+03  0.7818608E-02  0.1173151E+00
         21   -1    0    0  501  502  0.00000000000E+00  0.00000000000E+00  0.97707649234E+03  0.97707649234E+03  0.00000000000E+00 0.  1.
         21   -1    0    0  502  503 -0.00000000000E+00 -0.00000000000E+00 -0.31356788280E+02  0.31356788280E+02  0.00000000000E+00 0.  1.
          6    1    1    2  501    0 -0.11952751820E+02  0.27428900931E+02  0.50915665275E+03  0.53825617499E+03  0.17200000000E+03 0.  1.
         -6    1    1    2    0  503  0.11952751820E+02 -0.27428900931E+02  0.43656305131E+03  0.47017710562E+03  0.17200000000E+03 0.  1.
</event>
<event>
 4    1  0.5714562E+000  0.2059830E+03  0.7818608E-02  0.1144787E+00
         21   -1    0    0  501  502  0.00000000000E+00  0.00000000000E+00  0.20899869603E+03  0.20899869603E+03  0.00000000000E+00 0.  1.
         21   -1    0    0  502  503 -0.00000000000E+00 -0.00000000000E+00 -0.35709570471E+03  0.35709570471E+03  0.00000000000E+00 0.  1.
          6    1    1    2  501    0 -0.11391008786E+01 -0.11333004970E+03  0.11188025108E+03  0.23440603298E+03  0.17200000000E+03 0.  1.
         -6    1    1    2    0  503  0.11391008786E+01  0.11333004970E+03 -0.25997725976E+03  0.33168836776E+03  0.17200000000E+03 0.  1.
</event>
<event>
 4    1  0.5714562E+000  0.2088815E+03  0.7818608E-02  0.1142455E+00
         21   -1    0    0  501  502  0.00000000000E+00  0.00000000000E+00  0.52536331473E+02  0.52536331473E+02  0.00000000000E+00 0.  1.
         21   -1    0    0  502  503 -0.00000000000E+00 -0.00000000000E+00 -0.99985858949E+03  0.99985858949E+03  0.00000000000E+00 0.  1.
          6    1    1    2  501    0 -0.10514426945E+03  0.54700763199E+02 -0.69022271378E+03  0.72113721684E+03  0.17200000000E+03 0.  1.
         -6    1    1    2    0  503  0.10514426945E+03 -0.54700763199E+02 -0.25709954424E+03  0.33125770412E+03  0.17200000000E+03 0.  1.
</event>
<event>
 4    1  0.5714562E+000  0.2011373E+03  0.7818608E-02  0.1148783E+00
         21   -1    0    0  501  502  0.00000000000E+00  0.00000000000E+00  0.28832531094E+03  0.28832531094E+03  0.00000000000E+00 0.  1.
         21   -1    0    0  502  503 -0.00000000000E+00 -0.00000000000E+00 -0.77059262521E+03  0.77059262521E+03  0.00000000000E+00 0.  1.
          6    1    1    2  501    0  0.10003686105E+03 -0.29408059292E+02  0.23770148819E+03  0.31138112500E+03  0.17200000000E+03 0.  1.
         -6    1    1    2    0  503 -0.10003686105E+03  0.29408059292E+02 -0.71996880245E+03  0.74753681115E+03  0.17200000000E+03 0.  1.
</event>
<event>
 4    1  0.5714562E+000  0.1814268E+03  0.7818608E-02  0.1166429E+00
         21   -1    0    0  503  502  0.00000000000E+00  0.00000000000E+00  0.48239933149E+03  0.48239933149E+03  0.00000000000E+00 0.  1.
         21   -1    0    0  501  503 -0.00000000000E+00 -0.00000000000E+00 -0.14114753370E+03  0.14114753370E+03  0.00000000000E+00 0.  1.
          6    1    1    2  501    0  0.39602970444E+02 -0.41991559910E+02 -0.53456987076E+02  0.18913840392E+03  0.17200000000E+03 0.  1.
         -6    1    1    2    0  502 -0.39602970444E+02  0.41991559910E+02  0.39470878487E+03  0.43440846127E+03  0.17200000000E+03 0.  1.
</event>
<event>
 4    1  0.5714562E+000  0.2621082E+03  0.7818608E-02  0.1105883E+00
         21   -1    0    0  501  502  0.00000000000E+00  0.00000000000E+00  0.51507173422E+02  0.51507173422E+02  0.00000000000E+00 0.  1.
         21   -1    0    0  502  503 -0.00000000000E+00 -0.00000000000E+00 -0.17421792020E+04  0.17421792020E+04  0.00000000000E+00 0. -1.
          6    1    1    2  501    0  0.25520247493E+02  0.19612610644E+03 -0.41112872348E+03  0.48757313291E+03  0.17200000000E+03 0.  1.
         -6    1    1    2    0  503 -0.25520247493E+02 -0.19612610644E+03 -0.12795433051E+04  0.13061132426E+04  0.17200000000E+03 0. -1.
</event>
<event>
 4    1  0.5714562E+000  0.2157066E+03  0.7818608E-02  0.1137125E+00
         21   -1    0    0  501  502  0.00000000000E+00  0.00000000000E+00  0.43783233525E+03  0.43783233525E+03  0.00000000000E+00 0.  1.
         21   -1    0    0  502  503 -0.00000000000E+00 -0.00000000000E+00 -0.16487970465E+03  0.16487970465E+03  0.00000000000E+00 0. -1.
          6    1    1    2  501    0  0.46691034349E+02 -0.12151255656E+03  0.31614538596E+03  0.38272347610E+03  0.17200000000E+03 0.  1.
         -6    1    1    2    0  503 -0.46691034349E+02  0.12151255656E+03 -0.43192755369E+02  0.21998856381E+03  0.17200000000E+03 0. -1.
</event>
<event>
 4    1  0.5714562E+000  0.2535180E+03  0.7818608E-02  0.1111101E+00
         21   -1    0    0  503  502  0.00000000000E+00  0.00000000000E+00  0.12586493872E+03  0.12586493872E+03  0.00000000000E+00 0. -1.
         21   -1    0    0  501  503 -0.00000000000E+00 -0.00000000000E+00 -0.68170718496E+03  0.68170718496E+03  0.00000000000E+00 0. -1.
          6    1    1    2  501    0  0.77247807421E+00 -0.18624391470E+03 -0.48019442523E+03  0.54300835952E+03  0.17200000000E+03 0. -1.
         -6    1    1    2    0  502 -0.77247807421E+00  0.18624391470E+03 -0.75647821002E+02  0.26456376416E+03  0.17200000000E+03 0. -1.
</event>
<event>
 4    1  0.5714562E+000  0.1976807E+03  0.7818608E-02  0.1151711E+00
         21   -1    0    0  501  502  0.00000000000E+00  0.00000000000E+00  0.17591205935E+03  0.17591205935E+03  0.00000000000E+00 0. -1.
         21   -1    0    0  502  503 -0.00000000000E+00 -0.00000000000E+00 -0.10843054959E+04  0.10843054959E+04  0.00000000000E+00 0. -1.
          6    1    1    2  501    0 -0.86864350056E+02 -0.44139122467E+02  0.10767115348E+03  0.22510165422E+03  0.17200000000E+03 0. -1.
         -6    1    1    2    0  503  0.86864350056E+02  0.44139122467E+02 -0.10160645901E+04  0.10351159011E+04  0.17200000000E+03 0. -1.
</event>
<event>
 4    1  0.5714562E+000  0.2172475E+03  0.7818608E-02  0.1135952E+00
         21   -1    0    0  501  502  0.00000000000E+00  0.00000000000E+00  0.17360438473E+03  0.17360438473E+03  0.00000000000E+00 0.  1.
         21   -1    0    0  502  503 -0.00000000000E+00 -0.00000000000E+00 -0.27188115341E+03  0.27188115341E+03  0.00000000000E+00 0. -1.
          6    1    1    2  501    0 -0.13046923610E+03 -0.24295567592E+02 -0.47286042964E+02  0.22233413151E+03  0.17200000000E+03 0. -1.
         -6    1    1    2    0  503  0.13046923610E+03  0.24295567592E+02 -0.50990725711E+02  0.22315140663E+03  0.17200000000E+03 0.  1.
</event>
<event>
 4    1  0.5714562E+000  0.1904849E+03  0.7818608E-02  0.1158025E+00
         21   -1    0    0  503  502  0.00000000000E+00  0.00000000000E+00  0.66105345003E+02  0.66105345003E+02  0.00000000000E+00 0.  1.
         21   -1    0    0  501  503 -0.00000000000E+00 -0.00000000000E+00 -0.64192752902E+03  0.64192752902E+03  0.00000000000E+00 0.  1.
          6    1    1    2  501    0 -0.66168172225E+02 -0.48189953763E+02 -0.42268684764E+03  0.46362557072E+03  0.17200000000E+03 0. -1.
         -6    1    1    2    0  502  0.66168172225E+02  0.48189953763E+02 -0.15313533638E+03  0.24440730330E+03  0.17200000000E+03 0. -1.
</event>
<event>
 4    1  0.5714562E+000  0.1722183E+03  0.7818608E-02  0.1175554E+00
         21   -1    0    0  501  502  0.00000000000E+00  0.00000000000E+00  0.11390023742E+03  0.11390023742E+03  0.00000000000E+00 0.  1.
         21   -1    0    0  502  503 -0.00000000000E+00 -0.00000000000E+00 -0.14150559687E+04  0.14150559687E+04  0.00000000000E+00 0.  1.
          6    1    1    2  501    0  0.53491181905E+01  0.68213837327E+01  0.39988357628E+02  0.17679992389E+03  0.17200000000E+03 0.  1.
         -6    1    1    2    0  503 -0.53491181905E+01 -0.68213837327E+01 -0.13411440889E+04  0.13521562822E+04  0.17200000000E+03 0.  1.
</event>
<event>
 4    1  0.5714562E+000  0.1777358E+03  0.7818608E-02  0.1170012E+00
         21   -1    0    0  503  502  0.00000000000E+00  0.00000000000E+00  0.33059997309E+03  0.33059997309E+03  0.00000000000E+00 0.  1.
         21   -1    0    0  501  503 -0.00000000000E+00 -0.00000000000E+00 -0.95934473345E+02  0.95934473345E+02  0.00000000000E+00 0.  1.
          6    1    1    2  501    0  0.17197355062E+02 -0.41355524323E+02  0.10389556204E+03  0.20587451572E+03  0.17200000000E+03 0.  1.
         -6    1    1    2    0  502 -0.17197355062E+02  0.41355524323E+02  0.13076993771E+03  0.22065993071E+03  0.17200000000E+03 0.  1.
</event>
<event>
 4    1  0.5714562E+000  0.2800623E+03  0.7818608E-02  0.1095655E+00
         21   -1    0    0  501  502  0.00000000000E+00  0.00000000000E+00  0.10683796931E+04  0.10683796931E+04  0.00000000000E+00 0. -1.
         21   -1    0    0  502  503 -0.00000000000E+00 -0.00000000000E+00 -0.16078236977E+03  0.16078236977E+03  0.00000000000E+00 0.  1.
          6    1    1    2  501    0 -0.19415394090E+02 -0.22016795736E+03  0.90683710275E+03  0.94909873980E+03  0.17200000000E+03 0. -1.
         -6    1    1    2    0  503  0.19415394090E+02  0.22016795736E+03  0.76022056077E+00  0.28006332304E+03  0.17200000000E+03 0.  1.
</event>
<event>
 4    1  0.5714562E+000  0.1788197E+03  0.7818608E-02  0.1168950E+00
         21   -1    0    0  501  502  0.00000000000E+00  0.00000000000E+00  0.12143039125E+04  0.12143039125E+04  0.00000000000E+00 0.  1.
         21   -1    0    0  502  503 -0.00000000000E+00 -0.00000000000E+00 -0.26543821020E+02  0.26543821020E+02  0.00000000000E+00 0. -1.
          6    1    1    2  501    0 -0.18436523167E+02 -0.45305589972E+02  0.64914663441E+03  0.67332596477E+03  0.17200000000E+03 0.  1.
         -6    1    1    2    0  503  0.18436523167E+02  0.45305589972E+02  0.53861345711E+03  0.56752176878E+03  0.17200000000E+03 0. -1.
</event>
<event>
 4    1  0.5714562E+000  0.2118514E+03  0.7818608E-02  0.1140108E+00
         21   -1    0    0  503  502  0.00000000000E+00  0.00000000000E+00  0.26690367888E+04  0.26690367888E+04  0.00000000000E+00 0.  1.
         21   -1    0    0  501  503 -0.00000000000E+00 -0.00000000000E+00 -0.20080675012E+02  0.20080675012E+02  0.00000000000E+00 0.  1.
          6    1    1    2  501    0  0.30200402639E+02 -0.11993736156E+03  0.78229284176E+03  0.81047092810E+03  0.17200000000E+03 0.  1.
         -6    1    1    2    0  502 -0.30200402639E+02  0.11993736156E+03  0.18666632720E+04  0.18786465357E+04  0.17200000000E+03 0.  1.
</event>
<event>
 4    1  0.5714562E+000  0.2119335E+03  0.7818608E-02  0.1140044E+00
         21   -1    0    0  501  502  0.00000000000E+00  0.00000000000E+00  0.20657390140E+04  0.20657390140E+04  0.00000000000E+00 0. -1.
         21   -1    0    0  502  503 -0.00000000000E+00 -0.00000000000E+00 -0.25115221887E+02  0.25115221887E+02  0.00000000000E+00 0. -1.
          6    1    1    2  501    0 -0.92453107959E+02 -0.82366456690E+02  0.14033741762E+04  0.14192867535E+04  0.17200000000E+03 0. -1.
         -6    1    1    2    0  503  0.92453107959E+02  0.82366456690E+02  0.63724961591E+03  0.67156748234E+03  0.17200000000E+03 0. -1.
</event>
<event>
 4    1  0.5714562E+000  0.1763342E+03  0.7818608E-02  0.1171399E+00
         21   -1    0    0  503  502  0.00000000000E+00  0.00000000000E+00  0.17971459429E+03  0.17971459429E+03  0.00000000000E+00 0.  1.
         21   -1    0    0  501  503 -0.00000000000E+00 -0.00000000000E+00 -0.20460349530E+03  0.20460349530E+03  0.00000000000E+00 0.  1.
          6    1    1    2  501    0  0.38839579760E+02 -0.11088950054E+01 -0.87945437866E+02  0.19704857940E+03  0.17200000000E+03 0.  1.
         -6    1    1    2    0  502 -0.38839579760E+02  0.11088950054E+01  0.63056536853E+02  0.18726951018E+03  0.17200000000E+03 0.  1.
</event>
<event>
 4    1  0.5714562E+000  0.3914170E+03  0.7818608E-02  0.1046793E+00
         21   -1    0    0  501  502  0.00000000000E+00  0.00000000000E+00  0.14414228707E+03  0.14414228707E+03  0.00000000000E+00 0. -1.
         21   -1    0    0  502  503 -0.00000000000E+00 -0.00000000000E+00 -0.12496656843E+04  0.12496656843E+04  0.00000000000E+00 0.  1.
          6    1    1    2  501    0  0.31923364060E+03 -0.14735375148E+03 -0.28333700032E+03  0.48320503010E+03  0.17200000000E+03 0. -1.
         -6    1    1    2    0  503 -0.31923364060E+03  0.14735375148E+03 -0.82218639691E+03  0.91060294125E+03  0.17200000000E+03 0.  1.
</event>
<event>
 4    1  0.5714562E+000  0.1783916E+03  0.7818608E-02  0.1169369E+00
         21   -1    0    0  503  502  0.00000000000E+00  0.00000000000E+00  0.36516739711E+03  0.36516739711E+03  0.00000000000E+00 0. -1.
         21   -1    0    0  501  503 -0.00000000000E+00 -0.00000000000E+00 -0.41283327632E+03  0.41283327632E+03  0.00000000000E+00 0. -1.
          6    1    1    2  501    0  0.14207343800E+02 -0.45141160481E+02 -0.36934384237E+03  0.41016880291E+03  0.17200000000E+03 0. -1.
         -6    1    1    2    0  502 -0.14207343800E+02  0.45141160481E+02  0.32167796316E+03  0.36783187052E+03  0.17200000000E+03 0. -1.
</event>
<event>
 4    1  0.5714562E+000  0.1888801E+03  0.7818608E-02  0.1159475E+00
         21   -1    0    0  503  502  0.00000000000E+00  0.00000000000E+00  0.23172829009E+03  0.23172829009E+03  0.00000000000E+00 0. -1.
         21   -1    0    0  501  503 -0.00000000000E+00 -0.00000000000E+00 -0.35262329960E+03  0.35262329960E+03  0.00000000000E+00 0.  1.
          6    1    1    2  501    0 -0.77772774573E+02 -0.65632361335E+01 -0.27975488509E+03  0.33754773924E+03  0.17200000000E+03 0.  1.
         -6    1    1    2    0  502  0.77772774573E+02  0.65632361335E+01  0.15885987557E+03  0.24680385046E+03  0.17200000000E+03 0. -1.
</event>
<event>
 4    1  0.5714562E+000  0.1876913E+03  0.7818608E-02  0.1160560E+00
         21   -1    0    0  503  502  0.00000000000E+00  0.00000000000E+00  0.40371284198E+02  0.40371284198E+02  0.00000000000E+00 0. -1.
         21   -1    0    0  501  503 -0.00000000000E+00 -0.00000000000E+00 -0.89317510340E+03  0.89317510340E+03  0.00000000000E+00 0.  1.
          6    1    1    2  501    0 -0.75116924769E+02 -0.12100649607E+01 -0.49724536139E+03  0.53148938471E+03  0.17200000000E+03 0.  1.
         -6    1    1    2    0  502  0.75116924769E+02  0.12100649607E+01 -0.35555845782E+03  0.40205700289E+03  0.17200000000E+03 0. -1.
</event>
<event>
 4    1  0.5714562E+000  0.1737881E+03  0.7818608E-02  0.1173954E+00
         21   -1    0    0  501  502  0.00000000000E+00  0.00000000000E+00  0.57824525070E+02  0.57824525070E+02  0.00000000000E+00 0.  1.
         21   -1    0    0  502  503 -0.00000000000E+00 -0.00000000000E+00 -0.67145000526E+03  0.67145000526E+03  0.00000000000E+00 0.  1.
          6    1    1    2  501    0 -0.10026353052E+02  0.22754427802E+02 -0.13496168930E+03  0.22003851781E+03  0.17200000000E+03 0.  1.
         -6    1    1    2    0  503  0.10026353052E+02 -0.22754427802E+02 -0.47866379089E+03  0.50923601252E+03  0.17200000000E+03 0.  1.
</event>
<event>
 4    1  0.5714562E+000  0.1987176E+03  0.7818608E-02  0.1150826E+00
         21   -1    0    0  503  502  0.00000000000E+00  0.00000000000E+00  0.27248285032E+02  0.27248285032E+02  0.00000000000E+00 0.  1.
         21   -1    0    0  501  503 -0.00000000000E+00 -0.00000000000E+00 -0.15135505529E+04  0.15135505529E+04  0.00000000000E+00 0.  1.
          6    1    1    2  501    0  0.54249576117E+00  0.99520719067E+02 -0.90198294796E+03  0.92361350479E+03  0.17200000000E+03 0.  1.
         -6    1    1    2    0  502 -0.54249576117E+00 -0.99520719067E+02 -0.58431931993E+03  0.61718533317E+03  0.17200000000E+03 0.  1.
</event>
<event>
 4    1  0.5714562E+000  0.1877364E+03  0.7818608E-02  0.1160519E+00
         21   -1    0    0  503  502  0.00000000000E+00  0.00000000000E+00  0.13017531241E+03  0.13017531241E+03  0.00000000000E+00 0. -1.
         21   -1    0    0  501  503 -0.00000000000E+00 -0.00000000000E+00 -0.49874475266E+03  0.49874475266E+03  0.00000000000E+00 0.  1.
          6    1    1    2  501    0  0.73232020986E+02  0.17263612033E+02 -0.39689719610E+03  0.43905847614E+03  0.17200000000E+03 0.  1.
         -6    1    1    2    0  502 -0.73232020986E+02 -0.17263612033E+02  0.28327755860E+02  0.18986158893E+03  0.17200000000E+03 0. -1.
</event>
<event>
 4    1  0.5714562E+000  0.2081568E+03  0.7818608E-02  0.1143034E+00
         21   -1    0    0  501  502  0.00000000000E+00  0.00000000000E+00  0.16300158042E+03  0.16300158042E+03  0.00000000000E+00 0. -1.
         21   -1    0    0  502  503 -0.00000000000E+00 -0.00000000000E+00 -0.28339108802E+03  0.28339108802E+03  0.00000000000E+00 0. -1.
          6    1    1    2  501    0  0.10628884564E+03 -0.49476479746E+02 -0.46195440813E+01  0.20820802324E+03  0.17200000000E+03 0. -1.
         -6    1    1    2    0  503 -0.10628884564E+03  0.49476479746E+02 -0.11576996352E+03  0.23818464520E+03  0.17200000000E+03 0. -1.
</event>
<event>
 4    1  0.5714562E+000  0.2068807E+03  0.7818608E-02  0.1144060E+00
         21   -1    0    0  503  502  0.00000000000E+00  0.00000000000E+00  0.22148725496E+04  0.22148725496E+04  0.00000000000E+00 0. -1.
         21   -1    0    0  501  503 -0.00000000000E+00 -0.00000000000E+00 -0.19483425015E+02  0.19483425015E+02  0.00000000000E+00 0.  1.
          6    1    1    2  501    0 -0.20434597183E+02 -0.11312845581E+03  0.11988344384E+04  0.12165539984E+04  0.17200000000E+03 0.  1.
         -6    1    1    2    0  502  0.20434597183E+02  0.11312845581E+03  0.99655468612E+03  0.10178019762E+04  0.17200000000E+03 0.  1.
</event>
<event>
 4    1  0.5714562E+000  0.1789874E+03  0.7818608E-02  0.1168787E+00
         21   -1    0    0  503  502  0.00000000000E+00  0.00000000000E+00  0.17350042033E+03  0.17350042033E+03  0.00000000000E+00 0. -1.
         21   -1    0    0  501  503 -0.00000000000E+00 -0.00000000000E+00 -0.20122438026E+03  0.20122438026E+03  0.00000000000E+00 0. -1.
          6    1    1    2  501    0  0.42771669196E+02  0.24961376748E+02 -0.67637977148E+02  0.19134100963E+03  0.17200000000E+03 0. -1.
         -6    1    1    2    0  502 -0.42771669196E+02 -0.24961376748E+02  0.39914017212E+02  0.18338379095E+03  0.17200000000E+03 0. -1.
</event>
<event>
 4    1  0.5714562E+000  0.1894046E+03  0.7818608E-02  0.1158999E+00
         21   -1    0    0  503  502  0.00000000000E+00  0.00000000000E+00  0.38605370889E+03  0.38605370889E+03  0.00000000000E+00 0.  1.
         21   -1    0    0  501  503 -0.00000000000E+00 -0.00000000000E+00 -0.93361924556E+02  0.93361924556E+02  0.00000000000E+00 0. -1.
          6    1    1    2  501    0  0.13549769425E+02 -0.78144072176E+02  0.12995002525E+03  0.22969784790E+03  0.17200000000E+03 0.  1.
         -6    1    1    2    0  502 -0.13549769425E+02  0.78144072176E+02  0.16274175909E+03  0.24971778555E+03  0.17200000000E+03 0. -1.
</event>
<event>
 4    1  0.5714562E+000  0.2310513E+03  0.7818608E-02  0.1125902E+00
         21   -1    0    0  501  502  0.00000000000E+00  0.00000000000E+00  0.14879685512E+03  0.14879685512E+03  0.00000000000E+00 0. -1.
         21   -1    0    0  502  503 -0.00000000000E+00 -0.00000000000E+00 -0.39845634965E+03  0.39845634965E+03  0.00000000000E+00 0.  1.
          6    1    1    2  501    0 -0.22487497511E+02  0.15262700726E+03 -0.38480707704E+02  0.23423376305E+03  0.17200000000E+03 0. -1.
         -6    1    1    2    0  503  0.22487497511E+02 -0.15262700726E+03 -0.21117878683E+03  0.31301944172E+03  0.17200000000E+03 0. -1.
</event>
<event>
 4    1  0.5714562E+000  0.1934375E+03  0.7818608E-02  0.1155397E+00
         21   -1    0    0  503  502  0.00000000000E+00  0.00000000000E+00  0.94660445695E+02  0.94660445695E+02  0.00000000000E+00 0.  1.
         21   -1    0    0  501  503 -0.00000000000E+00 -0.00000000000E+00 -0.55305248747E+03  0.55305248747E+03  0.00000000000E+00 0.  1.
          6    1    1    2  501    0 -0.86741337941E+02 -0.17607125445E+02 -0.40216770259E+03  0.44627002093E+03  0.17200000000E+03 0.  1.
         -6    1    1    2    0  502  0.86741337941E+02  0.17607125445E+02 -0.56224339191E+02  0.20144291224E+03  0.17200000000E+03 0.  1.
</event>
<event>
 4    1  0.5714562E+000  0.2120476E+03  0.7818608E-02  0.1139955E+00
         21   -1    0    0  503  502  0.00000000000E+00  0.00000000000E+00  0.56381598600E+03  0.56381598600E+03  0.00000000000E+00 0. -1.
         21   -1    0    0  501  503 -0.00000000000E+00 -0.00000000000E+00 -0.19001965902E+03  0.19001965902E+03  0.00000000000E+00 0. -1.
          6    1    1    2  501    0 -0.49905969329E+02  0.11353221894E+03 -0.10023011114E+03  0.23454263086E+03  0.17200000000E+03 0. -1.
         -6    1    1    2    0  502  0.49905969329E+02 -0.11353221894E+03  0.47402643812E+03  0.51929301416E+03  0.17200000000E+03 0. -1.
</event>
<event>
 4    1  0.5714562E+000  0.2405816E+03  0.7818608E-02  0.1119406E+00
         21   -1    0    0  503  502  0.00000000000E+00  0.00000000000E+00  0.42469948103E+03  0.42469948103E+03  0.00000000000E+00 0. -1.
         21   -1    0    0  501  503 -0.00000000000E+00 -0.00000000000E+00 -0.33427401736E+03  0.33427401736E+03  0.00000000000E+00 0. -1.
          6    1    1    2  501    0  0.14772400129E+03 -0.80455750861E+02 -0.24684422859E+03  0.34469055918E+03  0.17200000000E+03 0. -1.
         -6    1    1    2    0  502 -0.14772400129E+03  0.80455750861E+02  0.33726969225E+03  0.41428293920E+03  0.17200000000E+03 0. -1.
</event>
<event>
 4    1  0.5714562E+000  0.2211890E+03  0.7818608E-02  0.1133000E+00
         21   -1    0    0  501  502  0.00000000000E+00  0.00000000000E+00  0.58872260298E+02  0.58872260298E+02  0.00000000000E+00 0. -1.
         21   -1    0    0  502  503 -0.00000000000E+00 -0.00000000000E+00 -0.14313048093E+04  0.14313048093E+04  0.00000000000E+00 0.  1.
          6    1    1    2  501    0 -0.82522145616E+02 -0.11194052185E+03 -0.20369434474E+03  0.30069248582E+03  0.17200000000E+03 0. -1.
         -6    1    1    2    0  503  0.82522145616E+02  0.11194052185E+03 -0.11687382043E+04  0.11894845838E+04  0.17200000000E+03 0. -1.
</event>
<event>
 4    1  0.5714562E+000  0.2129693E+03  0.7818608E-02  0.1139236E+00
         21   -1    0    0  503  502  0.00000000000E+00  0.00000000000E+00  0.39111734759E+03  0.39111734759E+03  0.00000000000E+00 0.  1.
         21   -1    0    0  501  503 -0.00000000000E+00 -0.00000000000E+00 -0.15280058670E+03  0.15280058670E+03  0.00000000000E+00 0.  1.
          6    1    1    2  501    0  0.48959775567E+02  0.11564968348E+03 -0.14370400324E+02  0.21345354839E+03  0.17200000000E+03 0.  1.
         -6    1    1    2    0  502 -0.48959775567E+02 -0.11564968348E+03  0.25268716121E+03  0.33046438591E+03  0.17200000000E+03 0.  1.
</event>
<event>
 4    1  0.5714562E+000  0.2071573E+03  0.7818608E-02  0.1143837E+00
         21   -1    0    0  503  502  0.00000000000E+00  0.00000000000E+00  0.10079177944E+03  0.10079177944E+03  0.00000000000E+00 0.  1.
         21   -1    0    0  501  503 -0.00000000000E+00 -0.00000000000E+00 -0.42831998156E+03  0.42831998156E+03  0.00000000000E+00 0.  1.
          6    1    1    2  501    0  0.45847233750E+02  0.10596309254E+03 -0.18417567608E+03  0.27719095490E+03  0.17200000000E+03 0.  1.
         -6    1    1    2    0  502 -0.45847233750E+02 -0.10596309254E+03 -0.14335252605E+03  0.25192080610E+03  0.17200000000E+03 0.  1.
</event>
<event>
 4    1  0.5714562E+000  0.2445185E+03  0.7818608E-02  0.1116819E+00
         21   -1    0    0  501  502  0.00000000000E+00  0.00000000000E+00  0.30212456897E+03  0.30212456897E+03  0.00000000000E+00 0.  1.
         21   -1    0    0  502  503 -0.00000000000E+00 -0.00000000000E+00 -0.20503319166E+03  0.20503319166E+03  0.00000000000E+00 0.  1.
          6    1    1    2  501    0 -0.15165823655E+02 -0.17313378048E+03  0.95856258936E+02  0.26263611809E+03  0.17200000000E+03 0.  1.
         -6    1    1    2    0  503  0.15165823655E+02  0.17313378048E+03  0.12351183742E+01  0.24452164253E+03  0.17200000000E+03 0.  1.
</event>
<event>
 4    1  0.5714562E+000  0.1975348E+03  0.7818608E-02  0.1151836E+00
         21   -1    0    0  503  502  0.00000000000E+00  0.00000000000E+00  0.42252678941E+02  0.42252678941E+02  0.00000000000E+00 0.  1.
         21   -1    0    0  501  503 -0.00000000000E+00 -0.00000000000E+00 -0.12520437159E+04  0.12520437159E+04  0.00000000000E+00 0.  1.
          6    1    1    2  501    0  0.96719137108E+02 -0.90222251202E+01 -0.93640516143E+03  0.95701338464E+03  0.17200000000E+03 0.  1.
         -6    1    1    2    0  502 -0.96719137108E+02  0.90222251202E+01 -0.27338587551E+03  0.33728301019E+03  0.17200000000E+03 0.  1.
</event>
<event>
 4    1  0.5714562E+000  0.1818503E+03  0.7818608E-02  0.1166024E+00
         21   -1    0    0  501  502  0.00000000000E+00  0.00000000000E+00  0.27336260261E+03  0.27336260261E+03  0.00000000000E+00 0. -1.
         21   -1    0    0  502  503 -0.00000000000E+00 -0.00000000000E+00 -0.26933865812E+03  0.26933865812E+03  0.00000000000E+00 0. -1.
          6    1    1    2  501    0 -0.54379211688E+02 -0.22987929579E+02  0.20340661681E+03  0.27284390287E+03  0.17200000000E+03 0. -1.
         -6    1    1    2    0  503  0.54379211688E+02  0.22987929579E+02 -0.19938267233E+03  0.26985735787E+03  0.17200000000E+03 0. -1.
</event>
<event>
 4    1  0.5714562E+000  0.3320557E+03  0.7818608E-02  0.1070231E+00
         21   -1    0    0  503  502  0.00000000000E+00  0.00000000000E+00  0.14101797566E+03  0.14101797566E+03  0.00000000000E+00 0.  1.
         21   -1    0    0  501  503 -0.00000000000E+00 -0.00000000000E+00 -0.13871712116E+04  0.13871712116E+04  0.00000000000E+00 0. -1.
          6    1    1    2  501    0 -0.40754278806E+02  0.28109800797E+03 -0.11278070944E+04  0.11756742081E+04  0.17200000000E+03 0. -1.
         -6    1    1    2    0  502  0.40754278806E+02 -0.28109800797E+03 -0.11834614149E+03  0.35251497916E+03  0.17200000000E+03 0.  1.
</event>
<event>
 4    1  0.5714562E+000  0.2605369E+03  0.7818608E-02  0.1106821E+00
         21   -1    0    0  503  502  0.00000000000E+00  0.00000000000E+00  0.17149886711E+04  0.17149886711E+04  0.00000000000E+00 0.  1.
         21   -1    0    0  501  503 -0.00000000000E+00 -0.00000000000E+00 -0.86992762838E+02  0.86992762838E+02  0.00000000000E+00 0. -1.
          6    1    1    2  501    0 -0.17823648200E+03  0.80791451485E+02  0.14883857854E+03  0.30005403615E+03  0.17200000000E+03 0. -1.
         -6    1    1    2    0  502  0.17823648200E+03 -0.80791451485E+02  0.14791573297E+04  0.15019273977E+04  0.17200000000E+03 0.  1.
</event>
<event>
 4    1  0.5714562E+000  0.2023586E+03  0.7818608E-02  0.1147764E+00
         21   -1    0    0  503  502  0.00000000000E+00  0.00000000000E+00  0.40879783546E+03  0.40879783546E+03  0.00000000000E+00 0. -1.
         21   -1    0    0  501  503 -0.00000000000E+00 -0.00000000000E+00 -0.13592620331E+03  0.13592620331E+03  0.00000000000E+00 0. -1.
          6    1    1    2  501    0  0.74017534690E+02 -0.76722905998E+02 -0.32572348438E+01  0.20238480507E+03  0.17200000000E+03 0. -1.
         -6    1    1    2    0  502 -0.74017534690E+02  0.76722905998E+02  0.27612886699E+03  0.34233923370E+03  0.17200000000E+03 0. -1.
</event>
<event>
 4    1  0.5714562E+000  0.2026216E+03  0.7818608E-02  0.1147546E+00
         21   -1    0    0  503  502  0.00000000000E+00  0.00000000000E+00  0.90006289687E+02  0.90006289687E+02  0.00000000000E+00 0. -1.
         21   -1    0    0  501  503 -0.00000000000E+00 -0.00000000000E+00 -0.46119837297E+03  0.46119837297E+03  0.00000000000E+00 0. -1.
          6    1    1    2  501    0  0.10700255695E+03  0.46880973873E+01 -0.15673463519E+03  0.25616649140E+03  0.17200000000E+03 0. -1.
         -6    1    1    2    0  502 -0.10700255695E+03 -0.46880973873E+01 -0.21445744809E+03  0.29503817125E+03  0.17200000000E+03 0. -1.
</event>
<event>
 4    1  0.5714562E+000  0.2571690E+03  0.7818608E-02  0.1108856E+00
         21   -1    0    0  503  502  0.00000000000E+00  0.00000000000E+00  0.60941690183E+03  0.60941690183E+03  0.00000000000E+00 0. -1.
         21   -1    0    0  501  503 -0.00000000000E+00 -0.00000000000E+00 -0.11420645731E+03  0.11420645731E+03  0.00000000000E+00 0. -1.
          6    1    1    2  501    0  0.89138348627E+02  0.16913379050E+03  0.32831667448E+03  0.41704642790E+03  0.17200000000E+03 0. -1.
         -6    1    1    2    0  502 -0.89138348627E+02 -0.16913379050E+03  0.16689377005E+03  0.30657693124E+03  0.17200000000E+03 0. -1.
</event>
<event>
 4    1  0.5714562E+000  0.2160416E+03  0.7818608E-02  0.1136869E+00
         21   -1    0    0  503  502  0.00000000000E+00  0.00000000000E+00  0.98931757809E+02  0.98931757809E+02  0.00000000000E+00 0.  1.
         21   -1    0    0  501  503 -0.00000000000E+00 -0.00000000000E+00 -0.61781122972E+03  0.61781122972E+03  0.00000000000E+00 0.  1.
          6    1    1    2  501    0  0.74687031026E+01 -0.13051504203E+03 -0.43367234331E+03  0.48450558209E+03  0.17200000000E+03 0.  1.
         -6    1    1    2    0  502 -0.74687031026E+01  0.13051504203E+03 -0.85207128602E+02  0.23223740544E+03  0.17200000000E+03 0.  1.
</event>
<event>
 4    1  0.5714562E+000  0.1823654E+03  0.7818608E-02  0.1165533E+00
         21   -1    0    0  503  502  0.00000000000E+00  0.00000000000E+00  0.31622594432E+03  0.31622594432E+03  0.00000000000E+00 0.  1.
         21   -1    0    0  501  503 -0.00000000000E+00 -0.00000000000E+00 -0.12576791811E+03  0.12576791811E+03  0.00000000000E+00 0.  1.
          6    1    1    2  501    0  0.54089539084E+02  0.27339671354E+02  0.57905086762E+01  0.18245729873E+03  0.17200000000E+03 0.  1.
         -6    1    1    2    0  502 -0.54089539084E+02 -0.27339671354E+02  0.18466751753E+03  0.25953656370E+03  0.17200000000E+03 0.  1.
</event>
<event>
 4    1  0.5714562E+000  0.2249749E+03  0.7818608E-02  0.1130228E+00
         21   -1    0    0  503  502  0.00000000000E+00  0.00000000000E+00  0.26544886464E+04  0.26544886464E+04  0.00000000000E+00 0.  1.
         21   -1    0    0  501  503 -0.00000000000E+00 -0.00000000000E+00 -0.40755594642E+02  0.40755594642E+02  0.00000000000E+00 0.  1.
          6    1    1    2  501    0  0.12647385905E+03  0.70951097772E+02  0.32378823273E+03  0.39427466943E+03  0.17200000000E+03 0.  1.
         -6    1    1    2    0  502 -0.12647385905E+03 -0.70951097772E+02  0.22899448190E+04  0.23009695716E+04  0.17200000000E+03 0.  1.
</event>
<event>
 4    1  0.5714562E+000  0.2008673E+03  0.7818608E-02  0.1149009E+00
         21   -1    0    0  501  502  0.00000000000E+00  0.00000000000E+00  0.33961741552E+03  0.33961741552E+03  0.00000000000E+00 0.  1.
         21   -1    0    0  502  503 -0.00000000000E+00 -0.00000000000E+00 -0.12612998674E+03  0.12612998674E+03  0.00000000000E+00 0.  1.
          6    1    1    2  501    0 -0.65711502992E+02 -0.80284977081E+02  0.50617693222E+02  0.20714688035E+03  0.17200000000E+03 0. -1.
         -6    1    1    2    0  503  0.65711502992E+02  0.80284977081E+02  0.16286973556E+03  0.25860052191E+03  0.17200000000E+03 0. -1.
</event>
<event>
 4    1  0.5714562E+000  0.1855955E+03  0.7818608E-02  0.1162495E+00
         21   -1    0    0  503  502  0.00000000000E+00  0.00000000000E+00  0.37903277286E+03  0.37903277286E+03  0.00000000000E+00 0.  1.
         21   -1    0    0  501  503 -0.00000000000E+00 -0.00000000000E+00 -0.10730146044E+03  0.10730146044E+03  0.00000000000E+00 0.  1.
          6    1    1    2  501    0 -0.34179232866E+02  0.60773801154E+02  0.40731461435E+02  0.19001243858E+03  0.17200000000E+03 0.  1.
         -6    1    1    2    0  502  0.34179232866E+02 -0.60773801154E+02  0.23099985099E+03  0.29632179471E+03  0.17200000000E+03 0.  1.
</event>
<event>
 4    1  0.5714562E+000  0.2238841E+03  0.7818608E-02  0.1131020E+00
         21   -1    0    0  501  502  0.00000000000E+00  0.00000000000E+00  0.15632768579E+03  0.15632768579E+03  0.00000000000E+00 0.  1.
         21   -1    0    0  502  503 -0.00000000000E+00 -0.00000000000E+00 -0.35572020560E+03  0.35572020560E+03  0.00000000000E+00 0.  1.
          6    1    1    2  501    0  0.10795864786E+03  0.94260302911E+02 -0.19289893330E+02  0.22471353839E+03  0.17200000000E+03 0.  1.
         -6    1    1    2    0  503 -0.10795864786E+03 -0.94260302911E+02 -0.18010262647E+03  0.28733435300E+03  0.17200000000E+03 0.  1.
</event>
<event>
 4    1  0.5714562E+000  0.1760807E+03  0.7818608E-02  0.1171651E+00
         21   -1    0    0  501  502  0.00000000000E+00  0.00000000000E+00  0.72704590355E+03  0.72704590355E+03  0.00000000000E+00 0. -1.
         21   -1    0    0  502  503 -0.00000000000E+00 -0.00000000000E+00 -0.42716518921E+02  0.42716518921E+02  0.00000000000E+00 0. -1.
          6    1    1    2  501    0  0.19067902635E+02 -0.32509158875E+02  0.35798002287E+03  0.39894125770E+03  0.17200000000E+03 0. -1.
         -6    1    1    2    0  503 -0.19067902635E+02  0.32509158875E+02  0.32634936176E+03  0.37082116477E+03  0.17200000000E+03 0. -1.
</event>
<event>
 4    1  0.5714562E+000  0.1879710E+03  0.7818608E-02  0.1160304E+00
         21   -1    0    0  501  502  0.00000000000E+00  0.00000000000E+00  0.98780356413E+03  0.98780356413E+03  0.00000000000E+00 0. -1.
         21   -1    0    0  502  503 -0.00000000000E+00 -0.00000000000E+00 -0.71146549771E+02  0.71146549771E+02  0.00000000000E+00 0. -1.
          6    1    1    2  501    0 -0.74917014106E+02  0.11685452980E+02  0.83169058316E+03  0.85266777524E+03  0.17200000000E+03 0. -1.
         -6    1    1    2    0  503  0.74917014106E+02 -0.11685452980E+02  0.84966431203E+02  0.20628233867E+03  0.17200000000E+03 0. -1.
</event>
<event>
 4    1  0.5714562E+000  0.2018726E+03  0.7818608E-02  0.1148169E+00
         21   -1    0    0  501  502  0.00000000000E+00  0.00000000000E+00  0.10932436145E+03  0.10932436145E+03  0.00000000000E+00 0. -1.
         21   -1    0    0  502  503 -0.00000000000E+00 -0.00000000000E+00 -0.51050667879E+03  0.51050667879E+03  0.00000000000E+00 0.  1.
          6    1    1    2  501    0 -0.83320517989E+02 -0.65009654471E+02 -0.39611341988E+02  0.20572219692E+03  0.17200000000E+03 0. -1.
         -6    1    1    2    0  503  0.83320517989E+02  0.65009654471E+02 -0.36157097536E+03  0.41410884332E+03  0.17200000000E+03 0.  1.
</event>
<event>
 4    1  0.5714562E+000  0.1731099E+03  0.7818608E-02  0.1174643E+00
         21   -1    0    0  501  502  0.00000000000E+00  0.00000000000E+00  0.31348051352E+02  0.31348051352E+02  0.00000000000E+00 0. -1.
         21   -1    0    0  502  503 -0.00000000000E+00 -0.00000000000E+00 -0.12372870405E+04  0.12372870405E+04  0.00000000000E+00 0. -1.
          6    1    1    2  501    0  0.62007539704E+01 -0.18563514567E+02 -0.90544332951E+03  0.92184308664E+03  0.17200000000E+03 0. -1.
         -6    1    1    2    0  503 -0.62007539704E+01  0.18563514567E+02 -0.30049565966E+03  0.34679200524E+03  0.17200000000E+03 0. -1.
</event>
<event>
 4    1  0.5714562E+000  0.2173416E+03  0.7818608E-02  0.1135881E+00
         21   -1    0    0  503  502  0.00000000000E+00  0.00000000000E+00  0.54089934863E+03  0.54089934863E+03  0.00000000000E+00 0.  1.
         21   -1    0    0  501  503 -0.00000000000E+00 -0.00000000000E+00 -0.87482869728E+02  0.87482869728E+02  0.00000000000E+00 0.  1.
          6    1    1    2  501    0  0.16108850545E+02 -0.13188583196E+03  0.23979218183E+03  0.32363197957E+03  0.17200000000E+03 0.  1.
         -6    1    1    2    0  502 -0.16108850545E+02  0.13188583196E+03  0.21362429707E+03  0.30475023878E+03  0.17200000000E+03 0.  1.
</event>
<event>
 4    1  0.5714562E+000  0.2418796E+03  0.7818608E-02  0.1118547E+00
         21   -1    0    0  501  502  0.00000000000E+00  0.00000000000E+00  0.81016386321E+02  0.81016386321E+02  0.00000000000E+00 0.  1.
         21   -1    0    0  502  503 -0.00000000000E+00 -0.00000000000E+00 -0.86484013042E+03  0.86484013042E+03  0.00000000000E+00 0.  1.
          6    1    1    2  501    0 -0.14717826799E+03  0.85207247910E+02 -0.19981101319E+03  0.31373581029E+03  0.17200000000E+03 0.  1.
         -6    1    1    2    0  503  0.14717826799E+03 -0.85207247910E+02 -0.58401273090E+03  0.63212070645E+03  0.17200000000E+03 0.  1.
</event>
<event>
 4    1  0.5714562E+000  0.1945066E+03  0.7818608E-02  0.1154458E+00
         21   -1    0    0  503  502  0.00000000000E+00  0.00000000000E+00  0.57990551737E+02  0.57990551737E+02  0.00000000000E+00 0.  1.
         21   -1    0    0  501  503 -0.00000000000E+00 -0.00000000000E+00 -0.68665273967E+03  0.68665273967E+03  0.00000000000E+00 0. -1.
          6    1    1    2  501    0  0.46672474074E+02 -0.77913355233E+02 -0.39749253011E+03  0.44253036309E+03  0.17200000000E+03 0.  1.
         -6    1    1    2    0  502 -0.46672474074E+02  0.77913355233E+02 -0.23116965782E+03  0.30211292831E+03  0.17200000000E+03 0.  1.
</event>
<event>
 4    1  0.5714562E+000  0.2032411E+03  0.7818608E-02  0.1147033E+00
         21   -1    0    0  503  502  0.00000000000E+00  0.00000000000E+00  0.24563850789E+04  0.24563850789E+04  0.00000000000E+00 0.  1.
         21   -1    0    0  501  503 -0.00000000000E+00 -0.00000000000E+00 -0.76340894886E+02  0.76340894886E+02  0.00000000000E+00 0.  1.
          6    1    1    2  501    0  0.94060906770E+02  0.53623614087E+02  0.71799280843E+02  0.21555065043E+03  0.17200000000E+03 0.  1.
         -6    1    1    2    0  502 -0.94060906770E+02 -0.53623614087E+02  0.23082449032E+04  0.23171753234E+04  0.17200000000E+03 0.  1.
</event>
<event>
 4    1  0.5714562E+000  0.1971199E+03  0.7818608E-02  0.1152192E+00
         21   -1    0    0  503  502  0.00000000000E+00  0.00000000000E+00  0.38027204988E+02  0.38027204988E+02  0.00000000000E+00 0.  1.
         21   -1    0    0  501  503 -0.00000000000E+00 -0.00000000000E+00 -0.11378868760E+04  0.11378868760E+04  0.00000000000E+00 0. -1.
          6    1    1    2  501    0  0.62384120990E+02  0.73351652416E+02 -0.36213424984E+03  0.41230748038E+03  0.17200000000E+03 0.  1.
         -6    1    1    2    0  502 -0.62384120990E+02 -0.73351652416E+02 -0.73772542119E+03  0.76360660064E+03  0.17200000000E+03 0. -1.
</event>
<event>
 4    1  0.5714562E+000  0.1947744E+03  0.7818608E-02  0.1154224E+00
         21   -1    0    0  501  502  0.00000000000E+00  0.00000000000E+00  0.72380710436E+02  0.72380710436E+02  0.00000000000E+00 0. -1.
         21   -1    0    0  502  503 -0.00000000000E+00 -0.00000000000E+00 -0.71580429626E+03  0.71580429626E+03  0.00000000000E+00 0. -1.
          6    1    1    2  501    0  0.32257529217E+02  0.85513176463E+02 -0.11778202848E+03  0.22761734946E+03  0.17200000000E+03 0. -1.
         -6    1    1    2    0  503 -0.32257529217E+02 -0.85513176463E+02 -0.52564155734E+03  0.56056765724E+03  0.17200000000E+03 0. -1.
</event>
<event>
 4    1  0.5714562E+000  0.1772362E+03  0.7818608E-02  0.1170505E+00
         21   -1    0    0  503  502  0.00000000000E+00  0.00000000000E+00  0.46822727779E+03  0.46822727779E+03  0.00000000000E+00 0.  1.
         21   -1    0    0  501  503 -0.00000000000E+00 -0.00000000000E+00 -0.22687773478E+03  0.22687773478E+03  0.00000000000E+00 0.  1.
          6    1    1    2  501    0  0.16563493031E+01 -0.42731050405E+02 -0.17099954251E+03  0.24627937327E+03  0.17200000000E+03 0.  1.
         -6    1    1    2    0  502 -0.16563493031E+01  0.42731050405E+02  0.41234908552E+03  0.44882563929E+03  0.17200000000E+03 0.  1.
</event>
<event>
 4    1  0.5714562E+000  0.2004513E+03  0.7818608E-02  0.1149359E+00
         21   -1    0    0  503  502  0.00000000000E+00  0.00000000000E+00  0.58525312867E+03  0.58525312867E+03  0.00000000000E+00 0. -1.
         21   -1    0    0  501  503 -0.00000000000E+00 -0.00000000000E+00 -0.76649921641E+02  0.76649921641E+02  0.00000000000E+00 0. -1.
          6    1    1    2  501    0  0.10292798191E+03 -0.15950577374E+01  0.14741870964E+03  0.24882320957E+03  0.17200000000E+03 0. -1.
         -6    1    1    2    0  502 -0.10292798191E+03  0.15950577374E+01  0.36118449739E+03  0.41307984074E+03  0.17200000000E+03 0. -1.
</event>
<event>
 4    1  0.5714562E+000  0.2120285E+03  0.7818608E-02  0.1139970E+00
         21   -1    0    0  501  502  0.00000000000E+00  0.00000000000E+00  0.20972665484E+03  0.20972665484E+03  0.00000000000E+00 0.  1.
         21   -1    0    0  502  503 -0.00000000000E+00 -0.00000000000E+00 -0.30098289967E+03  0.30098289967E+03  0.00000000000E+00 0.  1.
          6    1    1    2  501    0  0.91089771939E+02  0.84111405407E+02  0.91365565967E+02  0.23087603106E+03  0.17200000000E+03 0.  1.
         -6    1    1    2    0  503 -0.91089771939E+02 -0.84111405407E+02 -0.18262181079E+03  0.27983352345E+03  0.17200000000E+03 0.  1.
</event>
<event>
 4    1  0.5714562E+000  0.1752287E+03  0.7818608E-02  0.1172502E+00
         21   -1    0    0  501  502  0.00000000000E+00  0.00000000000E+00  0.81335629172E+02  0.81335629172E+02  0.00000000000E+00 0.  1.
         21   -1    0    0  502  503 -0.00000000000E+00 -0.00000000000E+00 -0.39595533892E+03  0.39595533892E+03  0.00000000000E+00 0.  1.
          6    1    1    2  501    0  0.31757525047E+02 -0.10609847045E+02 -0.20881606085E+03  0.27259724232E+03  0.17200000000E+03 0.  1.
         -6    1    1    2    0  503 -0.31757525047E+02  0.10609847045E+02 -0.10580364890E+03  0.20469372578E+03  0.17200000000E+03 0.  1.
</event>
<event>
 4    1  0.5714562E+000  0.2468864E+03  0.7818608E-02  0.1115288E+00
         21   -1    0    0  501  502  0.00000000000E+00  0.00000000000E+00  0.10222805446E+04  0.10222805446E+04  0.00000000000E+00 0.  1.
         21   -1    0    0  502  503 -0.00000000000E+00 -0.00000000000E+00 -0.74964129915E+02  0.74964129915E+02  0.00000000000E+00 0. -1.
          6    1    1    2  501    0  0.96832130863E+02 -0.14829852662E+03  0.22548500115E+03  0.33435968703E+03  0.17200000000E+03 0. -1.
         -6    1    1    2    0  503 -0.96832130863E+02  0.14829852662E+03  0.72183141348E+03  0.76288498744E+03  0.17200000000E+03 0.  1.
</event>
<event>
 4    1  0.5714562E+000  0.2047261E+03  0.7818608E-02  0.1145812E+00
         21   -1    0    0  503  502  0.00000000000E+00  0.00000000000E+00  0.37169800655E+03  0.37169800655E+03  0.00000000000E+00 0. -1.
         21   -1    0    0  501  503 -0.00000000000E+00 -0.00000000000E+00 -0.18173464282E+03  0.18173464282E+03  0.00000000000E+00 0. -1.
          6    1    1    2  501    0 -0.36307725711E+02 -0.10493101094E+03 -0.75492963784E+02  0.21820163974E+03  0.17200000000E+03 0. -1.
         -6    1    1    2    0  502  0.36307725711E+02  0.10493101094E+03  0.26545632751E+03  0.33523100963E+03  0.17200000000E+03 0. -1.
</event>
<event>
 4    1  0.5714562E+000  0.1906419E+03  0.7818608E-02  0.1157884E+00
         21   -1    0    0  501  502  0.00000000000E+00  0.00000000000E+00  0.81029674044E+02  0.81029674044E+02  0.00000000000E+00 0. -1.
         21   -1    0    0  502  503 -0.00000000000E+00 -0.00000000000E+00 -0.50108955784E+03  0.50108955784E+03  0.00000000000E+00 0. -1.
          6    1    1    2  501    0  0.61528923371E+01 -0.81990787363E+02 -0.11576620749E+03  0.22303847671E+03  0.17200000000E+03 0. -1.
         -6    1    1    2    0  503 -0.61528923371E+01  0.81990787363E+02 -0.30429367631E+03  0.35908075518E+03  0.17200000000E+03 0. -1.
</event>
<event>
 4    1  0.5714562E+000  0.1782883E+03  0.7818608E-02  0.1169470E+00
         21   -1    0    0  503  502  0.00000000000E+00  0.00000000000E+00  0.10120605233E+03  0.10120605233E+03  0.00000000000E+00 0. -1.
         21   -1    0    0  501  503 -0.00000000000E+00 -0.00000000000E+00 -0.31910621422E+03  0.31910621422E+03  0.00000000000E+00 0. -1.
          6    1    1    2  501    0 -0.44954627927E+02  0.13483333637E+02 -0.13532725435E+03  0.22383070528E+03  0.17200000000E+03 0. -1.
         -6    1    1    2    0  502  0.44954627927E+02 -0.13483333637E+02 -0.82572907544E+02  0.19648156127E+03  0.17200000000E+03 0. -1.
</event>
<event>
 4    1  0.5714562E+000  0.1815085E+03  0.7818608E-02  0.1166351E+00
         21   -1    0    0  503  502  0.00000000000E+00  0.00000000000E+00  0.27218321266E+03  0.27218321266E+03  0.00000000000E+00 0. -1.
         21   -1    0    0  501  503 -0.00000000000E+00 -0.00000000000E+00 -0.12313084966E+03  0.12313084966E+03  0.00000000000E+00 0. -1.
          6    1    1    2  501    0  0.25215262416E+02  0.52206667508E+02  0.48776033503E+02  0.18794799024E+03  0.17200000000E+03 0.  1.
         -6    1    1    2    0  502 -0.25215262416E+02 -0.52206667508E+02  0.10027632950E+03  0.20736607208E+03  0.17200000000E+03 0.  1.
</event>
<event>
 4    1  0.5714562E+000  0.2102409E+03  0.7818608E-02  0.1141375E+00
         21   -1    0    0  503  502  0.00000000000E+00  0.00000000000E+00  0.18360109320E+04  0.18360109320E+04  0.00000000000E+00 0.  1.
         21   -1    0    0  501  503 -0.00000000000E+00 -0.00000000000E+00 -0.86317626304E+02  0.86317626304E+02  0.00000000000E+00 0. -1.
          6    1    1    2  501    0  0.43445378901E+02 -0.11282620903E+03  0.58653063733E+02  0.21826918307E+03  0.17200000000E+03 0. -1.
         -6    1    1    2    0  502 -0.43445378901E+02  0.11282620903E+03  0.16910402420E+04  0.17040593753E+04  0.17200000000E+03 0.  1.
</event>
<event>
 4    1  0.5714562E+000  0.1936294E+03  0.7818608E-02  0.1155228E+00
         21   -1    0    0  503  502  0.00000000000E+00  0.00000000000E+00  0.11402773792E+04  0.11402773792E+04  0.00000000000E+00 0. -1.
         21   -1    0    0  501  503 -0.00000000000E+00 -0.00000000000E+00 -0.43360188539E+02  0.43360188539E+02  0.00000000000E+00 0. -1.
          6    1    1    2  501    0 -0.48488802187E+01 -0.88796529671E+02  0.25750251471E+03  0.32217988826E+03  0.17200000000E+03 0. -1.
         -6    1    1    2    0  502  0.48488802187E+01  0.88796529671E+02  0.83941467598E+03  0.86145767951E+03  0.17200000000E+03 0. -1.
</event>
<event>
 4    1  0.5714562E+000  0.2447646E+03  0.7818608E-02  0.1116659E+00
         21   -1    0    0  501  502  0.00000000000E+00  0.00000000000E+00  0.51250042398E+03  0.51250042398E+03  0.00000000000E+00 0. -1.
         21   -1    0    0  502  503 -0.00000000000E+00 -0.00000000000E+00 -0.13370838261E+03  0.13370838261E+03  0.00000000000E+00 0. -1.
          6    1    1    2  501    0 -0.13513482162E+03  0.10983756800E+03  0.30396487047E+03  0.39026190416E+03  0.17200000000E+03 0. -1.
         -6    1    1    2    0  503  0.13513482162E+03 -0.10983756800E+03  0.74827170892E+02  0.25594690243E+03  0.17200000000E+03 0. -1.
</event>
<event>
 4    1  0.5714562E+000  0.2100279E+03  0.7818608E-02  0.1141544E+00
         21   -1    0    0  501  502  0.00000000000E+00  0.00000000000E+00  0.14536544361E+04  0.14536544361E+04  0.00000000000E+00 0.  1.
         21   -1    0    0  502  503 -0.00000000000E+00 -0.00000000000E+00 -0.92307827196E+02  0.92307827196E+02  0.00000000000E+00 0.  1.
          6    1    1    2  501    0 -0.74775086515E+02  0.94532576283E+02  0.13139796634E+04  0.13306593394E+04  0.17200000000E+03 0. -1.
         -6    1    1    2    0  503  0.74775086515E+02 -0.94532576283E+02  0.47366945517E+02  0.21530292397E+03  0.17200000000E+03 0. -1.
</event>
<event>
 4    1  0.5714562E+000  0.1789591E+03  0.7818608E-02  0.1168814E+00
         21   -1    0    0  503  502  0.00000000000E+00  0.00000000000E+00  0.55418041129E+03  0.55418041129E+03  0.00000000000E+00 0. -1.
         21   -1    0    0  501  503 -0.00000000000E+00 -0.00000000000E+00 -0.49126386730E+03  0.49126386730E+03  0.00000000000E+00 0. -1.
          6    1    1    2  501    0  0.49332981311E+02  0.29343200541E+01 -0.45955666263E+03  0.49317205866E+03  0.17200000000E+03 0. -1.
         -6    1    1    2    0  502 -0.49332981311E+02 -0.29343200541E+01  0.52247320661E+03  0.55227221993E+03  0.17200000000E+03 0. -1.
</event>
<event>
 4    1  0.5714562E+000  0.2416330E+03  0.7818608E-02  0.1118710E+00
         21   -1    0    0  503  502  0.00000000000E+00  0.00000000000E+00  0.34466893349E+03  0.34466893349E+03  0.00000000000E+00 0.  1.
         21   -1    0    0  501  503 -0.00000000000E+00 -0.00000000000E+00 -0.32372855234E+03  0.32372855234E+03  0.00000000000E+00 0. -1.
          6    1    1    2  501    0 -0.13965716713E+03 -0.96428186478E+02 -0.22027840941E+03  0.32696956606E+03  0.17200000000E+03 0. -1.
         -6    1    1    2    0  502  0.13965716713E+03  0.96428186478E+02  0.24121879056E+03  0.34142791977E+03  0.17200000000E+03 0.  1.
</event>
<event>
 4    1  0.5714562E+000  0.2368881E+03  0.7818608E-02  0.1121883E+00
         21   -1    0    0  503  502  0.00000000000E+00  0.00000000000E+00  0.85702088113E+02  0.85702088113E+02  0.00000000000E+00 0.  1.
         21   -1    0    0  501  503 -0.00000000000E+00 -0.00000000000E+00 -0.73668750616E+03  0.73668750616E+03  0.00000000000E+00 0. -1.
          6    1    1    2  501    0  0.15596014649E+03  0.46993750231E+02 -0.46260261829E+03  0.51972796952E+03  0.17200000000E+03 0.  1.
         -6    1    1    2    0  502 -0.15596014649E+03 -0.46993750231E+02 -0.18838279976E+03  0.30266162475E+03  0.17200000000E+03 0. -1.
</event>
<event>
 4    1  0.5714562E+000  0.2281762E+03  0.7818608E-02  0.1127930E+00
         21   -1    0    0  503  502  0.00000000000E+00  0.00000000000E+00  0.22597502426E+03  0.22597502426E+03  0.00000000000E+00 0. -1.
         21   -1    0    0  501  503 -0.00000000000E+00 -0.00000000000E+00 -0.53122418663E+03  0.53122418663E+03  0.00000000000E+00 0. -1.
          6    1    1    2  501    0 -0.91366272863E+02 -0.11888046241E+03 -0.43752856645E+03  0.49345274001E+03  0.17200000000E+03 0. -1.
         -6    1    1    2    0  502  0.91366272863E+02  0.11888046241E+03  0.13227940408E+03  0.26374647088E+03  0.17200000000E+03 0. -1.
</event>
<event>
 4    1  0.5714562E+000  0.1739358E+03  0.7818608E-02  0.1173805E+00
         21   -1    0    0  503  502  0.00000000000E+00  0.00000000000E+00  0.12302566799E+04  0.12302566799E+04  0.00000000000E+00 0. -1.
         21   -1    0    0  501  503 -0.00000000000E+00 -0.00000000000E+00 -0.85486075115E+02  0.85486075115E+02  0.00000000000E+00 0. -1.
          6    1    1    2  501    0 -0.36605064023E+01  0.25617472403E+02  0.17142173106E+02  0.17477845490E+03  0.17200000000E+03 0. -1.
         -6    1    1    2    0  502  0.36605064023E+01 -0.25617472403E+02  0.11276284316E+04  0.11409643001E+04  0.17200000000E+03 0. -1.
</event>
<event>
 4    1  0.5714562E+000  0.3212284E+03  0.7818608E-02  0.1075085E+00
         21   -1    0    0  501  502  0.00000000000E+00  0.00000000000E+00  0.64003479040E+03  0.64003479040E+03  0.00000000000E+00 0.  1.
         21   -1    0    0  502  503 -0.00000000000E+00 -0.00000000000E+00 -0.17380276441E+03  0.17380276441E+03  0.00000000000E+00 0. -1.
          6    1    1    2  501    0 -0.20174009274E+03 -0.18139622006E+03  0.34259577841E+03  0.46963764867E+03  0.17200000000E+03 0.  1.
         -6    1    1    2    0  503  0.20174009274E+03  0.18139622006E+03  0.12363624758E+03  0.34419990614E+03  0.17200000000E+03 0.  1.
</event>
<event>
 4    1  0.5714562E+000  0.2108356E+03  0.7818608E-02  0.1140906E+00
         21   -1    0    0  501  502  0.00000000000E+00  0.00000000000E+00  0.38721982881E+03  0.38721982881E+03  0.00000000000E+00 0.  1.
         21   -1    0    0  502  503 -0.00000000000E+00 -0.00000000000E+00 -0.11604405011E+03  0.11604405011E+03  0.00000000000E+00 0. -1.
          6    1    1    2  501    0 -0.89433513794E+02 -0.82881337694E+02  0.10950242339E+03  0.23757619884E+03  0.17200000000E+03 0.  1.
         -6    1    1    2    0  503  0.89433513794E+02  0.82881337694E+02  0.16167335531E+03  0.26568768008E+03  0.17200000000E+03 0.  1.
</event>
<event>
 4    1  0.5714562E+000  0.3176125E+03  0.7818608E-02  0.1076753E+00
         21   -1    0    0  501  502  0.00000000000E+00  0.00000000000E+00  0.29637112185E+03  0.29637112185E+03  0.00000000000E+00 0.  1.
         21   -1    0    0  502  503 -0.00000000000E+00 -0.00000000000E+00 -0.62817142273E+03  0.62817142273E+03  0.00000000000E+00 0.  1.
          6    1    1    2  501    0  0.21756784513E+03 -0.15478350514E+03 -0.47879581494E+03  0.57456342827E+03  0.17200000000E+03 0.  1.
         -6    1    1    2    0  503 -0.21756784513E+03  0.15478350514E+03  0.14699551406E+03  0.34997911631E+03  0.17200000000E+03 0.  1.
</event>
<event>
 4    1  0.5714562E+000  0.1768515E+03  0.7818608E-02  0.1170885E+00
         21   -1    0    0  503  502  0.00000000000E+00  0.00000000000E+00  0.13342450718E+03  0.13342450718E+03  0.00000000000E+00 0.  1.
         21   -1    0    0  501  503 -0.00000000000E+00 -0.00000000000E+00 -0.24244535735E+03  0.24244535735E+03  0.00000000000E+00 0.  1.
          6    1    1    2  501    0 -0.39696009725E+02  0.10801346032E+02 -0.88717932152E+02  0.19785680112E+03  0.17200000000E+03 0.  1.
         -6    1    1    2    0  502  0.39696009725E+02 -0.10801346032E+02 -0.20302918027E+02  0.17801306341E+03  0.17200000000E+03 0.  1.
</event>
<event>
 4    1  0.5714562E+000  0.1897794E+03  0.7818608E-02  0.1158660E+00
         21   -1    0    0  503  502  0.00000000000E+00  0.00000000000E+00  0.21709819999E+03  0.21709819999E+03  0.00000000000E+00 0.  1.
         21   -1    0    0  501  503 -0.00000000000E+00 -0.00000000000E+00 -0.17460504615E+03  0.17460504615E+03  0.00000000000E+00 0.  1.
          6    1    1    2  501    0 -0.70375396180E+02 -0.38464474658E+02 -0.22488297366E+02  0.19110713152E+03  0.17200000000E+03 0. -1.
         -6    1    1    2    0  502  0.70375396180E+02  0.38464474658E+02  0.64981451207E+02  0.20059611462E+03  0.17200000000E+03 0. -1.
</event>
<event>
 4    1  0.5714562E+000  0.1803119E+03  0.7818608E-02  0.1167501E+00
         21   -1    0    0  501  502  0.00000000000E+00  0.00000000000E+00  0.63297889116E+03  0.63297889116E+03  0.00000000000E+00 0.  1.
         21   -1    0    0  502  503 -0.00000000000E+00 -0.00000000000E+00 -0.18545455459E+03  0.18545455459E+03  0.00000000000E+00 0. -1.
          6    1    1    2  501    0 -0.21576518517E+01 -0.54071628722E+02  0.57172554679E+03  0.59948519360E+03  0.17200000000E+03 0.  1.
         -6    1    1    2    0  503  0.21576518517E+01  0.54071628722E+02 -0.12420121023E+03  0.21894825214E+03  0.17200000000E+03 0. -1.
</event>
<event>
 4    1  0.5714562E+000  0.1745773E+03  0.7818608E-02  0.1173157E+00
         21   -1    0    0  501  502  0.00000000000E+00  0.00000000000E+00  0.23044607770E+03  0.23044607770E+03  0.00000000000E+00 0.  1.
         21   -1    0    0  502  503 -0.00000000000E+00 -0.00000000000E+00 -0.27271241378E+03  0.27271241378E+03  0.00000000000E+00 0.  1.
          6    1    1    2  501    0  0.25101980400E+01 -0.29781204772E+02  0.15941685175E+03  0.23641267706E+03  0.17200000000E+03 0.  1.
         -6    1    1    2    0  503 -0.25101980400E+01  0.29781204772E+02 -0.20168318783E+03  0.26674581441E+03  0.17200000000E+03 0.  1.
</event>
<event>
 4    1  0.5714562E+000  0.1831832E+03  0.7818608E-02  0.1164757E+00
         21   -1    0    0  503  502  0.00000000000E+00  0.00000000000E+00  0.67971276533E+02  0.67971276533E+02  0.00000000000E+00 0.  1.
         21   -1    0    0  501  503 -0.00000000000E+00 -0.00000000000E+00 -0.56225030107E+03  0.56225030107E+03  0.00000000000E+00 0.  1.
          6    1    1    2  501    0 -0.71639461370E+00 -0.63020262395E+02 -0.13709557226E+03  0.22880398298E+03  0.17200000000E+03 0.  1.
         -6    1    1    2    0  502  0.71639461370E+00  0.63020262395E+02 -0.35718345228E+03  0.40141759463E+03  0.17200000000E+03 0.  1.
</event>
<event>
 4    1  0.5714562E+000  0.1797303E+03  0.7818608E-02  0.1168064E+00
         21   -1    0    0  503  502  0.00000000000E+00  0.00000000000E+00  0.26429174059E+03  0.26429174059E+03  0.00000000000E+00 0. -1.
         21   -1    0    0  501  503 -0.00000000000E+00 -0.00000000000E+00 -0.20252842814E+03  0.20252842814E+03  0.00000000000E+00 0. -1.
          6    1    1    2  501    0  0.26448526367E+02  0.44938436563E+02 -0.11609365291E+03  0.21396430514E+03  0.17200000000E+03 0. -1.
         -6    1    1    2    0  502 -0.26448526367E+02 -0.44938436563E+02  0.17785696536E+03  0.25285586360E+03  0.17200000000E+03 0. -1.
</event>
<event>
 4    1  0.5714562E+000  0.2162364E+03  0.7818608E-02  0.1136720E+00
         21   -1    0    0  501  502  0.00000000000E+00  0.00000000000E+00  0.12143468013E+03  0.12143468013E+03  0.00000000000E+00 0. -1.
         21   -1    0    0  502  503 -0.00000000000E+00 -0.00000000000E+00 -0.43147051435E+03  0.43147051435E+03  0.00000000000E+00 0. -1.
          6    1    1    2  501    0 -0.12063598421E+03  0.51197240402E+02 -0.64338488964E+02  0.22560505153E+03  0.17200000000E+03 0.  1.
         -6    1    1    2    0  503  0.12063598421E+03 -0.51197240402E+02 -0.24569734526E+03  0.32730014296E+03  0.17200000000E+03 0.  1.
</event>
<event>
 4    1  0.5714562E+000  0.3105607E+03  0.7818608E-02  0.1080077E+00
         21   -1    0    0  501  502  0.00000000000E+00  0.00000000000E+00  0.16800892213E+03  0.16800892213E+03  0.00000000000E+00 0.  1.
         21   -1    0    0  502  503 -0.00000000000E+00 -0.00000000000E+00 -0.83303622600E+03  0.83303622600E+03  0.00000000000E+00 0.  1.
          6    1    1    2  501    0  0.20846448108E+03 -0.15299177191E+03 -0.61158681799E+03  0.68592008141E+03  0.17200000000E+03 0.  1.
         -6    1    1    2    0  503 -0.20846448108E+03  0.15299177191E+03 -0.53440485888E+02  0.31512506672E+03  0.17200000000E+03 0.  1.
</event>
<event>
 4    1  0.5714562E+000  0.1796507E+03  0.7818608E-02  0.1168142E+00
         21   -1    0    0  503  502  0.00000000000E+00  0.00000000000E+00  0.11601350620E+03  0.11601350620E+03  0.00000000000E+00 0.  1.
         21   -1    0    0  501  503 -0.00000000000E+00 -0.00000000000E+00 -0.43126834897E+03  0.43126834897E+03  0.00000000000E+00 0.  1.
          6    1    1    2  501    0 -0.37649892682E+02  0.35677284488E+02 -0.32065346280E+03  0.36755003231E+03  0.17200000000E+03 0.  1.
         -6    1    1    2    0  502  0.37649892682E+02 -0.35677284488E+02  0.53986200341E+01  0.17973182285E+03  0.17200000000E+03 0.  1.
</event>
<event>
 4    1  0.5714562E+000  0.1792712E+03  0.7818608E-02  0.1168510E+00
         21   -1    0    0  501  502  0.00000000000E+00  0.00000000000E+00  0.13330854874E+03  0.13330854874E+03  0.00000000000E+00 0.  1.
         21   -1    0    0  502  503 -0.00000000000E+00 -0.00000000000E+00 -0.25863246189E+03  0.25863246189E+03  0.00000000000E+00 0.  1.
          6    1    1    2  501    0  0.41689218690E+02  0.28568427220E+02 -0.11610636075E+02  0.17964674464E+03  0.17200000000E+03 0.  1.
         -6    1    1    2    0  503 -0.41689218690E+02 -0.28568427220E+02 -0.11371327707E+03  0.21229426599E+03  0.17200000000E+03 0.  1.
</event>
<event>
 4    1  0.5714562E+000  0.1986165E+03  0.7818608E-02  0.1150912E+00
         21   -1    0    0  501  502  0.00000000000E+00  0.00000000000E+00  0.22353539677E+03  0.22353539677E+03  0.00000000000E+00 0. -1.
         21   -1    0    0  502  503 -0.00000000000E+00 -0.00000000000E+00 -0.52740879598E+03  0.52740879598E+03  0.00000000000E+00 0. -1.
          6    1    1    2  501    0  0.96976931913E+02 -0.21447207986E+02  0.15434165580E+03  0.25153499711E+03  0.17200000000E+03 0. -1.
         -6    1    1    2    0  503 -0.96976931913E+02  0.21447207986E+02 -0.45821505501E+03  0.49940919565E+03  0.17200000000E+03 0. -1.
</event>
<event>
 4    1  0.5714562E+000  0.2192366E+03  0.7818608E-02  0.1134453E+00
         21   -1    0    0  503  502  0.00000000000E+00  0.00000000000E+00  0.11636906701E+03  0.11636906701E+03  0.00000000000E+00 0.  1.
         21   -1    0    0  501  503 -0.00000000000E+00 -0.00000000000E+00 -0.62872568805E+03  0.62872568805E+03  0.00000000000E+00 0. -1.
          6    1    1    2  501    0 -0.11914163865E+03  0.65467131670E+02 -0.47438349643E+03  0.52259389307E+03  0.17200000000E+03 0. -1.
         -6    1    1    2    0  502  0.11914163865E+03 -0.65467131670E+02 -0.37973124609E+02  0.22250086198E+03  0.17200000000E+03 0.  1.
</event>
<event>
 4    1  0.5714562E+000  0.2387268E+03  0.7818608E-02  0.1120644E+00
         21   -1    0    0  503  502  0.00000000000E+00  0.00000000000E+00  0.44389404424E+03  0.44389404424E+03  0.00000000000E+00 0. -1.
         21   -1    0    0  501  503 -0.00000000000E+00 -0.00000000000E+00 -0.12946032553E+03  0.12946032553E+03  0.00000000000E+00 0. -1.
          6    1    1    2  501    0  0.38959912196E+02  0.16089935861E+03  0.18331291398E+03  0.30098854262E+03  0.17200000000E+03 0. -1.
         -6    1    1    2    0  502 -0.38959912196E+02 -0.16089935861E+03  0.13112080474E+03  0.27236582714E+03  0.17200000000E+03 0. -1.
</event>
<event>
 4    1  0.5714562E+000  0.2650442E+03  0.7818608E-02  0.1104150E+00
         21   -1    0    0  503  502  0.00000000000E+00  0.00000000000E+00  0.86916801320E+03  0.86916801320E+03  0.00000000000E+00 0. -1.
         21   -1    0    0  501  503 -0.00000000000E+00 -0.00000000000E+00 -0.74003183643E+03  0.74003183643E+03  0.00000000000E+00 0. -1.
          6    1    1    2  501    0 -0.14069105180E+03  0.14446604027E+03 -0.69482463518E+03  0.74365965502E+03  0.17200000000E+03 0. -1.
         -6    1    1    2    0  502  0.14069105180E+03 -0.14446604027E+03  0.82396081195E+03  0.86554019461E+03  0.17200000000E+03 0. -1.
</event>
<event>
 4    1  0.5714562E+000  0.1832430E+03  0.7818608E-02  0.1164701E+00
         21   -1    0    0  501  502  0.00000000000E+00  0.00000000000E+00  0.86204285856E+03  0.86204285856E+03  0.00000000000E+00 0. -1.
         21   -1    0    0  502  503 -0.00000000000E+00 -0.00000000000E+00 -0.40072265726E+02  0.40072265726E+02  0.00000000000E+00 0. -1.
          6    1    1    2  501    0 -0.49983234862E+02 -0.38674169493E+02  0.48641338562E+03  0.51978456775E+03  0.17200000000E+03 0. -1.
         -6    1    1    2    0  503  0.49983234862E+02  0.38674169493E+02  0.33555720722E+03  0.38233055654E+03  0.17200000000E+03 0. -1.
</event>
<event>
 4    1  0.5714562E+000  0.2513152E+03  0.7818608E-02  0.1112476E+00
         21   -1    0    0  501  502  0.00000000000E+00  0.00000000000E+00  0.11323896009E+04  0.11323896009E+04  0.00000000000E+00 0.  1.
         21   -1    0    0  502  503 -0.00000000000E+00 -0.00000000000E+00 -0.65082133356E+02  0.65082133356E+02  0.00000000000E+00 0. -1.
          6    1    1    2  501    0  0.10675598701E+03 -0.14892439479E+03  0.76006939186E+03  0.80054031539E+03  0.17200000000E+03 0.  1.
         -6    1    1    2    0  503 -0.10675598701E+03  0.14892439479E+03  0.30723807564E+03  0.39693141882E+03  0.17200000000E+03 0. -1.
</event>
<event>
 4    1  0.5714562E+000  0.2258205E+03  0.7818608E-02  0.1129617E+00
         21   -1    0    0  501  502  0.00000000000E+00  0.00000000000E+00  0.33836176608E+03  0.33836176608E+03  0.00000000000E+00 0.  1.
         21   -1    0    0  502  503 -0.00000000000E+00 -0.00000000000E+00 -0.16344123714E+03  0.16344123714E+03  0.00000000000E+00 0.  1.
          6    1    1    2  501    0  0.87097042162E+02  0.11757986863E+03  0.15748260887E+03  0.27531017481E+03  0.17200000000E+03 0.  1.
         -6    1    1    2    0  503 -0.87097042162E+02 -0.11757986863E+03  0.17437920075E+02  0.22649282840E+03  0.17200000000E+03 0.  1.
</event>
<event>
 4    1  0.5714562E+000  0.1863074E+03  0.7818608E-02  0.1161835E+00
         21   -1    0    0  501  502  0.00000000000E+00  0.00000000000E+00  0.12257133916E+04  0.12257133916E+04  0.00000000000E+00 0. -1.
         21   -1    0    0  502  503 -0.00000000000E+00 -0.00000000000E+00 -0.10698747003E+03  0.10698747003E+03  0.00000000000E+00 0. -1.
          6    1    1    2  501    0 -0.61622133423E+01 -0.71333450298E+02  0.11307597557E+04  0.11460052614E+04  0.17200000000E+03 0. -1.
         -6    1    1    2    0  503  0.61622133423E+01  0.71333450298E+02 -0.12033834097E+02  0.18669560029E+03  0.17200000000E+03 0. -1.
</event>
<event>
 4    1  0.5714562E+000  0.2861528E+03  0.7818608E-02  0.1092375E+00
         21   -1    0    0  503  502  0.00000000000E+00  0.00000000000E+00  0.50373610755E+03  0.50373610755E+03  0.00000000000E+00 0. -1.
         21   -1    0    0  501  503 -0.00000000000E+00 -0.00000000000E+00 -0.22933531966E+03  0.22933531966E+03  0.00000000000E+00 0.  1.
          6    1    1    2  501    0 -0.11102203664E+03  0.19993386305E+03 -0.60594002468E+02  0.29249799204E+03  0.17200000000E+03 0.  1.
         -6    1    1    2    0  502  0.11102203664E+03 -0.19993386305E+03  0.33499479035E+03  0.44057343517E+03  0.17200000000E+03 0. -1.
</event>
<event>
 4    1  0.5714562E+000  0.2193113E+03  0.7818608E-02  0.1134398E+00
         21   -1    0    0  503  502  0.00000000000E+00  0.00000000000E+00  0.33609416529E+02  0.33609416529E+02  0.00000000000E+00 0. -1.
         21   -1    0    0  501  503 -0.00000000000E+00 -0.00000000000E+00 -0.15323071391E+04  0.15323071391E+04  0.00000000000E+00 0. -1.
          6    1    1    2  501    0 -0.10312884942E+03 -0.88757421836E+02 -0.95059839665E+03  0.97556893719E+03  0.17200000000E+03 0. -1.
         -6    1    1    2    0  502  0.10312884942E+03  0.88757421836E+02 -0.54809932594E+03  0.59034761845E+03  0.17200000000E+03 0. -1.
</event>
<event>
 4    1  0.5714562E+000  0.1844307E+03  0.7818608E-02  0.1163583E+00
         21   -1    0    0  501  502  0.00000000000E+00  0.00000000000E+00  0.35816990686E+03  0.35816990686E+03  0.00000000000E+00 0.  1.
         21   -1    0    0  502  503 -0.00000000000E+00 -0.00000000000E+00 -0.18896775502E+03  0.18896775502E+03  0.00000000000E+00 0.  1.
          6    1    1    2  501    0 -0.18599544299E+02 -0.63911990848E+02  0.27754721185E+03  0.33323736349E+03  0.17200000000E+03 0.  1.
         -6    1    1    2    0  503  0.18599544299E+02  0.63911990848E+02 -0.10834506001E+03  0.21390029839E+03  0.17200000000E+03 0.  1.
</event>
<event>
 4    1  0.5714562E+000  0.2068574E+03  0.7818608E-02  0.1144079E+00
         21   -1    0    0  503  502  0.00000000000E+00  0.00000000000E+00  0.33556159765E+03  0.33556159765E+03  0.00000000000E+00 0.  1.
         21   -1    0    0  501  503 -0.00000000000E+00 -0.00000000000E+00 -0.12767802569E+03  0.12767802569E+03  0.00000000000E+00 0.  1.
          6    1    1    2  501    0  0.10423024295E+03 -0.48394672677E+02  0.95729915636E+02  0.22793464992E+03  0.17200000000E+03 0.  1.
         -6    1    1    2    0  502 -0.10423024295E+03  0.48394672677E+02  0.11215365632E+03  0.23530497341E+03  0.17200000000E+03 0.  1.
</event>
<event>
 4    1  0.5714562E+000  0.2071022E+03  0.7818608E-02  0.1143882E+00
         21   -1    0    0  503  502  0.00000000000E+00  0.00000000000E+00  0.29815989556E+03  0.29815989556E+03  0.00000000000E+00 0. -1.
         21   -1    0    0  501  503 -0.00000000000E+00 -0.00000000000E+00 -0.14436251766E+03  0.14436251766E+03  0.00000000000E+00 0.  1.
          6    1    1    2  501    0  0.11387859290E+03  0.18411084084E+02  0.63758384814E+02  0.21669433212E+03  0.17200000000E+03 0.  1.
         -6    1    1    2    0  502 -0.11387859290E+03 -0.18411084084E+02  0.90038993084E+02  0.22582808110E+03  0.17200000000E+03 0. -1.
</event>
<event>
 4    1  0.5714562E+000  0.1761296E+03  0.7818608E-02  0.1171602E+00
         21   -1    0    0  501  502  0.00000000000E+00  0.00000000000E+00  0.50974876319E+03  0.50974876319E+03  0.00000000000E+00 0.  1.
         21   -1    0    0  502  503 -0.00000000000E+00 -0.00000000000E+00 -0.60998676756E+02  0.60998676756E+02  0.00000000000E+00 0.  1.
          6    1    1    2  501    0  0.16339138909E+01 -0.37880831590E+02  0.23814282057E+03  0.29619863279E+03  0.17200000000E+03 0.  1.
         -6    1    1    2    0  503 -0.16339138909E+01  0.37880831590E+02  0.21060726586E+03  0.27454880716E+03  0.17200000000E+03 0.  1.
</event>
<event>
 4    1  0.5714562E+000  0.1927704E+03  0.7818608E-02  0.1155986E+00
         21   -1    0    0  501  502  0.00000000000E+00  0.00000000000E+00  0.13934107963E+03  0.13934107963E+03  0.00000000000E+00 0.  1.
         21   -1    0    0  502  503 -0.00000000000E+00 -0.00000000000E+00 -0.27801990575E+03  0.27801990575E+03  0.00000000000E+00 0.  1.
          6    1    1    2  501    0  0.62396944348E+02 -0.60688203239E+02 -0.27206935590E+02  0.19468090307E+03  0.17200000000E+03 0. -1.
         -6    1    1    2    0  503 -0.62396944348E+02  0.60688203239E+02 -0.11147189054E+03  0.22268008231E+03  0.17200000000E+03 0. -1.
</event>
<event>
 4    1  0.5714562E+000  0.1754693E+03  0.7818608E-02  0.1172261E+00
         21   -1    0    0  503  502  0.00000000000E+00  0.00000000000E+00  0.62279883310E+02  0.62279883310E+02  0.00000000000E+00 0.  1.
         21   -1    0    0  501  503 -0.00000000000E+00 -0.00000000000E+00 -0.82236088737E+03  0.82236088737E+03  0.00000000000E+00 0.  1.
          6    1    1    2  501    0  0.25520030922E+02 -0.23541686122E+02 -0.65938153759E+03  0.68232946227E+03  0.17200000000E+03 0.  1.
         -6    1    1    2    0  502 -0.25520030922E+02  0.23541686122E+02 -0.10069946647E+03  0.20231130841E+03  0.17200000000E+03 0.  1.
</event>
<event>
 4    1  0.5714562E+000  0.2136312E+03  0.7818608E-02  0.1138722E+00
         21   -1    0    0  503  502  0.00000000000E+00  0.00000000000E+00  0.24640139684E+03  0.24640139684E+03  0.00000000000E+00 0. -1.
         21   -1    0    0  501  503 -0.00000000000E+00 -0.00000000000E+00 -0.20644811961E+03  0.20644811961E+03  0.00000000000E+00 0.  1.
          6    1    1    2  501    0  0.37619660561E+02  0.12099194005E+03 -0.52630882858E+02  0.22001885885E+03  0.17200000000E+03 0.  1.
         -6    1    1    2    0  502 -0.37619660561E+02 -0.12099194005E+03  0.92584160090E+02  0.23283065760E+03  0.17200000000E+03 0. -1.
</event>
<event>
 4    1  0.5714562E+000  0.1971211E+03  0.7818608E-02  0.1152191E+00
         21   -1    0    0  501  502  0.00000000000E+00  0.00000000000E+00  0.58410786499E+03  0.58410786499E+03  0.00000000000E+00 0.  1.
         21   -1    0    0  502  503 -0.00000000000E+00 -0.00000000000E+00 -0.79180003072E+02  0.79180003072E+02  0.00000000000E+00 0.  1.
          6    1    1    2  501    0  0.88745044755E+02  0.37377030847E+02  0.38505866632E+03  0.43258167080E+03  0.17200000000E+03 0.  1.
         -6    1    1    2    0  503 -0.88745044755E+02 -0.37377030847E+02  0.11986919560E+03  0.23070619727E+03  0.17200000000E+03 0.  1.
</event>
<event>
 4    1  0.5714562E+000  0.2010725E+03  0.7818608E-02  0.1148837E+00
         21   -1    0    0  503  502  0.00000000000E+00  0.00000000000E+00  0.94257463835E+03  0.94257463835E+03  0.00000000000E+00 0. -1.
         21   -1    0    0  501  503 -0.00000000000E+00 -0.00000000000E+00 -0.44459092824E+02  0.44459092824E+02  0.00000000000E+00 0. -1.
          6    1    1    2  501    0  0.43522003271E+01 -0.10405381459E+03  0.54167433713E+03  0.57778994928E+03  0.17200000000E+03 0. -1.
         -6    1    1    2    0  502 -0.43522003271E+01  0.10405381459E+03  0.35644120840E+03  0.40924378190E+03  0.17200000000E+03 0. -1.
</event>
<event>
 4    1  0.5714562E+000  0.1811487E+03  0.7818608E-02  0.1166696E+00
         21   -1    0    0  503  502  0.00000000000E+00  0.00000000000E+00  0.24258238064E+02  0.24258238064E+02  0.00000000000E+00 0. -1.
         21   -1    0    0  501  503 -0.00000000000E+00 -0.00000000000E+00 -0.13703638303E+04  0.13703638303E+04  0.00000000000E+00 0. -1.
          6    1    1    2  501    0 -0.14260341682E+02 -0.55022550119E+02 -0.59395106497E+03  0.62096111468E+03  0.17200000000E+03 0. -1.
         -6    1    1    2    0  502  0.14260341682E+02  0.55022550119E+02 -0.75215452725E+03  0.77366095367E+03  0.17200000000E+03 0. -1.
</event>
<event>
 4    1  0.5714562E+000  0.2008950E+03  0.7818608E-02  0.1148986E+00
         21   -1    0    0  501  502  0.00000000000E+00  0.00000000000E+00  0.30955760124E+02  0.30955760124E+02  0.00000000000E+00 0. -1.
         21   -1    0    0  502  503 -0.00000000000E+00 -0.00000000000E+00 -0.14772787244E+04  0.14772787244E+04  0.00000000000E+00 0. -1.
          6    1    1    2  501    0  0.57403608501E+02  0.86484840749E+02 -0.46470701012E+03  0.50627206836E+03  0.17200000000E+03 0. -1.
         -6    1    1    2    0  503 -0.57403608501E+02 -0.86484840749E+02 -0.98161595420E+03  0.10019624162E+04  0.17200000000E+03 0. -1.
</event>
<event>
 4    1  0.5714562E+000  0.2052808E+03  0.7818608E-02  0.1145359E+00
         21   -1    0    0  503  502  0.00000000000E+00  0.00000000000E+00  0.82105943682E+03  0.82105943682E+03  0.00000000000E+00 0. -1.
         21   -1    0    0  501  503 -0.00000000000E+00 -0.00000000000E+00 -0.76052002491E+02  0.76052002491E+02  0.00000000000E+00 0. -1.
          6    1    1    2  501    0 -0.27153249662E+01  0.11202152274E+03  0.11673107346E+03  0.23614897429E+03  0.17200000000E+03 0. -1.
         -6    1    1    2    0  502  0.27153249662E+01 -0.11202152274E+03  0.62827636086E+03  0.66096246502E+03  0.17200000000E+03 0. -1.
</event>
<event>
 4    1  0.5714562E+000  0.1820094E+03  0.7818608E-02  0.1165872E+00
         21   -1    0    0  503  502  0.00000000000E+00  0.00000000000E+00  0.81302342006E+03  0.81302342006E+03  0.00000000000E+00 0.  1.
         21   -1    0    0  501  503 -0.00000000000E+00 -0.00000000000E+00 -0.46782357523E+02  0.46782357523E+02  0.00000000000E+00 0.  1.
          6    1    1    2  501    0 -0.21073850476E+01  0.59489482497E+02  0.22869562386E+03  0.29228261661E+03  0.17200000000E+03 0.  1.
         -6    1    1    2    0  502  0.21073850476E+01 -0.59489482497E+02  0.53754543868E+03  0.56752316097E+03  0.17200000000E+03 0.  1.
</event>
<event>
 4    1  0.5714562E+000  0.2503276E+03  0.7818608E-02  0.1113098E+00
         21   -1    0    0  503  502  0.00000000000E+00  0.00000000000E+00  0.16597157240E+03  0.16597157240E+03  0.00000000000E+00 0.  1.
         21   -1    0    0  501  503 -0.00000000000E+00 -0.00000000000E+00 -0.74874294746E+03  0.74874294746E+03  0.00000000000E+00 0.  1.
          6    1    1    2  501    0  0.11844875971E+03 -0.13802109005E+03 -0.61340673585E+03  0.66251924769E+03  0.17200000000E+03 0.  1.
         -6    1    1    2    0  502 -0.11844875971E+03  0.13802109005E+03  0.30635360795E+02  0.25219527217E+03  0.17200000000E+03 0.  1.
</event>
<event>
 4    1  0.5714562E+000  0.2702952E+03  0.7818608E-02  0.1101111E+00
         21   -1    0    0  503  502  0.00000000000E+00  0.00000000000E+00  0.16226440279E+04  0.16226440279E+04  0.00000000000E+00 0. -1.
         21   -1    0    0  501  503 -0.00000000000E+00 -0.00000000000E+00 -0.82386065174E+02  0.82386065174E+02  0.00000000000E+00 0.  1.
          6    1    1    2  501    0  0.18953497191E+03  0.86902211364E+02  0.19603239169E+03  0.33389848534E+03  0.17200000000E+03 0.  1.
         -6    1    1    2    0  502 -0.18953497191E+03 -0.86902211364E+02  0.13442255710E+04  0.13711316077E+04  0.17200000000E+03 0. -1.
</event>
<event>
 4    1  0.5714562E+000  0.3857506E+03  0.7818608E-02  0.1048829E+00
         21   -1    0    0  501  502  0.00000000000E+00  0.00000000000E+00  0.43970896091E+03  0.43970896091E+03  0.00000000000E+00 0. -1.
         21   -1    0    0  502  503 -0.00000000000E+00 -0.00000000000E+00 -0.34481180347E+03  0.34481180347E+03  0.00000000000E+00 0.  1.
          6    1    1    2  501    0  0.23871709048E+03 -0.24946676183E+03  0.10088171923E+03  0.39872375878E+03  0.17200000000E+03 0. -1.
         -6    1    1    2    0  503 -0.23871709048E+03  0.24946676183E+03 -0.59845617903E+01  0.38579700559E+03  0.17200000000E+03 0.  1.
</event>
<event>
 4    1  0.5714562E+000  0.2121351E+03  0.7818608E-02  0.1139886E+00
         21   -1    0    0  501  502  0.00000000000E+00  0.00000000000E+00  0.85981744064E+03  0.85981744064E+03  0.00000000000E+00 0. -1.
         21   -1    0    0  502  503 -0.00000000000E+00 -0.00000000000E+00 -0.58681643574E+02  0.58681643574E+02  0.00000000000E+00 0.  1.
          6    1    1    2  501    0  0.25221052497E+01 -0.12414084892E+03  0.55156185743E+03  0.59094990816E+03  0.17200000000E+03 0. -1.
         -6    1    1    2    0  503 -0.25221052497E+01  0.12414084892E+03  0.24957393964E+03  0.32754917605E+03  0.17200000000E+03 0.  1.
</event>
<event>
 4    1  0.5714562E+000  0.2036304E+03  0.7818608E-02  0.1146712E+00
         21   -1    0    0  501  502  0.00000000000E+00  0.00000000000E+00  0.51706439160E+03  0.51706439160E+03  0.00000000000E+00 0. -1.
         21   -1    0    0  502  503 -0.00000000000E+00 -0.00000000000E+00 -0.90065966329E+02  0.90065966329E+02  0.00000000000E+00 0.  1.
          6    1    1    2  501    0  0.48170607431E+02  0.97780124102E+02  0.31400191915E+03  0.37424933576E+03  0.17200000000E+03 0. -1.
         -6    1    1    2    0  503 -0.48170607431E+02 -0.97780124102E+02  0.11299650613E+03  0.23288102217E+03  0.17200000000E+03 0.  1.
</event>
<event>
 4    1  0.5714562E+000  0.2532701E+03  0.7818608E-02  0.1111255E+00
         21   -1    0    0  501  502  0.00000000000E+00  0.00000000000E+00  0.14114984007E+03  0.14114984007E+03  0.00000000000E+00 0.  1.
         21   -1    0    0  502  503 -0.00000000000E+00 -0.00000000000E+00 -0.48000325195E+03  0.48000325195E+03  0.00000000000E+00 0. -1.
          6    1    1    2  501    0  0.18554804476E+03 -0.11562034036E+02 -0.97769998792E+02  0.27148615104E+03  0.17200000000E+03 0. -1.
         -6    1    1    2    0  503 -0.18554804476E+03  0.11562034036E+02 -0.24108341309E+03  0.34966694098E+03  0.17200000000E+03 0.  1.
</event>
<event>
 4    1  0.5714562E+000  0.1753017E+03  0.7818608E-02  0.1172429E+00
         21   -1    0    0  503  502  0.00000000000E+00  0.00000000000E+00  0.11505634089E+04  0.11505634089E+04  0.00000000000E+00 0.  1.
         21   -1    0    0  501  503 -0.00000000000E+00 -0.00000000000E+00 -0.34281982670E+02  0.34281982670E+02  0.00000000000E+00 0.  1.
          6    1    1    2  501    0  0.33588263967E+02  0.43040712227E+01  0.27970511012E+03  0.33009944734E+03  0.17200000000E+03 0.  1.
         -6    1    1    2    0  502 -0.33588263967E+02 -0.43040712227E+01  0.83657631614E+03  0.85474594426E+03  0.17200000000E+03 0.  1.
</event>
<event>
 4    1  0.5714562E+000  0.1848261E+03  0.7818608E-02  0.1163212E+00
         21   -1    0    0  503  502  0.00000000000E+00  0.00000000000E+00  0.15912496303E+04  0.15912496303E+04  0.00000000000E+00 0. -1.
         21   -1    0    0  501  503 -0.00000000000E+00 -0.00000000000E+00 -0.10007016917E+03  0.10007016917E+03  0.00000000000E+00 0. -1.
          6    1    1    2  501    0 -0.55741679137E+01  0.67421127923E+02 -0.38921708957E+01  0.18486705719E+03  0.17200000000E+03 0. -1.
         -6    1    1    2    0  502  0.55741679137E+01 -0.67421127923E+02  0.14950716320E+04  0.15064527423E+04  0.17200000000E+03 0. -1.
</event>
<event>
 4    1  0.5714562E+000  0.1952127E+03  0.7818608E-02  0.1153842E+00
         21   -1    0    0  501  502  0.00000000000E+00  0.00000000000E+00  0.54047684279E+03  0.54047684279E+03  0.00000000000E+00 0.  1.
         21   -1    0    0  502  503 -0.00000000000E+00 -0.00000000000E+00 -0.72549938611E+02  0.72549938611E+02  0.00000000000E+00 0.  1.
          6    1    1    2  501    0  0.89333144676E+02  0.23315057634E+02  0.18254249174E+03  0.26726347289E+03  0.17200000000E+03 0.  1.
         -6    1    1    2    0  503 -0.89333144676E+02 -0.23315057634E+02  0.28538441244E+03  0.34576330852E+03  0.17200000000E+03 0.  1.
</event>
<event>
 4    1  0.5714562E+000  0.2396928E+03  0.7818608E-02  0.1119998E+00
         21   -1    0    0  503  502  0.00000000000E+00  0.00000000000E+00  0.13509644904E+04  0.13509644904E+04  0.00000000000E+00 0.  1.
         21   -1    0    0  501  503 -0.00000000000E+00 -0.00000000000E+00 -0.42720143308E+02  0.42720143308E+02  0.00000000000E+00 0.  1.
          6    1    1    2  501    0 -0.94840123214E+02 -0.13738265439E+03  0.70096160710E+03  0.74081024380E+03  0.17200000000E+03 0.  1.
         -6    1    1    2    0  502  0.94840123214E+02  0.13738265439E+03  0.60728273997E+03  0.65287438988E+03  0.17200000000E+03 0.  1.
</event>
<event>
 4    1  0.5714562E+000  0.1721200E+03  0.7818608E-02  0.1175655E+00
         21   -1    0    0  501  502  0.00000000000E+00  0.00000000000E+00  0.12698108712E+03  0.12698108712E+03  0.00000000000E+00 0.  1.
         21   -1    0    0  502  503 -0.00000000000E+00 -0.00000000000E+00 -0.26310970591E+03  0.26310970591E+03  0.00000000000E+00 0.  1.
          6    1    1    2  501    0 -0.45332960743E+01  0.45556313071E+01 -0.24179385274E+01  0.17213701222E+03  0.17200000000E+03 0.  1.
         -6    1    1    2    0  503  0.45332960743E+01 -0.45556313071E+01 -0.13371068027E+03  0.21795378081E+03  0.17200000000E+03 0.  1.
</event>
<event>
 4    1  0.5714562E+000  0.2072165E+03  0.7818608E-02  0.1143789E+00
         21   -1    0    0  501  502  0.00000000000E+00  0.00000000000E+00  0.60673221586E+02  0.60673221586E+02  0.00000000000E+00 0.  1.
         21   -1    0    0  502  503 -0.00000000000E+00 -0.00000000000E+00 -0.70860861432E+03  0.70860861432E+03  0.00000000000E+00 0.  1.
          6    1    1    2  501    0 -0.53879507551E+02  0.10223339313E+03 -0.31022291584E+03  0.37306423779E+03  0.17200000000E+03 0. -1.
         -6    1    1    2    0  503  0.53879507551E+02 -0.10223339313E+03 -0.33771247689E+03  0.39621759811E+03  0.17200000000E+03 0. -1.
</event>
<event>
 4    1  0.5714562E+000  0.1986056E+03  0.7818608E-02  0.1150921E+00
         21   -1    0    0  501  502  0.00000000000E+00  0.00000000000E+00  0.96480430881E+02  0.96480430881E+02  0.00000000000E+00 0.  1.
         21   -1    0    0  502  503 -0.00000000000E+00 -0.00000000000E+00 -0.60007848394E+03  0.60007848394E+03  0.00000000000E+00 0.  1.
          6    1    1    2  501    0 -0.98770852654E+02  0.10222144616E+02 -0.55181647639E+02  0.20612905620E+03  0.17200000000E+03 0.  1.
         -6    1    1    2    0  503  0.98770852654E+02 -0.10222144616E+02 -0.44841640542E+03  0.49042985862E+03  0.17200000000E+03 0.  1.
</event>
<event>
 4    1  0.5714562E+000  0.2165626E+03  0.7818608E-02  0.1136472E+00
         21   -1    0    0  501  502  0.00000000000E+00  0.00000000000E+00  0.21292288817E+03  0.21292288817E+03  0.00000000000E+00 0.  1.
         21   -1    0    0  502  503 -0.00000000000E+00 -0.00000000000E+00 -0.22270171413E+03  0.22270171413E+03  0.00000000000E+00 0.  1.
          6    1    1    2  501    0 -0.30385353977E+02 -0.12803166860E+03  0.17896018490E+02  0.21730081771E+03  0.17200000000E+03 0.  1.
         -6    1    1    2    0  503  0.30385353977E+02  0.12803166860E+03 -0.27674844447E+02  0.21832378459E+03  0.17200000000E+03 0.  1.
</event>
<event>
 4    1  0.5714562E+000  0.2092554E+03  0.7818608E-02  0.1142157E+00
         21   -1    0    0  503  502  0.00000000000E+00  0.00000000000E+00  0.45920069724E+03  0.45920069724E+03  0.00000000000E+00 0.  1.
         21   -1    0    0  501  503 -0.00000000000E+00 -0.00000000000E+00 -0.95723496735E+02  0.95723496735E+02  0.00000000000E+00 0. -1.
          6    1    1    2  501    0 -0.32647183066E+02  0.11462112583E+03  0.16456206446E+03  0.26621140867E+03  0.17200000000E+03 0. -1.
         -6    1    1    2    0  502  0.32647183066E+02 -0.11462112583E+03  0.19891513605E+03  0.28871278530E+03  0.17200000000E+03 0.  1.
</event>
<event>
 4    1  0.5714562E+000  0.2873630E+03  0.7818608E-02  0.1091734E+00
         21   -1    0    0  501  502  0.00000000000E+00  0.00000000000E+00  0.16338206667E+04  0.16338206667E+04  0.00000000000E+00 0. -1.
         21   -1    0    0  502  503 -0.00000000000E+00 -0.00000000000E+00 -0.64950037434E+02  0.64950037434E+02  0.00000000000E+00 0. -1.
          6    1    1    2  501    0  0.10412564934E+03 -0.20530798457E+03  0.11844801486E+04  0.12188399164E+04  0.17200000000E+03 0. -1.
         -6    1    1    2    0  503 -0.10412564934E+03  0.20530798457E+03  0.38439048059E+03  0.47993078766E+03  0.17200000000E+03 0. -1.
</event>
<event>
 4    1  0.5714562E+000  0.2072382E+03  0.7818608E-02  0.1143772E+00
         21   -1    0    0  501  502  0.00000000000E+00  0.00000000000E+00  0.67021696822E+02  0.67021696822E+02  0.00000000000E+00 0. -1.
         21   -1    0    0  502  503 -0.00000000000E+00 -0.00000000000E+00 -0.64989662416E+03  0.64989662416E+03  0.00000000000E+00 0. -1.
          6    1    1    2  501    0 -0.24872448668E+02 -0.11289388035E+03 -0.33384073775E+03  0.39293422491E+03  0.17200000000E+03 0.  1.
         -6    1    1    2    0  503  0.24872448668E+02  0.11289388035E+03 -0.24903418959E+03  0.32398409607E+03  0.17200000000E+03 0.  1.
</event>
<event>
 4    1  0.5714562E+000  0.2028453E+03  0.7818608E-02  0.1147360E+00
         21   -1    0    0  501  502  0.00000000000E+00  0.00000000000E+00  0.90663357883E+03  0.90663357883E+03  0.00000000000E+00 0.  1.
         21   -1    0    0  502  503 -0.00000000000E+00 -0.00000000000E+00 -0.13945762842E+03  0.13945762842E+03  0.00000000000E+00 0. -1.
          6    1    1    2  501    0  0.10547525466E+03 -0.20909164810E+02  0.81317729484E+03  0.83809518275E+03  0.17200000000E+03 0.  1.
         -6    1    1    2    0  503 -0.10547525466E+03  0.20909164810E+02 -0.46001344417E+02  0.20799602450E+03  0.17200000000E+03 0. -1.
</event>
<event>
 4    1  0.5714562E+000  0.2041466E+03  0.7818608E-02  0.1146287E+00
         21   -1    0    0  501  502  0.00000000000E+00  0.00000000000E+00  0.10942121745E+04  0.10942121745E+04  0.00000000000E+00 0.  1.
         21   -1    0    0  502  503 -0.00000000000E+00 -0.00000000000E+00 -0.62440795933E+02  0.62440795933E+02  0.00000000000E+00 0. -1.
          6    1    1    2  501    0 -0.10765741697E+03  0.22398829967E+02  0.87706059669E+03  0.90050603400E+03  0.17200000000E+03 0.  1.
         -6    1    1    2    0  503  0.10765741697E+03 -0.22398829967E+02  0.15471078188E+03  0.25614693643E+03  0.17200000000E+03 0. -1.
</event>
<event>
 4    1  0.5714562E+000  0.2080510E+03  0.7818608E-02  0.1143119E+00
         21   -1    0    0  503  502  0.00000000000E+00  0.00000000000E+00  0.20060937669E+04  0.20060937669E+04  0.00000000000E+00 0.  1.
         21   -1    0    0  501  503 -0.00000000000E+00 -0.00000000000E+00 -0.27227511036E+02  0.27227511036E+02  0.00000000000E+00 0.  1.
          6    1    1    2  501    0 -0.25716568279E+02  0.11419231089E+03  0.52628397687E+03  0.56591523222E+03  0.17200000000E+03 0.  1.
         -6    1    1    2    0  502  0.25716568279E+02 -0.11419231089E+03  0.14525822790E+04  0.14674060457E+04  0.17200000000E+03 0.  1.
</event>
<event>
 4    1  0.5714562E+000  0.2972880E+03  0.7818608E-02  0.1086604E+00
         21   -1    0    0  503  502  0.00000000000E+00  0.00000000000E+00  0.86471006384E+03  0.86471006384E+03  0.00000000000E+00 0.  1.
         21   -1    0    0  501  503 -0.00000000000E+00 -0.00000000000E+00 -0.11501860346E+03  0.11501860346E+03  0.00000000000E+00 0. -1.
          6    1    1    2  501    0 -0.21544528282E+03  0.11126312046E+03  0.53833121618E+03  0.61496394217E+03  0.17200000000E+03 0.  1.
         -6    1    1    2    0  502  0.21544528282E+03 -0.11126312046E+03  0.21136024420E+03  0.36476472512E+03  0.17200000000E+03 0. -1.
</event>
<event>
 4    1  0.5714562E+000  0.2291050E+03  0.7818608E-02  0.1127271E+00
         21   -1    0    0  501  502  0.00000000000E+00  0.00000000000E+00  0.23332790428E+03  0.23332790428E+03  0.00000000000E+00 0. -1.
         21   -1    0    0  502  503 -0.00000000000E+00 -0.00000000000E+00 -0.55968328301E+03  0.55968328301E+03  0.00000000000E+00 0. -1.
          6    1    1    2  501    0  0.14626321951E+03  0.38886911413E+02  0.14345751428E+03  0.27031311412E+03  0.17200000000E+03 0. -1.
         -6    1    1    2    0  503 -0.14626321951E+03 -0.38886911413E+02 -0.46981289301E+03  0.52269807317E+03  0.17200000000E+03 0. -1.
</event>
<event>
 4    1  0.5714562E+000  0.1898507E+03  0.7818608E-02  0.1158596E+00
         21   -1    0    0  501  502  0.00000000000E+00  0.00000000000E+00  0.66826917865E+02  0.66826917865E+02  0.00000000000E+00 0.  1.
         21   -1    0    0  502  503 -0.00000000000E+00 -0.00000000000E+00 -0.67210524887E+03  0.67210524887E+03  0.00000000000E+00 0.  1.
          6    1    1    2  501    0  0.70347793747E+02 -0.38864955087E+02 -0.13843774078E+03  0.23496447581E+03  0.17200000000E+03 0.  1.
         -6    1    1    2    0  503 -0.70347793747E+02  0.38864955087E+02 -0.46684059022E+03  0.50396769093E+03  0.17200000000E+03 0.  1.
</event>
<event>
 4    1  0.5714562E+000  0.3085200E+03  0.7818608E-02  0.1081057E+00
         21   -1    0    0  503  502  0.00000000000E+00  0.00000000000E+00  0.21651754647E+03  0.21651754647E+03  0.00000000000E+00 0.  1.
         21   -1    0    0  501  503 -0.00000000000E+00 -0.00000000000E+00 -0.46131230926E+03  0.46131230926E+03  0.00000000000E+00 0. -1.
          6    1    1    2  501    0 -0.24653418215E+03  0.69436783830E+02 -0.19589723402E+03  0.36545902125E+03  0.17200000000E+03 0. -1.
         -6    1    1    2    0  502  0.24653418215E+03 -0.69436783830E+02 -0.48897528765E+02  0.31237083448E+03  0.17200000000E+03 0.  1.
</event>
<event>
 4    1  0.5714562E+000  0.2275994E+03  0.7818608E-02  0.1128341E+00
         21   -1    0    0  503  502  0.00000000000E+00  0.00000000000E+00  0.40240667485E+03  0.40240667485E+03  0.00000000000E+00 0.  1.
         21   -1    0    0  501  503 -0.00000000000E+00 -0.00000000000E+00 -0.13187388253E+03  0.13187388253E+03  0.00000000000E+00 0. -1.
          6    1    1    2  501    0 -0.10742903399E+03  0.10332704969E+03  0.17651892501E+03  0.28802848371E+03  0.17200000000E+03 0. -1.
         -6    1    1    2    0  502  0.10742903399E+03 -0.10332704969E+03  0.94013867303E+02  0.24625207367E+03  0.17200000000E+03 0. -1.
</event>
<event>
 4    1  0.5714562E+000  0.1985205E+03  0.7818608E-02  0.1150993E+00
         21   -1    0    0  501  502  0.00000000000E+00  0.00000000000E+00  0.12085863769E+03  0.12085863769E+03  0.00000000000E+00 0. -1.
         21   -1    0    0  502  503 -0.00000000000E+00 -0.00000000000E+00 -0.34332017818E+03  0.34332017818E+03  0.00000000000E+00 0. -1.
          6    1    1    2  501    0 -0.67846305960E+01 -0.98895665600E+02 -0.59231983075E+02  0.20716855868E+03  0.17200000000E+03 0. -1.
         -6    1    1    2    0  503  0.67846305960E+01  0.98895665600E+02 -0.16322955742E+03  0.25701025719E+03  0.17200000000E+03 0. -1.
</event>
<event>
 4    1  0.5714562E+000  0.2071301E+03  0.7818608E-02  0.1143859E+00
         21   -1    0    0  503  502  0.00000000000E+00  0.00000000000E+00  0.17462071501E+03  0.17462071501E+03  0.00000000000E+00 0.  1.
         21   -1    0    0  501  503 -0.00000000000E+00 -0.00000000000E+00 -0.24831493008E+03  0.24831493008E+03  0.00000000000E+00 0. -1.
          6    1    1    2  501    0 -0.34237666987E+02 -0.11021194864E+03 -0.58581440038E+02  0.21525491070E+03  0.17200000000E+03 0.  1.
         -6    1    1    2    0  502  0.34237666987E+02  0.11021194864E+03 -0.15112775035E+02  0.20768073438E+03  0.17200000000E+03 0. -1.
</event>
<event>
 4    1  0.5714562E+000  0.1880803E+03  0.7818608E-02  0.1160204E+00
         21   -1    0    0  503  502  0.00000000000E+00  0.00000000000E+00  0.75614670240E+03  0.75614670240E+03  0.00000000000E+00 0.  1.
         21   -1    0    0  501  503 -0.00000000000E+00 -0.00000000000E+00 -0.72418205667E+02  0.72418205667E+02  0.00000000000E+00 0.  1.
          6    1    1    2  501    0 -0.44496147435E+02  0.61727514704E+02  0.95374996955E+02  0.21088049519E+03  0.17200000000E+03 0.  1.
         -6    1    1    2    0  502  0.44496147435E+02 -0.61727514704E+02  0.58835349977E+03  0.61768441287E+03  0.17200000000E+03 0.  1.
</event>
<event>
 4    1  0.5714562E+000  0.1759559E+03  0.7818608E-02  0.1171775E+00
         21   -1    0    0  501  502  0.00000000000E+00  0.00000000000E+00  0.55731234922E+03  0.55731234922E+03  0.00000000000E+00 0. -1.
         21   -1    0    0  502  503 -0.00000000000E+00 -0.00000000000E+00 -0.55713175346E+02  0.55713175346E+02  0.00000000000E+00 0. -1.
          6    1    1    2  501    0  0.21704627007E+02  0.30089699666E+02  0.26722456340E+03  0.31995225916E+03  0.17200000000E+03 0.  1.
         -6    1    1    2    0  503 -0.21704627007E+02 -0.30089699666E+02  0.23437461048E+03  0.29307326541E+03  0.17200000000E+03 0.  1.
</event>
<event>
 4    1  0.5714562E+000  0.1804242E+03  0.7818608E-02  0.1167393E+00
         21   -1    0    0  501  502  0.00000000000E+00  0.00000000000E+00  0.61315379749E+03  0.61315379749E+03  0.00000000000E+00 0. -1.
         21   -1    0    0  502  503 -0.00000000000E+00 -0.00000000000E+00 -0.63586336203E+02  0.63586336203E+02  0.00000000000E+00 0. -1.
          6    1    1    2  501    0  0.34389623705E+02 -0.42263918784E+02  0.41225449480E+03  0.45000739275E+03  0.17200000000E+03 0. -1.
         -6    1    1    2    0  503 -0.34389623705E+02  0.42263918784E+02  0.13731296649E+03  0.22673274094E+03  0.17200000000E+03 0. -1.
</event>
<event>
 4    1  0.5714562E+000  0.1930258E+03  0.7818608E-02  0.1155760E+00
         21   -1    0    0  501  502  0.00000000000E+00  0.00000000000E+00  0.10587929143E+03  0.10587929143E+03  0.00000000000E+00 0. -1.
         21   -1    0    0  502  503 -0.00000000000E+00 -0.00000000000E+00 -0.37377718528E+03  0.37377718528E+03  0.00000000000E+00 0. -1.
          6    1    1    2  501    0 -0.20706438953E+02  0.85124646484E+02 -0.75927847806E+02  0.20742227490E+03  0.17200000000E+03 0.  1.
         -6    1    1    2    0  503  0.20706438953E+02 -0.85124646484E+02 -0.19197004604E+03  0.27223420180E+03  0.17200000000E+03 0.  1.
</event>
<event>
 4    1  0.5714562E+000  0.1898159E+03  0.7818608E-02  0.1158627E+00
         21   -1    0    0  501  502  0.00000000000E+00  0.00000000000E+00  0.56532163498E+02  0.56532163498E+02  0.00000000000E+00 0. -1.
         21   -1    0    0  502  503 -0.00000000000E+00 -0.00000000000E+00 -0.80193611385E+03  0.80193611385E+03  0.00000000000E+00 0. -1.
          6    1    1    2  501    0 -0.77970344354E+02 -0.19149559640E+02 -0.17823889272E+03  0.26038276270E+03  0.17200000000E+03 0. -1.
         -6    1    1    2    0  503  0.77970344354E+02  0.19149559640E+02 -0.56716505764E+03  0.59808551465E+03  0.17200000000E+03 0. -1.
</event>
<event>
 4    1  0.5714562E+000  0.1898171E+03  0.7818608E-02  0.1158626E+00
         21   -1    0    0  503  502  0.00000000000E+00  0.00000000000E+00  0.90723974087E+02  0.90723974087E+02  0.00000000000E+00 0. -1.
         21   -1    0    0  501  503 -0.00000000000E+00 -0.00000000000E+00 -0.42056222744E+03  0.42056222744E+03  0.00000000000E+00 0.  1.
          6    1    1    2  501    0  0.76984383584E+02  0.22802145375E+02 -0.22524320885E+03  0.29455905398E+03  0.17200000000E+03 0. -1.
         -6    1    1    2    0  502 -0.76984383584E+02 -0.22802145375E+02 -0.10459504451E+03  0.21672714755E+03  0.17200000000E+03 0. -1.
</event>
<event>
 4    1  0.5714562E+000  0.2034563E+03  0.7818608E-02  0.1146855E+00
         21   -1    0    0  501  502  0.00000000000E+00  0.00000000000E+00  0.30736104953E+02  0.30736104953E+02  0.00000000000E+00 0.  1.
         21   -1    0    0  502  503 -0.00000000000E+00 -0.00000000000E+00 -0.14448629552E+04  0.14448629552E+04  0.00000000000E+00 0. -1.
          6    1    1    2  501    0 -0.27501954532E+02  0.10513849089E+03 -0.51482320068E+03  0.55356787093E+03  0.17200000000E+03 0. -1.
         -6    1    1    2    0  503  0.27501954532E+02 -0.10513849089E+03 -0.89930364952E+03  0.92203118918E+03  0.17200000000E+03 0. -1.
</event>
<event>
 4    1  0.5714562E+000  0.1989275E+03  0.7818608E-02  0.1150647E+00
         21   -1    0    0  501  502  0.00000000000E+00  0.00000000000E+00  0.66624761362E+03  0.66624761362E+03  0.00000000000E+00 0.  1.
         21   -1    0    0  502  503 -0.00000000000E+00 -0.00000000000E+00 -0.14610852266E+03  0.14610852266E+03  0.00000000000E+00 0.  1.
          6    1    1    2  501    0 -0.42277432339E+02 -0.90558047171E+02  0.57298048084E+03  0.60653010858E+03  0.17200000000E+03 0.  1.
         -6    1    1    2    0  503  0.42277432339E+02  0.90558047171E+02 -0.52841389883E+02  0.20582602770E+03  0.17200000000E+03 0.  1.
</event>
<event>
 4    1  0.5714562E+000  0.1918655E+03  0.7818608E-02  0.1156789E+00
         21   -1    0    0  501  502  0.00000000000E+00  0.00000000000E+00  0.15619870797E+03  0.15619870797E+03  0.00000000000E+00 0.  1.
         21   -1    0    0  502  503 -0.00000000000E+00 -0.00000000000E+00 -0.26572697239E+03  0.26572697239E+03  0.00000000000E+00 0.  1.
          6    1    1    2  501    0  0.56369063218E+02  0.63646601142E+02  0.16179589147E+02  0.19254646252E+03  0.17200000000E+03 0.  1.
         -6    1    1    2    0  503 -0.56369063218E+02 -0.63646601142E+02 -0.12570785357E+03  0.22937921783E+03  0.17200000000E+03 0.  1.
</event>
<event>
 4    1  0.5714562E+000  0.1785416E+03  0.7818608E-02  0.1169222E+00
         21   -1    0    0  503  502  0.00000000000E+00  0.00000000000E+00  0.12606795647E+04  0.12606795647E+04  0.00000000000E+00 0. -1.
         21   -1    0    0  501  503 -0.00000000000E+00 -0.00000000000E+00 -0.25573970447E+02  0.25573970447E+02  0.00000000000E+00 0. -1.
          6    1    1    2  501    0 -0.41365380853E+02 -0.24125103937E+02  0.54926747247E+03  0.57755681252E+03  0.17200000000E+03 0.  1.
         -6    1    1    2    0  502  0.41365380853E+02  0.24125103937E+02  0.68583812179E+03  0.70869672264E+03  0.17200000000E+03 0.  1.
</event>
<event>
 4    1  0.5714562E+000  0.1754379E+03  0.7818608E-02  0.1172293E+00
         21   -1    0    0  503  502  0.00000000000E+00  0.00000000000E+00  0.76722504013E+03  0.76722504013E+03  0.00000000000E+00 0. -1.
         21   -1    0    0  501  503 -0.00000000000E+00 -0.00000000000E+00 -0.40194359574E+02  0.40194359574E+02  0.00000000000E+00 0. -1.
          6    1    1    2  501    0  0.14239199566E+02 -0.31491530263E+02  0.34576025934E+03  0.38772235971E+03  0.17200000000E+03 0. -1.
         -6    1    1    2    0  502 -0.14239199566E+02  0.31491530263E+02  0.38127042123E+03  0.41969704000E+03  0.17200000000E+03 0. -1.
</event>
<event>
 4    1  0.5714562E+000  0.3223930E+03  0.7818608E-02  0.1074553E+00
         21   -1    0    0  501  502  0.00000000000E+00  0.00000000000E+00  0.22668371339E+03  0.22668371339E+03  0.00000000000E+00 0. -1.
         21   -1    0    0  502  503 -0.00000000000E+00 -0.00000000000E+00 -0.66553721832E+03  0.66553721832E+03  0.00000000000E+00 0.  1.
          6    1    1    2  501    0  0.22793178260E+03 -0.14966747872E+03  0.29383136675E+02  0.32372923938E+03  0.17200000000E+03 0. -1.
         -6    1    1    2    0  503 -0.22793178260E+03  0.14966747872E+03 -0.46823664160E+03  0.56849169233E+03  0.17200000000E+03 0.  1.
</event>
<event>
 4    1  0.5714562E+000  0.1932833E+03  0.7818608E-02  0.1155533E+00
         21   -1    0    0  501  502  0.00000000000E+00  0.00000000000E+00  0.30834309439E+03  0.30834309439E+03  0.00000000000E+00 0.  1.
         21   -1    0    0  502  503 -0.00000000000E+00 -0.00000000000E+00 -0.14249582467E+03  0.14249582467E+03  0.00000000000E+00 0.  1.
          6    1    1    2  501    0  0.43237251256E+02 -0.76843893129E+02  0.17015214120E+03  0.25750766001E+03  0.17200000000E+03 0.  1.
         -6    1    1    2    0  503 -0.43237251256E+02  0.76843893129E+02 -0.43048714845E+01  0.19333125905E+03  0.17200000000E+03 0.  1.
</event>
<event>
 4    1  0.5714562E+000  0.3072381E+03  0.7818608E-02  0.1081677E+00
         21   -1    0    0  503  502  0.00000000000E+00  0.00000000000E+00  0.84409966358E+03  0.84409966358E+03  0.00000000000E+00 0.  1.
         21   -1    0    0  501  503 -0.00000000000E+00 -0.00000000000E+00 -0.11668954789E+03  0.11668954789E+03  0.00000000000E+00 0. -1.
          6    1    1    2  501    0  0.19745278743E+03 -0.16069732235E+03  0.26566513026E+03  0.40616892312E+03  0.17200000000E+03 0.  1.
         -6    1    1    2    0  502 -0.19745278743E+03  0.16069732235E+03  0.46174498543E+03  0.55462028834E+03  0.17200000000E+03 0. -1.
</event>
<event>
 4    1  0.5714562E+000  0.2701260E+03  0.7818608E-02  0.1101208E+00
         21   -1    0    0  501  502  0.00000000000E+00  0.00000000000E+00  0.13169312695E+03  0.13169312695E+03  0.00000000000E+00 0.  1.
         21   -1    0    0  502  503 -0.00000000000E+00 -0.00000000000E+00 -0.11535858997E+04  0.11535858997E+04  0.00000000000E+00 0.  1.
          6    1    1    2  501    0  0.10974171962E+03 -0.17703338997E+03 -0.47669689150E+02  0.27429995525E+03  0.17200000000E+03 0.  1.
         -6    1    1    2    0  503 -0.10974171962E+03  0.17703338997E+03 -0.97422308360E+03  0.10109790714E+04  0.17200000000E+03 0.  1.
</event>
<event>
 4    1  0.5714562E+000  0.1994842E+03  0.7818608E-02  0.1150175E+00
         21   -1    0    0  501  502  0.00000000000E+00  0.00000000000E+00  0.39785896459E+02  0.39785896459E+02  0.00000000000E+00 0. -1.
         21   -1    0    0  502  503 -0.00000000000E+00 -0.00000000000E+00 -0.12259800622E+04  0.12259800622E+04  0.00000000000E+00 0. -1.
          6    1    1    2  501    0 -0.38395277254E+02  0.93465134474E+02 -0.32150150625E+03  0.37836113331E+03  0.17200000000E+03 0. -1.
         -6    1    1    2    0  503  0.38395277254E+02 -0.93465134474E+02 -0.86469265947E+03  0.88740482533E+03  0.17200000000E+03 0. -1.
</event>
<event>
 4    1  0.5714562E+000  0.2287786E+03  0.7818608E-02  0.1127502E+00
         21   -1    0    0  501  502  0.00000000000E+00  0.00000000000E+00  0.44519304365E+03  0.44519304365E+03  0.00000000000E+00 0. -1.
         21   -1    0    0  502  503 -0.00000000000E+00 -0.00000000000E+00 -0.23165551092E+03  0.23165551092E+03  0.00000000000E+00 0. -1.
          6    1    1    2  501    0  0.33969689018E+02  0.14697514843E+03  0.34426829811E+03  0.41335250708E+03  0.17200000000E+03 0. -1.
         -6    1    1    2    0  503 -0.33969689018E+02 -0.14697514843E+03 -0.13073076538E+03  0.26349604749E+03  0.17200000000E+03 0. -1.
</event>
<event>
 4    1  0.5714562E+000  0.1775386E+03  0.7818608E-02  0.1170207E+00
         21   -1    0    0  501  502  0.00000000000E+00  0.00000000000E+00  0.52479534903E+02  0.52479534903E+02  0.00000000000E+00 0. -1.
         21   -1    0    0  502  503 -0.00000000000E+00 -0.00000000000E+00 -0.15533836993E+04  0.15533836993E+04  0.00000000000E+00 0. -1.
          6    1    1    2  501    0 -0.20496765510E+02 -0.38933784582E+02 -0.12162230742E+03  0.21520209720E+03  0.17200000000E+03 0. -1.
         -6    1    1    2    0  503  0.20496765510E+02  0.38933784582E+02 -0.13792818570E+04  0.13906611370E+04  0.17200000000E+03 0. -1.
</event>
<event>
 4    1  0.5714562E+000  0.3321330E+03  0.7818608E-02  0.1070197E+00
         21   -1    0    0  503  502  0.00000000000E+00  0.00000000000E+00  0.35852774830E+03  0.35852774830E+03  0.00000000000E+00 0. -1.
         21   -1    0    0  501  503 -0.00000000000E+00 -0.00000000000E+00 -0.47782035394E+03  0.47782035394E+03  0.00000000000E+00 0. -1.
          6    1    1    2  501    0 -0.13663276007E+03 -0.24911803844E+03 -0.30917854949E+03  0.45376611119E+03  0.17200000000E+03 0. -1.
         -6    1    1    2    0  502  0.13663276007E+03  0.24911803844E+03  0.18988594386E+03  0.38258199105E+03  0.17200000000E+03 0. -1.
</event>
<event>
 4    1  0.5714562E+000  0.2331307E+03  0.7818608E-02  0.1124455E+00
         21   -1    0    0  503  502  0.00000000000E+00  0.00000000000E+00  0.36345860521E+03  0.36345860521E+03  0.00000000000E+00 0.  1.
         21   -1    0    0  501  503 -0.00000000000E+00 -0.00000000000E+00 -0.15602672439E+03  0.15602672439E+03  0.00000000000E+00 0.  1.
          6    1    1    2  501    0  0.44514945510E+02  0.15094482242E+03  0.50736032330E+02  0.23858764588E+03  0.17200000000E+03 0.  1.
         -6    1    1    2    0  502 -0.44514945510E+02 -0.15094482242E+03  0.15669584849E+03  0.28089768373E+03  0.17200000000E+03 0.  1.
</event>
<event>
 4    1  0.5714562E+000  0.2289605E+03  0.7818608E-02  0.1127374E+00
         21   -1    0    0  503  502  0.00000000000E+00  0.00000000000E+00  0.24417227478E+03  0.24417227478E+03  0.00000000000E+00 0. -1.
         21   -1    0    0  501  503 -0.00000000000E+00 -0.00000000000E+00 -0.27324810374E+03  0.27324810374E+03  0.00000000000E+00 0.  1.
          6    1    1    2  501    0 -0.13271395355E+03  0.72290412995E+02 -0.13429601311E+03  0.26543985461E+03  0.17200000000E+03 0.  1.
         -6    1    1    2    0  502  0.13271395355E+03 -0.72290412995E+02  0.10522018414E+03  0.25198052391E+03  0.17200000000E+03 0. -1.
</event>
<event>
 4    1  0.5714562E+000  0.2247271E+03  0.7818608E-02  0.1130407E+00
         21   -1    0    0  501  502  0.00000000000E+00  0.00000000000E+00  0.92289825708E+03  0.92289825708E+03  0.00000000000E+00 0. -1.
         21   -1    0    0  502  503 -0.00000000000E+00 -0.00000000000E+00 -0.10946178399E+03  0.10946178399E+03  0.00000000000E+00 0. -1.
          6    1    1    2  501    0 -0.11005065975E+03  0.93846190887E+02  0.77174438488E+03  0.80379826502E+03  0.17200000000E+03 0. -1.
         -6    1    1    2    0  503  0.11005065975E+03 -0.93846190887E+02  0.41692088215E+02  0.22856177606E+03  0.17200000000E+03 0. -1.
</event>
<event>
 4    1  0.5714562E+000  0.1758808E+03  0.7818608E-02  0.1171850E+00
         21   -1    0    0  503  502  0.00000000000E+00  0.00000000000E+00  0.28010788981E+04  0.28010788981E+04  0.00000000000E+00 0. -1.
         21   -1    0    0  501  503 -0.00000000000E+00 -0.00000000000E+00 -0.15501798544E+02  0.15501798544E+02  0.00000000000E+00 0. -1.
          6    1    1    2  501    0  0.31663682147E+02  0.18640823437E+02  0.63755796036E+03  0.66137298242E+03  0.17200000000E+03 0. -1.
         -6    1    1    2    0  502 -0.31663682147E+02 -0.18640823437E+02  0.21480191392E+04  0.21552077142E+04  0.17200000000E+03 0. -1.
</event>
<event>
 4    1  0.5714562E+000  0.2362882E+03  0.7818608E-02  0.1122291E+00
         21   -1    0    0  501  502  0.00000000000E+00  0.00000000000E+00  0.30642933689E+03  0.30642933689E+03  0.00000000000E+00 0.  1.
         21   -1    0    0  502  503 -0.00000000000E+00 -0.00000000000E+00 -0.23054957191E+03  0.23054957191E+03  0.00000000000E+00 0. -1.
          6    1    1    2  501    0 -0.21565730767E+02 -0.16057094032E+03  0.16089069030E+03  0.28586346714E+03  0.17200000000E+03 0.  1.
         -6    1    1    2    0  503  0.21565730767E+02  0.16057094032E+03 -0.85010925326E+02  0.25111544167E+03  0.17200000000E+03 0. -1.
</event>
<event>
 4    1  0.5714562E+000  0.1723305E+03  0.7818608E-02  0.1175439E+00
         21   -1    0    0  503  502  0.00000000000E+00  0.00000000000E+00  0.20710839919E+03  0.20710839919E+03  0.00000000000E+00 0.  1.
         21   -1    0    0  501  503 -0.00000000000E+00 -0.00000000000E+00 -0.25749033186E+03  0.25749033186E+03  0.00000000000E+00 0.  1.
          6    1    1    2  501    0  0.10630646052E+02  0.89703757627E+00 -0.17982533795E+03  0.24906819845E+03  0.17200000000E+03 0.  1.
         -6    1    1    2    0  502 -0.10630646052E+02 -0.89703757627E+00  0.12944340528E+03  0.21553053260E+03  0.17200000000E+03 0.  1.
</event>
<event>
 4    1  0.5714562E+000  0.1788176E+03  0.7818608E-02  0.1168952E+00
         21   -1    0    0  503  502  0.00000000000E+00  0.00000000000E+00  0.40038122957E+03  0.40038122957E+03  0.00000000000E+00 0.  1.
         21   -1    0    0  501  503 -0.00000000000E+00 -0.00000000000E+00 -0.16593331085E+03  0.16593331085E+03  0.00000000000E+00 0. -1.
          6    1    1    2  501    0 -0.48771818030E+02  0.36112868399E+01 -0.86708837056E+02  0.19873136152E+03  0.17200000000E+03 0. -1.
         -6    1    1    2    0  502  0.48771818030E+02 -0.36112868399E+01  0.32115675578E+03  0.36758317890E+03  0.17200000000E+03 0.  1.
</event>
<event>
 4    1  0.5714562E+000  0.2608383E+03  0.7818608E-02  0.1106641E+00
         21   -1    0    0  503  502  0.00000000000E+00  0.00000000000E+00  0.74254753525E+03  0.74254753525E+03  0.00000000000E+00 0.  1.
         21   -1    0    0  501  503 -0.00000000000E+00 -0.00000000000E+00 -0.92633394068E+02  0.92633394068E+02  0.00000000000E+00 0.  1.
          6    1    1    2  501    0  0.12788676180E+03  0.14865256671E+03  0.36850638203E+03  0.45147930521E+03  0.17200000000E+03 0.  1.
         -6    1    1    2    0  502 -0.12788676180E+03 -0.14865256671E+03  0.28140775915E+03  0.38370162411E+03  0.17200000000E+03 0.  1.
</event>
<event>
 4    1  0.5714562E+000  0.2024693E+03  0.7818608E-02  0.1147672E+00
         21   -1    0    0  501  502  0.00000000000E+00  0.00000000000E+00  0.78174199607E+02  0.78174199607E+02  0.00000000000E+00 0. -1.
         21   -1    0    0  502  503 -0.00000000000E+00 -0.00000000000E+00 -0.52938056119E+03  0.52938056119E+03  0.00000000000E+00 0. -1.
          6    1    1    2  501    0  0.85997490904E+02  0.63357999344E+02 -0.25509666608E+03  0.32568099970E+03  0.17200000000E+03 0. -1.
         -6    1    1    2    0  503 -0.85997490904E+02 -0.63357999344E+02 -0.19610969550E+03  0.28187376109E+03  0.17200000000E+03 0. -1.
</event>
<event>
 4    1  0.5714562E+000  0.1750574E+03  0.7818608E-02  0.1172674E+00
         21   -1    0    0  503  502  0.00000000000E+00  0.00000000000E+00  0.10454845688E+04  0.10454845688E+04  0.00000000000E+00 0.  1.
         21   -1    0    0  501  503 -0.00000000000E+00 -0.00000000000E+00 -0.29649417999E+02  0.29649417999E+02  0.00000000000E+00 0.  1.
          6    1    1    2  501    0  0.28099335526E+02 -0.16478026311E+02  0.45055900970E+03  0.48337202983E+03  0.17200000000E+03 0. -1.
         -6    1    1    2    0  502 -0.28099335526E+02  0.16478026311E+02  0.56527614112E+03  0.59176195698E+03  0.17200000000E+03 0. -1.
</event>
<event>
 4    1  0.5714562E+000  0.2394744E+03  0.7818608E-02  0.1120143E+00
         21   -1    0    0  501  502  0.00000000000E+00  0.00000000000E+00  0.29083121216E+03  0.29083121216E+03  0.00000000000E+00 0. -1.
         21   -1    0    0  502  503 -0.00000000000E+00 -0.00000000000E+00 -0.27462230745E+03  0.27462230745E+03  0.00000000000E+00 0.  1.
          6    1    1    2  501    0  0.15270138568E+03  0.66680519084E+02  0.15823524287E+03  0.28703030659E+03  0.17200000000E+03 0. -1.
         -6    1    1    2    0  503 -0.15270138568E+03 -0.66680519084E+02 -0.14202633816E+03  0.27842321302E+03  0.17200000000E+03 0.  1.
</event>
<event>
 4    1  0.5714562E+000  0.2190428E+03  0.7818608E-02  0.1134599E+00
         21   -1    0    0  501  502  0.00000000000E+00  0.00000000000E+00  0.19972927285E+03  0.19972927285E+03  0.00000000000E+00 0.  1.
         21   -1    0    0  502  503 -0.00000000000E+00 -0.00000000000E+00 -0.76315330665E+03  0.76315330665E+03  0.00000000000E+00 0.  1.
          6    1    1    2  501    0  0.19317687023E+02 -0.13424822588E+03  0.11681607637E+03  0.24824535219E+03  0.17200000000E+03 0.  1.
         -6    1    1    2    0  503 -0.19317687023E+02  0.13424822588E+03 -0.68024011017E+03  0.71463722732E+03  0.17200000000E+03 0.  1.
</event>
<event>
 4    1  0.5714562E+000  0.2069599E+03  0.7818608E-02  0.1143996E+00
         21   -1    0    0  503  502  0.00000000000E+00  0.00000000000E+00  0.67740416194E+02  0.67740416194E+02  0.00000000000E+00 0.  1.
         21   -1    0    0  501  503 -0.00000000000E+00 -0.00000000000E+00 -0.84789832357E+03  0.84789832357E+03  0.00000000000E+00 0.  1.
          6    1    1    2  501    0  0.10725215385E+03  0.41777844593E+02 -0.62093580586E+03  0.65451790487E+03  0.17200000000E+03 0.  1.
         -6    1    1    2    0  502 -0.10725215385E+03 -0.41777844593E+02 -0.15922210152E+03  0.26112083490E+03  0.17200000000E+03 0.  1.
</event>
<event>
 4    1  0.5714562E+000  0.2001415E+03  0.7818608E-02  0.1149620E+00
         21   -1    0    0  501  502  0.00000000000E+00  0.00000000000E+00  0.24872646467E+03  0.24872646467E+03  0.00000000000E+00 0. -1.
         21   -1    0    0  502  503 -0.00000000000E+00 -0.00000000000E+00 -0.16955997572E+03  0.16955997572E+03  0.00000000000E+00 0. -1.
          6    1    1    2  501    0  0.10067011229E+03  0.18388428911E+02  0.86445959185E+02  0.21801263653E+03  0.17200000000E+03 0. -1.
         -6    1    1    2    0  503 -0.10067011229E+03 -0.18388428911E+02 -0.72794702415E+01  0.20027380386E+03  0.17200000000E+03 0. -1.
</event>
<event>
 4    1  0.5714562E+000  0.1753243E+03  0.7818608E-02  0.1172406E+00
         21   -1    0    0  503  502  0.00000000000E+00  0.00000000000E+00  0.18046689905E+03  0.18046689905E+03  0.00000000000E+00 0. -1.
         21   -1    0    0  501  503 -0.00000000000E+00 -0.00000000000E+00 -0.46684497646E+03  0.46684497646E+03  0.00000000000E+00 0. -1.
          6    1    1    2  501    0  0.32151504181E+02  0.10995145445E+02 -0.40113089858E+03  0.43777232695E+03  0.17200000000E+03 0. -1.
         -6    1    1    2    0  502 -0.32151504181E+02 -0.10995145445E+02  0.11475282117E+03  0.20953954856E+03  0.17200000000E+03 0. -1.
</event>
<event>
 4    1  0.5714562E+000  0.2211045E+03  0.7818608E-02  0.1133062E+00
         21   -1    0    0  503  502  0.00000000000E+00  0.00000000000E+00  0.11201656321E+04  0.11201656321E+04  0.00000000000E+00 0.  1.
         21   -1    0    0  501  503 -0.00000000000E+00 -0.00000000000E+00 -0.48810561802E+03  0.48810561802E+03  0.00000000000E+00 0. -1.
          6    1    1    2  501    0  0.38479659362E+02  0.13350105978E+03  0.10833739944E+04  0.11057063032E+04  0.17200000000E+03 0.  1.
         -6    1    1    2    0  502 -0.38479659362E+02 -0.13350105978E+03 -0.45131398028E+03  0.50256494699E+03  0.17200000000E+03 0. -1.
</event>
<event>
 4    1  0.5714562E+000  0.1936377E+03  0.7818608E-02  0.1155221E+00
         21   -1    0    0  503  502  0.00000000000E+00  0.00000000000E+00  0.25173891201E+03  0.25173891201E+03  0.00000000000E+00 0. -1.
         21   -1    0    0  501  503 -0.00000000000E+00 -0.00000000000E+00 -0.15762706424E+03  0.15762706424E+03  0.00000000000E+00 0. -1.
          6    1    1    2  501    0 -0.67419366244E+02 -0.58018721346E+02  0.95089947416E+02  0.21572584702E+03  0.17200000000E+03 0. -1.
         -6    1    1    2    0  502  0.67419366244E+02  0.58018721346E+02 -0.97809964917E+00  0.19364012924E+03  0.17200000000E+03 0. -1.
</event>
<event>
 4    1  0.5714562E+000  0.2364572E+03  0.7818608E-02  0.1122176E+00
         21   -1    0    0  501  502  0.00000000000E+00  0.00000000000E+00  0.59286363124E+02  0.59286363124E+02  0.00000000000E+00 0.  1.
         21   -1    0    0  502  503 -0.00000000000E+00 -0.00000000000E+00 -0.94983224178E+03  0.94983224178E+03  0.00000000000E+00 0.  1.
          6    1    1    2  501    0  0.15956774343E+03  0.29429977226E+02 -0.40274233586E+03  0.46702609927E+03  0.17200000000E+03 0.  1.
         -6    1    1    2    0  503 -0.15956774343E+03 -0.29429977226E+02 -0.48780354280E+03  0.54209250564E+03  0.17200000000E+03 0.  1.
</event>
<event>
 4    1  0.5714562E+000  0.2313877E+03  0.7818608E-02  0.1125667E+00
         21   -1    0    0  501  502  0.00000000000E+00  0.00000000000E+00  0.81206640381E+03  0.81206640381E+03  0.00000000000E+00 0. -1.
         21   -1    0    0  502  503 -0.00000000000E+00 -0.00000000000E+00 -0.78132827716E+02  0.78132827716E+02  0.00000000000E+00 0.  1.
          6    1    1    2  501    0  0.53418800707E+02 -0.14526761090E+03  0.54286245876E+03  0.59011854417E+03  0.17200000000E+03 0.  1.
         -6    1    1    2    0  503 -0.53418800707E+02  0.14526761090E+03  0.19107111734E+03  0.30008068736E+03  0.17200000000E+03 0.  1.
</event>
<event>
 4    1  0.5714562E+000  0.2502310E+03  0.7818608E-02  0.1113159E+00
         21   -1    0    0  503  502  0.00000000000E+00  0.00000000000E+00  0.17199007159E+03  0.17199007159E+03  0.00000000000E+00 0. -1.
         21   -1    0    0  501  503 -0.00000000000E+00 -0.00000000000E+00 -0.37409915146E+03  0.37409915146E+03  0.00000000000E+00 0. -1.
          6    1    1    2  501    0 -0.37050653816E+00  0.18174542260E+03 -0.56336342718E+02  0.25649428731E+03  0.17200000000E+03 0. -1.
         -6    1    1    2    0  502  0.37050653816E+00 -0.18174542260E+03 -0.14577273715E+03  0.28959493574E+03  0.17200000000E+03 0. -1.
</event>
<event>
 4    1  0.5714562E+000  0.1752757E+03  0.7818608E-02  0.1172455E+00
         21   -1    0    0  503  502  0.00000000000E+00  0.00000000000E+00  0.16040919856E+03  0.16040919856E+03  0.00000000000E+00 0.  1.
         21   -1    0    0  501  503 -0.00000000000E+00 -0.00000000000E+00 -0.19810291195E+03  0.19810291195E+03  0.00000000000E+00 0.  1.
          6    1    1    2  501    0  0.50351689602E+01 -0.33349994406E+02 -0.51523416636E+02  0.18269164599E+03  0.17200000000E+03 0.  1.
         -6    1    1    2    0  502 -0.50351689602E+01  0.33349994406E+02  0.13829703244E+02  0.17582046452E+03  0.17200000000E+03 0.  1.
</event>
<event>
 4    1  0.5714562E+000  0.2567429E+03  0.7818608E-02  0.1109116E+00
         21   -1    0    0  503  502  0.00000000000E+00  0.00000000000E+00  0.35214967268E+03  0.35214967268E+03  0.00000000000E+00 0.  1.
         21   -1    0    0  501  503 -0.00000000000E+00 -0.00000000000E+00 -0.22174288511E+03  0.22174288511E+03  0.00000000000E+00 0.  1.
          6    1    1    2  501    0 -0.19060980006E+03 -0.91602577520E+00 -0.48076523664E+02  0.26120545000E+03  0.17200000000E+03 0.  1.
         -6    1    1    2    0  502  0.19060980006E+03  0.91602577520E+00  0.17848331123E+03  0.31268710778E+03  0.17200000000E+03 0.  1.
</event>
<event>
 4    1  0.5714562E+000  0.1838931E+03  0.7818608E-02  0.1164088E+00
         21   -1    0    0  501  502  0.00000000000E+00  0.00000000000E+00  0.51427434997E+02  0.51427434997E+02  0.00000000000E+00 0. -1.
         21   -1    0    0  502  503 -0.00000000000E+00 -0.00000000000E+00 -0.89519049118E+03  0.89519049118E+03  0.00000000000E+00 0. -1.
          6    1    1    2  501    0 -0.82761673009E+01  0.64530327671E+02 -0.17802326413E+03  0.25594714436E+03  0.17200000000E+03 0. -1.
         -6    1    1    2    0  503  0.82761673009E+01 -0.64530327671E+02 -0.66573979206E+03  0.69067078182E+03  0.17200000000E+03 0. -1.
</event>
<event>
 4    1  0.5714562E+000  0.1854324E+03  0.7818608E-02  0.1162647E+00
         21   -1    0    0  501  502  0.00000000000E+00  0.00000000000E+00  0.72498705319E+03  0.72498705319E+03  0.00000000000E+00 0.  1.
         21   -1    0    0  502  503 -0.00000000000E+00 -0.00000000000E+00 -0.22891890368E+03  0.22891890368E+03  0.00000000000E+00 0.  1.
          6    1    1    2  501    0  0.66906709373E+02  0.18018428659E+02  0.67271364255E+03  0.69780284924E+03  0.17200000000E+03 0.  1.
         -6    1    1    2    0  503 -0.66906709373E+02 -0.18018428659E+02 -0.17664549304E+03  0.25610310764E+03  0.17200000000E+03 0.  1.
</event>
<event>
 4    1  0.5714562E+000  0.1850729E+03  0.7818608E-02  0.1162982E+00
         21   -1    0    0  503  502  0.00000000000E+00  0.00000000000E+00  0.67312061666E+03  0.67312061666E+03  0.00000000000E+00 0. -1.
         21   -1    0    0  501  503 -0.00000000000E+00 -0.00000000000E+00 -0.89730203178E+02  0.89730203178E+02  0.00000000000E+00 0. -1.
          6    1    1    2  501    0 -0.20773072597E+02 -0.65088053145E+02  0.40733729078E+02  0.18950253796E+03  0.17200000000E+03 0. -1.
         -6    1    1    2    0  502  0.20773072597E+02  0.65088053145E+02  0.54265668441E+03  0.57334828188E+03  0.17200000000E+03 0. -1.
</event>
<event>
 4    1  0.5714562E+000  0.2255491E+03  0.7818608E-02  0.1129812E+00
         21   -1    0    0  503  502  0.00000000000E+00  0.00000000000E+00  0.23197742141E+03  0.23197742141E+03  0.00000000000E+00 0.  1.
         21   -1    0    0  501  503 -0.00000000000E+00 -0.00000000000E+00 -0.25786067708E+03  0.25786067708E+03  0.00000000000E+00 0.  1.
          6    1    1    2  501    0  0.77875824274E+01  0.14569749384E+03 -0.10765432719E+03  0.24992370899E+03  0.17200000000E+03 0.  1.
         -6    1    1    2    0  502 -0.77875824274E+01 -0.14569749384E+03  0.81771071521E+02  0.23991438950E+03  0.17200000000E+03 0.  1.
</event>
<event>
 4    1  0.5714562E+000  0.2252030E+03  0.7818608E-02  0.1130062E+00
         21   -1    0    0  501  502  0.00000000000E+00  0.00000000000E+00  0.10342667131E+04  0.10342667131E+04  0.00000000000E+00 0. -1.
         21   -1    0    0  502  503 -0.00000000000E+00 -0.00000000000E+00 -0.49938802655E+02  0.49938802655E+02  0.00000000000E+00 0.  1.
          6    1    1    2  501    0 -0.14284023719E+03  0.27000828500E+02  0.41927841181E+03  0.47593147060E+03  0.17200000000E+03 0.  1.
         -6    1    1    2    0  503  0.14284023719E+03 -0.27000828500E+02  0.56504949862E+03  0.60827404514E+03  0.17200000000E+03 0. -1.
</event>
<event>
 4    1  0.5714562E+000  0.2328223E+03  0.7818608E-02  0.1124669E+00
         21   -1    0    0  501  502  0.00000000000E+00  0.00000000000E+00  0.12922409660E+04  0.12922409660E+04  0.00000000000E+00 0.  1.
         21   -1    0    0  502  503 -0.00000000000E+00 -0.00000000000E+00 -0.58785604158E+02  0.58785604158E+02  0.00000000000E+00 0. -1.
          6    1    1    2  501    0 -0.72297324948E+02  0.13926705420E+03  0.97825874511E+03  0.10055826112E+04  0.17200000000E+03 0.  1.
         -6    1    1    2    0  503  0.72297324948E+02 -0.13926705420E+03  0.25519661672E+03  0.34544395894E+03  0.17200000000E+03 0. -1.
</event>
<event>
 4    1  0.5714562E+000  0.1944277E+03  0.7818608E-02  0.1154527E+00
         21   -1    0    0  501  502  0.00000000000E+00  0.00000000000E+00  0.87651691319E+03  0.87651691319E+03  0.00000000000E+00 0.  1.
         21   -1    0    0  502  503 -0.00000000000E+00 -0.00000000000E+00 -0.48943120000E+02  0.48943120000E+02  0.00000000000E+00 0.  1.
          6    1    1    2  501    0 -0.38316218092E+02 -0.82158444191E+02  0.57329144414E+03  0.60536371088E+03  0.17200000000E+03 0.  1.
         -6    1    1    2    0  503  0.38316218092E+02  0.82158444191E+02  0.25428234904E+03  0.32009632231E+03  0.17200000000E+03 0.  1.
</event>
<event>
 4    1  0.5714562E+000  0.2414933E+03  0.7818608E-02  0.1118802E+00
         21   -1    0    0  501  502  0.00000000000E+00  0.00000000000E+00  0.56223773141E+03  0.56223773141E+03  0.00000000000E+00 0. -1.
         21   -1    0    0  502  503 -0.00000000000E+00 -0.00000000000E+00 -0.10431188098E+03  0.10431188098E+03  0.00000000000E+00 0. -1.
          6    1    1    2  501    0  0.53049700350E+02  0.16099923541E+03  0.25392651763E+03  0.35042502888E+03  0.17200000000E+03 0. -1.
         -6    1    1    2    0  503 -0.53049700350E+02 -0.16099923541E+03  0.20399933280E+03  0.31612458350E+03  0.17200000000E+03 0. -1.
</event>
<event>
 4    1  0.5714562E+000  0.2105292E+03  0.7818608E-02  0.1141148E+00
         21   -1    0    0  501  502  0.00000000000E+00  0.00000000000E+00  0.14097864373E+03  0.14097864373E+03  0.00000000000E+00 0.  1.
         21   -1    0    0  502  503 -0.00000000000E+00 -0.00000000000E+00 -0.80953004963E+03  0.80953004963E+03  0.00000000000E+00 0. -1.
          6    1    1    2  501    0 -0.92094124675E+02 -0.79102444443E+02  0.37407439848E+02  0.21382666128E+03  0.17200000000E+03 0.  1.
         -6    1    1    2    0  503  0.92094124675E+02  0.79102444443E+02 -0.70595884574E+03  0.73668203209E+03  0.17200000000E+03 0. -1.
</event>
<event>
 4    1  0.5714562E+000  0.1723846E+03  0.7818608E-02  0.1175384E+00
         21   -1    0    0  501  502  0.00000000000E+00  0.00000000000E+00  0.68473535491E+02  0.68473535491E+02  0.00000000000E+00 0.  1.
         21   -1    0    0  502  503 -0.00000000000E+00 -0.00000000000E+00 -0.51089167426E+03  0.51089167426E+03  0.00000000000E+00 0.  1.
          6    1    1    2  501    0  0.11392938831E+02 -0.16248827254E+01 -0.10881536138E+03  0.20385588579E+03  0.17200000000E+03 0. -1.
         -6    1    1    2    0  503 -0.11392938831E+02  0.16248827254E+01 -0.33360277739E+03  0.37550932396E+03  0.17200000000E+03 0. -1.
</event>
<event>
 4    1  0.5714562E+000  0.3163941E+03  0.7818608E-02  0.1077321E+00
         21   -1    0    0  503  502  0.00000000000E+00  0.00000000000E+00  0.16504841939E+03  0.16504841939E+03  0.00000000000E+00 0.  1.
         21   -1    0    0  501  503 -0.00000000000E+00 -0.00000000000E+00 -0.66492241352E+03  0.66492241352E+03  0.00000000000E+00 0. -1.
          6    1    1    2  501    0  0.13595283042E+03 -0.22811855050E+03 -0.37292450235E+03  0.48905820680E+03  0.17200000000E+03 0. -1.
         -6    1    1    2    0  502 -0.13595283042E+03  0.22811855050E+03 -0.12694949177E+03  0.34091262611E+03  0.17200000000E+03 0.  1.
</event>
<event>
 4    1  0.5714562E+000  0.1799968E+03  0.7818608E-02  0.1167806E+00
         21   -1    0    0  501  502  0.00000000000E+00  0.00000000000E+00  0.30767240644E+03  0.30767240644E+03  0.00000000000E+00 0. -1.
         21   -1    0    0  502  503 -0.00000000000E+00 -0.00000000000E+00 -0.10549073699E+03  0.10549073699E+03  0.00000000000E+00 0. -1.
          6    1    1    2  501    0 -0.52329670787E+02  0.87430830757E+01  0.92376639776E+02  0.20231727440E+03  0.17200000000E+03 0. -1.
         -6    1    1    2    0  503  0.52329670787E+02 -0.87430830757E+01  0.10980502967E+03  0.21084586903E+03  0.17200000000E+03 0. -1.
</event>
<event>
 4    1  0.5714562E+000  0.1871909E+03  0.7818608E-02  0.1161020E+00
         21   -1    0    0  503  502  0.00000000000E+00  0.00000000000E+00  0.29346206230E+03  0.29346206230E+03  0.00000000000E+00 0. -1.
         21   -1    0    0  501  503 -0.00000000000E+00 -0.00000000000E+00 -0.12665919993E+03  0.12665919993E+03  0.00000000000E+00 0. -1.
          6    1    1    2  501    0  0.19866209783E+02 -0.71146218420E+02  0.33125454789E+02  0.19009930679E+03  0.17200000000E+03 0. -1.
         -6    1    1    2    0  502 -0.19866209783E+02  0.71146218420E+02  0.13367740758E+03  0.23002195544E+03  0.17200000000E+03 0. -1.
</event>
<event>
 4    1  0.5714562E+000  0.3443432E+03  0.7818608E-02  0.1064961E+00
         21   -1    0    0  503  502  0.00000000000E+00  0.00000000000E+00  0.82688942353E+03  0.82688942353E+03  0.00000000000E+00 0.  1.
         21   -1    0    0  501  503 -0.00000000000E+00 -0.00000000000E+00 -0.43697669275E+03  0.43697669275E+03  0.00000000000E+00 0. -1.
          6    1    1    2  501    0 -0.12701997332E+01 -0.29830621250E+03 -0.32301537357E+03  0.47213466446E+03  0.17200000000E+03 0. -1.
         -6    1    1    2    0  502  0.12701997332E+01  0.29830621250E+03  0.71292810435E+03  0.79173145181E+03  0.17200000000E+03 0.  1.
</event>
<event>
 4    1  0.5714562E+000  0.1978215E+03  0.7818608E-02  0.1151590E+00
         21   -1    0    0  503  502  0.00000000000E+00  0.00000000000E+00  0.15535107457E+03  0.15535107457E+03  0.00000000000E+00 0. -1.
         21   -1    0    0  501  503 -0.00000000000E+00 -0.00000000000E+00 -0.47796748447E+03  0.47796748447E+03  0.00000000000E+00 0. -1.
          6    1    1    2  501    0  0.95017329685E+02 -0.22827006309E+02 -0.37908391489E+03  0.42759557959E+03  0.17200000000E+03 0. -1.
         -6    1    1    2    0  502 -0.95017329685E+02  0.22827006309E+02  0.56467504988E+02  0.20572297946E+03  0.17200000000E+03 0. -1.
</event>
<event>
 4    1  0.5714562E+000  0.2349546E+03  0.7818608E-02  0.1123200E+00
         21   -1    0    0  501  502  0.00000000000E+00  0.00000000000E+00  0.12294132560E+03  0.12294132560E+03  0.00000000000E+00 0.  1.
         21   -1    0    0  502  503 -0.00000000000E+00 -0.00000000000E+00 -0.68565778996E+03  0.68565778996E+03  0.00000000000E+00 0. -1.
          6    1    1    2  501    0  0.15960058916E+03  0.12138047745E+02 -0.43845233453E+02  0.23901063734E+03  0.17200000000E+03 0.  1.
         -6    1    1    2    0  503 -0.15960058916E+03 -0.12138047745E+02 -0.51887123090E+03  0.56958847822E+03  0.17200000000E+03 0. -1.
</event>
<event>
 4    1  0.5714562E+000  0.2032037E+03  0.7818608E-02  0.1147064E+00
         21   -1    0    0  501  502  0.00000000000E+00  0.00000000000E+00  0.10603810625E+03  0.10603810625E+03  0.00000000000E+00 0. -1.
         21   -1    0    0  502  503 -0.00000000000E+00 -0.00000000000E+00 -0.40589248399E+03  0.40589248399E+03  0.00000000000E+00 0.  1.
          6    1    1    2  501    0 -0.93130720401E+02  0.55085506107E+02 -0.98338339407E+02  0.22574803003E+03  0.17200000000E+03 0. -1.
         -6    1    1    2    0  503  0.93130720401E+02 -0.55085506107E+02 -0.20151603833E+03  0.28618256021E+03  0.17200000000E+03 0.  1.
</event>
<event>
 4    1  0.5714562E+000  0.2335150E+03  0.7818608E-02  0.1124190E+00
         21   -1    0    0  503  502  0.00000000000E+00  0.00000000000E+00  0.14894915890E+03  0.14894915890E+03  0.00000000000E+00 0. -1.
         21   -1    0    0  501  503 -0.00000000000E+00 -0.00000000000E+00 -0.93917974895E+03  0.93917974895E+03  0.00000000000E+00 0.  1.
          6    1    1    2  501    0 -0.32642874455E+02  0.15453059641E+03 -0.82011255509E+03  0.85270971936E+03  0.17200000000E+03 0.  1.
         -6    1    1    2    0  502  0.32642874455E+02 -0.15453059641E+03  0.29881965034E+02  0.23541918850E+03  0.17200000000E+03 0. -1.
</event>
<event>
 4    1  0.5714562E+000  0.1836442E+03  0.7818608E-02  0.1164322E+00
         21   -1    0    0  503  502  0.00000000000E+00  0.00000000000E+00  0.48261807456E+03  0.48261807456E+03  0.00000000000E+00 0. -1.
         21   -1    0    0  501  503 -0.00000000000E+00 -0.00000000000E+00 -0.72419289781E+02  0.72419289781E+02  0.00000000000E+00 0. -1.
          6    1    1    2  501    0  0.24993437277E+02  0.59300242723E+02  0.25706902396E+03  0.31592669051E+03  0.17200000000E+03 0. -1.
         -6    1    1    2    0  502 -0.24993437277E+02 -0.59300242723E+02  0.15312976082E+03  0.23911067384E+03  0.17200000000E+03 0. -1.
</event>
<event>
 4    1  0.5714562E+000  0.2689179E+03  0.7818608E-02  0.1101901E+00
         21   -1    0    0  501  502  0.00000000000E+00  0.00000000000E+00  0.14809130047E+04  0.14809130047E+04  0.00000000000E+00 0. -1.
         21   -1    0    0  502  503 -0.00000000000E+00 -0.00000000000E+00 -0.59759625439E+03  0.59759625439E+03  0.00000000000E+00 0.  1.
          6    1    1    2  501    0 -0.19644161344E+03 -0.64370278101E+02  0.14375468402E+04  0.14624834214E+04  0.17200000000E+03 0. -1.
         -6    1    1    2    0  503  0.19644161344E+03  0.64370278101E+02 -0.55423008986E+03  0.61602583769E+03  0.17200000000E+03 0.  1.
</event>
<event>
 4    1  0.5714562E+000  0.1817451E+03  0.7818608E-02  0.1166125E+00
         21   -1    0    0  501  502  0.00000000000E+00  0.00000000000E+00  0.13160881213E+03  0.13160881213E+03  0.00000000000E+00 0. -1.
         21   -1    0    0  502  503 -0.00000000000E+00 -0.00000000000E+00 -0.27758680916E+03  0.27758680916E+03  0.00000000000E+00 0. -1.
          6    1    1    2  501    0 -0.46294627394E+02  0.36112334907E+02 -0.96471223345E+01  0.18200098963E+03  0.17200000000E+03 0. -1.
         -6    1    1    2    0  503  0.46294627394E+02 -0.36112334907E+02 -0.13633087470E+03  0.22719463166E+03  0.17200000000E+03 0. -1.
</event>
<event>
 4    1  0.5714562E+000  0.1725591E+03  0.7818608E-02  0.1175205E+00
         21   -1    0    0  503  502  0.00000000000E+00  0.00000000000E+00  0.17763206018E+03  0.17763206018E+03  0.00000000000E+00 0.  1.
         21   -1    0    0  501  503 -0.00000000000E+00 -0.00000000000E+00 -0.19111621804E+03  0.19111621804E+03  0.00000000000E+00 0.  1.
          6    1    1    2  501    0 -0.91355409866E+01 -0.10448341916E+02  0.57890168405E+02  0.18201070726E+03  0.17200000000E+03 0.  1.
         -6    1    1    2    0  502  0.91355409866E+01  0.10448341916E+02 -0.71374326263E+02  0.18673757096E+03  0.17200000000E+03 0.  1.
</event>
<event>
 4    1  0.5714562E+000  0.1807892E+03  0.7818608E-02  0.1167041E+00
         21   -1    0    0  501  502  0.00000000000E+00  0.00000000000E+00  0.48047361875E+02  0.48047361875E+02  0.00000000000E+00 0. -1.
         21   -1    0    0  502  503 -0.00000000000E+00 -0.00000000000E+00 -0.69541811831E+03  0.69541811831E+03  0.00000000000E+00 0. -1.
          6    1    1    2  501    0 -0.45334411025E+02  0.32334768192E+02 -0.37856564900E+03  0.41951960223E+03  0.17200000000E+03 0. -1.
         -6    1    1    2    0  503  0.45334411025E+02 -0.32334768192E+02 -0.26880510744E+03  0.32394587795E+03  0.17200000000E+03 0. -1.
</event>
<event>
 4    1  0.5714562E+000  0.2051698E+03  0.7818608E-02  0.1145449E+00
         21   -1    0    0  503  502  0.00000000000E+00  0.00000000000E+00  0.15899996783E+03  0.15899996783E+03  0.00000000000E+00 0. -1.
         21   -1    0    0  501  503 -0.00000000000E+00 -0.00000000000E+00 -0.32769522994E+03  0.32769522994E+03  0.00000000000E+00 0. -1.
          6    1    1    2  501    0  0.58259946356E+02  0.95479966123E+02 -0.19100389162E+03  0.28031612850E+03  0.17200000000E+03 0.  1.
         -6    1    1    2    0  502 -0.58259946356E+02 -0.95479966123E+02  0.22308629513E+02  0.20637906927E+03  0.17200000000E+03 0.  1.
</event>
<event>
 4    1  0.5714562E+000  0.1975424E+03  0.7818608E-02  0.1151829E+00
         21   -1    0    0  503  502  0.00000000000E+00  0.00000000000E+00  0.25397182854E+03  0.25397182854E+03  0.00000000000E+00 0. -1.
         21   -1    0    0  501  503 -0.00000000000E+00 -0.00000000000E+00 -0.19803100989E+03  0.19803100989E+03  0.00000000000E+00 0.  1.
          6    1    1    2  501    0 -0.55336420498E+02 -0.79855282605E+02 -0.79018566464E+02  0.21276023933E+03  0.17200000000E+03 0.  1.
         -6    1    1    2    0  502  0.55336420498E+02  0.79855282605E+02  0.13495938512E+03  0.23924259910E+03  0.17200000000E+03 0. -1.
</event>
<event>
 4    1  0.5714562E+000  0.1949759E+03  0.7818608E-02  0.1154048E+00
         21   -1    0    0  501  502  0.00000000000E+00  0.00000000000E+00  0.14498526949E+04  0.14498526949E+04  0.00000000000E+00 0. -1.
         21   -1    0    0  502  503 -0.00000000000E+00 -0.00000000000E+00 -0.57945874770E+02  0.57945874770E+02  0.00000000000E+00 0.  1.
          6    1    1    2  501    0  0.83179701926E+02 -0.38894148453E+02  0.12537894982E+04  0.12688592213E+04  0.17200000000E+03 0. -1.
         -6    1    1    2    0  503 -0.83179701926E+02  0.38894148453E+02  0.13811732192E+03  0.23893934839E+03  0.17200000000E+03 0.  1.
</event>
<event>
 4    1  0.5714562E+000  0.1837468E+03  0.7818608E-02  0.1164225E+00
         21   -1    0    0  503  502  0.00000000000E+00  0.00000000000E+00  0.26015063983E+03  0.26015063983E+03  0.00000000000E+00 0. -1.
         21   -1    0    0  501  503 -0.00000000000E+00 -0.00000000000E+00 -0.15006836437E+03  0.15006836437E+03  0.00000000000E+00 0.  1.
          6    1    1    2  501    0  0.64418475978E+02  0.53988105863E+01 -0.20371238032E+02  0.18487259002E+03  0.17200000000E+03 0.  1.
         -6    1    1    2    0  502 -0.64418475978E+02 -0.53988105863E+01  0.13045351349E+03  0.22534641418E+03  0.17200000000E+03 0. -1.
</event>
<event>
 4    1  0.5714562E+000  0.1883583E+03  0.7818608E-02  0.1159950E+00
         21   -1    0    0  501  502  0.00000000000E+00  0.00000000000E+00  0.49672561842E+03  0.49672561842E+03  0.00000000000E+00 0. -1.
         21   -1    0    0  502  503 -0.00000000000E+00 -0.00000000000E+00 -0.72995501281E+02  0.72995501281E+02  0.00000000000E+00 0. -1.
          6    1    1    2  501    0  0.70985522956E+02 -0.29256017688E+02  0.25364221788E+03  0.31593232461E+03  0.17200000000E+03 0. -1.
         -6    1    1    2    0  503 -0.70985522956E+02  0.29256017688E+02  0.17008789925E+03  0.25378879509E+03  0.17200000000E+03 0. -1.
</event>
<event>
 4    1  0.5714562E+000  0.1958162E+03  0.7818608E-02  0.1153318E+00
         21   -1    0    0  503  502  0.00000000000E+00  0.00000000000E+00  0.25422030142E+03  0.25422030142E+03  0.00000000000E+00 0.  1.
         21   -1    0    0  501  503 -0.00000000000E+00 -0.00000000000E+00 -0.17019073836E+03  0.17019073836E+03  0.00000000000E+00 0.  1.
          6    1    1    2  501    0 -0.79995333672E+02  0.48587212572E+02  0.11358841902E+03  0.22637645543E+03  0.17200000000E+03 0.  1.
         -6    1    1    2    0  502  0.79995333672E+02 -0.48587212572E+02 -0.29558855965E+02  0.19803458436E+03  0.17200000000E+03 0.  1.
</event>
<event>
 4    1  0.5714562E+000  0.3791874E+03  0.7818608E-02  0.1051235E+00
         21   -1    0    0  501  502  0.00000000000E+00  0.00000000000E+00  0.21695985252E+04  0.21695985252E+04  0.00000000000E+00 0. -1.
         21   -1    0    0  502  503 -0.00000000000E+00 -0.00000000000E+00 -0.68005831529E+02  0.68005831529E+02  0.00000000000E+00 0. -1.
          6    1    1    2  501    0 -0.19044427416E+03 -0.27915952798E+03  0.12294519188E+04  0.12865982606E+04  0.17200000000E+03 0. -1.
         -6    1    1    2    0  503  0.19044427416E+03  0.27915952798E+03  0.87214077492E+03  0.95100609614E+03  0.17200000000E+03 0. -1.
</event>
<event>
 4    1  0.5714562E+000  0.1811010E+03  0.7818608E-02  0.1166742E+00
         21   -1    0    0  501  502  0.00000000000E+00  0.00000000000E+00  0.77706845810E+03  0.77706845810E+03  0.00000000000E+00 0.  1.
         21   -1    0    0  502  503 -0.00000000000E+00 -0.00000000000E+00 -0.16099147465E+03  0.16099147465E+03  0.00000000000E+00 0.  1.
          6    1    1    2  501    0 -0.53771022059E+02  0.17951259420E+02  0.71092188247E+03  0.73362626283E+03  0.17200000000E+03 0.  1.
         -6    1    1    2    0  503  0.53771022059E+02 -0.17951259420E+02 -0.94844899022E+02  0.20443366992E+03  0.17200000000E+03 0.  1.
</event>
<event>
 4    1  0.5714562E+000  0.2999123E+03  0.7818608E-02  0.1085284E+00
         21   -1    0    0  503  502  0.00000000000E+00  0.00000000000E+00  0.15806396474E+03  0.15806396474E+03  0.00000000000E+00 0.  1.
         21   -1    0    0  501  503 -0.00000000000E+00 -0.00000000000E+00 -0.72064647188E+03  0.72064647188E+03  0.00000000000E+00 0. -1.
          6    1    1    2  501    0  0.26512074918E+02 -0.24425497291E+03 -0.48279790731E+03  0.56836713593E+03  0.17200000000E+03 0.  1.
         -6    1    1    2    0  502 -0.26512074918E+02  0.24425497291E+03 -0.79784599831E+02  0.31034330068E+03  0.17200000000E+03 0.  1.
</event>
<event>
 4    1  0.5714562E+000  0.1920266E+03  0.7818608E-02  0.1156646E+00
         21   -1    0    0  501  502  0.00000000000E+00  0.00000000000E+00  0.93711199304E+02  0.93711199304E+02  0.00000000000E+00 0.  1.
         21   -1    0    0  502  503 -0.00000000000E+00 -0.00000000000E+00 -0.39919702599E+03  0.39919702599E+03  0.00000000000E+00 0. -1.
          6    1    1    2  501    0 -0.54799938119E+02  0.65476545173E+02 -0.12326939118E+03  0.22818754126E+03  0.17200000000E+03 0. -1.
         -6    1    1    2    0  503  0.54799938119E+02 -0.65476545173E+02 -0.18221643551E+03  0.26472068403E+03  0.17200000000E+03 0. -1.
</event>
<event>
 4    1  0.5714562E+000  0.2167586E+03  0.7818608E-02  0.1136323E+00
         21   -1    0    0  503  502  0.00000000000E+00  0.00000000000E+00  0.74509631045E+02  0.74509631045E+02  0.00000000000E+00 0.  1.
         21   -1    0    0  501  503 -0.00000000000E+00 -0.00000000000E+00 -0.63059089384E+03  0.63059089384E+03  0.00000000000E+00 0.  1.
          6    1    1    2  501    0  0.87873770554E+02  0.98379236327E+02 -0.27656678618E+03  0.35138790660E+03  0.17200000000E+03 0.  1.
         -6    1    1    2    0  502 -0.87873770554E+02 -0.98379236327E+02 -0.27951447662E+03  0.35371261828E+03  0.17200000000E+03 0.  1.
</event>
<event>
 4    1  0.5714562E+000  0.2028479E+03  0.7818608E-02  0.1147358E+00
         21   -1    0    0  501  502  0.00000000000E+00  0.00000000000E+00  0.38653029273E+03  0.38653029273E+03  0.00000000000E+00 0.  1.
         21   -1    0    0  502  503 -0.00000000000E+00 -0.00000000000E+00 -0.11185810184E+03  0.11185810184E+03  0.00000000000E+00 0.  1.
          6    1    1    2  501    0  0.95216860264E+02  0.49970393668E+02  0.19211433476E+03  0.27938362218E+03  0.17200000000E+03 0.  1.
         -6    1    1    2    0  503 -0.95216860264E+02 -0.49970393668E+02  0.82557856134E+02  0.21900477239E+03  0.17200000000E+03 0.  1.
</event>
<event>
 4    1  0.5714562E+000  0.1810923E+03  0.7818608E-02  0.1166750E+00
         21   -1    0    0  503  502  0.00000000000E+00  0.00000000000E+00  0.11568239547E+04  0.11568239547E+04  0.00000000000E+00 0. -1.
         21   -1    0    0  501  503 -0.00000000000E+00 -0.00000000000E+00 -0.44187757017E+02  0.44187757017E+02  0.00000000000E+00 0. -1.
          6    1    1    2  501    0  0.48023805704E+02 -0.30068757696E+02  0.19679119631E+03  0.26743446122E+03  0.17200000000E+03 0. -1.
         -6    1    1    2    0  502 -0.48023805704E+02  0.30068757696E+02  0.91584500139E+03  0.93357725051E+03  0.17200000000E+03 0. -1.
</event>
<event>
 4    1  0.5714562E+000  0.1809814E+03  0.7818608E-02  0.1166857E+00
         21   -1    0    0  503  502  0.00000000000E+00  0.00000000000E+00  0.20407590682E+03  0.20407590682E+03  0.00000000000E+00 0. -1.
         21   -1    0    0  501  503 -0.00000000000E+00 -0.00000000000E+00 -0.17426079035E+03  0.17426079035E+03  0.00000000000E+00 0. -1.
          6    1    1    2  501    0 -0.49417310877E+02  0.26985393027E+02 -0.38249711452E+02  0.18497924877E+03  0.17200000000E+03 0.  1.
         -6    1    1    2    0  502  0.49417310877E+02 -0.26985393027E+02  0.68064827912E+02  0.19335744840E+03  0.17200000000E+03 0.  1.
</event>
<event>
 4    1  0.5714562E+000  0.2130469E+03  0.7818608E-02  0.1139176E+00
         21   -1    0    0  501  502  0.00000000000E+00  0.00000000000E+00  0.65605160207E+03  0.65605160207E+03  0.00000000000E+00 0.  1.
         21   -1    0    0  502  503 -0.00000000000E+00 -0.00000000000E+00 -0.78577933663E+02  0.78577933663E+02  0.00000000000E+00 0. -1.
          6    1    1    2  501    0 -0.11757994201E+03 -0.44496371323E+02  0.41573203667E+03  0.46714247948E+03  0.17200000000E+03 0.  1.
         -6    1    1    2    0  503  0.11757994201E+03  0.44496371323E+02  0.16174163174E+03  0.26748705625E+03  0.17200000000E+03 0. -1.
</event>
<event>
 4    1  0.5714562E+000  0.1789717E+03  0.7818608E-02  0.1168802E+00
         21   -1    0    0  501  502  0.00000000000E+00  0.00000000000E+00  0.13086998227E+04  0.13086998227E+04  0.00000000000E+00 0.  1.
         21   -1    0    0  502  503 -0.00000000000E+00 -0.00000000000E+00 -0.53389078018E+02  0.53389078018E+02  0.00000000000E+00 0.  1.
          6    1    1    2  501    0 -0.25893717867E+02 -0.42147342651E+02  0.11288441192E+04  0.11429435369E+04  0.17200000000E+03 0.  1.
         -6    1    1    2    0  503  0.25893717867E+02  0.42147342651E+02  0.12646662549E+03  0.21914536381E+03  0.17200000000E+03 0.  1.
</event>
<event>
 4    1  0.5714562E+000  0.1822985E+03  0.7818608E-02  0.1165597E+00
         21   -1    0    0  503  502  0.00000000000E+00  0.00000000000E+00  0.26998142051E+03  0.26998142051E+03  0.00000000000E+00 0.  1.
         21   -1    0    0  501  503 -0.00000000000E+00 -0.00000000000E+00 -0.34883968701E+03  0.34883968701E+03  0.00000000000E+00 0.  1.
          6    1    1    2  501    0  0.60276983158E+02  0.39276531806E+01 -0.28833387104E+03  0.34112924581E+03  0.17200000000E+03 0.  1.
         -6    1    1    2    0  502 -0.60276983158E+02 -0.39276531806E+01  0.20947560454E+03  0.27769186170E+03  0.17200000000E+03 0.  1.
</event>
<event>
 4    1  0.5714562E+000  0.2194427E+03  0.7818608E-02  0.1134299E+00
         21   -1    0    0  501  502  0.00000000000E+00  0.00000000000E+00  0.13789903658E+03  0.13789903658E+03  0.00000000000E+00 0. -1.
         21   -1    0    0  502  503 -0.00000000000E+00 -0.00000000000E+00 -0.40810060733E+03  0.40810060733E+03  0.00000000000E+00 0.  1.
          6    1    1    2  501    0 -0.47214707951E+02  0.12783525547E+03 -0.31391197362E+02  0.22167654017E+03  0.17200000000E+03 0. -1.
         -6    1    1    2    0  503  0.47214707951E+02 -0.12783525547E+03 -0.23881037338E+03  0.32432310375E+03  0.17200000000E+03 0.  1.
</event>
<event>
 4    1  0.5714562E+000  0.2289947E+03  0.7818608E-02  0.1127349E+00
         21   -1    0    0  503  502  0.00000000000E+00  0.00000000000E+00  0.41919116266E+02  0.41919116266E+02  0.00000000000E+00 0. -1.
         21   -1    0    0  501  503 -0.00000000000E+00 -0.00000000000E+00 -0.16697002533E+04  0.16697002533E+04  0.00000000000E+00 0. -1.
          6    1    1    2  501    0  0.53433119416E+02  0.14141949329E+03 -0.12424758991E+04  0.12634021257E+04  0.17200000000E+03 0. -1.
         -6    1    1    2    0  502 -0.53433119416E+02 -0.14141949329E+03 -0.38530523791E+03  0.44821724386E+03  0.17200000000E+03 0. -1.
</event>
<event>
 4    1  0.5714562E+000  0.2309192E+03  0.7818608E-02  0.1125994E+00
         21   -1    0    0  503  502  0.00000000000E+00  0.00000000000E+00  0.16132620782E+03  0.16132620782E+03  0.00000000000E+00 0.  1.
         21   -1    0    0  501  503 -0.00000000000E+00 -0.00000000000E+00 -0.34082743151E+03  0.34082743151E+03  0.00000000000E+00 0. -1.
          6    1    1    2  501    0  0.34965756855E+02 -0.15005693054E+03 -0.46115725390E+02  0.23547897291E+03  0.17200000000E+03 0.  1.
         -6    1    1    2    0  502 -0.34965756855E+02  0.15005693054E+03 -0.13338549830E+03  0.26667466642E+03  0.17200000000E+03 0.  1.
</event>
<event>
 4    1  0.5714562E+000  0.3002723E+03  0.7818608E-02  0.1085105E+00
         21   -1    0    0  503  502  0.00000000000E+00  0.00000000000E+00  0.15848402468E+03  0.15848402468E+03  0.00000000000E+00 0.  1.
         21   -1    0    0  501  503 -0.00000000000E+00 -0.00000000000E+00 -0.77061509565E+03  0.77061509565E+03  0.00000000000E+00 0. -1.
          6    1    1    2  501    0  0.23173478358E+03 -0.82936228908E+02 -0.54373304748E+03  0.62113529517E+03  0.17200000000E+03 0. -1.
         -6    1    1    2    0  502 -0.23173478358E+03  0.82936228908E+02 -0.68398023488E+02  0.30796382515E+03  0.17200000000E+03 0.  1.
</event>
<event>
 4    1  0.5714562E+000  0.2260492E+03  0.7818608E-02  0.1129452E+00
         21   -1    0    0  503  502  0.00000000000E+00  0.00000000000E+00  0.39541492869E+03  0.39541492869E+03  0.00000000000E+00 0. -1.
         21   -1    0    0  501  503 -0.00000000000E+00 -0.00000000000E+00 -0.12926088176E+03  0.12926088176E+03  0.00000000000E+00 0. -1.
          6    1    1    2  501    0  0.64899410574E+02 -0.13153830569E+03  0.12882568675E+03  0.26018131548E+03  0.17200000000E+03 0. -1.
         -6    1    1    2    0  502 -0.64899410574E+02  0.13153830569E+03  0.13732836018E+03  0.26449449497E+03  0.17200000000E+03 0. -1.
</event>
<event>
 4    1  0.5714562E+000  0.1959040E+03  0.7818608E-02  0.1153242E+00
         21   -1    0    0  501  502  0.00000000000E+00  0.00000000000E+00  0.29788100459E+03  0.29788100459E+03  0.00000000000E+00 0. -1.
         21   -1    0    0  502  503 -0.00000000000E+00 -0.00000000000E+00 -0.13631375388E+03  0.13631375388E+03  0.00000000000E+00 0. -1.
          6    1    1    2  501    0  0.68254627186E+02 -0.64309275558E+02  0.29942660824E+02  0.19817906043E+03  0.17200000000E+03 0. -1.
         -6    1    1    2    0  503 -0.68254627186E+02  0.64309275558E+02  0.13162458989E+03  0.23601569803E+03  0.17200000000E+03 0. -1.
</event>
<event>
 4    1  0.5714562E+000  0.2162492E+03  0.7818608E-02  0.1136711E+00
         21   -1    0    0  501  502  0.00000000000E+00  0.00000000000E+00  0.15601659058E+03  0.15601659058E+03  0.00000000000E+00 0. -1.
         21   -1    0    0  502  503 -0.00000000000E+00 -0.00000000000E+00 -0.30201704689E+03  0.30201704689E+03  0.00000000000E+00 0.  1.
          6    1    1    2  501    0  0.62115498954E+02 -0.11541832197E+03 -0.92905042531E+02  0.23536157542E+03  0.17200000000E+03 0. -1.
         -6    1    1    2    0  503 -0.62115498954E+02  0.11541832197E+03 -0.53095413779E+02  0.22267206206E+03  0.17200000000E+03 0.  1.
</event>
<event>
 4    1  0.5714562E+000  0.1771277E+03  0.7818608E-02  0.1170612E+00
         21   -1    0    0  501  502  0.00000000000E+00  0.00000000000E+00  0.50142003024E+02  0.50142003024E+02  0.00000000000E+00 0. -1.
         21   -1    0    0  502  503 -0.00000000000E+00 -0.00000000000E+00 -0.89115012276E+03  0.89115012276E+03  0.00000000000E+00 0. -1.
          6    1    1    2  501    0  0.42166830033E+02 -0.34875560483E+01 -0.16363919974E+03  0.24114724194E+03  0.17200000000E+03 0. -1.
         -6    1    1    2    0  503 -0.42166830033E+02  0.34875560483E+01 -0.67736891999E+03  0.70014488384E+03  0.17200000000E+03 0. -1.
</event>
<event>
 4    1  0.5714562E+000  0.1819356E+03  0.7818608E-02  0.1165943E+00
         21   -1    0    0  501  502  0.00000000000E+00  0.00000000000E+00  0.75584463460E+02  0.75584463460E+02  0.00000000000E+00 0. -1.
         21   -1    0    0  502  503 -0.00000000000E+00 -0.00000000000E+00 -0.58851063025E+03  0.58851063025E+03  0.00000000000E+00 0. -1.
          6    1    1    2  501    0 -0.34816595313E+01  0.59198277173E+02 -0.88501305535E+02  0.20231915148E+03  0.17200000000E+03 0. -1.
         -6    1    1    2    0  503  0.34816595313E+01 -0.59198277173E+02 -0.42442486126E+03  0.46177594224E+03  0.17200000000E+03 0. -1.
</event>
<event>
 4    1  0.5714562E+000  0.1976193E+03  0.7818608E-02  0.1151763E+00
         21   -1    0    0  501  502  0.00000000000E+00  0.00000000000E+00  0.63101667614E+02  0.63101667614E+02  0.00000000000E+00 0.  1.
         21   -1    0    0  502  503 -0.00000000000E+00 -0.00000000000E+00 -0.14910077237E+04  0.14910077237E+04  0.00000000000E+00 0. -1.
          6    1    1    2  501    0 -0.52970197894E+02 -0.81630481659E+02 -0.11966405169E+03  0.23102567534E+03  0.17200000000E+03 0.  1.
         -6    1    1    2    0  503  0.52970197894E+02  0.81630481659E+02 -0.13082420044E+04  0.13230837160E+04  0.17200000000E+03 0. -1.
</event>
<event>
 4    1  0.5714562E+000  0.1844824E+03  0.7818608E-02  0.1163534E+00
         21   -1    0    0  501  502  0.00000000000E+00  0.00000000000E+00  0.14813353570E+03  0.14813353570E+03  0.00000000000E+00 0. -1.
         21   -1    0    0  502  503 -0.00000000000E+00 -0.00000000000E+00 -0.53502317972E+03  0.53502317972E+03  0.00000000000E+00 0. -1.
          6    1    1    2  501    0 -0.66322719673E+02  0.71457759688E+01  0.64571964517E+02  0.19545665468E+03  0.17200000000E+03 0. -1.
         -6    1    1    2    0  503  0.66322719673E+02 -0.71457759688E+01 -0.45146160853E+03  0.48770006073E+03  0.17200000000E+03 0. -1.
</event>
<event>
 4    1  0.5714562E+000  0.1920336E+03  0.7818608E-02  0.1156640E+00
         21   -1    0    0  503  502  0.00000000000E+00  0.00000000000E+00  0.15402408952E+03  0.15402408952E+03  0.00000000000E+00 0.  1.
         21   -1    0    0  501  503 -0.00000000000E+00 -0.00000000000E+00 -0.24814465758E+03  0.24814465758E+03  0.00000000000E+00 0.  1.
          6    1    1    2  501    0  0.68464344018E+02 -0.51044564631E+02 -0.84758835524E+02  0.20990706081E+03  0.17200000000E+03 0.  1.
         -6    1    1    2    0  502 -0.68464344018E+02  0.51044564631E+02 -0.93617325392E+01  0.19226168629E+03  0.17200000000E+03 0.  1.
</event>
<event>
 4    1  0.5714562E+000  0.2073925E+03  0.7818608E-02  0.1143648E+00
         21   -1    0    0  501  502  0.00000000000E+00  0.00000000000E+00  0.19446490257E+04  0.19446490257E+04  0.00000000000E+00 0.  1.
         21   -1    0    0  502  503 -0.00000000000E+00 -0.00000000000E+00 -0.25507158266E+02  0.25507158266E+02  0.00000000000E+00 0.  1.
          6    1    1    2  501    0 -0.10306852986E+03  0.52957838126E+02  0.13186487709E+04  0.13348581331E+04  0.17200000000E+03 0.  1.
         -6    1    1    2    0  503  0.10306852986E+03 -0.52957838126E+02  0.60049309649E+03  0.63529805084E+03  0.17200000000E+03 0.  1.
</event>
<event>
 4    1  0.5714562E+000  0.1843795E+03  0.7818608E-02  0.1163631E+00
         21   -1    0    0  503  502  0.00000000000E+00  0.00000000000E+00  0.10499488507E+04  0.10499488507E+04  0.00000000000E+00 0. -1.
         21   -1    0    0  501  503 -0.00000000000E+00 -0.00000000000E+00 -0.38351474221E+02  0.38351474221E+02  0.00000000000E+00 0. -1.
          6    1    1    2  501    0 -0.34218730087E+02 -0.56928792264E+02  0.29105437769E+03  0.34454094046E+03  0.17200000000E+03 0. -1.
         -6    1    1    2    0  502  0.34218730087E+02  0.56928792264E+02  0.72054299879E+03  0.74375938447E+03  0.17200000000E+03 0. -1.
</event>
<event>
 4    1  0.5714562E+000  0.2182281E+03  0.7818608E-02  0.1135211E+00
         21   -1    0    0  501  502  0.00000000000E+00  0.00000000000E+00  0.32988342327E+03  0.32988342327E+03  0.00000000000E+00 0. -1.
         21   -1    0    0  502  503 -0.00000000000E+00 -0.00000000000E+00 -0.69152950665E+03  0.69152950665E+03  0.00000000000E+00 0. -1.
          6    1    1    2  501    0 -0.83232549759E+02 -0.10541282792E+03  0.27345848384E+03  0.34986149262E+03  0.17200000000E+03 0. -1.
         -6    1    1    2    0  503  0.83232549759E+02  0.10541282792E+03 -0.63510456723E+03  0.67155143730E+03  0.17200000000E+03 0. -1.
</event>
<event>
 4    1  0.5714562E+000  0.3158009E+03  0.7818608E-02  0.1077598E+00
         21   -1    0    0  503  502  0.00000000000E+00  0.00000000000E+00  0.41313614150E+03  0.41313614150E+03  0.00000000000E+00 0.  1.
         21   -1    0    0  501  503 -0.00000000000E+00 -0.00000000000E+00 -0.32010071181E+03  0.32010071181E+03  0.00000000000E+00 0. -1.
          6    1    1    2  501    0  0.24585467823E+03 -0.98497124106E+02 -0.13527062838E+03  0.34355254208E+03  0.17200000000E+03 0.  1.
         -6    1    1    2    0  502 -0.24585467823E+03  0.98497124106E+02  0.22830605807E+03  0.38968431123E+03  0.17200000000E+03 0. -1.
</event>
<event>
 4    1  0.5714562E+000  0.1755379E+03  0.7818608E-02  0.1172193E+00
         21   -1    0    0  501  502  0.00000000000E+00  0.00000000000E+00  0.27795741939E+03  0.27795741939E+03  0.00000000000E+00 0.  1.
         21   -1    0    0  502  503 -0.00000000000E+00 -0.00000000000E+00 -0.33172612975E+03  0.33172612975E+03  0.00000000000E+00 0. -1.
          6    1    1    2  501    0  0.99276593530E+01  0.33630475503E+02  0.22185929486E+03  0.28290477907E+03  0.17200000000E+03 0.  1.
         -6    1    1    2    0  503 -0.99276593530E+01 -0.33630475503E+02 -0.27562800523E+03  0.32677877007E+03  0.17200000000E+03 0. -1.
</event>
<event>
 4    1  0.5714562E+000  0.1984413E+03  0.7818608E-02  0.1151061E+00
         21   -1    0    0  501  502  0.00000000000E+00  0.00000000000E+00  0.21568394628E+03  0.21568394628E+03  0.00000000000E+00 0.  1.
         21   -1    0    0  502  503 -0.00000000000E+00 -0.00000000000E+00 -0.40424770436E+03  0.40424770436E+03  0.00000000000E+00 0.  1.
          6    1    1    2  501    0  0.75266617374E+02  0.64264282903E+02  0.13525053789E+03  0.24014926556E+03  0.17200000000E+03 0.  1.
         -6    1    1    2    0  503 -0.75266617374E+02 -0.64264282903E+02 -0.32381429597E+03  0.37978238509E+03  0.17200000000E+03 0.  1.
</event>
<event>
 4    1  0.5714562E+000  0.2072877E+03  0.7818608E-02  0.1143732E+00
         21   -1    0    0  501  502  0.00000000000E+00  0.00000000000E+00  0.98312051582E+02  0.98312051582E+02  0.00000000000E+00 0. -1.
         21   -1    0    0  502  503 -0.00000000000E+00 -0.00000000000E+00 -0.48840778006E+03  0.48840778006E+03  0.00000000000E+00 0. -1.
          6    1    1    2  501    0 -0.95914062766E+02 -0.64689026502E+02 -0.99927371071E+02  0.23011661625E+03  0.17200000000E+03 0.  1.
         -6    1    1    2    0  503  0.95914062766E+02  0.64689026502E+02 -0.29016835740E+03  0.35660321539E+03  0.17200000000E+03 0.  1.
</event>
<event>
 4    1  0.5714562E+000  0.1830505E+03  0.7818608E-02  0.1164883E+00
         21   -1    0    0  503  502  0.00000000000E+00  0.00000000000E+00  0.43949432513E+03  0.43949432513E+03  0.00000000000E+00 0. -1.
         21   -1    0    0  501  503 -0.00000000000E+00 -0.00000000000E+00 -0.11323336730E+03  0.11323336730E+03  0.00000000000E+00 0. -1.
          6    1    1    2  501    0  0.45358887971E+02  0.43197930696E+02  0.51694194323E+01  0.18312349066E+03  0.17200000000E+03 0. -1.
         -6    1    1    2    0  502 -0.45358887971E+02 -0.43197930696E+02  0.32109153840E+03  0.36960420177E+03  0.17200000000E+03 0. -1.
</event>
<event>
 4    1  0.5714562E+000  0.1962188E+03  0.7818608E-02  0.1152969E+00
         21   -1    0    0  501  502  0.00000000000E+00  0.00000000000E+00  0.22522549955E+03  0.22522549955E+03  0.00000000000E+00 0.  1.
         21   -1    0    0  502  503 -0.00000000000E+00 -0.00000000000E+00 -0.66883869503E+03  0.66883869503E+03  0.00000000000E+00 0.  1.
          6    1    1    2  501    0  0.51643014794E+02  0.79061987268E+02  0.16388938292E+03  0.25565900853E+03  0.17200000000E+03 0.  1.
         -6    1    1    2    0  503 -0.51643014794E+02 -0.79061987268E+02 -0.60750257840E+03  0.63840518605E+03  0.17200000000E+03 0.  1.
</event>
<event>
 4    1  0.5714562E+000  0.1737427E+03  0.7818608E-02  0.1174000E+00
         21   -1    0    0  503  502  0.00000000000E+00  0.00000000000E+00  0.96128778743E+03  0.96128778743E+03  0.00000000000E+00 0. -1.
         21   -1    0    0  501  503 -0.00000000000E+00 -0.00000000000E+00 -0.10537229388E+03  0.10537229388E+03  0.00000000000E+00 0. -1.
          6    1    1    2  501    0 -0.18910118103E+02 -0.15650762486E+02 -0.18891419912E+02  0.17476677224E+03  0.17200000000E+03 0. -1.
         -6    1    1    2    0  502  0.18910118103E+02  0.15650762486E+02  0.87480691346E+03  0.89189330907E+03  0.17200000000E+03 0. -1.
</event>
<event>
 4    1  0.5714562E+000  0.3547180E+03  0.7818608E-02  0.1060695E+00
         21   -1    0    0  501  502  0.00000000000E+00  0.00000000000E+00  0.38964392985E+03  0.38964392985E+03  0.00000000000E+00 0.  1.
         21   -1    0    0  502  503 -0.00000000000E+00 -0.00000000000E+00 -0.51433422592E+03  0.51433422592E+03  0.00000000000E+00 0. -1.
          6    1    1    2  501    0  0.25103427031E+03 -0.18227092094E+03  0.21338814136E+03  0.41395578552E+03  0.17200000000E+03 0.  1.
         -6    1    1    2    0  503 -0.25103427031E+03  0.18227092094E+03 -0.33807843743E+03  0.49002237025E+03  0.17200000000E+03 0. -1.
</event>
<event>
 4    1  0.5714562E+000  0.2418803E+03  0.7818608E-02  0.1118546E+00
         21   -1    0    0  501  502  0.00000000000E+00  0.00000000000E+00  0.66157080466E+03  0.66157080466E+03  0.00000000000E+00 0.  1.
         21   -1    0    0  502  503 -0.00000000000E+00 -0.00000000000E+00 -0.93822792343E+02  0.93822792343E+02  0.00000000000E+00 0. -1.
          6    1    1    2  501    0  0.52613236728E+02 -0.16172182310E+03  0.19336552584E+03  0.30967132145E+03  0.17200000000E+03 0.  1.
         -6    1    1    2    0  503 -0.52613236728E+02  0.16172182310E+03  0.37438248647E+03  0.44572227555E+03  0.17200000000E+03 0. -1.
</event>
<event>
 4    1  0.5714562E+000  0.2603208E+03  0.7818608E-02  0.1106951E+00
         21   -1    0    0  503  502  0.00000000000E+00  0.00000000000E+00  0.19628760204E+03  0.19628760204E+03  0.00000000000E+00 0.  1.
         21   -1    0    0  501  503 -0.00000000000E+00 -0.00000000000E+00 -0.51321681758E+03  0.51321681758E+03  0.00000000000E+00 0. -1.
          6    1    1    2  501    0  0.10670011917E+03  0.16370095889E+03 -0.36141760721E+03  0.44540948146E+03  0.17200000000E+03 0.  1.
         -6    1    1    2    0  502 -0.10670011917E+03 -0.16370095889E+03  0.44488391673E+02  0.26409493817E+03  0.17200000000E+03 0.  1.
</event>
<event>
 4    1  0.5714562E+000  0.2558846E+03  0.7818608E-02  0.1109641E+00
         21   -1    0    0  503  502  0.00000000000E+00  0.00000000000E+00  0.10069971247E+04  0.10069971247E+04  0.00000000000E+00 0.  1.
         21   -1    0    0  501  503 -0.00000000000E+00 -0.00000000000E+00 -0.76543036833E+02  0.76543036833E+02  0.00000000000E+00 0.  1.
          6    1    1    2  501    0 -0.79551596463E+02  0.17194327930E+03  0.67541523664E+03  0.72226220286E+03  0.17200000000E+03 0.  1.
         -6    1    1    2    0  502  0.79551596463E+02 -0.17194327930E+03  0.25503885127E+03  0.36127795872E+03  0.17200000000E+03 0.  1.
</event>
<event>
 4    1  0.5714562E+000  0.2254301E+03  0.7818608E-02  0.1129898E+00
         21   -1    0    0  503  502  0.00000000000E+00  0.00000000000E+00  0.96383591218E+03  0.96383591218E+03  0.00000000000E+00 0.  1.
         21   -1    0    0  501  503 -0.00000000000E+00 -0.00000000000E+00 -0.58186772643E+02  0.58186772643E+02  0.00000000000E+00 0.  1.
          6    1    1    2  501    0  0.94006915008E+02  0.11134375375E+03  0.29627016708E+03  0.37228314959E+03  0.17200000000E+03 0.  1.
         -6    1    1    2    0  502 -0.94006915008E+02 -0.11134375375E+03  0.60937897246E+03  0.64973953523E+03  0.17200000000E+03 0.  1.
</event>
<event>
 4    1  0.5714562E+000  0.4129530E+03  0.7818608E-02  0.1039385E+00
         21   -1    0    0  501  502  0.00000000000E+00  0.00000000000E+00  0.90240319923E+02  0.90240319923E+02  0.00000000000E+00 0. -1.
         21   -1    0    0  502  503 -0.00000000000E+00 -0.00000000000E+00 -0.18931600613E+04  0.18931600613E+04  0.00000000000E+00 0.  1.
          6    1    1    2  501    0 -0.35546319426E+03 -0.12079791146E+03 -0.94364624902E+03  0.10300477956E+04  0.17200000000E+03 0.  1.
         -6    1    1    2    0  503  0.35546319426E+03  0.12079791146E+03 -0.85927349232E+03  0.95335258561E+03  0.17200000000E+03 0. -1.
</event>
<event>
 4    1  0.5714562E+000  0.1756277E+03  0.7818608E-02  0.1172103E+00
         21   -1    0    0  501  502  0.00000000000E+00  0.00000000000E+00  0.59409592419E+02  0.59409592419E+02  0.00000000000E+00 0.  1.
         21   -1    0    0  502  503 -0.00000000000E+00 -0.00000000000E+00 -0.52462952190E+03  0.52462952190E+03  0.00000000000E+00 0.  1.
          6    1    1    2  501    0  0.84323594323E+01 -0.34496106839E+02 -0.26233471440E+03  0.31569698835E+03  0.17200000000E+03 0.  1.
         -6    1    1    2    0  503 -0.84323594323E+01  0.34496106839E+02 -0.20288521508E+03  0.26834212597E+03  0.17200000000E+03 0.  1.
</event>
<event>
 4    1  0.5714562E+000  0.2617433E+03  0.7818608E-02  0.1106100E+00
         21   -1    0    0  503  502  0.00000000000E+00  0.00000000000E+00  0.13001221199E+04  0.13001221199E+04  0.00000000000E+00 0. -1.
         21   -1    0    0  501  503 -0.00000000000E+00 -0.00000000000E+00 -0.55716502756E+02  0.55716502756E+02  0.00000000000E+00 0.  1.
          6    1    1    2  501    0 -0.40887707214E+02 -0.19301227679E+03  0.78007993730E+03  0.82282091136E+03  0.17200000000E+03 0.  1.
         -6    1    1    2    0  502  0.40887707214E+02  0.19301227679E+03  0.46432567983E+03  0.53301771128E+03  0.17200000000E+03 0. -1.
</event>
<event>
 4    1  0.5714562E+000  0.2234015E+03  0.7818608E-02  0.1131372E+00
         21   -1    0    0  503  502  0.00000000000E+00  0.00000000000E+00  0.17103096868E+03  0.17103096868E+03  0.00000000000E+00 0. -1.
         21   -1    0    0  501  503 -0.00000000000E+00 -0.00000000000E+00 -0.42944435391E+03  0.42944435391E+03  0.00000000000E+00 0. -1.
          6    1    1    2  501    0  0.31590941615E+02  0.13901881130E+03  0.40765620023E+02  0.22709040769E+03  0.17200000000E+03 0. -1.
         -6    1    1    2    0  502 -0.31590941615E+02 -0.13901881130E+03 -0.29917900526E+03  0.37338491490E+03  0.17200000000E+03 0. -1.
</event>
<event>
 4    1  0.5714562E+000  0.2163024E+03  0.7818608E-02  0.1136670E+00
         21   -1    0    0  501  502  0.00000000000E+00  0.00000000000E+00  0.10360842606E+03  0.10360842606E+03  0.00000000000E+00 0.  1.
         21   -1    0    0  502  503 -0.00000000000E+00 -0.00000000000E+00 -0.48863989861E+03  0.48863989861E+03  0.00000000000E+00 0.  1.
          6    1    1    2  501    0 -0.11921765075E+03 -0.54679736091E+02 -0.11095613233E+03  0.24310077147E+03  0.17200000000E+03 0.  1.
         -6    1    1    2    0  503  0.11921765075E+03  0.54679736091E+02 -0.27407534022E+03  0.34914755320E+03  0.17200000000E+03 0.  1.
</event>
<event>
 4    1  0.5714562E+000  0.2740055E+03  0.7818608E-02  0.1099009E+00
         21   -1    0    0  503  502  0.00000000000E+00  0.00000000000E+00  0.13978886782E+04  0.13978886782E+04  0.00000000000E+00 0.  1.
         21   -1    0    0  501  503 -0.00000000000E+00 -0.00000000000E+00 -0.56025790284E+02  0.56025790284E+02  0.00000000000E+00 0.  1.
          6    1    1    2  501    0  0.13499732562E+03  0.16513858906E+03  0.52309901001E+03  0.59051808253E+03  0.17200000000E+03 0.  1.
         -6    1    1    2    0  502 -0.13499732562E+03 -0.16513858906E+03  0.81876387796E+03  0.86339638600E+03  0.17200000000E+03 0.  1.
</event>
<event>
 4    1  0.5714562E+000  0.1928158E+03  0.7818608E-02  0.1155946E+00
         21   -1    0    0  503  502  0.00000000000E+00  0.00000000000E+00  0.66691583513E+03  0.66691583513E+03  0.00000000000E+00 0.  1.
         21   -1    0    0  501  503 -0.00000000000E+00 -0.00000000000E+00 -0.29823631514E+03  0.29823631514E+03  0.00000000000E+00 0.  1.
          6    1    1    2  501    0  0.86891961488E+02 -0.66123102617E+01 -0.25080390217E+03  0.31635507418E+03  0.17200000000E+03 0.  1.
         -6    1    1    2    0  502 -0.86891961488E+02  0.66123102617E+01  0.61948342215E+03  0.64879707609E+03  0.17200000000E+03 0.  1.
</event>
<event>
 4    1  0.5714562E+000  0.2653366E+03  0.7818608E-02  0.1103979E+00
         21   -1    0    0  501  502  0.00000000000E+00  0.00000000000E+00  0.64545711545E+03  0.64545711545E+03  0.00000000000E+00 0. -1.
         21   -1    0    0  502  503 -0.00000000000E+00 -0.00000000000E+00 -0.28745376331E+03  0.28745376331E+03  0.00000000000E+00 0.  1.
          6    1    1    2  501    0  0.61133895861E+02  0.19256722567E+03  0.54645083384E+03  0.60746358198E+03  0.17200000000E+03 0. -1.
         -6    1    1    2    0  503 -0.61133895861E+02 -0.19256722567E+03 -0.18844748170E+03  0.32544729678E+03  0.17200000000E+03 0.  1.
</event>
<event>
 4    1  0.5714562E+000  0.2820848E+03  0.7818608E-02  0.1094556E+00
         21   -1    0    0  501  502  0.00000000000E+00  0.00000000000E+00  0.10289963498E+03  0.10289963498E+03  0.00000000000E+00 0.  1.
         21   -1    0    0  502  503 -0.00000000000E+00 -0.00000000000E+00 -0.10369175058E+04  0.10369175058E+04  0.00000000000E+00 0. -1.
          6    1    1    2  501    0 -0.21273055503E+03 -0.68800767260E+02 -0.17965057616E+03  0.33443409535E+03  0.17200000000E+03 0.  1.
         -6    1    1    2    0  503  0.21273055503E+03  0.68800767260E+02 -0.75436729461E+03  0.80538304538E+03  0.17200000000E+03 0. -1.
</event>
<event>
 4    1  0.5714562E+000  0.1865348E+03  0.7818608E-02  0.1161624E+00
         21   -1    0    0  503  502  0.00000000000E+00  0.00000000000E+00  0.18461130271E+03  0.18461130271E+03  0.00000000000E+00 0. -1.
         21   -1    0    0  501  503 -0.00000000000E+00 -0.00000000000E+00 -0.42246084550E+03  0.42246084550E+03  0.00000000000E+00 0. -1.
          6    1    1    2  501    0  0.59057289921E+02 -0.41514597424E+02 -0.34482091008E+03  0.39204168825E+03  0.17200000000E+03 0. -1.
         -6    1    1    2    0  502 -0.59057289921E+02  0.41514597424E+02  0.10697136729E+03  0.21503045997E+03  0.17200000000E+03 0. -1.
</event>
<event>
 4    1  0.5714562E+000  0.1986202E+03  0.7818608E-02  0.1150908E+00
         21   -1    0    0  501  502  0.00000000000E+00  0.00000000000E+00  0.11872081542E+03  0.11872081542E+03  0.00000000000E+00 0.  1.
         21   -1    0    0  502  503 -0.00000000000E+00 -0.00000000000E+00 -0.48352306673E+03  0.48352306673E+03  0.00000000000E+00 0.  1.
          6    1    1    2  501    0  0.10532111212E+02 -0.98767717816E+02 -0.13996434018E+02  0.19911275101E+03  0.17200000000E+03 0.  1.
         -6    1    1    2    0  503 -0.10532111212E+02  0.98767717816E+02 -0.35080581729E+03  0.40313113114E+03  0.17200000000E+03 0.  1.
</event>
<event>
 4    1  0.5714562E+000  0.1776493E+03  0.7818608E-02  0.1170098E+00
         21   -1    0    0  501  502  0.00000000000E+00  0.00000000000E+00  0.43954212718E+02  0.43954212718E+02  0.00000000000E+00 0.  1.
         21   -1    0    0  502  503 -0.00000000000E+00 -0.00000000000E+00 -0.82476892219E+03  0.82476892219E+03  0.00000000000E+00 0.  1.
          6    1    1    2  501    0  0.17890957319E+02 -0.40683981039E+02 -0.23412827984E+03  0.29389679156E+03  0.17200000000E+03 0.  1.
         -6    1    1    2    0  503 -0.17890957319E+02  0.40683981039E+02 -0.54668642963E+03  0.57482634335E+03  0.17200000000E+03 0.  1.
</event>
<event>
 4    1  0.5714562E+000  0.1746789E+03  0.7818608E-02  0.1173054E+00
         21   -1    0    0  501  502  0.00000000000E+00  0.00000000000E+00  0.38385443843E+02  0.38385443843E+02  0.00000000000E+00 0.  1.
         21   -1    0    0  502  503 -0.00000000000E+00 -0.00000000000E+00 -0.87278933101E+03  0.87278933101E+03  0.00000000000E+00 0. -1.
          6    1    1    2  501    0  0.29800512180E+02  0.63759617226E+01 -0.28110567286E+03  0.33095788663E+03  0.17200000000E+03 0.  1.
         -6    1    1    2    0  503 -0.29800512180E+02 -0.63759617226E+01 -0.55329821431E+03  0.58021688822E+03  0.17200000000E+03 0. -1.
</event>
<event>
 4    1  0.5714562E+000  0.1961921E+03  0.7818608E-02  0.1152992E+00
         21   -1    0    0  501  502  0.00000000000E+00  0.00000000000E+00  0.11069161394E+04  0.11069161394E+04  0.00000000000E+00 0.  1.
         21   -1    0    0  502  503 -0.00000000000E+00 -0.00000000000E+00 -0.35879835133E+02  0.35879835133E+02  0.00000000000E+00 0.  1.
          6    1    1    2  501    0 -0.29892900637E+02  0.89519502683E+02  0.43518125843E+03  0.47736155538E+03  0.17200000000E+03 0.  1.
         -6    1    1    2    0  503  0.29892900637E+02 -0.89519502683E+02  0.63585504579E+03  0.66543441911E+03  0.17200000000E+03 0.  1.
</event>
<event>
 4    1  0.5714562E+000  0.1749609E+03  0.7818608E-02  0.1172771E+00
         21   -1    0    0  501  502  0.00000000000E+00  0.00000000000E+00  0.17664928528E+04  0.17664928528E+04  0.00000000000E+00 0.  1.
         21   -1    0    0  502  503 -0.00000000000E+00 -0.00000000000E+00 -0.17366006539E+02  0.17366006539E+02  0.00000000000E+00 0. -1.
          6    1    1    2  501    0  0.28729650570E+02  0.14209982780E+02  0.83331478691E+03  0.85148391090E+03  0.17200000000E+03 0. -1.
         -6    1    1    2    0  503 -0.28729650570E+02 -0.14209982780E+02  0.91581205937E+03  0.93237494846E+03  0.17200000000E+03 0.  1.
</event>
<event>
 4    1  0.5714562E+000  0.1736207E+03  0.7818608E-02  0.1174124E+00
         21   -1    0    0  503  502  0.00000000000E+00  0.00000000000E+00  0.94997224187E+03  0.94997224187E+03  0.00000000000E+00 0. -1.
         21   -1    0    0  501  503 -0.00000000000E+00 -0.00000000000E+00 -0.36998608937E+02  0.36998608937E+02  0.00000000000E+00 0.  1.
          6    1    1    2  501    0 -0.10370885711E+02  0.21274474499E+02  0.64267958983E+03  0.66571856945E+03  0.17200000000E+03 0. -1.
         -6    1    1    2    0  502  0.10370885711E+02 -0.21274474499E+02  0.27029404311E+03  0.32125228135E+03  0.17200000000E+03 0.  1.
</event>
<event>
 4    1  0.5714562E+000  0.2020413E+03  0.7818608E-02  0.1148028E+00
         21   -1    0    0  501  502  0.00000000000E+00  0.00000000000E+00  0.34830709054E+03  0.34830709054E+03  0.00000000000E+00 0. -1.
         21   -1    0    0  502  503 -0.00000000000E+00 -0.00000000000E+00 -0.14264382463E+03  0.14264382463E+03  0.00000000000E+00 0. -1.
          6    1    1    2  501    0  0.20555743342E+01  0.10598330004E+03  0.20651163075E+03  0.28890783809E+03  0.17200000000E+03 0. -1.
         -6    1    1    2    0  503 -0.20555743342E+01 -0.10598330004E+03 -0.84836484147E+00  0.20204307708E+03  0.17200000000E+03 0. -1.
</event>
<event>
 4    1  0.5714562E+000  0.2378612E+03  0.7818608E-02  0.1121226E+00
         21   -1    0    0  501  502  0.00000000000E+00  0.00000000000E+00  0.40970358935E+02  0.40970358935E+02  0.00000000000E+00 0.  1.
         21   -1    0    0  502  503 -0.00000000000E+00 -0.00000000000E+00 -0.14028455725E+04  0.14028455725E+04  0.00000000000E+00 0.  1.
          6    1    1    2  501    0 -0.15800380502E+03 -0.45041546113E+02 -0.59074458454E+03  0.63683365759E+03  0.17200000000E+03 0.  1.
         -6    1    1    2    0  503  0.15800380502E+03  0.45041546113E+02 -0.77113062903E+03  0.80698227385E+03  0.17200000000E+03 0.  1.
</event>
<event>
 4    1  0.5714562E+000  0.1729740E+03  0.7818608E-02  0.1174781E+00
         21   -1    0    0  501  502  0.00000000000E+00  0.00000000000E+00  0.13717766315E+03  0.13717766315E+03  0.00000000000E+00 0. -1.
         21   -1    0    0  502  503 -0.00000000000E+00 -0.00000000000E+00 -0.26094213599E+03  0.26094213599E+03  0.00000000000E+00 0. -1.
          6    1    1    2  501    0 -0.15687305858E+02  0.94830977938E+01  0.18764932586E+02  0.17398891747E+03  0.17200000000E+03 0. -1.
         -6    1    1    2    0  503  0.15687305858E+02 -0.94830977938E+01 -0.14252940542E+03  0.22413088167E+03  0.17200000000E+03 0. -1.
</event>
<event>
 4    1  0.5714562E+000  0.2575754E+03  0.7818608E-02  0.1108609E+00
         21   -1    0    0  503  502  0.00000000000E+00  0.00000000000E+00  0.10267991958E+04  0.10267991958E+04  0.00000000000E+00 0.  1.
         21   -1    0    0  501  503 -0.00000000000E+00 -0.00000000000E+00 -0.10586341189E+03  0.10586341189E+03  0.00000000000E+00 0.  1.
          6    1    1    2  501    0 -0.19137897635E+03 -0.11627226691E+02  0.10695190434E+03  0.27889749879E+03  0.17200000000E+03 0.  1.
         -6    1    1    2    0  502  0.19137897635E+03  0.11627226691E+02  0.81398387962E+03  0.85376510895E+03  0.17200000000E+03 0.  1.
</event>
<event>
 4    1  0.5714562E+000  0.2092537E+03  0.7818608E-02  0.1142158E+00
         21   -1    0    0  503  502  0.00000000000E+00  0.00000000000E+00  0.22442430562E+03  0.22442430562E+03  0.00000000000E+00 0.  1.
         21   -1    0    0  501  503 -0.00000000000E+00 -0.00000000000E+00 -0.21132997331E+03  0.21132997331E+03  0.00000000000E+00 0. -1.
          6    1    1    2  501    0 -0.78804884115E+02 -0.89402976362E+02 -0.53816489018E+02  0.21606322323E+03  0.17200000000E+03 0. -1.
         -6    1    1    2    0  502  0.78804884115E+02  0.89402976362E+02  0.66910821334E+02  0.21969105570E+03  0.17200000000E+03 0.  1.
</event>
<event>
 4    1  0.5714562E+000  0.1931925E+03  0.7818608E-02  0.1155613E+00
         21   -1    0    0  503  502  0.00000000000E+00  0.00000000000E+00  0.33399354905E+02  0.33399354905E+02  0.00000000000E+00 0. -1.
         21   -1    0    0  501  503 -0.00000000000E+00 -0.00000000000E+00 -0.11666355435E+04  0.11666355435E+04  0.00000000000E+00 0. -1.
          6    1    1    2  501    0 -0.57904247256E+02  0.66230243451E+02 -0.44346329838E+03  0.48371793848E+03  0.17200000000E+03 0. -1.
         -6    1    1    2    0  502  0.57904247256E+02 -0.66230243451E+02 -0.68977289020E+03  0.71631695991E+03  0.17200000000E+03 0. -1.
</event>
<event>
 4    1  0.5714562E+000  0.1774326E+03  0.7818608E-02  0.1170311E+00
         21   -1    0    0  503  502  0.00000000000E+00  0.00000000000E+00  0.77984380431E+03  0.77984380431E+03  0.00000000000E+00 0.  1.
         21   -1    0    0  501  503 -0.00000000000E+00 -0.00000000000E+00 -0.23012829260E+03  0.23012829260E+03  0.00000000000E+00 0.  1.
          6    1    1    2  501    0  0.39395875529E+02 -0.18608884545E+02 -0.18370070217E+03  0.25539826462E+03  0.17200000000E+03 0.  1.
         -6    1    1    2    0  502 -0.39395875529E+02  0.18608884545E+02  0.73341621388E+03  0.75457383229E+03  0.17200000000E+03 0.  1.
</event>
<event>
 4    1  0.5714562E+000  0.2063359E+03  0.7818608E-02  0.1144501E+00
         21   -1    0    0  501  502  0.00000000000E+00  0.00000000000E+00  0.24057113936E+03  0.24057113936E+03  0.00000000000E+00 0. -1.
         21   -1    0    0  502  503 -0.00000000000E+00 -0.00000000000E+00 -0.17896713210E+03  0.17896713210E+03  0.00000000000E+00 0. -1.
          6    1    1    2  501    0 -0.96711714362E+02 -0.60310513509E+02  0.52946675883E+02  0.21302080702E+03  0.17200000000E+03 0. -1.
         -6    1    1    2    0  503  0.96711714362E+02  0.60310513509E+02  0.86573313853E+01  0.20651746445E+03  0.17200000000E+03 0. -1.
</event>
<event>
 4    1  0.5714562E+000  0.2232884E+03  0.7818608E-02  0.1131455E+00
         21   -1    0    0  503  502  0.00000000000E+00  0.00000000000E+00  0.52253323597E+03  0.52253323597E+03  0.00000000000E+00 0.  1.
         21   -1    0    0  501  503 -0.00000000000E+00 -0.00000000000E+00 -0.13532176085E+03  0.13532176085E+03  0.00000000000E+00 0. -1.
          6    1    1    2  501    0 -0.12798647135E+03 -0.62395171984E+02  0.14982618683E+02  0.22379046718E+03  0.17200000000E+03 0. -1.
         -6    1    1    2    0  502  0.12798647135E+03  0.62395171984E+02  0.37222885643E+03  0.43406452964E+03  0.17200000000E+03 0.  1.
</event>
<event>
 4    1  0.5714562E+000  0.1801529E+03  0.7818608E-02  0.1167655E+00
         21   -1    0    0  501  502  0.00000000000E+00  0.00000000000E+00  0.11526426151E+03  0.11526426151E+03  0.00000000000E+00 0. -1.
         21   -1    0    0  502  503 -0.00000000000E+00 -0.00000000000E+00 -0.30860741467E+03  0.30860741467E+03  0.00000000000E+00 0. -1.
          6    1    1    2  501    0  0.16673809662E+02 -0.50922162110E+02 -0.15940155463E+03  0.24054924266E+03  0.17200000000E+03 0. -1.
         -6    1    1    2    0  503 -0.16673809662E+02  0.50922162110E+02 -0.33941598528E+02  0.18332243352E+03  0.17200000000E+03 0. -1.
</event>
<event>
 4    1  0.5714562E+000  0.2037386E+03  0.7818608E-02  0.1146622E+00
         21   -1    0    0  503  502  0.00000000000E+00  0.00000000000E+00  0.13993060936E+03  0.13993060936E+03  0.00000000000E+00 0.  1.
         21   -1    0    0  501  503 -0.00000000000E+00 -0.00000000000E+00 -0.11365079077E+04  0.11365079077E+04  0.00000000000E+00 0.  1.
          6    1    1    2  501    0 -0.47544046484E+02 -0.98310733394E+02 -0.10469298144E+04  0.10665699569E+04  0.17200000000E+03 0.  1.
         -6    1    1    2    0  502  0.47544046484E+02  0.98310733394E+02  0.50352516091E+02  0.20986856014E+03  0.17200000000E+03 0.  1.
</event>
<event>
 4    1  0.5714562E+000  0.1987296E+03  0.7818608E-02  0.1150815E+00
         21   -1    0    0  503  502  0.00000000000E+00  0.00000000000E+00  0.29908490750E+02  0.29908490750E+02  0.00000000000E+00 0. -1.
         21   -1    0    0  501  503 -0.00000000000E+00 -0.00000000000E+00 -0.18716568844E+04  0.18716568844E+04  0.00000000000E+00 0. -1.
          6    1    1    2  501    0  0.38180965474E+02  0.91932908630E+02 -0.14368332059E+04  0.14505113262E+04  0.17200000000E+03 0. -1.
         -6    1    1    2    0  502 -0.38180965474E+02 -0.91932908630E+02 -0.40491518772E+03  0.45105404893E+03  0.17200000000E+03 0. -1.
</event>
<event>
 4    1  0.5714562E+000  0.4316508E+03  0.7818608E-02  0.1033340E+00
         21   -1    0    0  501  502  0.00000000000E+00  0.00000000000E+00  0.68684962903E+03  0.68684962903E+03  0.00000000000E+00 0. -1.
         21   -1    0    0  502  503 -0.00000000000E+00 -0.00000000000E+00 -0.29959912705E+03  0.29959912705E+03  0.00000000000E+00 0.  1.
          6    1    1    2  501    0 -0.21914472803E+03 -0.32971811642E+03  0.41961254310E+02  0.43368559462E+03  0.17200000000E+03 0. -1.
         -6    1    1    2    0  503  0.21914472803E+03  0.32971811642E+03  0.34528924766E+03  0.55276316146E+03  0.17200000000E+03 0. -1.
</event>
<event>
 4    1  0.5714562E+000  0.1728348E+03  0.7818608E-02  0.1174923E+00
         21   -1    0    0  501  502  0.00000000000E+00  0.00000000000E+00  0.23485251324E+03  0.23485251324E+03  0.00000000000E+00 0. -1.
         21   -1    0    0  502  503 -0.00000000000E+00 -0.00000000000E+00 -0.63029285716E+03  0.63029285716E+03  0.00000000000E+00 0. -1.
          6    1    1    2  501    0 -0.15040319792E+02  0.78532664624E+01  0.18874865152E+03  0.25592565026E+03  0.17200000000E+03 0. -1.
         -6    1    1    2    0  503  0.15040319792E+02 -0.78532664624E+01 -0.58418899544E+03  0.60921972014E+03  0.17200000000E+03 0. -1.
</event>
<event>
 4    1  0.5714562E+000  0.2350700E+03  0.7818608E-02  0.1123121E+00
         21   -1    0    0  503  502  0.00000000000E+00  0.00000000000E+00  0.17091218849E+03  0.17091218849E+03  0.00000000000E+00 0. -1.
         21   -1    0    0  501  503 -0.00000000000E+00 -0.00000000000E+00 -0.41419035433E+03  0.41419035433E+03  0.00000000000E+00 0.  1.
          6    1    1    2  501    0 -0.11922274533E+03  0.10705075076E+03 -0.25867446631E+03  0.34952883395E+03  0.17200000000E+03 0.  1.
         -6    1    1    2    0  502  0.11922274533E+03 -0.10705075076E+03  0.15396300462E+02  0.23557370887E+03  0.17200000000E+03 0. -1.
</event>
<event>
 4    1  0.5714562E+000  0.2347412E+03  0.7818608E-02  0.1123346E+00
         21   -1    0    0  503  502  0.00000000000E+00  0.00000000000E+00  0.12722909900E+03  0.12722909900E+03  0.00000000000E+00 0.  1.
         21   -1    0    0  501  503 -0.00000000000E+00 -0.00000000000E+00 -0.43754240430E+03  0.43754240430E+03  0.00000000000E+00 0.  1.
          6    1    1    2  501    0 -0.25563349212E+02 -0.15768945787E+03 -0.18359727633E+03  0.29801243233E+03  0.17200000000E+03 0.  1.
         -6    1    1    2    0  502  0.25563349212E+02  0.15768945787E+03 -0.12671602898E+03  0.26675907097E+03  0.17200000000E+03 0.  1.
</event>
<event>
 4    1  0.5714562E+000  0.1948229E+03  0.7818608E-02  0.1154182E+00
         21   -1    0    0  501  502  0.00000000000E+00  0.00000000000E+00  0.64709430342E+02  0.64709430342E+02  0.00000000000E+00 0.  1.
         21   -1    0    0  502  503 -0.00000000000E+00 -0.00000000000E+00 -0.58840777023E+03  0.58840777023E+03  0.00000000000E+00 0.  1.
          6    1    1    2  501    0  0.29422589826E+02 -0.86638676692E+02 -0.24354828859E+03  0.31188414190E+03  0.17200000000E+03 0.  1.
         -6    1    1    2    0  503 -0.29422589826E+02  0.86638676692E+02 -0.28015005129E+03  0.34123305867E+03  0.17200000000E+03 0.  1.
</event>
<event>
 4    1  0.5714562E+000  0.1890116E+03  0.7818608E-02  0.1159356E+00
         21   -1    0    0  501  502  0.00000000000E+00  0.00000000000E+00  0.28576633723E+03  0.28576633723E+03  0.00000000000E+00 0. -1.
         21   -1    0    0  502  503 -0.00000000000E+00 -0.00000000000E+00 -0.25652634581E+03  0.25652634581E+03  0.00000000000E+00 0. -1.
          6    1    1    2  501    0  0.93266441167E+01  0.77810077593E+02  0.20876112339E+03  0.28161427717E+03  0.17200000000E+03 0. -1.
         -6    1    1    2    0  503 -0.93266441167E+01 -0.77810077593E+02 -0.17952113197E+03  0.26067840587E+03  0.17200000000E+03 0. -1.
</event>
<event>
 4    1  0.5714562E+000  0.2099115E+03  0.7818608E-02  0.1141636E+00
         21   -1    0    0  503  502  0.00000000000E+00  0.00000000000E+00  0.11870848850E+04  0.11870848850E+04  0.00000000000E+00 0. -1.
         21   -1    0    0  501  503 -0.00000000000E+00 -0.00000000000E+00 -0.37327770773E+02  0.37327770773E+02  0.00000000000E+00 0.  1.
          6    1    1    2  501    0  0.87905318326E+02 -0.82167568845E+02  0.62071359148E+03  0.65524668409E+03  0.17200000000E+03 0. -1.
         -6    1    1    2    0  502 -0.87905318326E+02  0.82167568845E+02  0.52904352271E+03  0.56916597165E+03  0.17200000000E+03 0. -1.
</event>
<event>
 4    1  0.5714562E+000  0.1911700E+03  0.7818608E-02  0.1157410E+00
         21   -1    0    0  501  502  0.00000000000E+00  0.00000000000E+00  0.47478881029E+03  0.47478881029E+03  0.00000000000E+00 0.  1.
         21   -1    0    0  502  503 -0.00000000000E+00 -0.00000000000E+00 -0.10335248764E+03  0.10335248764E+03  0.00000000000E+00 0. -1.
          6    1    1    2  501    0 -0.46653284527E+01 -0.83307809331E+02  0.33175958629E+03  0.38289734849E+03  0.17200000000E+03 0.  1.
         -6    1    1    2    0  503  0.46653284527E+01  0.83307809331E+02  0.39676736365E+02  0.19524394944E+03  0.17200000000E+03 0. -1.
</event>
<event>
 4    1  0.5714562E+000  0.1971544E+03  0.7818608E-02  0.1152162E+00
         21   -1    0    0  503  502  0.00000000000E+00  0.00000000000E+00  0.16683136548E+03  0.16683136548E+03  0.00000000000E+00 0.  1.
         21   -1    0    0  501  503 -0.00000000000E+00 -0.00000000000E+00 -0.23298937545E+03  0.23298937545E+03  0.00000000000E+00 0.  1.
          6    1    1    2  501    0 -0.22628906070E+02  0.93668598443E+02 -0.32826678763E+02  0.19986861825E+03  0.17200000000E+03 0.  1.
         -6    1    1    2    0  502  0.22628906070E+02 -0.93668598443E+02 -0.33331331205E+02  0.19995212268E+03  0.17200000000E+03 0.  1.
</event>
<event>
 4    1  0.5714562E+000  0.1782144E+03  0.7818608E-02  0.1169542E+00
         21   -1    0    0  501  502  0.00000000000E+00  0.00000000000E+00  0.58174669552E+02  0.58174669552E+02  0.00000000000E+00 0.  1.
         21   -1    0    0  502  503 -0.00000000000E+00 -0.00000000000E+00 -0.54596172476E+03  0.54596172476E+03  0.00000000000E+00 0.  1.
          6    1    1    2  501    0  0.47797658825E+01 -0.46405958423E+02 -0.24539409638E+03  0.30327977460E+03  0.17200000000E+03 0. -1.
         -6    1    1    2    0  503 -0.47797658825E+01  0.46405958423E+02 -0.24239295883E+03  0.30085661972E+03  0.17200000000E+03 0. -1.
</event>
<event>
 4    1  0.5714562E+000  0.2017977E+03  0.7818608E-02  0.1148231E+00
         21   -1    0    0  503  502  0.00000000000E+00  0.00000000000E+00  0.34325700562E+03  0.34325700562E+03  0.00000000000E+00 0. -1.
         21   -1    0    0  501  503 -0.00000000000E+00 -0.00000000000E+00 -0.13410159860E+03  0.13410159860E+03  0.00000000000E+00 0. -1.
          6    1    1    2  501    0 -0.73038081619E+02  0.76182369242E+02  0.23519985032E+02  0.20316373802E+03  0.17200000000E+03 0.  1.
         -6    1    1    2    0  502  0.73038081619E+02 -0.76182369242E+02  0.18563542199E+03  0.27419486619E+03  0.17200000000E+03 0.  1.
</event>
<event>
 4    1  0.5714562E+000  0.1934860E+03  0.7818608E-02  0.1155354E+00
         21   -1    0    0  503  502  0.00000000000E+00  0.00000000000E+00  0.85609437581E+02  0.85609437581E+02  0.00000000000E+00 0.  1.
         21   -1    0    0  501  503 -0.00000000000E+00 -0.00000000000E+00 -0.56845770063E+03  0.56845770063E+03  0.00000000000E+00 0.  1.
          6    1    1    2  501    0 -0.82431261276E+02  0.32525840947E+02 -0.39851224483E+03  0.44299983346E+03  0.17200000000E+03 0.  1.
         -6    1    1    2    0  502  0.82431261276E+02 -0.32525840947E+02 -0.84336018214E+02  0.21106730475E+03  0.17200000000E+03 0.  1.
</event>
<event>
 4    1  0.5714562E+000  0.2326950E+03  0.7818608E-02  0.1124757E+00
         21   -1    0    0  503  502  0.00000000000E+00  0.00000000000E+00  0.34353719941E+03  0.34353719941E+03  0.00000000000E+00 0.  1.
         21   -1    0    0  501  503 -0.00000000000E+00 -0.00000000000E+00 -0.15775358924E+03  0.15775358924E+03  0.00000000000E+00 0. -1.
          6    1    1    2  501    0  0.14263073734E+03 -0.64957087903E+02  0.85488896326E+02  0.24790179890E+03  0.17200000000E+03 0. -1.
         -6    1    1    2    0  502 -0.14263073734E+03  0.64957087903E+02  0.10029471384E+03  0.25338898975E+03  0.17200000000E+03 0.  1.
</event>
<event>
 4    1  0.5714562E+000  0.2160703E+03  0.7818608E-02  0.1136847E+00
         21   -1    0    0  503  502  0.00000000000E+00  0.00000000000E+00  0.17339658332E+03  0.17339658332E+03  0.00000000000E+00 0.  1.
         21   -1    0    0  501  503 -0.00000000000E+00 -0.00000000000E+00 -0.87648310579E+03  0.87648310579E+03  0.00000000000E+00 0.  1.
          6    1    1    2  501    0  0.64809053565E+02 -0.11358763524E+03 -0.78847828378E+03  0.81754777738E+03  0.17200000000E+03 0.  1.
         -6    1    1    2    0  502 -0.64809053565E+02  0.11358763524E+03  0.85391761313E+02  0.23233191172E+03  0.17200000000E+03 0.  1.
</event>
<event>
 4    1  0.5714562E+000  0.1809671E+03  0.7818608E-02  0.1166870E+00
         21   -1    0    0  501  502  0.00000000000E+00  0.00000000000E+00  0.27052548816E+02  0.27052548816E+02  0.00000000000E+00 0.  1.
         21   -1    0    0  502  503 -0.00000000000E+00 -0.00000000000E+00 -0.13513350472E+04  0.13513350472E+04  0.00000000000E+00 0.  1.
          6    1    1    2  501    0 -0.54846200203E+02 -0.12529158413E+02 -0.43970651257E+03  0.47549017096E+03  0.17200000000E+03 0.  1.
         -6    1    1    2    0  503  0.54846200203E+02  0.12529158413E+02 -0.88457598587E+03  0.90289742510E+03  0.17200000000E+03 0.  1.
</event>
<event>
 4    1  0.5714562E+000  0.2036477E+03  0.7818608E-02  0.1146697E+00
         21   -1    0    0  503  502  0.00000000000E+00  0.00000000000E+00  0.16279778584E+03  0.16279778584E+03  0.00000000000E+00 0. -1.
         21   -1    0    0  501  503 -0.00000000000E+00 -0.00000000000E+00 -0.27150023877E+03  0.27150023877E+03  0.00000000000E+00 0. -1.
          6    1    1    2  501    0 -0.99994345067E+02 -0.43468804796E+02 -0.41140299805E+00  0.20364816544E+03  0.17200000000E+03 0. -1.
         -6    1    1    2    0  502  0.99994345067E+02  0.43468804796E+02 -0.10829104993E+03  0.23064985916E+03  0.17200000000E+03 0. -1.
</event>
<event>
 4    1  0.5714562E+000  0.2002170E+03  0.7818608E-02  0.1149556E+00
         21   -1    0    0  503  502  0.00000000000E+00  0.00000000000E+00  0.70122567508E+03  0.70122567508E+03  0.00000000000E+00 0. -1.
         21   -1    0    0  501  503 -0.00000000000E+00 -0.00000000000E+00 -0.15659685337E+03  0.15659685337E+03  0.00000000000E+00 0. -1.
          6    1    1    2  501    0  0.10246596269E+03 -0.18924276075E+01  0.61408500151E+03  0.64590033587E+03  0.17200000000E+03 0. -1.
         -6    1    1    2    0  502 -0.10246596269E+03  0.18924276075E+01 -0.69456179804E+02  0.21192219257E+03  0.17200000000E+03 0. -1.
</event>
<event>
 4    1  0.5714562E+000  0.1859517E+03  0.7818608E-02  0.1162164E+00
         21   -1    0    0  501  502  0.00000000000E+00  0.00000000000E+00  0.19970806839E+03  0.19970806839E+03  0.00000000000E+00 0.  1.
         21   -1    0    0  502  503 -0.00000000000E+00 -0.00000000000E+00 -0.17490714372E+03  0.17490714372E+03  0.00000000000E+00 0.  1.
          6    1    1    2  501    0  0.69844913490E+02  0.10757742865E+02 -0.64111795789E+01  0.18606220518E+03  0.17200000000E+03 0.  1.
         -6    1    1    2    0  503 -0.69844913490E+02 -0.10757742865E+02  0.31212104244E+02  0.18855300693E+03  0.17200000000E+03 0.  1.
</event>
<event>
 4    1  0.5714562E+000  0.1752416E+03  0.7818608E-02  0.1172489E+00
         21   -1    0    0  501  502  0.00000000000E+00  0.00000000000E+00  0.82444217540E+01  0.82444217540E+01  0.00000000000E+00 0. -1.
         21   -1    0    0  502  503 -0.00000000000E+00 -0.00000000000E+00 -0.38034588549E+04  0.38034588549E+04  0.00000000000E+00 0. -1.
          6    1    1    2  501    0 -0.11828638638E+02 -0.31395695178E+02 -0.16236953886E+04  0.16331247109E+04  0.17200000000E+03 0.  1.
         -6    1    1    2    0  503  0.11828638638E+02  0.31395695178E+02 -0.21715190445E+04  0.21785785657E+04  0.17200000000E+03 0.  1.
</event>
<event>
 4    1  0.5714562E+000  0.2052848E+03  0.7818608E-02  0.1145355E+00
         21   -1    0    0  501  502  0.00000000000E+00  0.00000000000E+00  0.70174453116E+03  0.70174453116E+03  0.00000000000E+00 0.  1.
         21   -1    0    0  502  503 -0.00000000000E+00 -0.00000000000E+00 -0.64165673524E+02  0.64165673524E+02  0.00000000000E+00 0.  1.
          6    1    1    2  501    0 -0.69951236039E+02  0.87548057419E+02  0.22183657506E+03  0.30224709067E+03  0.17200000000E+03 0.  1.
         -6    1    1    2    0  503  0.69951236039E+02 -0.87548057419E+02  0.41574228257E+03  0.46366311402E+03  0.17200000000E+03 0.  1.
</event>
<event>
 4    1  0.5714562E+000  0.2259472E+03  0.7818608E-02  0.1129525E+00
         21   -1    0    0  503  502  0.00000000000E+00  0.00000000000E+00  0.15236404488E+03  0.15236404488E+03  0.00000000000E+00 0.  1.
         21   -1    0    0  501  503 -0.00000000000E+00 -0.00000000000E+00 -0.38641391469E+03  0.38641391469E+03  0.00000000000E+00 0. -1.
          6    1    1    2  501    0  0.12740867995E+03  0.72354310323E+02 -0.21522502493E+03  0.31204795994E+03  0.17200000000E+03 0.  1.
         -6    1    1    2    0  502 -0.12740867995E+03 -0.72354310323E+02 -0.18824844886E+02  0.22672999963E+03  0.17200000000E+03 0.  1.
</event>
<event>
 4    1  0.5714562E+000  0.1888519E+03  0.7818608E-02  0.1159501E+00
         21   -1    0    0  503  502  0.00000000000E+00  0.00000000000E+00  0.72772506879E+02  0.72772506879E+02  0.00000000000E+00 0.  1.
         21   -1    0    0  501  503 -0.00000000000E+00 -0.00000000000E+00 -0.82889011384E+03  0.82889011384E+03  0.00000000000E+00 0. -1.
          6    1    1    2  501    0 -0.76344548249E+02  0.15892414152E+02 -0.66628770839E+03  0.69253474225E+03  0.17200000000E+03 0. -1.
         -6    1    1    2    0  502  0.76344548249E+02 -0.15892414152E+02 -0.89829898572E+02  0.20912787847E+03  0.17200000000E+03 0.  1.
</event>
<event>
 4    1  0.5714562E+000  0.1798674E+03  0.7818608E-02  0.1167931E+00
         21   -1    0    0  501  502  0.00000000000E+00  0.00000000000E+00  0.87317168486E+02  0.87317168486E+02  0.00000000000E+00 0. -1.
         21   -1    0    0  502  503 -0.00000000000E+00 -0.00000000000E+00 -0.55296412591E+03  0.55296412591E+03  0.00000000000E+00 0. -1.
          6    1    1    2  501    0  0.48078998552E+02  0.21370136611E+02 -0.48931034305E+02  0.18640418171E+03  0.17200000000E+03 0. -1.
         -6    1    1    2    0  503 -0.48078998552E+02 -0.21370136611E+02 -0.41671592312E+03  0.45387711269E+03  0.17200000000E+03 0. -1.
</event>
<event>
 4    1  0.5714562E+000  0.2148354E+03  0.7818608E-02  0.1137793E+00
         21   -1    0    0  503  502  0.00000000000E+00  0.00000000000E+00  0.45848875021E+03  0.45848875021E+03  0.00000000000E+00 0. -1.
         21   -1    0    0  501  503 -0.00000000000E+00 -0.00000000000E+00 -0.12125176275E+03  0.12125176275E+03  0.00000000000E+00 0. -1.
          6    1    1    2  501    0 -0.35647624433E+02  0.12369112023E+03  0.49180446046E+02  0.22039274631E+03  0.17200000000E+03 0.  1.
         -6    1    1    2    0  502  0.35647624433E+02 -0.12369112023E+03  0.28805654142E+03  0.35934776666E+03  0.17200000000E+03 0.  1.
</event>
<event>
 4    1  0.5714562E+000  0.2238858E+03  0.7818608E-02  0.1131019E+00
         21   -1    0    0  503  502  0.00000000000E+00  0.00000000000E+00  0.47780733792E+02  0.47780733792E+02  0.00000000000E+00 0.  1.
         21   -1    0    0  501  503 -0.00000000000E+00 -0.00000000000E+00 -0.15293330155E+04  0.15293330155E+04  0.00000000000E+00 0. -1.
          6    1    1    2  501    0  0.12624695296E+03 -0.67842066491E+02 -0.11826784272E+04  0.12036831399E+04  0.17200000000E+03 0. -1.
         -6    1    1    2    0  502 -0.12624695296E+03  0.67842066491E+02 -0.29887385448E+03  0.37343060936E+03  0.17200000000E+03 0.  1.
</event>
<event>
 4    1  0.5714562E+000  0.1729448E+03  0.7818608E-02  0.1174811E+00
         21   -1    0    0  503  502  0.00000000000E+00  0.00000000000E+00  0.23055596816E+03  0.23055596816E+03  0.00000000000E+00 0. -1.
         21   -1    0    0  501  503 -0.00000000000E+00 -0.00000000000E+00 -0.12989076614E+03  0.12989076614E+03  0.00000000000E+00 0. -1.
          6    1    1    2  501    0 -0.17580074774E+02 -0.41039095593E+01  0.56683690995E+02  0.18199709318E+03  0.17200000000E+03 0.  1.
         -6    1    1    2    0  502  0.17580074774E+02  0.41039095593E+01  0.43981511022E+02  0.17844964112E+03  0.17200000000E+03 0.  1.
</event>
<event>
 4    1  0.5714562E+000  0.1766452E+03  0.7818608E-02  0.1171090E+00
         21   -1    0    0  503  502  0.00000000000E+00  0.00000000000E+00  0.40415167448E+03  0.40415167448E+03  0.00000000000E+00 0. -1.
         21   -1    0    0  501  503 -0.00000000000E+00 -0.00000000000E+00 -0.11820230658E+03  0.11820230658E+03  0.00000000000E+00 0. -1.
          6    1    1    2  501    0  0.40110738621E+02  0.32651219075E+01 -0.10835985986E+02  0.17697726116E+03  0.17200000000E+03 0. -1.
         -6    1    1    2    0  502 -0.40110738621E+02 -0.32651219075E+01  0.29678535388E+03  0.34537671991E+03  0.17200000000E+03 0. -1.
</event>
<event>
 4    1  0.5714562E+000  0.1792498E+03  0.7818608E-02  0.1168531E+00
         21   -1    0    0  503  502  0.00000000000E+00  0.00000000000E+00  0.14014387626E+04  0.14014387626E+04  0.00000000000E+00 0. -1.
         21   -1    0    0  501  503 -0.00000000000E+00 -0.00000000000E+00 -0.12154131311E+03  0.12154131311E+03  0.00000000000E+00 0. -1.
          6    1    1    2  501    0  0.12762974896E+02  0.48821990295E+02 -0.45970100299E+02  0.18505061574E+03  0.17200000000E+03 0. -1.
         -6    1    1    2    0  502 -0.12762974896E+02 -0.48821990295E+02  0.13258675498E+04  0.13379294600E+04  0.17200000000E+03 0. -1.
</event>
<event>
 4    1  0.5714562E+000  0.1744437E+03  0.7818608E-02  0.1173291E+00
         21   -1    0    0  501  502  0.00000000000E+00  0.00000000000E+00  0.12283121132E+04  0.12283121132E+04  0.00000000000E+00 0.  1.
         21   -1    0    0  502  503 -0.00000000000E+00 -0.00000000000E+00 -0.27884042845E+02  0.27884042845E+02  0.00000000000E+00 0.  1.
          6    1    1    2  501    0  0.24205809676E+02  0.16145720677E+02  0.80996789991E+03  0.82854004393E+03  0.17200000000E+03 0.  1.
         -6    1    1    2    0  503 -0.24205809676E+02 -0.16145720677E+02  0.39046017041E+03  0.42765611208E+03  0.17200000000E+03 0.  1.
</event>
<event>
 4    1  0.5714562E+000  0.1942451E+03  0.7818608E-02  0.1154687E+00
         21   -1    0    0  503  502  0.00000000000E+00  0.00000000000E+00  0.98790114392E+03  0.98790114392E+03  0.00000000000E+00 0. -1.
         21   -1    0    0  501  503 -0.00000000000E+00 -0.00000000000E+00 -0.56560482872E+02  0.56560482872E+02  0.00000000000E+00 0. -1.
          6    1    1    2  501    0 -0.61015242044E+01 -0.90055086229E+02  0.16807377292E+03  0.25686560746E+03  0.17200000000E+03 0. -1.
         -6    1    1    2    0  502  0.61015242044E+01  0.90055086229E+02  0.76326688813E+03  0.78759601933E+03  0.17200000000E+03 0. -1.
</event>
<event>
 4    1  0.5714562E+000  0.1931198E+03  0.7818608E-02  0.1155677E+00
         21   -1    0    0  501  502  0.00000000000E+00  0.00000000000E+00  0.10522176012E+03  0.10522176012E+03  0.00000000000E+00 0. -1.
         21   -1    0    0  502  503 -0.00000000000E+00 -0.00000000000E+00 -0.35447648056E+03  0.35447648056E+03  0.00000000000E+00 0.  1.
          6    1    1    2  501    0 -0.62731593917E+02  0.61449197366E+02 -0.12681619807E+03  0.23103593838E+03  0.17200000000E+03 0.  1.
         -6    1    1    2    0  503  0.62731593917E+02 -0.61449197366E+02 -0.12243852237E+03  0.22866230230E+03  0.17200000000E+03 0. -1.
</event>
<event>
 4    1  0.5714562E+000  0.2086869E+03  0.7818608E-02  0.1142610E+00
         21   -1    0    0  503  502  0.00000000000E+00  0.00000000000E+00  0.98456440275E+03  0.98456440275E+03  0.00000000000E+00 0. -1.
         21   -1    0    0  501  503 -0.00000000000E+00 -0.00000000000E+00 -0.55022431231E+02  0.55022431231E+02  0.00000000000E+00 0.  1.
          6    1    1    2  501    0 -0.11426208480E+03 -0.30172601639E+02  0.69494734734E+03  0.72560459308E+03  0.17200000000E+03 0. -1.
         -6    1    1    2    0  502  0.11426208480E+03  0.30172601639E+02  0.23459462417E+03  0.31398224090E+03  0.17200000000E+03 0.  1.
</event>
<event>
 4    1  0.5714562E+000  0.3039865E+03  0.7818608E-02  0.1083265E+00
         21   -1    0    0  501  502  0.00000000000E+00  0.00000000000E+00  0.54584934140E+03  0.54584934140E+03  0.00000000000E+00 0.  1.
         21   -1    0    0  502  503 -0.00000000000E+00 -0.00000000000E+00 -0.73608336415E+03  0.73608336415E+03  0.00000000000E+00 0. -1.
          6    1    1    2  501    0  0.23603174422E+03  0.84337551161E+02  0.46733234893E+03  0.55750096966E+03  0.17200000000E+03 0.  1.
         -6    1    1    2    0  503 -0.23603174422E+03 -0.84337551161E+02 -0.65756637167E+03  0.72443173589E+03  0.17200000000E+03 0. -1.
</event>
<event>
 4    1  0.5714562E+000  0.1832713E+03  0.7818608E-02  0.1164674E+00
         21   -1    0    0  503  502  0.00000000000E+00  0.00000000000E+00  0.92000066193E+03  0.92000066193E+03  0.00000000000E+00 0.  1.
         21   -1    0    0  501  503 -0.00000000000E+00 -0.00000000000E+00 -0.60861117876E+02  0.60861117876E+02  0.00000000000E+00 0.  1.
          6    1    1    2  501    0  0.59721321287E+02  0.20922471660E+02  0.11934574645E+03  0.21870480844E+03  0.17200000000E+03 0.  1.
         -6    1    1    2    0  502 -0.59721321287E+02 -0.20922471660E+02  0.73979379760E+03  0.76215697137E+03  0.17200000000E+03 0.  1.
</event>
<event>
 4    1  0.5714562E+000  0.2119553E+03  0.7818608E-02  0.1140027E+00
         21   -1    0    0  503  502  0.00000000000E+00  0.00000000000E+00  0.59346049442E+03  0.59346049442E+03  0.00000000000E+00 0.  1.
         21   -1    0    0  501  503 -0.00000000000E+00 -0.00000000000E+00 -0.12913090799E+03  0.12913090799E+03  0.00000000000E+00 0.  1.
          6    1    1    2  501    0 -0.11819551910E+03  0.37025166534E+02 -0.23909624728E+00  0.21195542187E+03  0.17200000000E+03 0.  1.
         -6    1    1    2    0  502  0.11819551910E+03 -0.37025166534E+02  0.46456868268E+03  0.51063598054E+03  0.17200000000E+03 0.  1.
</event>
<event>
 4    1  0.5714562E+000  0.2493505E+03  0.7818608E-02  0.1113716E+00
         21   -1    0    0  503  502  0.00000000000E+00  0.00000000000E+00  0.89325432179E+03  0.89325432179E+03  0.00000000000E+00 0.  1.
         21   -1    0    0  501  503 -0.00000000000E+00 -0.00000000000E+00 -0.79857603313E+02  0.79857603313E+02  0.00000000000E+00 0. -1.
          6    1    1    2  501    0 -0.10772566820E+03 -0.14486840604E+03  0.23236722249E+03  0.34083749903E+03  0.17200000000E+03 0. -1.
         -6    1    1    2    0  502  0.10772566820E+03  0.14486840604E+03  0.58102949599E+03  0.63227442608E+03  0.17200000000E+03 0.  1.
</event>
<event>
 4    1  0.5714562E+000  0.2255473E+03  0.7818608E-02  0.1129814E+00
         21   -1    0    0  503  502  0.00000000000E+00  0.00000000000E+00  0.34378562258E+02  0.34378562258E+02  0.00000000000E+00 0.  1.
         21   -1    0    0  501  503 -0.00000000000E+00 -0.00000000000E+00 -0.15438965200E+04  0.15438965200E+04  0.00000000000E+00 0.  1.
          6    1    1    2  501    0 -0.90564136528E+02 -0.11439292526E+03 -0.91561502173E+03  0.94298593425E+03  0.17200000000E+03 0.  1.
         -6    1    1    2    0  502  0.90564136528E+02  0.11439292526E+03 -0.59390293604E+03  0.63528914804E+03  0.17200000000E+03 0.  1.
</event>
<event>
 4    1  0.5714562E+000  0.2265537E+03  0.7818608E-02  0.1129089E+00
         21   -1    0    0  503  502  0.00000000000E+00  0.00000000000E+00  0.22035054561E+02  0.22035054561E+02  0.00000000000E+00 0.  1.
         21   -1    0    0  501  503 -0.00000000000E+00 -0.00000000000E+00 -0.23293637880E+04  0.23293637880E+04  0.00000000000E+00 0. -1.
          6    1    1    2  501    0  0.14682882842E+03 -0.13559751266E+02 -0.11590734787E+04  0.11810071552E+04  0.17200000000E+03 0.  1.
         -6    1    1    2    0  502 -0.14682882842E+03  0.13559751266E+02 -0.11482552548E+04  0.11703916874E+04  0.17200000000E+03 0. -1.
</event>
<event>
 4    1  0.5714562E+000  0.1908328E+03  0.7818608E-02  0.1157712E+00
         21   -1    0    0  503  502  0.00000000000E+00  0.00000000000E+00  0.82748802952E+03  0.82748802952E+03  0.00000000000E+00 0.  1.
         21   -1    0    0  501  503 -0.00000000000E+00 -0.00000000000E+00 -0.28906226193E+03  0.28906226193E+03  0.00000000000E+00 0.  1.
          6    1    1    2  501    0  0.25547087617E+01 -0.82623508891E+02 -0.24481013914E+03  0.31040163496E+03  0.17200000000E+03 0.  1.
         -6    1    1    2    0  502 -0.25547087617E+01  0.82623508891E+02  0.78323590674E+03  0.80614865649E+03  0.17200000000E+03 0.  1.
</event>
<event>
 4    1  0.5714562E+000  0.1792855E+03  0.7818608E-02  0.1168496E+00
         21   -1    0    0  503  502  0.00000000000E+00  0.00000000000E+00  0.79594650448E+02  0.79594650448E+02  0.00000000000E+00 0. -1.
         21   -1    0    0  501  503 -0.00000000000E+00 -0.00000000000E+00 -0.48235766354E+03  0.48235766354E+03  0.00000000000E+00 0.  1.
          6    1    1    2  501    0 -0.45882705316E+02  0.21308926979E+02 -0.31474569380E+03  0.36222664836E+03  0.17200000000E+03 0.  1.
         -6    1    1    2    0  502  0.45882705316E+02 -0.21308926979E+02 -0.88017319296E+02  0.19972566563E+03  0.17200000000E+03 0. -1.
</event>
<event>
 4    1  0.5714562E+000  0.1955609E+03  0.7818608E-02  0.1153539E+00
         21   -1    0    0  501  502  0.00000000000E+00  0.00000000000E+00  0.50250742063E+03  0.50250742063E+03  0.00000000000E+00 0. -1.
         21   -1    0    0  502  503 -0.00000000000E+00 -0.00000000000E+00 -0.76164632384E+02  0.76164632384E+02  0.00000000000E+00 0. -1.
          6    1    1    2  501    0 -0.22680956167E+02  0.90253235285E+02  0.22116605382E+03  0.29522617704E+03  0.17200000000E+03 0. -1.
         -6    1    1    2    0  503  0.22680956167E+02 -0.90253235285E+02  0.20517673443E+03  0.28344587597E+03  0.17200000000E+03 0. -1.
</event>
<event>
 4    1  0.5714562E+000  0.1797608E+03  0.7818608E-02  0.1168035E+00
         21   -1    0    0  503  502  0.00000000000E+00  0.00000000000E+00  0.58791344772E+02  0.58791344772E+02  0.00000000000E+00 0.  1.
         21   -1    0    0  501  503 -0.00000000000E+00 -0.00000000000E+00 -0.55387689641E+03  0.55387689641E+03  0.00000000000E+00 0. -1.
          6    1    1    2  501    0  0.48324138218E+02  0.19867923051E+02 -0.27434158816E+03  0.32798973108E+03  0.17200000000E+03 0. -1.
         -6    1    1    2    0  502 -0.48324138218E+02 -0.19867923051E+02 -0.22074396348E+03  0.28467851010E+03  0.17200000000E+03 0.  1.
</event>
<event>
 4    1  0.5714562E+000  0.1855798E+03  0.7818608E-02  0.1162510E+00
         21   -1    0    0  501  502  0.00000000000E+00  0.00000000000E+00  0.23602408654E+03  0.23602408654E+03  0.00000000000E+00 0.  1.
         21   -1    0    0  502  503 -0.00000000000E+00 -0.00000000000E+00 -0.17279014146E+03  0.17279014146E+03  0.00000000000E+00 0.  1.
          6    1    1    2  501    0  0.69209438362E+02  0.81194423674E+01  0.11222858831E+03  0.21687583484E+03  0.17200000000E+03 0. -1.
         -6    1    1    2    0  503 -0.69209438362E+02 -0.81194423674E+01 -0.48994643238E+02  0.19193839316E+03  0.17200000000E+03 0. -1.
</event>
<event>
 4    1  0.5714562E+000  0.1889226E+03  0.7818608E-02  0.1159437E+00
         21   -1    0    0  501  502  0.00000000000E+00  0.00000000000E+00  0.44260409269E+03  0.44260409269E+03  0.00000000000E+00 0. -1.
         21   -1    0    0  502  503 -0.00000000000E+00 -0.00000000000E+00 -0.10819790116E+03  0.10819790116E+03  0.00000000000E+00 0. -1.
          6    1    1    2  501    0  0.65202890956E+02 -0.43085261538E+02  0.30619076181E+03  0.35978401767E+03  0.17200000000E+03 0. -1.
         -6    1    1    2    0  503 -0.65202890956E+02  0.43085261538E+02  0.28215429719E+02  0.19101797618E+03  0.17200000000E+03 0. -1.
</event>
<event>
 4    1  0.5714562E+000  0.1828362E+03  0.7818608E-02  0.1165086E+00
         21   -1    0    0  503  502  0.00000000000E+00  0.00000000000E+00  0.12793729274E+04  0.12793729274E+04  0.00000000000E+00 0.  1.
         21   -1    0    0  501  503 -0.00000000000E+00 -0.00000000000E+00 -0.26130898944E+02  0.26130898944E+02  0.00000000000E+00 0.  1.
          6    1    1    2  501    0 -0.18380009173E+02 -0.59221947218E+02  0.62144642515E+03  0.64778447272E+03  0.17200000000E+03 0.  1.
         -6    1    1    2    0  502  0.18380009173E+02  0.59221947218E+02  0.63179560331E+03  0.65771935362E+03  0.17200000000E+03 0.  1.
</event>
<event>
 4    1  0.5714562E+000  0.1783424E+03  0.7818608E-02  0.1169417E+00
         21   -1    0    0  503  502  0.00000000000E+00  0.00000000000E+00  0.80884617279E+02  0.80884617279E+02  0.00000000000E+00 0.  1.
         21   -1    0    0  501  503 -0.00000000000E+00 -0.00000000000E+00 -0.39355331766E+03  0.39355331766E+03  0.00000000000E+00 0.  1.
          6    1    1    2  501    0  0.10525047951E+02  0.45948039115E+02 -0.14950147737E+03  0.23271590120E+03  0.17200000000E+03 0.  1.
         -6    1    1    2    0  502 -0.10525047951E+02 -0.45948039115E+02 -0.16316722301E+03  0.24172203374E+03  0.17200000000E+03 0.  1.
</event>
<event>
 4    1  0.5714562E+000  0.1765927E+03  0.7818608E-02  0.1171142E+00
         21   -1    0    0  503  502  0.00000000000E+00  0.00000000000E+00  0.57951523944E+03  0.57951523944E+03  0.00000000000E+00 0.  1.
         21   -1    0    0  501  503 -0.00000000000E+00 -0.00000000000E+00 -0.11799316463E+03  0.11799316463E+03  0.00000000000E+00 0.  1.
          6    1    1    2  501    0 -0.39917070657E+02  0.27588930491E+01 -0.26452711416E+02  0.17856295798E+03  0.17200000000E+03 0.  1.
         -6    1    1    2    0  502  0.39917070657E+02 -0.27588930491E+01  0.48797478623E+03  0.51894544609E+03  0.17200000000E+03 0.  1.
</event>
<event>
 4    1  0.5714562E+000  0.2270786E+03  0.7818608E-02  0.1128713E+00
         21   -1    0    0  501  502  0.00000000000E+00  0.00000000000E+00  0.15990257017E+04  0.15990257017E+04  0.00000000000E+00 0. -1.
         21   -1    0    0  502  503 -0.00000000000E+00 -0.00000000000E+00 -0.58226033583E+02  0.58226033583E+02  0.00000000000E+00 0. -1.
          6    1    1    2  501    0 -0.74845359818E+02 -0.12798000486E+03  0.13238856932E+04  0.13432192815E+04  0.17200000000E+03 0. -1.
         -6    1    1    2    0  503  0.74845359818E+02  0.12798000486E+03  0.21691397499E+03  0.31403245386E+03  0.17200000000E+03 0. -1.
</event>
<event>
 4    1  0.5714562E+000  0.1983044E+03  0.7818608E-02  0.1151178E+00
         21   -1    0    0  503  502  0.00000000000E+00  0.00000000000E+00  0.10169224738E+03  0.10169224738E+03  0.00000000000E+00 0. -1.
         21   -1    0    0  501  503 -0.00000000000E+00 -0.00000000000E+00 -0.60822517463E+03  0.60822517463E+03  0.00000000000E+00 0.  1.
          6    1    1    2  501    0 -0.23778718105E+02 -0.95787204872E+02 -0.46748400348E+03  0.50780499166E+03  0.17200000000E+03 0.  1.
         -6    1    1    2    0  502  0.23778718105E+02  0.95787204872E+02 -0.39048923775E+02  0.20211243035E+03  0.17200000000E+03 0. -1.
</event>
<event>
 4    1  0.5714562E+000  0.1928906E+03  0.7818608E-02  0.1155880E+00
         21   -1    0    0  501  502  0.00000000000E+00  0.00000000000E+00  0.62292976618E+02  0.62292976618E+02  0.00000000000E+00 0.  1.
         21   -1    0    0  502  503 -0.00000000000E+00 -0.00000000000E+00 -0.74092706075E+03  0.74092706075E+03  0.00000000000E+00 0.  1.
          6    1    1    2  501    0  0.72860663700E+01  0.87003962418E+02 -0.16248750268E+03  0.25220817744E+03  0.17200000000E+03 0.  1.
         -6    1    1    2    0  503 -0.72860663700E+01 -0.87003962418E+02 -0.51614658145E+03  0.55101185993E+03  0.17200000000E+03 0.  1.
</event>
<event>
 4    1  0.5714562E+000  0.1784609E+03  0.7818608E-02  0.1169301E+00
         21   -1    0    0  503  502  0.00000000000E+00  0.00000000000E+00  0.69649204441E+02  0.69649204441E+02  0.00000000000E+00 0. -1.
         21   -1    0    0  501  503 -0.00000000000E+00 -0.00000000000E+00 -0.73193845567E+03  0.73193845567E+03  0.00000000000E+00 0. -1.
          6    1    1    2  501    0  0.45434125914E+02  0.14142745247E+02 -0.57666671662E+03  0.60364954990E+03  0.17200000000E+03 0.  1.
         -6    1    1    2    0  502 -0.45434125914E+02 -0.14142745247E+02 -0.85622534612E+02  0.19793811021E+03  0.17200000000E+03 0.  1.
</event>
<event>
 4    1  0.5714562E+000  0.1938295E+03  0.7818608E-02  0.1155052E+00
         21   -1    0    0  503  502  0.00000000000E+00  0.00000000000E+00  0.42237592864E+03  0.42237592864E+03  0.00000000000E+00 0. -1.
         21   -1    0    0  501  503 -0.00000000000E+00 -0.00000000000E+00 -0.18168402213E+03  0.18168402213E+03  0.00000000000E+00 0.  1.
          6    1    1    2  501    0  0.89353285639E+02 -0.13715776573E+01 -0.95435300060E+02  0.21605042786E+03  0.17200000000E+03 0.  1.
         -6    1    1    2    0  502 -0.89353285639E+02  0.13715776573E+01  0.33612720657E+03  0.38800952292E+03  0.17200000000E+03 0. -1.
</event>
<event>
 4    1  0.5714562E+000  0.3422565E+03  0.7818608E-02  0.1065839E+00
         21   -1    0    0  503  502  0.00000000000E+00  0.00000000000E+00  0.33864208319E+03  0.33864208319E+03  0.00000000000E+00 0.  1.
         21   -1    0    0  501  503 -0.00000000000E+00 -0.00000000000E+00 -0.51040402522E+03  0.51040402522E+03  0.00000000000E+00 0.  1.
          6    1    1    2  501    0  0.25690154937E+03  0.14682342146E+03 -0.32688256878E+03  0.47327765310E+03  0.17200000000E+03 0.  1.
         -6    1    1    2    0  502 -0.25690154937E+03 -0.14682342146E+03  0.15512062675E+03  0.37576845530E+03  0.17200000000E+03 0.  1.
</event>
<event>
 4    1  0.5714562E+000  0.2651614E+03  0.7818608E-02  0.1104081E+00
         21   -1    0    0  501  502  0.00000000000E+00  0.00000000000E+00  0.46814878020E+02  0.46814878020E+02  0.00000000000E+00 0. -1.
         21   -1    0    0  502  503 -0.00000000000E+00 -0.00000000000E+00 -0.15046750513E+04  0.15046750513E+04  0.00000000000E+00 0.  1.
          6    1    1    2  501    0 -0.13591411102E+03  0.14917741332E+03 -0.69552352923E+03  0.74435443569E+03  0.17200000000E+03 0. -1.
         -6    1    1    2    0  503  0.13591411102E+03 -0.14917741332E+03 -0.76233664409E+03  0.80713549367E+03  0.17200000000E+03 0. -1.
</event>
<event>
 4    1  0.5714562E+000  0.1912466E+03  0.7818608E-02  0.1157342E+00
         21   -1    0    0  503  502  0.00000000000E+00  0.00000000000E+00  0.14939373186E+03  0.14939373186E+03  0.00000000000E+00 0. -1.
         21   -1    0    0  501  503 -0.00000000000E+00 -0.00000000000E+00 -0.45564628937E+03  0.45564628937E+03  0.00000000000E+00 0. -1.
          6    1    1    2  501    0  0.47359437552E+02 -0.68908341978E+02 -0.35890370323E+03  0.40667818249E+03  0.17200000000E+03 0. -1.
         -6    1    1    2    0  502 -0.47359437552E+02  0.68908341978E+02  0.52651145723E+02  0.19836183873E+03  0.17200000000E+03 0. -1.
</event>
<event>
 4    1  0.5714562E+000  0.2428376E+03  0.7818608E-02  0.1117917E+00
         21   -1    0    0  503  502  0.00000000000E+00  0.00000000000E+00  0.57204143725E+02  0.57204143725E+02  0.00000000000E+00 0.  1.
         21   -1    0    0  501  503 -0.00000000000E+00 -0.00000000000E+00 -0.10973757567E+04  0.10973757567E+04  0.00000000000E+00 0. -1.
          6    1    1    2  501    0 -0.17047254816E+03  0.18033761217E+02 -0.37797015595E+03  0.44925665828E+03  0.17200000000E+03 0.  1.
         -6    1    1    2    0  502  0.17047254816E+03 -0.18033761217E+02 -0.66220145697E+03  0.70532324209E+03  0.17200000000E+03 0. -1.
</event>
<event>
 4    1  0.5714562E+000  0.1881363E+03  0.7818608E-02  0.1160153E+00
         21   -1    0    0  501  502  0.00000000000E+00  0.00000000000E+00  0.92861050614E+02  0.92861050614E+02  0.00000000000E+00 0. -1.
         21   -1    0    0  502  503 -0.00000000000E+00 -0.00000000000E+00 -0.38897114413E+03  0.38897114413E+03  0.00000000000E+00 0. -1.
          6    1    1    2  501    0 -0.59324202218E+02  0.47873752350E+02 -0.18218713967E+03  0.26189198345E+03  0.17200000000E+03 0. -1.
         -6    1    1    2    0  503  0.59324202218E+02 -0.47873752350E+02 -0.11392295385E+03  0.21994021130E+03  0.17200000000E+03 0. -1.
</event>
<event>
 4    1  0.5714562E+000  0.2149339E+03  0.7818608E-02  0.1137717E+00
         21   -1    0    0  501  502  0.00000000000E+00  0.00000000000E+00  0.19177886576E+03  0.19177886576E+03  0.00000000000E+00 0. -1.
         21   -1    0    0  502  503 -0.00000000000E+00 -0.00000000000E+00 -0.30635391939E+03  0.30635391939E+03  0.00000000000E+00 0. -1.
          6    1    1    2  501    0 -0.12888895632E+03 -0.47623942107E+00  0.57851372213E+02  0.22258340265E+03  0.17200000000E+03 0. -1.
         -6    1    1    2    0  503  0.12888895632E+03  0.47623942107E+00 -0.17242642585E+03  0.27554938250E+03  0.17200000000E+03 0. -1.
</event>
<event>
 4    1  0.5714562E+000  0.2029935E+03  0.7818608E-02  0.1147238E+00
         21   -1    0    0  501  502  0.00000000000E+00  0.00000000000E+00  0.27028924907E+03  0.27028924907E+03  0.00000000000E+00 0.  1.
         21   -1    0    0  502  503 -0.00000000000E+00 -0.00000000000E+00 -0.20928430272E+03  0.20928430272E+03  0.00000000000E+00 0.  1.
          6    1    1    2  501    0 -0.10162583601E+03 -0.35980038754E+02  0.15545676426E+03  0.25568179303E+03  0.17200000000E+03 0.  1.
         -6    1    1    2    0  503  0.10162583601E+03  0.35980038754E+02 -0.94451817913E+02  0.22389175876E+03  0.17200000000E+03 0.  1.
</event>
<event>
 4    1  0.5714562E+000  0.1964690E+03  0.7818608E-02  0.1152753E+00
         21   -1    0    0  501  502  0.00000000000E+00  0.00000000000E+00  0.95144697799E+03  0.95144697799E+03  0.00000000000E+00 0. -1.
         21   -1    0    0  502  503 -0.00000000000E+00 -0.00000000000E+00 -0.48770708876E+02  0.48770708876E+02  0.00000000000E+00 0. -1.
          6    1    1    2  501    0 -0.34053312306E+02  0.88636577559E+02  0.65641392646E+03  0.68518560537E+03  0.17200000000E+03 0. -1.
         -6    1    1    2    0  503  0.34053312306E+02 -0.88636577559E+02  0.24626234266E+03  0.31503208150E+03  0.17200000000E+03 0. -1.
</event>
<event>
 4    1  0.5714562E+000  0.1759325E+03  0.7818608E-02  0.1171799E+00
         21   -1    0    0  501  502  0.00000000000E+00  0.00000000000E+00  0.12732378260E+03  0.12732378260E+03  0.00000000000E+00 0. -1.
         21   -1    0    0  502  503 -0.00000000000E+00 -0.00000000000E+00 -0.38729076066E+03  0.38729076066E+03  0.00000000000E+00 0. -1.
          6    1    1    2  501    0  0.22646176615E+02 -0.29247283982E+02  0.27018113053E+02  0.17799503186E+03  0.17200000000E+03 0. -1.
         -6    1    1    2    0  503 -0.22646176615E+02  0.29247283982E+02 -0.28698509111E+03  0.33661951140E+03  0.17200000000E+03 0. -1.
</event>
<event>
 4    1  0.5714562E+000  0.1924802E+03  0.7818608E-02  0.1156243E+00
         21   -1    0    0  501  502  0.00000000000E+00  0.00000000000E+00  0.37729115765E+03  0.37729115765E+03  0.00000000000E+00 0. -1.
         21   -1    0    0  502  503 -0.00000000000E+00 -0.00000000000E+00 -0.99880311250E+02  0.99880311250E+02  0.00000000000E+00 0. -1.
          6    1    1    2  501    0  0.21752284373E+02  0.83615015382E+02  0.16968420876E+03  0.25659571971E+03  0.17200000000E+03 0. -1.
         -6    1    1    2    0  503 -0.21752284373E+02 -0.83615015382E+02  0.10772663764E+03  0.22057574919E+03  0.17200000000E+03 0. -1.
</event>
<event>
 4    1  0.5714562E+000  0.2361912E+03  0.7818608E-02  0.1122356E+00
         21   -1    0    0  501  502  0.00000000000E+00  0.00000000000E+00  0.50646374403E+03  0.50646374403E+03  0.00000000000E+00 0.  1.
         21   -1    0    0  502  503 -0.00000000000E+00 -0.00000000000E+00 -0.12078771411E+03  0.12078771411E+03  0.00000000000E+00 0.  1.
          6    1    1    2  501    0  0.16116190683E+03  0.15137576145E+02  0.28591700520E+03  0.37085690001E+03  0.17200000000E+03 0.  1.
         -6    1    1    2    0  503 -0.16116190683E+03 -0.15137576145E+02  0.99759024715E+02  0.25639455813E+03  0.17200000000E+03 0.  1.
</event>
<event>
 4    1  0.5714562E+000  0.1851251E+03  0.7818608E-02  0.1162933E+00
         21   -1    0    0  501  502  0.00000000000E+00  0.00000000000E+00  0.29032185089E+03  0.29032185089E+03  0.00000000000E+00 0.  1.
         21   -1    0    0  502  503 -0.00000000000E+00 -0.00000000000E+00 -0.34335104242E+03  0.34335104242E+03  0.00000000000E+00 0.  1.
          6    1    1    2  501    0  0.32539997636E+02 -0.60236702587E+02  0.23014143631E+03  0.29535807504E+03  0.17200000000E+03 0.  1.
         -6    1    1    2    0  503 -0.32539997636E+02  0.60236702587E+02 -0.28317062785E+03  0.33831481827E+03  0.17200000000E+03 0.  1.
</event>
<event>
 4    1  0.5714562E+000  0.1826405E+03  0.7818608E-02  0.1165272E+00
         21   -1    0    0  503  502  0.00000000000E+00  0.00000000000E+00  0.35511712326E+03  0.35511712326E+03  0.00000000000E+00 0.  1.
         21   -1    0    0  501  503 -0.00000000000E+00 -0.00000000000E+00 -0.11110672182E+03  0.11110672182E+03  0.00000000000E+00 0.  1.
          6    1    1    2  501    0 -0.40068119674E+02 -0.46562675282E+02  0.30358859854E+02  0.18514642129E+03  0.17200000000E+03 0. -1.
         -6    1    1    2    0  502  0.40068119674E+02  0.46562675282E+02  0.21365154159E+03  0.28107742379E+03  0.17200000000E+03 0. -1.
</event>
<event>
 4    1  0.5714562E+000  0.2103411E+03  0.7818608E-02  0.1141296E+00
         21   -1    0    0  503  502  0.00000000000E+00  0.00000000000E+00  0.13824073575E+04  0.13824073575E+04  0.00000000000E+00 0.  1.
         21   -1    0    0  501  503 -0.00000000000E+00 -0.00000000000E+00 -0.32029570541E+02  0.32029570541E+02  0.00000000000E+00 0.  1.
          6    1    1    2  501    0  0.12087287497E+03  0.70105111221E+01  0.69493414693E+03  0.72606946482E+03  0.17200000000E+03 0.  1.
         -6    1    1    2    0  502 -0.12087287497E+03 -0.70105111221E+01  0.65544364003E+03  0.68836746322E+03  0.17200000000E+03 0.  1.
</event>
<event>
 4    1  0.5714562E+000  0.2419068E+03  0.7818608E-02  0.1118529E+00
         21   -1    0    0  503  502  0.00000000000E+00  0.00000000000E+00  0.35024563876E+03  0.35024563876E+03  0.00000000000E+00 0.  1.
         21   -1    0    0  501  503 -0.00000000000E+00 -0.00000000000E+00 -0.18490543423E+03  0.18490543423E+03  0.00000000000E+00 0. -1.
          6    1    1    2  501    0  0.34520816981E+02  0.16656294571E+03 -0.40989681811E+00  0.24190715100E+03  0.17200000000E+03 0. -1.
         -6    1    1    2    0  502 -0.34520816981E+02 -0.16656294571E+03  0.16575010135E+03  0.29324392199E+03  0.17200000000E+03 0. -1.
</event>
<event>
 4    1  0.5714562E+000  0.2333712E+03  0.7818608E-02  0.1124289E+00
         21   -1    0    0  503  502  0.00000000000E+00  0.00000000000E+00  0.82275960325E+02  0.82275960325E+02  0.00000000000E+00 0.  1.
         21   -1    0    0  501  503 -0.00000000000E+00 -0.00000000000E+00 -0.70745382621E+03  0.70745382621E+03  0.00000000000E+00 0.  1.
          6    1    1    2  501    0 -0.15663056121E+03  0.18573978605E+02 -0.21243930736E+03  0.31558292840E+03  0.17200000000E+03 0.  1.
         -6    1    1    2    0  502  0.15663056121E+03 -0.18573978605E+02 -0.41273855853E+03  0.47414685814E+03  0.17200000000E+03 0.  1.
</event>
<event>
 4    1  0.5714562E+000  0.1957773E+03  0.7818608E-02  0.1153351E+00
         21   -1    0    0  501  502  0.00000000000E+00  0.00000000000E+00  0.90095602922E+02  0.90095602922E+02  0.00000000000E+00 0.  1.
         21   -1    0    0  502  503 -0.00000000000E+00 -0.00000000000E+00 -0.42985544350E+03  0.42985544350E+03  0.00000000000E+00 0.  1.
          6    1    1    2  501    0  0.71859681807E+02  0.59841037702E+02 -0.14348132019E+03  0.24272546819E+03  0.17200000000E+03 0.  1.
         -6    1    1    2    0  503 -0.71859681807E+02 -0.59841037702E+02 -0.19627852038E+03  0.27722557823E+03  0.17200000000E+03 0.  1.
</event>
<event>
 4    1  0.5714562E+000  0.2592343E+03  0.7818608E-02  0.1107604E+00
         21   -1    0    0  501  502  0.00000000000E+00  0.00000000000E+00  0.73878679472E+03  0.73878679472E+03  0.00000000000E+00 0. -1.
         21   -1    0    0  502  503 -0.00000000000E+00 -0.00000000000E+00 -0.91484440287E+02  0.91484440287E+02  0.00000000000E+00 0. -1.
          6    1    1    2  501    0  0.14000405975E+03  0.13422843574E+03  0.29231571720E+03  0.39070562861E+03  0.17200000000E+03 0. -1.
         -6    1    1    2    0  503 -0.14000405975E+03 -0.13422843574E+03  0.35498663724E+03  0.43956560639E+03  0.17200000000E+03 0. -1.
</event>
<event>
 4    1  0.5714562E+000  0.1762925E+03  0.7818608E-02  0.1171440E+00
         21   -1    0    0  503  502  0.00000000000E+00  0.00000000000E+00  0.21060198845E+02  0.21060198845E+02  0.00000000000E+00 0.  1.
         21   -1    0    0  501  503 -0.00000000000E+00 -0.00000000000E+00 -0.15080579116E+04  0.15080579116E+04  0.00000000000E+00 0.  1.
          6    1    1    2  501    0 -0.38264076797E+02 -0.55589270945E+01 -0.85545064449E+03  0.87342706988E+03  0.17200000000E+03 0.  1.
         -6    1    1    2    0  502  0.38264076797E+02  0.55589270945E+01 -0.63154706831E+03  0.65569104061E+03  0.17200000000E+03 0.  1.
</event>
<event>
 4    1  0.5714562E+000  0.1829826E+03  0.7818608E-02  0.1164947E+00
         21   -1    0    0  503  502  0.00000000000E+00  0.00000000000E+00  0.74753765985E+02  0.74753765985E+02  0.00000000000E+00 0.  1.
         21   -1    0    0  501  503 -0.00000000000E+00 -0.00000000000E+00 -0.82246014137E+03  0.82246014137E+03  0.00000000000E+00 0.  1.
          6    1    1    2  501    0 -0.49187296131E+02  0.38461102416E+02 -0.67659052015E+03  0.70089755204E+03  0.17200000000E+03 0.  1.
         -6    1    1    2    0  502  0.49187296131E+02 -0.38461102416E+02 -0.71115855241E+02  0.19631635532E+03  0.17200000000E+03 0.  1.
</event>
<event>
 4    1  0.5714562E+000  0.1792158E+03  0.7818608E-02  0.1168564E+00
         21   -1    0    0  503  502  0.00000000000E+00  0.00000000000E+00  0.11789475519E+04  0.11789475519E+04  0.00000000000E+00 0. -1.
         21   -1    0    0  501  503 -0.00000000000E+00 -0.00000000000E+00 -0.30063803048E+02  0.30063803048E+02  0.00000000000E+00 0. -1.
          6    1    1    2  501    0  0.14289136942E+02  0.48271324487E+02  0.38928081578E+03  0.42855320992E+03  0.17200000000E+03 0. -1.
         -6    1    1    2    0  502 -0.14289136942E+02 -0.48271324487E+02  0.75960293308E+03  0.78045814504E+03  0.17200000000E+03 0. -1.
</event>
<event>
 4    1  0.5714562E+000  0.2547687E+03  0.7818608E-02  0.1110328E+00
         21   -1    0    0  503  502  0.00000000000E+00  0.00000000000E+00  0.92732715984E+03  0.92732715984E+03  0.00000000000E+00 0.  1.
         21   -1    0    0  501  503 -0.00000000000E+00 -0.00000000000E+00 -0.10637567110E+03  0.10637567110E+03  0.00000000000E+00 0.  1.
          6    1    1    2  501    0 -0.49019531181E+02  0.18143918597E+03  0.10821103158E+03  0.27679725432E+03  0.17200000000E+03 0.  1.
         -6    1    1    2    0  502  0.49019531181E+02 -0.18143918597E+03  0.71274045716E+03  0.75690557662E+03  0.17200000000E+03 0.  1.
</event>
<event>
 4    1  0.5714562E+000  0.1912908E+03  0.7818608E-02  0.1157302E+00
         21   -1    0    0  501  502  0.00000000000E+00  0.00000000000E+00  0.27490788958E+03  0.27490788958E+03  0.00000000000E+00 0.  1.
         21   -1    0    0  502  503 -0.00000000000E+00 -0.00000000000E+00 -0.13653524723E+03  0.13653524723E+03  0.00000000000E+00 0.  1.
          6    1    1    2  501    0  0.82935027985E+02 -0.11399245156E+02  0.10178456088E+03  0.21668469833E+03  0.17200000000E+03 0.  1.
         -6    1    1    2    0  503 -0.82935027985E+02  0.11399245156E+02  0.36588081472E+02  0.19475843849E+03  0.17200000000E+03 0.  1.
</event>
<event>
 4    1  0.5714562E+000  0.2018774E+03  0.7818608E-02  0.1148165E+00
         21   -1    0    0  501  502  0.00000000000E+00  0.00000000000E+00  0.10577362254E+03  0.10577362254E+03  0.00000000000E+00 0. -1.
         21   -1    0    0  502  503 -0.00000000000E+00 -0.00000000000E+00 -0.40338999376E+03  0.40338999376E+03  0.00000000000E+00 0.  1.
          6    1    1    2  501    0 -0.69375295852E+02  0.79734181144E+02 -0.94894877454E+02  0.22306839553E+03  0.17200000000E+03 0. -1.
         -6    1    1    2    0  503  0.69375295852E+02 -0.79734181144E+02 -0.20272149377E+03  0.28609522078E+03  0.17200000000E+03 0.  1.
</event>
<event>
 4    1  0.5714562E+000  0.1979774E+03  0.7818608E-02  0.1151457E+00
         21   -1    0    0  501  502  0.00000000000E+00  0.00000000000E+00  0.14025232360E+03  0.14025232360E+03  0.00000000000E+00 0. -1.
         21   -1    0    0  502  503 -0.00000000000E+00 -0.00000000000E+00 -0.28017199550E+03  0.28017199550E+03  0.00000000000E+00 0. -1.
          6    1    1    2  501    0  0.92814370405E+02  0.31567858392E+02 -0.80550352621E+02  0.21373674542E+03  0.17200000000E+03 0. -1.
         -6    1    1    2    0  503 -0.92814370405E+02 -0.31567858392E+02 -0.59369319279E+02  0.20668757367E+03  0.17200000000E+03 0. -1.
</event>
<event>
 4    1  0.5714562E+000  0.2732330E+03  0.7818608E-02  0.1099443E+00
         21   -1    0    0  501  502  0.00000000000E+00  0.00000000000E+00  0.12616769593E+03  0.12616769593E+03  0.00000000000E+00 0.  1.
         21   -1    0    0  502  503 -0.00000000000E+00 -0.00000000000E+00 -0.64854345380E+03  0.64854345380E+03  0.00000000000E+00 0. -1.
          6    1    1    2  501    0 -0.11491540357E+03  0.17851258032E+03 -0.14653268926E+03  0.31004535206E+03  0.17200000000E+03 0.  1.
         -6    1    1    2    0  503  0.11491540357E+03 -0.17851258032E+03 -0.37584306861E+03  0.46466579768E+03  0.17200000000E+03 0. -1.
</event>
<event>
 4    1  0.5714562E+000  0.2990448E+03  0.7818608E-02  0.1085719E+00
         21   -1    0    0  503  502  0.00000000000E+00  0.00000000000E+00  0.74692654995E+02  0.74692654995E+02  0.00000000000E+00 0.  1.
         21   -1    0    0  501  503 -0.00000000000E+00 -0.00000000000E+00 -0.15128556746E+04  0.15128556746E+04  0.00000000000E+00 0. -1.
          6    1    1    2  501    0 -0.23881904361E+03 -0.53002348631E+02 -0.10816183601E+04  0.11221969798E+04  0.17200000000E+03 0. -1.
         -6    1    1    2    0  502  0.23881904361E+03  0.53002348631E+02 -0.35654465955E+03  0.46535134985E+03  0.17200000000E+03 0.  1.
</event>
<event>
 4    1  0.5714562E+000  0.2417258E+03  0.7818608E-02  0.1118648E+00
         21   -1    0    0  503  502  0.00000000000E+00  0.00000000000E+00  0.11475737204E+03  0.11475737204E+03  0.00000000000E+00 0.  1.
         21   -1    0    0  501  503 -0.00000000000E+00 -0.00000000000E+00 -0.10739706106E+04  0.10739706106E+04  0.00000000000E+00 0. -1.
          6    1    1    2  501    0 -0.57729255343E+02 -0.15973326576E+03 -0.91063178195E+03  0.94216857590E+03  0.17200000000E+03 0. -1.
         -6    1    1    2    0  502  0.57729255343E+02  0.15973326576E+03 -0.48581456570E+02  0.24655940670E+03  0.17200000000E+03 0.  1.
</event>
<event>
 4    1  0.5714562E+000  0.2177096E+03  0.7818608E-02  0.1135602E+00
         21   -1    0    0  503  502  0.00000000000E+00  0.00000000000E+00  0.22500800130E+03  0.22500800130E+03  0.00000000000E+00 0. -1.
         21   -1    0    0  501  503 -0.00000000000E+00 -0.00000000000E+00 -0.22544858704E+03  0.22544858704E+03  0.00000000000E+00 0. -1.
          6    1    1    2  501    0  0.12080712213E+03  0.56737209415E+02  0.57488176713E+02  0.22517185026E+03  0.17200000000E+03 0. -1.
         -6    1    1    2    0  502 -0.12080712213E+03 -0.56737209415E+02 -0.57928762453E+02  0.22528473807E+03  0.17200000000E+03 0. -1.
</event>
<event>
 4    1  0.5714562E+000  0.2121911E+03  0.7818608E-02  0.1139843E+00
         21   -1    0    0  501  502  0.00000000000E+00  0.00000000000E+00  0.22135927777E+03  0.22135927777E+03  0.00000000000E+00 0. -1.
         21   -1    0    0  502  503 -0.00000000000E+00 -0.00000000000E+00 -0.20519842495E+03  0.20519842495E+03  0.00000000000E+00 0. -1.
          6    1    1    2  501    0 -0.12314493545E+03  0.16625240057E+02  0.28032188328E+02  0.21403475727E+03  0.17200000000E+03 0. -1.
         -6    1    1    2    0  503  0.12314493545E+03 -0.16625240057E+02 -0.11871335509E+02  0.21252294545E+03  0.17200000000E+03 0. -1.
</event>
<event>
 4    1  0.5714562E+000  0.2049050E+03  0.7818608E-02  0.1145665E+00
         21   -1    0    0  501  502  0.00000000000E+00  0.00000000000E+00  0.84399719137E+03  0.84399719137E+03  0.00000000000E+00 0.  1.
         21   -1    0    0  502  503 -0.00000000000E+00 -0.00000000000E+00 -0.50907607482E+02  0.50907607482E+02  0.00000000000E+00 0.  1.
          6    1    1    2  501    0 -0.74421479613E+02 -0.82846305430E+02  0.46411513199E+03  0.50733511872E+03  0.17200000000E+03 0.  1.
         -6    1    1    2    0  503  0.74421479613E+02  0.82846305430E+02  0.32897445190E+03  0.38756968013E+03  0.17200000000E+03 0.  1.
</event>
<event>
 4    1  0.5714562E+000  0.2015683E+03  0.7818608E-02  0.1148423E+00
         21   -1    0    0  503  502  0.00000000000E+00  0.00000000000E+00  0.12302964549E+04  0.12302964549E+04  0.00000000000E+00 0.  1.
         21   -1    0    0  501  503 -0.00000000000E+00 -0.00000000000E+00 -0.98489245071E+02  0.98489245071E+02  0.00000000000E+00 0.  1.
          6    1    1    2  501    0 -0.43676233419E+02 -0.95593666071E+02  0.24233676823E+02  0.20301978586E+03  0.17200000000E+03 0.  1.
         -6    1    1    2    0  502  0.43676233419E+02  0.95593666071E+02  0.11075735330E+04  0.11257659141E+04  0.17200000000E+03 0.  1.
</event>
<event>
 4    1  0.5714562E+000  0.1805948E+03  0.7818608E-02  0.1167229E+00
         21   -1    0    0  501  502  0.00000000000E+00  0.00000000000E+00  0.10448109110E+03  0.10448109110E+03  0.00000000000E+00 0.  1.
         21   -1    0    0  502  503 -0.00000000000E+00 -0.00000000000E+00 -0.32997513600E+03  0.32997513600E+03  0.00000000000E+00 0. -1.
          6    1    1    2  501    0  0.25197779626E+02 -0.48944506184E+02 -0.16322568738E+03  0.24342784928E+03  0.17200000000E+03 0. -1.
         -6    1    1    2    0  503 -0.25197779626E+02  0.48944506184E+02 -0.62268357513E+02  0.19102837782E+03  0.17200000000E+03 0.  1.
</event>
<event>
 4    1  0.5714562E+000  0.2162724E+03  0.7818608E-02  0.1136693E+00
         21   -1    0    0  501  502  0.00000000000E+00  0.00000000000E+00  0.53639378645E+03  0.53639378645E+03  0.00000000000E+00 0. -1.
         21   -1    0    0  502  503 -0.00000000000E+00 -0.00000000000E+00 -0.87201055391E+02  0.87201055391E+02  0.00000000000E+00 0.  1.
          6    1    1    2  501    0  0.51843019514E+02  0.12042444976E+03  0.22373435226E+03  0.31117648876E+03  0.17200000000E+03 0. -1.
         -6    1    1    2    0  503 -0.51843019514E+02 -0.12042444976E+03  0.22545837880E+03  0.31241835308E+03  0.17200000000E+03 0.  1.
</event>
<event>
 4    1  0.5714562E+000  0.2047284E+03  0.7818608E-02  0.1145810E+00
         21   -1    0    0  503  502  0.00000000000E+00  0.00000000000E+00  0.81147025138E+03  0.81147025138E+03  0.00000000000E+00 0.  1.
         21   -1    0    0  501  503 -0.00000000000E+00 -0.00000000000E+00 -0.68163810627E+02  0.68163810627E+02  0.00000000000E+00 0. -1.
          6    1    1    2  501    0  0.10936690235E+03  0.19198587169E+02  0.15518296154E+03  0.25689580891E+03  0.17200000000E+03 0. -1.
         -6    1    1    2    0  502 -0.10936690235E+03 -0.19198587169E+02  0.58812347921E+03  0.62273825310E+03  0.17200000000E+03 0.  1.
</event>
<event>
 4    1  0.5714562E+000  0.1805293E+03  0.7818608E-02  0.1167292E+00
         21   -1    0    0  503  502  0.00000000000E+00  0.00000000000E+00  0.62549336579E+03  0.62549336579E+03  0.00000000000E+00 0.  1.
         21   -1    0    0  501  503 -0.00000000000E+00 -0.00000000000E+00 -0.53053000849E+02  0.53053000849E+02  0.00000000000E+00 0.  1.
          6    1    1    2  501    0 -0.29570615798E+02  0.46178070991E+02  0.24084894985E+03  0.30099676444E+03  0.17200000000E+03 0.  1.
         -6    1    1    2    0  502  0.29570615798E+02 -0.46178070991E+02  0.33159141508E+03  0.37754960219E+03  0.17200000000E+03 0.  1.
</event>
<event>
 4    1  0.5714562E+000  0.2018767E+03  0.7818608E-02  0.1148165E+00
         21   -1    0    0  503  502  0.00000000000E+00  0.00000000000E+00  0.70007979405E+03  0.70007979405E+03  0.00000000000E+00 0. -1.
         21   -1    0    0  501  503 -0.00000000000E+00 -0.00000000000E+00 -0.58600444769E+02  0.58600444769E+02  0.00000000000E+00 0.  1.
          6    1    1    2  501    0  0.76924548241E+02  0.72476280475E+02  0.28992051297E+03  0.35328190046E+03  0.17200000000E+03 0. -1.
         -6    1    1    2    0  502 -0.76924548241E+02 -0.72476280475E+02  0.35155883631E+03  0.40539833836E+03  0.17200000000E+03 0.  1.
</event>
<event>
 4    1  0.5714562E+000  0.1961211E+03  0.7818608E-02  0.1153054E+00
         21   -1    0    0  503  502  0.00000000000E+00  0.00000000000E+00  0.76475356437E+02  0.76475356437E+02  0.00000000000E+00 0. -1.
         21   -1    0    0  501  503 -0.00000000000E+00 -0.00000000000E+00 -0.51373509856E+03  0.51373509856E+03  0.00000000000E+00 0. -1.
          6    1    1    2  501    0  0.68106823885E+02 -0.65122409481E+02 -0.26138321257E+03  0.32677920908E+03  0.17200000000E+03 0. -1.
         -6    1    1    2    0  502 -0.68106823885E+02  0.65122409481E+02 -0.17587652956E+03  0.26343124592E+03  0.17200000000E+03 0. -1.
</event>
<event>
 4    1  0.5714562E+000  0.2062297E+03  0.7818608E-02  0.1144587E+00
         21   -1    0    0  503  502  0.00000000000E+00  0.00000000000E+00  0.27055749051E+03  0.27055749051E+03  0.00000000000E+00 0.  1.
         21   -1    0    0  501  503 -0.00000000000E+00 -0.00000000000E+00 -0.18474055352E+03  0.18474055352E+03  0.00000000000E+00 0.  1.
          6    1    1    2  501    0  0.74331014739E+02  0.86148736270E+02 -0.44993416586E+02  0.21108081876E+03  0.17200000000E+03 0.  1.
         -6    1    1    2    0  502 -0.74331014739E+02 -0.86148736270E+02  0.13081035357E+03  0.24421722526E+03  0.17200000000E+03 0.  1.
</event>
<event>
 4    1  0.5714562E+000  0.1946560E+03  0.7818608E-02  0.1154328E+00
         21   -1    0    0  503  502  0.00000000000E+00  0.00000000000E+00  0.10692156955E+04  0.10692156955E+04  0.00000000000E+00 0. -1.
         21   -1    0    0  501  503 -0.00000000000E+00 -0.00000000000E+00 -0.47198783119E+02  0.47198783119E+02  0.00000000000E+00 0. -1.
          6    1    1    2  501    0  0.77282669247E+02 -0.48314926721E+02  0.23236628245E+03  0.30312543993E+03  0.17200000000E+03 0. -1.
         -6    1    1    2    0  502 -0.77282669247E+02  0.48314926721E+02  0.78965062990E+03  0.81328903866E+03  0.17200000000E+03 0. -1.
</event>
<event>
 4    1  0.5714562E+000  0.1785270E+03  0.7818608E-02  0.1169236E+00
         21   -1    0    0  503  502  0.00000000000E+00  0.00000000000E+00  0.16752827188E+03  0.16752827188E+03  0.00000000000E+00 0. -1.
         21   -1    0    0  501  503 -0.00000000000E+00 -0.00000000000E+00 -0.24441294183E+03  0.24441294183E+03  0.00000000000E+00 0. -1.
          6    1    1    2  501    0 -0.89575185153E+00 -0.47823491585E+02 -0.13540465685E+03  0.22406764562E+03  0.17200000000E+03 0. -1.
         -6    1    1    2    0  502  0.89575185153E+00  0.47823491585E+02  0.58519986896E+02  0.18787356809E+03  0.17200000000E+03 0. -1.
</event>
<event>
 4    1  0.5714562E+000  0.1930353E+03  0.7818608E-02  0.1155752E+00
         21   -1    0    0  503  502  0.00000000000E+00  0.00000000000E+00  0.12063161146E+04  0.12063161146E+04  0.00000000000E+00 0.  1.
         21   -1    0    0  501  503 -0.00000000000E+00 -0.00000000000E+00 -0.88773964353E+02  0.88773964353E+02  0.00000000000E+00 0.  1.
          6    1    1    2  501    0 -0.36049797827E+02 -0.79868899617E+02  0.35884144773E+02  0.19634230541E+03  0.17200000000E+03 0.  1.
         -6    1    1    2    0  502  0.36049797827E+02  0.79868899617E+02  0.10816580054E+04  0.10987477735E+04  0.17200000000E+03 0.  1.
</event>
<event>
 4    1  0.5714562E+000  0.2056985E+03  0.7818608E-02  0.1145018E+00
         21   -1    0    0  503  502  0.00000000000E+00  0.00000000000E+00  0.50658876666E+03  0.50658876666E+03  0.00000000000E+00 0.  1.
         21   -1    0    0  501  503 -0.00000000000E+00 -0.00000000000E+00 -0.85575612559E+02  0.85575612559E+02  0.00000000000E+00 0.  1.
          6    1    1    2  501    0 -0.16789238385E+02  0.11156163259E+03  0.25636062116E+03  0.32868319774E+03  0.17200000000E+03 0.  1.
         -6    1    1    2    0  502  0.16789238385E+02 -0.11156163259E+03  0.16465253293E+03  0.26348118148E+03  0.17200000000E+03 0.  1.
</event>
<event>
 4    1  0.5714562E+000  0.2096098E+03  0.7818608E-02  0.1141875E+00
         21   -1    0    0  503  502  0.00000000000E+00  0.00000000000E+00  0.30694990791E+02  0.30694990791E+02  0.00000000000E+00 0. -1.
         21   -1    0    0  501  503 -0.00000000000E+00 -0.00000000000E+00 -0.17710291801E+04  0.17710291801E+04  0.00000000000E+00 0.  1.
          6    1    1    2  501    0 -0.63969962191E+02  0.10129214689E+03 -0.12646784460E+04  0.12819312879E+04  0.17200000000E+03 0.  1.
         -6    1    1    2    0  502  0.63969962191E+02 -0.10129214689E+03 -0.47565574338E+03  0.51979288308E+03  0.17200000000E+03 0.  1.
</event>
<event>
 4    1  0.5714562E+000  0.2145444E+03  0.7818608E-02  0.1138017E+00
         21   -1    0    0  501  502  0.00000000000E+00  0.00000000000E+00  0.13595164868E+03  0.13595164868E+03  0.00000000000E+00 0. -1.
         21   -1    0    0  502  503 -0.00000000000E+00 -0.00000000000E+00 -0.34060783646E+03  0.34060783646E+03  0.00000000000E+00 0. -1.
          6    1    1    2  501    0 -0.12226611799E+02 -0.12765505173E+03 -0.83902357692E+02  0.23036689843E+03  0.17200000000E+03 0. -1.
         -6    1    1    2    0  503  0.12226611799E+02  0.12765505173E+03 -0.12075383009E+03  0.24619258671E+03  0.17200000000E+03 0. -1.
</event>
<event>
 4    1  0.5714562E+000  0.2503238E+03  0.7818608E-02  0.1113100E+00
         21   -1    0    0  501  502  0.00000000000E+00  0.00000000000E+00  0.24334912368E+03  0.24334912368E+03  0.00000000000E+00 0. -1.
         21   -1    0    0  502  503 -0.00000000000E+00 -0.00000000000E+00 -0.25792738755E+03  0.25792738755E+03  0.00000000000E+00 0. -1.
          6    1    1    2  501    0 -0.17909502958E+03  0.31669487236E+02  0.29336896178E+01  0.25034095266E+03  0.17200000000E+03 0. -1.
         -6    1    1    2    0  503  0.17909502958E+03 -0.31669487236E+02 -0.17511953486E+02  0.25093555858E+03  0.17200000000E+03 0. -1.
</event>
<event>
 4    1  0.5714562E+000  0.2396703E+03  0.7818608E-02  0.1120013E+00
         21   -1    0    0  503  502  0.00000000000E+00  0.00000000000E+00  0.11598763571E+03  0.11598763571E+03  0.00000000000E+00 0. -1.
         21   -1    0    0  501  503 -0.00000000000E+00 -0.00000000000E+00 -0.11348402827E+04  0.11348402827E+04  0.00000000000E+00 0.  1.
          6    1    1    2  501    0  0.12493805204E+02 -0.16643841452E+03 -0.97894639056E+03  0.10078580637E+04  0.17200000000E+03 0.  1.
         -6    1    1    2    0  502 -0.12493805204E+02  0.16643841452E+03 -0.39906256455E+02  0.24296985472E+03  0.17200000000E+03 0. -1.
</event>
<event>
 4    1  0.5714562E+000  0.2428747E+03  0.7818608E-02  0.1117892E+00
         21   -1    0    0  503  502  0.00000000000E+00  0.00000000000E+00  0.14943436046E+03  0.14943436046E+03  0.00000000000E+00 0.  1.
         21   -1    0    0  501  503 -0.00000000000E+00 -0.00000000000E+00 -0.45838522209E+03  0.45838522209E+03  0.00000000000E+00 0. -1.
          6    1    1    2  501    0  0.23525117923E+02  0.16985484464E+03 -0.26771640997E+03  0.36146946702E+03  0.17200000000E+03 0. -1.
         -6    1    1    2    0  502 -0.23525117923E+02 -0.16985484464E+03 -0.41234451667E+02  0.24635011553E+03  0.17200000000E+03 0.  1.
</event>
<event>
 4    1  0.5714562E+000  0.1768089E+03  0.7818608E-02  0.1170928E+00
         21   -1    0    0  503  502  0.00000000000E+00  0.00000000000E+00  0.72083933156E+02  0.72083933156E+02  0.00000000000E+00 0. -1.
         21   -1    0    0  501  503 -0.00000000000E+00 -0.00000000000E+00 -0.44150163132E+03  0.44150163132E+03  0.00000000000E+00 0. -1.
          6    1    1    2  501    0  0.28578729839E+02 -0.29336693692E+02 -0.21888755351E+03  0.28137723162E+03  0.17200000000E+03 0. -1.
         -6    1    1    2    0  502 -0.28578729839E+02  0.29336693692E+02 -0.15053014466E+03  0.23220833286E+03  0.17200000000E+03 0. -1.
</event>
<event>
 4    1  0.5714562E+000  0.1763265E+03  0.7818608E-02  0.1171406E+00
         21   -1    0    0  501  502  0.00000000000E+00  0.00000000000E+00  0.24496335267E+02  0.24496335267E+02  0.00000000000E+00 0.  1.
         21   -1    0    0  502  503 -0.00000000000E+00 -0.00000000000E+00 -0.14575929706E+04  0.14575929706E+04  0.00000000000E+00 0.  1.
          6    1    1    2  501    0  0.14065033635E+02  0.36182988830E+02 -0.45014159755E+03  0.48344440394E+03  0.17200000000E+03 0.  1.
         -6    1    1    2    0  503 -0.14065033635E+02 -0.36182988830E+02 -0.98295503783E+03  0.99864490197E+03  0.17200000000E+03 0.  1.
</event>
<event>
 4    1  0.5714562E+000  0.2764420E+03  0.7818608E-02  0.1097648E+00
         21   -1    0    0  503  502  0.00000000000E+00  0.00000000000E+00  0.88058771276E+03  0.88058771276E+03  0.00000000000E+00 0.  1.
         21   -1    0    0  501  503 -0.00000000000E+00 -0.00000000000E+00 -0.11694364794E+03  0.11694364794E+03  0.00000000000E+00 0. -1.
          6    1    1    2  501    0  0.82315473431E+02  0.20015083365E+03  0.12852660380E+03  0.30485944509E+03  0.17200000000E+03 0.  1.
         -6    1    1    2    0  502 -0.82315473431E+02 -0.20015083365E+03  0.63511746102E+03  0.69267191560E+03  0.17200000000E+03 0.  1.
</event>
<event>
 4    1  0.5714562E+000  0.1756079E+03  0.7818608E-02  0.1172123E+00
         21   -1    0    0  503  502  0.00000000000E+00  0.00000000000E+00  0.55401634777E+03  0.55401634777E+03  0.00000000000E+00 0. -1.
         21   -1    0    0  501  503 -0.00000000000E+00 -0.00000000000E+00 -0.55699819134E+02  0.55699819134E+02  0.00000000000E+00 0. -1.
          6    1    1    2  501    0 -0.13074449102E+02  0.32912088296E+02  0.24130770725E+03  0.29844188103E+03  0.17200000000E+03 0. -1.
         -6    1    1    2    0  502  0.13074449102E+02 -0.32912088296E+02  0.25700882138E+03  0.31127428587E+03  0.17200000000E+03 0. -1.
</event>
<event>
 4    1  0.5714562E+000  0.2386556E+03  0.7818608E-02  0.1120692E+00
         21   -1    0    0  503  502  0.00000000000E+00  0.00000000000E+00  0.62121861060E+03  0.62121861060E+03  0.00000000000E+00 0.  1.
         21   -1    0    0  501  503 -0.00000000000E+00 -0.00000000000E+00 -0.91745556539E+02  0.91745556539E+02  0.00000000000E+00 0. -1.
          6    1    1    2  501    0 -0.10651008826E+03 -0.12660205266E+03  0.25558412639E+03  0.34968517884E+03  0.17200000000E+03 0.  1.
         -6    1    1    2    0  502  0.10651008826E+03  0.12660205266E+03  0.27388892767E+03  0.36327898830E+03  0.17200000000E+03 0.  1.
</event>
<event>
 4    1  0.5714562E+000  0.2071762E+03  0.7818608E-02  0.1143822E+00
         21   -1    0    0  501  502  0.00000000000E+00  0.00000000000E+00  0.17401683757E+03  0.17401683757E+03  0.00000000000E+00 0. -1.
         21   -1    0    0  502  503 -0.00000000000E+00 -0.00000000000E+00 -0.37155295944E+03  0.37155295944E+03  0.00000000000E+00 0.  1.
          6    1    1    2  501    0  0.42585462898E+02  0.10735193116E+03  0.59389250795E+02  0.21552039784E+03  0.17200000000E+03 0. -1.
         -6    1    1    2    0  503 -0.42585462898E+02 -0.10735193116E+03 -0.25692537267E+03  0.33004939917E+03  0.17200000000E+03 0.  1.
</event>
<event>
 4    1  0.5714562E+000  0.1968405E+03  0.7818608E-02  0.1152432E+00
         21   -1    0    0  503  502  0.00000000000E+00  0.00000000000E+00  0.41495320765E+03  0.41495320765E+03  0.00000000000E+00 0. -1.
         21   -1    0    0  501  503 -0.00000000000E+00 -0.00000000000E+00 -0.97433972576E+02  0.97433972576E+02  0.00000000000E+00 0. -1.
          6    1    1    2  501    0  0.45713279735E+02  0.84098032492E+02  0.10646819068E+03  0.22378931753E+03  0.17200000000E+03 0. -1.
         -6    1    1    2    0  502 -0.45713279735E+02 -0.84098032492E+02  0.21105104440E+03  0.28859786270E+03  0.17200000000E+03 0. -1.
</event>
<event>
 4    1  0.5714562E+000  0.3282185E+03  0.7818608E-02  0.1071928E+00
         21   -1    0    0  501  502  0.00000000000E+00  0.00000000000E+00  0.56752265963E+03  0.56752265963E+03  0.00000000000E+00 0.  1.
         21   -1    0    0  502  503 -0.00000000000E+00 -0.00000000000E+00 -0.25866681128E+03  0.25866681128E+03  0.00000000000E+00 0.  1.
          6    1    1    2  501    0  0.11363792803E+03  0.25540128710E+03  0.36754579062E+03  0.49276495852E+03  0.17200000000E+03 0.  1.
         -6    1    1    2    0  503 -0.11363792803E+03 -0.25540128710E+03 -0.58689942269E+02  0.33342451239E+03  0.17200000000E+03 0.  1.
</event>
<event>
 4    1  0.5714562E+000  0.4285792E+03  0.7818608E-02  0.1034310E+00
         21   -1    0    0  501  502  0.00000000000E+00  0.00000000000E+00  0.48073004626E+03  0.48073004626E+03  0.00000000000E+00 0.  1.
         21   -1    0    0  502  503 -0.00000000000E+00 -0.00000000000E+00 -0.38999457160E+03  0.38999457160E+03  0.00000000000E+00 0. -1.
          6    1    1    2  501    0 -0.37474930302E+03 -0.11687219638E+03  0.10736529388E+03  0.44182287936E+03  0.17200000000E+03 0. -1.
         -6    1    1    2    0  503  0.37474930302E+03  0.11687219638E+03 -0.16629819213E+02  0.42890173849E+03  0.17200000000E+03 0. -1.
</event>
<event>
 4    1  0.5714562E+000  0.1834646E+03  0.7818608E-02  0.1164491E+00
         21   -1    0    0  503  502  0.00000000000E+00  0.00000000000E+00  0.10932775381E+03  0.10932775381E+03  0.00000000000E+00 0. -1.
         21   -1    0    0  501  503 -0.00000000000E+00 -0.00000000000E+00 -0.31656080894E+03  0.31656080894E+03  0.00000000000E+00 0. -1.
          6    1    1    2  501    0  0.52780601340E+02  0.35909185211E+02 -0.13888992468E+03  0.23010795866E+03  0.17200000000E+03 0.  1.
         -6    1    1    2    0  502 -0.52780601340E+02 -0.35909185211E+02 -0.68343130440E+02  0.19578060409E+03  0.17200000000E+03 0.  1.
</event>
<event>
 4    1  0.5714562E+000  0.1979608E+03  0.7818608E-02  0.1151471E+00
         21   -1    0    0  501  502  0.00000000000E+00  0.00000000000E+00  0.78614676087E+03  0.78614676087E+03  0.00000000000E+00 0.  1.
         21   -1    0    0  502  503 -0.00000000000E+00 -0.00000000000E+00 -0.50068922345E+02  0.50068922345E+02  0.00000000000E+00 0. -1.
          6    1    1    2  501    0 -0.97204264338E+02  0.12482029829E+02  0.39576187248E+03  0.44251093748E+03  0.17200000000E+03 0.  1.
         -6    1    1    2    0  503  0.97204264338E+02 -0.12482029829E+02  0.34031596604E+03  0.39370474574E+03  0.17200000000E+03 0. -1.
</event>
<event>
 4    1  0.5714562E+000  0.1900771E+03  0.7818608E-02  0.1158392E+00
         21   -1    0    0  501  502  0.00000000000E+00  0.00000000000E+00  0.27213988160E+03  0.27213988160E+03  0.00000000000E+00 0. -1.
         21   -1    0    0  502  503 -0.00000000000E+00 -0.00000000000E+00 -0.14688984128E+03  0.14688984128E+03  0.00000000000E+00 0. -1.
          6    1    1    2  501    0 -0.80831076870E+02  0.34118242319E+01  0.12760609181E+03  0.22893802262E+03  0.17200000000E+03 0. -1.
         -6    1    1    2    0  503  0.80831076870E+02 -0.34118242319E+01 -0.23560514922E+01  0.19009170027E+03  0.17200000000E+03 0. -1.
</event>
<event>
 4    1  0.5714562E+000  0.1973251E+03  0.7818608E-02  0.1152016E+00
         21   -1    0    0  501  502  0.00000000000E+00  0.00000000000E+00  0.93516908151E+02  0.93516908151E+02  0.00000000000E+00 0. -1.
         21   -1    0    0  502  503 -0.00000000000E+00 -0.00000000000E+00 -0.45997610775E+03  0.45997610775E+03  0.00000000000E+00 0. -1.
          6    1    1    2  501    0  0.91568129052E+02  0.31120316976E+02 -0.98015486043E+02  0.22032755590E+03  0.17200000000E+03 0. -1.
         -6    1    1    2    0  503 -0.91568129052E+02 -0.31120316976E+02 -0.26844371355E+03  0.33316546000E+03  0.17200000000E+03 0. -1.
</event>
<event>
 4    1  0.5714562E+000  0.2196444E+03  0.7818608E-02  0.1134148E+00
         21   -1    0    0  501  502  0.00000000000E+00  0.00000000000E+00  0.77900321736E+03  0.77900321736E+03  0.00000000000E+00 0.  1.
         21   -1    0    0  502  503 -0.00000000000E+00 -0.00000000000E+00 -0.98829869219E+02  0.98829869219E+02  0.00000000000E+00 0.  1.
          6    1    1    2  501    0  0.40199976131E+02  0.13055124643E+03  0.71891920624E+02  0.23111061048E+03  0.17200000000E+03 0.  1.
         -6    1    1    2    0  503 -0.40199976131E+02 -0.13055124643E+03  0.60828142752E+03  0.64672247610E+03  0.17200000000E+03 0.  1.
</event>
<event>
 4    1  0.5714562E+000  0.1827281E+03  0.7818608E-02  0.1165189E+00
         21   -1    0    0  501  502  0.00000000000E+00  0.00000000000E+00  0.74484409489E+02  0.74484409489E+02  0.00000000000E+00 0. -1.
         21   -1    0    0  502  503 -0.00000000000E+00 -0.00000000000E+00 -0.51291970836E+03  0.51291970836E+03  0.00000000000E+00 0. -1.
          6    1    1    2  501    0  0.14281971805E+02  0.60013189910E+02 -0.11495082991E+03  0.21587786125E+03  0.17200000000E+03 0. -1.
         -6    1    1    2    0  503 -0.14281971805E+02 -0.60013189910E+02 -0.32348446897E+03  0.37152625660E+03  0.17200000000E+03 0. -1.
</event>
<event>
 4    1  0.5714562E+000  0.2699246E+03  0.7818608E-02  0.1101323E+00
         21   -1    0    0  503  502  0.00000000000E+00  0.00000000000E+00  0.97758266769E+02  0.97758266769E+02  0.00000000000E+00 0.  1.
         21   -1    0    0  501  503 -0.00000000000E+00 -0.00000000000E+00 -0.74530463524E+03  0.74530463524E+03  0.00000000000E+00 0. -1.
          6    1    1    2  501    0  0.18680158813E+03 -0.91544905895E+02 -0.32474371998E+03  0.42227690771E+03  0.17200000000E+03 0.  1.
         -6    1    1    2    0  502 -0.18680158813E+03  0.91544905895E+02 -0.32280264849E+03  0.42078599429E+03  0.17200000000E+03 0. -1.
</event>
<event>
 4    1  0.5714562E+000  0.3032762E+03  0.7818608E-02  0.1083614E+00
         21   -1    0    0  501  502  0.00000000000E+00  0.00000000000E+00  0.86889135097E+02  0.86889135097E+02  0.00000000000E+00 0. -1.
         21   -1    0    0  502  503 -0.00000000000E+00 -0.00000000000E+00 -0.17964900934E+04  0.17964900934E+04  0.00000000000E+00 0.  1.
          6    1    1    2  501    0 -0.20531447454E+03 -0.14226181522E+03 -0.25126049913E+03  0.39383790568E+03  0.17200000000E+03 0.  1.
         -6    1    1    2    0  503  0.20531447454E+03  0.14226181522E+03 -0.14583404591E+04  0.14895413228E+04  0.17200000000E+03 0.  1.
</event>
<event>
 4    1  0.5714562E+000  0.1851236E+03  0.7818608E-02  0.1162935E+00
         21   -1    0    0  503  502  0.00000000000E+00  0.00000000000E+00  0.31247571452E+03  0.31247571452E+03  0.00000000000E+00 0. -1.
         21   -1    0    0  501  503 -0.00000000000E+00 -0.00000000000E+00 -0.11628864340E+03  0.11628864340E+03  0.00000000000E+00 0.  1.
          6    1    1    2  501    0  0.37361050920E+02 -0.57366314343E+02  0.46967306449E+02  0.19098866464E+03  0.17200000000E+03 0.  1.
         -6    1    1    2    0  502 -0.37361050920E+02  0.57366314343E+02  0.14921976467E+03  0.23777569328E+03  0.17200000000E+03 0. -1.
</event>
<event>
 4    1  0.5714562E+000  0.2159960E+03  0.7818608E-02  0.1136904E+00
         21   -1    0    0  501  502  0.00000000000E+00  0.00000000000E+00  0.35295744724E+03  0.35295744724E+03  0.00000000000E+00 0. -1.
         21   -1    0    0  502  503 -0.00000000000E+00 -0.00000000000E+00 -0.15813966640E+03  0.15813966640E+03  0.00000000000E+00 0. -1.
          6    1    1    2  501    0  0.39383240914E+02  0.12457615601E+03  0.20094562164E+03  0.29501423892E+03  0.17200000000E+03 0.  1.
         -6    1    1    2    0  503 -0.39383240914E+02 -0.12457615601E+03 -0.61278408023E+01  0.21608287471E+03  0.17200000000E+03 0.  1.
</event>
<event>
 4    1  0.5714562E+000  0.2320821E+03  0.7818608E-02  0.1125183E+00
         21   -1    0    0  501  502  0.00000000000E+00  0.00000000000E+00  0.45336172561E+03  0.45336172561E+03  0.00000000000E+00 0. -1.
         21   -1    0    0  502  503 -0.00000000000E+00 -0.00000000000E+00 -0.17017774491E+03  0.17017774491E+03  0.00000000000E+00 0. -1.
          6    1    1    2  501    0  0.68088138581E+02  0.14015030603E+03  0.31288697208E+03  0.38956432100E+03  0.17200000000E+03 0. -1.
         -6    1    1    2    0  503 -0.68088138581E+02 -0.14015030603E+03 -0.29702991389E+02  0.23397514952E+03  0.17200000000E+03 0. -1.
</event>
<event>
 4    1  0.5714562E+000  0.2563877E+03  0.7818608E-02  0.1109333E+00
         21   -1    0    0  503  502  0.00000000000E+00  0.00000000000E+00  0.61701554514E+03  0.61701554514E+03  0.00000000000E+00 0.  1.
         21   -1    0    0  501  503 -0.00000000000E+00 -0.00000000000E+00 -0.10653648488E+03  0.10653648488E+03  0.00000000000E+00 0.  1.
          6    1    1    2  501    0  0.13345298836E+03 -0.13542881601E+03  0.25531663984E+03  0.36183041731E+03  0.17200000000E+03 0.  1.
         -6    1    1    2    0  502 -0.13345298836E+03  0.13542881601E+03  0.25516242042E+03  0.36172161272E+03  0.17200000000E+03 0.  1.
</event>
<event>
 4    1  0.5714562E+000  0.2096107E+03  0.7818608E-02  0.1141875E+00
         21   -1    0    0  503  502  0.00000000000E+00  0.00000000000E+00  0.73859069639E+02  0.73859069639E+02  0.00000000000E+00 0.  1.
         21   -1    0    0  501  503 -0.00000000000E+00 -0.00000000000E+00 -0.72722808868E+03  0.72722808868E+03  0.00000000000E+00 0.  1.
          6    1    1    2  501    0  0.58500768186E+02 -0.10454818195E+03 -0.49756287690E+03  0.53991247318E+03  0.17200000000E+03 0.  1.
         -6    1    1    2    0  502 -0.58500768186E+02  0.10454818195E+03 -0.15580614214E+03  0.26117468514E+03  0.17200000000E+03 0.  1.
</event>
<event>
 4    1  0.5714562E+000  0.2705554E+03  0.7818608E-02  0.1100962E+00
         21   -1    0    0  503  502  0.00000000000E+00  0.00000000000E+00  0.83307990720E+02  0.83307990720E+02  0.00000000000E+00 0. -1.
         21   -1    0    0  501  503 -0.00000000000E+00 -0.00000000000E+00 -0.12729761212E+04  0.12729761212E+04  0.00000000000E+00 0. -1.
          6    1    1    2  501    0  0.18905808545E+03  0.88731334091E+02 -0.97225628181E+03  0.10091989332E+04  0.17200000000E+03 0. -1.
         -6    1    1    2    0  502 -0.18905808545E+03 -0.88731334091E+02 -0.21741184868E+03  0.34708517869E+03  0.17200000000E+03 0. -1.
</event>
<event>
 4    1  0.5714562E+000  0.1807187E+03  0.7818608E-02  0.1167109E+00
         21   -1    0    0  503  502  0.00000000000E+00  0.00000000000E+00  0.11242692986E+03  0.11242692986E+03  0.00000000000E+00 0.  1.
         21   -1    0    0  501  503 -0.00000000000E+00 -0.00000000000E+00 -0.30271142382E+03  0.30271142382E+03  0.00000000000E+00 0.  1.
          6    1    1    2  501    0 -0.52261311801E+02  0.18546984781E+02 -0.13684417879E+03  0.22668384288E+03  0.17200000000E+03 0.  1.
         -6    1    1    2    0  502  0.52261311801E+02 -0.18546984781E+02 -0.53440315167E+02  0.18845451080E+03  0.17200000000E+03 0.  1.
</event>
<event>
 4    1  0.5714562E+000  0.1801405E+03  0.7818608E-02  0.1167667E+00
         21   -1    0    0  503  502  0.00000000000E+00  0.00000000000E+00  0.43348662290E+03  0.43348662290E+03  0.00000000000E+00 0. -1.
         21   -1    0    0  501  503 -0.00000000000E+00 -0.00000000000E+00 -0.13021417717E+03  0.13021417717E+03  0.00000000000E+00 0. -1.
          6    1    1    2  501    0  0.43497108126E+02 -0.31218478224E+02 -0.32130420070E+02  0.18298348475E+03  0.17200000000E+03 0. -1.
         -6    1    1    2    0  502 -0.43497108126E+02  0.31218478224E+02  0.33540286580E+03  0.38071731532E+03  0.17200000000E+03 0. -1.
</event>
<event>
 4    1  0.5714562E+000  0.2306266E+03  0.7818608E-02  0.1126200E+00
         21   -1    0    0  503  502  0.00000000000E+00  0.00000000000E+00  0.37230601361E+02  0.37230601361E+02  0.00000000000E+00 0.  1.
         21   -1    0    0  501  503 -0.00000000000E+00 -0.00000000000E+00 -0.20093221005E+04  0.20093221005E+04  0.00000000000E+00 0. -1.
          6    1    1    2  501    0  0.15026915080E+03  0.31996895121E+02 -0.15361467973E+04  0.15533626756E+04  0.17200000000E+03 0. -1.
         -6    1    1    2    0  502 -0.15026915080E+03 -0.31996895121E+02 -0.43594470184E+03  0.49319002630E+03  0.17200000000E+03 0.  1.
</event>
<event>
 4    1  0.5714562E+000  0.1735786E+03  0.7818608E-02  0.1174166E+00
         21   -1    0    0  501  502  0.00000000000E+00  0.00000000000E+00  0.26121001520E+03  0.26121001520E+03  0.00000000000E+00 0. -1.
         21   -1    0    0  502  503 -0.00000000000E+00 -0.00000000000E+00 -0.19414220954E+03  0.19414220954E+03  0.00000000000E+00 0. -1.
          6    1    1    2  501    0  0.22112279288E+02 -0.75223269764E+01  0.17858134114E+03  0.24903982353E+03  0.17200000000E+03 0.  1.
         -6    1    1    2    0  503 -0.22112279288E+02  0.75223269764E+01 -0.11151353548E+03  0.20631240121E+03  0.17200000000E+03 0.  1.
</event>
<event>
 4    1  0.5714562E+000  0.2006693E+03  0.7818608E-02  0.1149176E+00
         21   -1    0    0  503  502  0.00000000000E+00  0.00000000000E+00  0.34128259547E+02  0.34128259547E+02  0.00000000000E+00 0.  1.
         21   -1    0    0  501  503 -0.00000000000E+00 -0.00000000000E+00 -0.12071436287E+04  0.12071436287E+04  0.00000000000E+00 0.  1.
          6    1    1    2  501    0 -0.87029847018E+02  0.55767245780E+02 -0.49328269526E+03  0.53253732021E+03  0.17200000000E+03 0.  1.
         -6    1    1    2    0  502  0.87029847018E+02 -0.55767245780E+02 -0.67973267393E+03  0.70873456807E+03  0.17200000000E+03 0.  1.
</event>
<event>
 4    1  0.5714562E+000  0.2708545E+03  0.7818608E-02  0.1100792E+00
         21   -1    0    0  501  502  0.00000000000E+00  0.00000000000E+00  0.22621883753E+03  0.22621883753E+03  0.00000000000E+00 0.  1.
         21   -1    0    0  502  503 -0.00000000000E+00 -0.00000000000E+00 -0.33791613691E+03  0.33791613691E+03  0.00000000000E+00 0. -1.
          6    1    1    2  501    0  0.20921768322E+03  0.24762949831E+01  0.77758335422E+00  0.27085563617E+03  0.17200000000E+03 0.  1.
         -6    1    1    2    0  503 -0.20921768322E+03 -0.24762949831E+01 -0.11247488273E+03  0.29327933827E+03  0.17200000000E+03 0. -1.
</event>
<event>
 4    1  0.5714562E+000  0.2021930E+03  0.7818608E-02  0.1147902E+00
         21   -1    0    0  501  502  0.00000000000E+00  0.00000000000E+00  0.66911567440E+03  0.66911567440E+03  0.00000000000E+00 0.  1.
         21   -1    0    0  502  503 -0.00000000000E+00 -0.00000000000E+00 -0.79855471635E+02  0.79855471635E+02  0.00000000000E+00 0. -1.
          6    1    1    2  501    0  0.91418160823E+02  0.54228621646E+02  0.47612444022E+03  0.51727797760E+03  0.17200000000E+03 0.  1.
         -6    1    1    2    0  503 -0.91418160823E+02 -0.54228621646E+02  0.11313576255E+03  0.23169316844E+03  0.17200000000E+03 0. -1.
</event>
<event>
 4    1  0.5714562E+000  0.1738224E+03  0.7818608E-02  0.1173919E+00
         21   -1    0    0  503  502  0.00000000000E+00  0.00000000000E+00  0.19144933588E+03  0.19144933588E+03  0.00000000000E+00 0. -1.
         21   -1    0    0  501  503 -0.00000000000E+00 -0.00000000000E+00 -0.18445580259E+03  0.18445580259E+03  0.00000000000E+00 0. -1.
          6    1    1    2  501    0 -0.25048125924E+02 -0.16764964640E+01 -0.67927930902E+02  0.18662374728E+03  0.17200000000E+03 0. -1.
         -6    1    1    2    0  502  0.25048125924E+02  0.16764964640E+01  0.74921464188E+02  0.18928139118E+03  0.17200000000E+03 0. -1.
</event>
<event>
 4    1  0.5714562E+000  0.2216456E+03  0.7818608E-02  0.1132662E+00
         21   -1    0    0  503  502  0.00000000000E+00  0.00000000000E+00  0.26432778372E+03  0.26432778372E+03  0.00000000000E+00 0. -1.
         21   -1    0    0  501  503 -0.00000000000E+00 -0.00000000000E+00 -0.27498616461E+03  0.27498616461E+03  0.00000000000E+00 0. -1.
          6    1    1    2  501    0  0.11288255725E+03 -0.82463977920E+02 -0.15885088069E+03  0.27269100037E+03  0.17200000000E+03 0. -1.
         -6    1    1    2    0  502 -0.11288255725E+03  0.82463977920E+02  0.14819249979E+03  0.26662294796E+03  0.17200000000E+03 0. -1.
</event>
<event>
 4    1  0.5714562E+000  0.1897307E+03  0.7818608E-02  0.1158704E+00
         21   -1    0    0  501  502  0.00000000000E+00  0.00000000000E+00  0.59797103438E+02  0.59797103438E+02  0.00000000000E+00 0. -1.
         21   -1    0    0  502  503 -0.00000000000E+00 -0.00000000000E+00 -0.73972273652E+03  0.73972273652E+03  0.00000000000E+00 0. -1.
          6    1    1    2  501    0 -0.49643993247E+02  0.62842634254E+02 -0.51245567062E+03  0.54645085515E+03  0.17200000000E+03 0. -1.
         -6    1    1    2    0  503  0.49643993247E+02 -0.62842634254E+02 -0.16746996247E+03  0.25306898482E+03  0.17200000000E+03 0. -1.
</event>
<event>
 4    1  0.5714562E+000  0.1723948E+03  0.7818608E-02  0.1175373E+00
         21   -1    0    0  501  502  0.00000000000E+00  0.00000000000E+00  0.18072873414E+03  0.18072873414E+03  0.00000000000E+00 0.  1.
         21   -1    0    0  502  503 -0.00000000000E+00 -0.00000000000E+00 -0.19489563139E+03  0.19489563139E+03  0.00000000000E+00 0.  1.
          6    1    1    2  501    0 -0.10544768958E+02 -0.49788367853E+01  0.67153328881E+02  0.18501229837E+03  0.17200000000E+03 0. -1.
         -6    1    1    2    0  503  0.10544768958E+02  0.49788367853E+01 -0.81320226130E+02  0.19061206716E+03  0.17200000000E+03 0. -1.
</event>
<event>
 4    1  0.5714562E+000  0.2881751E+03  0.7818608E-02  0.1091306E+00
         21   -1    0    0  503  502  0.00000000000E+00  0.00000000000E+00  0.29881406576E+03  0.29881406576E+03  0.00000000000E+00 0. -1.
         21   -1    0    0  501  503 -0.00000000000E+00 -0.00000000000E+00 -0.32745397742E+03  0.32745397742E+03  0.00000000000E+00 0. -1.
          6    1    1    2  501    0  0.48055563088E+02 -0.22616713277E+03  0.10747482237E+03  0.30756421530E+03  0.17200000000E+03 0. -1.
         -6    1    1    2    0  502 -0.48055563088E+02  0.22616713277E+03 -0.13611473403E+03  0.31870382788E+03  0.17200000000E+03 0. -1.
</event>
<event>
 4    1  0.5714562E+000  0.1982762E+03  0.7818608E-02  0.1151202E+00
         21   -1    0    0  501  502  0.00000000000E+00  0.00000000000E+00  0.55636428191E+02  0.55636428191E+02  0.00000000000E+00 0. -1.
         21   -1    0    0  502  503 -0.00000000000E+00 -0.00000000000E+00 -0.71200194533E+03  0.71200194533E+03  0.00000000000E+00 0. -1.
          6    1    1    2  501    0 -0.43759866466E+02 -0.88399873453E+02 -0.29479333428E+03  0.35526971933E+03  0.17200000000E+03 0. -1.
         -6    1    1    2    0  503  0.43759866466E+02  0.88399873453E+02 -0.36157218286E+03  0.41236865419E+03  0.17200000000E+03 0. -1.
</event>
<event>
 4    1  0.5714562E+000  0.2381001E+03  0.7818608E-02  0.1121065E+00
         21   -1    0    0  503  502  0.00000000000E+00  0.00000000000E+00  0.38223789826E+02  0.38223789826E+02  0.00000000000E+00 0. -1.
         21   -1    0    0  501  503 -0.00000000000E+00 -0.00000000000E+00 -0.15753535953E+04  0.15753535953E+04  0.00000000000E+00 0. -1.
          6    1    1    2  501    0  0.11265321217E+03  0.12007043461E+03 -0.96374797225E+03  0.99272443785E+03  0.17200000000E+03 0. -1.
         -6    1    1    2    0  502 -0.11265321217E+03 -0.12007043461E+03 -0.57338183323E+03  0.62085294729E+03  0.17200000000E+03 0. -1.
</event>
<event>
 4    1  0.5714562E+000  0.2395247E+03  0.7818608E-02  0.1120110E+00
         21   -1    0    0  503  502  0.00000000000E+00  0.00000000000E+00  0.18799719983E+03  0.18799719983E+03  0.00000000000E+00 0. -1.
         21   -1    0    0  501  503 -0.00000000000E+00 -0.00000000000E+00 -0.33330403364E+03  0.33330403364E+03  0.00000000000E+00 0.  1.
          6    1    1    2  501    0 -0.11341535419E+03 -0.12216800973E+03 -0.14837419516E+03  0.28175692885E+03  0.17200000000E+03 0. -1.
         -6    1    1    2    0  502  0.11341535419E+03  0.12216800973E+03  0.30673613499E+01  0.23954430462E+03  0.17200000000E+03 0. -1.
</event>
<event>
 4    1  0.5714562E+000  0.2256658E+03  0.7818608E-02  0.1129728E+00
         21   -1    0    0  503  502  0.00000000000E+00  0.00000000000E+00  0.23824470598E+03  0.23824470598E+03  0.00000000000E+00 0. -1.
         21   -1    0    0  501  503 -0.00000000000E+00 -0.00000000000E+00 -0.29225329685E+03  0.29225329685E+03  0.00000000000E+00 0.  1.
          6    1    1    2  501    0 -0.11960991825E+03 -0.83872021232E+02 -0.16447658933E+03  0.27924469006E+03  0.17200000000E+03 0. -1.
         -6    1    1    2    0  502  0.11960991825E+03  0.83872021232E+02  0.11046799846E+03  0.25125331276E+03  0.17200000000E+03 0.  1.
</event>
<event>
 4    1  0.5714562E+000  0.2224495E+03  0.7818608E-02  0.1132070E+00
         21   -1    0    0  503  502  0.00000000000E+00  0.00000000000E+00  0.14906300447E+03  0.14906300447E+03  0.00000000000E+00 0. -1.
         21   -1    0    0  501  503 -0.00000000000E+00 -0.00000000000E+00 -0.87458551405E+03  0.87458551405E+03  0.00000000000E+00 0. -1.
          6    1    1    2  501    0 -0.12153354412E+03 -0.71619705022E+02 -0.76591212803E+03  0.79756201788E+03  0.17200000000E+03 0. -1.
         -6    1    1    2    0  502  0.12153354412E+03  0.71619705022E+02  0.40389618453E+02  0.22608650064E+03  0.17200000000E+03 0. -1.
</event>
<event>
 4    1  0.5714562E+000  0.1902931E+03  0.7818608E-02  0.1158197E+00
         21   -1    0    0  501  502  0.00000000000E+00  0.00000000000E+00  0.20052589860E+03  0.20052589860E+03  0.00000000000E+00 0.  1.
         21   -1    0    0  502  503 -0.00000000000E+00 -0.00000000000E+00 -0.25541043407E+03  0.25541043407E+03  0.00000000000E+00 0.  1.
          6    1    1    2  501    0 -0.78886455735E+02  0.20109308849E+02  0.95949709482E+02  0.21311453247E+03  0.17200000000E+03 0.  1.
         -6    1    1    2    0  503  0.78886455735E+02 -0.20109308849E+02 -0.15083424496E+03  0.24282180020E+03  0.17200000000E+03 0.  1.
</event>
<event>
 4    1  0.5714562E+000  0.1836730E+03  0.7818608E-02  0.1164295E+00
         21   -1    0    0  501  502  0.00000000000E+00  0.00000000000E+00  0.88143679516E+03  0.88143679516E+03  0.00000000000E+00 0.  1.
         21   -1    0    0  502  503 -0.00000000000E+00 -0.00000000000E+00 -0.39194360381E+02  0.39194360381E+02  0.00000000000E+00 0.  1.
          6    1    1    2  501    0  0.11591581454E+02  0.63383122342E+02  0.49167338065E+03  0.52486045593E+03  0.17200000000E+03 0.  1.
         -6    1    1    2    0  503 -0.11591581454E+02 -0.63383122342E+02  0.35056905413E+03  0.39577069962E+03  0.17200000000E+03 0.  1.
</event>
<event>
 4    1  0.5714562E+000  0.1911398E+03  0.7818608E-02  0.1157437E+00
         21   -1    0    0  503  502  0.00000000000E+00  0.00000000000E+00  0.33211618879E+03  0.33211618879E+03  0.00000000000E+00 0.  1.
         21   -1    0    0  501  503 -0.00000000000E+00 -0.00000000000E+00 -0.22394852710E+03  0.22394852710E+03  0.00000000000E+00 0.  1.
          6    1    1    2  501    0  0.47319298657E+02 -0.68638871472E+02 -0.14423604548E+03  0.23945447901E+03  0.17200000000E+03 0.  1.
         -6    1    1    2    0  502 -0.47319298657E+02  0.68638871472E+02  0.25240370717E+03  0.31661023688E+03  0.17200000000E+03 0.  1.
</event>
<event>
 4    1  0.5714562E+000  0.2089895E+03  0.7818608E-02  0.1142369E+00
         21   -1    0    0  503  502  0.00000000000E+00  0.00000000000E+00  0.38921473991E+02  0.38921473991E+02  0.00000000000E+00 0.  1.
         21   -1    0    0  501  503 -0.00000000000E+00 -0.00000000000E+00 -0.11950966429E+04  0.11950966429E+04  0.00000000000E+00 0.  1.
          6    1    1    2  501    0 -0.27560944214E+02 -0.11546871890E+03 -0.73050126130E+03  0.75980834652E+03  0.17200000000E+03 0.  1.
         -6    1    1    2    0  502  0.27560944214E+02  0.11546871890E+03 -0.42567390760E+03  0.47420977036E+03  0.17200000000E+03 0.  1.
</event>
<event>
 4    1  0.5714562E+000  0.2937367E+03  0.7818608E-02  0.1088414E+00
         21   -1    0    0  503  502  0.00000000000E+00  0.00000000000E+00  0.17791365335E+03  0.17791365335E+03  0.00000000000E+00 0. -1.
         21   -1    0    0  501  503 -0.00000000000E+00 -0.00000000000E+00 -0.78130818264E+03  0.78130818264E+03  0.00000000000E+00 0.  1.
          6    1    1    2  501    0 -0.12579052400E+03  0.20217318084E+03 -0.63193656823E+01  0.29380467212E+03  0.17200000000E+03 0. -1.
         -6    1    1    2    0  502  0.12579052400E+03 -0.20217318084E+03 -0.59707516360E+03  0.66541716387E+03  0.17200000000E+03 0.  1.
</event>
<event>
 4    1  0.5714562E+000  0.1955646E+03  0.7818608E-02  0.1153536E+00
         21   -1    0    0  501  502  0.00000000000E+00  0.00000000000E+00  0.10703076596E+03  0.10703076596E+03  0.00000000000E+00 0.  1.
         21   -1    0    0  502  503 -0.00000000000E+00 -0.00000000000E+00 -0.38450416578E+03  0.38450416578E+03  0.00000000000E+00 0. -1.
          6    1    1    2  501    0  0.80085835803E+02  0.47410722300E+02 -0.20407021018E+03  0.28264848906E+03  0.17200000000E+03 0. -1.
         -6    1    1    2    0  503 -0.80085835803E+02 -0.47410722300E+02 -0.73403189644E+02  0.20888644268E+03  0.17200000000E+03 0.  1.
</event>
<event>
 4    1  0.5714562E+000  0.1959589E+03  0.7818608E-02  0.1153194E+00
         21   -1    0    0  503  502  0.00000000000E+00  0.00000000000E+00  0.36394254500E+03  0.36394254500E+03  0.00000000000E+00 0.  1.
         21   -1    0    0  501  503 -0.00000000000E+00 -0.00000000000E+00 -0.12470217564E+03  0.12470217564E+03  0.00000000000E+00 0.  1.
          6    1    1    2  501    0  0.93497752156E+02 -0.86067028716E+01  0.23773270212E+02  0.19739572784E+03  0.17200000000E+03 0.  1.
         -6    1    1    2    0  502 -0.93497752156E+02  0.86067028716E+01  0.21546709914E+03  0.29124899280E+03  0.17200000000E+03 0.  1.
</event>
<event>
 4    1  0.5714562E+000  0.1929725E+03  0.7818608E-02  0.1155807E+00
         21   -1    0    0  501  502  0.00000000000E+00  0.00000000000E+00  0.13458486452E+03  0.13458486452E+03  0.00000000000E+00 0. -1.
         21   -1    0    0  502  503 -0.00000000000E+00 -0.00000000000E+00 -0.32420281912E+03  0.32420281912E+03  0.00000000000E+00 0. -1.
          6    1    1    2  501    0  0.73639119123E+02 -0.47240504942E+02 -0.18262533071E+03  0.26568853304E+03  0.17200000000E+03 0. -1.
         -6    1    1    2    0  503 -0.73639119123E+02  0.47240504942E+02 -0.69926238966E+01  0.19309915060E+03  0.17200000000E+03 0. -1.
</event>
<event>
 4    1  0.5714562E+000  0.1781838E+03  0.7818608E-02  0.1169572E+00
         21   -1    0    0  501  502  0.00000000000E+00  0.00000000000E+00  0.10707703322E+04  0.10707703322E+04  0.00000000000E+00 0. -1.
         21   -1    0    0  502  503 -0.00000000000E+00 -0.00000000000E+00 -0.44657785300E+02  0.44657785300E+02  0.00000000000E+00 0. -1.
          6    1    1    2  501    0 -0.41992088865E+02  0.20053248589E+02  0.83635654050E+03  0.85512673397E+03  0.17200000000E+03 0. -1.
         -6    1    1    2    0  503  0.41992088865E+02 -0.20053248589E+02  0.18975600641E+03  0.26030138354E+03  0.17200000000E+03 0. -1.
</event>
<event>
 4    1  0.5714562E+000  0.1725336E+03  0.7818608E-02  0.1175231E+00
         21   -1    0    0  501  502  0.00000000000E+00  0.00000000000E+00  0.75132757241E+02  0.75132757241E+02  0.00000000000E+00 0.  1.
         21   -1    0    0  502  503 -0.00000000000E+00 -0.00000000000E+00 -0.60473300105E+03  0.60473300105E+03  0.00000000000E+00 0.  1.
          6    1    1    2  501    0 -0.12137289767E+02  0.60433306578E+01 -0.65184076856E+02  0.18443643763E+03  0.17200000000E+03 0.  1.
         -6    1    1    2    0  503  0.12137289767E+02 -0.60433306578E+01 -0.46441616696E+03  0.49542932067E+03  0.17200000000E+03 0.  1.
</event>
<event>
 4    1  0.5714562E+000  0.1750843E+03  0.7818608E-02  0.1172647E+00
         21   -1    0    0  501  502  0.00000000000E+00  0.00000000000E+00  0.13878740161E+03  0.13878740161E+03  0.00000000000E+00 0.  1.
         21   -1    0    0  502  503 -0.00000000000E+00 -0.00000000000E+00 -0.22456493620E+03  0.22456493620E+03  0.00000000000E+00 0.  1.
          6    1    1    2  501    0  0.27866366130E+02  0.17146100478E+02 -0.19597261992E+02  0.17617768247E+03  0.17200000000E+03 0. -1.
         -6    1    1    2    0  503 -0.27866366130E+02 -0.17146100478E+02 -0.66180272601E+02  0.18717465535E+03  0.17200000000E+03 0. -1.
</event>
<event>
 4    1  0.5714562E+000  0.2122739E+03  0.7818608E-02  0.1139778E+00
         21   -1    0    0  503  502  0.00000000000E+00  0.00000000000E+00  0.27518075870E+03  0.27518075870E+03  0.00000000000E+00 0. -1.
         21   -1    0    0  501  503 -0.00000000000E+00 -0.00000000000E+00 -0.72165553752E+03  0.72165553752E+03  0.00000000000E+00 0.  1.
          6    1    1    2  501    0  0.12327407874E+03  0.16724573424E+02 -0.66147547059E+03  0.69470138048E+03  0.17200000000E+03 0.  1.
         -6    1    1    2    0  502 -0.12327407874E+03 -0.16724573424E+02  0.21500069177E+03  0.30213491574E+03  0.17200000000E+03 0. -1.
</event>
<event>
 4    1  0.5714562E+000  0.3500513E+03  0.7818608E-02  0.1062594E+00
         21   -1    0    0  503  502  0.00000000000E+00  0.00000000000E+00  0.67143723346E+02  0.67143723346E+02  0.00000000000E+00 0. -1.
         21   -1    0    0  501  503 -0.00000000000E+00 -0.00000000000E+00 -0.18729214436E+04  0.18729214436E+04  0.00000000000E+00 0.  1.
          6    1    1    2  501    0  0.30028280420E+03 -0.52745917939E+02 -0.10580868169E+04  0.11144880468E+04  0.17200000000E+03 0. -1.
         -6    1    1    2    0  502 -0.30028280420E+03  0.52745917939E+02 -0.74769090336E+03  0.82557712016E+03  0.17200000000E+03 0.  1.
</event>
<event>
 4    1  0.5714562E+000  0.1767591E+03  0.7818608E-02  0.1170977E+00
         21   -1    0    0  503  502  0.00000000000E+00  0.00000000000E+00  0.12461190518E+03  0.12461190518E+03  0.00000000000E+00 0.  1.
         21   -1    0    0  501  503 -0.00000000000E+00 -0.00000000000E+00 -0.25254193777E+03  0.25254193777E+03  0.00000000000E+00 0.  1.
          6    1    1    2  501    0  0.24492904914E+02 -0.32555795919E+02 -0.79943956290E+02  0.19399695458E+03  0.17200000000E+03 0. -1.
         -6    1    1    2    0  502 -0.24492904914E+02  0.32555795919E+02 -0.47986076300E+02  0.18315688837E+03  0.17200000000E+03 0. -1.
</event>
<event>
 4    1  0.5714562E+000  0.1746422E+03  0.7818608E-02  0.1173091E+00
         21   -1    0    0  503  502  0.00000000000E+00  0.00000000000E+00  0.11228532647E+04  0.11228532647E+04  0.00000000000E+00 0.  1.
         21   -1    0    0  501  503 -0.00000000000E+00 -0.00000000000E+00 -0.27173947025E+02  0.27173947025E+02  0.00000000000E+00 0.  1.
          6    1    1    2  501    0  0.29114000665E+02 -0.82627047584E+01  0.53622086512E+03  0.56394389217E+03  0.17200000000E+03 0.  1.
         -6    1    1    2    0  502 -0.29114000665E+02  0.82627047584E+01  0.55945845253E+03  0.58608331953E+03  0.17200000000E+03 0.  1.
</event>
<event>
 4    1  0.5714562E+000  0.1794151E+03  0.7818608E-02  0.1168370E+00
         21   -1    0    0  501  502  0.00000000000E+00  0.00000000000E+00  0.72328522589E+03  0.72328522589E+03  0.00000000000E+00 0. -1.
         21   -1    0    0  502  503 -0.00000000000E+00 -0.00000000000E+00 -0.45716569072E+02  0.45716569072E+02  0.00000000000E+00 0. -1.
          6    1    1    2  501    0 -0.49520714811E+02  0.12388237056E+02  0.40138001196E+03  0.43965404992E+03  0.17200000000E+03 0. -1.
         -6    1    1    2    0  503  0.49520714811E+02 -0.12388237056E+02  0.27618864485E+03  0.32934774503E+03  0.17200000000E+03 0. -1.
</event>
<event>
 4    1  0.5714562E+000  0.4373499E+03  0.7818608E-02  0.1031563E+00
         21   -1    0    0  501  502  0.00000000000E+00  0.00000000000E+00  0.12697803973E+03  0.12697803973E+03  0.00000000000E+00 0.  1.
         21   -1    0    0  502  503 -0.00000000000E+00 -0.00000000000E+00 -0.16901382043E+04  0.16901382043E+04  0.00000000000E+00 0.  1.
          6    1    1    2  501    0 -0.34746859733E+03 -0.20237713697E+03 -0.10811760007E+04  0.11662831887E+04  0.17200000000E+03 0.  1.
         -6    1    1    2    0  503  0.34746859733E+03  0.20237713697E+03 -0.48198416385E+03  0.65083305532E+03  0.17200000000E+03 0.  1.
</event>
<event>
 4    1  0.5714562E+000  0.3174277E+03  0.7818608E-02  0.1076839E+00
         21   -1    0    0  503  502  0.00000000000E+00  0.00000000000E+00  0.70473608380E+02  0.70473608380E+02  0.00000000000E+00 0.  1.
         21   -1    0    0  501  503 -0.00000000000E+00 -0.00000000000E+00 -0.14359588705E+04  0.14359588705E+04  0.00000000000E+00 0.  1.
          6    1    1    2  501    0  0.93731763841E+02  0.24978135876E+03 -0.63325543837E+03  0.70835924569E+03  0.17200000000E+03 0. -1.
         -6    1    1    2    0  502 -0.93731763841E+02 -0.24978135876E+03 -0.73222982374E+03  0.79807323317E+03  0.17200000000E+03 0. -1.
</event>
<event>
 4    1  0.5714562E+000  0.1790982E+03  0.7818608E-02  0.1168679E+00
         21   -1    0    0  501  502  0.00000000000E+00  0.00000000000E+00  0.24302437743E+03  0.24302437743E+03  0.00000000000E+00 0. -1.
         21   -1    0    0  502  503 -0.00000000000E+00 -0.00000000000E+00 -0.21138825129E+03  0.21138825129E+03  0.00000000000E+00 0. -1.
          6    1    1    2  501    0  0.18493994642E+02 -0.46369617200E+02  0.15506716437E+03  0.23690081195E+03  0.17200000000E+03 0. -1.
         -6    1    1    2    0  503 -0.18493994642E+02  0.46369617200E+02 -0.12343103823E+03  0.21751181677E+03  0.17200000000E+03 0. -1.
</event>
<event>
 4    1  0.5714562E+000  0.2565907E+03  0.7818608E-02  0.1109209E+00
         21   -1    0    0  503  502  0.00000000000E+00  0.00000000000E+00  0.31095570433E+03  0.31095570433E+03  0.00000000000E+00 0.  1.
         21   -1    0    0  501  503 -0.00000000000E+00 -0.00000000000E+00 -0.42952971325E+03  0.42952971325E+03  0.00000000000E+00 0. -1.
          6    1    1    2  501    0 -0.11451409806E+03 -0.15212260347E+03 -0.32293118857E+03  0.41246008012E+03  0.17200000000E+03 0. -1.
         -6    1    1    2    0  502  0.11451409806E+03  0.15212260347E+03  0.20435717965E+03  0.32802533746E+03  0.17200000000E+03 0. -1.
</event>
<event>
 4    1  0.5714562E+000  0.2166559E+03  0.7818608E-02  0.1136401E+00
         21   -1    0    0  501  502  0.00000000000E+00  0.00000000000E+00  0.27983666009E+03  0.27983666009E+03  0.00000000000E+00 0. -1.
         21   -1    0    0  502  503 -0.00000000000E+00 -0.00000000000E+00 -0.76684713312E+03  0.76684713312E+03  0.00000000000E+00 0. -1.
          6    1    1    2  501    0  0.18716797250E+02 -0.13040499911E+03  0.21907106000E+03  0.30811022641E+03  0.17200000000E+03 0. -1.
         -6    1    1    2    0  503 -0.18716797250E+02  0.13040499911E+03 -0.70608153302E+03  0.73857356680E+03  0.17200000000E+03 0. -1.
</event>
<event>
 4    1  0.5714562E+000  0.3155804E+03  0.7818608E-02  0.1077701E+00
         21   -1    0    0  501  502  0.00000000000E+00  0.00000000000E+00  0.80456588916E+03  0.80456588916E+03  0.00000000000E+00 0. -1.
         21   -1    0    0  502  503 -0.00000000000E+00 -0.00000000000E+00 -0.12418732765E+03  0.12418732765E+03  0.00000000000E+00 0. -1.
          6    1    1    2  501    0 -0.67292606374E+01  0.26450277374E+03  0.36670996298E+03  0.48380491649E+03  0.17200000000E+03 0. -1.
         -6    1    1    2    0  503  0.67292606374E+01 -0.26450277374E+03  0.31366859852E+03  0.44494830033E+03  0.17200000000E+03 0. -1.
</event>
<event>
 4    1  0.5714562E+000  0.3738191E+03  0.7818608E-02  0.1053242E+00
         21   -1    0    0  503  502  0.00000000000E+00  0.00000000000E+00  0.29804378094E+03  0.29804378094E+03  0.00000000000E+00 0. -1.
         21   -1    0    0  501  503 -0.00000000000E+00 -0.00000000000E+00 -0.47208110100E+03  0.47208110100E+03  0.00000000000E+00 0.  1.
          6    1    1    2  501    0 -0.27653683343E+03 -0.18353221508E+03 -0.55209620037E+02  0.37787404828E+03  0.17200000000E+03 0. -1.
         -6    1    1    2    0  502  0.27653683343E+03  0.18353221508E+03 -0.11882770002E+03  0.39225083367E+03  0.17200000000E+03 0.  1.
</event>
<event>
 4    1  0.5714562E+000  0.1761526E+03  0.7818608E-02  0.1171579E+00
         21   -1    0    0  501  502  0.00000000000E+00  0.00000000000E+00  0.65562492235E+02  0.65562492235E+02  0.00000000000E+00 0.  1.
         21   -1    0    0  502  503 -0.00000000000E+00 -0.00000000000E+00 -0.70696168993E+03  0.70696168993E+03  0.00000000000E+00 0.  1.
          6    1    1    2  501    0 -0.53706909815E+01 -0.37641553048E+02 -0.98628504983E+02  0.20188440463E+03  0.17200000000E+03 0.  1.
         -6    1    1    2    0  503  0.53706909815E+01  0.37641553048E+02 -0.54277069271E+03  0.57063977753E+03  0.17200000000E+03 0.  1.
</event>
<event>
 4    1  0.5714562E+000  0.1921825E+03  0.7818608E-02  0.1156507E+00
         21   -1    0    0  503  502  0.00000000000E+00  0.00000000000E+00  0.11335824356E+03  0.11335824356E+03  0.00000000000E+00 0. -1.
         21   -1    0    0  501  503 -0.00000000000E+00 -0.00000000000E+00 -0.33103099611E+03  0.33103099611E+03  0.00000000000E+00 0. -1.
          6    1    1    2  501    0 -0.55202418394E+01 -0.85554973608E+02 -0.13672029406E+03  0.23585284689E+03  0.17200000000E+03 0. -1.
         -6    1    1    2    0  502  0.55202418394E+01  0.85554973608E+02 -0.80952458487E+02  0.20853639278E+03  0.17200000000E+03 0. -1.
</event>
<event>
 4    1  0.5714562E+000  0.1758368E+03  0.7818608E-02  0.1171894E+00
         21   -1    0    0  501  502  0.00000000000E+00  0.00000000000E+00  0.66567593590E+02  0.66567593590E+02  0.00000000000E+00 0. -1.
         21   -1    0    0  502  503 -0.00000000000E+00 -0.00000000000E+00 -0.47646296933E+03  0.47646296933E+03  0.00000000000E+00 0. -1.
          6    1    1    2  501    0 -0.14285676593E+02 -0.33622893213E+02 -0.16186901757E+03  0.23899823922E+03  0.17200000000E+03 0.  1.
         -6    1    1    2    0  503  0.14285676593E+02  0.33622893213E+02 -0.24802635817E+03  0.30403232370E+03  0.17200000000E+03 0.  1.
</event>
<event>
 4    1  0.5714562E+000  0.1804370E+03  0.7818608E-02  0.1167381E+00
         21   -1    0    0  503  502  0.00000000000E+00  0.00000000000E+00  0.30577355889E+03  0.30577355889E+03  0.00000000000E+00 0. -1.
         21   -1    0    0  501  503 -0.00000000000E+00 -0.00000000000E+00 -0.14189118352E+03  0.14189118352E+03  0.00000000000E+00 0. -1.
          6    1    1    2  501    0  0.32972508334E+02  0.43431693615E+02 -0.29884321279E+02  0.18289497252E+03  0.17200000000E+03 0. -1.
         -6    1    1    2    0  502 -0.32972508334E+02 -0.43431693615E+02  0.19376669665E+03  0.26476976989E+03  0.17200000000E+03 0. -1.
</event>
<event>
 4    1  0.5714562E+000  0.2453154E+03  0.7818608E-02  0.1116302E+00
         21   -1    0    0  501  502  0.00000000000E+00  0.00000000000E+00  0.55719412731E+03  0.55719412731E+03  0.00000000000E+00 0. -1.
         21   -1    0    0  502  503 -0.00000000000E+00 -0.00000000000E+00 -0.11403328547E+03  0.11403328547E+03  0.00000000000E+00 0.  1.
          6    1    1    2  501    0  0.15915339812E+03  0.72565964812E+02  0.29874696883E+03  0.38656095866E+03  0.17200000000E+03 0. -1.
         -6    1    1    2    0  503 -0.15915339812E+03 -0.72565964812E+02  0.14441387301E+03  0.28466645412E+03  0.17200000000E+03 0.  1.
</event>
<event>
 4    1  0.5714562E+000  0.1887219E+03  0.7818608E-02  0.1159619E+00
         21   -1    0    0  501  502  0.00000000000E+00  0.00000000000E+00  0.32881110234E+03  0.32881110234E+03  0.00000000000E+00 0.  1.
         21   -1    0    0  502  503 -0.00000000000E+00 -0.00000000000E+00 -0.11320016183E+03  0.11320016183E+03  0.00000000000E+00 0.  1.
          6    1    1    2  501    0  0.56065716905E+02  0.53745616217E+02  0.61905368755E+02  0.19861578627E+03  0.17200000000E+03 0.  1.
         -6    1    1    2    0  503 -0.56065716905E+02 -0.53745616217E+02  0.15370557175E+03  0.24339547790E+03  0.17200000000E+03 0.  1.
</event>
<event>
 4    1  0.5714562E+000  0.1861323E+03  0.7818608E-02  0.1161997E+00
         21   -1    0    0  503  502  0.00000000000E+00  0.00000000000E+00  0.72305267844E+03  0.72305267844E+03  0.00000000000E+00 0.  1.
         21   -1    0    0  501  503 -0.00000000000E+00 -0.00000000000E+00 -0.75865149002E+02  0.75865149002E+02  0.00000000000E+00 0.  1.
          6    1    1    2  501    0  0.12300607554E+02  0.70070891047E+02  0.81133126986E+02  0.20304634696E+03  0.17200000000E+03 0.  1.
         -6    1    1    2    0  502 -0.12300607554E+02 -0.70070891047E+02  0.56605440245E+03  0.59587148048E+03  0.17200000000E+03 0.  1.
</event>
<event>
 4    1  0.5714562E+000  0.2164085E+03  0.7818608E-02  0.1136589E+00
         21   -1    0    0  503  502  0.00000000000E+00  0.00000000000E+00  0.19307055184E+03  0.19307055184E+03  0.00000000000E+00 0.  1.
         21   -1    0    0  501  503 -0.00000000000E+00 -0.00000000000E+00 -0.24371995369E+03  0.24371995369E+03  0.00000000000E+00 0. -1.
          6    1    1    2  501    0 -0.13122465291E+03 -0.53588411981E+01 -0.40343092289E+02  0.22013675706E+03  0.17200000000E+03 0. -1.
         -6    1    1    2    0  502  0.13122465291E+03  0.53588411981E+01 -0.10306309563E+02  0.21665374847E+03  0.17200000000E+03 0.  1.
</event>
<event>
 4    1  0.5714562E+000  0.2059309E+03  0.7818608E-02  0.1144829E+00
         21   -1    0    0  503  502  0.00000000000E+00  0.00000000000E+00  0.50845352824E+03  0.50845352824E+03  0.00000000000E+00 0.  1.
         21   -1    0    0  501  503 -0.00000000000E+00 -0.00000000000E+00 -0.89901252771E+02  0.89901252771E+02  0.00000000000E+00 0.  1.
          6    1    1    2  501    0  0.94916293675E+02  0.61761082738E+02  0.28969899229E+03  0.35543359475E+03  0.17200000000E+03 0.  1.
         -6    1    1    2    0  502 -0.94916293675E+02 -0.61761082738E+02  0.12885328318E+03  0.24292118625E+03  0.17200000000E+03 0.  1.
</event>
<event>
 4    1  0.5714562E+000  0.2375636E+03  0.7818608E-02  0.1121427E+00
         21   -1    0    0  501  502  0.00000000000E+00  0.00000000000E+00  0.27921102030E+03  0.27921102030E+03  0.00000000000E+00 0.  1.
         21   -1    0    0  502  503 -0.00000000000E+00 -0.00000000000E+00 -0.42207533773E+03  0.42207533773E+03  0.00000000000E+00 0. -1.
          6    1    1    2  501    0  0.22977884431E+01  0.16385115579E+03  0.18168952548E+03  0.29907785734E+03  0.17200000000E+03 0.  1.
         -6    1    1    2    0  503 -0.22977884431E+01 -0.16385115579E+03 -0.32455384291E+03  0.40220850069E+03  0.17200000000E+03 0. -1.
</event>
<event>
 4    1  0.5714562E+000  0.2426680E+03  0.7818608E-02  0.1118028E+00
         21   -1    0    0  501  502  0.00000000000E+00  0.00000000000E+00  0.37100888595E+03  0.37100888595E+03  0.00000000000E+00 0.  1.
         21   -1    0    0  502  503 -0.00000000000E+00 -0.00000000000E+00 -0.19010980976E+03  0.19010980976E+03  0.00000000000E+00 0. -1.
          6    1    1    2  501    0  0.16014934238E+03  0.60464562879E+02 -0.23547510907E+02  0.24380783519E+03  0.17200000000E+03 0.  1.
         -6    1    1    2    0  503 -0.16014934238E+03 -0.60464562879E+02  0.20444658710E+03  0.31731086053E+03  0.17200000000E+03 0.  1.
</event>
<event>
 4    1  0.5714562E+000  0.3520996E+03  0.7818608E-02  0.1061757E+00
         21   -1    0    0  503  502  0.00000000000E+00  0.00000000000E+00  0.83453683074E+03  0.83453683074E+03  0.00000000000E+00 0.  1.
         21   -1    0    0  501  503 -0.00000000000E+00 -0.00000000000E+00 -0.17604280081E+03  0.17604280081E+03  0.00000000000E+00 0.  1.
          6    1    1    2  501    0  0.14277614091E+02 -0.30689788236E+03  0.12958026572E+03  0.37518689439E+03  0.17200000000E+03 0.  1.
         -6    1    1    2    0  502 -0.14277614091E+02  0.30689788236E+03  0.52891376421E+03  0.63539273716E+03  0.17200000000E+03 0.  1.
</event>
<event>
 4    1  0.5714562E+000  0.2046943E+03  0.7818608E-02  0.1145838E+00
         21   -1    0    0  501  502  0.00000000000E+00  0.00000000000E+00  0.46986230839E+02  0.46986230839E+02  0.00000000000E+00 0. -1.
         21   -1    0    0  502  503 -0.00000000000E+00 -0.00000000000E+00 -0.89922010295E+03  0.89922010295E+03  0.00000000000E+00 0. -1.
          6    1    1    2  501    0 -0.78614599677E+02 -0.78329418775E+02 -0.38298279935E+03  0.43425289605E+03  0.17200000000E+03 0.  1.
         -6    1    1    2    0  503  0.78614599677E+02  0.78329418775E+02 -0.46925107276E+03  0.51195343774E+03  0.17200000000E+03 0.  1.
</event>
<event>
 4    1  0.5714562E+000  0.2394403E+03  0.7818608E-02  0.1120166E+00
         21   -1    0    0  501  502  0.00000000000E+00  0.00000000000E+00  0.31564175058E+04  0.31564175058E+04  0.00000000000E+00 0. -1.
         21   -1    0    0  502  503 -0.00000000000E+00 -0.00000000000E+00 -0.14793413324E+03  0.14793413324E+03  0.00000000000E+00 0. -1.
          6    1    1    2  501    0 -0.56375933980E+02 -0.15674640239E+03  0.30516688974E+04  0.30610479807E+04  0.17200000000E+03 0. -1.
         -6    1    1    2    0  503  0.56375933980E+02  0.15674640239E+03 -0.43185524891E+02  0.24330365833E+03  0.17200000000E+03 0. -1.
</event>
<event>
 4    1  0.5714562E+000  0.1794199E+03  0.7818608E-02  0.1168366E+00
         21   -1    0    0  501  502  0.00000000000E+00  0.00000000000E+00  0.30650438882E+03  0.30650438882E+03  0.00000000000E+00 0. -1.
         21   -1    0    0  502  503 -0.00000000000E+00 -0.00000000000E+00 -0.12686016512E+03  0.12686016512E+03  0.00000000000E+00 0. -1.
          6    1    1    2  501    0 -0.56658028650E+01  0.50748416264E+02  0.17971191970E+03  0.25394463404E+03  0.17200000000E+03 0. -1.
         -6    1    1    2    0  503  0.56658028650E+01 -0.50748416264E+02 -0.67695998561E-01  0.17941991990E+03  0.17200000000E+03 0. -1.
</event>
<event>
 4    1  0.5714562E+000  0.2338853E+03  0.7818608E-02  0.1123935E+00
         21   -1    0    0  501  502  0.00000000000E+00  0.00000000000E+00  0.24426724842E+03  0.24426724842E+03  0.00000000000E+00 0.  1.
         21   -1    0    0  502  503 -0.00000000000E+00 -0.00000000000E+00 -0.24410769311E+03  0.24410769311E+03  0.00000000000E+00 0.  1.
          6    1    1    2  501    0 -0.11581462591E+03  0.10819100446E+03  0.70259504220E+02  0.24421039895E+03  0.17200000000E+03 0.  1.
         -6    1    1    2    0  503  0.11581462591E+03 -0.10819100446E+03 -0.70099948907E+02  0.24416454259E+03  0.17200000000E+03 0.  1.
</event>
<event>
 4    1  0.5714562E+000  0.2099405E+03  0.7818608E-02  0.1141613E+00
         21   -1    0    0  503  502  0.00000000000E+00  0.00000000000E+00  0.41585859074E+02  0.41585859074E+02  0.00000000000E+00 0. -1.
         21   -1    0    0  501  503 -0.00000000000E+00 -0.00000000000E+00 -0.15343062015E+04  0.15343062015E+04  0.00000000000E+00 0. -1.
          6    1    1    2  501    0  0.11177949975E+03 -0.44680546701E+02 -0.11845234000E+04  0.12029840785E+04  0.17200000000E+03 0. -1.
         -6    1    1    2    0  502 -0.11177949975E+03  0.44680546701E+02 -0.30819694237E+03  0.37290798209E+03  0.17200000000E+03 0. -1.
</event>
<event>
 4    1  0.5714562E+000  0.1732013E+03  0.7818608E-02  0.1174550E+00
         21   -1    0    0  503  502  0.00000000000E+00  0.00000000000E+00  0.11161653295E+04  0.11161653295E+04  0.00000000000E+00 0. -1.
         21   -1    0    0  501  503 -0.00000000000E+00 -0.00000000000E+00 -0.44422134530E+02  0.44422134530E+02  0.00000000000E+00 0. -1.
          6    1    1    2  501    0  0.20328209694E+02 -0.11994937459E+01  0.90056849678E+03  0.91707267558E+03  0.17200000000E+03 0. -1.
         -6    1    1    2    0  502 -0.20328209694E+02  0.11994937459E+01  0.17117469818E+03  0.24351478845E+03  0.17200000000E+03 0. -1.
</event>
<event>
 4    1  0.5714562E+000  0.1935093E+03  0.7818608E-02  0.1155334E+00
         21   -1    0    0  503  502  0.00000000000E+00  0.00000000000E+00  0.73233425327E+02  0.73233425327E+02  0.00000000000E+00 0. -1.
         21   -1    0    0  501  503 -0.00000000000E+00 -0.00000000000E+00 -0.51863305005E+03  0.51863305005E+03  0.00000000000E+00 0. -1.
          6    1    1    2  501    0 -0.24496787838E+02  0.85216023002E+02 -0.25783585505E+03  0.32237430317E+03  0.17200000000E+03 0. -1.
         -6    1    1    2    0  502  0.24496787838E+02 -0.85216023002E+02 -0.18756376967E+03  0.26949217221E+03  0.17200000000E+03 0. -1.
</event>
<event>
 4    1  0.5714562E+000  0.1774542E+03  0.7818608E-02  0.1170290E+00
         21   -1    0    0  501  502  0.00000000000E+00  0.00000000000E+00  0.32996540918E+03  0.32996540918E+03  0.00000000000E+00 0. -1.
         21   -1    0    0  502  503 -0.00000000000E+00 -0.00000000000E+00 -0.11000038074E+03  0.11000038074E+03  0.00000000000E+00 0. -1.
          6    1    1    2  501    0  0.34281851196E+02  0.27032282082E+02  0.19003308848E+03  0.26000493133E+03  0.17200000000E+03 0. -1.
         -6    1    1    2    0  503 -0.34281851196E+02 -0.27032282082E+02  0.29931939962E+02  0.17996085859E+03  0.17200000000E+03 0. -1.
</event>
<event>
 4    1  0.5714562E+000  0.2087007E+03  0.7818608E-02  0.1142599E+00
         21   -1    0    0  503  502  0.00000000000E+00  0.00000000000E+00  0.82036282042E+02  0.82036282042E+02  0.00000000000E+00 0. -1.
         21   -1    0    0  501  503 -0.00000000000E+00 -0.00000000000E+00 -0.75023961037E+03  0.75023961037E+03  0.00000000000E+00 0. -1.
          6    1    1    2  501    0 -0.11547785763E+03  0.25236120240E+02 -0.55909022277E+03  0.59677288357E+03  0.17200000000E+03 0. -1.
         -6    1    1    2    0  502  0.11547785763E+03 -0.25236120240E+02 -0.10911310555E+03  0.23550300884E+03  0.17200000000E+03 0. -1.
</event>
<event>
 4    1  0.5714562E+000  0.2044734E+03  0.7818608E-02  0.1146019E+00
         21   -1    0    0  501  502  0.00000000000E+00  0.00000000000E+00  0.22207678769E+03  0.22207678769E+03  0.00000000000E+00 0. -1.
         21   -1    0    0  502  503 -0.00000000000E+00 -0.00000000000E+00 -0.21264480769E+03  0.21264480769E+03  0.00000000000E+00 0. -1.
          6    1    1    2  501    0 -0.46493850989E+02  0.10031787466E+03  0.78314030139E+02  0.21895762483E+03  0.17200000000E+03 0. -1.
         -6    1    1    2    0  503  0.46493850989E+02 -0.10031787466E+03 -0.68882050135E+02  0.21576397055E+03  0.17200000000E+03 0. -1.
</event>
<event>
 4    1  0.5714562E+000  0.2289507E+03  0.7818608E-02  0.1127381E+00
         21   -1    0    0  501  502  0.00000000000E+00  0.00000000000E+00  0.19242320498E+03  0.19242320498E+03  0.00000000000E+00 0. -1.
         21   -1    0    0  502  503 -0.00000000000E+00 -0.00000000000E+00 -0.42333035586E+03  0.42333035586E+03  0.00000000000E+00 0. -1.
          6    1    1    2  501    0  0.14791217775E+03  0.30925547675E+02  0.68372948734E+02  0.23894196355E+03  0.17200000000E+03 0. -1.
         -6    1    1    2    0  503 -0.14791217775E+03 -0.30925547675E+02 -0.29928009962E+03  0.37681159729E+03  0.17200000000E+03 0. -1.
</event>
<event>
 4    1  0.5714562E+000  0.1824619E+03  0.7818608E-02  0.1165441E+00
         21   -1    0    0  501  502  0.00000000000E+00  0.00000000000E+00  0.16111645190E+04  0.16111645190E+04  0.00000000000E+00 0. -1.
         21   -1    0    0  502  503 -0.00000000000E+00 -0.00000000000E+00 -0.21081339065E+02  0.21081339065E+02  0.00000000000E+00 0.  1.
          6    1    1    2  501    0  0.20164133920E+02 -0.57460926237E+02  0.90993473884E+03  0.92804826345E+03  0.17200000000E+03 0. -1.
         -6    1    1    2    0  503 -0.20164133920E+02  0.57460926237E+02  0.68014844110E+03  0.70419759463E+03  0.17200000000E+03 0.  1.
</event>
<event>
 4    1  0.5714562E+000  0.2200578E+03  0.7818608E-02  0.1133840E+00
         21   -1    0    0  503  502  0.00000000000E+00  0.00000000000E+00  0.47617698563E+03  0.47617698563E+03  0.00000000000E+00 0. -1.
         21   -1    0    0  501  503 -0.00000000000E+00 -0.00000000000E+00 -0.13262722594E+03  0.13262722594E+03  0.00000000000E+00 0. -1.
          6    1    1    2  501    0 -0.56956208158E+02 -0.12488968554E+03  0.24771375699E+02  0.22144765579E+03  0.17200000000E+03 0. -1.
         -6    1    1    2    0  502  0.56956208158E+02  0.12488968554E+03  0.31877838400E+03  0.38735655578E+03  0.17200000000E+03 0. -1.
</event>
<event>
 4    1  0.5714562E+000  0.2705272E+03  0.7818608E-02  0.1100978E+00
         21   -1    0    0  503  502  0.00000000000E+00  0.00000000000E+00  0.74214548849E+03  0.74214548849E+03  0.00000000000E+00 0. -1.
         21   -1    0    0  501  503 -0.00000000000E+00 -0.00000000000E+00 -0.30855026256E+03  0.30855026256E+03  0.00000000000E+00 0.  1.
          6    1    1    2  501    0 -0.11030787896E+03  0.17729391912E+03 -0.21654271465E+03  0.34651942108E+03  0.17200000000E+03 0.  1.
         -6    1    1    2    0  502  0.11030787896E+03 -0.17729391912E+03  0.65013794058E+03  0.70417632998E+03  0.17200000000E+03 0. -1.
</event>
<event>
 4    1  0.5714562E+000  0.1826514E+03  0.7818608E-02  0.1165261E+00
         21   -1    0    0  503  502  0.00000000000E+00  0.00000000000E+00  0.69614594097E+03  0.69614594097E+03  0.00000000000E+00 0.  1.
         21   -1    0    0  501  503 -0.00000000000E+00 -0.00000000000E+00 -0.63998147444E+02  0.63998147444E+02  0.00000000000E+00 0.  1.
          6    1    1    2  501    0  0.17913196088E+02  0.58793255631E+02  0.12559045373E+03  0.22166301354E+03  0.17200000000E+03 0.  1.
         -6    1    1    2    0  502 -0.17913196088E+02 -0.58793255631E+02  0.50655733979E+03  0.53848107487E+03  0.17200000000E+03 0.  1.
</event>
<event>
 4    1  0.5714562E+000  0.1740503E+03  0.7818608E-02  0.1173689E+00
         21   -1    0    0  501  502  0.00000000000E+00  0.00000000000E+00  0.25516340689E+03  0.25516340689E+03  0.00000000000E+00 0. -1.
         21   -1    0    0  502  503 -0.00000000000E+00 -0.00000000000E+00 -0.11888029242E+03  0.11888029242E+03  0.00000000000E+00 0. -1.
          6    1    1    2  501    0 -0.13842879688E+02  0.22756714233E+02  0.74967409308E+02  0.18950885420E+03  0.17200000000E+03 0.  1.
         -6    1    1    2    0  503  0.13842879688E+02 -0.22756714233E+02  0.61315705169E+02  0.18453484511E+03  0.17200000000E+03 0.  1.
</event>
<event>
 4    1  0.5714562E+000  0.1827891E+03  0.7818608E-02  0.1165131E+00
         21   -1    0    0  501  502  0.00000000000E+00  0.00000000000E+00  0.52938825513E+03  0.52938825513E+03  0.00000000000E+00 0.  1.
         21   -1    0    0  502  503 -0.00000000000E+00 -0.00000000000E+00 -0.12909685159E+03  0.12909685159E+03  0.00000000000E+00 0. -1.
          6    1    1    2  501    0  0.19538043702E+02  0.58703599566E+02 -0.35236403748E+02  0.18615437653E+03  0.17200000000E+03 0. -1.
         -6    1    1    2    0  503 -0.19538043702E+02 -0.58703599566E+02  0.43552780729E+03  0.47233073018E+03  0.17200000000E+03 0.  1.
</event>
<event>
 4    1  0.5714562E+000  0.1980207E+03  0.7818608E-02  0.1151420E+00
         21   -1    0    0  501  502  0.00000000000E+00  0.00000000000E+00  0.57376406686E+02  0.57376406686E+02  0.00000000000E+00 0.  1.
         21   -1    0    0  502  503 -0.00000000000E+00 -0.00000000000E+00 -0.70014443037E+03  0.70014443037E+03  0.00000000000E+00 0.  1.
          6    1    1    2  501    0 -0.96697677437E+02  0.16665839791E+02 -0.26284507766E+03  0.32908923696E+03  0.17200000000E+03 0.  1.
         -6    1    1    2    0  503  0.96697677437E+02 -0.16665839791E+02 -0.37992294602E+03  0.42843160009E+03  0.17200000000E+03 0.  1.
</event>
<event>
 4    1  0.5714562E+000  0.1986901E+03  0.7818608E-02  0.1150849E+00
         21   -1    0    0  501  502  0.00000000000E+00  0.00000000000E+00  0.10115574302E+04  0.10115574302E+04  0.00000000000E+00 0. -1.
         21   -1    0    0  502  503 -0.00000000000E+00 -0.00000000000E+00 -0.74337816173E+02  0.74337816173E+02  0.00000000000E+00 0. -1.
          6    1    1    2  501    0  0.26145632847E+02 -0.95969629662E+02  0.84281401353E+03  0.86591756267E+03  0.17200000000E+03 0. -1.
         -6    1    1    2    0  503 -0.26145632847E+02  0.95969629662E+02  0.94405600543E+02  0.21997768375E+03  0.17200000000E+03 0. -1.
</event>
<event>
 4    1  0.5714562E+000  0.1902477E+03  0.7818608E-02  0.1158238E+00
         21   -1    0    0  501  502  0.00000000000E+00  0.00000000000E+00  0.62224023258E+02  0.62224023258E+02  0.00000000000E+00 0.  1.
         21   -1    0    0  502  503 -0.00000000000E+00 -0.00000000000E+00 -0.82163701953E+03  0.82163701953E+03  0.00000000000E+00 0.  1.
          6    1    1    2  501    0  0.60074122384E+02  0.54784121034E+02 -0.14087882363E+03  0.23672989470E+03  0.17200000000E+03 0.  1.
         -6    1    1    2    0  503 -0.60074122384E+02 -0.54784121034E+02 -0.61853417264E+03  0.64713114809E+03  0.17200000000E+03 0.  1.
</event>
<event>
 4    1  0.5714562E+000  0.2237388E+03  0.7818608E-02  0.1131126E+00
         21   -1    0    0  501  502  0.00000000000E+00  0.00000000000E+00  0.29099545783E+03  0.29099545783E+03  0.00000000000E+00 0.  1.
         21   -1    0    0  502  503 -0.00000000000E+00 -0.00000000000E+00 -0.22659108458E+03  0.22659108458E+03  0.00000000000E+00 0.  1.
          6    1    1    2  501    0 -0.78493232734E+02 -0.11964051928E+03  0.15919685120E+03  0.27459548225E+03  0.17200000000E+03 0.  1.
         -6    1    1    2    0  503  0.78493232734E+02  0.11964051928E+03 -0.94792477947E+02  0.24299106015E+03  0.17200000000E+03 0.  1.
</event>
<event>
 4    1  0.5714562E+000  0.1877898E+03  0.7818608E-02  0.1160470E+00
         21   -1    0    0  503  502  0.00000000000E+00  0.00000000000E+00  0.16717952032E+03  0.16717952032E+03  0.00000000000E+00 0.  1.
         21   -1    0    0  501  503 -0.00000000000E+00 -0.00000000000E+00 -0.24321781494E+03  0.24321781494E+03  0.00000000000E+00 0.  1.
          6    1    1    2  501    0  0.55491180757E+02  0.51007070841E+02 -0.11277119572E+03  0.21904870463E+03  0.17200000000E+03 0.  1.
         -6    1    1    2    0  502 -0.55491180757E+02 -0.51007070841E+02  0.36732901097E+02  0.19134863062E+03  0.17200000000E+03 0.  1.
</event>
<event>
 4    1  0.5714562E+000  0.2133707E+03  0.7818608E-02  0.1138924E+00
         21   -1    0    0  503  502  0.00000000000E+00  0.00000000000E+00  0.64947416635E+03  0.64947416635E+03  0.00000000000E+00 0. -1.
         21   -1    0    0  501  503 -0.00000000000E+00 -0.00000000000E+00 -0.78736639874E+02  0.78736639874E+02  0.00000000000E+00 0. -1.
          6    1    1    2  501    0 -0.78247230999E+02 -0.99098053217E+02  0.40597037677E+03  0.45862729981E+03  0.17200000000E+03 0. -1.
         -6    1    1    2    0  502  0.78247230999E+02  0.99098053217E+02  0.16476714970E+03  0.26958350641E+03  0.17200000000E+03 0. -1.
</event>
<event>
 4    1  0.5714562E+000  0.1859771E+03  0.7818608E-02  0.1162141E+00
         21   -1    0    0  503  502  0.00000000000E+00  0.00000000000E+00  0.98918710839E+02  0.98918710839E+02  0.00000000000E+00 0. -1.
         21   -1    0    0  501  503 -0.00000000000E+00 -0.00000000000E+00 -0.21837060708E+04  0.21837060708E+04  0.00000000000E+00 0. -1.
          6    1    1    2  501    0 -0.22604554670E+02  0.67026096829E+02 -0.20883489297E+04  0.20966136305E+04  0.17200000000E+03 0. -1.
         -6    1    1    2    0  502  0.22604554670E+02 -0.67026096829E+02  0.35615697638E+01  0.18601115108E+03  0.17200000000E+03 0. -1.
</event>
<event>
 4    1  0.5714562E+000  0.2154938E+03  0.7818608E-02  0.1137288E+00
         21   -1    0    0  501  502  0.00000000000E+00  0.00000000000E+00  0.20162619900E+03  0.20162619900E+03  0.00000000000E+00 0.  1.
         21   -1    0    0  502  503 -0.00000000000E+00 -0.00000000000E+00 -0.27657676563E+03  0.27657676563E+03  0.00000000000E+00 0. -1.
          6    1    1    2  501    0  0.12973325394E+03  0.47798423510E+01  0.60312571126E+02  0.22377482054E+03  0.17200000000E+03 0.  1.
         -6    1    1    2    0  503 -0.12973325394E+03 -0.47798423510E+01 -0.13526313776E+03  0.25442814409E+03  0.17200000000E+03 0. -1.
</event>
<event>
 4    1  0.5714562E+000  0.1975824E+03  0.7818608E-02  0.1151795E+00
         21   -1    0    0  503  502  0.00000000000E+00  0.00000000000E+00  0.15744053461E+03  0.15744053461E+03  0.00000000000E+00 0.  1.
         21   -1    0    0  501  503 -0.00000000000E+00 -0.00000000000E+00 -0.28747814521E+03  0.28747814521E+03  0.00000000000E+00 0.  1.
          6    1    1    2  501    0  0.46407049566E+02 -0.85447007761E+02 -0.14749938865E+03  0.24656616766E+03  0.17200000000E+03 0.  1.
         -6    1    1    2    0  502 -0.46407049566E+02  0.85447007761E+02  0.17461778045E+02  0.19835251215E+03  0.17200000000E+03 0.  1.
</event>
<event>
 4    1  0.5714562E+000  0.1732158E+03  0.7818608E-02  0.1174535E+00
         21   -1    0    0  501  502  0.00000000000E+00  0.00000000000E+00  0.37445794204E+02  0.37445794204E+02  0.00000000000E+00 0. -1.
         21   -1    0    0  502  503 -0.00000000000E+00 -0.00000000000E+00 -0.13211538375E+04  0.13211538375E+04  0.00000000000E+00 0. -1.
          6    1    1    2  501    0  0.68359360132E+01  0.19312669884E+02 -0.21572281575E+03  0.27665871118E+03  0.17200000000E+03 0. -1.
         -6    1    1    2    0  503 -0.68359360132E+01 -0.19312669884E+02 -0.10679852276E+04  0.10819409205E+04  0.17200000000E+03 0. -1.
</event>
<event>
 4    1  0.5714562E+000  0.1776324E+03  0.7818608E-02  0.1170114E+00
         21   -1    0    0  501  502  0.00000000000E+00  0.00000000000E+00  0.58821490893E+03  0.58821490893E+03  0.00000000000E+00 0.  1.
         21   -1    0    0  502  503 -0.00000000000E+00 -0.00000000000E+00 -0.53750824484E+02  0.53750824484E+02  0.00000000000E+00 0.  1.
          6    1    1    2  501    0 -0.18517076788E+02  0.40328611044E+02  0.28164610215E+03  0.33298319156E+03  0.17200000000E+03 0.  1.
         -6    1    1    2    0  503  0.18517076788E+02 -0.40328611044E+02  0.25281798229E+03  0.30898254186E+03  0.17200000000E+03 0.  1.
</event>
<event>
 4    1  0.5714562E+000  0.1862428E+03  0.7818608E-02  0.1161894E+00
         21   -1    0    0  503  502  0.00000000000E+00  0.00000000000E+00  0.63070064470E+03  0.63070064470E+03  0.00000000000E+00 0. -1.
         21   -1    0    0  501  503 -0.00000000000E+00 -0.00000000000E+00 -0.84037369673E+02  0.84037369673E+02  0.00000000000E+00 0. -1.
          6    1    1    2  501    0 -0.59725032489E+02  0.39183053903E+02  0.63251632190E+02  0.19669051882E+03  0.17200000000E+03 0. -1.
         -6    1    1    2    0  502  0.59725032489E+02 -0.39183053903E+02  0.48341164284E+03  0.51804749555E+03  0.17200000000E+03 0. -1.
</event>
<event>
 4    1  0.5714562E+000  0.2581470E+03  0.7818608E-02  0.1108262E+00
         21   -1    0    0  503  502  0.00000000000E+00  0.00000000000E+00  0.14422095100E+03  0.14422095100E+03  0.00000000000E+00 0. -1.
         21   -1    0    0  501  503 -0.00000000000E+00 -0.00000000000E+00 -0.15801906040E+04  0.15801906040E+04  0.00000000000E+00 0.  1.
          6    1    1    2  501    0 -0.81555033836E+02 -0.17436922686E+03 -0.14432568955E+04  0.14661617637E+04  0.17200000000E+03 0.  1.
         -6    1    1    2    0  502  0.81555033836E+02  0.17436922686E+03  0.72872425027E+01  0.25824979133E+03  0.17200000000E+03 0. -1.
</event>
<event>
 4    1  0.5714562E+000  0.1846301E+03  0.7818608E-02  0.1163396E+00
         21   -1    0    0  501  502  0.00000000000E+00  0.00000000000E+00  0.31145596977E+03  0.31145596977E+03  0.00000000000E+00 0.  1.
         21   -1    0    0  502  503 -0.00000000000E+00 -0.00000000000E+00 -0.16179956551E+03  0.16179956551E+03  0.00000000000E+00 0.  1.
          6    1    1    2  501    0 -0.54823583121E+02  0.38712279222E+02  0.20942707720E+03  0.27919163041E+03  0.17200000000E+03 0.  1.
         -6    1    1    2    0  503  0.54823583121E+02 -0.38712279222E+02 -0.59770672944E+02  0.19406390487E+03  0.17200000000E+03 0.  1.
</event>
<event>
 4    1  0.5714562E+000  0.1820460E+03  0.7818608E-02  0.1165837E+00
         21   -1    0    0  503  502  0.00000000000E+00  0.00000000000E+00  0.19708592757E+03  0.19708592757E+03  0.00000000000E+00 0.  1.
         21   -1    0    0  501  503 -0.00000000000E+00 -0.00000000000E+00 -0.28837122781E+03  0.28837122781E+03  0.00000000000E+00 0.  1.
          6    1    1    2  501    0  0.56405806704E+02  0.19368427795E+02 -0.20236416921E+03  0.27219847172E+03  0.17200000000E+03 0.  1.
         -6    1    1    2    0  502 -0.56405806704E+02 -0.19368427795E+02  0.11107886897E+03  0.21325868366E+03  0.17200000000E+03 0.  1.
</event>
<event>
 4    1  0.5714562E+000  0.2245892E+03  0.7818608E-02  0.1130507E+00
         21   -1    0    0  503  502  0.00000000000E+00  0.00000000000E+00  0.48087459777E+03  0.48087459777E+03  0.00000000000E+00 0.  1.
         21   -1    0    0  501  503 -0.00000000000E+00 -0.00000000000E+00 -0.12077922555E+03  0.12077922555E+03  0.00000000000E+00 0. -1.
          6    1    1    2  501    0 -0.32281402716E+02 -0.14076302277E+03  0.70945694324E+02  0.23552836153E+03  0.17200000000E+03 0. -1.
         -6    1    1    2    0  502  0.32281402716E+02  0.14076302277E+03  0.28914967790E+03  0.36612546179E+03  0.17200000000E+03 0.  1.
</event>
<event>
 4    1  0.5714562E+000  0.1727292E+03  0.7818608E-02  0.1175031E+00
         21   -1    0    0  503  502  0.00000000000E+00  0.00000000000E+00  0.78656674296E+03  0.78656674296E+03  0.00000000000E+00 0.  1.
         21   -1    0    0  501  503 -0.00000000000E+00 -0.00000000000E+00 -0.56770962198E+02  0.56770962198E+02  0.00000000000E+00 0.  1.
          6    1    1    2  501    0 -0.15776551410E+02  0.15741768776E+01  0.12198714277E+03  0.21146214935E+03  0.17200000000E+03 0.  1.
         -6    1    1    2    0  502  0.15776551410E+02 -0.15741768776E+01  0.60780863799E+03  0.63187555580E+03  0.17200000000E+03 0.  1.
</event>
<event>
 4    1  0.5714562E+000  0.3748510E+03  0.7818608E-02  0.1052853E+00
         21   -1    0    0  501  502  0.00000000000E+00  0.00000000000E+00  0.43641585468E+03  0.43641585468E+03  0.00000000000E+00 0.  1.
         21   -1    0    0  502  503 -0.00000000000E+00 -0.00000000000E+00 -0.42336874130E+03  0.42336874130E+03  0.00000000000E+00 0. -1.
          6    1    1    2  501    0  0.30098718794E+03 -0.14260442415E+03  0.21690823869E+03  0.43308485670E+03  0.17200000000E+03 0.  1.
         -6    1    1    2    0  503 -0.30098718794E+03  0.14260442415E+03 -0.20386112532E+03  0.42669973928E+03  0.17200000000E+03 0. -1.
</event>
<event>
 4    1  0.5714562E+000  0.1960920E+03  0.7818608E-02  0.1153079E+00
         21   -1    0    0  503  502  0.00000000000E+00  0.00000000000E+00  0.98794906731E+03  0.98794906731E+03  0.00000000000E+00 0.  1.
         21   -1    0    0  501  503 -0.00000000000E+00 -0.00000000000E+00 -0.49934631130E+02  0.49934631130E+02  0.00000000000E+00 0. -1.
          6    1    1    2  501    0 -0.71553599498E+02 -0.61222323302E+02  0.22529318062E+03  0.29867893750E+03  0.17200000000E+03 0. -1.
         -6    1    1    2    0  502  0.71553599498E+02  0.61222323302E+02  0.71272125556E+03  0.73920476094E+03  0.17200000000E+03 0.  1.
</event>
<event>
 4    1  0.5714562E+000  0.1812290E+03  0.7818608E-02  0.1166619E+00
         21   -1    0    0  501  502  0.00000000000E+00  0.00000000000E+00  0.44531395141E+02  0.44531395141E+02  0.00000000000E+00 0. -1.
         21   -1    0    0  502  503 -0.00000000000E+00 -0.00000000000E+00 -0.11535701529E+04  0.11535701529E+04  0.00000000000E+00 0. -1.
          6    1    1    2  501    0 -0.38977106851E+02  0.41722327615E+02 -0.19476944436E+03  0.26604342491E+03  0.17200000000E+03 0. -1.
         -6    1    1    2    0  503  0.38977106851E+02 -0.41722327615E+02 -0.91426931343E+03  0.93205812317E+03  0.17200000000E+03 0. -1.
</event>
<event>
 4    1  0.5714562E+000  0.1756426E+03  0.7818608E-02  0.1172088E+00
         21   -1    0    0  503  502  0.00000000000E+00  0.00000000000E+00  0.20949204075E+03  0.20949204075E+03  0.00000000000E+00 0.  1.
         21   -1    0    0  501  503 -0.00000000000E+00 -0.00000000000E+00 -0.17123499107E+03  0.17123499107E+03  0.00000000000E+00 0.  1.
          6    1    1    2  501    0  0.31490215591E+02 -0.16573944243E+02 -0.52098320777E+02  0.18320634360E+03  0.17200000000E+03 0.  1.
         -6    1    1    2    0  502 -0.31490215591E+02  0.16573944243E+02  0.90355370460E+02  0.19752068822E+03  0.17200000000E+03 0.  1.
</event>
<event>
 4    1  0.5714562E+000  0.2856879E+03  0.7818608E-02  0.1092622E+00
         21   -1    0    0  503  502  0.00000000000E+00  0.00000000000E+00  0.31841501609E+03  0.31841501609E+03  0.00000000000E+00 0. -1.
         21   -1    0    0  501  503 -0.00000000000E+00 -0.00000000000E+00 -0.35564420722E+03  0.35564420722E+03  0.00000000000E+00 0. -1.
          6    1    1    2  501    0 -0.22508189155E+03 -0.37036483198E+02 -0.19672036168E+03  0.34686663099E+03  0.17200000000E+03 0. -1.
         -6    1    1    2    0  502  0.22508189155E+03  0.37036483198E+02  0.15949117054E+03  0.32719259233E+03  0.17200000000E+03 0. -1.
</event>
<event>
 4    1  0.5714562E+000  0.1742452E+03  0.7818608E-02  0.1173492E+00
         21   -1    0    0  503  502  0.00000000000E+00  0.00000000000E+00  0.67231636759E+03  0.67231636759E+03  0.00000000000E+00 0.  1.
         21   -1    0    0  501  503 -0.00000000000E+00 -0.00000000000E+00 -0.45172622325E+02  0.45172622325E+02  0.00000000000E+00 0.  1.
          6    1    1    2  501    0  0.26562929413E+02  0.84740690221E+01  0.31971113826E+03  0.36411071255E+03  0.17200000000E+03 0.  1.
         -6    1    1    2    0  502 -0.26562929413E+02 -0.84740690221E+01  0.30743260701E+03  0.35337827737E+03  0.17200000000E+03 0.  1.
</event>
<event>
 4    1  0.5714562E+000  0.2105104E+03  0.7818608E-02  0.1141162E+00
         21   -1    0    0  501  502  0.00000000000E+00  0.00000000000E+00  0.14070747056E+03  0.14070747056E+03  0.00000000000E+00 0. -1.
         21   -1    0    0  502  503 -0.00000000000E+00 -0.00000000000E+00 -0.31497450476E+03  0.31497450476E+03  0.00000000000E+00 0. -1.
          6    1    1    2  501    0 -0.12136906193E+03  0.43967448493E+00 -0.84806423830E+02  0.22695103444E+03  0.17200000000E+03 0. -1.
         -6    1    1    2    0  503  0.12136906193E+03 -0.43967448493E+00 -0.89460610367E+02  0.22873094088E+03  0.17200000000E+03 0. -1.
</event>
<event>
 4    1  0.5714562E+000  0.2357494E+03  0.7818608E-02  0.1122657E+00
         21   -1    0    0  503  502  0.00000000000E+00  0.00000000000E+00  0.29757693102E+03  0.29757693102E+03  0.00000000000E+00 0.  1.
         21   -1    0    0  501  503 -0.00000000000E+00 -0.00000000000E+00 -0.60316300194E+03  0.60316300194E+03  0.00000000000E+00 0.  1.
          6    1    1    2  501    0  0.73169509918E+02  0.14366633021E+03 -0.52699402148E+03  0.57732182558E+03  0.17200000000E+03 0.  1.
         -6    1    1    2    0  502 -0.73169509918E+02 -0.14366633021E+03  0.22140795056E+03  0.32341810739E+03  0.17200000000E+03 0.  1.
</event>
<event>
 4    1  0.5714562E+000  0.2831165E+03  0.7818608E-02  0.1093999E+00
         21   -1    0    0  503  502  0.00000000000E+00  0.00000000000E+00  0.10957627632E+04  0.10957627632E+04  0.00000000000E+00 0. -1.
         21   -1    0    0  501  503 -0.00000000000E+00 -0.00000000000E+00 -0.21977496901E+03  0.21977496901E+03  0.00000000000E+00 0.  1.
          6    1    1    2  501    0  0.16842550734E+03 -0.14900937204E+03 -0.99270798804E+02  0.30001605952E+03  0.17200000000E+03 0.  1.
         -6    1    1    2    0  502 -0.16842550734E+03  0.14900937204E+03  0.97525859298E+03  0.10155216727E+04  0.17200000000E+03 0. -1.
</event>
<event>
 4    1  0.5714562E+000  0.1809120E+03  0.7818608E-02  0.1166923E+00
         21   -1    0    0  501  502  0.00000000000E+00  0.00000000000E+00  0.12599060476E+04  0.12599060476E+04  0.00000000000E+00 0.  1.
         21   -1    0    0  502  503 -0.00000000000E+00 -0.00000000000E+00 -0.36495412842E+02  0.36495412842E+02  0.00000000000E+00 0.  1.
          6    1    1    2  501    0  0.63458320140E+01 -0.55721415630E+02  0.95968685413E+03  0.97658998752E+03  0.17200000000E+03 0.  1.
         -6    1    1    2    0  503 -0.63458320140E+01  0.55721415630E+02  0.26372378065E+03  0.31981147294E+03  0.17200000000E+03 0.  1.
</event>
<event>
 4    1  0.5714562E+000  0.1743870E+03  0.7818608E-02  0.1173349E+00
         21   -1    0    0  501  502  0.00000000000E+00  0.00000000000E+00  0.23923172302E+03  0.23923172302E+03  0.00000000000E+00 0. -1.
         21   -1    0    0  502  503 -0.00000000000E+00 -0.00000000000E+00 -0.13253915943E+03  0.13253915943E+03  0.00000000000E+00 0. -1.
          6    1    1    2  501    0 -0.28241873106E+02 -0.54070814655E+01  0.90937718592E+02  0.19667360929E+03  0.17200000000E+03 0.  1.
         -6    1    1    2    0  503  0.28241873106E+02  0.54070814655E+01  0.15754845000E+02  0.17509727316E+03  0.17200000000E+03 0.  1.
</event>
<event>
 4    1  0.5714562E+000  0.1890320E+03  0.7818608E-02  0.1159337E+00
         21   -1    0    0  503  502  0.00000000000E+00  0.00000000000E+00  0.36261306116E+03  0.36261306116E+03  0.00000000000E+00 0.  1.
         21   -1    0    0  501  503 -0.00000000000E+00 -0.00000000000E+00 -0.98558669420E+02  0.98558669420E+02  0.00000000000E+00 0.  1.
          6    1    1    2  501    0  0.73388897580E+02  0.27625690912E+02  0.13490113750E+03  0.23223140611E+03  0.17200000000E+03 0.  1.
         -6    1    1    2    0  502 -0.73388897580E+02 -0.27625690912E+02  0.12915325424E+03  0.22894032447E+03  0.17200000000E+03 0.  1.
</event>
<event>
 4    1  0.5714562E+000  0.1971392E+03  0.7818608E-02  0.1152175E+00
         21   -1    0    0  503  502  0.00000000000E+00  0.00000000000E+00  0.19919750021E+03  0.19919750021E+03  0.00000000000E+00 0.  1.
         21   -1    0    0  501  503 -0.00000000000E+00 -0.00000000000E+00 -0.22282271483E+03  0.22282271483E+03  0.00000000000E+00 0.  1.
          6    1    1    2  501    0 -0.71689712166E+01 -0.96065022484E+02  0.62613224217E+02  0.20684365724E+03  0.17200000000E+03 0. -1.
         -6    1    1    2    0  502  0.71689712166E+01  0.96065022484E+02 -0.86238438833E+02  0.21517655780E+03  0.17200000000E+03 0. -1.
</event>
<event>
 4    1  0.5714562E+000  0.1871013E+03  0.7818608E-02  0.1161102E+00
         21   -1    0    0  501  502  0.00000000000E+00  0.00000000000E+00  0.78202519851E+03  0.78202519851E+03  0.00000000000E+00 0.  1.
         21   -1    0    0  502  503 -0.00000000000E+00 -0.00000000000E+00 -0.53103790987E+02  0.53103790987E+02  0.00000000000E+00 0.  1.
          6    1    1    2  501    0  0.73526754857E+01 -0.73272369318E+02  0.52993385254E+03  0.56199358538E+03  0.17200000000E+03 0.  1.
         -6    1    1    2    0  503 -0.73526754857E+01  0.73272369318E+02  0.19898755498E+03  0.27313540411E+03  0.17200000000E+03 0.  1.
</event>
<event>
 4    1  0.5714562E+000  0.1989041E+03  0.7818608E-02  0.1150667E+00
         21   -1    0    0  501  502  0.00000000000E+00  0.00000000000E+00  0.41528505387E+02  0.41528505387E+02  0.00000000000E+00 0.  1.
         21   -1    0    0  502  503 -0.00000000000E+00 -0.00000000000E+00 -0.10884271157E+04  0.10884271157E+04  0.00000000000E+00 0.  1.
          6    1    1    2  501    0  0.56331645661E+02  0.82495910980E+02 -0.32391476493E+03  0.38010999009E+03  0.17200000000E+03 0.  1.
         -6    1    1    2    0  503 -0.56331645661E+02 -0.82495910980E+02 -0.72298384539E+03  0.74984563100E+03  0.17200000000E+03 0.  1.
</event>
<event>
 4    1  0.5714562E+000  0.2068582E+03  0.7818608E-02  0.1144078E+00
         21   -1    0    0  503  502  0.00000000000E+00  0.00000000000E+00  0.62686156596E+03  0.62686156596E+03  0.00000000000E+00 0.  1.
         21   -1    0    0  501  503 -0.00000000000E+00 -0.00000000000E+00 -0.69154912277E+02  0.69154912277E+02  0.00000000000E+00 0. -1.
          6    1    1    2  501    0  0.11426706216E+03  0.12221400704E+02  0.23929150099E+03  0.31630799322E+03  0.17200000000E+03 0. -1.
         -6    1    1    2    0  502 -0.11426706216E+03 -0.12221400704E+02  0.31841515270E+03  0.37970848502E+03  0.17200000000E+03 0.  1.
</event>
<event>
 4    1  0.5714562E+000  0.2013542E+03  0.7818608E-02  0.1148601E+00
         21   -1    0    0  503  502  0.00000000000E+00  0.00000000000E+00  0.26926671087E+04  0.26926671087E+04  0.00000000000E+00 0. -1.
         21   -1    0    0  501  503 -0.00000000000E+00 -0.00000000000E+00 -0.22018024391E+02  0.22018024391E+02  0.00000000000E+00 0. -1.
          6    1    1    2  501    0  0.63975907030E+02 -0.82864879230E+02  0.57212748988E+03  0.60652565450E+03  0.17200000000E+03 0. -1.
         -6    1    1    2    0  502 -0.63975907030E+02  0.82864879230E+02  0.20985215944E+04  0.21081594786E+04  0.17200000000E+03 0. -1.
</event>
<event>
 4    1  0.5714562E+000  0.2311279E+03  0.7818608E-02  0.1125848E+00
         21   -1    0    0  501  502  0.00000000000E+00  0.00000000000E+00  0.13449264623E+04  0.13449264623E+04  0.00000000000E+00 0. -1.
         21   -1    0    0  502  503 -0.00000000000E+00 -0.00000000000E+00 -0.53987485325E+02  0.53987485325E+02  0.00000000000E+00 0. -1.
          6    1    1    2  501    0  0.13967540031E+02  0.15375634291E+03  0.10050469017E+04  0.10312804564E+04  0.17200000000E+03 0. -1.
         -6    1    1    2    0  503 -0.13967540031E+02 -0.15375634291E+03  0.28589207528E+03  0.36763349122E+03  0.17200000000E+03 0. -1.
</event>
<event>
 4    1  0.5714562E+000  0.2327797E+03  0.7818608E-02  0.1124698E+00
         21   -1    0    0  501  502  0.00000000000E+00  0.00000000000E+00  0.15532305193E+03  0.15532305193E+03  0.00000000000E+00 0. -1.
         21   -1    0    0  502  503 -0.00000000000E+00 -0.00000000000E+00 -0.59702169715E+03  0.59702169715E+03  0.00000000000E+00 0. -1.
          6    1    1    2  501    0  0.12016523743E+03  0.10081021181E+03  0.21675981430E+02  0.23378672174E+03  0.17200000000E+03 0. -1.
         -6    1    1    2    0  503 -0.12016523743E+03 -0.10081021181E+03 -0.46337462665E+03  0.51855802734E+03  0.17200000000E+03 0. -1.
</event>
<event>
 4    1  0.5714562E+000  0.2775995E+03  0.7818608E-02  0.1097007E+00
         21   -1    0    0  501  502  0.00000000000E+00  0.00000000000E+00  0.37361032160E+02  0.37361032160E+02  0.00000000000E+00 0. -1.
         21   -1    0    0  502  503 -0.00000000000E+00 -0.00000000000E+00 -0.24282315393E+04  0.24282315393E+04  0.00000000000E+00 0.  1.
          6    1    1    2  501    0 -0.21744065444E+03  0.14038036912E+02 -0.16737986326E+04  0.16966624199E+04  0.17200000000E+03 0. -1.
         -6    1    1    2    0  503  0.21744065444E+03 -0.14038036912E+02 -0.71707187448E+03  0.76893015148E+03  0.17200000000E+03 0. -1.
</event>
<event>
 4    1  0.5714562E+000  0.2529417E+03  0.7818608E-02  0.1111460E+00
         21   -1    0    0  501  502  0.00000000000E+00  0.00000000000E+00  0.31348007390E+03  0.31348007390E+03  0.00000000000E+00 0. -1.
         21   -1    0    0  502  503 -0.00000000000E+00 -0.00000000000E+00 -0.10950961386E+04  0.10950961386E+04  0.00000000000E+00 0. -1.
          6    1    1    2  501    0  0.22896767223E+02  0.18404135705E+03  0.24446956546E+03  0.35177386414E+03  0.17200000000E+03 0. -1.
         -6    1    1    2    0  503 -0.22896767223E+02 -0.18404135705E+03 -0.10260856302E+04  0.10568023484E+04  0.17200000000E+03 0. -1.
</event>
<event>
 4    1  0.5714562E+000  0.1731032E+03  0.7818608E-02  0.1174650E+00
         21   -1    0    0  503  502  0.00000000000E+00  0.00000000000E+00  0.44293214949E+03  0.44293214949E+03  0.00000000000E+00 0. -1.
         21   -1    0    0  501  503 -0.00000000000E+00 -0.00000000000E+00 -0.74925482870E+02  0.74925482870E+02  0.00000000000E+00 0. -1.
          6    1    1    2  501    0  0.17985191426E+02 -0.75665172940E+01  0.10332214169E+03  0.20159410770E+03  0.17200000000E+03 0. -1.
         -6    1    1    2    0  502 -0.17985191426E+02  0.75665172940E+01  0.26468452492E+03  0.31626352466E+03  0.17200000000E+03 0. -1.
</event>
<event>
 4    1  0.5714562E+000  0.1833512E+03  0.7818608E-02  0.1164599E+00
         21   -1    0    0  503  502  0.00000000000E+00  0.00000000000E+00  0.27787935297E+03  0.27787935297E+03  0.00000000000E+00 0. -1.
         21   -1    0    0  501  503 -0.00000000000E+00 -0.00000000000E+00 -0.23689236328E+03  0.23689236328E+03  0.00000000000E+00 0. -1.
          6    1    1    2  501    0  0.62850828703E+02  0.91350616450E+01 -0.15954905895E+03  0.24305056723E+03  0.17200000000E+03 0. -1.
         -6    1    1    2    0  502 -0.62850828703E+02 -0.91350616450E+01  0.20053604864E+03  0.27172114902E+03  0.17200000000E+03 0. -1.
</event>
<event>
 4    1  0.5714562E+000  0.2088759E+03  0.7818608E-02  0.1142459E+00
         21   -1    0    0  503  502  0.00000000000E+00  0.00000000000E+00  0.14806128476E+03  0.14806128476E+03  0.00000000000E+00 0.  1.
         21   -1    0    0  501  503 -0.00000000000E+00 -0.00000000000E+00 -0.33226470921E+03  0.33226470921E+03  0.00000000000E+00 0.  1.
          6    1    1    2  501    0  0.11452491288E+03 -0.30482619157E+02 -0.17288661391E+03  0.27114373865E+03  0.17200000000E+03 0.  1.
         -6    1    1    2    0  502 -0.11452491288E+03  0.30482619157E+02 -0.11316810544E+02  0.20918225532E+03  0.17200000000E+03 0.  1.
</event>
<event>
 4    1  0.5714562E+000  0.1932652E+03  0.7818608E-02  0.1155549E+00
         21   -1    0    0  501  502  0.00000000000E+00  0.00000000000E+00  0.78952293393E+03  0.78952293393E+03  0.00000000000E+00 0. -1.
         21   -1    0    0  502  503 -0.00000000000E+00 -0.00000000000E+00 -0.53248986848E+02  0.53248986848E+02  0.00000000000E+00 0.  1.
          6    1    1    2  501    0  0.50652770038E+02 -0.72122919542E+02  0.22739528061E+03  0.29842927517E+03  0.17200000000E+03 0.  1.
         -6    1    1    2    0  503 -0.50652770038E+02  0.72122919542E+02  0.50887866647E+03  0.54434264561E+03  0.17200000000E+03 0. -1.
</event>
<event>
 4    1  0.5714562E+000  0.3145198E+03  0.7818608E-02  0.1078199E+00
         21   -1    0    0  501  502  0.00000000000E+00  0.00000000000E+00  0.11333679568E+03  0.11333679568E+03  0.00000000000E+00 0. -1.
         21   -1    0    0  502  503 -0.00000000000E+00 -0.00000000000E+00 -0.87775583122E+03  0.87775583122E+03  0.00000000000E+00 0.  1.
          6    1    1    2  501    0 -0.21160691909E+02  0.26247084399E+03 -0.34505257690E+03  0.46688756640E+03  0.17200000000E+03 0.  1.
         -6    1    1    2    0  503  0.21160691909E+02 -0.26247084399E+03 -0.41936645864E+03  0.52420506051E+03  0.17200000000E+03 0. -1.
</event>
<event>
 4    1  0.5714562E+000  0.1742816E+03  0.7818608E-02  0.1173455E+00
         21   -1    0    0  501  502  0.00000000000E+00  0.00000000000E+00  0.11801438890E+03  0.11801438890E+03  0.00000000000E+00 0.  1.
         21   -1    0    0  502  503 -0.00000000000E+00 -0.00000000000E+00 -0.30392225715E+03  0.30392225715E+03  0.00000000000E+00 0.  1.
          6    1    1    2  501    0 -0.34190675824E+01 -0.27899817443E+02 -0.10392419906E+02  0.17459121464E+03  0.17200000000E+03 0. -1.
         -6    1    1    2    0  503  0.34190675824E+01  0.27899817443E+02 -0.17551544834E+03  0.24734543141E+03  0.17200000000E+03 0. -1.
</event>
<event>
 4    1  0.5714562E+000  0.2660650E+03  0.7818608E-02  0.1103553E+00
         21   -1    0    0  503  502  0.00000000000E+00  0.00000000000E+00  0.38606375873E+03  0.38606375873E+03  0.00000000000E+00 0. -1.
         21   -1    0    0  501  503 -0.00000000000E+00 -0.00000000000E+00 -0.34850167088E+03  0.34850167088E+03  0.00000000000E+00 0. -1.
          6    1    1    2  501    0  0.20282283263E+03  0.83371477276E+01 -0.23404378587E+03  0.35435448801E+03  0.17200000000E+03 0. -1.
         -6    1    1    2    0  502 -0.20282283263E+03 -0.83371477276E+01  0.27160587372E+03  0.38021094159E+03  0.17200000000E+03 0. -1.
</event>
<event>
 4    1  0.5714562E+000  0.3229206E+03  0.7818608E-02  0.1074313E+00
         21   -1    0    0  501  502  0.00000000000E+00  0.00000000000E+00  0.15983344608E+04  0.15983344608E+04  0.00000000000E+00 0.  1.
         21   -1    0    0  502  503 -0.00000000000E+00 -0.00000000000E+00 -0.79262845430E+02  0.79262845430E+02  0.00000000000E+00 0. -1.
          6    1    1    2  501    0  0.27305639069E+03  0.11571649487E+02  0.11123273360E+04  0.11582529077E+04  0.17200000000E+03 0. -1.
         -6    1    1    2    0  503 -0.27305639069E+03 -0.11571649487E+02  0.40674427932E+03  0.51934439857E+03  0.17200000000E+03 0. -1.
</event>
<event>
 4    1  0.5714562E+000  0.2098622E+03  0.7818608E-02  0.1141675E+00
         21   -1    0    0  503  502  0.00000000000E+00  0.00000000000E+00  0.21605672108E+04  0.21605672108E+04  0.00000000000E+00 0.  1.
         21   -1    0    0  501  503 -0.00000000000E+00 -0.00000000000E+00 -0.26546269935E+02  0.26546269935E+02  0.00000000000E+00 0. -1.
          6    1    1    2  501    0  0.91854359721E+02 -0.77594646970E+02  0.54015540374E+03  0.57949116717E+03  0.17200000000E+03 0. -1.
         -6    1    1    2    0  502 -0.91854359721E+02  0.77594646970E+02  0.15938655371E+04  0.16076223136E+04  0.17200000000E+03 0. -1.
</event>
<event>
 4    1  0.5714562E+000  0.2200350E+03  0.7818608E-02  0.1133857E+00
         21   -1    0    0  501  502  0.00000000000E+00  0.00000000000E+00  0.54266637440E+03  0.54266637440E+03  0.00000000000E+00 0. -1.
         21   -1    0    0  502  503 -0.00000000000E+00 -0.00000000000E+00 -0.90502759976E+02  0.90502759976E+02  0.00000000000E+00 0. -1.
          6    1    1    2  501    0 -0.65510647882E+02  0.12058092246E+03  0.26380718410E+03  0.34352530363E+03  0.17200000000E+03 0. -1.
         -6    1    1    2    0  503  0.65510647882E+02 -0.12058092246E+03  0.18835643033E+03  0.28964383076E+03  0.17200000000E+03 0. -1.
</event>
<event>
 4    1  0.5714562E+000  0.2582439E+03  0.7818608E-02  0.1108203E+00
         21   -1    0    0  503  502  0.00000000000E+00  0.00000000000E+00  0.33007521786E+03  0.33007521786E+03  0.00000000000E+00 0. -1.
         21   -1    0    0  501  503 -0.00000000000E+00 -0.00000000000E+00 -0.24281114716E+03  0.24281114716E+03  0.00000000000E+00 0.  1.
          6    1    1    2  501    0  0.15843475826E+03 -0.10956423138E+03 -0.73737800868E+02  0.26856499530E+03  0.17200000000E+03 0.  1.
         -6    1    1    2    0  502 -0.15843475826E+03  0.10956423138E+03  0.16100187157E+03  0.30432136972E+03  0.17200000000E+03 0.  1.
</event>
<event>
 4    1  0.5714562E+000  0.2504819E+03  0.7818608E-02  0.1113001E+00
         21   -1    0    0  503  502  0.00000000000E+00  0.00000000000E+00  0.47916720330E+03  0.47916720330E+03  0.00000000000E+00 0. -1.
         21   -1    0    0  501  503 -0.00000000000E+00 -0.00000000000E+00 -0.17963167890E+03  0.17963167890E+03  0.00000000000E+00 0. -1.
          6    1    1    2  501    0 -0.17643519818E+03  0.45031168564E+02 -0.21733681400E+02  0.25142302640E+03  0.17200000000E+03 0. -1.
         -6    1    1    2    0  502  0.17643519818E+03 -0.45031168564E+02  0.32126920579E+03  0.40737585580E+03  0.17200000000E+03 0. -1.
</event>
<event>
 4    1  0.5714562E+000  0.1821950E+03  0.7818608E-02  0.1165695E+00
         21   -1    0    0  501  502  0.00000000000E+00  0.00000000000E+00  0.62338856592E+02  0.62338856592E+02  0.00000000000E+00 0. -1.
         21   -1    0    0  502  503 -0.00000000000E+00 -0.00000000000E+00 -0.10539518672E+04  0.10539518672E+04  0.00000000000E+00 0.  1.
          6    1    1    2  501    0 -0.55965220299E+02 -0.21883977608E+02 -0.10320957847E+03  0.20939730525E+03  0.17200000000E+03 0. -1.
         -6    1    1    2    0  503  0.55965220299E+02  0.21883977608E+02 -0.88840343217E+03  0.90689341857E+03  0.17200000000E+03 0.  1.
</event>
<event>
 4    1  0.5714562E+000  0.2170928E+03  0.7818608E-02  0.1136069E+00
         21   -1    0    0  503  502  0.00000000000E+00  0.00000000000E+00  0.13202909140E+03  0.13202909140E+03  0.00000000000E+00 0.  1.
         21   -1    0    0  501  503 -0.00000000000E+00 -0.00000000000E+00 -0.72854076693E+03  0.72854076693E+03  0.00000000000E+00 0.  1.
          6    1    1    2  501    0  0.46265513585E+02  0.12411602853E+03 -0.60555049848E+03  0.64328896501E+03  0.17200000000E+03 0.  1.
         -6    1    1    2    0  502 -0.46265513585E+02 -0.12411602853E+03  0.90388229518E+01  0.21728089333E+03  0.17200000000E+03 0.  1.
</event>
<event>
 4    1  0.5714562E+000  0.1945148E+03  0.7818608E-02  0.1154451E+00
         21   -1    0    0  503  502  0.00000000000E+00  0.00000000000E+00  0.23671275988E+03  0.23671275988E+03  0.00000000000E+00 0. -1.
         21   -1    0    0  501  503 -0.00000000000E+00 -0.00000000000E+00 -0.16295726717E+03  0.16295726717E+03  0.00000000000E+00 0. -1.
          6    1    1    2  501    0  0.39299685856E+02  0.81899667278E+02  0.64519456361E+02  0.20493604138E+03  0.17200000000E+03 0. -1.
         -6    1    1    2    0  502 -0.39299685856E+02 -0.81899667278E+02  0.92360363470E+01  0.19473398567E+03  0.17200000000E+03 0. -1.
</event>
<event>
 4    1  0.5714562E+000  0.2128914E+03  0.7818608E-02  0.1139297E+00
         21   -1    0    0  501  502  0.00000000000E+00  0.00000000000E+00  0.22145984789E+03  0.22145984789E+03  0.00000000000E+00 0.  1.
         21   -1    0    0  502  503 -0.00000000000E+00 -0.00000000000E+00 -0.37594592620E+03  0.37594592620E+03  0.00000000000E+00 0.  1.
          6    1    1    2  501    0 -0.12095077879E+03  0.33311218073E+02  0.12438210545E+03  0.24656365567E+03  0.17200000000E+03 0.  1.
         -6    1    1    2    0  503  0.12095077879E+03 -0.33311218073E+02 -0.27886818376E+03  0.35084211842E+03  0.17200000000E+03 0.  1.
</event>
<event>
 4    1  0.5714562E+000  0.2202505E+03  0.7818608E-02  0.1133696E+00
         21   -1    0    0  503  502  0.00000000000E+00  0.00000000000E+00  0.23134976012E+03  0.23134976012E+03  0.00000000000E+00 0. -1.
         21   -1    0    0  501  503 -0.00000000000E+00 -0.00000000000E+00 -0.31119691046E+03  0.31119691046E+03  0.00000000000E+00 0. -1.
          6    1    1    2  501    0 -0.13492090350E+03 -0.26882053810E+02 -0.19485893783E+03  0.29407533163E+03  0.17200000000E+03 0. -1.
         -6    1    1    2    0  502  0.13492090350E+03  0.26882053810E+02  0.11501178749E+03  0.24847133895E+03  0.17200000000E+03 0. -1.
</event>
<event>
 4    1  0.5714562E+000  0.1728150E+03  0.7818608E-02  0.1174944E+00
         21   -1    0    0  501  502  0.00000000000E+00  0.00000000000E+00  0.12340743007E+04  0.12340743007E+04  0.00000000000E+00 0. -1.
         21   -1    0    0  502  503 -0.00000000000E+00 -0.00000000000E+00 -0.25536329209E+02  0.25536329209E+02  0.00000000000E+00 0. -1.
          6    1    1    2  501    0 -0.47811945556E+01 -0.16067886998E+02  0.74832322385E+03  0.76801867436E+03  0.17200000000E+03 0. -1.
         -6    1    1    2    0  503  0.47811945556E+01  0.16067886998E+02  0.46021474765E+03  0.49159195556E+03  0.17200000000E+03 0. -1.
</event>
<event>
 4    1  0.5714562E+000  0.1803862E+03  0.7818608E-02  0.1167430E+00
         21   -1    0    0  503  502  0.00000000000E+00  0.00000000000E+00  0.82200964512E+03  0.82200964512E+03  0.00000000000E+00 0.  1.
         21   -1    0    0  501  503 -0.00000000000E+00 -0.00000000000E+00 -0.74458027974E+02  0.74458027974E+02  0.00000000000E+00 0.  1.
          6    1    1    2  501    0  0.51453246793E+02  0.17542636380E+02  0.67018978983E+02  0.19243368790E+03  0.17200000000E+03 0.  1.
         -6    1    1    2    0  502 -0.51453246793E+02 -0.17542636380E+02  0.68053263816E+03  0.70403398519E+03  0.17200000000E+03 0.  1.
</event>
<event>
 4    1  0.5714562E+000  0.1861511E+03  0.7818608E-02  0.1161979E+00
         21   -1    0    0  501  502  0.00000000000E+00  0.00000000000E+00  0.34181365432E+02  0.34181365432E+02  0.00000000000E+00 0. -1.
         21   -1    0    0  502  503 -0.00000000000E+00 -0.00000000000E+00 -0.12023646427E+04  0.12023646427E+04  0.00000000000E+00 0. -1.
          6    1    1    2  501    0  0.19516220046E+02 -0.68464160010E+02 -0.33922999672E+03  0.38694859443E+03  0.17200000000E+03 0. -1.
         -6    1    1    2    0  503 -0.19516220046E+02  0.68464160010E+02 -0.82895328052E+03  0.84959741369E+03  0.17200000000E+03 0. -1.
</event>
<event>
 4    1  0.5714562E+000  0.1773410E+03  0.7818608E-02  0.1170402E+00
         21   -1    0    0  503  502  0.00000000000E+00  0.00000000000E+00  0.25236303938E+03  0.25236303938E+03  0.00000000000E+00 0.  1.
         21   -1    0    0  501  503 -0.00000000000E+00 -0.00000000000E+00 -0.15978308917E+03  0.15978308917E+03  0.00000000000E+00 0.  1.
          6    1    1    2  501    0  0.11747662848E+02 -0.41566973704E+02 -0.50379873798E+02  0.18435821807E+03  0.17200000000E+03 0.  1.
         -6    1    1    2    0  502 -0.11747662848E+02  0.41566973704E+02  0.14295982401E+03  0.22778791049E+03  0.17200000000E+03 0.  1.
</event>
<event>
 4    1  0.5714562E+000  0.1912439E+03  0.7818608E-02  0.1157344E+00
         21   -1    0    0  501  502  0.00000000000E+00  0.00000000000E+00  0.63067229101E+03  0.63067229101E+03  0.00000000000E+00 0. -1.
         21   -1    0    0  502  503 -0.00000000000E+00 -0.00000000000E+00 -0.58097800240E+02  0.58097800240E+02  0.00000000000E+00 0. -1.
          6    1    1    2  501    0 -0.69043274575E+01 -0.83322082118E+02  0.27162310190E+03  0.33219474498E+03  0.17200000000E+03 0. -1.
         -6    1    1    2    0  503  0.69043274575E+01  0.83322082118E+02  0.30095138887E+03  0.35657534627E+03  0.17200000000E+03 0. -1.
</event>
<event>
 4    1  0.5714562E+000  0.2126448E+03  0.7818608E-02  0.1139489E+00
         21   -1    0    0  503  502  0.00000000000E+00  0.00000000000E+00  0.15022697545E+03  0.15022697545E+03  0.00000000000E+00 0.  1.
         21   -1    0    0  501  503 -0.00000000000E+00 -0.00000000000E+00 -0.30371431474E+03  0.30371431474E+03  0.00000000000E+00 0. -1.
          6    1    1    2  501    0 -0.11081332613E+03 -0.57915463828E+02 -0.55272941038E+02  0.21971092875E+03  0.17200000000E+03 0.  1.
         -6    1    1    2    0  502  0.11081332613E+03  0.57915463828E+02 -0.98214398254E+02  0.23423036145E+03  0.17200000000E+03 0.  1.
</event>
<event>
 4    1  0.5714562E+000  0.2193971E+03  0.7818608E-02  0.1134333E+00
         21   -1    0    0  501  502  0.00000000000E+00  0.00000000000E+00  0.76681805226E+02  0.76681805226E+02  0.00000000000E+00 0.  1.
         21   -1    0    0  502  503 -0.00000000000E+00 -0.00000000000E+00 -0.65978043316E+03  0.65978043316E+03  0.00000000000E+00 0. -1.
          6    1    1    2  501    0  0.64571313694E+02 -0.11992351951E+03 -0.21038410194E+03  0.30396805002E+03  0.17200000000E+03 0. -1.
         -6    1    1    2    0  503 -0.64571313694E+02  0.11992351951E+03 -0.37271452600E+03  0.43249418837E+03  0.17200000000E+03 0. -1.
</event>
<event>
 4    1  0.5714562E+000  0.1894367E+03  0.7818608E-02  0.1158970E+00
         21   -1    0    0  503  502  0.00000000000E+00  0.00000000000E+00  0.98494311084E+03  0.98494311084E+03  0.00000000000E+00 0. -1.
         21   -1    0    0  501  503 -0.00000000000E+00 -0.00000000000E+00 -0.36474629536E+02  0.36474629536E+02  0.00000000000E+00 0. -1.
          6    1    1    2  501    0 -0.74542504512E+02 -0.27306887411E+02  0.45736767034E+03  0.49504690379E+03  0.17200000000E+03 0. -1.
         -6    1    1    2    0  502  0.74542504512E+02  0.27306887411E+02  0.49110081096E+03  0.52637083658E+03  0.17200000000E+03 0. -1.
</event>
<event>
 4    1  0.5714562E+000  0.1987531E+03  0.7818608E-02  0.1150795E+00
         21   -1    0    0  501  502  0.00000000000E+00  0.00000000000E+00  0.69060788416E+03  0.69060788416E+03  0.00000000000E+00 0. -1.
         21   -1    0    0  502  503 -0.00000000000E+00 -0.00000000000E+00 -0.73043192327E+02  0.73043192327E+02  0.00000000000E+00 0. -1.
          6    1    1    2  501    0 -0.44864438688E+02  0.88915455451E+02  0.48660879063E+03  0.52563379952E+03  0.17200000000E+03 0. -1.
         -6    1    1    2    0  503  0.44864438688E+02 -0.88915455451E+02  0.13095590121E+03  0.23801727697E+03  0.17200000000E+03 0. -1.
</event>
<event>
 4    1  0.5714562E+000  0.1981781E+03  0.7818608E-02  0.1151285E+00
         21   -1    0    0  503  502  0.00000000000E+00  0.00000000000E+00  0.43666804437E+03  0.43666804437E+03  0.00000000000E+00 0.  1.
         21   -1    0    0  501  503 -0.00000000000E+00 -0.00000000000E+00 -0.90062737309E+02  0.90062737309E+02  0.00000000000E+00 0.  1.
          6    1    1    2  501    0 -0.68269509202E+02 -0.70921430529E+02  0.16363948561E+03  0.25700672452E+03  0.17200000000E+03 0.  1.
         -6    1    1    2    0  502  0.68269509202E+02  0.70921430529E+02  0.18296582145E+03  0.26972405717E+03  0.17200000000E+03 0.  1.
</event>
<event>
 4    1  0.5714562E+000  0.4464935E+03  0.7818608E-02  0.1028773E+00
         21   -1    0    0  501  502  0.00000000000E+00  0.00000000000E+00  0.36864284092E+03  0.36864284092E+03  0.00000000000E+00 0.  1.
         21   -1    0    0  502  503 -0.00000000000E+00 -0.00000000000E+00 -0.77308697197E+03  0.77308697197E+03  0.00000000000E+00 0. -1.
          6    1    1    2  501    0  0.72651013521E+02 -0.40557890544E+03 -0.51515110813E+03  0.68171627713E+03  0.17200000000E+03 0. -1.
         -6    1    1    2    0  503 -0.72651013521E+02  0.40557890544E+03  0.11070697708E+03  0.46001353576E+03  0.17200000000E+03 0.  1.
</event>
<event>
 4    1  0.5714562E+000  0.1735070E+03  0.7818608E-02  0.1174239E+00
         21   -1    0    0  501  502  0.00000000000E+00  0.00000000000E+00  0.28505291760E+02  0.28505291760E+02  0.00000000000E+00 0.  1.
         21   -1    0    0  502  503 -0.00000000000E+00 -0.00000000000E+00 -0.22428817804E+04  0.22428817804E+04  0.00000000000E+00 0.  1.
          6    1    1    2  501    0 -0.10537413608E+02  0.20239700798E+02 -0.28107072596E+03  0.33031111935E+03  0.17200000000E+03 0.  1.
         -6    1    1    2    0  503  0.10537413608E+02 -0.20239700798E+02 -0.19333057626E+04  0.19410759528E+04  0.17200000000E+03 0.  1.
</event>
<event>
 4    1  0.5714562E+000  0.1913538E+03  0.7818608E-02  0.1157246E+00
         21   -1    0    0  501  502  0.00000000000E+00  0.00000000000E+00  0.87729378255E+03  0.87729378255E+03  0.00000000000E+00 0. -1.
         21   -1    0    0  502  503 -0.00000000000E+00 -0.00000000000E+00 -0.81433592701E+02  0.81433592701E+02  0.00000000000E+00 0. -1.
          6    1    1    2  501    0 -0.55648241694E+02  0.62733990253E+02  0.73261472967E+03  0.75719259272E+03  0.17200000000E+03 0. -1.
         -6    1    1    2    0  503  0.55648241694E+02 -0.62733990253E+02  0.63245460177E+02  0.20153478253E+03  0.17200000000E+03 0. -1.
</event>
<event>
 4    1  0.5714562E+000  0.1825606E+03  0.7818608E-02  0.1165348E+00
         21   -1    0    0  503  502  0.00000000000E+00  0.00000000000E+00  0.78057972421E+03  0.78057972421E+03  0.00000000000E+00 0.  1.
         21   -1    0    0  501  503 -0.00000000000E+00 -0.00000000000E+00 -0.87486621921E+02  0.87486621921E+02  0.00000000000E+00 0.  1.
          6    1    1    2  501    0 -0.29963202056E+01  0.61117824582E+02  0.35989721614E+02  0.18607424991E+03  0.17200000000E+03 0.  1.
         -6    1    1    2    0  502  0.29963202056E+01 -0.61117824582E+02  0.65710338067E+03  0.68199209622E+03  0.17200000000E+03 0.  1.
</event>
<event>
 4    1  0.5714562E+000  0.1759187E+03  0.7818608E-02  0.1171812E+00
         21   -1    0    0  501  502  0.00000000000E+00  0.00000000000E+00  0.41566860993E+03  0.41566860993E+03  0.00000000000E+00 0. -1.
         21   -1    0    0  502  503 -0.00000000000E+00 -0.00000000000E+00 -0.92397642642E+02  0.92397642642E+02  0.00000000000E+00 0. -1.
          6    1    1    2  501    0 -0.30239231540E+02  0.21189114026E+02  0.27358920446E+03  0.32526672513E+03  0.17200000000E+03 0. -1.
         -6    1    1    2    0  503  0.30239231540E+02 -0.21189114026E+02  0.49681762831E+02  0.18279952745E+03  0.17200000000E+03 0. -1.
</event>
<event>
 4    1  0.5714562E+000  0.1735802E+03  0.7818608E-02  0.1174165E+00
         21   -1    0    0  503  502  0.00000000000E+00  0.00000000000E+00  0.54806849562E+02  0.54806849562E+02  0.00000000000E+00 0.  1.
         21   -1    0    0  501  503 -0.00000000000E+00 -0.00000000000E+00 -0.82694423008E+03  0.82694423008E+03  0.00000000000E+00 0.  1.
          6    1    1    2  501    0 -0.48408711661E+01 -0.22861836819E+02 -0.64132091052E+03  0.66439642375E+03  0.17200000000E+03 0.  1.
         -6    1    1    2    0  502  0.48408711661E+01  0.22861836819E+02 -0.13081646999E+03  0.21735465589E+03  0.17200000000E+03 0.  1.
</event>
<event>
 4    1  0.5714562E+000  0.2064156E+03  0.7818608E-02  0.1144436E+00
         21   -1    0    0  501  502  0.00000000000E+00  0.00000000000E+00  0.37686190329E+02  0.37686190329E+02  0.00000000000E+00 0. -1.
         21   -1    0    0  502  503 -0.00000000000E+00 -0.00000000000E+00 -0.14914399085E+04  0.14914399085E+04  0.00000000000E+00 0. -1.
          6    1    1    2  501    0 -0.90873051467E+02  0.69032580645E+02 -0.35079943994E+03  0.40702291795E+03  0.17200000000E+03 0. -1.
         -6    1    1    2    0  503  0.90873051467E+02 -0.69032580645E+02 -0.11029542782E+04  0.11221031809E+04  0.17200000000E+03 0. -1.
</event>
<event>
 4    1  0.5714562E+000  0.2239892E+03  0.7818608E-02  0.1130943E+00
         21   -1    0    0  503  502  0.00000000000E+00  0.00000000000E+00  0.13323581642E+03  0.13323581642E+03  0.00000000000E+00 0. -1.
         21   -1    0    0  501  503 -0.00000000000E+00 -0.00000000000E+00 -0.62801644215E+03  0.62801644215E+03  0.00000000000E+00 0.  1.
          6    1    1    2  501    0 -0.14348226749E+03 -0.54056598542E-01 -0.48823951954E+03  0.53716756459E+03  0.17200000000E+03 0.  1.
         -6    1    1    2    0  502  0.14348226749E+03  0.54056598542E-01 -0.65411061975E+01  0.22408469398E+03  0.17200000000E+03 0. -1.
</event>
<event>
 4    1  0.5714562E+000  0.1760729E+03  0.7818608E-02  0.1171659E+00
         21   -1    0    0  503  502  0.00000000000E+00  0.00000000000E+00  0.21194513149E+03  0.21194513149E+03  0.00000000000E+00 0. -1.
         21   -1    0    0  501  503 -0.00000000000E+00 -0.00000000000E+00 -0.23009318942E+03  0.23009318942E+03  0.00000000000E+00 0. -1.
          6    1    1    2  501    0 -0.18970180026E+01 -0.37604106140E+02 -0.14247364989E+03  0.22649593460E+03  0.17200000000E+03 0. -1.
         -6    1    1    2    0  502  0.18970180026E+01  0.37604106140E+02  0.12432559197E+03  0.21554238631E+03  0.17200000000E+03 0. -1.
</event>
<event>
 4    1  0.5714562E+000  0.1952052E+03  0.7818608E-02  0.1153849E+00
         21   -1    0    0  503  502  0.00000000000E+00  0.00000000000E+00  0.21522154820E+02  0.21522154820E+02  0.00000000000E+00 0.  1.
         21   -1    0    0  501  503 -0.00000000000E+00 -0.00000000000E+00 -0.19163483823E+04  0.19163483823E+04  0.00000000000E+00 0. -1.
          6    1    1    2  501    0  0.23693438525E+02 -0.89217089051E+02 -0.12147149324E+04  0.12302997338E+04  0.17200000000E+03 0. -1.
         -6    1    1    2    0  502 -0.23693438525E+02  0.89217089051E+02 -0.68011129507E+03  0.70757080331E+03  0.17200000000E+03 0.  1.
</event>
<event>
 4    1  0.5714562E+000  0.2069603E+03  0.7818608E-02  0.1143996E+00
         21   -1    0    0  501  502  0.00000000000E+00  0.00000000000E+00  0.13277941609E+03  0.13277941609E+03  0.00000000000E+00 0.  1.
         21   -1    0    0  502  503 -0.00000000000E+00 -0.00000000000E+00 -0.74114853033E+03  0.74114853033E+03  0.00000000000E+00 0.  1.
          6    1    1    2  501    0  0.10639045893E+03  0.43927465064E+02  0.24193458143E+02  0.20836956437E+03  0.17200000000E+03 0.  1.
         -6    1    1    2    0  503 -0.10639045893E+03 -0.43927465064E+02 -0.63256257239E+03  0.66555838205E+03  0.17200000000E+03 0.  1.
</event>
<event>
 4    1  0.5714562E+000  0.1741807E+03  0.7818608E-02  0.1173557E+00
         21   -1    0    0  501  502  0.00000000000E+00  0.00000000000E+00  0.21402435341E+03  0.21402435341E+03  0.00000000000E+00 0.  1.
         21   -1    0    0  502  503 -0.00000000000E+00 -0.00000000000E+00 -0.18841851494E+03  0.18841851494E+03  0.00000000000E+00 0. -1.
          6    1    1    2  501    0  0.27222118584E+02 -0.37267935288E+01 -0.87336051212E+02  0.19484998992E+03  0.17200000000E+03 0. -1.
         -6    1    1    2    0  503 -0.27222118584E+02  0.37267935288E+01  0.11294188968E+03  0.20759287843E+03  0.17200000000E+03 0.  1.
</event>
<event>
 4    1  0.5714562E+000  0.2167156E+03  0.7818608E-02  0.1136356E+00
         21   -1    0    0  503  502  0.00000000000E+00  0.00000000000E+00  0.48897307348E+03  0.48897307348E+03  0.00000000000E+00 0. -1.
         21   -1    0    0  501  503 -0.00000000000E+00 -0.00000000000E+00 -0.17260611244E+03  0.17260611244E+03  0.00000000000E+00 0. -1.
          6    1    1    2  501    0 -0.12152893611E+03  0.51111382194E+02 -0.62116721030E+02  0.22544210506E+03  0.17200000000E+03 0. -1.
         -6    1    1    2    0  502  0.12152893611E+03 -0.51111382194E+02  0.37848368207E+03  0.43613708086E+03  0.17200000000E+03 0. -1.
</event>
<event>
 4    1  0.5714562E+000  0.1835396E+03  0.7818608E-02  0.1164421E+00
         21   -1    0    0  503  502  0.00000000000E+00  0.00000000000E+00  0.43695462944E+03  0.43695462944E+03  0.00000000000E+00 0. -1.
         21   -1    0    0  501  503 -0.00000000000E+00 -0.00000000000E+00 -0.13732870581E+03  0.13732870581E+03  0.00000000000E+00 0. -1.
          6    1    1    2  501    0  0.57307513804E+02  0.28611472183E+02 -0.40355023867E+02  0.18792364255E+03  0.17200000000E+03 0. -1.
         -6    1    1    2    0  502 -0.57307513804E+02 -0.28611472183E+02  0.33998094750E+03  0.38635969270E+03  0.17200000000E+03 0. -1.
</event>
<event>
 4    1  0.5714562E+000  0.1772074E+03  0.7818608E-02  0.1170533E+00
         21   -1    0    0  501  502  0.00000000000E+00  0.00000000000E+00  0.91217677175E+02  0.91217677175E+02  0.00000000000E+00 0. -1.
         21   -1    0    0  502  503 -0.00000000000E+00 -0.00000000000E+00 -0.35384420402E+03  0.35384420402E+03  0.00000000000E+00 0. -1.
          6    1    1    2  501    0  0.42271900010E+02  0.56159834583E+01 -0.16794000920E+03  0.24414401383E+03  0.17200000000E+03 0. -1.
         -6    1    1    2    0  503 -0.42271900010E+02 -0.56159834583E+01 -0.94686517641E+02  0.20091786736E+03  0.17200000000E+03 0. -1.
</event>
<event>
 4    1  0.5714562E+000  0.2655918E+03  0.7818608E-02  0.1103829E+00
         21   -1    0    0  503  502  0.00000000000E+00  0.00000000000E+00  0.23034564557E+03  0.23034564557E+03  0.00000000000E+00 0.  1.
         21   -1    0    0  501  503 -0.00000000000E+00 -0.00000000000E+00 -0.52819103926E+03  0.52819103926E+03  0.00000000000E+00 0.  1.
          6    1    1    2  501    0  0.19879768720E+03  0.37874853087E+02 -0.39478292119E+03  0.47580729271E+03  0.17200000000E+03 0.  1.
         -6    1    1    2    0  502 -0.19879768720E+03 -0.37874853087E+02  0.96937527497E+02  0.28272939212E+03  0.17200000000E+03 0.  1.
</event>
<event>
 4    1  0.5714562E+000  0.2479741E+03  0.7818608E-02  0.1114592E+00
         21   -1    0    0  503  502  0.00000000000E+00  0.00000000000E+00  0.87270026064E+02  0.87270026064E+02  0.00000000000E+00 0. -1.
         21   -1    0    0  501  503 -0.00000000000E+00 -0.00000000000E+00 -0.93230028833E+03  0.93230028833E+03  0.00000000000E+00 0.  1.
          6    1    1    2  501    0  0.15575448449E+03 -0.87451129431E+02 -0.17058307699E+03  0.30098130446E+03  0.17200000000E+03 0. -1.
         -6    1    1    2    0  502 -0.15575448449E+03  0.87451129431E+02 -0.67444718527E+03  0.71858900993E+03  0.17200000000E+03 0.  1.
</event>
<event>
 4    1  0.5714562E+000  0.1740325E+03  0.7818608E-02  0.1173707E+00
         21   -1    0    0  501  502  0.00000000000E+00  0.00000000000E+00  0.61870852722E+02  0.61870852722E+02  0.00000000000E+00 0.  1.
         21   -1    0    0  502  503 -0.00000000000E+00 -0.00000000000E+00 -0.10002645874E+04  0.10002645874E+04  0.00000000000E+00 0.  1.
          6    1    1    2  501    0 -0.14711958843E+02  0.22065064573E+02 -0.89713838471E+02  0.19579550971E+03  0.17200000000E+03 0.  1.
         -6    1    1    2    0  503  0.14711958843E+02 -0.22065064573E+02 -0.84867989622E+03  0.86633993042E+03  0.17200000000E+03 0.  1.
</event>
<event>
 4    1  0.5714562E+000  0.2913772E+03  0.7818608E-02  0.1089632E+00
         21   -1    0    0  503  502  0.00000000000E+00  0.00000000000E+00  0.16634739214E+03  0.16634739214E+03  0.00000000000E+00 0. -1.
         21   -1    0    0  501  503 -0.00000000000E+00 -0.00000000000E+00 -0.58032254579E+03  0.58032254579E+03  0.00000000000E+00 0.  1.
          6    1    1    2  501    0  0.20499325985E+03 -0.11530143830E+03 -0.33659489096E+03  0.44519296814E+03  0.17200000000E+03 0. -1.
         -6    1    1    2    0  502 -0.20499325985E+03  0.11530143830E+03 -0.77380262695E+02  0.30147696979E+03  0.17200000000E+03 0.  1.
</event>
<event>
 4    1  0.5714562E+000  0.2284963E+03  0.7818608E-02  0.1127703E+00
         21   -1    0    0  503  502  0.00000000000E+00  0.00000000000E+00  0.25129455309E+03  0.25129455309E+03  0.00000000000E+00 0. -1.
         21   -1    0    0  501  503 -0.00000000000E+00 -0.00000000000E+00 -0.20842573401E+03  0.20842573401E+03  0.00000000000E+00 0.  1.
          6    1    1    2  501    0  0.12476121004E+03  0.84030928637E+02  0.85058123156E+01  0.22865455460E+03  0.17200000000E+03 0.  1.
         -6    1    1    2    0  502 -0.12476121004E+03 -0.84030928637E+02  0.34363006764E+02  0.23106573249E+03  0.17200000000E+03 0.  1.
</event>
<event>
 4    1  0.5714562E+000  0.1762720E+03  0.7818608E-02  0.1171461E+00
         21   -1    0    0  503  502  0.00000000000E+00  0.00000000000E+00  0.99532050482E+03  0.99532050482E+03  0.00000000000E+00 0.  1.
         21   -1    0    0  501  503 -0.00000000000E+00 -0.00000000000E+00 -0.41381481433E+02  0.41381481433E+02  0.00000000000E+00 0.  1.
          6    1    1    2  501    0 -0.33493982088E+02 -0.19130732739E+02  0.73385759872E+03  0.75473095006E+03  0.17200000000E+03 0.  1.
         -6    1    1    2    0  502  0.33493982088E+02  0.19130732739E+02  0.22008142466E+03  0.28197103620E+03  0.17200000000E+03 0.  1.
</event>
<event>
 4    1  0.5714562E+000  0.1999290E+03  0.7818608E-02  0.1149799E+00
         21   -1    0    0  501  502  0.00000000000E+00  0.00000000000E+00  0.96554933181E+02  0.96554933181E+02  0.00000000000E+00 0.  1.
         21   -1    0    0  502  503 -0.00000000000E+00 -0.00000000000E+00 -0.41684242735E+03  0.41684242735E+03  0.00000000000E+00 0.  1.
          6    1    1    2  501    0 -0.24405059609E+02  0.98954464070E+02 -0.18142398088E+03  0.26997454275E+03  0.17200000000E+03 0.  1.
         -6    1    1    2    0  503  0.24405059609E+02 -0.98954464070E+02 -0.13886351328E+03  0.24342281778E+03  0.17200000000E+03 0.  1.
</event>
<event>
 4    1  0.5714562E+000  0.1950747E+03  0.7818608E-02  0.1153962E+00
         21   -1    0    0  503  502  0.00000000000E+00  0.00000000000E+00  0.72322083597E+03  0.72322083597E+03  0.00000000000E+00 0. -1.
         21   -1    0    0  501  503 -0.00000000000E+00 -0.00000000000E+00 -0.66897519222E+02  0.66897519222E+02  0.00000000000E+00 0. -1.
          6    1    1    2  501    0 -0.39013268057E+02  0.83355213864E+02  0.14563748071E+03  0.24344281166E+03  0.17200000000E+03 0. -1.
         -6    1    1    2    0  502  0.39013268057E+02 -0.83355213864E+02  0.51068583603E+03  0.54667554352E+03  0.17200000000E+03 0. -1.
</event>
<event>
 4    1  0.5714562E+000  0.1840734E+03  0.7818608E-02  0.1163918E+00
         21   -1    0    0  503  502  0.00000000000E+00  0.00000000000E+00  0.70356429853E+02  0.70356429853E+02  0.00000000000E+00 0. -1.
         21   -1    0    0  501  503 -0.00000000000E+00 -0.00000000000E+00 -0.48318113594E+03  0.48318113594E+03  0.00000000000E+00 0. -1.
          6    1    1    2  501    0  0.63353635003E+02  0.16891986849E+02 -0.22228982747E+03  0.28861009976E+03  0.17200000000E+03 0. -1.
         -6    1    1    2    0  502 -0.63353635003E+02 -0.16891986849E+02 -0.19053487862E+03  0.26492746603E+03  0.17200000000E+03 0. -1.
</event>
<event>
 4    1  0.5714562E+000  0.1808467E+03  0.7818608E-02  0.1166986E+00
         21   -1    0    0  503  502  0.00000000000E+00  0.00000000000E+00  0.21082261601E+04  0.21082261601E+04  0.00000000000E+00 0.  1.
         21   -1    0    0  501  503 -0.00000000000E+00 -0.00000000000E+00 -0.27919314595E+02  0.27919314595E+02  0.00000000000E+00 0.  1.
          6    1    1    2  501    0 -0.21692519576E+01 -0.55828485309E+02  0.32817839847E+03  0.37470866903E+03  0.17200000000E+03 0.  1.
         -6    1    1    2    0  502  0.21692519576E+01  0.55828485309E+02  0.17521284470E+04  0.17614368056E+04  0.17200000000E+03 0.  1.
</event>
<event>
 4    1  0.5714562E+000  0.2343074E+03  0.7818608E-02  0.1123644E+00
         21   -1    0    0  501  502  0.00000000000E+00  0.00000000000E+00  0.17166420969E+03  0.17166420969E+03  0.00000000000E+00 0. -1.
         21   -1    0    0  502  503 -0.00000000000E+00 -0.00000000000E+00 -0.54590416990E+03  0.54590416990E+03  0.00000000000E+00 0.  1.
          6    1    1    2  501    0 -0.10092798928E+03  0.12300208076E+03  0.43777689343E+02  0.23836202922E+03  0.17200000000E+03 0. -1.
         -6    1    1    2    0  503  0.10092798928E+03 -0.12300208076E+03 -0.41801764955E+03  0.47920635036E+03  0.17200000000E+03 0.  1.
</event>
<event>
 4    1  0.5714562E+000  0.2040543E+03  0.7818608E-02  0.1146363E+00
         21   -1    0    0  501  502  0.00000000000E+00  0.00000000000E+00  0.31402004915E+03  0.31402004915E+03  0.00000000000E+00 0.  1.
         21   -1    0    0  502  503 -0.00000000000E+00 -0.00000000000E+00 -0.21413052202E+03  0.21413052202E+03  0.00000000000E+00 0.  1.
          6    1    1    2  501    0  0.10317097074E+03 -0.37548980293E+02  0.21289540495E+03  0.29489426677E+03  0.17200000000E+03 0.  1.
         -6    1    1    2    0  503 -0.10317097074E+03  0.37548980293E+02 -0.11300587782E+03  0.23325630441E+03  0.17200000000E+03 0.  1.
</event>
<event>
 4    1  0.5714562E+000  0.1842712E+03  0.7818608E-02  0.1163732E+00
         21   -1    0    0  501  502  0.00000000000E+00  0.00000000000E+00  0.71453549068E+03  0.71453549068E+03  0.00000000000E+00 0. -1.
         21   -1    0    0  502  503 -0.00000000000E+00 -0.00000000000E+00 -0.81224698423E+02  0.81224698423E+02  0.00000000000E+00 0. -1.
          6    1    1    2  501    0  0.44961806305E+02 -0.48480186359E+02  0.57295200983E+03  0.60185537970E+03  0.17200000000E+03 0. -1.
         -6    1    1    2    0  503 -0.44961806305E+02  0.48480186359E+02  0.60358782421E+02  0.19390480941E+03  0.17200000000E+03 0. -1.
</event>
<event>
 4    1  0.5714562E+000  0.2113153E+03  0.7818608E-02  0.1140529E+00
         21   -1    0    0  501  502  0.00000000000E+00  0.00000000000E+00  0.15532869405E+03  0.15532869405E+03  0.00000000000E+00 0. -1.
         21   -1    0    0  502  503 -0.00000000000E+00 -0.00000000000E+00 -0.37926372386E+03  0.37926372386E+03  0.00000000000E+00 0.  1.
          6    1    1    2  501    0  0.29739709450E+02 -0.11910379319E+03  0.19524947250E+02  0.21221542695E+03  0.17200000000E+03 0. -1.
         -6    1    1    2    0  503 -0.29739709450E+02  0.11910379319E+03 -0.24345997706E+03  0.32237699096E+03  0.17200000000E+03 0.  1.
</event>
<event>
 4    1  0.5714562E+000  0.1895810E+03  0.7818608E-02  0.1158840E+00
         21   -1    0    0  503  502  0.00000000000E+00  0.00000000000E+00  0.79490964693E+02  0.79490964693E+02  0.00000000000E+00 0. -1.
         21   -1    0    0  501  503 -0.00000000000E+00 -0.00000000000E+00 -0.50607847773E+03  0.50607847773E+03  0.00000000000E+00 0. -1.
          6    1    1    2  501    0 -0.35221991167E+02  0.71528908610E+02 -0.11770816511E+03  0.22315058943E+03  0.17200000000E+03 0.  1.
         -6    1    1    2    0  502  0.35221991167E+02 -0.71528908610E+02 -0.30887934794E+03  0.36241885300E+03  0.17200000000E+03 0.  1.
</event>
<event>
 4    1  0.5714562E+000  0.2090560E+03  0.7818608E-02  0.1142316E+00
         21   -1    0    0  501  502  0.00000000000E+00  0.00000000000E+00  0.12705508284E+04  0.12705508284E+04  0.00000000000E+00 0.  1.
         21   -1    0    0  502  503 -0.00000000000E+00 -0.00000000000E+00 -0.44884863263E+02  0.44884863263E+02  0.00000000000E+00 0. -1.
          6    1    1    2  501    0 -0.29458390277E+01  0.11879279833E+03  0.93074905405E+03  0.95393826243E+03  0.17200000000E+03 0.  1.
         -6    1    1    2    0  503  0.29458390277E+01 -0.11879279833E+03  0.29491691110E+03  0.36149742925E+03  0.17200000000E+03 0. -1.
</event>
<event>
 4    1  0.5714562E+000  0.2417690E+03  0.7818608E-02  0.1118620E+00
         21   -1    0    0  501  502  0.00000000000E+00  0.00000000000E+00  0.73759907474E+03  0.73759907474E+03  0.00000000000E+00 0. -1.
         21   -1    0    0  502  503 -0.00000000000E+00 -0.00000000000E+00 -0.86519325525E+02  0.86519325525E+02  0.00000000000E+00 0.  1.
          6    1    1    2  501    0 -0.66199413966E+01  0.16977752288E+03  0.20607199295E+03  0.31767577367E+03  0.17200000000E+03 0.  1.
         -6    1    1    2    0  503  0.66199413966E+01 -0.16977752288E+03  0.44500775627E+03  0.50644262660E+03  0.17200000000E+03 0.  1.
</event>
<event>
 4    1  0.5714562E+000  0.1848483E+03  0.7818608E-02  0.1163192E+00
         21   -1    0    0  503  502  0.00000000000E+00  0.00000000000E+00  0.56107312171E+03  0.56107312171E+03  0.00000000000E+00 0.  1.
         21   -1    0    0  501  503 -0.00000000000E+00 -0.00000000000E+00 -0.25375920605E+03  0.25375920605E+03  0.00000000000E+00 0.  1.
          6    1    1    2  501    0  0.64792062021E+02 -0.19669388833E+02 -0.20152300390E+03  0.27346008349E+03  0.17200000000E+03 0.  1.
         -6    1    1    2    0  502 -0.64792062021E+02  0.19669388833E+02  0.50883691957E+03  0.54137224428E+03  0.17200000000E+03 0.  1.
</event>
<event>
 4    1  0.5714562E+000  0.1933207E+03  0.7818608E-02  0.1155500E+00
         21   -1    0    0  503  502  0.00000000000E+00  0.00000000000E+00  0.11439326233E+04  0.11439326233E+04  0.00000000000E+00 0.  1.
         21   -1    0    0  501  503 -0.00000000000E+00 -0.00000000000E+00 -0.11158435344E+03  0.11158435344E+03  0.00000000000E+00 0. -1.
          6    1    1    2  501    0 -0.90709356898E+01  0.87787302950E+02 -0.11745078656E+02  0.19367715226E+03  0.17200000000E+03 0. -1.
         -6    1    1    2    0  502  0.90709356898E+01 -0.87787302950E+02  0.10440933485E+04  0.10618398244E+04  0.17200000000E+03 0.  1.
</event>
<event>
 4    1  0.5714562E+000  0.2127169E+03  0.7818608E-02  0.1139432E+00
         21   -1    0    0  501  502  0.00000000000E+00  0.00000000000E+00  0.25686185205E+03  0.25686185205E+03  0.00000000000E+00 0. -1.
         21   -1    0    0  502  503 -0.00000000000E+00 -0.00000000000E+00 -0.26917894048E+03  0.26917894048E+03  0.00000000000E+00 0. -1.
          6    1    1    2  501    0 -0.76562462510E+02  0.99008533339E+02  0.14845842605E+03  0.25940008597E+03  0.17200000000E+03 0. -1.
         -6    1    1    2    0  503  0.76562462510E+02 -0.99008533339E+02 -0.16077551448E+03  0.26664070656E+03  0.17200000000E+03 0. -1.
</event>
<event>
 4    1  0.5714562E+000  0.4798220E+03  0.7818608E-02  0.1019184E+00
         21   -1    0    0  501  502  0.00000000000E+00  0.00000000000E+00  0.44632574785E+03  0.44632574785E+03  0.00000000000E+00 0. -1.
         21   -1    0    0  502  503 -0.00000000000E+00 -0.00000000000E+00 -0.51714018649E+03  0.51714018649E+03  0.00000000000E+00 0.  1.
          6    1    1    2  501    0  0.99920347086E+02 -0.43664751472E+03 -0.11178644769E+02  0.47995217467E+03  0.17200000000E+03 0.  1.
         -6    1    1    2    0  503 -0.99920347086E+02  0.43664751472E+03 -0.59635793873E+02  0.48351375966E+03  0.17200000000E+03 0.  1.
</event>
<event>
 4    1  0.5714562E+000  0.2304391E+03  0.7818608E-02  0.1126331E+00
         21   -1    0    0  501  502  0.00000000000E+00  0.00000000000E+00  0.13229570023E+03  0.13229570023E+03  0.00000000000E+00 0. -1.
         21   -1    0    0  502  503 -0.00000000000E+00 -0.00000000000E+00 -0.66296233640E+03  0.66296233640E+03  0.00000000000E+00 0.  1.
          6    1    1    2  501    0  0.39517893659E+02  0.14817728365E+03 -0.15569486983E+02  0.23096445665E+03  0.17200000000E+03 0. -1.
         -6    1    1    2    0  503 -0.39517893659E+02 -0.14817728365E+03 -0.51509714918E+03  0.56429357998E+03  0.17200000000E+03 0.  1.
</event>
<event>
 4    1  0.5714562E+000  0.1993027E+03  0.7818608E-02  0.1150329E+00
         21   -1    0    0  501  502  0.00000000000E+00  0.00000000000E+00  0.41434490497E+03  0.41434490497E+03  0.00000000000E+00 0.  1.
         21   -1    0    0  502  503 -0.00000000000E+00 -0.00000000000E+00 -0.16088574797E+03  0.16088574797E+03  0.00000000000E+00 0.  1.
          6    1    1    2  501    0  0.74467252655E+02 -0.67765703670E+02  0.30957163247E+03  0.36817951864E+03  0.17200000000E+03 0. -1.
         -6    1    1    2    0  503 -0.74467252655E+02  0.67765703670E+02 -0.56112475481E+02  0.20705113430E+03  0.17200000000E+03 0. -1.
</event>
<event>
 4    1  0.5714562E+000  0.2048036E+03  0.7818608E-02  0.1145748E+00
         21   -1    0    0  501  502  0.00000000000E+00  0.00000000000E+00  0.16751249387E+03  0.16751249387E+03  0.00000000000E+00 0. -1.
         21   -1    0    0  502  503 -0.00000000000E+00 -0.00000000000E+00 -0.43357793267E+03  0.43357793267E+03  0.00000000000E+00 0. -1.
          6    1    1    2  501    0  0.10500014927E+03  0.36544149979E+02  0.62318987462E+02  0.21407513271E+03  0.17200000000E+03 0. -1.
         -6    1    1    2    0  503 -0.10500014927E+03 -0.36544149979E+02 -0.32838442626E+03  0.38701529383E+03  0.17200000000E+03 0. -1.
</event>
<event>
 4    1  0.5714562E+000  0.1841158E+03  0.7818608E-02  0.1163878E+00
         21   -1    0    0  503  502  0.00000000000E+00  0.00000000000E+00  0.39452510458E+03  0.39452510458E+03  0.00000000000E+00 0. -1.
         21   -1    0    0  501  503 -0.00000000000E+00 -0.00000000000E+00 -0.14127082568E+03  0.14127082568E+03  0.00000000000E+00 0.  1.
          6    1    1    2  501    0  0.65488978296E+02  0.50805685284E+01 -0.41058189589E+02  0.18863826067E+03  0.17200000000E+03 0.  1.
         -6    1    1    2    0  502 -0.65488978296E+02 -0.50805685284E+01  0.29431246848E+03  0.34715766959E+03  0.17200000000E+03 0. -1.
</event>
<event>
 4    1  0.5714562E+000  0.2193589E+03  0.7818608E-02  0.1134362E+00
         21   -1    0    0  501  502  0.00000000000E+00  0.00000000000E+00  0.13210040484E+04  0.13210040484E+04  0.00000000000E+00 0. -1.
         21   -1    0    0  502  503 -0.00000000000E+00 -0.00000000000E+00 -0.38127857657E+02  0.38127857657E+02  0.00000000000E+00 0. -1.
          6    1    1    2  501    0  0.11964468218E+03 -0.64957597720E+02  0.49784765430E+03  0.54403182478E+03  0.17200000000E+03 0. -1.
         -6    1    1    2    0  503 -0.11964468218E+03  0.64957597720E+02  0.78502853642E+03  0.81510008126E+03  0.17200000000E+03 0. -1.
</event>
<event>
 4    1  0.5714562E+000  0.1958949E+03  0.7818608E-02  0.1153249E+00
         21   -1    0    0  503  502  0.00000000000E+00  0.00000000000E+00  0.34241675676E+02  0.34241675676E+02  0.00000000000E+00 0.  1.
         21   -1    0    0  501  503 -0.00000000000E+00 -0.00000000000E+00 -0.15737356322E+04  0.15737356322E+04  0.00000000000E+00 0. -1.
          6    1    1    2  501    0 -0.49839546759E+02 -0.79415656008E+02 -0.33837922226E+03  0.39099274277E+03  0.17200000000E+03 0.  1.
         -6    1    1    2    0  502  0.49839546759E+02  0.79415656008E+02 -0.12011147342E+04  0.12169845651E+04  0.17200000000E+03 0. -1.
</event>
<event>
 4    1  0.5714562E+000  0.1818448E+03  0.7818608E-02  0.1166029E+00
         21   -1    0    0  501  502  0.00000000000E+00  0.00000000000E+00  0.54395841582E+03  0.54395841582E+03  0.00000000000E+00 0.  1.
         21   -1    0    0  502  503 -0.00000000000E+00 -0.00000000000E+00 -0.71744868899E+02  0.71744868899E+02  0.00000000000E+00 0.  1.
          6    1    1    2  501    0  0.44110817800E+02 -0.39214578613E+02  0.35639916332E+03  0.40010987371E+03  0.17200000000E+03 0.  1.
         -6    1    1    2    0  503 -0.44110817800E+02  0.39214578613E+02  0.11581438360E+03  0.21559341101E+03  0.17200000000E+03 0.  1.
</event>
<event>
 4    1  0.5714562E+000  0.2591174E+03  0.7818608E-02  0.1107675E+00
         21   -1    0    0  501  502  0.00000000000E+00  0.00000000000E+00  0.65049859291E+02  0.65049859291E+02  0.00000000000E+00 0. -1.
         21   -1    0    0  502  503 -0.00000000000E+00 -0.00000000000E+00 -0.21286179241E+04  0.21286179241E+04  0.00000000000E+00 0. -1.
          6    1    1    2  501    0 -0.18479295218E+03 -0.58390057151E+02 -0.24457860970E+03  0.35631521196E+03  0.17200000000E+03 0. -1.
         -6    1    1    2    0  503  0.18479295218E+03  0.58390057151E+02 -0.18189894551E+04  0.18373525714E+04  0.17200000000E+03 0. -1.
</event>
<event>
 4    1  0.5714562E+000  0.2203273E+03  0.7818608E-02  0.1133639E+00
         21   -1    0    0  501  502  0.00000000000E+00  0.00000000000E+00  0.35897584701E+03  0.35897584701E+03  0.00000000000E+00 0. -1.
         21   -1    0    0  502  503 -0.00000000000E+00 -0.00000000000E+00 -0.13750700217E+03  0.13750700217E+03  0.00000000000E+00 0.  1.
          6    1    1    2  501    0  0.18792477079E+02 -0.13640731032E+03  0.78786350951E+02  0.23399017201E+03  0.17200000000E+03 0. -1.
         -6    1    1    2    0  503 -0.18792477079E+02  0.13640731032E+03  0.14268249390E+03  0.26249267717E+03  0.17200000000E+03 0.  1.
</event>
<event>
 4    1  0.5714562E+000  0.1777270E+03  0.7818608E-02  0.1170021E+00
         21   -1    0    0  501  502  0.00000000000E+00  0.00000000000E+00  0.64168085550E+03  0.64168085550E+03  0.00000000000E+00 0.  1.
         21   -1    0    0  502  503 -0.00000000000E+00 -0.00000000000E+00 -0.65912345625E+02  0.65912345625E+02  0.00000000000E+00 0.  1.
          6    1    1    2  501    0 -0.23790927121E+02  0.37906116870E+02  0.46590107016E+03  0.49864886351E+03  0.17200000000E+03 0.  1.
         -6    1    1    2    0  503  0.23790927121E+02 -0.37906116870E+02  0.10986743972E+03  0.20894433761E+03  0.17200000000E+03 0.  1.
</event>
<event>
 4    1  0.5714562E+000  0.1795204E+03  0.7818608E-02  0.1168268E+00
         21   -1    0    0  503  502  0.00000000000E+00  0.00000000000E+00  0.42103184850E+03  0.42103184850E+03  0.00000000000E+00 0.  1.
         21   -1    0    0  501  503 -0.00000000000E+00 -0.00000000000E+00 -0.92014154236E+02  0.92014154236E+02  0.00000000000E+00 0.  1.
          6    1    1    2  501    0  0.11990006314E+02 -0.49998102324E+02  0.59326540160E+02  0.18906932288E+03  0.17200000000E+03 0.  1.
         -6    1    1    2    0  502 -0.11990006314E+02  0.49998102324E+02  0.26969115411E+03  0.32397667986E+03  0.17200000000E+03 0.  1.
</event>
<event>
 4    1  0.5714562E+000  0.2672775E+03  0.7818608E-02  0.1102848E+00
         21   -1    0    0  503  502  0.00000000000E+00  0.00000000000E+00  0.10622348872E+03  0.10622348872E+03  0.00000000000E+00 0. -1.
         21   -1    0    0  501  503 -0.00000000000E+00 -0.00000000000E+00 -0.67481499320E+03  0.67481499320E+03  0.00000000000E+00 0. -1.
          6    1    1    2  501    0 -0.17997039050E+03 -0.97282619164E+02 -0.30707782345E+03  0.40710445724E+03  0.17200000000E+03 0. -1.
         -6    1    1    2    0  502  0.17997039050E+03  0.97282619164E+02 -0.26151368103E+03  0.37393402468E+03  0.17200000000E+03 0. -1.
</event>
<event>
 4    1  0.5714562E+000  0.1923321E+03  0.7818608E-02  0.1156375E+00
         21   -1    0    0  503  502  0.00000000000E+00  0.00000000000E+00  0.31342775291E+03  0.31342775291E+03  0.00000000000E+00 0. -1.
         21   -1    0    0  501  503 -0.00000000000E+00 -0.00000000000E+00 -0.12459889808E+03  0.12459889808E+03  0.00000000000E+00 0. -1.
          6    1    1    2  501    0  0.11103519471E+02 -0.85348289309E+02  0.44099386653E+02  0.19732302080E+03  0.17200000000E+03 0. -1.
         -6    1    1    2    0  502 -0.11103519471E+02  0.85348289309E+02  0.14472946817E+03  0.24070363019E+03  0.17200000000E+03 0. -1.
</event>
<event>
 4    1  0.5714562E+000  0.3054095E+03  0.7818608E-02  0.1082567E+00
         21   -1    0    0  503  502  0.00000000000E+00  0.00000000000E+00  0.34242584283E+03  0.34242584283E+03  0.00000000000E+00 0. -1.
         21   -1    0    0  501  503 -0.00000000000E+00 -0.00000000000E+00 -0.27356381227E+03  0.27356381227E+03  0.00000000000E+00 0.  1.
          6    1    1    2  501    0  0.15842913319E+03  0.19644643208E+03  0.54565422560E+02  0.31024567082E+03  0.17200000000E+03 0. -1.
         -6    1    1    2    0  502 -0.15842913319E+03 -0.19644643208E+03  0.14296608003E+02  0.30574398428E+03  0.17200000000E+03 0.  1.
</event>
<event>
 4    1  0.5714562E+000  0.2087103E+03  0.7818608E-02  0.1142591E+00
         21   -1    0    0  503  502  0.00000000000E+00  0.00000000000E+00  0.23568817847E+03  0.23568817847E+03  0.00000000000E+00 0. -1.
         21   -1    0    0  501  503 -0.00000000000E+00 -0.00000000000E+00 -0.59659804539E+03  0.59659804539E+03  0.00000000000E+00 0. -1.
          6    1    1    2  501    0  0.30331818761E+02  0.11426269267E+03 -0.52618184234E+03  0.56606299418E+03  0.17200000000E+03 0. -1.
         -6    1    1    2    0  502 -0.30331818761E+02 -0.11426269267E+03  0.16527197541E+03  0.26622322968E+03  0.17200000000E+03 0. -1.
</event>
<event>
 4    1  0.5714562E+000  0.2118557E+03  0.7818608E-02  0.1140105E+00
         21   -1    0    0  503  502  0.00000000000E+00  0.00000000000E+00  0.46578168233E+03  0.46578168233E+03  0.00000000000E+00 0. -1.
         21   -1    0    0  501  503 -0.00000000000E+00 -0.00000000000E+00 -0.24318233828E+03  0.24318233828E+03  0.00000000000E+00 0.  1.
          6    1    1    2  501    0 -0.55602020171E+02 -0.11048640069E+03 -0.16413836527E+03  0.26800043346E+03  0.17200000000E+03 0.  1.
         -6    1    1    2    0  502  0.55602020171E+02  0.11048640069E+03  0.38673770932E+03  0.44096358715E+03  0.17200000000E+03 0. -1.
</event>
<event>
 4    1  0.5714562E+000  0.1840201E+03  0.7818608E-02  0.1163968E+00
         21   -1    0    0  501  502  0.00000000000E+00  0.00000000000E+00  0.57610479956E+03  0.57610479956E+03  0.00000000000E+00 0.  1.
         21   -1    0    0  502  503 -0.00000000000E+00 -0.00000000000E+00 -0.10865897879E+03  0.10865897879E+03  0.00000000000E+00 0.  1.
          6    1    1    2  501    0 -0.23187407082E+02  0.61169768484E+02  0.46569571924E+03  0.50073535859E+03  0.17200000000E+03 0.  1.
         -6    1    1    2    0  503  0.23187407082E+02 -0.61169768484E+02  0.17501015327E+01  0.18402841976E+03  0.17200000000E+03 0.  1.
</event>
<event>
 4    1  0.5714562E+000  0.2871885E+03  0.7818608E-02  0.1091826E+00
         21   -1    0    0  503  502  0.00000000000E+00  0.00000000000E+00  0.12785898637E+03  0.12785898637E+03  0.00000000000E+00 0.  1.
         21   -1    0    0  501  503 -0.00000000000E+00 -0.00000000000E+00 -0.92741370768E+03  0.92741370768E+03  0.00000000000E+00 0.  1.
          6    1    1    2  501    0 -0.26880614435E+02 -0.22840904208E+03 -0.69091036885E+03  0.74822082016E+03  0.17200000000E+03 0. -1.
         -6    1    1    2    0  502  0.26880614435E+02  0.22840904208E+03 -0.10864435246E+03  0.30705187389E+03  0.17200000000E+03 0. -1.
</event>
<event>
 4    1  0.5714562E+000  0.1770295E+03  0.7818608E-02  0.1170709E+00
         21   -1    0    0  503  502  0.00000000000E+00  0.00000000000E+00  0.33362734610E+03  0.33362734610E+03  0.00000000000E+00 0.  1.
         21   -1    0    0  501  503 -0.00000000000E+00 -0.00000000000E+00 -0.33012056735E+03  0.33012056735E+03  0.00000000000E+00 0.  1.
          6    1    1    2  501    0 -0.33796303554E+02  0.24763717114E+02 -0.27896001701E+03  0.33039086384E+03  0.17200000000E+03 0.  1.
         -6    1    1    2    0  502  0.33796303554E+02 -0.24763717114E+02  0.28246679576E+03  0.33335704961E+03  0.17200000000E+03 0.  1.
</event>
<event>
 4    1  0.5714562E+000  0.2144643E+03  0.7818608E-02  0.1138079E+00
         21   -1    0    0  503  502  0.00000000000E+00  0.00000000000E+00  0.60193520220E+03  0.60193520220E+03  0.00000000000E+00 0. -1.
         21   -1    0    0  501  503 -0.00000000000E+00 -0.00000000000E+00 -0.84387114154E+02  0.84387114154E+02  0.00000000000E+00 0. -1.
          6    1    1    2  501    0 -0.10642608751E+03  0.71305154583E+02  0.15327837262E+03  0.26360803608E+03  0.17200000000E+03 0.  1.
         -6    1    1    2    0  502  0.10642608751E+03 -0.71305154583E+02  0.36426971543E+03  0.42271428028E+03  0.17200000000E+03 0.  1.
</event>
<event>
 4    1  0.5714562E+000  0.1815962E+03  0.7818608E-02  0.1166267E+00
         21   -1    0    0  503  502  0.00000000000E+00  0.00000000000E+00  0.39831817382E+03  0.39831817382E+03  0.00000000000E+00 0. -1.
         21   -1    0    0  501  503 -0.00000000000E+00 -0.00000000000E+00 -0.76342255282E+03  0.76342255282E+03  0.00000000000E+00 0. -1.
          6    1    1    2  501    0 -0.68307912848E+01  0.57848967921E+02 -0.73102204452E+03  0.75323993015E+03  0.17200000000E+03 0. -1.
         -6    1    1    2    0  502  0.68307912848E+01 -0.57848967921E+02  0.36591766552E+03  0.40850079650E+03  0.17200000000E+03 0. -1.
</event>
<event>
 4    1  0.5714562E+000  0.1840221E+03  0.7818608E-02  0.1163966E+00
         21   -1    0    0  503  502  0.00000000000E+00  0.00000000000E+00  0.51260019601E+03  0.51260019601E+03  0.00000000000E+00 0. -1.
         21   -1    0    0  501  503 -0.00000000000E+00 -0.00000000000E+00 -0.10212472632E+03  0.10212472632E+03  0.00000000000E+00 0. -1.
          6    1    1    2  501    0  0.54120535336E+02  0.36757108159E+02  0.22593421525E+02  0.18540382963E+03  0.17200000000E+03 0. -1.
         -6    1    1    2    0  502 -0.54120535336E+02 -0.36757108159E+02  0.38788204817E+03  0.42932109270E+03  0.17200000000E+03 0. -1.
</event>
<event>
 4    1  0.5714562E+000  0.4715132E+03  0.7818608E-02  0.1021494E+00
         21   -1    0    0  503  502  0.00000000000E+00  0.00000000000E+00  0.28119787774E+03  0.28119787774E+03  0.00000000000E+00 0.  1.
         21   -1    0    0  501  503 -0.00000000000E+00 -0.00000000000E+00 -0.12323862179E+04  0.12323862179E+04  0.00000000000E+00 0. -1.
          6    1    1    2  501    0 -0.25789089116E+02 -0.43826431936E+03 -0.92869239339E+03  0.10415345661E+04  0.17200000000E+03 0. -1.
         -6    1    1    2    0  502  0.25789089116E+02  0.43826431936E+03 -0.22495946757E+02  0.47204952957E+03  0.17200000000E+03 0. -1.
</event>
<event>
 4    1  0.5714562E+000  0.2047197E+03  0.7818608E-02  0.1145817E+00
         21   -1    0    0  503  502  0.00000000000E+00  0.00000000000E+00  0.96700594943E+03  0.96700594943E+03  0.00000000000E+00 0. -1.
         21   -1    0    0  501  503 -0.00000000000E+00 -0.00000000000E+00 -0.52867044238E+03  0.52867044238E+03  0.00000000000E+00 0. -1.
          6    1    1    2  501    0 -0.49193681390E+02 -0.99529653786E+02 -0.49736134742E+03  0.53784614917E+03  0.17200000000E+03 0. -1.
         -6    1    1    2    0  502  0.49193681390E+02  0.99529653786E+02  0.93569685447E+03  0.95783024265E+03  0.17200000000E+03 0. -1.
</event>
<event>
 4    1  0.5714562E+000  0.2570774E+03  0.7818608E-02  0.1108912E+00
         21   -1    0    0  501  502  0.00000000000E+00  0.00000000000E+00  0.91499508022E+02  0.91499508022E+02  0.00000000000E+00 0.  1.
         21   -1    0    0  502  503 -0.00000000000E+00 -0.00000000000E+00 -0.72256353195E+03  0.72256353195E+03  0.00000000000E+00 0.  1.
          6    1    1    2  501    0 -0.12459710146E+03 -0.14484588210E+03 -0.32351642330E+03  0.41322105875E+03  0.17200000000E+03 0.  1.
         -6    1    1    2    0  503  0.12459710146E+03  0.14484588210E+03 -0.30754760063E+03  0.40084198122E+03  0.17200000000E+03 0.  1.
</event>
<event>
 4    1  0.5714562E+000  0.1876327E+03  0.7818608E-02  0.1160614E+00
         21   -1    0    0  503  502  0.00000000000E+00  0.00000000000E+00  0.34419771739E+03  0.34419771739E+03  0.00000000000E+00 0. -1.
         21   -1    0    0  501  503 -0.00000000000E+00 -0.00000000000E+00 -0.25451973843E+03  0.25451973843E+03  0.00000000000E+00 0. -1.
          6    1    1    2  501    0 -0.71171059595E+02  0.23594593316E+02 -0.18668130359E+03  0.26468081470E+03  0.17200000000E+03 0. -1.
         -6    1    1    2    0  502  0.71171059595E+02 -0.23594593316E+02  0.27635928255E+03  0.33403664112E+03  0.17200000000E+03 0. -1.
</event>
<event>
 4    1  0.5714562E+000  0.1840738E+03  0.7818608E-02  0.1163918E+00
         21   -1    0    0  501  502  0.00000000000E+00  0.00000000000E+00  0.46545721931E+02  0.46545721931E+02  0.00000000000E+00 0.  1.
         21   -1    0    0  502  503 -0.00000000000E+00 -0.00000000000E+00 -0.72885337564E+03  0.72885337564E+03  0.00000000000E+00 0.  1.
          6    1    1    2  501    0  0.58323029830E+02  0.29959548970E+02 -0.35477188102E+03  0.39968267156E+03  0.17200000000E+03 0.  1.
         -6    1    1    2    0  503 -0.58323029830E+02 -0.29959548970E+02 -0.32753577269E+03  0.37571642601E+03  0.17200000000E+03 0.  1.
</event>
<event>
 4    1  0.5714562E+000  0.2116573E+03  0.7818608E-02  0.1140260E+00
         21   -1    0    0  501  502  0.00000000000E+00  0.00000000000E+00  0.67975707804E+02  0.67975707804E+02  0.00000000000E+00 0. -1.
         21   -1    0    0  502  503 -0.00000000000E+00 -0.00000000000E+00 -0.13049396207E+04  0.13049396207E+04  0.00000000000E+00 0.  1.
          6    1    1    2  501    0  0.86754536232E+02 -0.87683977313E+02 -0.13553384075E+03  0.25133294934E+03  0.17200000000E+03 0. -1.
         -6    1    1    2    0  503 -0.86754536232E+02  0.87683977313E+02 -0.11014300722E+04  0.11215823792E+04  0.17200000000E+03 0.  1.
</event>
<event>
 4    1  0.5714562E+000  0.2292903E+03  0.7818608E-02  0.1127140E+00
         21   -1    0    0  501  502  0.00000000000E+00  0.00000000000E+00  0.63288046454E+02  0.63288046454E+02  0.00000000000E+00 0.  1.
         21   -1    0    0  502  503 -0.00000000000E+00 -0.00000000000E+00 -0.89240198095E+03  0.89240198095E+03  0.00000000000E+00 0.  1.
          6    1    1    2  501    0  0.15140137762E+03  0.82268964844E+01 -0.28891966552E+03  0.36884770854E+03  0.17200000000E+03 0.  1.
         -6    1    1    2    0  503 -0.15140137762E+03 -0.82268964844E+01 -0.54019426898E+03  0.58684231887E+03  0.17200000000E+03 0.  1.
</event>
<event>
 4    1  0.5714562E+000  0.1985342E+03  0.7818608E-02  0.1150982E+00
         21   -1    0    0  503  502  0.00000000000E+00  0.00000000000E+00  0.11500416116E+04  0.11500416116E+04  0.00000000000E+00 0. -1.
         21   -1    0    0  501  503 -0.00000000000E+00 -0.00000000000E+00 -0.62471424106E+02  0.62471424106E+02  0.00000000000E+00 0.  1.
          6    1    1    2  501    0  0.97396637201E+02 -0.18594061789E+02  0.13647515875E+03  0.24091764781E+03  0.17200000000E+03 0.  1.
         -6    1    1    2    0  502 -0.97396637201E+02  0.18594061789E+02  0.95109502878E+03  0.97159538793E+03  0.17200000000E+03 0. -1.
</event>
<event>
 4    1  0.5714562E+000  0.1726918E+03  0.7818608E-02  0.1175069E+00
         21   -1    0    0  501  502  0.00000000000E+00  0.00000000000E+00  0.75311230850E+02  0.75311230850E+02  0.00000000000E+00 0.  1.
         21   -1    0    0  502  503 -0.00000000000E+00 -0.00000000000E+00 -0.40422062438E+03  0.40422062438E+03  0.00000000000E+00 0.  1.
          6    1    1    2  501    0 -0.49760265929E+01  0.14618875928E+02 -0.13024081847E+03  0.21629873594E+03  0.17200000000E+03 0.  1.
         -6    1    1    2    0  503  0.49760265929E+01 -0.14618875928E+02 -0.19866857506E+03  0.26323311929E+03  0.17200000000E+03 0.  1.
</event>
<event>
 4    1  0.5714562E+000  0.1793902E+03  0.7818608E-02  0.1168394E+00
         21   -1    0    0  503  502  0.00000000000E+00  0.00000000000E+00  0.10530601374E+03  0.10530601374E+03  0.00000000000E+00 0. -1.
         21   -1    0    0  501  503 -0.00000000000E+00 -0.00000000000E+00 -0.35510134597E+03  0.35510134597E+03  0.00000000000E+00 0. -1.
          6    1    1    2  501    0 -0.88604957132E+01  0.50183148884E+02 -0.38942469342E+02  0.18356844155E+03  0.17200000000E+03 0. -1.
         -6    1    1    2    0  502  0.88604957132E+01 -0.50183148884E+02 -0.21085286289E+03  0.27683891815E+03  0.17200000000E+03 0. -1.
</event>
<event>
 4    1  0.5714562E+000  0.2087617E+03  0.7818608E-02  0.1142550E+00
         21   -1    0    0  503  502  0.00000000000E+00  0.00000000000E+00  0.24209993578E+03  0.24209993578E+03  0.00000000000E+00 0. -1.
         21   -1    0    0  501  503 -0.00000000000E+00 -0.00000000000E+00 -0.21308348401E+03  0.21308348401E+03  0.00000000000E+00 0. -1.
          6    1    1    2  501    0 -0.71941590092E+02  0.93924824752E+02 -0.75150566902E+02  0.22187625559E+03  0.17200000000E+03 0. -1.
         -6    1    1    2    0  502  0.71941590092E+02 -0.93924824752E+02  0.10416701867E+03  0.23330716420E+03  0.17200000000E+03 0. -1.
</event>
<event>
 4    1  0.5714562E+000  0.1924889E+03  0.7818608E-02  0.1156235E+00
         21   -1    0    0  503  502  0.00000000000E+00  0.00000000000E+00  0.16120660852E+03  0.16120660852E+03  0.00000000000E+00 0. -1.
         21   -1    0    0  501  503 -0.00000000000E+00 -0.00000000000E+00 -0.24906767151E+03  0.24906767151E+03  0.00000000000E+00 0. -1.
          6    1    1    2  501    0 -0.66981982008E+02 -0.54602214450E+02 -0.10092473506E+03  0.21734256344E+03  0.17200000000E+03 0. -1.
         -6    1    1    2    0  502  0.66981982008E+02  0.54602214450E+02  0.13063672063E+02  0.19293171658E+03  0.17200000000E+03 0. -1.
</event>
<event>
 4    1  0.5714562E+000  0.2199491E+03  0.7818608E-02  0.1133921E+00
         21   -1    0    0  501  502  0.00000000000E+00  0.00000000000E+00  0.35205504072E+02  0.35205504072E+02  0.00000000000E+00 0. -1.
         21   -1    0    0  502  503 -0.00000000000E+00 -0.00000000000E+00 -0.13814670126E+04  0.13814670126E+04  0.00000000000E+00 0. -1.
          6    1    1    2  501    0 -0.11373005225E+03  0.76544718436E+02 -0.62157739767E+03  0.65934519032E+03  0.17200000000E+03 0. -1.
         -6    1    1    2    0  503  0.11373005225E+03 -0.76544718436E+02 -0.72468411085E+03  0.75732732634E+03  0.17200000000E+03 0. -1.
</event>
<event>
 4    1  0.5714562E+000  0.3386401E+03  0.7818608E-02  0.1067377E+00
         21   -1    0    0  501  502  0.00000000000E+00  0.00000000000E+00  0.63787222604E+03  0.63787222604E+03  0.00000000000E+00 0.  1.
         21   -1    0    0  502  503 -0.00000000000E+00 -0.00000000000E+00 -0.18579417684E+03  0.18579417684E+03  0.00000000000E+00 0.  1.
          6    1    1    2  501    0 -0.92816392776E+02  0.27654699674E+03  0.30013039481E+03  0.45249903653E+03  0.17200000000E+03 0. -1.
         -6    1    1    2    0  503  0.92816392776E+02 -0.27654699674E+03  0.15194765439E+03  0.37116736636E+03  0.17200000000E+03 0. -1.
</event>
<event>
 4    1  0.5714562E+000  0.1917077E+03  0.7818608E-02  0.1156930E+00
         21   -1    0    0  501  502  0.00000000000E+00  0.00000000000E+00  0.74941175402E+03  0.74941175402E+03  0.00000000000E+00 0.  1.
         21   -1    0    0  502  503 -0.00000000000E+00 -0.00000000000E+00 -0.62505024340E+02  0.62505024340E+02  0.00000000000E+00 0.  1.
          6    1    1    2  501    0 -0.73094047938E+02 -0.42721190005E+02  0.15503951106E+03  0.24655443599E+03  0.17200000000E+03 0.  1.
         -6    1    1    2    0  503  0.73094047938E+02  0.42721190005E+02  0.53186721862E+03  0.56536234237E+03  0.17200000000E+03 0.  1.
</event>
<event>
 4    1  0.5714562E+000  0.1966714E+03  0.7818608E-02  0.1152578E+00
         21   -1    0    0  503  502  0.00000000000E+00  0.00000000000E+00  0.15067412015E+03  0.15067412015E+03  0.00000000000E+00 0.  1.
         21   -1    0    0  501  503 -0.00000000000E+00 -0.00000000000E+00 -0.29184537159E+03  0.29184537159E+03  0.00000000000E+00 0. -1.
          6    1    1    2  501    0  0.40905914563E+02  0.86152965339E+02 -0.14735628116E+03  0.24575089192E+03  0.17200000000E+03 0. -1.
         -6    1    1    2    0  502 -0.40905914563E+02 -0.86152965339E+02  0.61850297249E+01  0.19676859982E+03  0.17200000000E+03 0.  1.
</event>
<event>
 4    1  0.5714562E+000  0.2807718E+03  0.7818608E-02  0.1095268E+00
         21   -1    0    0  501  502  0.00000000000E+00  0.00000000000E+00  0.13915061782E+03  0.13915061782E+03  0.00000000000E+00 0. -1.
         21   -1    0    0  502  503 -0.00000000000E+00 -0.00000000000E+00 -0.60712511816E+03  0.60712511816E+03  0.00000000000E+00 0.  1.
          6    1    1    2  501    0  0.79104911663E+02  0.20734329784E+03 -0.13749917600E+03  0.31263213784E+03  0.17200000000E+03 0. -1.
         -6    1    1    2    0  503 -0.79104911663E+02 -0.20734329784E+03 -0.33047532435E+03  0.43364359815E+03  0.17200000000E+03 0.  1.
</event>
<event>
 4    1  0.5714562E+000  0.4998602E+03  0.7818608E-02  0.1013815E+00
         21   -1    0    0  501  502  0.00000000000E+00  0.00000000000E+00  0.19919911667E+04  0.19919911667E+04  0.00000000000E+00 0. -1.
         21   -1    0    0  502  503 -0.00000000000E+00 -0.00000000000E+00 -0.20197165513E+03  0.20197165513E+03  0.00000000000E+00 0.  1.
          6    1    1    2  501    0  0.31807075144E+03 -0.34511915889E+03  0.15703088483E+04  0.16479472430E+04  0.17200000000E+03 0. -1.
         -6    1    1    2    0  503 -0.31807075144E+03  0.34511915889E+03  0.21971066331E+03  0.54601557883E+03  0.17200000000E+03 0.  1.
</event>
<event>
 4    1  0.5714562E+000  0.2016755E+03  0.7818608E-02  0.1148333E+00
         21   -1    0    0  503  502  0.00000000000E+00  0.00000000000E+00  0.56797650539E+03  0.56797650539E+03  0.00000000000E+00 0.  1.
         21   -1    0    0  501  503 -0.00000000000E+00 -0.00000000000E+00 -0.19037862572E+03  0.19037862572E+03  0.00000000000E+00 0.  1.
          6    1    1    2  501    0  0.10046584870E+03 -0.31553492904E+02 -0.11069202366E+03  0.23005593618E+03  0.17200000000E+03 0.  1.
         -6    1    1    2    0  502 -0.10046584870E+03  0.31553492904E+02  0.48828990333E+03  0.52829919493E+03  0.17200000000E+03 0.  1.
</event>
<event>
 4    1  0.5714562E+000  0.2517322E+03  0.7818608E-02  0.1112215E+00
         21   -1    0    0  503  502  0.00000000000E+00  0.00000000000E+00  0.96074446049E+03  0.96074446049E+03  0.00000000000E+00 0. -1.
         21   -1    0    0  501  503 -0.00000000000E+00 -0.00000000000E+00 -0.86109488372E+02  0.86109488372E+02  0.00000000000E+00 0.  1.
          6    1    1    2  501    0 -0.17446394020E+03 -0.57857026548E+02  0.18410764324E+03  0.31187293286E+03  0.17200000000E+03 0.  1.
         -6    1    1    2    0  502  0.17446394020E+03  0.57857026548E+02  0.69052732888E+03  0.73498101600E+03  0.17200000000E+03 0. -1.
</event>
<event>
 4    1  0.5714562E+000  0.2333159E+03  0.7818608E-02  0.1124327E+00
         21   -1    0    0  503  502  0.00000000000E+00  0.00000000000E+00  0.25913488921E+02  0.25913488921E+02  0.00000000000E+00 0.  1.
         21   -1    0    0  501  503 -0.00000000000E+00 -0.00000000000E+00 -0.31116035073E+04  0.31116035073E+04  0.00000000000E+00 0.  1.
          6    1    1    2  501    0 -0.60228694924E+02  0.14568744662E+03 -0.24370147398E+04  0.24481579135E+04  0.17200000000E+03 0.  1.
         -6    1    1    2    0  502  0.60228694924E+02 -0.14568744662E+03 -0.64867527864E+03  0.68935908271E+03  0.17200000000E+03 0.  1.
</event>
<event>
 4    1  0.5714562E+000  0.1949441E+03  0.7818608E-02  0.1154076E+00
         21   -1    0    0  503  502  0.00000000000E+00  0.00000000000E+00  0.71948277032E+02  0.71948277032E+02  0.00000000000E+00 0. -1.
         21   -1    0    0  501  503 -0.00000000000E+00 -0.00000000000E+00 -0.55330987704E+03  0.55330987704E+03  0.00000000000E+00 0.  1.
          6    1    1    2  501    0 -0.58699454121E+02  0.70523576901E+02 -0.30727753224E+03  0.36389927540E+03  0.17200000000E+03 0. -1.
         -6    1    1    2    0  502  0.58699454121E+02 -0.70523576901E+02 -0.17408406777E+03  0.26135887868E+03  0.17200000000E+03 0. -1.
</event>
<event>
 4    1  0.5714562E+000  0.2107400E+03  0.7818608E-02  0.1140981E+00
         21   -1    0    0  503  502  0.00000000000E+00  0.00000000000E+00  0.51536590883E+03  0.51536590883E+03  0.00000000000E+00 0. -1.
         21   -1    0    0  501  503 -0.00000000000E+00 -0.00000000000E+00 -0.25552087681E+03  0.25552087681E+03  0.00000000000E+00 0.  1.
          6    1    1    2  501    0 -0.68682202859E+02  0.10054896013E+03 -0.18386489629E+03  0.27967416481E+03  0.17200000000E+03 0.  1.
         -6    1    1    2    0  502  0.68682202859E+02 -0.10054896013E+03  0.44370992831E+03  0.49121262082E+03  0.17200000000E+03 0. -1.
</event>
<event>
 4    1  0.5714562E+000  0.2280669E+03  0.7818608E-02  0.1128008E+00
         21   -1    0    0  503  502  0.00000000000E+00  0.00000000000E+00  0.10218805708E+04  0.10218805708E+04  0.00000000000E+00 0.  1.
         21   -1    0    0  501  503 -0.00000000000E+00 -0.00000000000E+00 -0.72474926496E+02  0.72474926496E+02  0.00000000000E+00 0. -1.
          6    1    1    2  501    0 -0.93767383384E+02 -0.11678259464E+03  0.17616348782E+03  0.28818062225E+03  0.17200000000E+03 0. -1.
         -6    1    1    2    0  502  0.93767383384E+02  0.11678259464E+03  0.77324215646E+03  0.80617487503E+03  0.17200000000E+03 0. -1.
</event>
<event>
 4    1  0.5714562E+000  0.1859313E+03  0.7818608E-02  0.1162183E+00
         21   -1    0    0  501  502  0.00000000000E+00  0.00000000000E+00  0.70192869876E+02  0.70192869876E+02  0.00000000000E+00 0. -1.
         21   -1    0    0  502  503 -0.00000000000E+00 -0.00000000000E+00 -0.51122172893E+03  0.51122172893E+03  0.00000000000E+00 0.  1.
          6    1    1    2  501    0 -0.69448042400E+02 -0.12783784706E+02 -0.16489237517E+03  0.24851549476E+03  0.17200000000E+03 0. -1.
         -6    1    1    2    0  503  0.69448042400E+02  0.12783784706E+02 -0.27613648388E+03  0.33289910405E+03  0.17200000000E+03 0.  1.
</event>
<event>
 4    1  0.5714562E+000  0.1740966E+03  0.7818608E-02  0.1173642E+00
         21   -1    0    0  501  502  0.00000000000E+00  0.00000000000E+00  0.69748529760E+02  0.69748529760E+02  0.00000000000E+00 0. -1.
         21   -1    0    0  502  503 -0.00000000000E+00 -0.00000000000E+00 -0.69237120545E+03  0.69237120545E+03  0.00000000000E+00 0. -1.
          6    1    1    2  501    0  0.28416543594E+01  0.26787260964E+02 -0.78781818028E+02  0.19109214322E+03  0.17200000000E+03 0. -1.
         -6    1    1    2    0  503 -0.28416543594E+01 -0.26787260964E+02 -0.54384085767E+03  0.57102759199E+03  0.17200000000E+03 0. -1.
</event>
<event>
 4    1  0.5714562E+000  0.3183542E+03  0.7818608E-02  0.1076409E+00
         21   -1    0    0  503  502  0.00000000000E+00  0.00000000000E+00  0.26393470270E+03  0.26393470270E+03  0.00000000000E+00 0.  1.
         21   -1    0    0  501  503 -0.00000000000E+00 -0.00000000000E+00 -0.41323214425E+03  0.41323214425E+03  0.00000000000E+00 0.  1.
          6    1    1    2  501    0 -0.21411785457E+03 -0.16099358299E+03 -0.16471085163E+03  0.35843974955E+03  0.17200000000E+03 0. -1.
         -6    1    1    2    0  502  0.21411785457E+03  0.16099358299E+03  0.15413410081E+02  0.31872709741E+03  0.17200000000E+03 0. -1.
</event>
<event>
 4    1  0.5714562E+000  0.2155008E+03  0.7818608E-02  0.1137283E+00
         21   -1    0    0  503  502  0.00000000000E+00  0.00000000000E+00  0.13554940348E+04  0.13554940348E+04  0.00000000000E+00 0.  1.
         21   -1    0    0  501  503 -0.00000000000E+00 -0.00000000000E+00 -0.56066719165E+02  0.56066719165E+02  0.00000000000E+00 0.  1.
          6    1    1    2  501    0 -0.10047985420E+03 -0.82221629327E+02  0.20956225011E+03  0.30059430151E+03  0.17200000000E+03 0. -1.
         -6    1    1    2    0  502  0.10047985420E+03  0.82221629327E+02  0.10898650655E+04  0.11109664525E+04  0.17200000000E+03 0. -1.
</event>
<event>
 4    1  0.5714562E+000  0.2736799E+03  0.7818608E-02  0.1099192E+00
         21   -1    0    0  501  502  0.00000000000E+00  0.00000000000E+00  0.26252075581E+03  0.26252075581E+03  0.00000000000E+00 0.  1.
         21   -1    0    0  502  503 -0.00000000000E+00 -0.00000000000E+00 -0.29248037915E+03  0.29248037915E+03  0.00000000000E+00 0.  1.
          6    1    1    2  501    0 -0.76567378111E+02  0.19863060260E+03 -0.58419299973E+02  0.27984548288E+03  0.17200000000E+03 0.  1.
         -6    1    1    2    0  503  0.76567378111E+02 -0.19863060260E+03  0.28459676638E+02  0.27515565208E+03  0.17200000000E+03 0.  1.
</event>
<event>
 4    1  0.5714562E+000  0.1874991E+03  0.7818608E-02  0.1160736E+00
         21   -1    0    0  503  502  0.00000000000E+00  0.00000000000E+00  0.35463606107E+03  0.35463606107E+03  0.00000000000E+00 0.  1.
         21   -1    0    0  501  503 -0.00000000000E+00 -0.00000000000E+00 -0.10500914706E+04  0.10500914706E+04  0.00000000000E+00 0.  1.
          6    1    1    2  501    0  0.73060065203E+02  0.15302049566E+02 -0.10161169367E+04  0.10332712881E+04  0.17200000000E+03 0.  1.
         -6    1    1    2    0  502 -0.73060065203E+02 -0.15302049566E+02  0.32066152717E+03  0.37145624353E+03  0.17200000000E+03 0.  1.
</event>
<event>
 4    1  0.5714562E+000  0.1812002E+03  0.7818608E-02  0.1166647E+00
         21   -1    0    0  501  502  0.00000000000E+00  0.00000000000E+00  0.19161654930E+03  0.19161654930E+03  0.00000000000E+00 0.  1.
         21   -1    0    0  502  503 -0.00000000000E+00 -0.00000000000E+00 -0.21864708552E+03  0.21864708552E+03  0.00000000000E+00 0.  1.
          6    1    1    2  501    0  0.56395175154E+02 -0.83122442070E+01  0.81891250532E+02  0.19884588529E+03  0.17200000000E+03 0.  1.
         -6    1    1    2    0  503 -0.56395175154E+02  0.83122442070E+01 -0.10892178675E+03  0.21141774952E+03  0.17200000000E+03 0.  1.
</event>
<event>
 4    1  0.5714562E+000  0.2020483E+03  0.7818608E-02  0.1148022E+00
         21   -1    0    0  503  502  0.00000000000E+00  0.00000000000E+00  0.18893236175E+03  0.18893236175E+03  0.00000000000E+00 0.  1.
         21   -1    0    0  501  503 -0.00000000000E+00 -0.00000000000E+00 -0.48001070568E+03  0.48001070568E+03  0.00000000000E+00 0. -1.
          6    1    1    2  501    0  0.10570851310E+03  0.80766425526E+01 -0.39355702244E+03  0.44239196625E+03  0.17200000000E+03 0. -1.
         -6    1    1    2    0  502 -0.10570851310E+03 -0.80766425526E+01  0.10247867851E+03  0.22655110118E+03  0.17200000000E+03 0.  1.
</event>
<event>
 4    1  0.5714562E+000  0.1840057E+03  0.7818608E-02  0.1163982E+00
         21   -1    0    0  503  502  0.00000000000E+00  0.00000000000E+00  0.58741391066E+03  0.58741391066E+03  0.00000000000E+00 0.  1.
         21   -1    0    0  501  503 -0.00000000000E+00 -0.00000000000E+00 -0.10348781301E+03  0.10348781301E+03  0.00000000000E+00 0.  1.
          6    1    1    2  501    0 -0.63469176354E+02  0.15676334418E+02  0.12028278978E+02  0.18439838205E+03  0.17200000000E+03 0.  1.
         -6    1    1    2    0  502  0.63469176354E+02 -0.15676334418E+02  0.47189781867E+03  0.50650334162E+03  0.17200000000E+03 0.  1.
</event>
<event>
 4    1  0.5714562E+000  0.1900677E+03  0.7818608E-02  0.1158400E+00
         21   -1    0    0  501  502  0.00000000000E+00  0.00000000000E+00  0.23946469883E+03  0.23946469883E+03  0.00000000000E+00 0.  1.
         21   -1    0    0  502  503 -0.00000000000E+00 -0.00000000000E+00 -0.17524596431E+03  0.17524596431E+03  0.00000000000E+00 0.  1.
          6    1    1    2  501    0 -0.72085015214E+02 -0.36680952852E+02  0.10945887322E+03  0.21933304960E+03  0.17200000000E+03 0.  1.
         -6    1    1    2    0  503  0.72085015214E+02  0.36680952852E+02 -0.45240138711E+02  0.19537761354E+03  0.17200000000E+03 0.  1.
</event>
<event>
 4    1  0.5714562E+000  0.2244224E+03  0.7818608E-02  0.1130628E+00
         21   -1    0    0  501  502  0.00000000000E+00  0.00000000000E+00  0.58973179148E+03  0.58973179148E+03  0.00000000000E+00 0.  1.
         21   -1    0    0  502  503 -0.00000000000E+00 -0.00000000000E+00 -0.12545237313E+03  0.12545237313E+03  0.00000000000E+00 0. -1.
          6    1    1    2  501    0 -0.47865875942E+02 -0.13597895266E+03  0.43418150799E+03  0.48875249312E+03  0.17200000000E+03 0.  1.
         -6    1    1    2    0  503  0.47865875942E+02  0.13597895266E+03  0.30097910364E+02  0.22643167149E+03  0.17200000000E+03 0. -1.
</event>
<event>
 4    1  0.5714562E+000  0.2418615E+03  0.7818608E-02  0.1118559E+00
         21   -1    0    0  503  502  0.00000000000E+00  0.00000000000E+00  0.83181269128E+02  0.83181269128E+02  0.00000000000E+00 0. -1.
         21   -1    0    0  501  503 -0.00000000000E+00 -0.00000000000E+00 -0.70576745290E+03  0.70576745290E+03  0.00000000000E+00 0.  1.
          6    1    1    2  501    0 -0.84022229318E+02  0.14782849848E+03 -0.33486552767E+03  0.41307616925E+03  0.17200000000E+03 0. -1.
         -6    1    1    2    0  502  0.84022229318E+02 -0.14782849848E+03 -0.28772065610E+03  0.37587255277E+03  0.17200000000E+03 0.  1.
</event>
<event>
 4    1  0.5714562E+000  0.2007543E+03  0.7818608E-02  0.1149104E+00
         21   -1    0    0  503  502  0.00000000000E+00  0.00000000000E+00  0.90020460912E+03  0.90020460912E+03  0.00000000000E+00 0.  1.
         21   -1    0    0  501  503 -0.00000000000E+00 -0.00000000000E+00 -0.49247321331E+02  0.49247321331E+02  0.00000000000E+00 0.  1.
          6    1    1    2  501    0 -0.10351637409E+03 -0.16215086818E+01  0.28234063944E+03  0.34643687113E+03  0.17200000000E+03 0.  1.
         -6    1    1    2    0  502  0.10351637409E+03  0.16215086818E+01  0.56861664834E+03  0.60301505932E+03  0.17200000000E+03 0.  1.
</event>
<event>
 4    1  0.5714562E+000  0.1845409E+03  0.7818608E-02  0.1163479E+00
         21   -1    0    0  501  502  0.00000000000E+00  0.00000000000E+00  0.15897179707E+03  0.15897179707E+03  0.00000000000E+00 0. -1.
         21   -1    0    0  502  503 -0.00000000000E+00 -0.00000000000E+00 -0.26569575594E+03  0.26569575594E+03  0.00000000000E+00 0. -1.
          6    1    1    2  501    0 -0.44107348404E+02 -0.50258258003E+02  0.40096175015E+02  0.18884664130E+03  0.17200000000E+03 0. -1.
         -6    1    1    2    0  503  0.44107348404E+02  0.50258258003E+02 -0.14682013389E+03  0.23582091170E+03  0.17200000000E+03 0. -1.
</event>
<event>
 4    1  0.5714562E+000  0.2291395E+03  0.7818608E-02  0.1127247E+00
         21   -1    0    0  501  502  0.00000000000E+00  0.00000000000E+00  0.63300843553E+03  0.63300843553E+03  0.00000000000E+00 0.  1.
         21   -1    0    0  502  503 -0.00000000000E+00 -0.00000000000E+00 -0.87975639209E+02  0.87975639209E+02  0.00000000000E+00 0.  1.
          6    1    1    2  501    0  0.38794400221E+02  0.14634178818E+03  0.35871958757E+03  0.42565792247E+03  0.17200000000E+03 0.  1.
         -6    1    1    2    0  503 -0.38794400221E+02 -0.14634178818E+03  0.18631320875E+03  0.29532615226E+03  0.17200000000E+03 0.  1.
</event>
<event>
 4    1  0.5714562E+000  0.1858650E+03  0.7818608E-02  0.1162245E+00
         21   -1    0    0  503  502  0.00000000000E+00  0.00000000000E+00  0.88454183264E+02  0.88454183264E+02  0.00000000000E+00 0. -1.
         21   -1    0    0  501  503 -0.00000000000E+00 -0.00000000000E+00 -0.62912386384E+03  0.62912386384E+03  0.00000000000E+00 0. -1.
          6    1    1    2  501    0 -0.35920028484E+02 -0.60593327662E+02 -0.49127889006E+03  0.52526255113E+03  0.17200000000E+03 0.  1.
         -6    1    1    2    0  502  0.35920028484E+02  0.60593327662E+02 -0.49390790518E+02  0.19231549597E+03  0.17200000000E+03 0.  1.
</event>
<event>
 4    1  0.5714562E+000  0.1874374E+03  0.7818608E-02  0.1160793E+00
         21   -1    0    0  503  502  0.00000000000E+00  0.00000000000E+00  0.14660235363E+03  0.14660235363E+03  0.00000000000E+00 0.  1.
         21   -1    0    0  501  503 -0.00000000000E+00 -0.00000000000E+00 -0.24960564118E+03  0.24960564118E+03  0.00000000000E+00 0.  1.
          6    1    1    2  501    0  0.66122582785E+02 -0.34301514812E+02 -0.91071976993E+02  0.20839120631E+03  0.17200000000E+03 0.  1.
         -6    1    1    2    0  502 -0.66122582785E+02  0.34301514812E+02 -0.11931310554E+02  0.18781678850E+03  0.17200000000E+03 0.  1.
</event>
<event>
 4    1  0.5714562E+000  0.1836300E+03  0.7818608E-02  0.1164335E+00
         21   -1    0    0  503  502  0.00000000000E+00  0.00000000000E+00  0.17497730076E+03  0.17497730076E+03  0.00000000000E+00 0. -1.
         21   -1    0    0  501  503 -0.00000000000E+00 -0.00000000000E+00 -0.25502420006E+03  0.25502420006E+03  0.00000000000E+00 0. -1.
          6    1    1    2  501    0 -0.40391284784E+02  0.50045316710E+02 -0.14630075169E+03  0.23478479413E+03  0.17200000000E+03 0. -1.
         -6    1    1    2    0  502  0.40391284784E+02 -0.50045316710E+02  0.66253852393E+02  0.19521670668E+03  0.17200000000E+03 0. -1.
</event>
<event>
 4    1  0.5714562E+000  0.2262068E+03  0.7818608E-02  0.1129338E+00
         21   -1    0    0  501  502  0.00000000000E+00  0.00000000000E+00  0.26762953147E+03  0.26762953147E+03  0.00000000000E+00 0. -1.
         21   -1    0    0  502  503 -0.00000000000E+00 -0.00000000000E+00 -0.12189668005E+04  0.12189668005E+04  0.00000000000E+00 0.  1.
          6    1    1    2  501    0  0.14691231221E+03  0.15066283284E+01  0.20685141986E+03  0.30652407296E+03  0.17200000000E+03 0. -1.
         -6    1    1    2    0  503 -0.14691231221E+03 -0.15066283284E+01 -0.11581886889E+04  0.11800722590E+04  0.17200000000E+03 0.  1.
</event>
<event>
 4    1  0.5714562E+000  0.2711083E+03  0.7818608E-02  0.1100647E+00
         21   -1    0    0  503  502  0.00000000000E+00  0.00000000000E+00  0.61724982991E+03  0.61724982991E+03  0.00000000000E+00 0.  1.
         21   -1    0    0  501  503 -0.00000000000E+00 -0.00000000000E+00 -0.29890505996E+03  0.29890505996E+03  0.00000000000E+00 0. -1.
          6    1    1    2  501    0 -0.11638971964E+03  0.17426746060E+03 -0.19613322707E+03  0.33461613443E+03  0.17200000000E+03 0. -1.
         -6    1    1    2    0  502  0.11638971964E+03 -0.17426746060E+03  0.51447799702E+03  0.58153875544E+03  0.17200000000E+03 0.  1.
</event>
<event>
 4    1  0.5714562E+000  0.2016664E+03  0.7818608E-02  0.1148341E+00
         21   -1    0    0  503  502  0.00000000000E+00  0.00000000000E+00  0.91677073049E+02  0.91677073049E+02  0.00000000000E+00 0.  1.
         21   -1    0    0  501  503 -0.00000000000E+00 -0.00000000000E+00 -0.48131163132E+03  0.48131163132E+03  0.00000000000E+00 0. -1.
          6    1    1    2  501    0 -0.50506055353E+02  0.92382241892E+02 -0.27499490359E+03  0.34101545016E+03  0.17200000000E+03 0. -1.
         -6    1    1    2    0  502  0.50506055353E+02 -0.92382241892E+02 -0.11463965468E+03  0.23197325421E+03  0.17200000000E+03 0.  1.
</event>
<event>
 4    1  0.5714562E+000  0.2010315E+03  0.7818608E-02  0.1148872E+00
         21   -1    0    0  503  502  0.00000000000E+00  0.00000000000E+00  0.23634073814E+03  0.23634073814E+03  0.00000000000E+00 0.  1.
         21   -1    0    0  501  503 -0.00000000000E+00 -0.00000000000E+00 -0.27810003477E+03  0.27810003477E+03  0.00000000000E+00 0.  1.
          6    1    1    2  501    0 -0.71850628105E+02  0.75280482404E+02 -0.18050609225E+03  0.27017792865E+03  0.17200000000E+03 0.  1.
         -6    1    1    2    0  502  0.71850628105E+02 -0.75280482404E+02  0.13874679562E+03  0.24426284426E+03  0.17200000000E+03 0.  1.
</event>
<event>
 4    1  0.5714562E+000  0.2080071E+03  0.7818608E-02  0.1143154E+00
         21   -1    0    0  503  502  0.00000000000E+00  0.00000000000E+00  0.40145331787E+03  0.40145331787E+03  0.00000000000E+00 0.  1.
         21   -1    0    0  501  503 -0.00000000000E+00 -0.00000000000E+00 -0.12893858334E+03  0.12893858334E+03  0.00000000000E+00 0.  1.
          6    1    1    2  501    0  0.95155839000E+02  0.68031674549E+02  0.28818334193E+02  0.20999390187E+03  0.17200000000E+03 0.  1.
         -6    1    1    2    0  502 -0.95155839000E+02 -0.68031674549E+02  0.24369640034E+03  0.32039799933E+03  0.17200000000E+03 0.  1.
</event>
<event>
 4    1  0.5714562E+000  0.2130752E+03  0.7818608E-02  0.1139154E+00
         21   -1    0    0  503  502  0.00000000000E+00  0.00000000000E+00  0.14985776863E+03  0.14985776863E+03  0.00000000000E+00 0.  1.
         21   -1    0    0  501  503 -0.00000000000E+00 -0.00000000000E+00 -0.46409272931E+03  0.46409272931E+03  0.00000000000E+00 0. -1.
          6    1    1    2  501    0  0.68194569367E+02  0.10567187875E+03 -0.33799793443E+03  0.39955431287E+03  0.17200000000E+03 0. -1.
         -6    1    1    2    0  502 -0.68194569367E+02 -0.10567187875E+03  0.23762973751E+02  0.21439618507E+03  0.17200000000E+03 0.  1.
</event>
<event>
 4    1  0.5714562E+000  0.1816025E+03  0.7818608E-02  0.1166261E+00
         21   -1    0    0  503  502  0.00000000000E+00  0.00000000000E+00  0.38325992987E+03  0.38325992987E+03  0.00000000000E+00 0. -1.
         21   -1    0    0  501  503 -0.00000000000E+00 -0.00000000000E+00 -0.14928271171E+03  0.14928271171E+03  0.00000000000E+00 0. -1.
          6    1    1    2  501    0  0.49552440759E+02 -0.30659845885E+02  0.29028557303E+03  0.34241084160E+03  0.17200000000E+03 0. -1.
         -6    1    1    2    0  502 -0.49552440759E+02  0.30659845885E+02 -0.56308354880E+02  0.19013179998E+03  0.17200000000E+03 0. -1.
</event>
<event>
 4    1  0.5714562E+000  0.2740098E+03  0.7818608E-02  0.1099006E+00
         21   -1    0    0  501  502  0.00000000000E+00  0.00000000000E+00  0.49253491080E+03  0.49253491080E+03  0.00000000000E+00 0. -1.
         21   -1    0    0  502  503 -0.00000000000E+00 -0.00000000000E+00 -0.21772316022E+03  0.21772316022E+03  0.00000000000E+00 0. -1.
          6    1    1    2  501    0 -0.16741413316E+03  0.13217363916E+03  0.33186973523E+03  0.43037063565E+03  0.17200000000E+03 0. -1.
         -6    1    1    2    0  503  0.16741413316E+03 -0.13217363916E+03 -0.57057984653E+02  0.27988743538E+03  0.17200000000E+03 0. -1.
</event>
<event>
 4    1  0.5714562E+000  0.1782095E+03  0.7818608E-02  0.1169547E+00
         21   -1    0    0  503  502  0.00000000000E+00  0.00000000000E+00  0.33691710756E+04  0.33691710756E+04  0.00000000000E+00 0.  1.
         21   -1    0    0  501  503 -0.00000000000E+00 -0.00000000000E+00 -0.12300361381E+02  0.12300361381E+02  0.00000000000E+00 0.  1.
          6    1    1    2  501    0  0.31984218662E+02  0.33935786347E+02  0.86115876463E+03  0.87940493843E+03  0.17200000000E+03 0.  1.
         -6    1    1    2    0  502 -0.31984218662E+02 -0.33935786347E+02  0.24957119496E+04  0.25020664986E+04  0.17200000000E+03 0.  1.
</event>
<event>
 4    1  0.5714562E+000  0.2042113E+03  0.7818608E-02  0.1146234E+00
         21   -1    0    0  501  502  0.00000000000E+00  0.00000000000E+00  0.24914348651E+03  0.24914348651E+03  0.00000000000E+00 0.  1.
         21   -1    0    0  502  503 -0.00000000000E+00 -0.00000000000E+00 -0.21744988060E+03  0.21744988060E+03  0.00000000000E+00 0.  1.
          6    1    1    2  501    0 -0.82457429599E+02  0.72931594057E+02  0.12779230968E+03  0.24090064243E+03  0.17200000000E+03 0.  1.
         -6    1    1    2    0  503  0.82457429599E+02 -0.72931594057E+02 -0.96098703774E+02  0.22569272468E+03  0.17200000000E+03 0.  1.
</event>
<event>
 4    1  0.5714562E+000  0.2883022E+03  0.7818608E-02  0.1091239E+00
         21   -1    0    0  501  502  0.00000000000E+00  0.00000000000E+00  0.30284824700E+03  0.30284824700E+03  0.00000000000E+00 0. -1.
         21   -1    0    0  502  503 -0.00000000000E+00 -0.00000000000E+00 -0.34512044903E+03  0.34512044903E+03  0.00000000000E+00 0.  1.
          6    1    1    2  501    0  0.19647689034E+03 -0.12219242867E+03  0.12546688926E+03  0.31442025756E+03  0.17200000000E+03 0.  1.
         -6    1    1    2    0  503 -0.19647689034E+03  0.12219242867E+03 -0.16773909129E+03  0.33354843848E+03  0.17200000000E+03 0.  1.
</event>
<event>
 4    1  0.5714562E+000  0.2460983E+03  0.7818608E-02  0.1115796E+00
         21   -1    0    0  503  502  0.00000000000E+00  0.00000000000E+00  0.16959086270E+03  0.16959086270E+03  0.00000000000E+00 0. -1.
         21   -1    0    0  501  503 -0.00000000000E+00 -0.00000000000E+00 -0.45672324983E+03  0.45672324983E+03  0.00000000000E+00 0. -1.
          6    1    1    2  501    0 -0.53986673158E+01  0.17592964834E+03 -0.28980786356E+03  0.38020124218E+03  0.17200000000E+03 0. -1.
         -6    1    1    2    0  502  0.53986673158E+01 -0.17592964834E+03  0.26754764350E+01  0.24611287034E+03  0.17200000000E+03 0. -1.
</event>
<event>
 4    1  0.5714562E+000  0.3107512E+03  0.7818608E-02  0.1079986E+00
         21   -1    0    0  503  502  0.00000000000E+00  0.00000000000E+00  0.22410413085E+03  0.22410413085E+03  0.00000000000E+00 0. -1.
         21   -1    0    0  501  503 -0.00000000000E+00 -0.00000000000E+00 -0.49918973782E+03  0.49918973782E+03  0.00000000000E+00 0.  1.
          6    1    1    2  501    0 -0.13040395766E+03 -0.22355558839E+03 -0.27130463098E+03  0.41251969173E+03  0.17200000000E+03 0. -1.
         -6    1    1    2    0  502  0.13040395766E+03  0.22355558839E+03 -0.37809759888E+01  0.31077417694E+03  0.17200000000E+03 0.  1.
</event>
<event>
 4    1  0.5714562E+000  0.1812158E+03  0.7818608E-02  0.1166632E+00
         21   -1    0    0  503  502  0.00000000000E+00  0.00000000000E+00  0.15030795480E+04  0.15030795480E+04  0.00000000000E+00 0. -1.
         21   -1    0    0  501  503 -0.00000000000E+00 -0.00000000000E+00 -0.21897016671E+02  0.21897016671E+02  0.00000000000E+00 0. -1.
          6    1    1    2  501    0  0.43267882539E+02 -0.37189312841E+02  0.70448458887E+03  0.72741851132E+03  0.17200000000E+03 0. -1.
         -6    1    1    2    0  502 -0.43267882539E+02  0.37189312841E+02  0.77669794241E+03  0.79755805331E+03  0.17200000000E+03 0. -1.
</event>
<event>
 4    1  0.5714562E+000  0.3596453E+03  0.7818608E-02  0.1058724E+00
         21   -1    0    0  501  502  0.00000000000E+00  0.00000000000E+00  0.47353113939E+03  0.47353113939E+03  0.00000000000E+00 0. -1.
         21   -1    0    0  502  503 -0.00000000000E+00 -0.00000000000E+00 -0.47228813476E+03  0.47228813476E+03  0.00000000000E+00 0.  1.
          6    1    1    2  501    0 -0.31576462961E+03 -0.73111812142E+01  0.30770218675E+03  0.47331320541E+03  0.17200000000E+03 0. -1.
         -6    1    1    2    0  503  0.31576462961E+03  0.73111812142E+01 -0.30645918212E+03  0.47250606873E+03  0.17200000000E+03 0.  1.
</event>
<event>
 4    1  0.5714562E+000  0.2601014E+03  0.7818608E-02  0.1107082E+00
         21   -1    0    0  501  502  0.00000000000E+00  0.00000000000E+00  0.93982796339E+02  0.93982796339E+02  0.00000000000E+00 0. -1.
         21   -1    0    0  502  503 -0.00000000000E+00 -0.00000000000E+00 -0.86657129684E+03  0.86657129684E+03  0.00000000000E+00 0. -1.
          6    1    1    2  501    0 -0.89788804630E+02 -0.17322441296E+03 -0.18866615338E+03  0.32132171435E+03  0.17200000000E+03 0. -1.
         -6    1    1    2    0  503  0.89788804630E+02  0.17322441296E+03 -0.58392234712E+03  0.63923237883E+03  0.17200000000E+03 0. -1.
</event>
<event>
 4    1  0.5714562E+000  0.1807233E+03  0.7818608E-02  0.1167105E+00
         21   -1    0    0  503  502  0.00000000000E+00  0.00000000000E+00  0.88232122395E+02  0.88232122395E+02  0.00000000000E+00 0.  1.
         21   -1    0    0  501  503 -0.00000000000E+00 -0.00000000000E+00 -0.37205110093E+03  0.37205110093E+03  0.00000000000E+00 0. -1.
          6    1    1    2  501    0 -0.54047219068E+02 -0.12481804674E+02 -0.15827326165E+03  0.24023181032E+03  0.17200000000E+03 0.  1.
         -6    1    1    2    0  502  0.54047219068E+02  0.12481804674E+02 -0.12554571688E+03  0.22005141300E+03  0.17200000000E+03 0.  1.
</event>
<event>
 4    1  0.5714562E+000  0.2022376E+03  0.7818608E-02  0.1147865E+00
         21   -1    0    0  501  502  0.00000000000E+00  0.00000000000E+00  0.20370016105E+03  0.20370016105E+03  0.00000000000E+00 0.  1.
         21   -1    0    0  502  503 -0.00000000000E+00 -0.00000000000E+00 -0.23820580863E+03  0.23820580863E+03  0.00000000000E+00 0.  1.
          6    1    1    2  501    0  0.24694962722E+02 -0.10347086829E+03  0.70321486192E+02  0.21411485980E+03  0.17200000000E+03 0.  1.
         -6    1    1    2    0  503 -0.24694962722E+02  0.10347086829E+03 -0.10482713377E+03  0.22779110989E+03  0.17200000000E+03 0.  1.
</event>
<event>
 4    1  0.5714562E+000  0.2216921E+03  0.7818608E-02  0.1132628E+00
         21   -1    0    0  503  502  0.00000000000E+00  0.00000000000E+00  0.73289128228E+03  0.73289128228E+03  0.00000000000E+00 0. -1.
         21   -1    0    0  501  503 -0.00000000000E+00 -0.00000000000E+00 -0.12878376255E+03  0.12878376255E+03  0.00000000000E+00 0. -1.
          6    1    1    2  501    0 -0.29824276025E+02 -0.13665242173E+03  0.37829966227E+01  0.22172433982E+03  0.17200000000E+03 0. -1.
         -6    1    1    2    0  502  0.29824276025E+02  0.13665242173E+03  0.60032452311E+03  0.63995070502E+03  0.17200000000E+03 0. -1.
</event>
<event>
 4    1  0.5714562E+000  0.2184861E+03  0.7818608E-02  0.1135017E+00
         21   -1    0    0  503  502  0.00000000000E+00  0.00000000000E+00  0.51364845399E+03  0.51364845399E+03  0.00000000000E+00 0.  1.
         21   -1    0    0  501  503 -0.00000000000E+00 -0.00000000000E+00 -0.10122840938E+03  0.10122840938E+03  0.00000000000E+00 0.  1.
          6    1    1    2  501    0 -0.62872590026E+02 -0.11916043799E+03  0.11821449873E+03  0.24841666665E+03  0.17200000000E+03 0. -1.
         -6    1    1    2    0  502  0.62872590026E+02  0.11916043799E+03  0.29420554588E+03  0.36646019673E+03  0.17200000000E+03 0. -1.
</event>
<event>
 4    1  0.5714562E+000  0.1786304E+03  0.7818608E-02  0.1169135E+00
         21   -1    0    0  503  502  0.00000000000E+00  0.00000000000E+00  0.32159767860E+03  0.32159767860E+03  0.00000000000E+00 0.  1.
         21   -1    0    0  501  503 -0.00000000000E+00 -0.00000000000E+00 -0.13797689059E+03  0.13797689059E+03  0.00000000000E+00 0.  1.
          6    1    1    2  501    0  0.18706600159E+02  0.44439463933E+02 -0.29976162182E+02  0.18112805731E+03  0.17200000000E+03 0.  1.
         -6    1    1    2    0  502 -0.18706600159E+02 -0.44439463933E+02  0.21359695019E+03  0.27844651188E+03  0.17200000000E+03 0.  1.
</event>
<event>
 4    1  0.5714562E+000  0.1855066E+03  0.7818608E-02  0.1162578E+00
         21   -1    0    0  503  502  0.00000000000E+00  0.00000000000E+00  0.69676137198E+02  0.69676137198E+02  0.00000000000E+00 0. -1.
         21   -1    0    0  501  503 -0.00000000000E+00 -0.00000000000E+00 -0.50449942938E+03  0.50449942938E+03  0.00000000000E+00 0. -1.
          6    1    1    2  501    0  0.38805759436E+02  0.57643927721E+02 -0.25903375021E+03  0.31860821257E+03  0.17200000000E+03 0. -1.
         -6    1    1    2    0  502 -0.38805759436E+02 -0.57643927721E+02 -0.17578954197E+03  0.25556735401E+03  0.17200000000E+03 0. -1.
</event>
<event>
 4    1  0.5714562E+000  0.1879215E+03  0.7818608E-02  0.1160349E+00
         21   -1    0    0  501  502  0.00000000000E+00  0.00000000000E+00  0.19430400632E+04  0.19430400632E+04  0.00000000000E+00 0. -1.
         21   -1    0    0  502  503 -0.00000000000E+00 -0.00000000000E+00 -0.64958240912E+02  0.64958240912E+02  0.00000000000E+00 0. -1.
          6    1    1    2  501    0 -0.52849782178E+02  0.54197678393E+02  0.17910848752E+04  0.18009162995E+04  0.17200000000E+03 0. -1.
         -6    1    1    2    0  503  0.52849782178E+02 -0.54197678393E+02  0.86996947128E+02  0.20708200460E+03  0.17200000000E+03 0. -1.
</event>
<event>
 4    1  0.5714562E+000  0.1894978E+03  0.7818608E-02  0.1158915E+00
         21   -1    0    0  503  502  0.00000000000E+00  0.00000000000E+00  0.60243415169E+03  0.60243415169E+03  0.00000000000E+00 0.  1.
         21   -1    0    0  501  503 -0.00000000000E+00 -0.00000000000E+00 -0.62256818020E+02  0.62256818020E+02  0.00000000000E+00 0. -1.
          6    1    1    2  501    0  0.45325103156E+02  0.65353409397E+02  0.33865094172E+03  0.38806429032E+03  0.17200000000E+03 0.  1.
         -6    1    1    2    0  502 -0.45325103156E+02 -0.65353409397E+02  0.20152639195E+03  0.27662667939E+03  0.17200000000E+03 0. -1.
</event>
<event>
 4    1  0.5714562E+000  0.2339983E+03  0.7818608E-02  0.1123857E+00
         21   -1    0    0  501  502  0.00000000000E+00  0.00000000000E+00  0.46917406805E+03  0.46917406805E+03  0.00000000000E+00 0. -1.
         21   -1    0    0  502  503 -0.00000000000E+00 -0.00000000000E+00 -0.11860107253E+03  0.11860107253E+03  0.00000000000E+00 0.  1.
          6    1    1    2  501    0  0.15790407844E+03 -0.15411549688E+02  0.21244021866E+03  0.31604756028E+03  0.17200000000E+03 0.  1.
         -6    1    1    2    0  503 -0.15790407844E+03  0.15411549688E+02  0.13813277686E+03  0.27172758030E+03  0.17200000000E+03 0. -1.
</event>
<event>
 4    1  0.5714562E+000  0.1839472E+03  0.7818608E-02  0.1164037E+00
         21   -1    0    0  503  502  0.00000000000E+00  0.00000000000E+00  0.18958468843E+03  0.18958468843E+03  0.00000000000E+00 0.  1.
         21   -1    0    0  501  503 -0.00000000000E+00 -0.00000000000E+00 -0.17881376766E+03  0.17881376766E+03  0.00000000000E+00 0.  1.
          6    1    1    2  501    0  0.63862469052E+02 -0.13196984928E+02  0.13374930240E+02  0.18443281737E+03  0.17200000000E+03 0.  1.
         -6    1    1    2    0  502 -0.63862469052E+02  0.13196984928E+02 -0.26040094757E+01  0.18396563872E+03  0.17200000000E+03 0.  1.
</event>
<event>
 4    1  0.5714562E+000  0.1962133E+03  0.7818608E-02  0.1152974E+00
         21   -1    0    0  503  502  0.00000000000E+00  0.00000000000E+00  0.12790233319E+03  0.12790233319E+03  0.00000000000E+00 0.  1.
         21   -1    0    0  501  503 -0.00000000000E+00 -0.00000000000E+00 -0.30109451865E+03  0.30109451865E+03  0.00000000000E+00 0.  1.
          6    1    1    2  501    0 -0.94098278233E+02  0.78213586275E+01 -0.82965669891E+02  0.21303277212E+03  0.17200000000E+03 0. -1.
         -6    1    1    2    0  502  0.94098278233E+02 -0.78213586275E+01 -0.90226515574E+02  0.21596407972E+03  0.17200000000E+03 0. -1.
</event>
<event>
 4    1  0.5714562E+000  0.1896093E+03  0.7818608E-02  0.1158814E+00
         21   -1    0    0  503  502  0.00000000000E+00  0.00000000000E+00  0.11013932863E+03  0.11013932863E+03  0.00000000000E+00 0.  1.
         21   -1    0    0  501  503 -0.00000000000E+00 -0.00000000000E+00 -0.88071449053E+03  0.88071449053E+03  0.00000000000E+00 0.  1.
          6    1    1    2  501    0 -0.17878435418E+02 -0.77769241312E+02 -0.77832351038E+03  0.80108625014E+03  0.17200000000E+03 0.  1.
         -6    1    1    2    0  502  0.17878435418E+02  0.77769241312E+02  0.77483484801E+01  0.18976756902E+03  0.17200000000E+03 0.  1.
</event>
<event>
 4    1  0.5714562E+000  0.1900006E+03  0.7818608E-02  0.1158461E+00
         21   -1    0    0  501  502  0.00000000000E+00  0.00000000000E+00  0.12944602763E+03  0.12944602763E+03  0.00000000000E+00 0. -1.
         21   -1    0    0  502  503 -0.00000000000E+00 -0.00000000000E+00 -0.49319277434E+03  0.49319277434E+03  0.00000000000E+00 0.  1.
          6    1    1    2  501    0 -0.16071570600E+02  0.79107153817E+02 -0.38709318641E+03  0.43120919764E+03  0.17200000000E+03 0. -1.
         -6    1    1    2    0  503  0.16071570600E+02 -0.79107153817E+02  0.23346439702E+02  0.19142960433E+03  0.17200000000E+03 0. -1.
</event>
<event>
 4    1  0.5714562E+000  0.2402736E+03  0.7818608E-02  0.1119611E+00
         21   -1    0    0  503  502  0.00000000000E+00  0.00000000000E+00  0.22313860302E+03  0.22313860302E+03  0.00000000000E+00 0. -1.
         21   -1    0    0  501  503 -0.00000000000E+00 -0.00000000000E+00 -0.27363633802E+03  0.27363633802E+03  0.00000000000E+00 0. -1.
          6    1    1    2  501    0 -0.54957626276E+02  0.15851511637E+03 -0.83233251057E+02  0.25428164874E+03  0.17200000000E+03 0.  1.
         -6    1    1    2    0  502  0.54957626276E+02 -0.15851511637E+03  0.32735516051E+02  0.24249329231E+03  0.17200000000E+03 0.  1.
</event>
<event>
 4    1  0.5714562E+000  0.1862123E+03  0.7818608E-02  0.1161923E+00
         21   -1    0    0  501  502  0.00000000000E+00  0.00000000000E+00  0.96408931270E+02  0.96408931270E+02  0.00000000000E+00 0. -1.
         21   -1    0    0  502  503 -0.00000000000E+00 -0.00000000000E+00 -0.36192802084E+03  0.36192802084E+03  0.00000000000E+00 0. -1.
          6    1    1    2  501    0 -0.69501044628E+01 -0.71012193154E+02 -0.15087592003E+03  0.23966346983E+03  0.17200000000E+03 0. -1.
         -6    1    1    2    0  503  0.69501044628E+01  0.71012193154E+02 -0.11464316955E+03  0.21867348228E+03  0.17200000000E+03 0. -1.
</event>
<event>
 4    1  0.5714562E+000  0.1844210E+03  0.7818608E-02  0.1163592E+00
         21   -1    0    0  503  502  0.00000000000E+00  0.00000000000E+00  0.15378916791E+03  0.15378916791E+03  0.00000000000E+00 0. -1.
         21   -1    0    0  501  503 -0.00000000000E+00 -0.00000000000E+00 -0.24993101839E+03  0.24993101839E+03  0.00000000000E+00 0. -1.
          6    1    1    2  501    0  0.52975007657E+02  0.40258443500E+02 -0.11656659038E+03  0.21817163817E+03  0.17200000000E+03 0. -1.
         -6    1    1    2    0  502 -0.52975007657E+02 -0.40258443500E+02  0.20424739904E+02  0.18554854812E+03  0.17200000000E+03 0. -1.
</event>
<event>
 4    1  0.5714562E+000  0.2156716E+03  0.7818608E-02  0.1137152E+00
         21   -1    0    0  501  502  0.00000000000E+00  0.00000000000E+00  0.53048303211E+02  0.53048303211E+02  0.00000000000E+00 0.  1.
         21   -1    0    0  502  503 -0.00000000000E+00 -0.00000000000E+00 -0.10341836608E+04  0.10341836608E+04  0.00000000000E+00 0.  1.
          6    1    1    2  501    0 -0.10016815748E+03  0.83045724933E+02 -0.27851967610E+03  0.35226050329E+03  0.17200000000E+03 0.  1.
         -6    1    1    2    0  503  0.10016815748E+03 -0.83045724933E+02 -0.70261568151E+03  0.73497146074E+03  0.17200000000E+03 0.  1.
</event>
<event>
 4    1  0.5714562E+000  0.1767836E+03  0.7818608E-02  0.1170953E+00
         21   -1    0    0  501  502  0.00000000000E+00  0.00000000000E+00  0.21030324094E+03  0.21030324094E+03  0.00000000000E+00 0.  1.
         21   -1    0    0  502  503 -0.00000000000E+00 -0.00000000000E+00 -0.19805103176E+03  0.19805103176E+03  0.00000000000E+00 0.  1.
          6    1    1    2  501    0  0.18621595791E+02 -0.36354671771E+02  0.10814432466E+03  0.20723807793E+03  0.17200000000E+03 0.  1.
         -6    1    1    2    0  503 -0.18621595791E+02  0.36354671771E+02 -0.95892115478E+02  0.20111619477E+03  0.17200000000E+03 0.  1.
</event>
<event>
 4    1  0.5714562E+000  0.2076271E+03  0.7818608E-02  0.1143459E+00
         21   -1    0    0  503  502  0.00000000000E+00  0.00000000000E+00  0.82480778838E+02  0.82480778838E+02  0.00000000000E+00 0.  1.
         21   -1    0    0  501  503 -0.00000000000E+00 -0.00000000000E+00 -0.87544701137E+03  0.87544701137E+03  0.00000000000E+00 0.  1.
          6    1    1    2  501    0  0.11417603917E+03  0.22110106443E+02 -0.70053448845E+03  0.73065559208E+03  0.17200000000E+03 0.  1.
         -6    1    1    2    0  502 -0.11417603917E+03 -0.22110106443E+02 -0.92431744080E+02  0.22727219813E+03  0.17200000000E+03 0.  1.
</event>
<event>
 4    1  0.5714562E+000  0.2035043E+03  0.7818608E-02  0.1146816E+00
         21   -1    0    0  501  502  0.00000000000E+00  0.00000000000E+00  0.10244542789E+04  0.10244542789E+04  0.00000000000E+00 0.  1.
         21   -1    0    0  502  503 -0.00000000000E+00 -0.00000000000E+00 -0.47292391921E+02  0.47292391921E+02  0.00000000000E+00 0.  1.
          6    1    1    2  501    0 -0.99811910125E+02 -0.43215492445E+02  0.69277781826E+03  0.72204923770E+03  0.17200000000E+03 0.  1.
         -6    1    1    2    0  503  0.99811910125E+02  0.43215492445E+02  0.28438406871E+03  0.34969743312E+03  0.17200000000E+03 0.  1.
</event>
