<event>
 4    1  0.4365842E+000  0.1828911E+03  0.7546771E-02  0.1165034E+00
         21   -1    0    0  503  502  0.00000000000E+00  0.00000000000E+00  0.67286493506E+02  0.67286493506E+02  0.00000000000E+00 0. -1.
         21   -1    0    0  501  503 -0.00000000000E+00 -0.00000000000E+00 -0.68023171213E+03  0.68023171213E+03  0.00000000000E+00 0. -1.
          6    1    1    2  501    0 -0.54430669131E+02  0.23610404985E+02 -0.11255068426E+03  0.21474823746E+03  0.17300000000E+03 0. -1.
         -6    1    1    2    0  502  0.54430669131E+02 -0.23610404985E+02 -0.50039453436E+03  0.53276996817E+03  0.17300000000E+03 0. -1.
<mgrwt>
<rscale>  2 0.18289108E+03</rscale>
<asrwt>0</asrwt>
<pdfrwt beam="1">  1       21 0.10351768E-01 0.18289108E+03</pdfrwt>
<pdfrwt beam="2">  1       21 0.10465103E+00 0.18289108E+03</pdfrwt>
<totfact> 0.56483905E+04</totfact>
</mgrwt>
</event>
<event>
 4    1  0.4365842E+000  0.1772861E+03  0.7546771E-02  0.1170456E+00
         21   -1    0    0  501  502  0.00000000000E+00  0.00000000000E+00  0.70166729538E+03  0.70166729538E+03  0.00000000000E+00 0.  1.
         21   -1    0    0  502  503 -0.00000000000E+00 -0.00000000000E+00 -0.98979222326E+02  0.98979222326E+02  0.00000000000E+00 0.  1.
          6    1    1    2  501    0 -0.25188272115E+01  0.38665503585E+02  0.59754053167E+03  0.62328569103E+03  0.17300000000E+03 0.  1.
         -6    1    1    2    0  503  0.25188272115E+01 -0.38665503585E+02  0.51475413896E+01  0.17736082668E+03  0.17300000000E+03 0.  1.
<mgrwt>
<rscale>  2 0.17728611E+03</rscale>
<asrwt>0</asrwt>
<pdfrwt beam="1">  1       21 0.10794881E+00 0.17728611E+03</pdfrwt>
<pdfrwt beam="2">  1       21 0.15227573E-01 0.17728611E+03</pdfrwt>
<totfact> 0.26325864E+04</totfact>
</mgrwt>
</event>
<event>
 4    1  0.4365842E+000  0.2216781E+03  0.7546771E-02  0.1132638E+00
         21   -1    0    0  503  502  0.00000000000E+00  0.00000000000E+00  0.77066901017E+03  0.77066901017E+03  0.00000000000E+00 0.  1.
         21   -1    0    0  501  503 -0.00000000000E+00 -0.00000000000E+00 -0.70549811134E+02  0.70549811134E+02  0.00000000000E+00 0. -1.
          6    1    1    2  501    0  0.97549887610E+02 -0.98469238844E+02  0.21961615012E+03  0.31204554950E+03  0.17300000000E+03 0.  1.
         -6    1    1    2    0  502 -0.97549887610E+02  0.98469238844E+02  0.48050304892E+03  0.52917327180E+03  0.17300000000E+03 0.  1.
<mgrwt>
<rscale>  2 0.22167808E+03</rscale>
<asrwt>0</asrwt>
<pdfrwt beam="1">  1       21 0.11856446E+00 0.22167808E+03</pdfrwt>
<pdfrwt beam="2">  1       21 0.10853818E-01 0.22167808E+03</pdfrwt>
<totfact> 0.37586023E+04</totfact>
</mgrwt>
</event>
<event>
 4    1  0.4365842E+000  0.1902790E+03  0.7546771E-02  0.1158210E+00
         21   -1    0    0  501  502  0.00000000000E+00  0.00000000000E+00  0.89286048862E+03  0.89286048862E+03  0.00000000000E+00 0. -1.
         21   -1    0    0  502  503 -0.00000000000E+00 -0.00000000000E+00 -0.40551289649E+02  0.40551289649E+02  0.00000000000E+00 0. -1.
          6    1    1    2  501    0 -0.57387045617E+02  0.54624303515E+02  0.42798471978E+03  0.46837699336E+03  0.17300000000E+03 0. -1.
         -6    1    1    2    0  503  0.57387045617E+02 -0.54624303515E+02  0.42432447919E+03  0.46503478492E+03  0.17300000000E+03 0. -1.
<mgrwt>
<rscale>  2 0.19027897E+03</rscale>
<asrwt>0</asrwt>
<pdfrwt beam="1">  1       21 0.13736314E+00 0.19027897E+03</pdfrwt>
<pdfrwt beam="2">  1       21 0.62386607E-02 0.19027897E+03</pdfrwt>
<totfact> 0.69393024E+04</totfact>
</mgrwt>
</event>
<event>
 4    1  0.4365842E+000  0.2090846E+03  0.7546771E-02  0.1142293E+00
         21   -1    0    0  501  502  0.00000000000E+00  0.00000000000E+00  0.59788461447E+02  0.59788461447E+02  0.00000000000E+00 0. -1.
         21   -1    0    0  502  503 -0.00000000000E+00 -0.00000000000E+00 -0.73120565186E+03  0.73120565186E+03  0.00000000000E+00 0.  1.
          6    1    1    2  501    0 -0.10050229216E+03 -0.60717755954E+02 -0.33354833997E+03  0.39366337360E+03  0.17300000000E+03 0. -1.
         -6    1    1    2    0  503  0.10050229216E+03  0.60717755954E+02 -0.33786885044E+03  0.39733073970E+03  0.17300000000E+03 0. -1.
<mgrwt>
<rscale>  2 0.20908457E+03</rscale>
<asrwt>0</asrwt>
<pdfrwt beam="1">  1       21 0.91982252E-02 0.20908457E+03</pdfrwt>
<pdfrwt beam="2">  1       21 0.11249317E+00 0.20908457E+03</pdfrwt>
<totfact> 0.57676138E+04</totfact>
</mgrwt>
</event>
<event>
 4    1  0.4365842E+000  0.1895658E+03  0.7546771E-02  0.1158854E+00
         21   -1    0    0  503  502  0.00000000000E+00  0.00000000000E+00  0.82109102317E+03  0.82109102317E+03  0.00000000000E+00 0.  1.
         21   -1    0    0  501  503 -0.00000000000E+00 -0.00000000000E+00 -0.44146387398E+02  0.44146387398E+02  0.00000000000E+00 0.  1.
          6    1    1    2  501    0  0.77365663715E+02 -0.45543875467E+01  0.34827066050E+03  0.39651940852E+03  0.17300000000E+03 0.  1.
         -6    1    1    2    0  502 -0.77365663715E+02  0.45543875467E+01  0.42867397527E+03  0.46871800205E+03  0.17300000000E+03 0.  1.
<mgrwt>
<rscale>  2 0.18956579E+03</rscale>
<asrwt>0</asrwt>
<pdfrwt beam="1">  1       21 0.12632168E+00 0.18956579E+03</pdfrwt>
<pdfrwt beam="2">  1       21 0.67917525E-02 0.18956579E+03</pdfrwt>
<totfact> 0.74150716E+04</totfact>
</mgrwt>
</event>
<event>
 4    1  0.4365842E+000  0.2172457E+03  0.7546771E-02  0.1135953E+00
         21   -1    0    0  503  502  0.00000000000E+00  0.00000000000E+00  0.43278099893E+03  0.43278099893E+03  0.00000000000E+00 0.  1.
         21   -1    0    0  501  503 -0.00000000000E+00 -0.00000000000E+00 -0.13098604552E+03  0.13098604552E+03  0.00000000000E+00 0.  1.
          6    1    1    2  501    0 -0.12954990709E+03 -0.21988918100E+02  0.35548105873E+02  0.22013486498E+03  0.17300000000E+03 0.  1.
         -6    1    1    2    0  502  0.12954990709E+03  0.21988918100E+02  0.26624684753E+03  0.34363217947E+03  0.17300000000E+03 0.  1.
<mgrwt>
<rscale>  2 0.21724569E+03</rscale>
<asrwt>0</asrwt>
<pdfrwt beam="1">  1       21 0.66581691E-01 0.21724569E+03</pdfrwt>
<pdfrwt beam="2">  1       21 0.20151700E-01 0.21724569E+03</pdfrwt>
<totfact> 0.46505891E+04</totfact>
</mgrwt>
</event>
<event>
 4    1  0.4365842E+000  0.1942919E+03  0.7546771E-02  0.1154646E+00
         21   -1    0    0  501  502  0.00000000000E+00  0.00000000000E+00  0.61077524760E+03  0.61077524760E+03  0.00000000000E+00 0. -1.
         21   -1    0    0  502  503 -0.00000000000E+00 -0.00000000000E+00 -0.17084522278E+03  0.17084522278E+03  0.00000000000E+00 0.  1.
          6    1    1    2  501    0 -0.88425853270E+02  0.11058802775E+01  0.53218205232E+03  0.56653957611E+03  0.17300000000E+03 0. -1.
         -6    1    1    2    0  503  0.88425853270E+02 -0.11058802775E+01 -0.92252027495E+02  0.21508089426E+03  0.17300000000E+03 0.  1.
<mgrwt>
<rscale>  2 0.19429193E+03</rscale>
<asrwt>0</asrwt>
<pdfrwt beam="1">  1       21 0.93965422E-01 0.19429193E+03</pdfrwt>
<pdfrwt beam="2">  1       21 0.26283881E-01 0.19429193E+03</pdfrwt>
<totfact> 0.13065506E+04</totfact>
</mgrwt>
</event>
<event>
 4    1  0.4365842E+000  0.1955751E+03  0.7546771E-02  0.1153527E+00
         21   -1    0    0  501  502  0.00000000000E+00  0.00000000000E+00  0.19673800528E+03  0.19673800528E+03  0.00000000000E+00 0.  1.
         21   -1    0    0  502  503 -0.00000000000E+00 -0.00000000000E+00 -0.39045937604E+03  0.39045937604E+03  0.00000000000E+00 0. -1.
          6    1    1    2  501    0  0.57932611682E+02  0.70458641992E+02  0.11117552865E+03  0.22496578828E+03  0.17300000000E+03 0.  1.
         -6    1    1    2    0  503 -0.57932611682E+02 -0.70458641992E+02 -0.30489689941E+03  0.36223159304E+03  0.17300000000E+03 0. -1.
<mgrwt>
<rscale>  2 0.19557507E+03</rscale>
<asrwt>0</asrwt>
<pdfrwt beam="1">  1       21 0.30267386E-01 0.19557507E+03</pdfrwt>
<pdfrwt beam="2">  1       21 0.60070673E-01 0.19557507E+03</pdfrwt>
<totfact> 0.27026317E+04</totfact>
</mgrwt>
</event>
<event>
 4    1  0.4365842E+000  0.1903558E+03  0.7546771E-02  0.1158141E+00
         21   -1    0    0  501  502  0.00000000000E+00  0.00000000000E+00  0.66130639506E+02  0.66130639506E+02  0.00000000000E+00 0. -1.
         21   -1    0    0  502  503 -0.00000000000E+00 -0.00000000000E+00 -0.54794601667E+03  0.54794601667E+03  0.00000000000E+00 0. -1.
          6    1    1    2  501    0  0.67173739139E+02 -0.42355823077E+02 -0.24225092179E+03  0.30809225256E+03  0.17300000000E+03 0. -1.
         -6    1    1    2    0  503 -0.67173739139E+02  0.42355823077E+02 -0.23956445537E+03  0.30598440361E+03  0.17300000000E+03 0. -1.
<mgrwt>
<rscale>  2 0.19035579E+03</rscale>
<asrwt>0</asrwt>
<pdfrwt beam="1">  1       21 0.10173945E-01 0.19035579E+03</pdfrwt>
<pdfrwt beam="2">  1       21 0.84299387E-01 0.19035579E+03</pdfrwt>
<totfact> 0.96205599E+04</totfact>
</mgrwt>
</event>
<event>
 4    1  0.4365842E+000  0.1842090E+03  0.7546771E-02  0.1163791E+00
         21   -1    0    0  501  502  0.00000000000E+00  0.00000000000E+00  0.11666055073E+03  0.11666055073E+03  0.00000000000E+00 0. -1.
         21   -1    0    0  502  503 -0.00000000000E+00 -0.00000000000E+00 -0.59193434560E+03  0.59193434560E+03  0.00000000000E+00 0. -1.
          6    1    1    2  501    0 -0.56766348225E+02 -0.27956086973E+02  0.15037648749E+02  0.18482178435E+03  0.17300000000E+03 0. -1.
         -6    1    1    2    0  503  0.56766348225E+02  0.27956086973E+02 -0.49031144362E+03  0.52377311198E+03  0.17300000000E+03 0. -1.
<mgrwt>
<rscale>  2 0.18420901E+03</rscale>
<asrwt>0</asrwt>
<pdfrwt beam="1">  1       21 0.17947777E-01 0.18420901E+03</pdfrwt>
<pdfrwt beam="2">  1       21 0.91066823E-01 0.18420901E+03</pdfrwt>
<totfact> 0.28992553E+04</totfact>
</mgrwt>
</event>
<event>
 4    1  0.4365842E+000  0.1855626E+03  0.7546771E-02  0.1162526E+00
         21   -1    0    0  501  502  0.00000000000E+00  0.00000000000E+00  0.90093476212E+03  0.90093476212E+03  0.00000000000E+00 0. -1.
         21   -1    0    0  502  503 -0.00000000000E+00 -0.00000000000E+00 -0.45268630463E+02  0.45268630463E+02  0.00000000000E+00 0. -1.
          6    1    1    2  501    0  0.59670283456E+02 -0.30723838854E+02  0.24114521774E+03  0.30427703337E+03  0.17300000000E+03 0.  1.
         -6    1    1    2    0  503 -0.59670283456E+02  0.30723838854E+02  0.61452091392E+03  0.64192635921E+03  0.17300000000E+03 0.  1.
<mgrwt>
<rscale>  2 0.18556265E+03</rscale>
<asrwt>0</asrwt>
<pdfrwt beam="1">  1       21 0.13860533E+00 0.18556265E+03</pdfrwt>
<pdfrwt beam="2">  1       21 0.69644053E-02 0.18556265E+03</pdfrwt>
<totfact> 0.56244865E+04</totfact>
</mgrwt>
</event>
<event>
 4    1  0.4365842E+000  0.2722454E+03  0.7546771E-02  0.1100001E+00
         21   -1    0    0  501  502  0.00000000000E+00  0.00000000000E+00  0.29705777314E+03  0.29705777314E+03  0.00000000000E+00 0. -1.
         21   -1    0    0  502  503 -0.00000000000E+00 -0.00000000000E+00 -0.25622435933E+03  0.25622435933E+03  0.00000000000E+00 0.  1.
          6    1    1    2  501    0  0.11269703217E+03  0.17744837116E+03  0.65214282702E+02  0.27994722387E+03  0.17300000000E+03 0. -1.
         -6    1    1    2    0  503 -0.11269703217E+03 -0.17744837116E+03 -0.24380868890E+02  0.27333490859E+03  0.17300000000E+03 0.  1.
<mgrwt>
<rscale>  2 0.27224538E+03</rscale>
<asrwt>0</asrwt>
<pdfrwt beam="1">  1       21 0.45701196E-01 0.27224538E+03</pdfrwt>
<pdfrwt beam="2">  1       21 0.39419132E-01 0.27224538E+03</pdfrwt>
<totfact> 0.27396272E+04</totfact>
</mgrwt>
</event>
<event>
 4    1  0.4365842E+000  0.2187487E+03  0.7546771E-02  0.1134819E+00
         21   -1    0    0  501  502  0.00000000000E+00  0.00000000000E+00  0.21781878855E+03  0.21781878855E+03  0.00000000000E+00 0. -1.
         21   -1    0    0  502  503 -0.00000000000E+00 -0.00000000000E+00 -0.27022987169E+03  0.27022987169E+03  0.00000000000E+00 0. -1.
          6    1    1    2  501    0 -0.70929643236E+02  0.11353837728E+03  0.79334123986E+02  0.23269052545E+03  0.17300000000E+03 0. -1.
         -6    1    1    2    0  503  0.70929643236E+02 -0.11353837728E+03 -0.13174520712E+03  0.25535813479E+03  0.17300000000E+03 0. -1.
<mgrwt>
<rscale>  2 0.21874866E+03</rscale>
<asrwt>0</asrwt>
<pdfrwt beam="1">  1       21 0.33510583E-01 0.21874866E+03</pdfrwt>
<pdfrwt beam="2">  1       21 0.41573826E-01 0.21874866E+03</pdfrwt>
<totfact> 0.47181306E+04</totfact>
</mgrwt>
</event>
<event>
 4    1  0.4365842E+000  0.2326923E+03  0.7546771E-02  0.1124759E+00
         21   -1    0    0  501  502  0.00000000000E+00  0.00000000000E+00  0.86063679693E+03  0.86063679693E+03  0.00000000000E+00 0.  1.
         21   -1    0    0  502  503 -0.00000000000E+00 -0.00000000000E+00 -0.11259549007E+03  0.11259549007E+03  0.00000000000E+00 0.  1.
          6    1    1    2  501    0  0.81416911654E+02  0.13261972568E+03  0.69726083648E+03  0.73506352054E+03  0.17300000000E+03 0.  1.
         -6    1    1    2    0  503 -0.81416911654E+02 -0.13261972568E+03  0.50780470379E+02  0.23816876645E+03  0.17300000000E+03 0.  1.
<mgrwt>
<rscale>  2 0.23269230E+03</rscale>
<asrwt>0</asrwt>
<pdfrwt beam="1">  1       21 0.13240566E+00 0.23269230E+03</pdfrwt>
<pdfrwt beam="2">  1       21 0.17322384E-01 0.23269230E+03</pdfrwt>
<totfact> 0.12106854E+04</totfact>
</mgrwt>
</event>
<event>
 4    1  0.4365842E+000  0.2266880E+03  0.7546771E-02  0.1128993E+00
         21   -1    0    0  501  502  0.00000000000E+00  0.00000000000E+00  0.56075293056E+02  0.56075293056E+02  0.00000000000E+00 0.  1.
         21   -1    0    0  502  503 -0.00000000000E+00 -0.00000000000E+00 -0.16003910365E+04  0.16003910365E+04  0.00000000000E+00 0.  1.
          6    1    1    2  501    0  0.14423658900E+03 -0.25578480316E+02 -0.23070026053E+03  0.32343478859E+03  0.17300000000E+03 0.  1.
         -6    1    1    2    0  503 -0.14423658900E+03  0.25578480316E+02 -0.13136154830E+04  0.13330315410E+04  0.17300000000E+03 0.  1.
<mgrwt>
<rscale>  2 0.22668801E+03</rscale>
<asrwt>0</asrwt>
<pdfrwt beam="1">  1       21 0.86269675E-02 0.22668801E+03</pdfrwt>
<pdfrwt beam="2">  1       21 0.24621402E+00 0.22668801E+03</pdfrwt>
<totfact> 0.71349049E+03</totfact>
</mgrwt>
</event>
<event>
 4    1  0.4365842E+000  0.2073469E+03  0.7546771E-02  0.1143684E+00
         21   -1    0    0  503  502  0.00000000000E+00  0.00000000000E+00  0.56351386137E+03  0.56351386137E+03  0.00000000000E+00 0.  1.
         21   -1    0    0  501  503 -0.00000000000E+00 -0.00000000000E+00 -0.10738836756E+03  0.10738836756E+03  0.00000000000E+00 0. -1.
          6    1    1    2  501    0 -0.87230836642E+02 -0.73854725736E+02  0.40856861445E+03  0.45817142217E+03  0.17300000000E+03 0.  1.
         -6    1    1    2    0  502  0.87230836642E+02  0.73854725736E+02  0.47556879355E+02  0.21273080677E+03  0.17300000000E+03 0. -1.
<mgrwt>
<rscale>  2 0.20734691E+03</rscale>
<asrwt>0</asrwt>
<pdfrwt beam="1">  1       21 0.86694439E-01 0.20734691E+03</pdfrwt>
<pdfrwt beam="2">  1       21 0.16521288E-01 0.20734691E+03</pdfrwt>
<totfact> 0.37358799E+04</totfact>
</mgrwt>
</event>
<event>
 4    1  0.4365842E+000  0.1923928E+03  0.7546771E-02  0.1156321E+00
         21   -1    0    0  503  502  0.00000000000E+00  0.00000000000E+00  0.62166039413E+03  0.62166039413E+03  0.00000000000E+00 0. -1.
         21   -1    0    0  501  503 -0.00000000000E+00 -0.00000000000E+00 -0.11459987487E+03  0.11459987487E+03  0.00000000000E+00 0. -1.
          6    1    1    2  501    0 -0.81807470692E+02 -0.19837381911E+02 -0.16332149915E+01  0.19239971771E+03  0.17300000000E+03 0. -1.
         -6    1    1    2    0  502  0.81807470692E+02  0.19837381911E+02  0.50869373426E+03  0.54386055129E+03  0.17300000000E+03 0. -1.
<mgrwt>
<rscale>  2 0.19239279E+03</rscale>
<asrwt>0</asrwt>
<pdfrwt beam="1">  1       21 0.95640058E-01 0.19239279E+03</pdfrwt>
<pdfrwt beam="2">  1       21 0.17630750E-01 0.19239279E+03</pdfrwt>
<totfact> 0.26606571E+04</totfact>
</mgrwt>
</event>
<event>
 4    1  0.4365842E+000  0.2373708E+03  0.7546771E-02  0.1121557E+00
         21   -1    0    0  501  502  0.00000000000E+00  0.00000000000E+00  0.31723204871E+03  0.31723204871E+03  0.00000000000E+00 0. -1.
         21   -1    0    0  502  503 -0.00000000000E+00 -0.00000000000E+00 -0.26940627101E+03  0.26940627101E+03  0.00000000000E+00 0.  1.
          6    1    1    2  501    0 -0.10033438564E+03  0.12786286387E+03  0.19512689255E+03  0.30727740740E+03  0.17300000000E+03 0.  1.
         -6    1    1    2    0  503  0.10033438564E+03 -0.12786286387E+03 -0.14730111485E+03  0.27936091232E+03  0.17300000000E+03 0.  1.
<mgrwt>
<rscale>  2 0.23737081E+03</rscale>
<asrwt>0</asrwt>
<pdfrwt beam="1">  1       21 0.48804931E-01 0.23737081E+03</pdfrwt>
<pdfrwt beam="2">  1       21 0.41447119E-01 0.23737081E+03</pdfrwt>
<totfact> 0.21915231E+04</totfact>
</mgrwt>
</event>
<event>
 4    1  0.4365842E+000  0.1778002E+03  0.7546771E-02  0.1169949E+00
         21   -1    0    0  501  502  0.00000000000E+00  0.00000000000E+00  0.44984781230E+03  0.44984781230E+03  0.00000000000E+00 0. -1.
         21   -1    0    0  502  503 -0.00000000000E+00 -0.00000000000E+00 -0.99041374694E+02  0.99041374694E+02  0.00000000000E+00 0. -1.
          6    1    1    2  501    0  0.39008888260E+02  0.12736417711E+02  0.32331111326E+03  0.36897558951E+03  0.17300000000E+03 0. -1.
         -6    1    1    2    0  503 -0.39008888260E+02 -0.12736417711E+02  0.27495324352E+02  0.17991359749E+03  0.17300000000E+03 0. -1.
<mgrwt>
<rscale>  2 0.17780020E+03</rscale>
<asrwt>0</asrwt>
<pdfrwt beam="1">  1       21 0.69207355E-01 0.17780020E+03</pdfrwt>
<pdfrwt beam="2">  1       21 0.15237135E-01 0.17780020E+03</pdfrwt>
<totfact> 0.72897465E+04</totfact>
</mgrwt>
</event>
<event>
 4    1  0.4365842E+000  0.2508137E+03  0.7546771E-02  0.1112792E+00
         21   -1    0    0  501  502  0.00000000000E+00  0.00000000000E+00  0.11569114332E+03  0.11569114332E+03  0.00000000000E+00 0. -1.
         21   -1    0    0  502  503 -0.00000000000E+00 -0.00000000000E+00 -0.71573803296E+03  0.71573803296E+03  0.00000000000E+00 0.  1.
          6    1    1    2  501    0  0.55727577668E+02 -0.17283789436E+03 -0.96242996160E+02  0.26864514689E+03  0.17300000000E+03 0. -1.
         -6    1    1    2    0  503 -0.55727577668E+02  0.17283789436E+03 -0.50380389349E+03  0.56278402938E+03  0.17300000000E+03 0.  1.
<mgrwt>
<rscale>  2 0.25081368E+03</rscale>
<asrwt>0</asrwt>
<pdfrwt beam="1">  1       21 0.17798637E-01 0.25081368E+03</pdfrwt>
<pdfrwt beam="2">  1       21 0.11011354E+00 0.25081368E+03</pdfrwt>
<totfact> 0.18054413E+04</totfact>
</mgrwt>
</event>
<event>
 4    1  0.4365842E+000  0.2009361E+03  0.7546771E-02  0.1148952E+00
         21   -1    0    0  503  502  0.00000000000E+00  0.00000000000E+00  0.33156745062E+03  0.33156745062E+03  0.00000000000E+00 0.  1.
         21   -1    0    0  501  503 -0.00000000000E+00 -0.00000000000E+00 -0.12742955525E+03  0.12742955525E+03  0.00000000000E+00 0.  1.
          6    1    1    2  501    0 -0.60063394561E+02  0.82696413179E+02  0.53707797957E+02  0.20798998938E+03  0.17300000000E+03 0.  1.
         -6    1    1    2    0  502  0.60063394561E+02 -0.82696413179E+02  0.15043009741E+03  0.25100701649E+03  0.17300000000E+03 0.  1.
<mgrwt>
<rscale>  2 0.20093608E+03</rscale>
<asrwt>0</asrwt>
<pdfrwt beam="1">  1       21 0.51010377E-01 0.20093608E+03</pdfrwt>
<pdfrwt beam="2">  1       21 0.19604547E-01 0.20093608E+03</pdfrwt>
<totfact> 0.87254965E+04</totfact>
</mgrwt>
</event>
<event>
 4    1  0.4365842E+000  0.1834729E+03  0.7546771E-02  0.1164484E+00
         21   -1    0    0  503  502  0.00000000000E+00  0.00000000000E+00  0.31474210178E+03  0.31474210178E+03  0.00000000000E+00 0.  1.
         21   -1    0    0  501  503 -0.00000000000E+00 -0.00000000000E+00 -0.20098024191E+03  0.20098024191E+03  0.00000000000E+00 0. -1.
          6    1    1    2  501    0  0.61080221930E+02 -0.15827726899E+01 -0.11949463479E+03  0.21895494154E+03  0.17300000000E+03 0. -1.
         -6    1    1    2    0  502 -0.61080221930E+02  0.15827726899E+01  0.23325649466E+03  0.29676740216E+03  0.17300000000E+03 0.  1.
<mgrwt>
<rscale>  2 0.18347288E+03</rscale>
<asrwt>0</asrwt>
<pdfrwt beam="1">  1       21 0.48421862E-01 0.18347288E+03</pdfrwt>
<pdfrwt beam="2">  1       21 0.30920037E-01 0.18347288E+03</pdfrwt>
<totfact> 0.41106426E+04</totfact>
</mgrwt>
</event>
<event>
 4    1  0.4365842E+000  0.1733529E+03  0.7546771E-02  0.1174396E+00
         21   -1    0    0  501  502  0.00000000000E+00  0.00000000000E+00  0.84695821962E+03  0.84695821962E+03  0.00000000000E+00 0.  1.
         21   -1    0    0  502  503 -0.00000000000E+00 -0.00000000000E+00 -0.37459718763E+02  0.37459718763E+02  0.00000000000E+00 0.  1.
          6    1    1    2  501    0 -0.10030770968E+01  0.11009411111E+02  0.30312440093E+03  0.34919280596E+03  0.17300000000E+03 0. -1.
         -6    1    1    2    0  503  0.10030770968E+01 -0.11009411111E+02  0.50637409993E+03  0.53522513242E+03  0.17300000000E+03 0. -1.
<mgrwt>
<rscale>  2 0.17335286E+03</rscale>
<asrwt>0</asrwt>
<pdfrwt beam="1">  1       21 0.13030125E+00 0.17335286E+03</pdfrwt>
<pdfrwt beam="2">  1       21 0.57630343E-02 0.17335286E+03</pdfrwt>
<totfact> 0.91593517E+04</totfact>
</mgrwt>
</event>
<event>
 4    1  0.4365842E+000  0.1749838E+03  0.7546771E-02  0.1172748E+00
         21   -1    0    0  501  502  0.00000000000E+00  0.00000000000E+00  0.14786833053E+04  0.14786833053E+04  0.00000000000E+00 0.  1.
         21   -1    0    0  502  503 -0.00000000000E+00 -0.00000000000E+00 -0.36169988949E+02  0.36169988949E+02  0.00000000000E+00 0.  1.
          6    1    1    2  501    0 -0.31303112278E+01 -0.26086729744E+02  0.22602201784E+03  0.28584133512E+03  0.17300000000E+03 0.  1.
         -6    1    1    2    0  503  0.31303112278E+01  0.26086729744E+02  0.12164912985E+04  0.12290119591E+04  0.17300000000E+03 0.  1.
<mgrwt>
<rscale>  2 0.17498376E+03</rscale>
<asrwt>0</asrwt>
<pdfrwt beam="1">  1       21 0.22748969E+00 0.17498376E+03</pdfrwt>
<pdfrwt beam="2">  1       21 0.55646148E-02 0.17498376E+03</pdfrwt>
<totfact> 0.20613935E+04</totfact>
</mgrwt>
</event>
<event>
 4    1  0.4365842E+000  0.4432156E+03  0.7546771E-02  0.1029765E+00
         21   -1    0    0  501  502  0.00000000000E+00  0.00000000000E+00  0.16481954276E+03  0.16481954276E+03  0.00000000000E+00 0. -1.
         21   -1    0    0  502  503 -0.00000000000E+00 -0.00000000000E+00 -0.11945823346E+04  0.11945823346E+04  0.00000000000E+00 0. -1.
          6    1    1    2  501    0 -0.39155944319E+03 -0.11485768125E+03 -0.54739154598E+03  0.70432775687E+03  0.17300000000E+03 0. -1.
         -6    1    1    2    0  503  0.39155944319E+03  0.11485768125E+03 -0.48237124581E+03  0.65507412044E+03  0.17300000000E+03 0. -1.
<mgrwt>
<rscale>  2 0.44321562E+03</rscale>
<asrwt>0</asrwt>
<pdfrwt beam="1">  1       21 0.25356852E-01 0.44321562E+03</pdfrwt>
<pdfrwt beam="2">  1       21 0.18378190E+00 0.44321562E+03</pdfrwt>
<totfact> 0.21571443E+03</totfact>
</mgrwt>
</event>
<event>
 4    1  0.4365842E+000  0.2552838E+03  0.7546771E-02  0.1110010E+00
         21   -1    0    0  503  502  0.00000000000E+00  0.00000000000E+00  0.10617608472E+04  0.10617608472E+04  0.00000000000E+00 0. -1.
         21   -1    0    0  501  503 -0.00000000000E+00 -0.00000000000E+00 -0.94585787853E+02  0.94585787853E+02  0.00000000000E+00 0.  1.
          6    1    1    2  501    0 -0.75027009473E+02 -0.17208064944E+03  0.14101018341E+03  0.29163963017E+03  0.17300000000E+03 0.  1.
         -6    1    1    2    0  502  0.75027009473E+02  0.17208064944E+03  0.82616487597E+03  0.86470700492E+03  0.17300000000E+03 0. -1.
<mgrwt>
<rscale>  2 0.25528377E+03</rscale>
<asrwt>0</asrwt>
<pdfrwt beam="1">  1       21 0.16334781E+00 0.25528377E+03</pdfrwt>
<pdfrwt beam="2">  1       21 0.14551660E-01 0.25528377E+03</pdfrwt>
<totfact> 0.94429200E+03</totfact>
</mgrwt>
</event>
<event>
 4    1  0.4365842E+000  0.1921144E+03  0.7546771E-02  0.1156568E+00
         21   -1    0    0  503  502  0.00000000000E+00  0.00000000000E+00  0.25714418869E+03  0.25714418869E+03  0.00000000000E+00 0. -1.
         21   -1    0    0  501  503 -0.00000000000E+00 -0.00000000000E+00 -0.21314584185E+03  0.21314584185E+03  0.00000000000E+00 0. -1.
          6    1    1    2  501    0  0.77296545262E+02  0.31688688206E+02 -0.11238592059E+03  0.22257251407E+03  0.17300000000E+03 0. -1.
         -6    1    1    2    0  502 -0.77296545262E+02 -0.31688688206E+02  0.15638426744E+03  0.24771751648E+03  0.17300000000E+03 0. -1.
<mgrwt>
<rscale>  2 0.19211436E+03</rscale>
<asrwt>0</asrwt>
<pdfrwt beam="1">  1       21 0.39560644E-01 0.19211436E+03</pdfrwt>
<pdfrwt beam="2">  1       21 0.32791668E-01 0.19211436E+03</pdfrwt>
<totfact> 0.55152656E+04</totfact>
</mgrwt>
</event>
<event>
 4    1  0.4365842E+000  0.1923438E+03  0.7546771E-02  0.1156364E+00
         21   -1    0    0  501  502  0.00000000000E+00  0.00000000000E+00  0.15576040864E+03  0.15576040864E+03  0.00000000000E+00 0. -1.
         21   -1    0    0  502  503 -0.00000000000E+00 -0.00000000000E+00 -0.24004330445E+03  0.24004330445E+03  0.00000000000E+00 0.  1.
          6    1    1    2  501    0 -0.63615125503E+02  0.54956740580E+02 -0.62434001685E+02  0.20222297618E+03  0.17300000000E+03 0.  1.
         -6    1    1    2    0  503  0.63615125503E+02 -0.54956740580E+02 -0.21848894130E+02  0.19358073691E+03  0.17300000000E+03 0. -1.
<mgrwt>
<rscale>  2 0.19234377E+03</rscale>
<asrwt>0</asrwt>
<pdfrwt beam="1">  1       21 0.23963140E-01 0.19234377E+03</pdfrwt>
<pdfrwt beam="2">  1       21 0.36929739E-01 0.19234377E+03</pdfrwt>
<totfact> 0.11613435E+05</totfact>
</mgrwt>
</event>
<event>
 4    1  0.4365842E+000  0.2360875E+03  0.7546771E-02  0.1122427E+00
         21   -1    0    0  503  502  0.00000000000E+00  0.00000000000E+00  0.38710058969E+03  0.38710058969E+03  0.00000000000E+00 0. -1.
         21   -1    0    0  501  503 -0.00000000000E+00 -0.00000000000E+00 -0.16333205653E+03  0.16333205653E+03  0.00000000000E+00 0. -1.
          6    1    1    2  501    0  0.86804682927E+02  0.13517854923E+03  0.17167230708E+02  0.23671080871E+03  0.17300000000E+03 0.  1.
         -6    1    1    2    0  502 -0.86804682927E+02 -0.13517854923E+03  0.20660130246E+03  0.31372183750E+03  0.17300000000E+03 0.  1.
<mgrwt>
<rscale>  2 0.23608747E+03</rscale>
<asrwt>0</asrwt>
<pdfrwt beam="1">  1       21 0.59553937E-01 0.23608747E+03</pdfrwt>
<pdfrwt beam="2">  1       21 0.25128009E-01 0.23608747E+03</pdfrwt>
<totfact> 0.38663923E+04</totfact>
</mgrwt>
</event>
<event>
 4    1  0.4365842E+000  0.1845969E+03  0.7546771E-02  0.1163427E+00
         21   -1    0    0  501  502  0.00000000000E+00  0.00000000000E+00  0.52162983061E+03  0.52162983061E+03  0.00000000000E+00 0. -1.
         21   -1    0    0  502  503 -0.00000000000E+00 -0.00000000000E+00 -0.83004539825E+02  0.83004539825E+02  0.00000000000E+00 0. -1.
          6    1    1    2  501    0 -0.53612479063E+02 -0.35675095291E+02  0.35883205711E+03  0.40352999337E+03  0.17300000000E+03 0. -1.
         -6    1    1    2    0  503  0.53612479063E+02  0.35675095291E+02  0.79793233669E+02  0.20110437706E+03  0.17300000000E+03 0. -1.
<mgrwt>
<rscale>  2 0.18459689E+03</rscale>
<asrwt>0</asrwt>
<pdfrwt beam="1">  1       21 0.80250742E-01 0.18459689E+03</pdfrwt>
<pdfrwt beam="2">  1       21 0.12769929E-01 0.18459689E+03</pdfrwt>
<totfact> 0.71934869E+04</totfact>
</mgrwt>
</event>
<event>
 4    1  0.4365842E+000  0.2099480E+03  0.7546771E-02  0.1141607E+00
         21   -1    0    0  503  502  0.00000000000E+00  0.00000000000E+00  0.87489816636E+03  0.87489816636E+03  0.00000000000E+00 0.  1.
         21   -1    0    0  501  503 -0.00000000000E+00 -0.00000000000E+00 -0.94988364479E+02  0.94988364479E+02  0.00000000000E+00 0.  1.
          6    1    1    2  501    0  0.11433570686E+03  0.32810285877E+02  0.57632641758E+02  0.21771469890E+03  0.17300000000E+03 0.  1.
         -6    1    1    2    0  502 -0.11433570686E+03 -0.32810285877E+02  0.72227716012E+03  0.75217183194E+03  0.17300000000E+03 0.  1.
<mgrwt>
<rscale>  2 0.20994801E+03</rscale>
<asrwt>0</asrwt>
<pdfrwt beam="1">  1       21 0.13459971E+00 0.20994801E+03</pdfrwt>
<pdfrwt beam="2">  1       21 0.14613595E-01 0.20994801E+03</pdfrwt>
<totfact> 0.16093997E+04</totfact>
</mgrwt>
</event>
<event>
 4    1  0.4365842E+000  0.2162921E+03  0.7546771E-02  0.1136678E+00
         21   -1    0    0  503  502  0.00000000000E+00  0.00000000000E+00  0.13789625421E+03  0.13789625421E+03  0.00000000000E+00 0. -1.
         21   -1    0    0  501  503 -0.00000000000E+00 -0.00000000000E+00 -0.47297067929E+03  0.47297067929E+03  0.00000000000E+00 0.  1.
          6    1    1    2  501    0  0.12958301421E+03  0.78422293470E+01 -0.51366363063E+01  0.21635305213E+03  0.17300000000E+03 0. -1.
         -6    1    1    2    0  502 -0.12958301421E+03 -0.78422293470E+01 -0.32993778877E+03  0.39451388137E+03  0.17300000000E+03 0.  1.
<mgrwt>
<rscale>  2 0.21629207E+03</rscale>
<asrwt>0</asrwt>
<pdfrwt beam="1">  1       21 0.21214808E-01 0.21629207E+03</pdfrwt>
<pdfrwt beam="2">  1       21 0.72764720E-01 0.21629207E+03</pdfrwt>
<totfact> 0.34716998E+04</totfact>
</mgrwt>
</event>
<event>
 4    1  0.4365842E+000  0.2663680E+03  0.7546771E-02  0.1103376E+00
         21   -1    0    0  503  502  0.00000000000E+00  0.00000000000E+00  0.14411918203E+04  0.14411918203E+04  0.00000000000E+00 0. -1.
         21   -1    0    0  501  503 -0.00000000000E+00 -0.00000000000E+00 -0.69475816609E+02  0.69475816609E+02  0.00000000000E+00 0.  1.
          6    1    1    2  501    0  0.56330067157E+02 -0.19455040547E+03  0.27812638235E+03  0.38510546775E+03  0.17300000000E+03 0.  1.
         -6    1    1    2    0  502 -0.56330067157E+02  0.19455040547E+03  0.10935896213E+04  0.11255621691E+04  0.17300000000E+03 0. -1.
<mgrwt>
<rscale>  2 0.26636805E+03</rscale>
<asrwt>0</asrwt>
<pdfrwt beam="1">  1       21 0.22172180E+00 0.26636805E+03</pdfrwt>
<pdfrwt beam="2">  1       21 0.10688588E-01 0.26636805E+03</pdfrwt>
<totfact> 0.66715096E+03</totfact>
</mgrwt>
</event>
<event>
 4    1  0.4365842E+000  0.2166178E+03  0.7546771E-02  0.1136430E+00
         21   -1    0    0  501  502  0.00000000000E+00  0.00000000000E+00  0.74662368607E+03  0.74662368607E+03  0.00000000000E+00 0.  1.
         21   -1    0    0  502  503 -0.00000000000E+00 -0.00000000000E+00 -0.65784155355E+02  0.65784155355E+02  0.00000000000E+00 0.  1.
          6    1    1    2  501    0 -0.13035924172E+03 -0.87125637055E+00  0.42624676401E+03  0.47813135729E+03  0.17300000000E+03 0.  1.
         -6    1    1    2    0  503  0.13035924172E+03  0.87125637055E+00  0.25459276670E+03  0.33427648413E+03  0.17300000000E+03 0.  1.
<mgrwt>
<rscale>  2 0.21661785E+03</rscale>
<asrwt>0</asrwt>
<pdfrwt beam="1">  1       21 0.11486518E+00 0.21661785E+03</pdfrwt>
<pdfrwt beam="2">  1       21 0.10120640E-01 0.21661785E+03</pdfrwt>
<totfact> 0.46125367E+04</totfact>
</mgrwt>
</event>
<event>
 4    1  0.4365842E+000  0.1843311E+03  0.7546771E-02  0.1163676E+00
         21   -1    0    0  503  502  0.00000000000E+00  0.00000000000E+00  0.14377941095E+04  0.14377941095E+04  0.00000000000E+00 0.  1.
         21   -1    0    0  501  503 -0.00000000000E+00 -0.00000000000E+00 -0.42702829840E+02  0.42702829840E+02  0.00000000000E+00 0.  1.
          6    1    1    2  501    0 -0.49525763010E+02  0.39951796775E+02  0.20285463823E+03  0.27409478565E+03  0.17300000000E+03 0.  1.
         -6    1    1    2    0  502  0.49525763010E+02 -0.39951796775E+02  0.11922366414E+04  0.12064021537E+04  0.17300000000E+03 0.  1.
<mgrwt>
<rscale>  2 0.18433108E+03</rscale>
<asrwt>0</asrwt>
<pdfrwt beam="1">  1       21 0.22119906E+00 0.18433108E+03</pdfrwt>
<pdfrwt beam="2">  1       21 0.65696672E-02 0.18433108E+03</pdfrwt>
<totfact> 0.16807571E+04</totfact>
</mgrwt>
</event>
<event>
 4    1  0.4365842E+000  0.1959369E+03  0.7546771E-02  0.1153213E+00
         21   -1    0    0  501  502  0.00000000000E+00  0.00000000000E+00  0.97646230861E+02  0.97646230861E+02  0.00000000000E+00 0.  1.
         21   -1    0    0  502  503 -0.00000000000E+00 -0.00000000000E+00 -0.54805101400E+03  0.54805101400E+03  0.00000000000E+00 0.  1.
          6    1    1    2  501    0 -0.19114504797E+02 -0.89982827100E+02 -0.53572956155E+02  0.20312886328E+03  0.17300000000E+03 0. -1.
         -6    1    1    2    0  503  0.19114504797E+02  0.89982827100E+02 -0.39683182698E+03  0.44256838158E+03  0.17300000000E+03 0. -1.
<mgrwt>
<rscale>  2 0.19593691E+03</rscale>
<asrwt>0</asrwt>
<pdfrwt beam="1">  1       21 0.15022497E-01 0.19593691E+03</pdfrwt>
<pdfrwt beam="2">  1       21 0.84315542E-01 0.19593691E+03</pdfrwt>
<totfact> 0.47673506E+04</totfact>
</mgrwt>
</event>
<event>
 4    1  0.4365842E+000  0.2318797E+03  0.7546771E-02  0.1125324E+00
         21   -1    0    0  503  502  0.00000000000E+00  0.00000000000E+00  0.47410804192E+03  0.47410804192E+03  0.00000000000E+00 0. -1.
         21   -1    0    0  501  503 -0.00000000000E+00 -0.00000000000E+00 -0.20161088959E+03  0.20161088959E+03  0.00000000000E+00 0. -1.
          6    1    1    2  501    0 -0.10679962773E+01 -0.15439573884E+03 -0.87220637437E+02  0.24774104299E+03  0.17300000000E+03 0. -1.
         -6    1    1    2    0  502  0.10679962773E+01  0.15439573884E+03  0.35971778976E+03  0.42797788852E+03  0.17300000000E+03 0. -1.
<mgrwt>
<rscale>  2 0.23187968E+03</rscale>
<asrwt>0</asrwt>
<pdfrwt beam="1">  1       21 0.72939699E-01 0.23187968E+03</pdfrwt>
<pdfrwt beam="2">  1       21 0.31017060E-01 0.23187968E+03</pdfrwt>
<totfact> 0.16500900E+04</totfact>
</mgrwt>
</event>
<event>
 4    1  0.4365842E+000  0.1998020E+03  0.7546771E-02  0.1149906E+00
         21   -1    0    0  501  502  0.00000000000E+00  0.00000000000E+00  0.14021484187E+03  0.14021484187E+03  0.00000000000E+00 0.  1.
         21   -1    0    0  502  503 -0.00000000000E+00 -0.00000000000E+00 -0.32655781948E+03  0.32655781948E+03  0.00000000000E+00 0.  1.
          6    1    1    2  501    0  0.78429084746E+02 -0.61973472666E+02 -0.96261968268E+01  0.20003373794E+03  0.17300000000E+03 0.  1.
         -6    1    1    2    0  503 -0.78429084746E+02  0.61973472666E+02 -0.17671678078E+03  0.26673892340E+03  0.17300000000E+03 0.  1.
<mgrwt>
<rscale>  2 0.19980198E+03</rscale>
<asrwt>0</asrwt>
<pdfrwt beam="1">  1       21 0.21571514E-01 0.19980198E+03</pdfrwt>
<pdfrwt beam="2">  1       21 0.50239664E-01 0.19980198E+03</pdfrwt>
<totfact> 0.75333973E+04</totfact>
</mgrwt>
</event>
<event>
 4    1  0.4365842E+000  0.2057397E+03  0.7546771E-02  0.1144985E+00
         21   -1    0    0  503  502  0.00000000000E+00  0.00000000000E+00  0.41734741589E+03  0.41734741589E+03  0.00000000000E+00 0. -1.
         21   -1    0    0  501  503 -0.00000000000E+00 -0.00000000000E+00 -0.24799753018E+03  0.24799753018E+03  0.00000000000E+00 0.  1.
          6    1    1    2  501    0 -0.71372082587E+02  0.85474367700E+02 -0.17107861379E+03  0.26757565996E+03  0.17300000000E+03 0.  1.
         -6    1    1    2    0  502  0.71372082587E+02 -0.85474367700E+02  0.34042849950E+03  0.39776928611E+03  0.17300000000E+03 0. -1.
<mgrwt>
<rscale>  2 0.20573974E+03</rscale>
<asrwt>0</asrwt>
<pdfrwt beam="1">  1       21 0.64207295E-01 0.20573974E+03</pdfrwt>
<pdfrwt beam="2">  1       21 0.38153466E-01 0.20573974E+03</pdfrwt>
<totfact> 0.14705671E+04</totfact>
</mgrwt>
</event>
<event>
 4    1  0.4365842E+000  0.1875568E+03  0.7546771E-02  0.1160684E+00
         21   -1    0    0  501  502  0.00000000000E+00  0.00000000000E+00  0.12251222485E+03  0.12251222485E+03  0.00000000000E+00 0.  1.
         21   -1    0    0  502  503 -0.00000000000E+00 -0.00000000000E+00 -0.54664637156E+03  0.54664637156E+03  0.00000000000E+00 0.  1.
          6    1    1    2  501    0 -0.44068805301E+02  0.57502060212E+02  0.18461113974E+02  0.18846315093E+03  0.17300000000E+03 0.  1.
         -6    1    1    2    0  503  0.44068805301E+02 -0.57502060212E+02 -0.44259526068E+03  0.48069544548E+03  0.17300000000E+03 0.  1.
<mgrwt>
<rscale>  2 0.18755678E+03</rscale>
<asrwt>0</asrwt>
<pdfrwt beam="1">  1       21 0.18848034E-01 0.18755678E+03</pdfrwt>
<pdfrwt beam="2">  1       21 0.84099443E-01 0.18755678E+03</pdfrwt>
<totfact> 0.31740071E+04</totfact>
</mgrwt>
</event>
<event>
 4    1  0.4365842E+000  0.1815119E+03  0.7546771E-02  0.1166348E+00
         21   -1    0    0  501  502  0.00000000000E+00  0.00000000000E+00  0.11078078979E+04  0.11078078979E+04  0.00000000000E+00 0.  1.
         21   -1    0    0  502  503 -0.00000000000E+00 -0.00000000000E+00 -0.40591588034E+02  0.40591588034E+02  0.00000000000E+00 0. -1.
          6    1    1    2  501    0 -0.29076852112E+02 -0.46605920528E+02  0.83049090846E+03  0.85009512656E+03  0.17300000000E+03 0.  1.
         -6    1    1    2    0  503  0.29076852112E+02  0.46605920528E+02  0.23672540143E+03  0.29830435940E+03  0.17300000000E+03 0. -1.
<mgrwt>
<rscale>  2 0.18151191E+03</rscale>
<asrwt>0</asrwt>
<pdfrwt beam="1">  1       21 0.17043196E+00 0.18151191E+03</pdfrwt>
<pdfrwt beam="2">  1       21 0.62448605E-02 0.18151191E+03</pdfrwt>
<totfact> 0.39286222E+04</totfact>
</mgrwt>
</event>
<event>
 4    1  0.4365842E+000  0.2122002E+03  0.7546771E-02  0.1139835E+00
         21   -1    0    0  501  502  0.00000000000E+00  0.00000000000E+00  0.29917132356E+03  0.29917132356E+03  0.00000000000E+00 0. -1.
         21   -1    0    0  502  503 -0.00000000000E+00 -0.00000000000E+00 -0.15555861249E+03  0.15555861249E+03  0.00000000000E+00 0.  1.
          6    1    1    2  501    0 -0.10987021584E+03 -0.55031600210E+02  0.11275757588E+03  0.24029817367E+03  0.17300000000E+03 0. -1.
         -6    1    1    2    0  503  0.10987021584E+03  0.55031600210E+02  0.30855135188E+02  0.21443176238E+03  0.17300000000E+03 0. -1.
<mgrwt>
<rscale>  2 0.21220024E+03</rscale>
<asrwt>0</asrwt>
<pdfrwt beam="1">  1       21 0.46026358E-01 0.21220024E+03</pdfrwt>
<pdfrwt beam="2">  1       21 0.23932094E-01 0.21220024E+03</pdfrwt>
<totfact> 0.73832830E+04</totfact>
</mgrwt>
</event>
<event>
 4    1  0.4365842E+000  0.2872219E+03  0.7546771E-02  0.1091809E+00
         21   -1    0    0  503  502  0.00000000000E+00  0.00000000000E+00  0.90311254224E+02  0.90311254224E+02  0.00000000000E+00 0.  1.
         21   -1    0    0  501  503 -0.00000000000E+00 -0.00000000000E+00 -0.17678424753E+04  0.17678424753E+04  0.00000000000E+00 0. -1.
          6    1    1    2  501    0  0.21701692327E+03  0.73966829942E+02 -0.14846488383E+04  0.15121767787E+04  0.17300000000E+03 0. -1.
         -6    1    1    2    0  502 -0.21701692327E+03 -0.73966829942E+02 -0.19288238273E+03  0.34597695080E+03  0.17300000000E+03 0.  1.
<mgrwt>
<rscale>  2 0.28722193E+03</rscale>
<asrwt>0</asrwt>
<pdfrwt beam="1">  1       21 0.13894039E-01 0.28722193E+03</pdfrwt>
<pdfrwt beam="2">  1       21 0.27197576E+00 0.28722193E+03</pdfrwt>
<totfact> 0.20347721E+03</totfact>
</mgrwt>
</event>
<event>
 4    1  0.4365842E+000  0.1736924E+03  0.7546771E-02  0.1174051E+00
         21   -1    0    0  501  502  0.00000000000E+00  0.00000000000E+00  0.44113245217E+03  0.44113245217E+03  0.00000000000E+00 0.  1.
         21   -1    0    0  502  503 -0.00000000000E+00 -0.00000000000E+00 -0.11154158776E+03  0.11154158776E+03  0.00000000000E+00 0.  1.
          6    1    1    2  501    0 -0.98908573877E+01  0.11925532323E+02  0.33667294499E+03  0.37883732560E+03  0.17300000000E+03 0.  1.
         -6    1    1    2    0  503  0.98908573877E+01 -0.11925532323E+02 -0.70820805797E+01  0.17383671432E+03  0.17300000000E+03 0.  1.
<mgrwt>
<rscale>  2 0.17369239E+03</rscale>
<asrwt>0</asrwt>
<pdfrwt beam="1">  1       21 0.67866530E-01 0.17369239E+03</pdfrwt>
<pdfrwt beam="2">  1       21 0.17160245E-01 0.17369239E+03</pdfrwt>
<totfact> 0.61345933E+04</totfact>
</mgrwt>
</event>
<event>
 4    1  0.4365842E+000  0.2041640E+03  0.7546771E-02  0.1146273E+00
         21   -1    0    0  503  502  0.00000000000E+00  0.00000000000E+00  0.86351176563E+03  0.86351176563E+03  0.00000000000E+00 0.  1.
         21   -1    0    0  501  503 -0.00000000000E+00 -0.00000000000E+00 -0.10890870849E+03  0.10890870849E+03  0.00000000000E+00 0. -1.
          6    1    1    2  501    0  0.55465619729E+02  0.93153101912E+02  0.14505356132E+02  0.20467862791E+03  0.17300000000E+03 0. -1.
         -6    1    1    2    0  502 -0.55465619729E+02 -0.93153101912E+02  0.74009770102E+03  0.76774184621E+03  0.17300000000E+03 0.  1.
<mgrwt>
<rscale>  2 0.20416399E+03</rscale>
<asrwt>0</asrwt>
<pdfrwt beam="1">  1       21 0.13284796E+00 0.20416399E+03</pdfrwt>
<pdfrwt beam="2">  1       21 0.16755186E-01 0.20416399E+03</pdfrwt>
<totfact> 0.13005394E+04</totfact>
</mgrwt>
</event>
<event>
 4    1  0.4365842E+000  0.1996703E+03  0.7546771E-02  0.1150017E+00
         21   -1    0    0  501  502  0.00000000000E+00  0.00000000000E+00  0.31854938568E+03  0.31854938568E+03  0.00000000000E+00 0. -1.
         21   -1    0    0  502  503 -0.00000000000E+00 -0.00000000000E+00 -0.28881987403E+03  0.28881987403E+03  0.00000000000E+00 0. -1.
          6    1    1    2  501    0  0.88257622816E+02  0.46366195796E+02  0.24347003208E+03  0.31487440134E+03  0.17300000000E+03 0. -1.
         -6    1    1    2    0  503 -0.88257622816E+02 -0.46366195796E+02 -0.21374052043E+03  0.29249485837E+03  0.17300000000E+03 0. -1.
<mgrwt>
<rscale>  2 0.19967031E+03</rscale>
<asrwt>0</asrwt>
<pdfrwt beam="1">  1       21 0.49007598E-01 0.19967031E+03</pdfrwt>
<pdfrwt beam="2">  1       21 0.44433827E-01 0.19967031E+03</pdfrwt>
<totfact> 0.19239240E+04</totfact>
</mgrwt>
</event>
<event>
 4    1  0.4365842E+000  0.2359633E+03  0.7546771E-02  0.1122512E+00
         21   -1    0    0  501  502  0.00000000000E+00  0.00000000000E+00  0.12413797267E+03  0.12413797267E+03  0.00000000000E+00 0. -1.
         21   -1    0    0  502  503 -0.00000000000E+00 -0.00000000000E+00 -0.59435950942E+03  0.59435950942E+03  0.00000000000E+00 0. -1.
          6    1    1    2  501    0  0.10966741513E+03 -0.11714408636E+03 -0.57158117718E+02  0.24278741592E+03  0.17300000000E+03 0. -1.
         -6    1    1    2    0  503 -0.10966741513E+03  0.11714408636E+03 -0.41306341903E+03  0.47571006616E+03  0.17300000000E+03 0. -1.
<mgrwt>
<rscale>  2 0.23596330E+03</rscale>
<asrwt>0</asrwt>
<pdfrwt beam="1">  1       21 0.19098150E-01 0.23596330E+03</pdfrwt>
<pdfrwt beam="2">  1       21 0.91439925E-01 0.23596330E+03</pdfrwt>
<totfact> 0.24871442E+04</totfact>
</mgrwt>
</event>
<event>
 4    1  0.4365842E+000  0.3506165E+03  0.7546771E-02  0.1062362E+00
         21   -1    0    0  503  502  0.00000000000E+00  0.00000000000E+00  0.26094159449E+03  0.26094159449E+03  0.00000000000E+00 0. -1.
         21   -1    0    0  501  503 -0.00000000000E+00 -0.00000000000E+00 -0.87326930973E+03  0.87326930973E+03  0.00000000000E+00 0.  1.
          6    1    1    2  501    0  0.13835133688E+03  0.27177528817E+03 -0.69101200251E+03  0.77487385250E+03  0.17300000000E+03 0.  1.
         -6    1    1    2    0  502 -0.13835133688E+03 -0.27177528817E+03  0.78684287266E+02  0.35933705172E+03  0.17300000000E+03 0. -1.
<mgrwt>
<rscale>  2 0.35061646E+03</rscale>
<asrwt>0</asrwt>
<pdfrwt beam="1">  1       21 0.40144860E-01 0.35061646E+03</pdfrwt>
<pdfrwt beam="2">  1       21 0.13434913E+00 0.35061646E+03</pdfrwt>
<totfact> 0.21345286E+03</totfact>
</mgrwt>
</event>
<event>
 4    1  0.4365842E+000  0.1904670E+03  0.7546771E-02  0.1158041E+00
         21   -1    0    0  501  502  0.00000000000E+00  0.00000000000E+00  0.34602394111E+03  0.34602394111E+03  0.00000000000E+00 0. -1.
         21   -1    0    0  502  503 -0.00000000000E+00 -0.00000000000E+00 -0.11582029834E+03  0.11582029834E+03  0.00000000000E+00 0. -1.
          6    1    1    2  501    0 -0.69210544249E+02  0.39478809279E+02  0.18619864713E+03  0.26635992944E+03  0.17300000000E+03 0. -1.
         -6    1    1    2    0  503  0.69210544249E+02 -0.39478809279E+02  0.44004995645E+02  0.19548431001E+03  0.17300000000E+03 0. -1.
<mgrwt>
<rscale>  2 0.19046699E+03</rscale>
<asrwt>0</asrwt>
<pdfrwt beam="1">  1       21 0.53234452E-01 0.19046699E+03</pdfrwt>
<pdfrwt beam="2">  1       21 0.17818508E-01 0.19046699E+03</pdfrwt>
<totfact> 0.95672196E+04</totfact>
</mgrwt>
</event>
<event>
 4    1  0.4365842E+000  0.3094103E+03  0.7546771E-02  0.1080629E+00
         21   -1    0    0  501  502  0.00000000000E+00  0.00000000000E+00  0.66055957880E+03  0.66055957880E+03  0.00000000000E+00 0. -1.
         21   -1    0    0  502  503 -0.00000000000E+00 -0.00000000000E+00 -0.70706588172E+03  0.70706588172E+03  0.00000000000E+00 0. -1.
          6    1    1    2  501    0  0.85204940203E+02 -0.24196247189E+03  0.58646342157E+03  0.66307922942E+03  0.17300000000E+03 0. -1.
         -6    1    1    2    0  503 -0.85204940203E+02  0.24196247189E+03 -0.63296972450E+03  0.70454623111E+03  0.17300000000E+03 0. -1.
<mgrwt>
<rscale>  2 0.30941028E+03</rscale>
<asrwt>0</asrwt>
<pdfrwt beam="1">  1       21 0.10162455E+00 0.30941028E+03</pdfrwt>
<pdfrwt beam="2">  1       21 0.10877937E+00 0.30941028E+03</pdfrwt>
<totfact> 0.47843698E+02</totfact>
</mgrwt>
</event>
<event>
 4    1  0.4365842E+000  0.3223375E+03  0.7546771E-02  0.1074579E+00
         21   -1    0    0  503  502  0.00000000000E+00  0.00000000000E+00  0.85831067853E+03  0.85831067853E+03  0.00000000000E+00 0. -1.
         21   -1    0    0  501  503 -0.00000000000E+00 -0.00000000000E+00 -0.17203482445E+03  0.17203482445E+03  0.00000000000E+00 0.  1.
          6    1    1    2  501    0 -0.24898234985E+03 -0.10945420241E+03  0.62691024482E+02  0.32837721832E+03  0.17300000000E+03 0.  1.
         -6    1    1    2    0  502  0.24898234985E+03  0.10945420241E+03  0.62358482959E+03  0.70196828466E+03  0.17300000000E+03 0. -1.
<mgrwt>
<rscale>  2 0.32233745E+03</rscale>
<asrwt>0</asrwt>
<pdfrwt beam="1">  1       21 0.13204779E+00 0.32233745E+03</pdfrwt>
<pdfrwt beam="2">  1       21 0.26466897E-01 0.32233745E+03</pdfrwt>
<totfact> 0.51968736E+03</totfact>
</mgrwt>
</event>
<event>
 4    1  0.4365842E+000  0.1967542E+03  0.7546771E-02  0.1152507E+00
         21   -1    0    0  503  502  0.00000000000E+00  0.00000000000E+00  0.59809562029E+02  0.59809562029E+02  0.00000000000E+00 0.  1.
         21   -1    0    0  501  503 -0.00000000000E+00 -0.00000000000E+00 -0.70676253800E+03  0.70676253800E+03  0.00000000000E+00 0. -1.
          6    1    1    2  501    0 -0.18898342512E+02  0.91793721858E+02 -0.43469068878E+03  0.47714592069E+03  0.17300000000E+03 0. -1.
         -6    1    1    2    0  502  0.18898342512E+02 -0.91793721858E+02 -0.21226228720E+03  0.28942617934E+03  0.17300000000E+03 0.  1.
<mgrwt>
<rscale>  2 0.19675425E+03</rscale>
<asrwt>0</asrwt>
<pdfrwt beam="1">  1       21 0.92014712E-02 0.19675425E+03</pdfrwt>
<pdfrwt beam="2">  1       21 0.10873270E+00 0.19675425E+03</pdfrwt>
<totfact> 0.62981538E+04</totfact>
</mgrwt>
</event>
<event>
 4    1  0.4365842E+000  0.1850166E+03  0.7546771E-02  0.1163034E+00
         21   -1    0    0  501  502  0.00000000000E+00  0.00000000000E+00  0.14450092360E+04  0.14450092360E+04  0.00000000000E+00 0.  1.
         21   -1    0    0  502  503 -0.00000000000E+00 -0.00000000000E+00 -0.42812381355E+02  0.42812381355E+02  0.00000000000E+00 0.  1.
          6    1    1    2  501    0  0.56810016134E+02  0.32783553655E+02  0.11982811629E+04  0.12124804678E+04  0.17300000000E+03 0.  1.
         -6    1    1    2    0  503 -0.56810016134E+02 -0.32783553655E+02  0.20391569174E+03  0.27534114960E+03  0.17300000000E+03 0.  1.
<mgrwt>
<rscale>  2 0.18501659E+03</rscale>
<asrwt>0</asrwt>
<pdfrwt beam="1">  1       21 0.22230908E+00 0.18501659E+03</pdfrwt>
<pdfrwt beam="2">  1       21 0.65865213E-02 0.18501659E+03</pdfrwt>
<totfact> 0.16465172E+04</totfact>
</mgrwt>
</event>
<event>
 4    1  0.4365842E+000  0.2175998E+03  0.7546771E-02  0.1135685E+00
         21   -1    0    0  503  502  0.00000000000E+00  0.00000000000E+00  0.21304371875E+03  0.21304371875E+03  0.00000000000E+00 0. -1.
         21   -1    0    0  501  503 -0.00000000000E+00 -0.00000000000E+00 -0.28887778812E+03  0.28887778812E+03  0.00000000000E+00 0.  1.
          6    1    1    2  501    0 -0.92750056387E+02 -0.93904811219E+02 -0.15843878137E+03  0.26917008373E+03  0.17300000000E+03 0.  1.
         -6    1    1    2    0  502  0.92750056387E+02  0.93904811219E+02  0.82604712006E+02  0.23275142314E+03  0.17300000000E+03 0. -1.
<mgrwt>
<rscale>  2 0.21759983E+03</rscale>
<asrwt>0</asrwt>
<pdfrwt beam="1">  1       21 0.32775957E-01 0.21759983E+03</pdfrwt>
<pdfrwt beam="2">  1       21 0.44442737E-01 0.21759983E+03</pdfrwt>
<totfact> 0.43024959E+04</totfact>
</mgrwt>
</event>
<event>
 4    1  0.4365842E+000  0.2786658E+03  0.7546771E-02  0.1096420E+00
         21   -1    0    0  503  502  0.00000000000E+00  0.00000000000E+00  0.10570089927E+04  0.10570089927E+04  0.00000000000E+00 0.  1.
         21   -1    0    0  501  503 -0.00000000000E+00 -0.00000000000E+00 -0.83566262659E+02  0.83566262659E+02  0.00000000000E+00 0. -1.
          6    1    1    2  501    0  0.21806386547E+03 -0.13183494425E+02  0.28846094525E+03  0.40107900828E+03  0.17300000000E+03 0.  1.
         -6    1    1    2    0  502 -0.21806386547E+03  0.13183494425E+02  0.68498178477E+03  0.73949624706E+03  0.17300000000E+03 0.  1.
<mgrwt>
<rscale>  2 0.27866585E+03</rscale>
<asrwt>0</asrwt>
<pdfrwt beam="1">  1       21 0.16261676E+00 0.27866585E+03</pdfrwt>
<pdfrwt beam="2">  1       21 0.12856349E-01 0.27866585E+03</pdfrwt>
<totfact> 0.11819522E+04</totfact>
</mgrwt>
</event>
<event>
 4    1  0.4365842E+000  0.3549747E+03  0.7546771E-02  0.1060592E+00
         21   -1    0    0  501  502  0.00000000000E+00  0.00000000000E+00  0.28145524811E+03  0.28145524811E+03  0.00000000000E+00 0.  1.
         21   -1    0    0  502  503 -0.00000000000E+00 -0.00000000000E+00 -0.76271951968E+03  0.76271951968E+03  0.00000000000E+00 0. -1.
          6    1    1    2  501    0 -0.28666628060E+03  0.11790029829E+03  0.94897334236E+02  0.36744052691E+03  0.17300000000E+03 0.  1.
         -6    1    1    2    0  503  0.28666628060E+03 -0.11790029829E+03 -0.57616160581E+03  0.67673424088E+03  0.17300000000E+03 0. -1.
<mgrwt>
<rscale>  2 0.35497470E+03</rscale>
<asrwt>0</asrwt>
<pdfrwt beam="1">  1       21 0.43300807E-01 0.35497470E+03</pdfrwt>
<pdfrwt beam="2">  1       21 0.11734147E+00 0.35497470E+03</pdfrwt>
<totfact> 0.25747412E+03</totfact>
</mgrwt>
</event>
<event>
 4    1  0.4365842E+000  0.2205063E+03  0.7546771E-02  0.1133506E+00
         21   -1    0    0  503  502  0.00000000000E+00  0.00000000000E+00  0.43593545147E+02  0.43593545147E+02  0.00000000000E+00 0. -1.
         21   -1    0    0  501  503 -0.00000000000E+00 -0.00000000000E+00 -0.14179526285E+04  0.14179526285E+04  0.00000000000E+00 0. -1.
          6    1    1    2  501    0  0.80375446170E+02  0.11060667561E+03 -0.10247556949E+04  0.10482114688E+04  0.17300000000E+03 0. -1.
         -6    1    1    2    0  502 -0.80375446170E+02 -0.11060667561E+03 -0.34960338845E+03  0.41333470487E+03  0.17300000000E+03 0. -1.
<mgrwt>
<rscale>  2 0.22050635E+03</rscale>
<asrwt>0</asrwt>
<pdfrwt beam="1">  1       21 0.67066981E-02 0.22050635E+03</pdfrwt>
<pdfrwt beam="2">  1       21 0.21814660E+00 0.22050635E+03</pdfrwt>
<totfact> 0.16453134E+04</totfact>
</mgrwt>
</event>
<event>
 4    1  0.4365842E+000  0.2089818E+03  0.7546771E-02  0.1142375E+00
         21   -1    0    0  503  502  0.00000000000E+00  0.00000000000E+00  0.17280557734E+03  0.17280557734E+03  0.00000000000E+00 0.  1.
         21   -1    0    0  501  503 -0.00000000000E+00 -0.00000000000E+00 -0.55542375050E+03  0.55542375050E+03  0.00000000000E+00 0.  1.
          6    1    1    2  501    0  0.90755207762E+02  0.74215118255E+02 -0.46010749049E+03  0.50534373877E+03  0.17300000000E+03 0.  1.
         -6    1    1    2    0  502 -0.90755207762E+02 -0.74215118255E+02  0.77489317323E+02  0.22288558906E+03  0.17300000000E+03 0.  1.
<mgrwt>
<rscale>  2 0.20898180E+03</rscale>
<asrwt>0</asrwt>
<pdfrwt beam="1">  1       21 0.26585473E-01 0.20898180E+03</pdfrwt>
<pdfrwt beam="2">  1       21 0.85449808E-01 0.20898180E+03</pdfrwt>
<totfact> 0.15775237E+04</totfact>
</mgrwt>
</event>
<event>
 4    1  0.4365842E+000  0.2432756E+03  0.7546771E-02  0.1117630E+00
         21   -1    0    0  501  502  0.00000000000E+00  0.00000000000E+00  0.11097576960E+03  0.11097576960E+03  0.00000000000E+00 0.  1.
         21   -1    0    0  502  503 -0.00000000000E+00 -0.00000000000E+00 -0.57806307060E+03  0.57806307060E+03  0.00000000000E+00 0. -1.
          6    1    1    2  501    0 -0.15288514611E+03  0.76682258289E+02 -0.13766962826E+03  0.27952810804E+03  0.17300000000E+03 0.  1.
         -6    1    1    2    0  503  0.15288514611E+03 -0.76682258289E+02 -0.32941767275E+03  0.40951073216E+03  0.17300000000E+03 0. -1.
<mgrwt>
<rscale>  2 0.24327564E+03</rscale>
<asrwt>0</asrwt>
<pdfrwt beam="1">  1       21 0.17073195E-01 0.24327564E+03</pdfrwt>
<pdfrwt beam="2">  1       21 0.88932782E-01 0.24327564E+03</pdfrwt>
<totfact> 0.32569649E+04</totfact>
</mgrwt>
</event>
<event>
 4    1  0.4365842E+000  0.2393343E+03  0.7546771E-02  0.1120237E+00
         21   -1    0    0  503  502  0.00000000000E+00  0.00000000000E+00  0.12747243562E+03  0.12747243562E+03  0.00000000000E+00 0.  1.
         21   -1    0    0  501  503 -0.00000000000E+00 -0.00000000000E+00 -0.53086933400E+03  0.53086933400E+03  0.00000000000E+00 0.  1.
          6    1    1    2  501    0 -0.12625676281E+03 -0.10682284789E+03 -0.33068185247E+03  0.40820506922E+03  0.17300000000E+03 0.  1.
         -6    1    1    2    0  502  0.12625676281E+03  0.10682284789E+03 -0.72715045917E+02  0.25013670040E+03  0.17300000000E+03 0.  1.
<mgrwt>
<rscale>  2 0.23933427E+03</rscale>
<asrwt>0</asrwt>
<pdfrwt beam="1">  1       21 0.19611144E-01 0.23933427E+03</pdfrwt>
<pdfrwt beam="2">  1       21 0.81672206E-01 0.23933427E+03</pdfrwt>
<totfact> 0.30671671E+04</totfact>
</mgrwt>
</event>
<event>
 4    1  0.4365842E+000  0.1817607E+03  0.7546771E-02  0.1166110E+00
         21   -1    0    0  503  502  0.00000000000E+00  0.00000000000E+00  0.27718331777E+03  0.27718331777E+03  0.00000000000E+00 0. -1.
         21   -1    0    0  501  503 -0.00000000000E+00 -0.00000000000E+00 -0.16716328666E+03  0.16716328666E+03  0.00000000000E+00 0.  1.
          6    1    1    2  501    0 -0.55748092454E+02  0.31093137826E+00 -0.64012702080E+02  0.19270332773E+03  0.17300000000E+03 0.  1.
         -6    1    1    2    0  502  0.55748092454E+02 -0.31093137826E+00  0.17403273318E+03  0.25164327670E+03  0.17300000000E+03 0. -1.
<mgrwt>
<rscale>  2 0.18176068E+03</rscale>
<asrwt>0</asrwt>
<pdfrwt beam="1">  1       21 0.42643587E-01 0.18176068E+03</pdfrwt>
<pdfrwt beam="2">  1       21 0.25717429E-01 0.18176068E+03</pdfrwt>
<totfact> 0.76246512E+04</totfact>
</mgrwt>
</event>
<event>
 4    1  0.4365842E+000  0.1771048E+03  0.7546771E-02  0.1170635E+00
         21   -1    0    0  503  502  0.00000000000E+00  0.00000000000E+00  0.18835746582E+03  0.18835746582E+03  0.00000000000E+00 0.  1.
         21   -1    0    0  501  503 -0.00000000000E+00 -0.00000000000E+00 -0.20933023965E+03  0.20933023965E+03  0.00000000000E+00 0.  1.
          6    1    1    2  501    0 -0.22163200710E+02 -0.30755725530E+02  0.79431786259E+02  0.19410185673E+03  0.17300000000E+03 0.  1.
         -6    1    1    2    0  502  0.22163200710E+02  0.30755725530E+02 -0.10040456009E+03  0.20358584873E+03  0.17300000000E+03 0.  1.
<mgrwt>
<rscale>  2 0.17710483E+03</rscale>
<asrwt>0</asrwt>
<pdfrwt beam="1">  1       21 0.28978072E-01 0.17710483E+03</pdfrwt>
<pdfrwt beam="2">  1       21 0.32204652E-01 0.17710483E+03</pdfrwt>
<totfact> 0.10634180E+05</totfact>
</mgrwt>
</event>
<event>
 4    1  0.4365842E+000  0.3275795E+03  0.7546771E-02  0.1072213E+00
         21   -1    0    0  503  502  0.00000000000E+00  0.00000000000E+00  0.29413752557E+03  0.29413752557E+03  0.00000000000E+00 0.  1.
         21   -1    0    0  501  503 -0.00000000000E+00 -0.00000000000E+00 -0.42237640323E+03  0.42237640323E+03  0.00000000000E+00 0.  1.
          6    1    1    2  501    0 -0.39259346138E+01 -0.27814373988E+03 -0.19636390861E+03  0.38192556553E+03  0.17300000000E+03 0.  1.
         -6    1    1    2    0  502  0.39259346138E+01  0.27814373988E+03  0.68125030948E+02  0.33458836328E+03  0.17300000000E+03 0.  1.
<mgrwt>
<rscale>  2 0.32757954E+03</rscale>
<asrwt>0</asrwt>
<pdfrwt beam="1">  1       21 0.45251927E-01 0.32757954E+03</pdfrwt>
<pdfrwt beam="2">  1       21 0.64980985E-01 0.32757954E+03</pdfrwt>
<totfact> 0.94987710E+03</totfact>
</mgrwt>
</event>
<event>
 4    1  0.4365842E+000  0.1956986E+03  0.7546771E-02  0.1153420E+00
         21   -1    0    0  501  502  0.00000000000E+00  0.00000000000E+00  0.11426663589E+03  0.11426663589E+03  0.00000000000E+00 0.  1.
         21   -1    0    0  502  503 -0.00000000000E+00 -0.00000000000E+00 -0.54352923775E+03  0.54352923775E+03  0.00000000000E+00 0.  1.
          6    1    1    2  501    0 -0.43543262477E+02 -0.80454386898E+02 -0.10991065039E+02  0.19600695801E+03  0.17300000000E+03 0.  1.
         -6    1    1    2    0  503  0.43543262477E+02  0.80454386898E+02 -0.41827153683E+03  0.46178891563E+03  0.17300000000E+03 0.  1.
<mgrwt>
<rscale>  2 0.19569855E+03</rscale>
<asrwt>0</asrwt>
<pdfrwt beam="1">  1       21 0.17579483E-01 0.19569855E+03</pdfrwt>
<pdfrwt beam="2">  1       21 0.83619882E-01 0.19569855E+03</pdfrwt>
<totfact> 0.36423199E+04</totfact>
</mgrwt>
</event>
<event>
 4    1  0.4365842E+000  0.1781419E+03  0.7546771E-02  0.1169614E+00
         21   -1    0    0  501  502  0.00000000000E+00  0.00000000000E+00  0.11116917320E+04  0.11116917320E+04  0.00000000000E+00 0.  1.
         21   -1    0    0  502  503 -0.00000000000E+00 -0.00000000000E+00 -0.30352523894E+02  0.30352523894E+02  0.00000000000E+00 0. -1.
          6    1    1    2  501    0  0.40910746736E+02  0.11481725491E+02  0.40136697056E+03  0.43912408756E+03  0.17300000000E+03 0. -1.
         -6    1    1    2    0  503 -0.40910746736E+02 -0.11481725491E+02  0.67997223759E+03  0.70292016837E+03  0.17300000000E+03 0. -1.
<mgrwt>
<rscale>  2 0.17814185E+03</rscale>
<asrwt>0</asrwt>
<pdfrwt beam="1">  1       21 0.17102947E+00 0.17814185E+03</pdfrwt>
<pdfrwt beam="2">  1       21 0.46696199E-02 0.17814185E+03</pdfrwt>
<totfact> 0.63902485E+04</totfact>
</mgrwt>
</event>
<event>
 4    1  0.4365842E+000  0.1779151E+03  0.7546771E-02  0.1169836E+00
         21   -1    0    0  503  502  0.00000000000E+00  0.00000000000E+00  0.24381662408E+03  0.24381662408E+03  0.00000000000E+00 0. -1.
         21   -1    0    0  501  503 -0.00000000000E+00 -0.00000000000E+00 -0.13213587328E+03  0.13213587328E+03  0.00000000000E+00 0. -1.
          6    1    1    2  501    0  0.29108892584E+02  0.29621848424E+02  0.30987907024E+02  0.18059355446E+03  0.17300000000E+03 0. -1.
         -6    1    1    2    0  502 -0.29108892584E+02 -0.29621848424E+02  0.80692843773E+02  0.19535894289E+03  0.17300000000E+03 0. -1.
<mgrwt>
<rscale>  2 0.17791510E+03</rscale>
<asrwt>0</asrwt>
<pdfrwt beam="1">  1       21 0.37510250E-01 0.17791510E+03</pdfrwt>
<pdfrwt beam="2">  1       21 0.20328596E-01 0.17791510E+03</pdfrwt>
<totfact> 0.15419846E+05</totfact>
</mgrwt>
</event>
<event>
 4    1  0.4365842E+000  0.2134089E+03  0.7546771E-02  0.1138895E+00
         21   -1    0    0  501  502  0.00000000000E+00  0.00000000000E+00  0.82436860935E+03  0.82436860935E+03  0.00000000000E+00 0.  1.
         21   -1    0    0  502  503 -0.00000000000E+00 -0.00000000000E+00 -0.55385338795E+02  0.55385338795E+02  0.00000000000E+00 0. -1.
          6    1    1    2  501    0  0.64277226696E+02 -0.10715787974E+03  0.40652560472E+03  0.45913662493E+03  0.17300000000E+03 0.  1.
         -6    1    1    2    0  503 -0.64277226696E+02  0.10715787974E+03  0.36245766584E+03  0.42061732321E+03  0.17300000000E+03 0. -1.
<mgrwt>
<rscale>  2 0.21340893E+03</rscale>
<asrwt>0</asrwt>
<pdfrwt beam="1">  1       21 0.12682593E+00 0.21340893E+03</pdfrwt>
<pdfrwt beam="2">  1       21 0.85208220E-02 0.21340893E+03</pdfrwt>
<totfact> 0.48906966E+04</totfact>
</mgrwt>
</event>
<event>
 4    1  0.4365842E+000  0.1817347E+03  0.7546771E-02  0.1166135E+00
         21   -1    0    0  501  502  0.00000000000E+00  0.00000000000E+00  0.63025401506E+02  0.63025401506E+02  0.00000000000E+00 0. -1.
         21   -1    0    0  502  503 -0.00000000000E+00 -0.00000000000E+00 -0.54954079550E+03  0.54954079550E+03  0.00000000000E+00 0. -1.
          6    1    1    2  501    0 -0.28411397900E+01 -0.55591718500E+02 -0.30924238689E+03  0.35868978950E+03  0.17300000000E+03 0. -1.
         -6    1    1    2    0  503  0.28411397900E+01  0.55591718500E+02 -0.17727300710E+03  0.25387640751E+03  0.17300000000E+03 0. -1.
<mgrwt>
<rscale>  2 0.18173473E+03</rscale>
<asrwt>0</asrwt>
<pdfrwt beam="1">  1       21 0.96962160E-02 0.18173473E+03</pdfrwt>
<pdfrwt beam="2">  1       21 0.84544734E-01 0.18173473E+03</pdfrwt>
<totfact> 0.10438604E+05</totfact>
</mgrwt>
</event>
<event>
 4    1  0.4365842E+000  0.1745706E+03  0.7546771E-02  0.1173164E+00
         21   -1    0    0  503  502  0.00000000000E+00  0.00000000000E+00  0.67378333820E+03  0.67378333820E+03  0.00000000000E+00 0.  1.
         21   -1    0    0  501  503 -0.00000000000E+00 -0.00000000000E+00 -0.46479372033E+02  0.46479372033E+02  0.00000000000E+00 0.  1.
          6    1    1    2  501    0 -0.70874659118E+01 -0.22263552898E+02  0.25459655059E+03  0.30869775110E+03  0.17300000000E+03 0. -1.
         -6    1    1    2    0  502  0.70874659118E+01  0.22263552898E+02  0.37270741558E+03  0.41156495914E+03  0.17300000000E+03 0. -1.
<mgrwt>
<rscale>  2 0.17457061E+03</rscale>
<asrwt>0</asrwt>
<pdfrwt beam="1">  1       21 0.10365897E+00 0.17457061E+03</pdfrwt>
<pdfrwt beam="2">  1       21 0.71506731E-02 0.17457061E+03</pdfrwt>
<totfact> 0.11066845E+05</totfact>
</mgrwt>
</event>
<event>
 4    1  0.4365842E+000  0.1793581E+03  0.7546771E-02  0.1168426E+00
         21   -1    0    0  503  502  0.00000000000E+00  0.00000000000E+00  0.15685469765E+03  0.15685469765E+03  0.00000000000E+00 0.  1.
         21   -1    0    0  501  503 -0.00000000000E+00 -0.00000000000E+00 -0.72596503990E+03  0.72596503990E+03  0.00000000000E+00 0.  1.
          6    1    1    2  501    0  0.45632704189E+02  0.12569558407E+02 -0.65845127392E+03  0.68244224490E+03  0.17300000000E+03 0.  1.
         -6    1    1    2    0  502 -0.45632704189E+02 -0.12569558407E+02  0.89340931677E+02  0.20037749266E+03  0.17300000000E+03 0.  1.
<mgrwt>
<rscale>  2 0.17935813E+03</rscale>
<asrwt>0</asrwt>
<pdfrwt beam="1">  1       21 0.24131492E-01 0.17935813E+03</pdfrwt>
<pdfrwt beam="2">  1       21 0.11168693E+00 0.17935813E+03</pdfrwt>
<totfact> 0.10296751E+04</totfact>
</mgrwt>
</event>
<event>
 4    1  0.4365842E+000  0.2260264E+03  0.7546771E-02  0.1129468E+00
         21   -1    0    0  503  502  0.00000000000E+00  0.00000000000E+00  0.27596347178E+03  0.27596347178E+03  0.00000000000E+00 0. -1.
         21   -1    0    0  501  503 -0.00000000000E+00 -0.00000000000E+00 -0.29800574473E+03  0.29800574473E+03  0.00000000000E+00 0. -1.
          6    1    1    2  501    0  0.53450661992E+02 -0.13528477486E+03 -0.18764719796E+03  0.29376761986E+03  0.17300000000E+03 0. -1.
         -6    1    1    2    0  502 -0.53450661992E+02  0.13528477486E+03  0.16560492501E+03  0.28020159665E+03  0.17300000000E+03 0. -1.
<mgrwt>
<rscale>  2 0.22602642E+03</rscale>
<asrwt>0</asrwt>
<pdfrwt beam="1">  1       21 0.42455919E-01 0.22602642E+03</pdfrwt>
<pdfrwt beam="2">  1       21 0.45847037E-01 0.22602642E+03</pdfrwt>
<totfact> 0.23895882E+04</totfact>
</mgrwt>
</event>
<event>
 4    1  0.4365842E+000  0.2438383E+03  0.7546771E-02  0.1117262E+00
         21   -1    0    0  501  502  0.00000000000E+00  0.00000000000E+00  0.68712765891E+03  0.68712765891E+03  0.00000000000E+00 0. -1.
         21   -1    0    0  502  503 -0.00000000000E+00 -0.00000000000E+00 -0.10305167070E+03  0.10305167070E+03  0.00000000000E+00 0.  1.
          6    1    1    2  501    0  0.12367144599E+03  0.11930429049E+03  0.45023397233E+03  0.51202321249E+03  0.17300000000E+03 0. -1.
         -6    1    1    2    0  503 -0.12367144599E+03 -0.11930429049E+03  0.13384201588E+03  0.27815611713E+03  0.17300000000E+03 0.  1.
<mgrwt>
<rscale>  2 0.24383835E+03</rscale>
<asrwt>0</asrwt>
<pdfrwt beam="1">  1       21 0.10571194E+00 0.24383835E+03</pdfrwt>
<pdfrwt beam="2">  1       21 0.15854104E-01 0.24383835E+03</pdfrwt>
<totfact> 0.24777381E+04</totfact>
</mgrwt>
</event>
<event>
 4    1  0.4365842E+000  0.1772871E+03  0.7546771E-02  0.1170455E+00
         21   -1    0    0  503  502  0.00000000000E+00  0.00000000000E+00  0.20800835876E+03  0.20800835876E+03  0.00000000000E+00 0.  1.
         21   -1    0    0  501  503 -0.00000000000E+00 -0.00000000000E+00 -0.15110671798E+03  0.15110671798E+03  0.00000000000E+00 0.  1.
          6    1    1    2  501    0 -0.11538220778E+02 -0.36994440675E+02  0.27578861257E+02  0.17941937679E+03  0.17300000000E+03 0.  1.
         -6    1    1    2    0  502  0.11538220778E+02  0.36994440675E+02  0.29322779524E+02  0.17969569994E+03  0.17300000000E+03 0.  1.
<mgrwt>
<rscale>  2 0.17728711E+03</rscale>
<asrwt>0</asrwt>
<pdfrwt beam="1">  1       21 0.32001286E-01 0.17728711E+03</pdfrwt>
<pdfrwt beam="2">  1       21 0.23247187E-01 0.17728711E+03</pdfrwt>
<totfact> 0.16412450E+05</totfact>
</mgrwt>
</event>
<event>
 4    1  0.4365842E+000  0.1785571E+03  0.7546771E-02  0.1169207E+00
         21   -1    0    0  503  502  0.00000000000E+00  0.00000000000E+00  0.37917974983E+03  0.37917974983E+03  0.00000000000E+00 0. -1.
         21   -1    0    0  501  503 -0.00000000000E+00 -0.00000000000E+00 -0.14887264298E+03  0.14887264298E+03  0.00000000000E+00 0. -1.
          6    1    1    2  501    0  0.42317798949E+02  0.12761427107E+02 -0.59023790293E+02  0.18805971911E+03  0.17300000000E+03 0. -1.
         -6    1    1    2    0  502 -0.42317798949E+02 -0.12761427107E+02  0.28933089715E+03  0.33999267371E+03  0.17300000000E+03 0. -1.
<mgrwt>
<rscale>  2 0.17855713E+03</rscale>
<asrwt>0</asrwt>
<pdfrwt beam="1">  1       21 0.58335346E-01 0.17855713E+03</pdfrwt>
<pdfrwt beam="2">  1       21 0.22903484E-01 0.17855713E+03</pdfrwt>
<totfact> 0.49569089E+04</totfact>
</mgrwt>
</event>
<event>
 4    1  0.4365842E+000  0.1998753E+03  0.7546771E-02  0.1149844E+00
         21   -1    0    0  503  502  0.00000000000E+00  0.00000000000E+00  0.26019820306E+03  0.26019820306E+03  0.00000000000E+00 0.  1.
         21   -1    0    0  501  503 -0.00000000000E+00 -0.00000000000E+00 -0.17142863191E+03  0.17142863191E+03  0.00000000000E+00 0. -1.
          6    1    1    2  501    0 -0.82049953808E+01 -0.99768877551E+02 -0.25335170449E+02  0.20147461810E+03  0.17300000000E+03 0. -1.
         -6    1    1    2    0  502  0.82049953808E+01  0.99768877551E+02  0.11410474160E+03  0.23015221687E+03  0.17300000000E+03 0.  1.
<mgrwt>
<rscale>  2 0.19987534E+03</rscale>
<asrwt>0</asrwt>
<pdfrwt beam="1">  1       21 0.40030493E-01 0.19987534E+03</pdfrwt>
<pdfrwt beam="2">  1       21 0.26373636E-01 0.19987534E+03</pdfrwt>
<totfact> 0.81976593E+04</totfact>
</mgrwt>
</event>
<event>
 4    1  0.4365842E+000  0.1800013E+03  0.7546771E-02  0.1167802E+00
         21   -1    0    0  503  502  0.00000000000E+00  0.00000000000E+00  0.80717036302E+03  0.80717036302E+03  0.00000000000E+00 0.  1.
         21   -1    0    0  501  503 -0.00000000000E+00 -0.00000000000E+00 -0.40366967869E+02  0.40366967869E+02  0.00000000000E+00 0.  1.
          6    1    1    2  501    0 -0.49127522216E+02 -0.76117066932E+01  0.41512264898E+03  0.45246797148E+03  0.17300000000E+03 0.  1.
         -6    1    1    2    0  502  0.49127522216E+02  0.76117066932E+01  0.35168074617E+03  0.39506935941E+03  0.17300000000E+03 0.  1.
<mgrwt>
<rscale>  2 0.18000125E+03</rscale>
<asrwt>0</asrwt>
<pdfrwt beam="1">  1       21 0.12418004E+00 0.18000125E+03</pdfrwt>
<pdfrwt beam="2">  1       21 0.62103034E-02 0.18000125E+03</pdfrwt>
<totfact> 0.90654418E+04</totfact>
</mgrwt>
</event>
<event>
 4    1  0.4365842E+000  0.1908020E+03  0.7546771E-02  0.1157740E+00
         21   -1    0    0  503  502  0.00000000000E+00  0.00000000000E+00  0.56921358370E+02  0.56921358370E+02  0.00000000000E+00 0. -1.
         21   -1    0    0  501  503 -0.00000000000E+00 -0.00000000000E+00 -0.11660745447E+04  0.11660745447E+04  0.00000000000E+00 0. -1.
          6    1    1    2  501    0 -0.46540532210E+02 -0.65653449108E+02 -0.96547214315E+03  0.98414524117E+03  0.17300000000E+03 0. -1.
         -6    1    1    2    0  502  0.46540532210E+02  0.65653449108E+02 -0.14368104317E+03  0.23885066189E+03  0.17300000000E+03 0. -1.
<mgrwt>
<rscale>  2 0.19080198E+03</rscale>
<asrwt>0</asrwt>
<pdfrwt beam="1">  1       21 0.87571315E-02 0.19080198E+03</pdfrwt>
<pdfrwt beam="2">  1       21 0.17939609E+00 0.19080198E+03</pdfrwt>
<totfact> 0.18850290E+04</totfact>
</mgrwt>
</event>
<event>
 4    1  0.4365842E+000  0.1917286E+03  0.7546771E-02  0.1156911E+00
         21   -1    0    0  503  502  0.00000000000E+00  0.00000000000E+00  0.13401854125E+03  0.13401854125E+03  0.00000000000E+00 0.  1.
         21   -1    0    0  501  503 -0.00000000000E+00 -0.00000000000E+00 -0.39362038283E+03  0.39362038283E+03  0.00000000000E+00 0.  1.
          6    1    1    2  501    0  0.58610397838E+02  0.58272593797E+02 -0.27506041647E+03  0.33528809498E+03  0.17300000000E+03 0.  1.
         -6    1    1    2    0  502 -0.58610397838E+02 -0.58272593797E+02  0.15458574892E+02  0.19235082911E+03  0.17300000000E+03 0.  1.
<mgrwt>
<rscale>  2 0.19172865E+03</rscale>
<asrwt>0</asrwt>
<pdfrwt beam="1">  1       21 0.20618237E-01 0.19172865E+03</pdfrwt>
<pdfrwt beam="2">  1       21 0.60556982E-01 0.19172865E+03</pdfrwt>
<totfact> 0.55417201E+04</totfact>
</mgrwt>
</event>
<event>
 4    1  0.4365842E+000  0.2668755E+03  0.7546771E-02  0.1103081E+00
         21   -1    0    0  503  502  0.00000000000E+00  0.00000000000E+00  0.22943599302E+03  0.22943599302E+03  0.00000000000E+00 0. -1.
         21   -1    0    0  501  503 -0.00000000000E+00 -0.00000000000E+00 -0.46096303381E+03  0.46096303381E+03  0.00000000000E+00 0. -1.
          6    1    1    2  501    0 -0.16167585697E+03  0.12310330694E+03 -0.31303361761E+03  0.41135453402E+03  0.17300000000E+03 0. -1.
         -6    1    1    2    0  502  0.16167585697E+03 -0.12310330694E+03  0.81506576819E+02  0.27904449281E+03  0.17300000000E+03 0. -1.
<mgrwt>
<rscale>  2 0.26687545E+03</rscale>
<asrwt>0</asrwt>
<pdfrwt beam="1">  1       21 0.35297845E-01 0.26687545E+03</pdfrwt>
<pdfrwt beam="2">  1       21 0.70917389E-01 0.26687545E+03</pdfrwt>
<totfact> 0.13352342E+04</totfact>
</mgrwt>
</event>
<event>
 4    1  0.4365842E+000  0.1732139E+03  0.7546771E-02  0.1174537E+00
         21   -1    0    0  503  502  0.00000000000E+00  0.00000000000E+00  0.53105911799E+03  0.53105911799E+03  0.00000000000E+00 0. -1.
         21   -1    0    0  501  503 -0.00000000000E+00 -0.00000000000E+00 -0.58465998279E+02  0.58465998279E+02  0.00000000000E+00 0. -1.
          6    1    1    2  501    0  0.72653641996E+01 -0.46120373989E+01  0.18219835245E+03  0.25139470170E+03  0.17300000000E+03 0. -1.
         -6    1    1    2    0  502 -0.72653641996E+01  0.46120373989E+01  0.29039476726E+03  0.33813041457E+03  0.17300000000E+03 0. -1.
<mgrwt>
<rscale>  2 0.17321390E+03</rscale>
<asrwt>0</asrwt>
<pdfrwt beam="1">  1       21 0.81701400E-01 0.17321390E+03</pdfrwt>
<pdfrwt beam="2">  1       21 0.89947693E-02 0.17321390E+03</pdfrwt>
<totfact> 0.12914532E+05</totfact>
</mgrwt>
</event>
<event>
 4    1  0.4365842E+000  0.2007286E+03  0.7546771E-02  0.1149126E+00
         21   -1    0    0  503  502  0.00000000000E+00  0.00000000000E+00  0.54778331350E+02  0.54778331350E+02  0.00000000000E+00 0. -1.
         21   -1    0    0  501  503 -0.00000000000E+00 -0.00000000000E+00 -0.10641708231E+04  0.10641708231E+04  0.00000000000E+00 0.  1.
          6    1    1    2  501    0  0.68641041850E+02 -0.75175760301E+02 -0.81559916864E+03  0.83993689730E+03  0.17300000000E+03 0.  1.
         -6    1    1    2    0  502 -0.68641041850E+02  0.75175760301E+02 -0.19379332315E+03  0.27901225719E+03  0.17300000000E+03 0. -1.
<mgrwt>
<rscale>  2 0.20072864E+03</rscale>
<asrwt>0</asrwt>
<pdfrwt beam="1">  1       21 0.84274358E-02 0.20072864E+03</pdfrwt>
<pdfrwt beam="2">  1       21 0.16371858E+00 0.20072864E+03</pdfrwt>
<totfact> 0.25781015E+04</totfact>
</mgrwt>
</event>
<event>
 4    1  0.4365842E+000  0.2408456E+03  0.7546771E-02  0.1119231E+00
         21   -1    0    0  501  502  0.00000000000E+00  0.00000000000E+00  0.75462976625E+03  0.75462976625E+03  0.00000000000E+00 0. -1.
         21   -1    0    0  502  503 -0.00000000000E+00 -0.00000000000E+00 -0.81562525570E+02  0.81562525570E+02  0.00000000000E+00 0.  1.
          6    1    1    2  501    0 -0.15382805868E+03  0.66441825211E+02  0.43684371743E+03  0.49883767022E+03  0.17300000000E+03 0. -1.
         -6    1    1    2    0  503  0.15382805868E+03 -0.66441825211E+02  0.23622352325E+03  0.33735462160E+03  0.17300000000E+03 0. -1.
<mgrwt>
<rscale>  2 0.24084557E+03</rscale>
<asrwt>0</asrwt>
<pdfrwt beam="1">  1       21 0.11609688E+00 0.24084557E+03</pdfrwt>
<pdfrwt beam="2">  1       21 0.12548081E-01 0.24084557E+03</pdfrwt>
<totfact> 0.30227393E+04</totfact>
</mgrwt>
</event>
<event>
 4    1  0.4365842E+000  0.2207025E+03  0.7546771E-02  0.1133360E+00
         21   -1    0    0  503  502  0.00000000000E+00  0.00000000000E+00  0.14995242778E+03  0.14995242778E+03  0.00000000000E+00 0. -1.
         21   -1    0    0  501  503 -0.00000000000E+00 -0.00000000000E+00 -0.43985720509E+03  0.43985720509E+03  0.00000000000E+00 0. -1.
          6    1    1    2  501    0 -0.12966314503E+03 -0.44362760325E+02 -0.29575869878E+03  0.36902952942E+03  0.17300000000E+03 0. -1.
         -6    1    1    2    0  502  0.12966314503E+03  0.44362760325E+02  0.58539214602E+01  0.22078010345E+03  0.17300000000E+03 0. -1.
<mgrwt>
<rscale>  2 0.22070248E+03</rscale>
<asrwt>0</asrwt>
<pdfrwt beam="1">  1       21 0.23069605E-01 0.22070248E+03</pdfrwt>
<pdfrwt beam="2">  1       21 0.67670338E-01 0.22070248E+03</pdfrwt>
<totfact> 0.34713454E+04</totfact>
</mgrwt>
</event>
<event>
 4    1  0.4365842E+000  0.1861163E+03  0.7546771E-02  0.1162012E+00
         21   -1    0    0  501  502  0.00000000000E+00  0.00000000000E+00  0.21639070490E+03  0.21639070490E+03  0.00000000000E+00 0. -1.
         21   -1    0    0  502  503 -0.00000000000E+00 -0.00000000000E+00 -0.16615788551E+03  0.16615788551E+03  0.00000000000E+00 0. -1.
          6    1    1    2  501    0  0.10910317937E+02  0.67758792899E+02  0.61706265776E+02  0.19607894402E+03  0.17300000000E+03 0.  1.
         -6    1    1    2    0  503 -0.10910317937E+02 -0.67758792899E+02 -0.11473446383E+02  0.18646964639E+03  0.17300000000E+03 0.  1.
<mgrwt>
<rscale>  2 0.18611633E+03</rscale>
<asrwt>0</asrwt>
<pdfrwt beam="1">  1       21 0.33290878E-01 0.18611633E+03</pdfrwt>
<pdfrwt beam="2">  1       21 0.25562752E-01 0.18611633E+03</pdfrwt>
<totfact> 0.12641000E+05</totfact>
</mgrwt>
</event>
<event>
 4    1  0.4365842E+000  0.2066573E+03  0.7546771E-02  0.1144241E+00
         21   -1    0    0  501  502  0.00000000000E+00  0.00000000000E+00  0.10299965806E+03  0.10299965806E+03  0.00000000000E+00 0.  1.
         21   -1    0    0  502  503 -0.00000000000E+00 -0.00000000000E+00 -0.81849160067E+03  0.81849160067E+03  0.00000000000E+00 0.  1.
          6    1    1    2  501    0  0.51549830597E+02  0.10060236150E+03 -0.34101697059E+02  0.20945201340E+03  0.17300000000E+03 0.  1.
         -6    1    1    2    0  503 -0.51549830597E+02 -0.10060236150E+03 -0.68139024555E+03  0.71203924534E+03  0.17300000000E+03 0.  1.
<mgrwt>
<rscale>  2 0.20665725E+03</rscale>
<asrwt>0</asrwt>
<pdfrwt beam="1">  1       21 0.15846101E-01 0.20665725E+03</pdfrwt>
<pdfrwt beam="2">  1       21 0.12592179E+00 0.20665725E+03</pdfrwt>
<totfact> 0.16467300E+04</totfact>
</mgrwt>
</event>
<event>
 4    1  0.4365842E+000  0.2156006E+03  0.7546771E-02  0.1137206E+00
         21   -1    0    0  501  502  0.00000000000E+00  0.00000000000E+00  0.12743550439E+03  0.12743550439E+03  0.00000000000E+00 0. -1.
         21   -1    0    0  502  503 -0.00000000000E+00 -0.00000000000E+00 -0.36476367342E+03  0.36476367342E+03  0.00000000000E+00 0. -1.
          6    1    1    2  501    0  0.88484909636E+02  0.93407853668E+02 -0.11921900598E+03  0.24636716045E+03  0.17300000000E+03 0.  1.
         -6    1    1    2    0  503 -0.88484909636E+02 -0.93407853668E+02 -0.11810916304E+03  0.24583201735E+03  0.17300000000E+03 0.  1.
<mgrwt>
<rscale>  2 0.21560057E+03</rscale>
<asrwt>0</asrwt>
<pdfrwt beam="1">  1       21 0.19605462E-01 0.21560057E+03</pdfrwt>
<pdfrwt beam="2">  1       21 0.56117489E-01 0.21560057E+03</pdfrwt>
<totfact> 0.70891122E+04</totfact>
</mgrwt>
</event>
<event>
 4    1  0.4365842E+000  0.2267862E+03  0.7546771E-02  0.1128922E+00
         21   -1    0    0  501  502  0.00000000000E+00  0.00000000000E+00  0.28631200319E+03  0.28631200319E+03  0.00000000000E+00 0.  1.
         21   -1    0    0  502  503 -0.00000000000E+00 -0.00000000000E+00 -0.19762982743E+03  0.19762982743E+03  0.00000000000E+00 0. -1.
          6    1    1    2  501    0 -0.75759500070E+02  0.12555269745E+03  0.11735356222E+03  0.25535042638E+03  0.17300000000E+03 0.  1.
         -6    1    1    2    0  503  0.75759500070E+02 -0.12555269745E+03 -0.28671386458E+02  0.22859140423E+03  0.17300000000E+03 0. -1.
<mgrwt>
<rscale>  2 0.22678620E+03</rscale>
<asrwt>0</asrwt>
<pdfrwt beam="1">  1       21 0.44048001E-01 0.22678620E+03</pdfrwt>
<pdfrwt beam="2">  1       21 0.30404589E-01 0.22678620E+03</pdfrwt>
<totfact> 0.50588489E+04</totfact>
</mgrwt>
</event>
<event>
 4    1  0.4365842E+000  0.2487810E+03  0.7546771E-02  0.1114078E+00
         21   -1    0    0  501  502  0.00000000000E+00  0.00000000000E+00  0.17516713909E+04  0.17516713909E+04  0.00000000000E+00 0. -1.
         21   -1    0    0  502  503 -0.00000000000E+00 -0.00000000000E+00 -0.47973242150E+02  0.47973242150E+02  0.00000000000E+00 0.  1.
          6    1    1    2  501    0 -0.16364986250E+03 -0.71983933030E+02  0.13137335482E+04  0.13370818224E+04  0.17300000000E+03 0. -1.
         -6    1    1    2    0  503  0.16364986250E+03  0.71983933030E+02  0.38996460049E+03  0.46256281059E+03  0.17300000000E+03 0.  1.
<mgrwt>
<rscale>  2 0.24878096E+03</rscale>
<asrwt>0</asrwt>
<pdfrwt beam="1">  1       21 0.26948786E+00 0.24878096E+03</pdfrwt>
<pdfrwt beam="2">  1       21 0.73805002E-02 0.24878096E+03</pdfrwt>
<totfact> 0.67041738E+03</totfact>
</mgrwt>
</event>
<event>
 4    1  0.4365842E+000  0.1760755E+03  0.7546771E-02  0.1171656E+00
         21   -1    0    0  503  502  0.00000000000E+00  0.00000000000E+00  0.32953013213E+03  0.32953013213E+03  0.00000000000E+00 0. -1.
         21   -1    0    0  501  503 -0.00000000000E+00 -0.00000000000E+00 -0.13883332804E+03  0.13883332804E+03  0.00000000000E+00 0. -1.
          6    1    1    2  501    0  0.80200820117E+01  0.31768767723E+02  0.22830601031E+03  0.28831616441E+03  0.17300000000E+03 0. -1.
         -6    1    1    2    0  502 -0.80200820117E+01 -0.31768767723E+02 -0.37609206212E+02  0.18004729576E+03  0.17300000000E+03 0. -1.
<mgrwt>
<rscale>  2 0.17607548E+03</rscale>
<asrwt>0</asrwt>
<pdfrwt beam="1">  1       21 0.50696943E-01 0.17607548E+03</pdfrwt>
<pdfrwt beam="2">  1       21 0.21358974E-01 0.17607548E+03</pdfrwt>
<totfact> 0.76074421E+04</totfact>
</mgrwt>
</event>
<event>
 4    1  0.4365842E+000  0.2065262E+03  0.7546771E-02  0.1144347E+00
         21   -1    0    0  503  502  0.00000000000E+00  0.00000000000E+00  0.18289490743E+04  0.18289490743E+04  0.00000000000E+00 0.  1.
         21   -1    0    0  501  503 -0.00000000000E+00 -0.00000000000E+00 -0.23638776941E+02  0.23638776941E+02  0.00000000000E+00 0.  1.
          6    1    1    2  501    0 -0.10851454863E+03  0.30800169102E+02  0.79526942027E+03  0.82164865271E+03  0.17300000000E+03 0.  1.
         -6    1    1    2    0  502  0.10851454863E+03 -0.30800169102E+02  0.10100408771E+04  0.10309391985E+04  0.17300000000E+03 0.  1.
<mgrwt>
<rscale>  2 0.20652617E+03</rscale>
<asrwt>0</asrwt>
<pdfrwt beam="1">  1       21 0.28137667E+00 0.20652617E+03</pdfrwt>
<pdfrwt beam="2">  1       21 0.36367364E-02 0.20652617E+03</pdfrwt>
<totfact> 0.19820855E+04</totfact>
</mgrwt>
</event>
<event>
 4    1  0.4365842E+000  0.1839007E+03  0.7546771E-02  0.1164080E+00
         21   -1    0    0  501  502  0.00000000000E+00  0.00000000000E+00  0.99502188975E+02  0.99502188975E+02  0.00000000000E+00 0.  1.
         21   -1    0    0  502  503 -0.00000000000E+00 -0.00000000000E+00 -0.43645785538E+03  0.43645785538E+03  0.00000000000E+00 0.  1.
          6    1    1    2  501    0  0.83905291035E+01  0.61806603666E+02 -0.42424225911E+02  0.18873068690E+03  0.17300000000E+03 0.  1.
         -6    1    1    2    0  503 -0.83905291035E+01 -0.61806603666E+02 -0.29453144049E+03  0.34722935745E+03  0.17300000000E+03 0.  1.
<mgrwt>
<rscale>  2 0.18390067E+03</rscale>
<asrwt>0</asrwt>
<pdfrwt beam="1">  1       21 0.15308029E-01 0.18390067E+03</pdfrwt>
<pdfrwt beam="2">  1       21 0.67147361E-01 0.18390067E+03</pdfrwt>
<totfact> 0.77028075E+04</totfact>
</mgrwt>
</event>
<event>
 4    1  0.4365842E+000  0.1860590E+03  0.7546771E-02  0.1162065E+00
         21   -1    0    0  503  502  0.00000000000E+00  0.00000000000E+00  0.40166615528E+03  0.40166615528E+03  0.00000000000E+00 0.  1.
         21   -1    0    0  501  503 -0.00000000000E+00 -0.00000000000E+00 -0.20014159680E+04  0.20014159680E+04  0.00000000000E+00 0.  1.
          6    1    1    2  501    0 -0.11333916241E+02  0.67531507541E+02 -0.19752606305E+04  0.19840041634E+04  0.17300000000E+03 0.  1.
         -6    1    1    2    0  502  0.11333916241E+02 -0.67531507541E+02  0.37551081777E+03  0.41907795985E+03  0.17300000000E+03 0.  1.
<mgrwt>
<rscale>  2 0.18605903E+03</rscale>
<asrwt>0</asrwt>
<pdfrwt beam="1">  1       21 0.61794794E-01 0.18605903E+03</pdfrwt>
<pdfrwt beam="2">  1       21 0.30791014E+00 0.18605903E+03</pdfrwt>
<totfact> 0.75615854E+01</totfact>
</mgrwt>
</event>
<event>
 4    1  0.4365842E+000  0.3179726E+03  0.7546771E-02  0.1076586E+00
         21   -1    0    0  503  502  0.00000000000E+00  0.00000000000E+00  0.59553785209E+03  0.59553785209E+03  0.00000000000E+00 0. -1.
         21   -1    0    0  501  503 -0.00000000000E+00 -0.00000000000E+00 -0.17194197506E+03  0.17194197506E+03  0.00000000000E+00 0. -1.
          6    1    1    2  501    0 -0.13389219264E+03 -0.23076061679E+03  0.16870390117E+03  0.35995498022E+03  0.17300000000E+03 0. -1.
         -6    1    1    2    0  502  0.13389219264E+03  0.23076061679E+03  0.25489197586E+03  0.40752484693E+03  0.17300000000E+03 0. -1.
<mgrwt>
<rscale>  2 0.31797261E+03</rscale>
<asrwt>0</asrwt>
<pdfrwt beam="1">  1       21 0.91621207E-01 0.31797261E+03</pdfrwt>
<pdfrwt beam="2">  1       21 0.26452612E-01 0.31797261E+03</pdfrwt>
<totfact> 0.12822644E+04</totfact>
</mgrwt>
</event>
<event>
 4    1  0.4365842E+000  0.2388408E+03  0.7546771E-02  0.1120567E+00
         21   -1    0    0  503  502  0.00000000000E+00  0.00000000000E+00  0.21855611742E+03  0.21855611742E+03  0.00000000000E+00 0. -1.
         21   -1    0    0  501  503 -0.00000000000E+00 -0.00000000000E+00 -0.65280944874E+03  0.65280944874E+03  0.00000000000E+00 0.  1.
          6    1    1    2  501    0  0.15282490746E+03 -0.61322667510E+02 -0.55465491990E+03  0.60389320418E+03  0.17300000000E+03 0.  1.
         -6    1    1    2    0  502 -0.15282490746E+03  0.61322667510E+02  0.12040158857E+03  0.26747236198E+03  0.17300000000E+03 0. -1.
<mgrwt>
<rscale>  2 0.23884079E+03</rscale>
<asrwt>0</asrwt>
<pdfrwt beam="1">  1       21 0.33624019E-01 0.23884079E+03</pdfrwt>
<pdfrwt beam="2">  1       21 0.10043222E+00 0.23884079E+03</pdfrwt>
<totfact> 0.67029788E+03</totfact>
</mgrwt>
</event>
<event>
 4    1  0.4365842E+000  0.1908933E+03  0.7546771E-02  0.1157658E+00
         21   -1    0    0  503  502  0.00000000000E+00  0.00000000000E+00  0.72079664961E+02  0.72079664961E+02  0.00000000000E+00 0. -1.
         21   -1    0    0  501  503 -0.00000000000E+00 -0.00000000000E+00 -0.14952992959E+04  0.14952992959E+04  0.00000000000E+00 0.  1.
          6    1    1    2  501    0  0.72368960923E+01 -0.80367189565E+02 -0.13491996542E+04  0.13626371362E+04  0.17300000000E+03 0.  1.
         -6    1    1    2    0  502 -0.72368960923E+01  0.80367189565E+02 -0.74019976659E+02  0.20474182467E+03  0.17300000000E+03 0. -1.
<mgrwt>
<rscale>  2 0.19089332E+03</rscale>
<asrwt>0</asrwt>
<pdfrwt beam="1">  1       21 0.11089179E-01 0.19089332E+03</pdfrwt>
<pdfrwt beam="2">  1       21 0.23004605E+00 0.19089332E+03</pdfrwt>
<totfact> 0.59145040E+03</totfact>
</mgrwt>
</event>
<event>
 4    1  0.4365842E+000  0.2051031E+03  0.7546771E-02  0.1145504E+00
         21   -1    0    0  501  502  0.00000000000E+00  0.00000000000E+00  0.17766994882E+02  0.17766994882E+02  0.00000000000E+00 0.  1.
         21   -1    0    0  502  503 -0.00000000000E+00 -0.00000000000E+00 -0.26132118479E+04  0.26132118479E+04  0.00000000000E+00 0.  1.
          6    1    1    2  501    0  0.48408042957E+02  0.98969412169E+02 -0.89452487242E+03  0.91773745186E+03  0.17300000000E+03 0.  1.
         -6    1    1    2    0  503 -0.48408042957E+02 -0.98969412169E+02 -0.17009199806E+04  0.17132413909E+04  0.17300000000E+03 0.  1.
<mgrwt>
<rscale>  2 0.20510310E+03</rscale>
<asrwt>0</asrwt>
<pdfrwt beam="1">  1       21 0.27333844E-02 0.20510310E+03</pdfrwt>
<pdfrwt beam="2">  1       21 0.40203251E+00 0.20510310E+03</pdfrwt>
<totfact> 0.61440134E+03</totfact>
</mgrwt>
</event>
<event>
 4    1  0.4365842E+000  0.1774299E+03  0.7546771E-02  0.1170314E+00
         21   -1    0    0  503  502  0.00000000000E+00  0.00000000000E+00  0.65308433560E+03  0.65308433560E+03  0.00000000000E+00 0. -1.
         21   -1    0    0  501  503 -0.00000000000E+00 -0.00000000000E+00 -0.29613406066E+03  0.29613406066E+03  0.00000000000E+00 0. -1.
          6    1    1    2  501    0 -0.26982792896E+02 -0.28710797476E+02 -0.25579145817E+03  0.31130475595E+03  0.17300000000E+03 0. -1.
         -6    1    1    2    0  502  0.26982792896E+02  0.28710797476E+02  0.61274173311E+03  0.63791364031E+03  0.17300000000E+03 0. -1.
<mgrwt>
<rscale>  2 0.17742993E+03</rscale>
<asrwt>0</asrwt>
<pdfrwt beam="1">  1       21 0.10047451E+00 0.17742993E+03</pdfrwt>
<pdfrwt beam="2">  1       21 0.45559086E-01 0.17742993E+03</pdfrwt>
<totfact> 0.37991432E+03</totfact>
</mgrwt>
</event>
<event>
 4    1  0.4365842E+000  0.1753834E+03  0.7546771E-02  0.1172347E+00
         21   -1    0    0  503  502  0.00000000000E+00  0.00000000000E+00  0.73717870707E+02  0.73717870707E+02  0.00000000000E+00 0. -1.
         21   -1    0    0  501  503 -0.00000000000E+00 -0.00000000000E+00 -0.47635889274E+03  0.47635889274E+03  0.00000000000E+00 0.  1.
          6    1    1    2  501    0 -0.17643030512E+02  0.22782533087E+02 -0.29819863623E+03  0.34595049789E+03  0.17300000000E+03 0.  1.
         -6    1    1    2    0  502  0.17643030512E+02 -0.22782533087E+02 -0.10444238581E+03  0.20412626556E+03  0.17300000000E+03 0. -1.
<mgrwt>
<rscale>  2 0.17538335E+03</rscale>
<asrwt>0</asrwt>
<pdfrwt beam="1">  1       21 0.11341210E-01 0.17538335E+03</pdfrwt>
<pdfrwt beam="2">  1       21 0.73285987E-01 0.17538335E+03</pdfrwt>
<totfact> 0.10936925E+05</totfact>
</mgrwt>
</event>
<event>
 4    1  0.4365842E+000  0.3305079E+03  0.7546771E-02  0.1070912E+00
         21   -1    0    0  501  502  0.00000000000E+00  0.00000000000E+00  0.18836958516E+04  0.18836958516E+04  0.00000000000E+00 0. -1.
         21   -1    0    0  502  503 -0.00000000000E+00 -0.00000000000E+00 -0.75756227812E+02  0.75756227812E+02  0.00000000000E+00 0.  1.
          6    1    1    2  501    0  0.43546755429E+02  0.27822683168E+03  0.13784229306E+04  0.14174925980E+04  0.17300000000E+03 0.  1.
         -6    1    1    2    0  503 -0.43546755429E+02 -0.27822683168E+03  0.42951669322E+03  0.54195948144E+03  0.17300000000E+03 0. -1.
<mgrwt>
<rscale>  2 0.33050793E+03</rscale>
<asrwt>0</asrwt>
<pdfrwt beam="1">  1       21 0.28979933E+00 0.33050793E+03</pdfrwt>
<pdfrwt beam="2">  1       21 0.11654806E-01 0.33050793E+03</pdfrwt>
<totfact> 0.21266233E+03</totfact>
</mgrwt>
</event>
<event>
 4    1  0.4365842E+000  0.1859474E+03  0.7546771E-02  0.1162168E+00
         21   -1    0    0  503  502  0.00000000000E+00  0.00000000000E+00  0.44117405100E+03  0.44117405100E+03  0.00000000000E+00 0.  1.
         21   -1    0    0  501  503 -0.00000000000E+00 -0.00000000000E+00 -0.78393096586E+02  0.78393096586E+02  0.00000000000E+00 0.  1.
          6    1    1    2  501    0  0.12677343313E+02  0.66982874676E+02  0.17729883435E+03  0.25692663777E+03  0.17300000000E+03 0. -1.
         -6    1    1    2    0  502 -0.12677343313E+02 -0.66982874676E+02  0.18548212006E+03  0.26264050982E+03  0.17300000000E+03 0. -1.
<mgrwt>
<rscale>  2 0.18594736E+03</rscale>
<asrwt>0</asrwt>
<pdfrwt beam="1">  1       21 0.67872930E-01 0.18594736E+03</pdfrwt>
<pdfrwt beam="2">  1       21 0.12060477E-01 0.18594736E+03</pdfrwt>
<totfact> 0.11560794E+05</totfact>
</mgrwt>
</event>
<event>
 4    1  0.4365842E+000  0.1799059E+03  0.7546771E-02  0.1167894E+00
         21   -1    0    0  501  502  0.00000000000E+00  0.00000000000E+00  0.25325777454E+02  0.25325777454E+02  0.00000000000E+00 0.  1.
         21   -1    0    0  502  503 -0.00000000000E+00 -0.00000000000E+00 -0.14553991373E+04  0.14553991373E+04  0.00000000000E+00 0.  1.
          6    1    1    2  501    0 -0.45902769434E+02  0.18167476080E+02 -0.45654901663E+03  0.49071695101E+03  0.17300000000E+03 0.  1.
         -6    1    1    2    0  503  0.45902769434E+02 -0.18167476080E+02 -0.97352434321E+03  0.99000796373E+03  0.17300000000E+03 0.  1.
<mgrwt>
<rscale>  2 0.17990587E+03</rscale>
<asrwt>0</asrwt>
<pdfrwt beam="1">  1       21 0.38962734E-02 0.17990587E+03</pdfrwt>
<pdfrwt beam="2">  1       21 0.22390756E+00 0.17990587E+03</pdfrwt>
<totfact> 0.39361178E+04</totfact>
</mgrwt>
</event>
<event>
 4    1  0.4365842E+000  0.1958035E+03  0.7546771E-02  0.1153329E+00
         21   -1    0    0  501  502  0.00000000000E+00  0.00000000000E+00  0.13599923891E+03  0.13599923891E+03  0.00000000000E+00 0.  1.
         21   -1    0    0  502  503 -0.00000000000E+00 -0.00000000000E+00 -0.28480373954E+03  0.28480373954E+03  0.00000000000E+00 0.  1.
          6    1    1    2  501    0 -0.82708696128E+02  0.39614304117E+02 -0.53179846004E+02  0.20289681497E+03  0.17300000000E+03 0.  1.
         -6    1    1    2    0  503  0.82708696128E+02 -0.39614304117E+02 -0.95624654632E+02  0.21790616347E+03  0.17300000000E+03 0.  1.
<mgrwt>
<rscale>  2 0.19580353E+03</rscale>
<asrwt>0</asrwt>
<pdfrwt beam="1">  1       21 0.20922960E-01 0.19580353E+03</pdfrwt>
<pdfrwt beam="2">  1       21 0.43815960E-01 0.19580353E+03</pdfrwt>
<totfact> 0.10604349E+05</totfact>
</mgrwt>
</event>
<event>
 4    1  0.4365842E+000  0.1989343E+03  0.7546771E-02  0.1150641E+00
         21   -1    0    0  503  502  0.00000000000E+00  0.00000000000E+00  0.94271786388E+02  0.94271786388E+02  0.00000000000E+00 0. -1.
         21   -1    0    0  501  503 -0.00000000000E+00 -0.00000000000E+00 -0.55911224063E+03  0.55911224063E+03  0.00000000000E+00 0.  1.
          6    1    1    2  501    0 -0.49349863661E+02  0.84914360154E+02 -0.69343906861E+02  0.21067376444E+03  0.17300000000E+03 0. -1.
         -6    1    1    2    0  502  0.49349863661E+02 -0.84914360154E+02 -0.39549654738E+03  0.44271026258E+03  0.17300000000E+03 0.  1.
<mgrwt>
<rscale>  2 0.19893430E+03</rscale>
<asrwt>0</asrwt>
<pdfrwt beam="1">  1       21 0.14503352E-01 0.19893430E+03</pdfrwt>
<pdfrwt beam="2">  1       21 0.86017267E-01 0.19893430E+03</pdfrwt>
<totfact> 0.48475546E+04</totfact>
</mgrwt>
</event>
<event>
 4    1  0.4365842E+000  0.2221955E+03  0.7546771E-02  0.1132257E+00
         21   -1    0    0  503  502  0.00000000000E+00  0.00000000000E+00  0.61444981795E+02  0.61444981795E+02  0.00000000000E+00 0.  1.
         21   -1    0    0  501  503 -0.00000000000E+00 -0.00000000000E+00 -0.23214780106E+04  0.23214780106E+04  0.00000000000E+00 0. -1.
          6    1    1    2  501    0  0.91419727186E+02 -0.10528179045E+03 -0.20934705041E+04  0.21052291024E+04  0.17300000000E+03 0. -1.
         -6    1    1    2    0  502 -0.91419727186E+02  0.10528179045E+03 -0.16656252469E+03  0.27769389002E+03  0.17300000000E+03 0.  1.
<mgrwt>
<rscale>  2 0.22219546E+03</rscale>
<asrwt>0</asrwt>
<pdfrwt beam="1">  1       21 0.94530766E-02 0.22219546E+03</pdfrwt>
<pdfrwt beam="2">  1       21 0.35715037E+00 0.22219546E+03</pdfrwt>
<totfact> 0.13659716E+03</totfact>
</mgrwt>
</event>
<event>
 4    1  0.4365842E+000  0.2294168E+03  0.7546771E-02  0.1127051E+00
         21   -1    0    0  501  502  0.00000000000E+00  0.00000000000E+00  0.78623988657E+02  0.78623988657E+02  0.00000000000E+00 0.  1.
         21   -1    0    0  502  503 -0.00000000000E+00 -0.00000000000E+00 -0.97693178884E+03  0.97693178884E+03  0.00000000000E+00 0.  1.
          6    1    1    2  501    0  0.14623465524E+03  0.36311360264E+02 -0.15304369216E+03  0.27577973273E+03  0.17300000000E+03 0.  1.
         -6    1    1    2    0  503 -0.14623465524E+03 -0.36311360264E+02 -0.74526410803E+03  0.77977604476E+03  0.17300000000E+03 0.  1.
<mgrwt>
<rscale>  2 0.22941685E+03</rscale>
<asrwt>0</asrwt>
<pdfrwt beam="1">  1       21 0.12095998E-01 0.22941685E+03</pdfrwt>
<pdfrwt beam="2">  1       21 0.15029720E+00 0.22941685E+03</pdfrwt>
<totfact> 0.16789253E+04</totfact>
</mgrwt>
</event>
<event>
 4    1  0.4365842E+000  0.2041990E+03  0.7546771E-02  0.1146244E+00
         21   -1    0    0  501  502  0.00000000000E+00  0.00000000000E+00  0.41657322211E+03  0.41657322211E+03  0.00000000000E+00 0.  1.
         21   -1    0    0  502  503 -0.00000000000E+00 -0.00000000000E+00 -0.47693781764E+03  0.47693781764E+03  0.00000000000E+00 0.  1.
          6    1    1    2  501    0 -0.22791676693E+02  0.10606017506E+03  0.36693492193E+03  0.41992672955E+03  0.17300000000E+03 0.  1.
         -6    1    1    2    0  503  0.22791676693E+02 -0.10606017506E+03 -0.42729951745E+03  0.47358431020E+03  0.17300000000E+03 0.  1.
<mgrwt>
<rscale>  2 0.20419897E+03</rscale>
<asrwt>0</asrwt>
<pdfrwt beam="1">  1       21 0.64088189E-01 0.20419897E+03</pdfrwt>
<pdfrwt beam="2">  1       21 0.73375048E-01 0.20419897E+03</pdfrwt>
<totfact> 0.37168747E+03</totfact>
</mgrwt>
</event>
<event>
 4    1  0.4365842E+000  0.2047262E+03  0.7546771E-02  0.1145812E+00
         21   -1    0    0  501  502  0.00000000000E+00  0.00000000000E+00  0.18564650391E+04  0.18564650391E+04  0.00000000000E+00 0. -1.
         21   -1    0    0  502  503 -0.00000000000E+00 -0.00000000000E+00 -0.30218236297E+02  0.30218236297E+02  0.00000000000E+00 0. -1.
          6    1    1    2  501    0 -0.74321417139E+02 -0.80375035120E+02  0.13875022563E+04  0.14025246274E+04  0.17300000000E+03 0. -1.
         -6    1    1    2    0  503  0.74321417139E+02  0.80375035120E+02  0.43874454653E+03  0.48415864799E+03  0.17300000000E+03 0. -1.
<mgrwt>
<rscale>  2 0.20472621E+03</rscale>
<asrwt>0</asrwt>
<pdfrwt beam="1">  1       21 0.28560992E+00 0.20472621E+03</pdfrwt>
<pdfrwt beam="2">  1       21 0.46489609E-02 0.20472621E+03</pdfrwt>
<totfact> 0.12418469E+04</totfact>
</mgrwt>
</event>
<event>
 4    1  0.4365842E+000  0.1895240E+03  0.7546771E-02  0.1158891E+00
         21   -1    0    0  501  502  0.00000000000E+00  0.00000000000E+00  0.69663341866E+02  0.69663341866E+02  0.00000000000E+00 0.  1.
         21   -1    0    0  502  503 -0.00000000000E+00 -0.00000000000E+00 -0.70900672013E+03  0.70900672013E+03  0.00000000000E+00 0. -1.
          6    1    1    2  501    0  0.67611448552E+02  0.37670136629E+02 -0.11633341763E+03  0.22237988045E+03  0.17300000000E+03 0.  1.
         -6    1    1    2    0  503 -0.67611448552E+02 -0.37670136629E+02 -0.52300996063E+03  0.55629018155E+03  0.17300000000E+03 0. -1.
<mgrwt>
<rscale>  2 0.18952400E+03</rscale>
<asrwt>0</asrwt>
<pdfrwt beam="1">  1       21 0.10717437E-01 0.18952400E+03</pdfrwt>
<pdfrwt beam="2">  1       21 0.10907796E+00 0.18952400E+03</pdfrwt>
<totfact> 0.47918421E+04</totfact>
</mgrwt>
</event>
<event>
 4    1  0.4365842E+000  0.2100785E+03  0.7546771E-02  0.1141504E+00
         21   -1    0    0  501  502  0.00000000000E+00  0.00000000000E+00  0.32349979820E+03  0.32349979820E+03  0.00000000000E+00 0.  1.
         21   -1    0    0  502  503 -0.00000000000E+00 -0.00000000000E+00 -0.14518263344E+03  0.14518263344E+03  0.00000000000E+00 0.  1.
          6    1    1    2  501    0 -0.11869758273E+03 -0.10717370605E+02  0.14671869701E+03  0.25624081297E+03  0.17300000000E+03 0.  1.
         -6    1    1    2    0  503  0.11869758273E+03  0.10717370605E+02  0.31598467745E+02  0.21244161867E+03  0.17300000000E+03 0.  1.
<mgrwt>
<rscale>  2 0.21007850E+03</rscale>
<asrwt>0</asrwt>
<pdfrwt beam="1">  1       21 0.49769200E-01 0.21007850E+03</pdfrwt>
<pdfrwt beam="2">  1       21 0.22335790E-01 0.21007850E+03</pdfrwt>
<totfact> 0.71621044E+04</totfact>
</mgrwt>
</event>
<event>
 4    1  0.4365842E+000  0.2038027E+03  0.7546771E-02  0.1146570E+00
         21   -1    0    0  503  502  0.00000000000E+00  0.00000000000E+00  0.15950742310E+03  0.15950742310E+03  0.00000000000E+00 0.  1.
         21   -1    0    0  501  503 -0.00000000000E+00 -0.00000000000E+00 -0.32649322889E+03  0.32649322889E+03  0.00000000000E+00 0. -1.
          6    1    1    2  501    0 -0.71760123051E+02 -0.80355560637E+02 -0.19282618956E+03  0.28056633933E+03  0.17300000000E+03 0. -1.
         -6    1    1    2    0  502  0.71760123051E+02  0.80355560637E+02  0.25840383763E+02  0.20543431266E+03  0.17300000000E+03 0.  1.
<mgrwt>
<rscale>  2 0.20380268E+03</rscale>
<asrwt>0</asrwt>
<pdfrwt beam="1">  1       21 0.24539604E-01 0.20380268E+03</pdfrwt>
<pdfrwt beam="2">  1       21 0.50229727E-01 0.20380268E+03</pdfrwt>
<totfact> 0.58920578E+04</totfact>
</mgrwt>
</event>
<event>
 4    1  0.4365842E+000  0.1842373E+03  0.7546771E-02  0.1163764E+00
         21   -1    0    0  503  502  0.00000000000E+00  0.00000000000E+00  0.14926797261E+03  0.14926797261E+03  0.00000000000E+00 0. -1.
         21   -1    0    0  501  503 -0.00000000000E+00 -0.00000000000E+00 -0.24727246308E+03  0.24727246308E+03  0.00000000000E+00 0. -1.
          6    1    1    2  501    0  0.16896720474E+02 -0.61064598489E+02 -0.10521134475E+03  0.21216222900E+03  0.17300000000E+03 0. -1.
         -6    1    1    2    0  502 -0.16896720474E+02  0.61064598489E+02  0.72068542764E+01  0.18437820668E+03  0.17300000000E+03 0. -1.
<mgrwt>
<rscale>  2 0.18423730E+03</rscale>
<asrwt>0</asrwt>
<pdfrwt beam="1">  1       21 0.22964304E-01 0.18423730E+03</pdfrwt>
<pdfrwt beam="2">  1       21 0.38041917E-01 0.18423730E+03</pdfrwt>
<totfact> 0.11897229E+05</totfact>
</mgrwt>
</event>
<event>
 4    1  0.4365842E+000  0.1909128E+03  0.7546771E-02  0.1157641E+00
         21   -1    0    0  503  502  0.00000000000E+00  0.00000000000E+00  0.23610262156E+03  0.23610262156E+03  0.00000000000E+00 0.  1.
         21   -1    0    0  501  503 -0.00000000000E+00 -0.00000000000E+00 -0.29004991361E+03  0.29004991361E+03  0.00000000000E+00 0. -1.
          6    1    1    2  501    0  0.72902340486E+02  0.34697700310E+02 -0.20690197888E+03  0.28152461796E+03  0.17300000000E+03 0. -1.
         -6    1    1    2    0  502 -0.72902340486E+02 -0.34697700310E+02  0.15295468683E+03  0.24462791721E+03  0.17300000000E+03 0.  1.
<mgrwt>
<rscale>  2 0.19091276E+03</rscale>
<asrwt>0</asrwt>
<pdfrwt beam="1">  1       21 0.36323480E-01 0.19091276E+03</pdfrwt>
<pdfrwt beam="2">  1       21 0.44623063E-01 0.19091276E+03</pdfrwt>
<totfact> 0.35271960E+04</totfact>
</mgrwt>
</event>
<event>
 4    1  0.4365842E+000  0.2424193E+03  0.7546771E-02  0.1118192E+00
         21   -1    0    0  501  502  0.00000000000E+00  0.00000000000E+00  0.49101590851E+02  0.49101590851E+02  0.00000000000E+00 0.  1.
         21   -1    0    0  502  503 -0.00000000000E+00 -0.00000000000E+00 -0.12309636243E+04  0.12309636243E+04  0.00000000000E+00 0. -1.
          6    1    1    2  501    0  0.89468323723E+02 -0.14433830241E+03 -0.48437989954E+03  0.54165580729E+03  0.17300000000E+03 0. -1.
         -6    1    1    2    0  503 -0.89468323723E+02  0.14433830241E+03 -0.69748213387E+03  0.73840940782E+03  0.17300000000E+03 0. -1.
<mgrwt>
<rscale>  2 0.24241932E+03</rscale>
<asrwt>0</asrwt>
<pdfrwt beam="1">  1       21 0.75540908E-02 0.24241932E+03</pdfrwt>
<pdfrwt beam="2">  1       21 0.18937902E+00 0.24241932E+03</pdfrwt>
<totfact> 0.20180470E+04</totfact>
</mgrwt>
</event>
<event>
 4    1  0.4365842E+000  0.1792303E+03  0.7546771E-02  0.1168550E+00
         21   -1    0    0  503  502  0.00000000000E+00  0.00000000000E+00  0.10779663624E+04  0.10779663624E+04  0.00000000000E+00 0.  1.
         21   -1    0    0  501  503 -0.00000000000E+00 -0.00000000000E+00 -0.25780715621E+03  0.25780715621E+03  0.00000000000E+00 0.  1.
          6    1    1    2  501    0 -0.16598919611E+02 -0.43806312891E+02 -0.21802139412E+03  0.28223544334E+03  0.17300000000E+03 0.  1.
         -6    1    1    2    0  502  0.16598919611E+02  0.43806312891E+02  0.10381806004E+04  0.10535380753E+04  0.17300000000E+03 0.  1.
<mgrwt>
<rscale>  2 0.17923035E+03</rscale>
<asrwt>0</asrwt>
<pdfrwt beam="1">  1       21 0.16584098E+00 0.17923035E+03</pdfrwt>
<pdfrwt beam="2">  1       21 0.39662640E-01 0.17923035E+03</pdfrwt>
<totfact> 0.14192821E+03</totfact>
</mgrwt>
</event>
<event>
 4    1  0.4365842E+000  0.1748784E+03  0.7546771E-02  0.1172854E+00
         21   -1    0    0  501  502  0.00000000000E+00  0.00000000000E+00  0.90636056258E+02  0.90636056258E+02  0.00000000000E+00 0. -1.
         21   -1    0    0  502  503 -0.00000000000E+00 -0.00000000000E+00 -0.33895999630E+03  0.33895999630E+03  0.00000000000E+00 0. -1.
          6    1    1    2  501    0  0.24984522869E+02  0.54059474204E+01 -0.13863852623E+03  0.22316606285E+03  0.17300000000E+03 0. -1.
         -6    1    1    2    0  503 -0.24984522869E+02 -0.54059474204E+01 -0.10968541381E+03  0.20642998972E+03  0.17300000000E+03 0. -1.
<mgrwt>
<rscale>  2 0.17487839E+03</rscale>
<asrwt>0</asrwt>
<pdfrwt beam="1">  1       21 0.13944008E-01 0.17487839E+03</pdfrwt>
<pdfrwt beam="2">  1       21 0.52147693E-01 0.17487839E+03</pdfrwt>
<totfact> 0.15719039E+05</totfact>
</mgrwt>
</event>
<event>
 4    1  0.4365842E+000  0.1907062E+03  0.7546771E-02  0.1157826E+00
         21   -1    0    0  501  502  0.00000000000E+00  0.00000000000E+00  0.81028051734E+02  0.81028051734E+02  0.00000000000E+00 0.  1.
         21   -1    0    0  502  503 -0.00000000000E+00 -0.00000000000E+00 -0.46196687673E+03  0.46196687673E+03  0.00000000000E+00 0.  1.
          6    1    1    2  501    0  0.52502708275E+02 -0.60690308343E+02 -0.23623054073E+03  0.30360124551E+03  0.17300000000E+03 0.  1.
         -6    1    1    2    0  503 -0.52502708275E+02  0.60690308343E+02 -0.14470828427E+03  0.23939368296E+03  0.17300000000E+03 0.  1.
<mgrwt>
<rscale>  2 0.19070618E+03</rscale>
<asrwt>0</asrwt>
<pdfrwt beam="1">  1       21 0.12465854E-01 0.19070618E+03</pdfrwt>
<pdfrwt beam="2">  1       21 0.71071826E-01 0.19070618E+03</pdfrwt>
<totfact> 0.98287629E+04</totfact>
</mgrwt>
</event>
<event>
 4    1  0.4365842E+000  0.2245407E+03  0.7546771E-02  0.1130542E+00
         21   -1    0    0  503  502  0.00000000000E+00  0.00000000000E+00  0.40785080813E+02  0.40785080813E+02  0.00000000000E+00 0.  1.
         21   -1    0    0  501  503 -0.00000000000E+00 -0.00000000000E+00 -0.13618840285E+04  0.13618840285E+04  0.00000000000E+00 0.  1.
          6    1    1    2  501    0  0.23293682858E+02 -0.14123363232E+03 -0.87360581860E+03  0.90200092065E+03  0.17300000000E+03 0.  1.
         -6    1    1    2    0  502 -0.23293682858E+02  0.14123363232E+03 -0.44749312909E+03  0.50066818867E+03  0.17300000000E+03 0.  1.
<mgrwt>
<rscale>  2 0.22454072E+03</rscale>
<asrwt>0</asrwt>
<pdfrwt beam="1">  1       21 0.62746293E-02 0.22454072E+03</pdfrwt>
<pdfrwt beam="2">  1       21 0.20952057E+00 0.22454072E+03</pdfrwt>
<totfact> 0.20840244E+04</totfact>
</mgrwt>
</event>
<event>
 4    1  0.4365842E+000  0.1744857E+03  0.7546771E-02  0.1173249E+00
         21   -1    0    0  501  502  0.00000000000E+00  0.00000000000E+00  0.36826622216E+03  0.36826622216E+03  0.00000000000E+00 0. -1.
         21   -1    0    0  502  503 -0.00000000000E+00 -0.00000000000E+00 -0.84106384978E+02  0.84106384978E+02  0.00000000000E+00 0. -1.
          6    1    1    2  501    0 -0.21825893791E+02 -0.63156114293E+01  0.11254031702E+03  0.20763087329E+03  0.17300000000E+03 0.  1.
         -6    1    1    2    0  503  0.21825893791E+02  0.63156114293E+01  0.17161952017E+03  0.24474173385E+03  0.17300000000E+03 0.  1.
<mgrwt>
<rscale>  2 0.17448569E+03</rscale>
<asrwt>0</asrwt>
<pdfrwt beam="1">  1       21 0.56656341E-01 0.17448569E+03</pdfrwt>
<pdfrwt beam="2">  1       21 0.12939444E-01 0.17448569E+03</pdfrwt>
<totfact> 0.15104449E+05</totfact>
</mgrwt>
</event>
<event>
 4    1  0.4365842E+000  0.2372221E+03  0.7546771E-02  0.1121657E+00
         21   -1    0    0  501  502  0.00000000000E+00  0.00000000000E+00  0.68755175863E+03  0.68755175863E+03  0.00000000000E+00 0. -1.
         21   -1    0    0  502  503 -0.00000000000E+00 -0.00000000000E+00 -0.96463785889E+02  0.96463785889E+02  0.00000000000E+00 0. -1.
          6    1    1    2  501    0  0.12915115072E+02 -0.16179784021E+03  0.44813612116E+03  0.50705061323E+03  0.17300000000E+03 0. -1.
         -6    1    1    2    0  503 -0.12915115072E+02  0.16179784021E+03  0.14295185158E+03  0.27696493129E+03  0.17300000000E+03 0. -1.
<mgrwt>
<rscale>  2 0.23722213E+03</rscale>
<asrwt>0</asrwt>
<pdfrwt beam="1">  1       21 0.10577719E+00 0.23722213E+03</pdfrwt>
<pdfrwt beam="2">  1       21 0.14840583E-01 0.23722213E+03</pdfrwt>
<totfact> 0.28017475E+04</totfact>
</mgrwt>
</event>
<event>
 4    1  0.4365842E+000  0.2104516E+03  0.7546771E-02  0.1141209E+00
         21   -1    0    0  503  502  0.00000000000E+00  0.00000000000E+00  0.97537641578E+03  0.97537641578E+03  0.00000000000E+00 0.  1.
         21   -1    0    0  501  503 -0.00000000000E+00 -0.00000000000E+00 -0.70270080436E+02  0.70270080436E+02  0.00000000000E+00 0.  1.
          6    1    1    2  501    0  0.70768241049E+02 -0.96709511774E+02  0.14156879454E+03  0.25363674260E+03  0.17300000000E+03 0.  1.
         -6    1    1    2    0  502 -0.70768241049E+02  0.96709511774E+02  0.76353754080E+03  0.79200975362E+03  0.17300000000E+03 0.  1.
<mgrwt>
<rscale>  2 0.21045159E+03</rscale>
<asrwt>0</asrwt>
<pdfrwt beam="1">  1       21 0.15005790E+00 0.21045159E+03</pdfrwt>
<pdfrwt beam="2">  1       21 0.10810782E-01 0.21045159E+03</pdfrwt>
<totfact> 0.20858033E+04</totfact>
</mgrwt>
</event>
<event>
 4    1  0.4365842E+000  0.2020897E+03  0.7546771E-02  0.1147988E+00
         21   -1    0    0  503  502  0.00000000000E+00  0.00000000000E+00  0.32778017416E+02  0.32778017416E+02  0.00000000000E+00 0.  1.
         21   -1    0    0  501  503 -0.00000000000E+00 -0.00000000000E+00 -0.18480141522E+04  0.18480141522E+04  0.00000000000E+00 0.  1.
          6    1    1    2  501    0  0.21809101662E+02 -0.10215476658E+03 -0.14443710446E+04  0.14584402449E+04  0.17300000000E+03 0.  1.
         -6    1    1    2    0  502 -0.21809101662E+02  0.10215476658E+03 -0.37086509013E+03  0.42235192474E+03  0.17300000000E+03 0.  1.
<mgrwt>
<rscale>  2 0.20208967E+03</rscale>
<asrwt>0</asrwt>
<pdfrwt beam="1">  1       21 0.50427716E-02 0.20208967E+03</pdfrwt>
<pdfrwt beam="2">  1       21 0.28430989E+00 0.20208967E+03</pdfrwt>
<totfact> 0.11037231E+04</totfact>
</mgrwt>
</event>
<event>
 4    1  0.4365842E+000  0.1910818E+03  0.7546771E-02  0.1157489E+00
         21   -1    0    0  501  502  0.00000000000E+00  0.00000000000E+00  0.96697338006E+03  0.96697338006E+03  0.00000000000E+00 0.  1.
         21   -1    0    0  502  503 -0.00000000000E+00 -0.00000000000E+00 -0.39317485850E+02  0.39317485850E+02  0.00000000000E+00 0. -1.
          6    1    1    2  501    0 -0.80966195499E+02 -0.52654447744E+01  0.56399124073E+03  0.59548162805E+03  0.17300000000E+03 0.  1.
         -6    1    1    2    0  503  0.80966195499E+02  0.52654447744E+01  0.36366465348E+03  0.41080923786E+03  0.17300000000E+03 0. -1.
<mgrwt>
<rscale>  2 0.19108179E+03</rscale>
<asrwt>0</asrwt>
<pdfrwt beam="1">  1       21 0.14876512E+00 0.19108179E+03</pdfrwt>
<pdfrwt beam="2">  1       21 0.60488447E-02 0.19108179E+03</pdfrwt>
<totfact> 0.59453035E+04</totfact>
</mgrwt>
</event>
<event>
 4    1  0.4365842E+000  0.2365194E+03  0.7546771E-02  0.1122133E+00
         21   -1    0    0  501  502  0.00000000000E+00  0.00000000000E+00  0.79472366804E+03  0.79472366804E+03  0.00000000000E+00 0.  1.
         21   -1    0    0  502  503 -0.00000000000E+00 -0.00000000000E+00 -0.71650810961E+02  0.71650810961E+02  0.00000000000E+00 0. -1.
          6    1    1    2  501    0 -0.14313830882E+03 -0.74322728084E+02  0.30409740828E+03  0.38524885085E+03  0.17300000000E+03 0.  1.
         -6    1    1    2    0  503  0.14313830882E+03  0.74322728084E+02  0.41897544880E+03  0.48112562815E+03  0.17300000000E+03 0.  1.
<mgrwt>
<rscale>  2 0.23651944E+03</rscale>
<asrwt>0</asrwt>
<pdfrwt beam="1">  1       21 0.12226517E+00 0.23651944E+03</pdfrwt>
<pdfrwt beam="2">  1       21 0.11023202E-01 0.23651944E+03</pdfrwt>
<totfact> 0.33608338E+04</totfact>
</mgrwt>
</event>
<event>
 4    1  0.4365842E+000  0.1989919E+03  0.7546771E-02  0.1150592E+00
         21   -1    0    0  501  502  0.00000000000E+00  0.00000000000E+00  0.10933497038E+04  0.10933497038E+04  0.00000000000E+00 0.  1.
         21   -1    0    0  502  503 -0.00000000000E+00 -0.00000000000E+00 -0.11184053015E+03  0.11184053015E+03  0.00000000000E+00 0.  1.
          6    1    1    2  501    0  0.91568293945E+02 -0.35833533536E+02  0.98626707986E+03  0.10061414152E+04  0.17300000000E+03 0.  1.
         -6    1    1    2    0  503 -0.91568293945E+02  0.35833533536E+02 -0.47579061839E+01  0.19904881877E+03  0.17300000000E+03 0.  1.
<mgrwt>
<rscale>  2 0.19899195E+03</rscale>
<asrwt>0</asrwt>
<pdfrwt beam="1">  1       21 0.16820764E+00 0.19899195E+03</pdfrwt>
<pdfrwt beam="2">  1       21 0.17206236E-01 0.19899195E+03</pdfrwt>
<totfact> 0.66676899E+03</totfact>
</mgrwt>
</event>
<event>
 4    1  0.4365842E+000  0.1820817E+03  0.7546771E-02  0.1165803E+00
         21   -1    0    0  503  502  0.00000000000E+00  0.00000000000E+00  0.14668340313E+03  0.14668340313E+03  0.00000000000E+00 0.  1.
         21   -1    0    0  501  503 -0.00000000000E+00 -0.00000000000E+00 -0.26641949301E+03  0.26641949301E+03  0.00000000000E+00 0.  1.
          6    1    1    2  501    0 -0.53552146966E+02  0.18892399007E+02 -0.14029832038E+03  0.22986381596E+03  0.17300000000E+03 0. -1.
         -6    1    1    2    0  502  0.53552146966E+02 -0.18892399007E+02  0.20562230495E+02  0.18323908019E+03  0.17300000000E+03 0. -1.
<mgrwt>
<rscale>  2 0.18208173E+03</rscale>
<asrwt>0</asrwt>
<pdfrwt beam="1">  1       21 0.22566678E-01 0.18208173E+03</pdfrwt>
<pdfrwt beam="2">  1       21 0.40987614E-01 0.18208173E+03</pdfrwt>
<totfact> 0.10589671E+05</totfact>
</mgrwt>
</event>
<event>
 4    1  0.4365842E+000  0.1763870E+03  0.7546771E-02  0.1171346E+00
         21   -1    0    0  501  502  0.00000000000E+00  0.00000000000E+00  0.51917807052E+02  0.51917807052E+02  0.00000000000E+00 0.  1.
         21   -1    0    0  502  503 -0.00000000000E+00 -0.00000000000E+00 -0.65986071156E+03  0.65986071156E+03  0.00000000000E+00 0.  1.
          6    1    1    2  501    0 -0.31801311830E+02  0.13116768083E+02 -0.19612145099E+03  0.26377262287E+03  0.17300000000E+03 0. -1.
         -6    1    1    2    0  503  0.31801311830E+02 -0.13116768083E+02 -0.41182145352E+03  0.44800589574E+03  0.17300000000E+03 0. -1.
<mgrwt>
<rscale>  2 0.17638700E+03</rscale>
<asrwt>0</asrwt>
<pdfrwt beam="1">  1       21 0.79873549E-02 0.17638700E+03</pdfrwt>
<pdfrwt beam="2">  1       21 0.10151703E+00 0.17638700E+03</pdfrwt>
<totfact> 0.95964373E+04</totfact>
</mgrwt>
</event>
<event>
 4    1  0.4365842E+000  0.2010049E+03  0.7546771E-02  0.1148894E+00
         21   -1    0    0  501  502  0.00000000000E+00  0.00000000000E+00  0.20039645822E+03  0.20039645822E+03  0.00000000000E+00 0. -1.
         21   -1    0    0  502  503 -0.00000000000E+00 -0.00000000000E+00 -0.21143497253E+03  0.21143497253E+03  0.00000000000E+00 0. -1.
          6    1    1    2  501    0  0.10215242520E+03 -0.62327973133E+01  0.38857185652E+02  0.20472627241E+03  0.17300000000E+03 0. -1.
         -6    1    1    2    0  503 -0.10215242520E+03  0.62327973133E+01 -0.49895699970E+02  0.20710515834E+03  0.17300000000E+03 0. -1.
<mgrwt>
<rscale>  2 0.20100489E+03</rscale>
<asrwt>0</asrwt>
<pdfrwt beam="1">  1       21 0.30830224E-01 0.20100489E+03</pdfrwt>
<pdfrwt beam="2">  1       21 0.32528457E-01 0.20100489E+03</pdfrwt>
<totfact> 0.91569405E+04</totfact>
</mgrwt>
</event>
<event>
 4    1  0.4365842E+000  0.3647443E+03  0.7546771E-02  0.1056721E+00
         21   -1    0    0  501  502  0.00000000000E+00  0.00000000000E+00  0.88800603098E+03  0.88800603098E+03  0.00000000000E+00 0. -1.
         21   -1    0    0  502  503 -0.00000000000E+00 -0.00000000000E+00 -0.24725958746E+03  0.24725958746E+03  0.00000000000E+00 0. -1.
          6    1    1    2  501    0  0.25837449274E+03  0.19066203423E+03  0.67671385535E+03  0.76875225646E+03  0.17300000000E+03 0. -1.
         -6    1    1    2    0  503 -0.25837449274E+03 -0.19066203423E+03 -0.35967411836E+02  0.36651336198E+03  0.17300000000E+03 0. -1.
<mgrwt>
<rscale>  2 0.36474428E+03</rscale>
<asrwt>0</asrwt>
<pdfrwt beam="1">  1       21 0.13661631E+00 0.36474428E+03</pdfrwt>
<pdfrwt beam="2">  1       21 0.38039937E-01 0.36474428E+03</pdfrwt>
<totfact> 0.22655369E+03</totfact>
</mgrwt>
</event>
<event>
 4    1  0.4365842E+000  0.2009660E+03  0.7546771E-02  0.1148927E+00
         21   -1    0    0  503  502  0.00000000000E+00  0.00000000000E+00  0.96295448228E+02  0.96295448228E+02  0.00000000000E+00 0. -1.
         21   -1    0    0  501  503 -0.00000000000E+00 -0.00000000000E+00 -0.60098887642E+03  0.60098887642E+03  0.00000000000E+00 0. -1.
          6    1    1    2  501    0  0.62984848305E+02  0.80568308144E+02 -0.44398332831E+03  0.48734847821E+03  0.17300000000E+03 0. -1.
         -6    1    1    2    0  502 -0.62984848305E+02 -0.80568308144E+02 -0.60710099880E+02  0.20993584644E+03  0.17300000000E+03 0. -1.
<mgrwt>
<rscale>  2 0.20096603E+03</rscale>
<asrwt>0</asrwt>
<pdfrwt beam="1">  1       21 0.14814685E-01 0.20096603E+03</pdfrwt>
<pdfrwt beam="2">  1       21 0.92459825E-01 0.20096603E+03</pdfrwt>
<totfact> 0.39422025E+04</totfact>
</mgrwt>
</event>
<event>
 4    1  0.4365842E+000  0.1950848E+03  0.7546771E-02  0.1153953E+00
         21   -1    0    0  503  502  0.00000000000E+00  0.00000000000E+00  0.28913956229E+03  0.28913956229E+03  0.00000000000E+00 0. -1.
         21   -1    0    0  501  503 -0.00000000000E+00 -0.00000000000E+00 -0.15500854816E+03  0.15500854816E+03  0.00000000000E+00 0. -1.
          6    1    1    2  501    0  0.20700650581E+02  0.87752956838E+02 -0.19187030430E+02  0.19602612200E+03  0.17300000000E+03 0.  1.
         -6    1    1    2    0  502 -0.20700650581E+02 -0.87752956838E+02  0.15331804456E+03  0.24812198846E+03  0.17300000000E+03 0.  1.
<mgrwt>
<rscale>  2 0.19508485E+03</rscale>
<asrwt>0</asrwt>
<pdfrwt beam="1">  1       21 0.44483010E-01 0.19508485E+03</pdfrwt>
<pdfrwt beam="2">  1       21 0.23847469E-01 0.19508485E+03</pdfrwt>
<totfact> 0.80329706E+04</totfact>
</mgrwt>
</event>
<event>
 4    1  0.4365842E+000  0.1779524E+03  0.7546771E-02  0.1169800E+00
         21   -1    0    0  503  502  0.00000000000E+00  0.00000000000E+00  0.44211853482E+03  0.44211853482E+03  0.00000000000E+00 0. -1.
         21   -1    0    0  501  503 -0.00000000000E+00 -0.00000000000E+00 -0.11119006625E+03  0.11119006625E+03  0.00000000000E+00 0. -1.
          6    1    1    2  501    0  0.86629434963E+01  0.40780077445E+02  0.43670723676E+00  0.17795294889E+03  0.17300000000E+03 0. -1.
         -6    1    1    2    0  502 -0.86629434963E+01 -0.40780077445E+02  0.33049176134E+03  0.37535565218E+03  0.17300000000E+03 0. -1.
<mgrwt>
<rscale>  2 0.17795241E+03</rscale>
<asrwt>0</asrwt>
<pdfrwt beam="1">  1       21 0.68018235E-01 0.17795241E+03</pdfrwt>
<pdfrwt beam="2">  1       21 0.17106164E-01 0.17795241E+03</pdfrwt>
<totfact> 0.61278996E+04</totfact>
</mgrwt>
</event>
<event>
 4    1  0.4365842E+000  0.1785938E+03  0.7546771E-02  0.1169171E+00
         21   -1    0    0  501  502  0.00000000000E+00  0.00000000000E+00  0.19470995053E+03  0.19470995053E+03  0.00000000000E+00 0. -1.
         21   -1    0    0  502  503 -0.00000000000E+00 -0.00000000000E+00 -0.24730560241E+03  0.24730560241E+03  0.00000000000E+00 0. -1.
          6    1    1    2  501    0 -0.20461402498E+02  0.39345784993E+02  0.10211785749E+03  0.20572753002E+03  0.17300000000E+03 0. -1.
         -6    1    1    2    0  503  0.20461402498E+02 -0.39345784993E+02 -0.15471350938E+03  0.23628802291E+03  0.17300000000E+03 0. -1.
<mgrwt>
<rscale>  2 0.17859384E+03</rscale>
<asrwt>0</asrwt>
<pdfrwt beam="1">  1       21 0.29955377E-01 0.17859384E+03</pdfrwt>
<pdfrwt beam="2">  1       21 0.38047015E-01 0.17859384E+03</pdfrwt>
<totfact> 0.71621965E+04</totfact>
</mgrwt>
</event>
<event>
 4    1  0.4365842E+000  0.1789119E+03  0.7546771E-02  0.1168860E+00
         21   -1    0    0  501  502  0.00000000000E+00  0.00000000000E+00  0.80529021667E+02  0.80529021667E+02  0.00000000000E+00 0. -1.
         21   -1    0    0  502  503 -0.00000000000E+00 -0.00000000000E+00 -0.49486103097E+03  0.49486103097E+03  0.00000000000E+00 0. -1.
          6    1    1    2  501    0  0.19031534393E+02  0.41452102192E+02 -0.79549824320E+02  0.19580002714E+03  0.17300000000E+03 0. -1.
         -6    1    1    2    0  503 -0.19031534393E+02 -0.41452102192E+02 -0.33478218498E+03  0.37959002550E+03  0.17300000000E+03 0. -1.
<mgrwt>
<rscale>  2 0.17891192E+03</rscale>
<asrwt>0</asrwt>
<pdfrwt beam="1">  1       21 0.12389080E-01 0.17891192E+03</pdfrwt>
<pdfrwt beam="2">  1       21 0.76132466E-01 0.17891192E+03</pdfrwt>
<totfact> 0.85697519E+04</totfact>
</mgrwt>
</event>
<event>
 4    1  0.4365842E+000  0.1932141E+03  0.7546771E-02  0.1155594E+00
         21   -1    0    0  503  502  0.00000000000E+00  0.00000000000E+00  0.39848917410E+03  0.39848917410E+03  0.00000000000E+00 0.  1.
         21   -1    0    0  501  503 -0.00000000000E+00 -0.00000000000E+00 -0.93867860489E+02  0.93867860489E+02  0.00000000000E+00 0.  1.
          6    1    1    2  501    0 -0.69008566460E+02 -0.51385699200E+02  0.16323464509E+03  0.25293718921E+03  0.17300000000E+03 0. -1.
         -6    1    1    2    0  502  0.69008566460E+02  0.51385699200E+02  0.14138666852E+03  0.23941984538E+03  0.17300000000E+03 0. -1.
<mgrwt>
<rscale>  2 0.19321406E+03</rscale>
<asrwt>0</asrwt>
<pdfrwt beam="1">  1       21 0.61306026E-01 0.19321406E+03</pdfrwt>
<pdfrwt beam="2">  1       21 0.14441210E-01 0.19321406E+03</pdfrwt>
<totfact> 0.10396697E+05</totfact>
</mgrwt>
</event>
<event>
 4    1  0.4365842E+000  0.2100355E+03  0.7546771E-02  0.1141538E+00
         21   -1    0    0  503  502  0.00000000000E+00  0.00000000000E+00  0.13508397559E+02  0.13508397559E+02  0.00000000000E+00 0. -1.
         21   -1    0    0  501  503 -0.00000000000E+00 -0.00000000000E+00 -0.32687104926E+04  0.32687104926E+04  0.00000000000E+00 0. -1.
          6    1    1    2  501    0 -0.68928880407E+02  0.97132415930E+02 -0.16770842789E+04  0.16901853672E+04  0.17300000000E+03 0. -1.
         -6    1    1    2    0  502  0.68928880407E+02 -0.97132415930E+02 -0.15781178162E+04  0.15920335230E+04  0.17300000000E+03 0. -1.
<mgrwt>
<rscale>  2 0.21003547E+03</rscale>
<asrwt>0</asrwt>
<pdfrwt beam="1">  1       21 0.20782175E-02 0.21003547E+03</pdfrwt>
<pdfrwt beam="2">  1       21 0.50287795E+00 0.21003547E+03</pdfrwt>
<totfact> 0.20372967E+03</totfact>
</mgrwt>
</event>
<event>
 4    1  0.4365842E+000  0.2196856E+03  0.7546771E-02  0.1134118E+00
         21   -1    0    0  501  502  0.00000000000E+00  0.00000000000E+00  0.59602350833E+03  0.59602350833E+03  0.00000000000E+00 0.  1.
         21   -1    0    0  502  503 -0.00000000000E+00 -0.00000000000E+00 -0.38406571808E+03  0.38406571808E+03  0.00000000000E+00 0.  1.
          6    1    1    2  501    0 -0.13069374708E+03  0.35382364414E+02  0.54131095548E+03  0.58419116543E+03  0.17300000000E+03 0.  1.
         -6    1    1    2    0  503  0.13069374708E+03 -0.35382364414E+02 -0.32935316524E+03  0.39589806098E+03  0.17300000000E+03 0.  1.
<mgrwt>
<rscale>  2 0.21968561E+03</rscale>
<asrwt>0</asrwt>
<pdfrwt beam="1">  1       21 0.91695925E-01 0.21968561E+03</pdfrwt>
<pdfrwt beam="2">  1       21 0.59087033E-01 0.21968561E+03</pdfrwt>
<totfact> 0.26337675E+03</totfact>
</mgrwt>
</event>
<event>
 4    1  0.4365842E+000  0.2384266E+03  0.7546771E-02  0.1120845E+00
         21   -1    0    0  503  502  0.00000000000E+00  0.00000000000E+00  0.25954851844E+03  0.25954851844E+03  0.00000000000E+00 0. -1.
         21   -1    0    0  501  503 -0.00000000000E+00 -0.00000000000E+00 -0.23055713911E+03  0.23055713911E+03  0.00000000000E+00 0. -1.
          6    1    1    2  501    0 -0.15381396605E+03 -0.57091944169E+02 -0.40313517095E+02  0.24181068194E+03  0.17300000000E+03 0. -1.
         -6    1    1    2    0  502  0.15381396605E+03  0.57091944169E+02  0.69304896427E+02  0.24829497560E+03  0.17300000000E+03 0. -1.
<mgrwt>
<rscale>  2 0.23842656E+03</rscale>
<asrwt>0</asrwt>
<pdfrwt beam="1">  1       21 0.39930541E-01 0.23842656E+03</pdfrwt>
<pdfrwt beam="2">  1       21 0.35470329E-01 0.23842656E+03</pdfrwt>
<totfact> 0.45346282E+04</totfact>
</mgrwt>
</event>
<event>
 4    1  0.4365842E+000  0.2114334E+03  0.7546771E-02  0.1140436E+00
         21   -1    0    0  503  502  0.00000000000E+00  0.00000000000E+00  0.13771892964E+03  0.13771892964E+03  0.00000000000E+00 0.  1.
         21   -1    0    0  501  503 -0.00000000000E+00 -0.00000000000E+00 -0.36985129456E+03  0.36985129456E+03  0.00000000000E+00 0.  1.
          6    1    1    2  501    0  0.86153507841E+02  0.85747634425E+02 -0.20483286376E+03  0.29438170085E+03  0.17300000000E+03 0.  1.
         -6    1    1    2    0  502 -0.86153507841E+02 -0.85747634425E+02 -0.27299501171E+02  0.21318852335E+03  0.17300000000E+03 0.  1.
<mgrwt>
<rscale>  2 0.21143340E+03</rscale>
<asrwt>0</asrwt>
<pdfrwt beam="1">  1       21 0.21187528E-01 0.21143340E+03</pdfrwt>
<pdfrwt beam="2">  1       21 0.56900199E-01 0.21143340E+03</pdfrwt>
<totfact> 0.59613386E+04</totfact>
</mgrwt>
</event>
<event>
 4    1  0.4365842E+000  0.1830790E+03  0.7546771E-02  0.1164856E+00
         21   -1    0    0  503  502  0.00000000000E+00  0.00000000000E+00  0.27394430184E+03  0.27394430184E+03  0.00000000000E+00 0.  1.
         21   -1    0    0  501  503 -0.00000000000E+00 -0.00000000000E+00 -0.40269276592E+03  0.40269276592E+03  0.00000000000E+00 0.  1.
          6    1    1    2  501    0 -0.47265696998E+02  0.36808416188E+02 -0.34665496323E+03  0.39203006154E+03  0.17300000000E+03 0.  1.
         -6    1    1    2    0  502  0.47265696998E+02 -0.36808416188E+02  0.21790649916E+03  0.28460700622E+03  0.17300000000E+03 0.  1.
<mgrwt>
<rscale>  2 0.18307896E+03</rscale>
<asrwt>0</asrwt>
<pdfrwt beam="1">  1       21 0.42145277E-01 0.18307896E+03</pdfrwt>
<pdfrwt beam="2">  1       21 0.61952733E-01 0.18307896E+03</pdfrwt>
<totfact> 0.13185801E+04</totfact>
</mgrwt>
</event>
<event>
 4    1  0.4365842E+000  0.1855960E+03  0.7546771E-02  0.1162494E+00
         21   -1    0    0  503  502  0.00000000000E+00  0.00000000000E+00  0.20028693315E+02  0.20028693315E+02  0.00000000000E+00 0. -1.
         21   -1    0    0  501  503 -0.00000000000E+00 -0.00000000000E+00 -0.20606113190E+04  0.20606113190E+04  0.00000000000E+00 0. -1.
          6    1    1    2  501    0 -0.73924518127E+01  0.66799988611E+02 -0.59722471898E+03  0.62539847440E+03  0.17300000000E+03 0. -1.
         -6    1    1    2    0  502  0.73924518127E+01 -0.66799988611E+02 -0.14433579067E+04  0.14552415379E+04  0.17300000000E+03 0. -1.
<mgrwt>
<rscale>  2 0.18559603E+03</rscale>
<asrwt>0</asrwt>
<pdfrwt beam="1">  1       21 0.30813383E-02 0.18559603E+03</pdfrwt>
<pdfrwt beam="2">  1       21 0.31701704E+00 0.18559603E+03</pdfrwt>
<totfact> 0.16611273E+04</totfact>
</mgrwt>
</event>
<event>
 4    1  0.4365842E+000  0.4748888E+03  0.7546771E-02  0.1020549E+00
         21   -1    0    0  503  502  0.00000000000E+00  0.00000000000E+00  0.15458217092E+04  0.15458217092E+04  0.00000000000E+00 0. -1.
         21   -1    0    0  501  503 -0.00000000000E+00 -0.00000000000E+00 -0.16718805953E+03  0.16718805953E+03  0.00000000000E+00 0.  1.
          6    1    1    2  501    0 -0.43872160637E+03  0.55801165147E+02  0.38361318789E+03  0.61047399277E+03  0.17300000000E+03 0.  1.
         -6    1    1    2    0  502  0.43872160637E+03 -0.55801165147E+02  0.99502046176E+03  0.11025357759E+04  0.17300000000E+03 0. -1.
<mgrwt>
<rscale>  2 0.47488885E+03</rscale>
<asrwt>0</asrwt>
<pdfrwt beam="1">  1       21 0.23781872E+00 0.47488885E+03</pdfrwt>
<pdfrwt beam="2">  1       21 0.25721241E-01 0.47488885E+03</pdfrwt>
<totfact> 0.91638394E+02</totfact>
</mgrwt>
</event>
<event>
 4    1  0.4365842E+000  0.2488645E+03  0.7546771E-02  0.1114025E+00
         21   -1    0    0  503  502  0.00000000000E+00  0.00000000000E+00  0.71731359337E+02  0.71731359337E+02  0.00000000000E+00 0. -1.
         21   -1    0    0  501  503 -0.00000000000E+00 -0.00000000000E+00 -0.10508523498E+04  0.10508523498E+04  0.00000000000E+00 0.  1.
          6    1    1    2  501    0 -0.15930329324E+03  0.81406415167E+02 -0.72661718903E+03  0.76805343763E+03  0.17300000000E+03 0. -1.
         -6    1    1    2    0  502  0.15930329324E+03 -0.81406415167E+02 -0.25250380140E+03  0.35453027147E+03  0.17300000000E+03 0. -1.
<mgrwt>
<rscale>  2 0.24886451E+03</rscale>
<asrwt>0</asrwt>
<pdfrwt beam="1">  1       21 0.11035595E-01 0.24886451E+03</pdfrwt>
<pdfrwt beam="2">  1       21 0.16166958E+00 0.24886451E+03</pdfrwt>
<totfact> 0.16077431E+04</totfact>
</mgrwt>
</event>
<event>
 4    1  0.4365842E+000  0.1959100E+03  0.7546771E-02  0.1153236E+00
         21   -1    0    0  501  502  0.00000000000E+00  0.00000000000E+00  0.22877042274E+02  0.22877042274E+02  0.00000000000E+00 0.  1.
         21   -1    0    0  502  503 -0.00000000000E+00 -0.00000000000E+00 -0.21854267862E+04  0.21854267862E+04  0.00000000000E+00 0.  1.
          6    1    1    2  501    0  0.83420451559E+02  0.38636044077E+02 -0.54907156062E+03  0.58297538054E+03  0.17300000000E+03 0.  1.
         -6    1    1    2    0  503 -0.83420451559E+02 -0.38636044077E+02 -0.16134781833E+04  0.16253284479E+04  0.17300000000E+03 0.  1.
<mgrwt>
<rscale>  2 0.19590997E+03</rscale>
<asrwt>0</asrwt>
<pdfrwt beam="1">  1       21 0.35195442E-02 0.19590997E+03</pdfrwt>
<pdfrwt beam="2">  1       21 0.33621957E+00 0.19590997E+03</pdfrwt>
<totfact> 0.10185266E+04</totfact>
</mgrwt>
</event>
<event>
 4    1  0.4365842E+000  0.1812002E+03  0.7546771E-02  0.1166646E+00
         21   -1    0    0  503  502  0.00000000000E+00  0.00000000000E+00  0.56361473349E+02  0.56361473349E+02  0.00000000000E+00 0. -1.
         21   -1    0    0  501  503 -0.00000000000E+00 -0.00000000000E+00 -0.63245439506E+03  0.63245439506E+03  0.00000000000E+00 0. -1.
          6    1    1    2  501    0 -0.28105553722E+02  0.45984760836E+02 -0.38478885134E+03  0.42531868110E+03  0.17300000000E+03 0. -1.
         -6    1    1    2    0  502  0.28105553722E+02 -0.45984760836E+02 -0.19130407038E+03  0.26349718731E+03  0.17300000000E+03 0. -1.
<mgrwt>
<rscale>  2 0.18120022E+03</rscale>
<asrwt>0</asrwt>
<pdfrwt beam="1">  1       21 0.86709956E-02 0.18120022E+03</pdfrwt>
<pdfrwt beam="2">  1       21 0.97300679E-01 0.18120022E+03</pdfrwt>
<totfact> 0.91751290E+04</totfact>
</mgrwt>
</event>
<event>
 4    1  0.4365842E+000  0.1734298E+03  0.7546771E-02  0.1174318E+00
         21   -1    0    0  503  502  0.00000000000E+00  0.00000000000E+00  0.27766558563E+04  0.27766558563E+04  0.00000000000E+00 0. -1.
         21   -1    0    0  501  503 -0.00000000000E+00 -0.00000000000E+00 -0.25528326567E+02  0.25528326567E+02  0.00000000000E+00 0. -1.
          6    1    1    2  501    0 -0.75352002538E+01 -0.95982389269E+01  0.31251378561E+03  0.35741120803E+03  0.17300000000E+03 0. -1.
         -6    1    1    2    0  502  0.75352002538E+01  0.95982389269E+01  0.24386137441E+04  0.24447729748E+04  0.17300000000E+03 0. -1.
<mgrwt>
<rscale>  2 0.17342983E+03</rscale>
<asrwt>0</asrwt>
<pdfrwt beam="1">  1       21 0.42717759E+00 0.17342983E+03</pdfrwt>
<pdfrwt beam="2">  1       21 0.39274370E-02 0.17342983E+03</pdfrwt>
<totfact> 0.24420625E+03</totfact>
</mgrwt>
</event>
<event>
 4    1  0.4365842E+000  0.1971911E+03  0.7546771E-02  0.1152131E+00
         21   -1    0    0  503  502  0.00000000000E+00  0.00000000000E+00  0.58001621720E+02  0.58001621720E+02  0.00000000000E+00 0. -1.
         21   -1    0    0  501  503 -0.00000000000E+00 -0.00000000000E+00 -0.95988835786E+03  0.95988835786E+03  0.00000000000E+00 0. -1.
          6    1    1    2  501    0 -0.94175438840E+02 -0.92907876295E+01 -0.73043927550E+03  0.75658830761E+03  0.17300000000E+03 0. -1.
         -6    1    1    2    0  502  0.94175438840E+02  0.92907876295E+01 -0.17144746064E+03  0.26130167197E+03  0.17300000000E+03 0. -1.
<mgrwt>
<rscale>  2 0.19719111E+03</rscale>
<asrwt>0</asrwt>
<pdfrwt beam="1">  1       21 0.89233267E-02 0.19719111E+03</pdfrwt>
<pdfrwt beam="2">  1       21 0.14767513E+00 0.19719111E+03</pdfrwt>
<totfact> 0.30793320E+04</totfact>
</mgrwt>
</event>
<event>
 4    1  0.4365842E+000  0.1798004E+03  0.7546771E-02  0.1167996E+00
         21   -1    0    0  501  502  0.00000000000E+00  0.00000000000E+00  0.54469258845E+02  0.54469258845E+02  0.00000000000E+00 0. -1.
         21   -1    0    0  502  503 -0.00000000000E+00 -0.00000000000E+00 -0.77888095175E+03  0.77888095175E+03  0.00000000000E+00 0. -1.
          6    1    1    2  501    0  0.20845042763E+02 -0.44324579855E+02 -0.15893272208E+03  0.23997457018E+03  0.17300000000E+03 0. -1.
         -6    1    1    2    0  503 -0.20845042763E+02  0.44324579855E+02 -0.56547897083E+03  0.59337564041E+03  0.17300000000E+03 0. -1.
<mgrwt>
<rscale>  2 0.17980040E+03</rscale>
<asrwt>0</asrwt>
<pdfrwt beam="1">  1       21 0.83798873E-02 0.17980040E+03</pdfrwt>
<pdfrwt beam="2">  1       21 0.11982782E+00 0.17980040E+03</pdfrwt>
<totfact> 0.59035503E+04</totfact>
</mgrwt>
</event>
<event>
 4    1  0.4365842E+000  0.1868454E+03  0.7546771E-02  0.1161338E+00
         21   -1    0    0  503  502  0.00000000000E+00  0.00000000000E+00  0.15264253870E+03  0.15264253870E+03  0.00000000000E+00 0. -1.
         21   -1    0    0  501  503 -0.00000000000E+00 -0.00000000000E+00 -0.23333579082E+03  0.23333579082E+03  0.00000000000E+00 0.  1.
          6    1    1    2  501    0  0.70248487941E+02  0.68825602726E+01 -0.67512846396E+02  0.19866857860E+03  0.17300000000E+03 0. -1.
         -6    1    1    2    0  502 -0.70248487941E+02 -0.68825602726E+01 -0.13180405720E+02  0.18730975092E+03  0.17300000000E+03 0. -1.
<mgrwt>
<rscale>  2 0.18684544E+03</rscale>
<asrwt>0</asrwt>
<pdfrwt beam="1">  1       21 0.23483467E-01 0.18684544E+03</pdfrwt>
<pdfrwt beam="2">  1       21 0.35897814E-01 0.18684544E+03</pdfrwt>
<totfact> 0.12793120E+05</totfact>
</mgrwt>
</event>
<event>
 4    1  0.4365842E+000  0.2043715E+03  0.7546771E-02  0.1146102E+00
         21   -1    0    0  503  502  0.00000000000E+00  0.00000000000E+00  0.80647907601E+02  0.80647907601E+02  0.00000000000E+00 0. -1.
         21   -1    0    0  501  503 -0.00000000000E+00 -0.00000000000E+00 -0.52691245631E+03  0.52691245631E+03  0.00000000000E+00 0. -1.
          6    1    1    2  501    0  0.17512764205E+01 -0.10879172121E+03 -0.26285743943E+03  0.33295906511E+03  0.17300000000E+03 0. -1.
         -6    1    1    2    0  502 -0.17512764205E+01  0.10879172121E+03 -0.18340710928E+03  0.27460129880E+03  0.17300000000E+03 0. -1.
<mgrwt>
<rscale>  2 0.20437149E+03</rscale>
<asrwt>0</asrwt>
<pdfrwt beam="1">  1       21 0.12407371E-01 0.20437149E+03</pdfrwt>
<pdfrwt beam="2">  1       21 0.81063454E-01 0.20437149E+03</pdfrwt>
<totfact> 0.73393319E+04</totfact>
</mgrwt>
</event>
<event>
 4    1  0.4365842E+000  0.1787990E+03  0.7546771E-02  0.1168970E+00
         21   -1    0    0  503  502  0.00000000000E+00  0.00000000000E+00  0.21449969461E+03  0.21449969461E+03  0.00000000000E+00 0. -1.
         21   -1    0    0  501  503 -0.00000000000E+00 -0.00000000000E+00 -0.22275634628E+03  0.22275634628E+03  0.00000000000E+00 0.  1.
          6    1    1    2  501    0 -0.30937898937E+02  0.32908144188E+02 -0.12989679849E+03  0.22100289094E+03  0.17300000000E+03 0.  1.
         -6    1    1    2    0  502  0.30937898937E+02 -0.32908144188E+02  0.12164014682E+03  0.21625314995E+03  0.17300000000E+03 0. -1.
<mgrwt>
<rscale>  2 0.17879905E+03</rscale>
<asrwt>0</asrwt>
<pdfrwt beam="1">  1       21 0.32999953E-01 0.17879905E+03</pdfrwt>
<pdfrwt beam="2">  1       21 0.34270207E-01 0.17879905E+03</pdfrwt>
<totfact> 0.72960145E+04</totfact>
</mgrwt>
</event>
<event>
 4    1  0.4365842E+000  0.1804674E+03  0.7546771E-02  0.1167351E+00
         21   -1    0    0  501  502  0.00000000000E+00  0.00000000000E+00  0.92042148098E+03  0.92042148098E+03  0.00000000000E+00 0.  1.
         21   -1    0    0  502  503 -0.00000000000E+00 -0.00000000000E+00 -0.38927581018E+02  0.38927581018E+02  0.00000000000E+00 0.  1.
          6    1    1    2  501    0 -0.30997259751E+02  0.40971203124E+02  0.58546435417E+03  0.61264751660E+03  0.17300000000E+03 0.  1.
         -6    1    1    2    0  503  0.30997259751E+02 -0.40971203124E+02  0.29602954580E+03  0.34670154540E+03  0.17300000000E+03 0.  1.
<mgrwt>
<rscale>  2 0.18046736E+03</rscale>
<asrwt>0</asrwt>
<pdfrwt beam="1">  1       21 0.14160329E+00 0.18046736E+03</pdfrwt>
<pdfrwt beam="2">  1       21 0.59888593E-02 0.18046736E+03</pdfrwt>
<totfact> 0.69152301E+04</totfact>
</mgrwt>
</event>
<event>
 4    1  0.4365842E+000  0.2546813E+03  0.7546771E-02  0.1110382E+00
         21   -1    0    0  503  502  0.00000000000E+00  0.00000000000E+00  0.40581616748E+03  0.40581616748E+03  0.00000000000E+00 0. -1.
         21   -1    0    0  501  503 -0.00000000000E+00 -0.00000000000E+00 -0.16081064813E+03  0.16081064813E+03  0.00000000000E+00 0.  1.
          6    1    1    2  501    0  0.13299544680E+03 -0.13132313725E+03  0.14460027316E+03  0.29286821993E+03  0.17300000000E+03 0.  1.
         -6    1    1    2    0  502 -0.13299544680E+03  0.13132313725E+03  0.10040524619E+03  0.27375859568E+03  0.17300000000E+03 0.  1.
<mgrwt>
<rscale>  2 0.25468128E+03</rscale>
<asrwt>0</asrwt>
<pdfrwt beam="1">  1       21 0.62433256E-01 0.25468128E+03</pdfrwt>
<pdfrwt beam="2">  1       21 0.24740100E-01 0.25468128E+03</pdfrwt>
<totfact> 0.35675501E+04</totfact>
</mgrwt>
</event>
<event>
 4    1  0.4365842E+000  0.1949998E+03  0.7546771E-02  0.1154028E+00
         21   -1    0    0  503  502  0.00000000000E+00  0.00000000000E+00  0.76490167489E+02  0.76490167489E+02  0.00000000000E+00 0.  1.
         21   -1    0    0  501  503 -0.00000000000E+00 -0.00000000000E+00 -0.51064533948E+03  0.51064533948E+03  0.00000000000E+00 0.  1.
          6    1    1    2  501    0  0.88531679330E+02  0.16064901532E+02 -0.26485161210E+03  0.32889407981E+03  0.17300000000E+03 0.  1.
         -6    1    1    2    0  502 -0.88531679330E+02 -0.16064901532E+02 -0.16930355990E+03  0.25824142716E+03  0.17300000000E+03 0.  1.
<mgrwt>
<rscale>  2 0.19499984E+03</rscale>
<asrwt>0</asrwt>
<pdfrwt beam="1">  1       21 0.11767718E-01 0.19499984E+03</pdfrwt>
<pdfrwt beam="2">  1       21 0.78560820E-01 0.19499984E+03</pdfrwt>
<totfact> 0.86988307E+04</totfact>
</mgrwt>
</event>
<event>
 4    1  0.4365842E+000  0.1860845E+03  0.7546771E-02  0.1162041E+00
         21   -1    0    0  503  502  0.00000000000E+00  0.00000000000E+00  0.11834457774E+03  0.11834457774E+03  0.00000000000E+00 0.  1.
         21   -1    0    0  501  503 -0.00000000000E+00 -0.00000000000E+00 -0.42362242942E+03  0.42362242942E+03  0.00000000000E+00 0. -1.
          6    1    1    2  501    0  0.68058197138E+02 -0.81559053815E+01 -0.30334432631E+03  0.35587247336E+03  0.17300000000E+03 0.  1.
         -6    1    1    2    0  502 -0.68058197138E+02  0.81559053815E+01 -0.19335253799E+01  0.18609453380E+03  0.17300000000E+03 0.  1.
<mgrwt>
<rscale>  2 0.18608449E+03</rscale>
<asrwt>0</asrwt>
<pdfrwt beam="1">  1       21 0.18206858E-01 0.18608449E+03</pdfrwt>
<pdfrwt beam="2">  1       21 0.65172682E-01 0.18608449E+03</pdfrwt>
<totfact> 0.59742342E+04</totfact>
</mgrwt>
</event>
<event>
 4    1  0.4365842E+000  0.2341130E+03  0.7546771E-02  0.1123778E+00
         21   -1    0    0  503  502  0.00000000000E+00  0.00000000000E+00  0.40673069963E+03  0.40673069963E+03  0.00000000000E+00 0. -1.
         21   -1    0    0  501  503 -0.00000000000E+00 -0.00000000000E+00 -0.62037827338E+03  0.62037827338E+03  0.00000000000E+00 0. -1.
          6    1    1    2  501    0  0.15095653537E+03 -0.45738412948E+02 -0.56119217962E+03  0.60806705260E+03  0.17300000000E+03 0. -1.
         -6    1    1    2    0  502 -0.15095653537E+03  0.45738412948E+02  0.34754460587E+03  0.41904192041E+03  0.17300000000E+03 0. -1.
<mgrwt>
<rscale>  2 0.23411296E+03</rscale>
<asrwt>0</asrwt>
<pdfrwt beam="1">  1       21 0.62573954E-01 0.23411296E+03</pdfrwt>
<pdfrwt beam="2">  1       21 0.95442811E-01 0.23411296E+03</pdfrwt>
<totfact> 0.20945495E+03</totfact>
</mgrwt>
</event>
<event>
 4    1  0.4365842E+000  0.2086210E+03  0.7546771E-02  0.1142663E+00
         21   -1    0    0  501  502  0.00000000000E+00  0.00000000000E+00  0.86509838022E+02  0.86509838022E+02  0.00000000000E+00 0. -1.
         21   -1    0    0  502  503 -0.00000000000E+00 -0.00000000000E+00 -0.55576532554E+03  0.55576532554E+03  0.00000000000E+00 0.  1.
          6    1    1    2  501    0 -0.10526140625E+03 -0.50137503737E+02 -0.13576668289E+03  0.24890826646E+03  0.17300000000E+03 0.  1.
         -6    1    1    2    0  503  0.10526140625E+03  0.50137503737E+02 -0.33348880462E+03  0.39336689710E+03  0.17300000000E+03 0.  1.
<mgrwt>
<rscale>  2 0.20862103E+03</rscale>
<asrwt>0</asrwt>
<pdfrwt beam="1">  1       21 0.13309206E-01 0.20862103E+03</pdfrwt>
<pdfrwt beam="2">  1       21 0.85502358E-01 0.20862103E+03</pdfrwt>
<totfact> 0.57156630E+04</totfact>
</mgrwt>
</event>
<event>
 4    1  0.4365842E+000  0.2138791E+03  0.7546771E-02  0.1138530E+00
         21   -1    0    0  501  502  0.00000000000E+00  0.00000000000E+00  0.15777166019E+03  0.15777166019E+03  0.00000000000E+00 0. -1.
         21   -1    0    0  502  503 -0.00000000000E+00 -0.00000000000E+00 -0.66923659751E+03  0.66923659751E+03  0.00000000000E+00 0. -1.
          6    1    1    2  501    0 -0.79935118001E+02  0.97085840402E+02  0.55567873046E+02  0.22097980001E+03  0.17300000000E+03 0. -1.
         -6    1    1    2    0  503  0.79935118001E+02 -0.97085840402E+02 -0.56703281037E+03  0.60602845769E+03  0.17300000000E+03 0. -1.
<mgrwt>
<rscale>  2 0.21387913E+03</rscale>
<asrwt>0</asrwt>
<pdfrwt beam="1">  1       21 0.24272563E-01 0.21387913E+03</pdfrwt>
<pdfrwt beam="2">  1       21 0.10295948E+00 0.21387913E+03</pdfrwt>
<totfact> 0.12097507E+04</totfact>
</mgrwt>
</event>
<event>
 4    1  0.4365842E+000  0.2035847E+03  0.7546771E-02  0.1146749E+00
         21   -1    0    0  501  502  0.00000000000E+00  0.00000000000E+00  0.60425223247E+03  0.60425223247E+03  0.00000000000E+00 0.  1.
         21   -1    0    0  502  503 -0.00000000000E+00 -0.00000000000E+00 -0.70442928730E+02  0.70442928730E+02  0.00000000000E+00 0.  1.
          6    1    1    2  501    0 -0.91263063083E+02  0.56469363266E+02  0.32159109234E+03  0.38061472166E+03  0.17300000000E+03 0.  1.
         -6    1    1    2    0  503  0.91263063083E+02 -0.56469363266E+02  0.21221821140E+03  0.29408043954E+03  0.17300000000E+03 0.  1.
<mgrwt>
<rscale>  2 0.20358471E+03</rscale>
<asrwt>0</asrwt>
<pdfrwt beam="1">  1       21 0.92961879E-01 0.20358471E+03</pdfrwt>
<pdfrwt beam="2">  1       21 0.10837374E-01 0.20358471E+03</pdfrwt>
<totfact> 0.68223069E+04</totfact>
</mgrwt>
</event>
<event>
 4    1  0.4365842E+000  0.1739867E+03  0.7546771E-02  0.1173753E+00
         21   -1    0    0  501  502  0.00000000000E+00  0.00000000000E+00  0.62138629464E+02  0.62138629464E+02  0.00000000000E+00 0.  1.
         21   -1    0    0  502  503 -0.00000000000E+00 -0.00000000000E+00 -0.75306628858E+03  0.75306628858E+03  0.00000000000E+00 0.  1.
          6    1    1    2  501    0  0.65894856940E+01 -0.17290654687E+02 -0.10325756464E+03  0.20232032206E+03  0.17300000000E+03 0.  1.
         -6    1    1    2    0  503 -0.65894856940E+01  0.17290654687E+02 -0.58767009447E+03  0.61288459599E+03  0.17300000000E+03 0.  1.
<mgrwt>
<rscale>  2 0.17398675E+03</rscale>
<asrwt>0</asrwt>
<pdfrwt beam="1">  1       21 0.95597889E-02 0.17398675E+03</pdfrwt>
<pdfrwt beam="2">  1       21 0.11585636E+00 0.17398675E+03</pdfrwt>
<totfact> 0.51072605E+04</totfact>
</mgrwt>
</event>
<event>
 4    1  0.4365842E+000  0.2051228E+03  0.7546771E-02  0.1145487E+00
         21   -1    0    0  503  502  0.00000000000E+00  0.00000000000E+00  0.62843547385E+02  0.62843547385E+02  0.00000000000E+00 0.  1.
         21   -1    0    0  501  503 -0.00000000000E+00 -0.00000000000E+00 -0.10903451856E+04  0.10903451856E+04  0.00000000000E+00 0.  1.
          6    1    1    2  501    0  0.13924275017E+02  0.10932745009E+03 -0.87195962258E+03  0.89576166484E+03  0.17300000000E+03 0.  1.
         -6    1    1    2    0  502 -0.13924275017E+02 -0.10932745009E+03 -0.15554201559E+03  0.25742706810E+03  0.17300000000E+03 0.  1.
<mgrwt>
<rscale>  2 0.20512283E+03</rscale>
<asrwt>0</asrwt>
<pdfrwt beam="1">  1       21 0.96682380E-02 0.20512283E+03</pdfrwt>
<pdfrwt beam="2">  1       21 0.16774541E+00 0.20512283E+03</pdfrwt>
<totfact> 0.18896280E+04</totfact>
</mgrwt>
</event>
<event>
 4    1  0.4365842E+000  0.1782893E+03  0.7546771E-02  0.1169469E+00
         21   -1    0    0  503  502  0.00000000000E+00  0.00000000000E+00  0.67536778137E+02  0.67536778137E+02  0.00000000000E+00 0. -1.
         21   -1    0    0  501  503 -0.00000000000E+00 -0.00000000000E+00 -0.51187048457E+03  0.51187048457E+03  0.00000000000E+00 0. -1.
          6    1    1    2  501    0  0.36488970021E+02 -0.22948566924E+02 -0.30436470377E+03  0.35273921607E+03  0.17300000000E+03 0. -1.
         -6    1    1    2    0  502 -0.36488970021E+02  0.22948566924E+02 -0.13996900266E+03  0.22666804663E+03  0.17300000000E+03 0. -1.
<mgrwt>
<rscale>  2 0.17828932E+03</rscale>
<asrwt>0</asrwt>
<pdfrwt beam="1">  1       21 0.10390273E-01 0.17828932E+03</pdfrwt>
<pdfrwt beam="2">  1       21 0.78749308E-01 0.17828932E+03</pdfrwt>
<totfact> 0.10866846E+05</totfact>
</mgrwt>
</event>
<event>
 4    1  0.4365842E+000  0.2939254E+03  0.7546771E-02  0.1088317E+00
         21   -1    0    0  501  502  0.00000000000E+00  0.00000000000E+00  0.10676485307E+03  0.10676485307E+03  0.00000000000E+00 0.  1.
         21   -1    0    0  502  503 -0.00000000000E+00 -0.00000000000E+00 -0.81904041787E+03  0.81904041787E+03  0.00000000000E+00 0.  1.
          6    1    1    2  501    0 -0.22199782743E+03  0.84735569260E+02 -0.30535108949E+03  0.42382949394E+03  0.17300000000E+03 0.  1.
         -6    1    1    2    0  503  0.22199782743E+03 -0.84735569260E+02 -0.40692447532E+03  0.50197577700E+03  0.17300000000E+03 0.  1.
<mgrwt>
<rscale>  2 0.29392542E+03</rscale>
<asrwt>0</asrwt>
<pdfrwt beam="1">  1       21 0.16425362E-01 0.29392542E+03</pdfrwt>
<pdfrwt beam="2">  1       21 0.12600622E+00 0.29392542E+03</pdfrwt>
<totfact> 0.14673651E+04</totfact>
</mgrwt>
</event>
<event>
 4    1  0.4365842E+000  0.2183727E+03  0.7546771E-02  0.1135102E+00
         21   -1    0    0  501  502  0.00000000000E+00  0.00000000000E+00  0.21036960871E+02  0.21036960871E+02  0.00000000000E+00 0.  1.
         21   -1    0    0  502  503 -0.00000000000E+00 -0.00000000000E+00 -0.26676544979E+04  0.26676544979E+04  0.00000000000E+00 0. -1.
          6    1    1    2  501    0 -0.63309008667E+02  0.11725876645E+03 -0.80218862271E+03  0.83138031928E+03  0.17300000000E+03 0.  1.
         -6    1    1    2    0  503  0.63309008667E+02 -0.11725876645E+03 -0.18444289143E+04  0.18573111395E+04  0.17300000000E+03 0. -1.
<mgrwt>
<rscale>  2 0.21837273E+03</rscale>
<asrwt>0</asrwt>
<pdfrwt beam="1">  1       21 0.32364551E-02 0.21837273E+03</pdfrwt>
<pdfrwt beam="2">  1       21 0.41040843E+00 0.21837273E+03</pdfrwt>
<totfact> 0.40445250E+03</totfact>
</mgrwt>
</event>
<event>
 4    1  0.4365842E+000  0.1981267E+03  0.7546771E-02  0.1151329E+00
         21   -1    0    0  503  502  0.00000000000E+00  0.00000000000E+00  0.14445947906E+03  0.14445947906E+03  0.00000000000E+00 0. -1.
         21   -1    0    0  501  503 -0.00000000000E+00 -0.00000000000E+00 -0.27262940095E+03  0.27262940095E+03  0.00000000000E+00 0. -1.
          6    1    1    2  501    0  0.92983130802E+02 -0.26064137483E+02 -0.76052591299E+02  0.21222205003E+03  0.17300000000E+03 0.  1.
         -6    1    1    2    0  502 -0.92983130802E+02  0.26064137483E+02 -0.52117330586E+02  0.20486682997E+03  0.17300000000E+03 0.  1.
<mgrwt>
<rscale>  2 0.19812673E+03</rscale>
<asrwt>0</asrwt>
<pdfrwt beam="1">  1       21 0.22224535E-01 0.19812673E+03</pdfrwt>
<pdfrwt beam="2">  1       21 0.41942984E-01 0.19812673E+03</pdfrwt>
<totfact> 0.10338574E+05</totfact>
</mgrwt>
</event>
<event>
 4    1  0.4365842E+000  0.1972680E+03  0.7546771E-02  0.1152065E+00
         21   -1    0    0  501  502  0.00000000000E+00  0.00000000000E+00  0.63891318169E+02  0.63891318169E+02  0.00000000000E+00 0.  1.
         21   -1    0    0  502  503 -0.00000000000E+00 -0.00000000000E+00 -0.62812393384E+03  0.62812393384E+03  0.00000000000E+00 0. -1.
          6    1    1    2  501    0 -0.17581944142E+02 -0.93147978471E+02 -0.34237040084E+03  0.39513562485E+03  0.17300000000E+03 0. -1.
         -6    1    1    2    0  503  0.17581944142E+02  0.93147978471E+02 -0.22186221483E+03  0.29687962716E+03  0.17300000000E+03 0.  1.
<mgrwt>
<rscale>  2 0.19726802E+03</rscale>
<asrwt>0</asrwt>
<pdfrwt beam="1">  1       21 0.98294339E-02 0.19726802E+03</pdfrwt>
<pdfrwt beam="2">  1       21 0.96634449E-01 0.19726802E+03</pdfrwt>
<totfact> 0.74289259E+04</totfact>
</mgrwt>
</event>
<event>
 4    1  0.4365842E+000  0.3587095E+03  0.7546771E-02  0.1059096E+00
         21   -1    0    0  503  502  0.00000000000E+00  0.00000000000E+00  0.75602871049E+03  0.75602871049E+03  0.00000000000E+00 0.  1.
         21   -1    0    0  501  503 -0.00000000000E+00 -0.00000000000E+00 -0.18746705802E+03  0.18746705802E+03  0.00000000000E+00 0.  1.
          6    1    1    2  501    0 -0.26941123202E+03  0.16174391971E+03  0.42747197677E+03  0.55803655653E+03  0.17300000000E+03 0.  1.
         -6    1    1    2    0  502  0.26941123202E+03 -0.16174391971E+03  0.14108967571E+03  0.38545921197E+03  0.17300000000E+03 0.  1.
<mgrwt>
<rscale>  2 0.35870950E+03</rscale>
<asrwt>0</asrwt>
<pdfrwt beam="1">  1       21 0.11631211E+00 0.35870950E+03</pdfrwt>
<pdfrwt beam="2">  1       21 0.28841086E-01 0.35870950E+03</pdfrwt>
<totfact> 0.59652439E+03</totfact>
</mgrwt>
</event>
<event>
 4    1  0.4365842E+000  0.1830000E+03  0.7546771E-02  0.1164931E+00
         21   -1    0    0  501  502  0.00000000000E+00  0.00000000000E+00  0.42992948818E+03  0.42992948818E+03  0.00000000000E+00 0.  1.
         21   -1    0    0  502  503 -0.00000000000E+00 -0.00000000000E+00 -0.77918779764E+02  0.77918779764E+02  0.00000000000E+00 0.  1.
          6    1    1    2  501    0 -0.47164620076E+02 -0.36544630753E+02  0.17149495261E+03  0.25079778746E+03  0.17300000000E+03 0.  1.
         -6    1    1    2    0  503  0.47164620076E+02  0.36544630753E+02  0.18051575581E+03  0.25705048049E+03  0.17300000000E+03 0.  1.
<mgrwt>
<rscale>  2 0.18300003E+03</rscale>
<asrwt>0</asrwt>
<pdfrwt beam="1">  1       21 0.66142997E-01 0.18300003E+03</pdfrwt>
<pdfrwt beam="2">  1       21 0.11987505E-01 0.18300003E+03</pdfrwt>
<totfact> 0.12378401E+05</totfact>
</mgrwt>
</event>
<event>
 4    1  0.4365842E+000  0.1770887E+03  0.7546771E-02  0.1170651E+00
         21   -1    0    0  503  502  0.00000000000E+00  0.00000000000E+00  0.12841548089E+04  0.12841548089E+04  0.00000000000E+00 0. -1.
         21   -1    0    0  501  503 -0.00000000000E+00 -0.00000000000E+00 -0.33607155072E+02  0.33607155072E+02  0.00000000000E+00 0. -1.
          6    1    1    2  501    0  0.33005071613E+02 -0.18494764148E+02  0.28079928747E+03  0.33197685296E+03  0.17300000000E+03 0. -1.
         -6    1    1    2    0  502 -0.33005071613E+02  0.18494764148E+02  0.96974836639E+03  0.98578511105E+03  0.17300000000E+03 0. -1.
<mgrwt>
<rscale>  2 0.17708865E+03</rscale>
<asrwt>0</asrwt>
<pdfrwt beam="1">  1       21 0.19756224E+00 0.17708865E+03</pdfrwt>
<pdfrwt beam="2">  1       21 0.51703325E-02 0.17708865E+03</pdfrwt>
<totfact> 0.35764431E+04</totfact>
</mgrwt>
</event>
<event>
 4    1  0.4365842E+000  0.2456566E+03  0.7546771E-02  0.1116081E+00
         21   -1    0    0  503  502  0.00000000000E+00  0.00000000000E+00  0.14945178242E+03  0.14945178242E+03  0.00000000000E+00 0.  1.
         21   -1    0    0  501  503 -0.00000000000E+00 -0.00000000000E+00 -0.42953806097E+03  0.42953806097E+03  0.00000000000E+00 0. -1.
          6    1    1    2  501    0  0.11218095467E+02 -0.17404692800E+03 -0.21092089022E+03  0.32378202659E+03  0.17300000000E+03 0. -1.
         -6    1    1    2    0  502 -0.11218095467E+02  0.17404692800E+03 -0.69165388320E+02  0.25520781680E+03  0.17300000000E+03 0.  1.
<mgrwt>
<rscale>  2 0.24565663E+03</rscale>
<asrwt>0</asrwt>
<pdfrwt beam="1">  1       21 0.22992582E-01 0.24565663E+03</pdfrwt>
<pdfrwt beam="2">  1       21 0.66082779E-01 0.24565663E+03</pdfrwt>
<totfact> 0.36384309E+04</totfact>
</mgrwt>
</event>
<event>
 4    1  0.4365842E+000  0.2508711E+03  0.7546771E-02  0.1112756E+00
         21   -1    0    0  503  502  0.00000000000E+00  0.00000000000E+00  0.31055106780E+03  0.31055106780E+03  0.00000000000E+00 0. -1.
         21   -1    0    0  501  503 -0.00000000000E+00 -0.00000000000E+00 -0.20309266291E+03  0.20309266291E+03  0.00000000000E+00 0. -1.
          6    1    1    2  501    0 -0.12464217603E+03  0.13218038317E+03  0.65581016000E+02  0.25930136020E+03  0.17300000000E+03 0. -1.
         -6    1    1    2    0  502  0.12464217603E+03 -0.13218038317E+03  0.41877388892E+02  0.25434237052E+03  0.17300000000E+03 0. -1.
<mgrwt>
<rscale>  2 0.25087113E+03</rscale>
<asrwt>0</asrwt>
<pdfrwt beam="1">  1       21 0.47777087E-01 0.25087113E+03</pdfrwt>
<pdfrwt beam="2">  1       21 0.31245025E-01 0.25087113E+03</pdfrwt>
<totfact> 0.40114236E+04</totfact>
</mgrwt>
</event>
<event>
 4    1  0.4365842E+000  0.1854308E+03  0.7546771E-02  0.1162648E+00
         21   -1    0    0  503  502  0.00000000000E+00  0.00000000000E+00  0.14977141388E+03  0.14977141388E+03  0.00000000000E+00 0. -1.
         21   -1    0    0  501  503 -0.00000000000E+00 -0.00000000000E+00 -0.26350922475E+03  0.26350922475E+03  0.00000000000E+00 0. -1.
          6    1    1    2  501    0 -0.66707809772E+02  0.23737809948E+01 -0.13101737227E+03  0.22704651188E+03  0.17300000000E+03 0. -1.
         -6    1    1    2    0  502  0.66707809772E+02 -0.23737809948E+01  0.17279561399E+02  0.18623412674E+03  0.17300000000E+03 0. -1.
<mgrwt>
<rscale>  2 0.18543076E+03</rscale>
<asrwt>0</asrwt>
<pdfrwt beam="1">  1       21 0.23041756E-01 0.18543076E+03</pdfrwt>
<pdfrwt beam="2">  1       21 0.40539880E-01 0.18543076E+03</pdfrwt>
<totfact> 0.10396876E+05</totfact>
</mgrwt>
</event>
<event>
 4    1  0.4365842E+000  0.2179893E+03  0.7546771E-02  0.1135391E+00
         21   -1    0    0  501  502  0.00000000000E+00  0.00000000000E+00  0.91290609286E+03  0.91290609286E+03  0.00000000000E+00 0. -1.
         21   -1    0    0  502  503 -0.00000000000E+00 -0.00000000000E+00 -0.69053282454E+02  0.69053282454E+02  0.00000000000E+00 0. -1.
          6    1    1    2  501    0 -0.11716963897E+03  0.62141747139E+02  0.66554023876E+03  0.70033072933E+03  0.17300000000E+03 0. -1.
         -6    1    1    2    0  503  0.11716963897E+03 -0.62141747139E+02  0.17831257165E+03  0.28162864599E+03  0.17300000000E+03 0. -1.
<mgrwt>
<rscale>  2 0.21798927E+03</rscale>
<asrwt>0</asrwt>
<pdfrwt beam="1">  1       21 0.14044708E+00 0.21798927E+03</pdfrwt>
<pdfrwt beam="2">  1       21 0.10623583E-01 0.21798927E+03</pdfrwt>
<totfact> 0.25472596E+04</totfact>
</mgrwt>
</event>
<event>
 4    1  0.4365842E+000  0.2056306E+03  0.7546771E-02  0.1145074E+00
         21   -1    0    0  501  502  0.00000000000E+00  0.00000000000E+00  0.20654248356E+04  0.20654248356E+04  0.00000000000E+00 0.  1.
         21   -1    0    0  502  503 -0.00000000000E+00 -0.00000000000E+00 -0.20664259598E+02  0.20664259598E+02  0.00000000000E+00 0.  1.
          6    1    1    2  501    0  0.28626157177E+02  0.10740337436E+03  0.11229177826E+04  0.11415902453E+04  0.17300000000E+03 0.  1.
         -6    1    1    2    0  503 -0.28626157177E+02 -0.10740337436E+03  0.92184279332E+03  0.94449884981E+03  0.17300000000E+03 0.  1.
<mgrwt>
<rscale>  2 0.20563060E+03</rscale>
<asrwt>0</asrwt>
<pdfrwt beam="1">  1       21 0.31775750E+00 0.20563060E+03</pdfrwt>
<pdfrwt beam="2">  1       21 0.31791185E-02 0.20563060E+03</pdfrwt>
<totfact> 0.15290915E+04</totfact>
</mgrwt>
</event>
<event>
 4    1  0.4365842E+000  0.2264230E+03  0.7546771E-02  0.1129183E+00
         21   -1    0    0  503  502  0.00000000000E+00  0.00000000000E+00  0.92520966244E+03  0.92520966244E+03  0.00000000000E+00 0.  1.
         21   -1    0    0  501  503 -0.00000000000E+00 -0.00000000000E+00 -0.77222569435E+02  0.77222569435E+02  0.00000000000E+00 0.  1.
          6    1    1    2  501    0  0.20997216767E+02 -0.14455968450E+03  0.15762068201E+03  0.27588342627E+03  0.17300000000E+03 0.  1.
         -6    1    1    2    0  502 -0.20997216767E+02  0.14455968450E+03  0.69036641099E+03  0.72654880560E+03  0.17300000000E+03 0.  1.
<mgrwt>
<rscale>  2 0.22642302E+03</rscale>
<asrwt>0</asrwt>
<pdfrwt beam="1">  1       21 0.14233994E+00 0.22642302E+03</pdfrwt>
<pdfrwt beam="2">  1       21 0.11880396E-01 0.22642302E+03</pdfrwt>
<totfact> 0.20045039E+04</totfact>
</mgrwt>
</event>
<event>
 4    1  0.4365842E+000  0.1857639E+03  0.7546771E-02  0.1162338E+00
         21   -1    0    0  503  502  0.00000000000E+00  0.00000000000E+00  0.14511351719E+02  0.14511351719E+02  0.00000000000E+00 0.  1.
         21   -1    0    0  501  503 -0.00000000000E+00 -0.00000000000E+00 -0.26275581608E+04  0.26275581608E+04  0.00000000000E+00 0. -1.
          6    1    1    2  501    0  0.30876767039E+02 -0.60215053751E+02 -0.89941507483E+03  0.91839844527E+03  0.17300000000E+03 0.  1.
         -6    1    1    2    0  502 -0.30876767039E+02  0.60215053751E+02 -0.17136317342E+04  0.17236710672E+04  0.17300000000E+03 0. -1.
<mgrwt>
<rscale>  2 0.18576390E+03</rscale>
<asrwt>0</asrwt>
<pdfrwt beam="1">  1       21 0.22325150E-02 0.18576390E+03</pdfrwt>
<pdfrwt beam="2">  1       21 0.40423983E+00 0.18576390E+03</pdfrwt>
<totfact> 0.85115223E+03</totfact>
</mgrwt>
</event>
<event>
 4    1  0.4365842E+000  0.2656679E+03  0.7546771E-02  0.1103785E+00
         21   -1    0    0  501  502  0.00000000000E+00  0.00000000000E+00  0.34598898740E+03  0.34598898740E+03  0.00000000000E+00 0.  1.
         21   -1    0    0  502  503 -0.00000000000E+00 -0.00000000000E+00 -0.65139511530E+03  0.65139511530E+03  0.00000000000E+00 0.  1.
          6    1    1    2  501    0 -0.57089445762E+02  0.19336814294E+03  0.26059089441E+03  0.37213849273E+03  0.17300000000E+03 0.  1.
         -6    1    1    2    0  503  0.57089445762E+02 -0.19336814294E+03 -0.56599702231E+03  0.62524560997E+03  0.17300000000E+03 0.  1.
<mgrwt>
<rscale>  2 0.26566792E+03</rscale>
<asrwt>0</asrwt>
<pdfrwt beam="1">  1       21 0.53229075E-01 0.26566792E+03</pdfrwt>
<pdfrwt beam="2">  1       21 0.10021463E+00 0.26566792E+03</pdfrwt>
<totfact> 0.25824338E+03</totfact>
</mgrwt>
</event>
<event>
 4    1  0.4365842E+000  0.2172107E+03  0.7546771E-02  0.1135980E+00
         21   -1    0    0  503  502  0.00000000000E+00  0.00000000000E+00  0.81688002599E+02  0.81688002599E+02  0.00000000000E+00 0. -1.
         21   -1    0    0  501  503 -0.00000000000E+00 -0.00000000000E+00 -0.62476659412E+03  0.62476659412E+03  0.00000000000E+00 0. -1.
          6    1    1    2  501    0  0.86645240457E+02  0.98712193044E+02 -0.36862453807E+03  0.42786042679E+03  0.17300000000E+03 0. -1.
         -6    1    1    2    0  502 -0.86645240457E+02 -0.98712193044E+02 -0.17445405345E+03  0.27859416992E+03  0.17300000000E+03 0. -1.
<mgrwt>
<rscale>  2 0.21721072E+03</rscale>
<asrwt>0</asrwt>
<pdfrwt beam="1">  1       21 0.12567385E-01 0.21721072E+03</pdfrwt>
<pdfrwt beam="2">  1       21 0.96117935E-01 0.21721072E+03</pdfrwt>
<totfact> 0.48089619E+04</totfact>
</mgrwt>
</event>
<event>
 4    1  0.4365842E+000  0.2007315E+03  0.7546771E-02  0.1149123E+00
         21   -1    0    0  501  502  0.00000000000E+00  0.00000000000E+00  0.31434894201E+03  0.31434894201E+03  0.00000000000E+00 0. -1.
         21   -1    0    0  502  503 -0.00000000000E+00 -0.00000000000E+00 -0.14256909245E+03  0.14256909245E+03  0.00000000000E+00 0. -1.
          6    1    1    2  501    0  0.96380457643E+02 -0.32786503431E+02  0.13309900005E+02  0.20117231634E+03  0.17300000000E+03 0. -1.
         -6    1    1    2    0  503 -0.96380457643E+02  0.32786503431E+02  0.15846994956E+03  0.25574571812E+03  0.17300000000E+03 0. -1.
<mgrwt>
<rscale>  2 0.20073153E+03</rscale>
<asrwt>0</asrwt>
<pdfrwt beam="1">  1       21 0.48361376E-01 0.20073153E+03</pdfrwt>
<pdfrwt beam="2">  1       21 0.21933707E-01 0.20073153E+03</pdfrwt>
<totfact> 0.79004330E+04</totfact>
</mgrwt>
</event>
<event>
 4    1  0.4365842E+000  0.1785248E+03  0.7546771E-02  0.1169238E+00
         21   -1    0    0  501  502  0.00000000000E+00  0.00000000000E+00  0.31438217864E+03  0.31438217864E+03  0.00000000000E+00 0.  1.
         21   -1    0    0  502  503 -0.00000000000E+00 -0.00000000000E+00 -0.74393448862E+03  0.74393448862E+03  0.00000000000E+00 0.  1.
          6    1    1    2  501    0  0.13546225252E+01  0.44048427188E+02  0.27700775244E+03  0.32955180754E+03  0.17300000000E+03 0.  1.
         -6    1    1    2    0  503 -0.13546225252E+01 -0.44048427188E+02 -0.70656006242E+03  0.72876485971E+03  0.17300000000E+03 0.  1.
<mgrwt>
<rscale>  2 0.17852479E+03</rscale>
<asrwt>0</asrwt>
<pdfrwt beam="1">  1       21 0.48366489E-01 0.17852479E+03</pdfrwt>
<pdfrwt beam="2">  1       21 0.11445146E+00 0.17852479E+03</pdfrwt>
<totfact> 0.24534017E+03</totfact>
</mgrwt>
</event>
<event>
 4    1  0.4365842E+000  0.2044414E+03  0.7546771E-02  0.1146045E+00
         21   -1    0    0  503  502  0.00000000000E+00  0.00000000000E+00  0.28327114992E+03  0.28327114992E+03  0.00000000000E+00 0.  1.
         21   -1    0    0  501  503 -0.00000000000E+00 -0.00000000000E+00 -0.30449808128E+03  0.30449808128E+03  0.00000000000E+00 0. -1.
          6    1    1    2  501    0  0.10828109908E+03  0.11936281733E+02 -0.22160472635E+03  0.30150443775E+03  0.17300000000E+03 0. -1.
         -6    1    1    2    0  502 -0.10828109908E+03 -0.11936281733E+02  0.20037779499E+03  0.28626479344E+03  0.17300000000E+03 0.  1.
<mgrwt>
<rscale>  2 0.20444136E+03</rscale>
<asrwt>0</asrwt>
<pdfrwt beam="1">  1       21 0.43580177E-01 0.20444136E+03</pdfrwt>
<pdfrwt beam="2">  1       21 0.46845859E-01 0.20444136E+03</pdfrwt>
<totfact> 0.21921481E+04</totfact>
</mgrwt>
</event>
<event>
 4    1  0.4365842E+000  0.1993451E+03  0.7546771E-02  0.1150293E+00
         21   -1    0    0  503  502  0.00000000000E+00  0.00000000000E+00  0.46326626274E+03  0.46326626274E+03  0.00000000000E+00 0.  1.
         21   -1    0    0  501  503 -0.00000000000E+00 -0.00000000000E+00 -0.87549188017E+02  0.87549188017E+02  0.00000000000E+00 0.  1.
          6    1    1    2  501    0 -0.44700769840E+02 -0.88381689610E+02  0.22702090934E+03  0.30212079564E+03  0.17300000000E+03 0.  1.
         -6    1    1    2    0  502  0.44700769840E+02  0.88381689610E+02  0.14869616538E+03  0.24869465511E+03  0.17300000000E+03 0.  1.
<mgrwt>
<rscale>  2 0.19934513E+03</rscale>
<asrwt>0</asrwt>
<pdfrwt beam="1">  1       21 0.71271732E-01 0.19934513E+03</pdfrwt>
<pdfrwt beam="2">  1       21 0.13469106E-01 0.19934513E+03</pdfrwt>
<totfact> 0.84663727E+04</totfact>
</mgrwt>
</event>
<event>
 4    1  0.4365842E+000  0.2177336E+03  0.7546771E-02  0.1135584E+00
         21   -1    0    0  503  502  0.00000000000E+00  0.00000000000E+00  0.47167508213E+03  0.47167508213E+03  0.00000000000E+00 0. -1.
         21   -1    0    0  501  503 -0.00000000000E+00 -0.00000000000E+00 -0.12248761406E+03  0.12248761406E+03  0.00000000000E+00 0. -1.
          6    1    1    2  501    0 -0.13047015673E+03 -0.21364796125E+02  0.48752597449E+02  0.22312492481E+03  0.17300000000E+03 0. -1.
         -6    1    1    2    0  502  0.13047015673E+03  0.21364796125E+02  0.30043487062E+03  0.37103777138E+03  0.17300000000E+03 0. -1.
<mgrwt>
<rscale>  2 0.21773359E+03</rscale>
<asrwt>0</asrwt>
<pdfrwt beam="1">  1       21 0.72565396E-01 0.21773359E+03</pdfrwt>
<pdfrwt beam="2">  1       21 0.18844249E-01 0.21773359E+03</pdfrwt>
<totfact> 0.43579559E+04</totfact>
</mgrwt>
</event>
<event>
 4    1  0.4365842E+000  0.3058106E+03  0.7546771E-02  0.1082371E+00
         21   -1    0    0  501  502  0.00000000000E+00  0.00000000000E+00  0.91399173912E+03  0.91399173912E+03  0.00000000000E+00 0.  1.
         21   -1    0    0  502  503 -0.00000000000E+00 -0.00000000000E+00 -0.10474956898E+03  0.10474956898E+03  0.00000000000E+00 0. -1.
          6    1    1    2  501    0 -0.11355709829E+03 -0.22515754112E+03  0.48218749614E+03  0.57098591430E+03  0.17300000000E+03 0.  1.
         -6    1    1    2    0  503  0.11355709829E+03  0.22515754112E+03  0.32705467401E+03  0.44775539381E+03  0.17300000000E+03 0.  1.
<mgrwt>
<rscale>  2 0.30581062E+03</rscale>
<asrwt>0</asrwt>
<pdfrwt beam="1">  1       21 0.14061411E+00 0.30581062E+03</pdfrwt>
<pdfrwt beam="2">  1       21 0.16115319E-01 0.30581062E+03</pdfrwt>
<totfact> 0.11390808E+04</totfact>
</mgrwt>
</event>
<event>
 4    1  0.4365842E+000  0.2175276E+03  0.7546771E-02  0.1135740E+00
         21   -1    0    0  503  502  0.00000000000E+00  0.00000000000E+00  0.12012039540E+03  0.12012039540E+03  0.00000000000E+00 0.  1.
         21   -1    0    0  501  503 -0.00000000000E+00 -0.00000000000E+00 -0.43072204036E+03  0.43072204036E+03  0.00000000000E+00 0.  1.
          6    1    1    2  501    0 -0.13054675518E+03  0.18622443818E+02 -0.23580417011E+03  0.32081436586E+03  0.17300000000E+03 0.  1.
         -6    1    1    2    0  502  0.13054675518E+03 -0.18622443818E+02 -0.74797474848E+02  0.23002806991E+03  0.17300000000E+03 0.  1.
<mgrwt>
<rscale>  2 0.21752759E+03</rscale>
<asrwt>0</asrwt>
<pdfrwt beam="1">  1       21 0.18480061E-01 0.21752759E+03</pdfrwt>
<pdfrwt beam="2">  1       21 0.66264928E-01 0.21752759E+03</pdfrwt>
<totfact> 0.55233324E+04</totfact>
</mgrwt>
</event>
<event>
 4    1  0.4365842E+000  0.1760008E+03  0.7546771E-02  0.1171731E+00
         21   -1    0    0  503  502  0.00000000000E+00  0.00000000000E+00  0.27774757508E+03  0.27774757508E+03  0.00000000000E+00 0. -1.
         21   -1    0    0  501  503 -0.00000000000E+00 -0.00000000000E+00 -0.11157928071E+03  0.11157928071E+03  0.00000000000E+00 0. -1.
          6    1    1    2  501    0 -0.19983637425E+02  0.25454556141E+02  0.78859782731E+02  0.19286043017E+03  0.17300000000E+03 0.  1.
         -6    1    1    2    0  502  0.19983637425E+02 -0.25454556141E+02  0.87308511640E+02  0.19646642563E+03  0.17300000000E+03 0.  1.
<mgrwt>
<rscale>  2 0.17600080E+03</rscale>
<asrwt>0</asrwt>
<pdfrwt beam="1">  1       21 0.42730396E-01 0.17600080E+03</pdfrwt>
<pdfrwt beam="2">  1       21 0.17166043E-01 0.17600080E+03</pdfrwt>
<totfact> 0.16228009E+05</totfact>
</mgrwt>
</event>
<event>
 4    1  0.4365842E+000  0.1831117E+03  0.7546771E-02  0.1164825E+00
         21   -1    0    0  503  502  0.00000000000E+00  0.00000000000E+00  0.50129366395E+02  0.50129366395E+02  0.00000000000E+00 0.  1.
         21   -1    0    0  501  503 -0.00000000000E+00 -0.00000000000E+00 -0.67002010020E+03  0.67002010020E+03  0.00000000000E+00 0.  1.
          6    1    1    2  501    0 -0.10680456736E+02 -0.59049228297E+02 -0.32488242098E+03  0.37293226058E+03  0.17300000000E+03 0.  1.
         -6    1    1    2    0  502  0.10680456736E+02  0.59049228297E+02 -0.29500831283E+03  0.34721720602E+03  0.17300000000E+03 0.  1.
<mgrwt>
<rscale>  2 0.18311167E+03</rscale>
<asrwt>0</asrwt>
<pdfrwt beam="1">  1       21 0.77122104E-02 0.18311167E+03</pdfrwt>
<pdfrwt beam="2">  1       21 0.10308001E+00 0.18311167E+03</pdfrwt>
<totfact> 0.98056163E+04</totfact>
</mgrwt>
</event>
<event>
 4    1  0.4365842E+000  0.1853183E+03  0.7546771E-02  0.1162753E+00
         21   -1    0    0  503  502  0.00000000000E+00  0.00000000000E+00  0.25919110549E+03  0.25919110549E+03  0.00000000000E+00 0.  1.
         21   -1    0    0  501  503 -0.00000000000E+00 -0.00000000000E+00 -0.14144497536E+03  0.14144497536E+03  0.00000000000E+00 0.  1.
          6    1    1    2  501    0  0.41879895031E+02 -0.51574702902E+02  0.84985582497E+01  0.18551307523E+03  0.17300000000E+03 0.  1.
         -6    1    1    2    0  502 -0.41879895031E+02  0.51574702902E+02  0.10924757187E+03  0.21512300562E+03  0.17300000000E+03 0.  1.
<mgrwt>
<rscale>  2 0.18531831E+03</rscale>
<asrwt>0</asrwt>
<pdfrwt beam="1">  1       21 0.39875555E-01 0.18531831E+03</pdfrwt>
<pdfrwt beam="2">  1       21 0.21760765E-01 0.18531831E+03</pdfrwt>
<totfact> 0.11974985E+05</totfact>
</mgrwt>
</event>
<event>
 4    1  0.4365842E+000  0.1780704E+03  0.7546771E-02  0.1169684E+00
         21   -1    0    0  503  502  0.00000000000E+00  0.00000000000E+00  0.21945044196E+03  0.21945044196E+03  0.00000000000E+00 0.  1.
         21   -1    0    0  501  503 -0.00000000000E+00 -0.00000000000E+00 -0.31312814080E+03  0.31312814080E+03  0.00000000000E+00 0.  1.
          6    1    1    2  501    0 -0.33812400061E+02  0.25234481334E+02 -0.24225779438E+03  0.30066242929E+03  0.17300000000E+03 0.  1.
         -6    1    1    2    0  502  0.33812400061E+02 -0.25234481334E+02  0.14858009555E+03  0.23191615347E+03  0.17300000000E+03 0.  1.
<mgrwt>
<rscale>  2 0.17807037E+03</rscale>
<asrwt>0</asrwt>
<pdfrwt beam="1">  1       21 0.33761606E-01 0.17807037E+03</pdfrwt>
<pdfrwt beam="2">  1       21 0.48173560E-01 0.17807037E+03</pdfrwt>
<totfact> 0.35059482E+04</totfact>
</mgrwt>
</event>
<event>
 4    1  0.4365842E+000  0.1763938E+03  0.7546771E-02  0.1171339E+00
         21   -1    0    0  501  502  0.00000000000E+00  0.00000000000E+00  0.23490068359E+03  0.23490068359E+03  0.00000000000E+00 0.  1.
         21   -1    0    0  502  503 -0.00000000000E+00 -0.00000000000E+00 -0.16046548775E+03  0.16046548775E+03  0.00000000000E+00 0.  1.
          6    1    1    2  501    0 -0.32114843724E+02 -0.12426439916E+02  0.11980345996E+03  0.21323144378E+03  0.17300000000E+03 0.  1.
         -6    1    1    2    0  503  0.32114843724E+02  0.12426439916E+02 -0.45368264123E+02  0.18213472757E+03  0.17300000000E+03 0.  1.
<mgrwt>
<rscale>  2 0.17639382E+03</rscale>
<asrwt>0</asrwt>
<pdfrwt beam="1">  1       21 0.36138567E-01 0.17639382E+03</pdfrwt>
<pdfrwt beam="2">  1       21 0.24686998E-01 0.17639382E+03</pdfrwt>
<totfact> 0.11523512E+05</totfact>
</mgrwt>
</event>
<event>
 4    1  0.4365842E+000  0.2383943E+03  0.7546771E-02  0.1120867E+00
         21   -1    0    0  501  502  0.00000000000E+00  0.00000000000E+00  0.53809274286E+03  0.53809274286E+03  0.00000000000E+00 0. -1.
         21   -1    0    0  502  503 -0.00000000000E+00 -0.00000000000E+00 -0.11562492570E+03  0.11562492570E+03  0.00000000000E+00 0. -1.
          6    1    1    2  501    0 -0.11798329271E+03  0.11394204506E+03  0.30739563801E+03  0.38900375996E+03  0.17300000000E+03 0. -1.
         -6    1    1    2    0  503  0.11798329271E+03 -0.11394204506E+03  0.11507217915E+03  0.26471390860E+03  0.17300000000E+03 0. -1.
<mgrwt>
<rscale>  2 0.23839431E+03</rscale>
<asrwt>0</asrwt>
<pdfrwt beam="1">  1       21 0.82783497E-01 0.23839431E+03</pdfrwt>
<pdfrwt beam="2">  1       21 0.17788450E-01 0.23839431E+03</pdfrwt>
<totfact> 0.35687787E+04</totfact>
</mgrwt>
</event>
<event>
 4    1  0.4365842E+000  0.1843305E+03  0.7546771E-02  0.1163677E+00
         21   -1    0    0  503  502  0.00000000000E+00  0.00000000000E+00  0.57942665875E+03  0.57942665875E+03  0.00000000000E+00 0. -1.
         21   -1    0    0  501  503 -0.00000000000E+00 -0.00000000000E+00 -0.73087127264E+02  0.73087127264E+02  0.00000000000E+00 0. -1.
          6    1    1    2  501    0  0.25769842470E+02  0.58177799122E+02  0.10811707096E+03  0.21369848414E+03  0.17300000000E+03 0. -1.
         -6    1    1    2    0  502 -0.25769842470E+02 -0.58177799122E+02  0.39822246053E+03  0.43881530187E+03  0.17300000000E+03 0. -1.
<mgrwt>
<rscale>  2 0.18433052E+03</rscale>
<asrwt>0</asrwt>
<pdfrwt beam="1">  1       21 0.89142560E-01 0.18433052E+03</pdfrwt>
<pdfrwt beam="2">  1       21 0.11244174E-01 0.18433052E+03</pdfrwt>
<totfact> 0.71052245E+04</totfact>
</mgrwt>
</event>
<event>
 4    1  0.4365842E+000  0.2305880E+03  0.7546771E-02  0.1126227E+00
         21   -1    0    0  503  502  0.00000000000E+00  0.00000000000E+00  0.38333411622E+03  0.38333411622E+03  0.00000000000E+00 0.  1.
         21   -1    0    0  501  503 -0.00000000000E+00 -0.00000000000E+00 -0.14852925877E+03  0.14852925877E+03  0.00000000000E+00 0. -1.
          6    1    1    2  501    0  0.60711933790E+02  0.13984239512E+03  0.18579147439E+03  0.29612380237E+03  0.17300000000E+03 0.  1.
         -6    1    1    2    0  502 -0.60711933790E+02 -0.13984239512E+03  0.49013383068E+02  0.23573957262E+03  0.17300000000E+03 0. -1.
<mgrwt>
<rscale>  2 0.23058802E+03</rscale>
<asrwt>0</asrwt>
<pdfrwt beam="1">  1       21 0.58974479E-01 0.23058802E+03</pdfrwt>
<pdfrwt beam="2">  1       21 0.22850655E-01 0.23058802E+03</pdfrwt>
<totfact> 0.47455963E+04</totfact>
</mgrwt>
</event>
<event>
 4    1  0.4365842E+000  0.1859186E+03  0.7546771E-02  0.1162195E+00
         21   -1    0    0  501  502  0.00000000000E+00  0.00000000000E+00  0.12980967866E+04  0.12980967866E+04  0.00000000000E+00 0.  1.
         21   -1    0    0  502  503 -0.00000000000E+00 -0.00000000000E+00 -0.35116637452E+02  0.35116637452E+02  0.00000000000E+00 0.  1.
          6    1    1    2  501    0 -0.54215294537E+02 -0.41199803993E+02  0.95923214853E+03  0.97708343389E+03  0.17300000000E+03 0.  1.
         -6    1    1    2    0  503  0.54215294537E+02  0.41199803993E+02  0.30374800060E+03  0.35612999015E+03  0.17300000000E+03 0.  1.
<mgrwt>
<rscale>  2 0.18591859E+03</rscale>
<asrwt>0</asrwt>
<pdfrwt beam="1">  1       21 0.19970716E+00 0.18591859E+03</pdfrwt>
<pdfrwt beam="2">  1       21 0.54025606E-02 0.18591859E+03</pdfrwt>
<totfact> 0.31954317E+04</totfact>
</mgrwt>
</event>
<event>
 4    1  0.4365842E+000  0.1916312E+03  0.7546771E-02  0.1156998E+00
         21   -1    0    0  501  502  0.00000000000E+00  0.00000000000E+00  0.23619149979E+03  0.23619149979E+03  0.00000000000E+00 0. -1.
         21   -1    0    0  502  503 -0.00000000000E+00 -0.00000000000E+00 -0.18154127133E+03  0.18154127133E+03  0.00000000000E+00 0.  1.
          6    1    1    2  501    0  0.44476030313E+02 -0.69393143614E+02  0.10646534557E+03  0.21921997049E+03  0.17300000000E+03 0. -1.
         -6    1    1    2    0  503 -0.44476030313E+02  0.69393143614E+02 -0.51815117110E+02  0.19851280063E+03  0.17300000000E+03 0.  1.
<mgrwt>
<rscale>  2 0.19163122E+03</rscale>
<asrwt>0</asrwt>
<pdfrwt beam="1">  1       21 0.36337154E-01 0.19163122E+03</pdfrwt>
<pdfrwt beam="2">  1       21 0.27929426E-01 0.19163122E+03</pdfrwt>
<totfact> 0.89460741E+04</totfact>
</mgrwt>
</event>
<event>
 4    1  0.4365842E+000  0.1863830E+03  0.7546771E-02  0.1161765E+00
         21   -1    0    0  501  502  0.00000000000E+00  0.00000000000E+00  0.66151035024E+03  0.66151035024E+03  0.00000000000E+00 0.  1.
         21   -1    0    0  502  503 -0.00000000000E+00 -0.00000000000E+00 -0.62504478058E+02  0.62504478058E+02  0.00000000000E+00 0.  1.
          6    1    1    2  501    0 -0.68627582773E+02  0.99935315513E+01  0.44423108957E+03  0.48174669353E+03  0.17300000000E+03 0.  1.
         -6    1    1    2    0  503  0.68627582773E+02 -0.99935315513E+01  0.15477478262E+03  0.24226813477E+03  0.17300000000E+03 0.  1.
<mgrwt>
<rscale>  2 0.18638298E+03</rscale>
<asrwt>0</asrwt>
<pdfrwt beam="1">  1       21 0.10177082E+00 0.18638298E+03</pdfrwt>
<pdfrwt beam="2">  1       21 0.96160740E-02 0.18638298E+03</pdfrwt>
<totfact> 0.68654791E+04</totfact>
</mgrwt>
</event>
<event>
 4    1  0.4365842E+000  0.2004628E+03  0.7546771E-02  0.1149349E+00
         21   -1    0    0  503  502  0.00000000000E+00  0.00000000000E+00  0.34019829846E+03  0.34019829846E+03  0.00000000000E+00 0.  1.
         21   -1    0    0  501  503 -0.00000000000E+00 -0.00000000000E+00 -0.23940874684E+03  0.23940874684E+03  0.00000000000E+00 0. -1.
          6    1    1    2  501    0  0.70701158242E+02 -0.72509843141E+02 -0.15587617775E+03  0.25393446776E+03  0.17300000000E+03 0. -1.
         -6    1    1    2    0  502 -0.70701158242E+02  0.72509843141E+02  0.25666572936E+03  0.32567257754E+03  0.17300000000E+03 0.  1.
<mgrwt>
<rscale>  2 0.20046279E+03</rscale>
<asrwt>0</asrwt>
<pdfrwt beam="1">  1       21 0.52338200E-01 0.20046279E+03</pdfrwt>
<pdfrwt beam="2">  1       21 0.36832115E-01 0.20046279E+03</pdfrwt>
<totfact> 0.24507902E+04</totfact>
</mgrwt>
</event>
<event>
 4    1  0.4365842E+000  0.1756139E+03  0.7546771E-02  0.1172117E+00
         21   -1    0    0  501  502  0.00000000000E+00  0.00000000000E+00  0.35284329672E+03  0.35284329672E+03  0.00000000000E+00 0.  1.
         21   -1    0    0  502  503 -0.00000000000E+00 -0.00000000000E+00 -0.19314719661E+03  0.19314719661E+03  0.00000000000E+00 0.  1.
          6    1    1    2  501    0  0.28499354042E+02  0.99508116309E+01  0.28184055603E+03  0.33207579083E+03  0.17300000000E+03 0.  1.
         -6    1    1    2    0  503 -0.28499354042E+02 -0.99508116309E+01 -0.12214445592E+03  0.21391470250E+03  0.17300000000E+03 0.  1.
<mgrwt>
<rscale>  2 0.17561387E+03</rscale>
<asrwt>0</asrwt>
<pdfrwt beam="1">  1       21 0.54283584E-01 0.17561387E+03</pdfrwt>
<pdfrwt beam="2">  1       21 0.29714953E-01 0.17561387E+03</pdfrwt>
<totfact> 0.35126733E+04</totfact>
</mgrwt>
</event>
<event>
 4    1  0.4365842E+000  0.2296382E+03  0.7546771E-02  0.1126895E+00
         21   -1    0    0  501  502  0.00000000000E+00  0.00000000000E+00  0.21949883003E+03  0.21949883003E+03  0.00000000000E+00 0.  1.
         21   -1    0    0  502  503 -0.00000000000E+00 -0.00000000000E+00 -0.24756382236E+03  0.24756382236E+03  0.00000000000E+00 0.  1.
          6    1    1    2  501    0  0.92391615732E+02 -0.11945080573E+03 -0.54183265940E+02  0.23594391697E+03  0.17300000000E+03 0.  1.
         -6    1    1    2    0  503 -0.92391615732E+02  0.11945080573E+03  0.26118273618E+02  0.23111873542E+03  0.17300000000E+03 0.  1.
<mgrwt>
<rscale>  2 0.22963821E+03</rscale>
<asrwt>0</asrwt>
<pdfrwt beam="1">  1       21 0.33769051E-01 0.22963821E+03</pdfrwt>
<pdfrwt beam="2">  1       21 0.38086742E-01 0.22963821E+03</pdfrwt>
<totfact> 0.55230049E+04</totfact>
</mgrwt>
</event>
<event>
 4    1  0.4365842E+000  0.2390115E+03  0.7546771E-02  0.1120453E+00
         21   -1    0    0  501  502  0.00000000000E+00  0.00000000000E+00  0.52210537064E+02  0.52210537064E+02  0.00000000000E+00 0. -1.
         21   -1    0    0  502  503 -0.00000000000E+00 -0.00000000000E+00 -0.17629050240E+04  0.17629050240E+04  0.00000000000E+00 0.  1.
          6    1    1    2  501    0 -0.25075993813E+02 -0.16299901045E+03 -0.29637358533E+03  0.38074109964E+03  0.17300000000E+03 0. -1.
         -6    1    1    2    0  503  0.25075993813E+02  0.16299901045E+03 -0.14143209016E+04  0.14343744614E+04  0.17300000000E+03 0.  1.
<mgrwt>
<rscale>  2 0.23901147E+03</rscale>
<asrwt>0</asrwt>
<pdfrwt beam="1">  1       21 0.80323899E-02 0.23901147E+03</pdfrwt>
<pdfrwt beam="2">  1       21 0.27121617E+00 0.23901147E+03</pdfrwt>
<totfact> 0.56959014E+03</totfact>
</mgrwt>
</event>
<event>
 4    1  0.4365842E+000  0.2551804E+03  0.7546771E-02  0.1110074E+00
         21   -1    0    0  503  502  0.00000000000E+00  0.00000000000E+00  0.19152101495E+03  0.19152101495E+03  0.00000000000E+00 0. -1.
         21   -1    0    0  501  503 -0.00000000000E+00 -0.00000000000E+00 -0.34937442900E+03  0.34937442900E+03  0.00000000000E+00 0. -1.
          6    1    1    2  501    0 -0.15110407214E+03  0.11115561895E+03 -0.12322900440E+03  0.28337678058E+03  0.17300000000E+03 0. -1.
         -6    1    1    2    0  502  0.15110407214E+03 -0.11115561895E+03 -0.34624409640E+02  0.25751866337E+03  0.17300000000E+03 0. -1.
<mgrwt>
<rscale>  2 0.25518035E+03</rscale>
<asrwt>0</asrwt>
<pdfrwt beam="1">  1       21 0.29464772E-01 0.25518035E+03</pdfrwt>
<pdfrwt beam="2">  1       21 0.53749912E-01 0.25518035E+03</pdfrwt>
<totfact> 0.35071311E+04</totfact>
</mgrwt>
</event>
<event>
 4    1  0.4365842E+000  0.1971310E+03  0.7546771E-02  0.1152182E+00
         21   -1    0    0  501  502  0.00000000000E+00  0.00000000000E+00  0.39870587143E+02  0.39870587143E+02  0.00000000000E+00 0. -1.
         21   -1    0    0  502  503 -0.00000000000E+00 -0.00000000000E+00 -0.10103984487E+04  0.10103984487E+04  0.00000000000E+00 0. -1.
          6    1    1    2  501    0 -0.87510584433E+02 -0.35686690963E+02 -0.38651445539E+03  0.43388254923E+03  0.17300000000E+03 0. -1.
         -6    1    1    2    0  503  0.87510584433E+02  0.35686690963E+02 -0.58401340620E+03  0.61638648665E+03  0.17300000000E+03 0. -1.
<mgrwt>
<rscale>  2 0.19713103E+03</rscale>
<asrwt>0</asrwt>
<pdfrwt beam="1">  1       21 0.61339371E-02 0.19713103E+03</pdfrwt>
<pdfrwt beam="2">  1       21 0.15544590E+00 0.19713103E+03</pdfrwt>
<totfact> 0.51507221E+04</totfact>
</mgrwt>
</event>
<event>
 4    1  0.4365842E+000  0.3391368E+03  0.7546771E-02  0.1067164E+00
         21   -1    0    0  503  502  0.00000000000E+00  0.00000000000E+00  0.41408175088E+03  0.41408175088E+03  0.00000000000E+00 0.  1.
         21   -1    0    0  501  503 -0.00000000000E+00 -0.00000000000E+00 -0.63962711319E+03  0.63962711319E+03  0.00000000000E+00 0.  1.
          6    1    1    2  501    0  0.25262791286E+03  0.14582148076E+03  0.28350905201E+03  0.44203071067E+03  0.17300000000E+03 0.  1.
         -6    1    1    2    0  502 -0.25262791286E+03 -0.14582148076E+03 -0.50905441432E+03  0.61167815340E+03  0.17300000000E+03 0.  1.
<mgrwt>
<rscale>  2 0.33913680E+03</rscale>
<asrwt>0</asrwt>
<pdfrwt beam="1">  1       21 0.63704886E-01 0.33913680E+03</pdfrwt>
<pdfrwt beam="2">  1       21 0.98404170E-01 0.33913680E+03</pdfrwt>
<totfact> 0.17535245E+03</totfact>
</mgrwt>
</event>
<event>
 4    1  0.4365842E+000  0.2706379E+03  0.7546771E-02  0.1100915E+00
         21   -1    0    0  503  502  0.00000000000E+00  0.00000000000E+00  0.24802391380E+03  0.24802391380E+03  0.00000000000E+00 0. -1.
         21   -1    0    0  501  503 -0.00000000000E+00 -0.00000000000E+00 -0.29996163948E+03  0.29996163948E+03  0.00000000000E+00 0.  1.
          6    1    1    2  501    0 -0.47083526109E+01 -0.20807140740E+03 -0.60075022119E+02  0.27722533694E+03  0.17300000000E+03 0.  1.
         -6    1    1    2    0  502  0.47083526109E+01  0.20807140740E+03  0.81372964384E+01  0.27076021634E+03  0.17300000000E+03 0. -1.
<mgrwt>
<rscale>  2 0.27063791E+03</rscale>
<asrwt>0</asrwt>
<pdfrwt beam="1">  1       21 0.38157526E-01 0.27063791E+03</pdfrwt>
<pdfrwt beam="2">  1       21 0.46147944E-01 0.27063791E+03</pdfrwt>
<totfact> 0.28697673E+04</totfact>
</mgrwt>
</event>
<event>
 4    1  0.4365842E+000  0.2037421E+03  0.7546771E-02  0.1146620E+00
         21   -1    0    0  501  502  0.00000000000E+00  0.00000000000E+00  0.59085628785E+03  0.59085628785E+03  0.00000000000E+00 0.  1.
         21   -1    0    0  502  503 -0.00000000000E+00 -0.00000000000E+00 -0.75680473226E+02  0.75680473226E+02  0.00000000000E+00 0. -1.
          6    1    1    2  501    0 -0.10079711260E+03  0.37706682646E+02  0.34681659815E+03  0.40223451440E+03  0.17300000000E+03 0.  1.
         -6    1    1    2    0  503  0.10079711260E+03 -0.37706682646E+02  0.16835921647E+03  0.26430224667E+03  0.17300000000E+03 0.  1.
<mgrwt>
<rscale>  2 0.20374212E+03</rscale>
<asrwt>0</asrwt>
<pdfrwt beam="1">  1       21 0.90900964E-01 0.20374212E+03</pdfrwt>
<pdfrwt beam="2">  1       21 0.11643150E-01 0.20374212E+03</pdfrwt>
<totfact> 0.63246568E+04</totfact>
</mgrwt>
</event>
<event>
 4    1  0.4365842E+000  0.1918169E+03  0.7546771E-02  0.1156833E+00
         21   -1    0    0  503  502  0.00000000000E+00  0.00000000000E+00  0.21331663242E+03  0.21331663242E+03  0.00000000000E+00 0.  1.
         21   -1    0    0  501  503 -0.00000000000E+00 -0.00000000000E+00 -0.18974445609E+03  0.18974445609E+03  0.00000000000E+00 0. -1.
          6    1    1    2  501    0 -0.65669317716E+02  0.50520030300E+02 -0.48996737755E+02  0.19797578908E+03  0.17300000000E+03 0. -1.
         -6    1    1    2    0  502  0.65669317716E+02 -0.50520030300E+02  0.72568914086E+02  0.20508529943E+03  0.17300000000E+03 0. -1.
<mgrwt>
<rscale>  2 0.19181693E+03</rscale>
<asrwt>0</asrwt>
<pdfrwt beam="1">  1       21 0.32817943E-01 0.19181693E+03</pdfrwt>
<pdfrwt beam="2">  1       21 0.29191455E-01 0.19181693E+03</pdfrwt>
<totfact> 0.10047667E+05</totfact>
</mgrwt>
</event>
<event>
 4    1  0.4365842E+000  0.2663775E+03  0.7546771E-02  0.1103371E+00
         21   -1    0    0  501  502  0.00000000000E+00  0.00000000000E+00  0.19119758660E+04  0.19119758660E+04  0.00000000000E+00 0. -1.
         21   -1    0    0  502  503 -0.00000000000E+00 -0.00000000000E+00 -0.37416595231E+02  0.37416595231E+02  0.00000000000E+00 0. -1.
          6    1    1    2  501    0 -0.46407653361E+02  0.19716564423E+03  0.84931550597E+03  0.89010886426E+03  0.17300000000E+03 0. -1.
         -6    1    1    2    0  503  0.46407653361E+02 -0.19716564423E+03  0.10252437648E+04  0.10592835970E+04  0.17300000000E+03 0. -1.
<mgrwt>
<rscale>  2 0.26637748E+03</rscale>
<asrwt>0</asrwt>
<pdfrwt beam="1">  1       21 0.29415006E+00 0.26637748E+03</pdfrwt>
<pdfrwt beam="2">  1       21 0.57564008E-02 0.26637748E+03</pdfrwt>
<totfact> 0.72853431E+03</totfact>
</mgrwt>
</event>
<event>
 4    1  0.4365842E+000  0.1802076E+03  0.7546771E-02  0.1167602E+00
         21   -1    0    0  501  502  0.00000000000E+00  0.00000000000E+00  0.83138045912E+02  0.83138045912E+02  0.00000000000E+00 0.  1.
         21   -1    0    0  502  503 -0.00000000000E+00 -0.00000000000E+00 -0.58035555987E+03  0.58035555987E+03  0.00000000000E+00 0.  1.
          6    1    1    2  501    0 -0.14681426788E+02 -0.48272635375E+02 -0.58919740122E+02  0.18959516712E+03  0.17300000000E+03 0.  1.
         -6    1    1    2    0  503  0.14681426788E+02  0.48272635375E+02 -0.43829777384E+03  0.47389843866E+03  0.17300000000E+03 0.  1.
<mgrwt>
<rscale>  2 0.18020763E+03</rscale>
<asrwt>0</asrwt>
<pdfrwt beam="1">  1       21 0.12790468E-01 0.18020763E+03</pdfrwt>
<pdfrwt beam="2">  1       21 0.89285473E-01 0.18020763E+03</pdfrwt>
<totfact> 0.56341188E+04</totfact>
</mgrwt>
</event>
<event>
 4    1  0.4365842E+000  0.3264171E+03  0.7546771E-02  0.1072733E+00
         21   -1    0    0  501  502  0.00000000000E+00  0.00000000000E+00  0.73932498487E+02  0.73932498487E+02  0.00000000000E+00 0. -1.
         21   -1    0    0  502  503 -0.00000000000E+00 -0.00000000000E+00 -0.16686386706E+04  0.16686386706E+04  0.00000000000E+00 0.  1.
          6    1    1    2  501    0  0.18896040305E+03 -0.20226977152E+03 -0.11190565393E+04  0.11656910537E+04  0.17300000000E+03 0.  1.
         -6    1    1    2    0  503 -0.18896040305E+03  0.20226977152E+03 -0.47564963277E+03  0.57688011540E+03  0.17300000000E+03 0. -1.
<mgrwt>
<rscale>  2 0.32641706E+03</rscale>
<asrwt>0</asrwt>
<pdfrwt beam="1">  1       21 0.11374231E-01 0.32641706E+03</pdfrwt>
<pdfrwt beam="2">  1       21 0.25671362E+00 0.32641706E+03</pdfrwt>
<totfact> 0.35083789E+03</totfact>
</mgrwt>
</event>
<event>
 4    1  0.4365842E+000  0.2422090E+03  0.7546771E-02  0.1118330E+00
         21   -1    0    0  503  502  0.00000000000E+00  0.00000000000E+00  0.24984156842E+03  0.24984156842E+03  0.00000000000E+00 0. -1.
         21   -1    0    0  501  503 -0.00000000000E+00 -0.00000000000E+00 -0.23661243445E+03  0.23661243445E+03  0.00000000000E+00 0.  1.
          6    1    1    2  501    0  0.94776314533E+02  0.14054761985E+03  0.27845955650E+02  0.24380438980E+03  0.17300000000E+03 0. -1.
         -6    1    1    2    0  502 -0.94776314533E+02 -0.14054761985E+03 -0.14616821683E+02  0.24264961306E+03  0.17300000000E+03 0. -1.
<mgrwt>
<rscale>  2 0.24220897E+03</rscale>
<asrwt>0</asrwt>
<pdfrwt beam="1">  1       21 0.38437164E-01 0.24220897E+03</pdfrwt>
<pdfrwt beam="2">  1       21 0.36401913E-01 0.24220897E+03</pdfrwt>
<totfact> 0.46434032E+04</totfact>
</mgrwt>
</event>
<event>
 4    1  0.4365842E+000  0.2103302E+03  0.7546771E-02  0.1141305E+00
         21   -1    0    0  501  502  0.00000000000E+00  0.00000000000E+00  0.84244517268E+03  0.84244517268E+03  0.00000000000E+00 0. -1.
         21   -1    0    0  502  503 -0.00000000000E+00 -0.00000000000E+00 -0.52720505676E+02  0.52720505676E+02  0.00000000000E+00 0.  1.
          6    1    1    2  501    0 -0.10360035152E+03 -0.59806093804E+02  0.36674036850E+03  0.42277334303E+03  0.17300000000E+03 0. -1.
         -6    1    1    2    0  503  0.10360035152E+03  0.59806093804E+02  0.42298429850E+03  0.47239233532E+03  0.17300000000E+03 0. -1.
<mgrwt>
<rscale>  2 0.21033022E+03</rscale>
<asrwt>0</asrwt>
<pdfrwt beam="1">  1       21 0.12960694E+00 0.21033022E+03</pdfrwt>
<pdfrwt beam="2">  1       21 0.81108477E-02 0.21033022E+03</pdfrwt>
<totfact> 0.50551049E+04</totfact>
</mgrwt>
</event>
<event>
 4    1  0.4365842E+000  0.1752117E+03  0.7546771E-02  0.1172519E+00
         21   -1    0    0  501  502  0.00000000000E+00  0.00000000000E+00  0.32715989713E+03  0.32715989713E+03  0.00000000000E+00 0.  1.
         21   -1    0    0  502  503 -0.00000000000E+00 -0.00000000000E+00 -0.19804042764E+03  0.19804042764E+03  0.00000000000E+00 0.  1.
          6    1    1    2  501    0  0.16461075790E+02 -0.22342102397E+02  0.25504556478E+03  0.30943073000E+03  0.17300000000E+03 0.  1.
         -6    1    1    2    0  503 -0.16461075790E+02  0.22342102397E+02 -0.12592609529E+03  0.21576959478E+03  0.17300000000E+03 0.  1.
<mgrwt>
<rscale>  2 0.17521169E+03</rscale>
<asrwt>0</asrwt>
<pdfrwt beam="1">  1       21 0.50332292E-01 0.17521169E+03</pdfrwt>
<pdfrwt beam="2">  1       21 0.30467758E-01 0.17521169E+03</pdfrwt>
<totfact> 0.39203639E+04</totfact>
</mgrwt>
</event>
<event>
 4    1  0.4365842E+000  0.2729556E+03  0.7546771E-02  0.1099600E+00
         21   -1    0    0  501  502  0.00000000000E+00  0.00000000000E+00  0.14121692565E+03  0.14121692565E+03  0.00000000000E+00 0. -1.
         21   -1    0    0  502  503 -0.00000000000E+00 -0.00000000000E+00 -0.18319718093E+04  0.18319718093E+04  0.00000000000E+00 0. -1.
          6    1    1    2  501    0 -0.96376884520E+02 -0.18784904774E+03 -0.12882791993E+02  0.27325946449E+03  0.17300000000E+03 0. -1.
         -6    1    1    2    0  503  0.96376884520E+02  0.18784904774E+03 -0.16778720917E+04  0.16999292705E+04  0.17300000000E+03 0. -1.
<mgrwt>
<rscale>  2 0.27295562E+03</rscale>
<asrwt>0</asrwt>
<pdfrwt beam="1">  1       21 0.21725680E-01 0.27295562E+03</pdfrwt>
<pdfrwt beam="2">  1       21 0.28184183E+00 0.27295562E+03</pdfrwt>
<totfact> 0.78439458E+02</totfact>
</mgrwt>
</event>
<event>
 4    1  0.4365842E+000  0.2380491E+03  0.7546771E-02  0.1121099E+00
         21   -1    0    0  503  502  0.00000000000E+00  0.00000000000E+00  0.76661707246E+02  0.76661707246E+02  0.00000000000E+00 0.  1.
         21   -1    0    0  501  503 -0.00000000000E+00 -0.00000000000E+00 -0.76355844001E+03  0.76355844001E+03  0.00000000000E+00 0. -1.
          6    1    1    2  501    0 -0.11943251883E+03 -0.11168812653E+03 -0.41850333345E+03  0.48146900655E+03  0.17300000000E+03 0. -1.
         -6    1    1    2    0  502  0.11943251883E+03  0.11168812653E+03 -0.26839339932E+03  0.35875114071E+03  0.17300000000E+03 0.  1.
<mgrwt>
<rscale>  2 0.23804908E+03</rscale>
<asrwt>0</asrwt>
<pdfrwt beam="1">  1       21 0.11794109E-01 0.23804908E+03</pdfrwt>
<pdfrwt beam="2">  1       21 0.11747053E+00 0.23804908E+03</pdfrwt>
<totfact> 0.32873810E+04</totfact>
</mgrwt>
</event>
<event>
 4    1  0.4365842E+000  0.1967003E+03  0.7546771E-02  0.1152553E+00
         21   -1    0    0  503  502  0.00000000000E+00  0.00000000000E+00  0.15795284048E+03  0.15795284048E+03  0.00000000000E+00 0.  1.
         21   -1    0    0  501  503 -0.00000000000E+00 -0.00000000000E+00 -0.38340195772E+03  0.38340195772E+03  0.00000000000E+00 0.  1.
          6    1    1    2  501    0  0.57880976633E+02 -0.73565010615E+02 -0.27538041915E+03  0.33841600656E+03  0.17300000000E+03 0.  1.
         -6    1    1    2    0  502 -0.57880976633E+02  0.73565010615E+02  0.49931301910E+02  0.20293879164E+03  0.17300000000E+03 0.  1.
<mgrwt>
<rscale>  2 0.19670033E+03</rscale>
<asrwt>0</asrwt>
<pdfrwt beam="1">  1       21 0.24300438E-01 0.19670033E+03</pdfrwt>
<pdfrwt beam="2">  1       21 0.58984915E-01 0.19670033E+03</pdfrwt>
<totfact> 0.42886526E+04</totfact>
</mgrwt>
</event>
<event>
 4    1  0.4365842E+000  0.1887534E+03  0.7546771E-02  0.1159591E+00
         21   -1    0    0  503  502  0.00000000000E+00  0.00000000000E+00  0.37254745511E+03  0.37254745511E+03  0.00000000000E+00 0.  1.
         21   -1    0    0  501  503 -0.00000000000E+00 -0.00000000000E+00 -0.12490306715E+03  0.12490306715E+03  0.00000000000E+00 0. -1.
          6    1    1    2  501    0  0.38781814549E+02 -0.64767268565E+02  0.34169909888E+01  0.18878427912E+03  0.17300000000E+03 0. -1.
         -6    1    1    2    0  502 -0.38781814549E+02  0.64767268565E+02  0.24422739697E+03  0.30866624313E+03  0.17300000000E+03 0.  1.
<mgrwt>
<rscale>  2 0.18875335E+03</rscale>
<asrwt>0</asrwt>
<pdfrwt beam="1">  1       21 0.57314993E-01 0.18875335E+03</pdfrwt>
<pdfrwt beam="2">  1       21 0.19215857E-01 0.18875335E+03</pdfrwt>
<totfact> 0.71193195E+04</totfact>
</mgrwt>
</event>
<event>
 4    1  0.4365842E+000  0.1953183E+03  0.7546771E-02  0.1153750E+00
         21   -1    0    0  503  502  0.00000000000E+00  0.00000000000E+00  0.44854137229E+02  0.44854137229E+02  0.00000000000E+00 0. -1.
         21   -1    0    0  501  503 -0.00000000000E+00 -0.00000000000E+00 -0.94442174714E+03  0.94442174714E+03  0.00000000000E+00 0. -1.
          6    1    1    2  501    0  0.68502232410E+02 -0.59394262345E+02 -0.60575585016E+03  0.63646632609E+03  0.17300000000E+03 0. -1.
         -6    1    1    2    0  502 -0.68502232410E+02  0.59394262345E+02 -0.29381175975E+03  0.35280955828E+03  0.17300000000E+03 0. -1.
<mgrwt>
<rscale>  2 0.19531829E+03</rscale>
<asrwt>0</asrwt>
<pdfrwt beam="1">  1       21 0.69006355E-02 0.19531829E+03</pdfrwt>
<pdfrwt beam="2">  1       21 0.14529567E+00 0.19531829E+03</pdfrwt>
<totfact> 0.50305764E+04</totfact>
</mgrwt>
</event>
<event>
 4    1  0.4365842E+000  0.1904188E+03  0.7546771E-02  0.1158084E+00
         21   -1    0    0  501  502  0.00000000000E+00  0.00000000000E+00  0.27665508634E+03  0.27665508634E+03  0.00000000000E+00 0. -1.
         21   -1    0    0  502  503 -0.00000000000E+00 -0.00000000000E+00 -0.17227235446E+03  0.17227235446E+03  0.00000000000E+00 0.  1.
          6    1    1    2  501    0 -0.56993790066E+02  0.55516013851E+02  0.16197430477E+03  0.24998999041E+03  0.17300000000E+03 0. -1.
         -6    1    1    2    0  503  0.56993790066E+02 -0.55516013851E+02 -0.57591572886E+02  0.19893745039E+03  0.17300000000E+03 0.  1.
<mgrwt>
<rscale>  2 0.19041880E+03</rscale>
<asrwt>0</asrwt>
<pdfrwt beam="1">  1       21 0.42562321E-01 0.19041880E+03</pdfrwt>
<pdfrwt beam="2">  1       21 0.26503439E-01 0.19041880E+03</pdfrwt>
<totfact> 0.71995546E+04</totfact>
</mgrwt>
</event>
<event>
 4    1  0.4365842E+000  0.3394991E+03  0.7546771E-02  0.1067009E+00
         21   -1    0    0  503  502  0.00000000000E+00  0.00000000000E+00  0.12583473133E+03  0.12583473133E+03  0.00000000000E+00 0. -1.
         21   -1    0    0  501  503 -0.00000000000E+00 -0.00000000000E+00 -0.94450946464E+03  0.94450946464E+03  0.00000000000E+00 0. -1.
          6    1    1    2  501    0  0.38567080049E+02 -0.28955696671E+03 -0.50238057735E+03  0.60633810793E+03  0.17300000000E+03 0. -1.
         -6    1    1    2    0  502 -0.38567080049E+02  0.28955696671E+03 -0.31629415597E+03  0.46400608803E+03  0.17300000000E+03 0. -1.
<mgrwt>
<rscale>  2 0.33949913E+03</rscale>
<asrwt>0</asrwt>
<pdfrwt beam="1">  1       21 0.19359190E-01 0.33949913E+03</pdfrwt>
<pdfrwt beam="2">  1       21 0.14530914E+00 0.33949913E+03</pdfrwt>
<totfact> 0.72983718E+03</totfact>
</mgrwt>
</event>
<event>
 4    1  0.4365842E+000  0.2301174E+03  0.7546771E-02  0.1126557E+00
         21   -1    0    0  501  502  0.00000000000E+00  0.00000000000E+00  0.64998284746E+03  0.64998284746E+03  0.00000000000E+00 0.  1.
         21   -1    0    0  502  503 -0.00000000000E+00 -0.00000000000E+00 -0.19361993662E+03  0.19361993662E+03  0.00000000000E+00 0.  1.
          6    1    1    2  501    0  0.65767539794E+02 -0.13674659857E+03  0.54920197194E+03  0.59546352323E+03  0.17300000000E+03 0.  1.
         -6    1    1    2    0  503 -0.65767539794E+02  0.13674659857E+03 -0.92839061104E+02  0.24813926086E+03  0.17300000000E+03 0.  1.
<mgrwt>
<rscale>  2 0.23011736E+03</rscale>
<asrwt>0</asrwt>
<pdfrwt beam="1">  1       21 0.99997360E-01 0.23011736E+03</pdfrwt>
<pdfrwt beam="2">  1       21 0.29787683E-01 0.23011736E+03</pdfrwt>
<totfact> 0.86462040E+03</totfact>
</mgrwt>
</event>
<event>
 4    1  0.4365842E+000  0.2308791E+03  0.7546771E-02  0.1126023E+00
         21   -1    0    0  501  502  0.00000000000E+00  0.00000000000E+00  0.30807818671E+04  0.30807818671E+04  0.00000000000E+00 0. -1.
         21   -1    0    0  502  503 -0.00000000000E+00 -0.00000000000E+00 -0.39265259428E+02  0.39265259428E+02  0.00000000000E+00 0. -1.
          6    1    1    2  501    0 -0.46433190138E+02 -0.14567118935E+03  0.26874891209E+04  0.26973881648E+04  0.17300000000E+03 0. -1.
         -6    1    1    2    0  503  0.46433190138E+02  0.14567118935E+03  0.35402748677E+03  0.42265896174E+03  0.17300000000E+03 0. -1.
<mgrwt>
<rscale>  2 0.23087905E+03</rscale>
<asrwt>0</asrwt>
<pdfrwt beam="1">  1       21 0.47396625E+00 0.23087905E+03</pdfrwt>
<pdfrwt beam="2">  1       21 0.60408115E-02 0.23087905E+03</pdfrwt>
<totfact> 0.52740159E+02</totfact>
</mgrwt>
</event>
<event>
 4    1  0.4365842E+000  0.2121634E+03  0.7546771E-02  0.1139864E+00
         21   -1    0    0  501  502  0.00000000000E+00  0.00000000000E+00  0.32480531561E+02  0.32480531561E+02  0.00000000000E+00 0.  1.
         21   -1    0    0  502  503 -0.00000000000E+00 -0.00000000000E+00 -0.20027708218E+04  0.20027708218E+04  0.00000000000E+00 0.  1.
          6    1    1    2  501    0  0.10187164716E+01  0.12281389563E+03 -0.15499332741E+04  0.15643869230E+04  0.17300000000E+03 0.  1.
         -6    1    1    2    0  503 -0.10187164716E+01 -0.12281389563E+03 -0.42035701613E+03  0.47086443034E+03  0.17300000000E+03 0.  1.
<mgrwt>
<rscale>  2 0.21216336E+03</rscale>
<asrwt>0</asrwt>
<pdfrwt beam="1">  1       21 0.49970041E-02 0.21216336E+03</pdfrwt>
<pdfrwt beam="2">  1       21 0.30811863E+00 0.21216336E+03</pdfrwt>
<totfact> 0.80816335E+03</totfact>
</mgrwt>
</event>
<event>
 4    1  0.4365842E+000  0.1853814E+03  0.7546771E-02  0.1162694E+00
         21   -1    0    0  503  502  0.00000000000E+00  0.00000000000E+00  0.14471968564E+04  0.14471968564E+04  0.00000000000E+00 0. -1.
         21   -1    0    0  501  503 -0.00000000000E+00 -0.00000000000E+00 -0.26610934993E+02  0.26610934993E+02  0.00000000000E+00 0. -1.
          6    1    1    2  501    0  0.74559108053E+01  0.66194247886E+02  0.46853607643E+03  0.50387729059E+03  0.17300000000E+03 0. -1.
         -6    1    1    2    0  502 -0.74559108053E+01 -0.66194247886E+02  0.95204984495E+03  0.96993050077E+03  0.17300000000E+03 0. -1.
<mgrwt>
<rscale>  2 0.18538142E+03</rscale>
<asrwt>0</asrwt>
<pdfrwt beam="1">  1       21 0.22264561E+00 0.18538142E+03</pdfrwt>
<pdfrwt beam="2">  1       21 0.40939911E-02 0.18538142E+03</pdfrwt>
<totfact> 0.36723562E+04</totfact>
</mgrwt>
</event>
<event>
 4    1  0.4365842E+000  0.2219462E+03  0.7546771E-02  0.1132440E+00
         21   -1    0    0  501  502  0.00000000000E+00  0.00000000000E+00  0.44662050219E+03  0.44662050219E+03  0.00000000000E+00 0.  1.
         21   -1    0    0  502  503 -0.00000000000E+00 -0.00000000000E+00 -0.11220992772E+03  0.11220992772E+03  0.00000000000E+00 0. -1.
          6    1    1    2  501    0 -0.12748898040E+03  0.55476873702E+02  0.20370431646E+03  0.30125665500E+03  0.17300000000E+03 0. -1.
         -6    1    1    2    0  503  0.12748898040E+03 -0.55476873702E+02  0.13070625801E+03  0.25757377491E+03  0.17300000000E+03 0.  1.
<mgrwt>
<rscale>  2 0.22194622E+03</rscale>
<asrwt>0</asrwt>
<pdfrwt beam="1">  1       21 0.68710845E-01 0.22194622E+03</pdfrwt>
<pdfrwt beam="2">  1       21 0.17263066E-01 0.22194622E+03</pdfrwt>
<totfact> 0.57754312E+04</totfact>
</mgrwt>
</event>
<event>
 4    1  0.4365842E+000  0.2911149E+03  0.7546771E-02  0.1089768E+00
         21   -1    0    0  501  502  0.00000000000E+00  0.00000000000E+00  0.16919588871E+03  0.16919588871E+03  0.00000000000E+00 0.  1.
         21   -1    0    0  502  503 -0.00000000000E+00 -0.00000000000E+00 -0.69337825806E+03  0.69337825806E+03  0.00000000000E+00 0. -1.
          6    1    1    2  501    0 -0.10558341839E+03  0.20897612572E+03 -0.34849614026E+02  0.29319340879E+03  0.17300000000E+03 0.  1.
         -6    1    1    2    0  503  0.10558341839E+03 -0.20897612572E+03 -0.48933275532E+03  0.56938073799E+03  0.17300000000E+03 0. -1.
<mgrwt>
<rscale>  2 0.29111489E+03</rscale>
<asrwt>0</asrwt>
<pdfrwt beam="1">  1       21 0.26030137E-01 0.29111489E+03</pdfrwt>
<pdfrwt beam="2">  1       21 0.10667358E+00 0.29111489E+03</pdfrwt>
<totfact> 0.92981029E+03</totfact>
</mgrwt>
</event>
<event>
 4    1  0.4365842E+000  0.2434229E+03  0.7546771E-02  0.1117533E+00
         21   -1    0    0  501  502  0.00000000000E+00  0.00000000000E+00  0.59297461358E+02  0.59297461358E+02  0.00000000000E+00 0.  1.
         21   -1    0    0  502  503 -0.00000000000E+00 -0.00000000000E+00 -0.21806547712E+04  0.21806547712E+04  0.00000000000E+00 0. -1.
          6    1    1    2  501    0 -0.79965846062E+02 -0.15143036163E+03 -0.23633293827E+03  0.33927562346E+03  0.17300000000E+03 0.  1.
         -6    1    1    2    0  503  0.79965846062E+02  0.15143036163E+03 -0.18850243716E+04  0.19006766091E+04  0.17300000000E+03 0. -1.
<mgrwt>
<rscale>  2 0.24342286E+03</rscale>
<asrwt>0</asrwt>
<pdfrwt beam="1">  1       21 0.91226859E-02 0.24342286E+03</pdfrwt>
<pdfrwt beam="2">  1       21 0.33548537E+00 0.24342286E+03</pdfrwt>
<totfact> 0.19087610E+03</totfact>
</mgrwt>
</event>
<event>
 4    1  0.4365842E+000  0.3079351E+03  0.7546771E-02  0.1081340E+00
         21   -1    0    0  503  502  0.00000000000E+00  0.00000000000E+00  0.12137928900E+04  0.12137928900E+04  0.00000000000E+00 0.  1.
         21   -1    0    0  501  503 -0.00000000000E+00 -0.00000000000E+00 -0.78151606307E+02  0.78151606307E+02  0.00000000000E+00 0. -1.
          6    1    1    2  501    0  0.22277159711E+03  0.12356304654E+03  0.58037909492E+03  0.65701134295E+03  0.17300000000E+03 0.  1.
         -6    1    1    2    0  502 -0.22277159711E+03 -0.12356304654E+03  0.55526218880E+03  0.63493315338E+03  0.17300000000E+03 0.  1.
<mgrwt>
<rscale>  2 0.30793508E+03</rscale>
<asrwt>0</asrwt>
<pdfrwt beam="1">  1       21 0.18673735E+00 0.30793508E+03</pdfrwt>
<pdfrwt beam="2">  1       21 0.12023325E-01 0.30793508E+03</pdfrwt>
<totfact> 0.88794325E+03</totfact>
</mgrwt>
</event>
<event>
 4    1  0.4365842E+000  0.2205732E+03  0.7546771E-02  0.1133456E+00
         21   -1    0    0  503  502  0.00000000000E+00  0.00000000000E+00  0.34608154887E+03  0.34608154887E+03  0.00000000000E+00 0.  1.
         21   -1    0    0  501  503 -0.00000000000E+00 -0.00000000000E+00 -0.14973746092E+03  0.14973746092E+03  0.00000000000E+00 0. -1.
          6    1    1    2  501    0  0.63526016541E+02  0.12119403797E+03  0.36868201196E+02  0.22363321282E+03  0.17300000000E+03 0. -1.
         -6    1    1    2    0  502 -0.63526016541E+02 -0.12119403797E+03  0.15947588676E+03  0.27218579697E+03  0.17300000000E+03 0.  1.
<mgrwt>
<rscale>  2 0.22057323E+03</rscale>
<asrwt>0</asrwt>
<pdfrwt beam="1">  1       21 0.53243315E-01 0.22057323E+03</pdfrwt>
<pdfrwt beam="2">  1       21 0.23036533E-01 0.22057323E+03</pdfrwt>
<totfact> 0.58358956E+04</totfact>
</mgrwt>
</event>
<event>
 4    1  0.4365842E+000  0.1828144E+03  0.7546771E-02  0.1165107E+00
         21   -1    0    0  503  502  0.00000000000E+00  0.00000000000E+00  0.21702037161E+03  0.21702037161E+03  0.00000000000E+00 0.  1.
         21   -1    0    0  501  503 -0.00000000000E+00 -0.00000000000E+00 -0.15798265029E+03  0.15798265029E+03  0.00000000000E+00 0.  1.
          6    1    1    2  501    0 -0.17945955778E+02 -0.56303026825E+02 -0.25248659207E+00  0.18281452871E+03  0.17300000000E+03 0.  1.
         -6    1    1    2    0  502  0.17945955778E+02  0.56303026825E+02  0.59290207913E+02  0.19218849319E+03  0.17300000000E+03 0.  1.
<mgrwt>
<rscale>  2 0.18281435E+03</rscale>
<asrwt>0</asrwt>
<pdfrwt beam="1">  1       21 0.33387750E-01 0.18281435E+03</pdfrwt>
<pdfrwt beam="2">  1       21 0.24305023E-01 0.18281435E+03</pdfrwt>
<totfact> 0.13853177E+05</totfact>
</mgrwt>
</event>
<event>
 4    1  0.4365842E+000  0.4341291E+03  0.7546771E-02  0.1032564E+00
         21   -1    0    0  503  502  0.00000000000E+00  0.00000000000E+00  0.29100616543E+03  0.29100616543E+03  0.00000000000E+00 0. -1.
         21   -1    0    0  501  503 -0.00000000000E+00 -0.00000000000E+00 -0.75015635623E+03  0.75015635623E+03  0.00000000000E+00 0.  1.
          6    1    1    2  501    0 -0.46735918266E+02 -0.39541726056E+03 -0.42201858536E+03  0.60544838128E+03  0.17300000000E+03 0.  1.
         -6    1    1    2    0  502  0.46735918266E+02  0.39541726056E+03 -0.37131605440E+02  0.43571414038E+03  0.17300000000E+03 0. -1.
<mgrwt>
<rscale>  2 0.43412908E+03</rscale>
<asrwt>0</asrwt>
<pdfrwt beam="1">  1       21 0.44770181E-01 0.43412908E+03</pdfrwt>
<pdfrwt beam="2">  1       21 0.11540867E+00 0.43412908E+03</pdfrwt>
<totfact> 0.24198392E+03</totfact>
</mgrwt>
</event>
<event>
 4    1  0.4365842E+000  0.2924212E+03  0.7546771E-02  0.1089092E+00
         21   -1    0    0  503  502  0.00000000000E+00  0.00000000000E+00  0.66168287315E+03  0.66168287315E+03  0.00000000000E+00 0. -1.
         21   -1    0    0  501  503 -0.00000000000E+00 -0.00000000000E+00 -0.24307309102E+03  0.24307309102E+03  0.00000000000E+00 0.  1.
          6    1    1    2  501    0 -0.14653651440E+03  0.18468410439E+03 -0.10028287389E+03  0.30913884140E+03  0.17300000000E+03 0.  1.
         -6    1    1    2    0  502  0.14653651440E+03 -0.18468410439E+03  0.51889265602E+03  0.59561712277E+03  0.17300000000E+03 0. -1.
<mgrwt>
<rscale>  2 0.29242122E+03</rscale>
<asrwt>0</asrwt>
<pdfrwt beam="1">  1       21 0.10179736E+00 0.29242122E+03</pdfrwt>
<pdfrwt beam="2">  1       21 0.37395861E-01 0.29242122E+03</pdfrwt>
<totfact> 0.50846067E+03</totfact>
</mgrwt>
</event>
<event>
 4    1  0.4365842E+000  0.1930331E+03  0.7546771E-02  0.1155754E+00
         21   -1    0    0  503  502  0.00000000000E+00  0.00000000000E+00  0.70941789479E+02  0.70941789479E+02  0.00000000000E+00 0. -1.
         21   -1    0    0  501  503 -0.00000000000E+00 -0.00000000000E+00 -0.54403496668E+03  0.54403496668E+03  0.00000000000E+00 0. -1.
          6    1    1    2  501    0  0.85431759674E+02  0.58490173315E+01 -0.29369210432E+03  0.35144963893E+03  0.17300000000E+03 0. -1.
         -6    1    1    2    0  502 -0.85431759674E+02 -0.58490173315E+01 -0.17940107289E+03  0.26352711723E+03  0.17300000000E+03 0. -1.
<mgrwt>
<rscale>  2 0.19303315E+03</rscale>
<asrwt>0</asrwt>
<pdfrwt beam="1">  1       21 0.10914122E-01 0.19303315E+03</pdfrwt>
<pdfrwt beam="2">  1       21 0.83697684E-01 0.19303315E+03</pdfrwt>
<totfact> 0.86253548E+04</totfact>
</mgrwt>
</event>
<event>
 4    1  0.4365842E+000  0.1824809E+03  0.7546771E-02  0.1165423E+00
         21   -1    0    0  501  502  0.00000000000E+00  0.00000000000E+00  0.35181054655E+03  0.35181054655E+03  0.00000000000E+00 0.  1.
         21   -1    0    0  502  503 -0.00000000000E+00 -0.00000000000E+00 -0.10051794156E+03  0.10051794156E+03  0.00000000000E+00 0.  1.
          6    1    1    2  501    0 -0.45498481602E+02 -0.36057661430E+02  0.71007255418E+02  0.19580933864E+03  0.17300000000E+03 0.  1.
         -6    1    1    2    0  503  0.45498481602E+02  0.36057661430E+02  0.18028534957E+03  0.25651914947E+03  0.17300000000E+03 0.  1.
<mgrwt>
<rscale>  2 0.18248087E+03</rscale>
<asrwt>0</asrwt>
<pdfrwt beam="1">  1       21 0.54124699E-01 0.18248087E+03</pdfrwt>
<pdfrwt beam="2">  1       21 0.15464299E-01 0.18248087E+03</pdfrwt>
<totfact> 0.12016941E+05</totfact>
</mgrwt>
</event>
<event>
 4    1  0.4365842E+000  0.1883119E+03  0.7546771E-02  0.1159993E+00
         21   -1    0    0  503  502  0.00000000000E+00  0.00000000000E+00  0.52746115609E+03  0.52746115609E+03  0.00000000000E+00 0. -1.
         21   -1    0    0  501  503 -0.00000000000E+00 -0.00000000000E+00 -0.67286758610E+02  0.67286758610E+02  0.00000000000E+00 0. -1.
          6    1    1    2  501    0 -0.54560997599E+02 -0.50551805231E+02  0.22147550366E+03  0.29071082917E+03  0.17300000000E+03 0. -1.
         -6    1    1    2    0  502  0.54560997599E+02  0.50551805231E+02  0.23869889381E+03  0.30403708553E+03  0.17300000000E+03 0. -1.
<mgrwt>
<rscale>  2 0.18831194E+03</rscale>
<asrwt>0</asrwt>
<pdfrwt beam="1">  1       21 0.81147867E-01 0.18831194E+03</pdfrwt>
<pdfrwt beam="2">  1       21 0.10351809E-01 0.18831194E+03</pdfrwt>
<totfact> 0.10182548E+05</totfact>
</mgrwt>
</event>
<event>
 4    1  0.4365842E+000  0.1824545E+03  0.7546771E-02  0.1165448E+00
         21   -1    0    0  503  502  0.00000000000E+00  0.00000000000E+00  0.14852751355E+04  0.14852751355E+04  0.00000000000E+00 0.  1.
         21   -1    0    0  501  503 -0.00000000000E+00 -0.00000000000E+00 -0.89641853833E+02  0.89641853833E+02  0.00000000000E+00 0.  1.
          6    1    1    2  501    0 -0.21169799861E+02 -0.53967531861E+02  0.15871070760E+02  0.18314351151E+03  0.17300000000E+03 0.  1.
         -6    1    1    2    0  502  0.21169799861E+02  0.53967531861E+02  0.13797622109E+04  0.13917734778E+04  0.17300000000E+03 0.  1.
<mgrwt>
<rscale>  2 0.18245453E+03</rscale>
<asrwt>0</asrwt>
<pdfrwt beam="1">  1       21 0.22850385E+00 0.18245453E+03</pdfrwt>
<pdfrwt beam="2">  1       21 0.13791056E-01 0.18245453E+03</pdfrwt>
<totfact> 0.41231873E+03</totfact>
</mgrwt>
</event>
<event>
 4    1  0.4365842E+000  0.2371797E+03  0.7546771E-02  0.1121686E+00
         21   -1    0    0  501  502  0.00000000000E+00  0.00000000000E+00  0.34696710317E+02  0.34696710317E+02  0.00000000000E+00 0. -1.
         21   -1    0    0  502  503 -0.00000000000E+00 -0.00000000000E+00 -0.17878775958E+04  0.17878775958E+04  0.00000000000E+00 0.  1.
          6    1    1    2  501    0  0.15903568133E+03  0.32138059663E+02 -0.59844071980E+03  0.64372781355E+03  0.17300000000E+03 0. -1.
         -6    1    1    2    0  503 -0.15903568133E+03 -0.32138059663E+02 -0.11547401657E+04  0.11788464926E+04  0.17300000000E+03 0.  1.
<mgrwt>
<rscale>  2 0.23717968E+03</rscale>
<asrwt>0</asrwt>
<pdfrwt beam="1">  1       21 0.53379554E-02 0.23717968E+03</pdfrwt>
<pdfrwt beam="2">  1       21 0.27505809E+00 0.23717968E+03</pdfrwt>
<totfact> 0.10978559E+04</totfact>
</mgrwt>
</event>
<event>
 4    1  0.4365842E+000  0.1937261E+03  0.7546771E-02  0.1155143E+00
         21   -1    0    0  503  502  0.00000000000E+00  0.00000000000E+00  0.30841366725E+03  0.30841366725E+03  0.00000000000E+00 0. -1.
         21   -1    0    0  501  503 -0.00000000000E+00 -0.00000000000E+00 -0.20051810455E+03  0.20051810455E+03  0.00000000000E+00 0. -1.
          6    1    1    2  501    0 -0.22756174447E+02 -0.84160388829E+02 -0.10560436298E+03  0.22064019580E+03  0.17300000000E+03 0. -1.
         -6    1    1    2    0  502  0.22756174447E+02  0.84160388829E+02  0.21349992568E+03  0.28829157599E+03  0.17300000000E+03 0. -1.
<mgrwt>
<rscale>  2 0.19372613E+03</rscale>
<asrwt>0</asrwt>
<pdfrwt beam="1">  1       21 0.47448257E-01 0.19372613E+03</pdfrwt>
<pdfrwt beam="2">  1       21 0.30848939E-01 0.19372613E+03</pdfrwt>
<totfact> 0.42851393E+04</totfact>
</mgrwt>
</event>
<event>
 4    1  0.4365842E+000  0.2376116E+03  0.7546771E-02  0.1121394E+00
         21   -1    0    0  503  502  0.00000000000E+00  0.00000000000E+00  0.10061475880E+04  0.10061475880E+04  0.00000000000E+00 0.  1.
         21   -1    0    0  501  503 -0.00000000000E+00 -0.00000000000E+00 -0.59736167540E+02  0.59736167540E+02  0.00000000000E+00 0. -1.
          6    1    1    2  501    0 -0.18178913017E+02 -0.16186357555E+03  0.34197782859E+03  0.41642301235E+03  0.17300000000E+03 0. -1.
         -6    1    1    2    0  502  0.18178913017E+02  0.16186357555E+03  0.60443359189E+03  0.64946074321E+03  0.17300000000E+03 0.  1.
<mgrwt>
<rscale>  2 0.23761164E+03</rscale>
<asrwt>0</asrwt>
<pdfrwt beam="1">  1       21 0.15479192E+00 0.23761164E+03</pdfrwt>
<pdfrwt beam="2">  1       21 0.91901804E-02 0.23761164E+03</pdfrwt>
<totfact> 0.25198077E+04</totfact>
</mgrwt>
</event>
<event>
 4    1  0.4365842E+000  0.2182438E+03  0.7546771E-02  0.1135199E+00
         21   -1    0    0  503  502  0.00000000000E+00  0.00000000000E+00  0.44455562446E+02  0.44455562446E+02  0.00000000000E+00 0.  1.
         21   -1    0    0  501  503 -0.00000000000E+00 -0.00000000000E+00 -0.11120263224E+04  0.11120263224E+04  0.00000000000E+00 0.  1.
          6    1    1    2  501    0  0.74447700388E+02  0.11026736278E+03 -0.64428873867E+03  0.68024872669E+03  0.17300000000E+03 0.  1.
         -6    1    1    2    0  502 -0.74447700388E+02 -0.11026736278E+03 -0.42328202131E+03  0.47623315818E+03  0.17300000000E+03 0.  1.
<mgrwt>
<rscale>  2 0.21824379E+03</rscale>
<asrwt>0</asrwt>
<pdfrwt beam="1">  1       21 0.68393174E-02 0.21824379E+03</pdfrwt>
<pdfrwt beam="2">  1       21 0.17108097E+00 0.21824379E+03</pdfrwt>
<totfact> 0.32485482E+04</totfact>
</mgrwt>
</event>
<event>
 4    1  0.4365842E+000  0.3297810E+03  0.7546771E-02  0.1071234E+00
         21   -1    0    0  503  502  0.00000000000E+00  0.00000000000E+00  0.10522846579E+03  0.10522846579E+03  0.00000000000E+00 0. -1.
         21   -1    0    0  501  503 -0.00000000000E+00 -0.00000000000E+00 -0.18072274875E+04  0.18072274875E+04  0.00000000000E+00 0.  1.
          6    1    1    2  501    0  0.26432058244E+03 -0.94663312011E+02 -0.14766675877E+04  0.15130441757E+04  0.17300000000E+03 0.  1.
         -6    1    1    2    0  502 -0.26432058244E+03  0.94663312011E+02 -0.22533143399E+03  0.39941177760E+03  0.17300000000E+03 0. -1.
<mgrwt>
<rscale>  2 0.32978101E+03</rscale>
<asrwt>0</asrwt>
<pdfrwt beam="1">  1       21 0.16188996E-01 0.32978101E+03</pdfrwt>
<pdfrwt beam="2">  1       21 0.27803497E+00 0.32978101E+03</pdfrwt>
<totfact> 0.13692982E+03</totfact>
</mgrwt>
</event>
<event>
 4    1  0.4365842E+000  0.1954194E+03  0.7546771E-02  0.1153662E+00
         21   -1    0    0  503  502  0.00000000000E+00  0.00000000000E+00  0.71225833934E+02  0.71225833934E+02  0.00000000000E+00 0. -1.
         21   -1    0    0  501  503 -0.00000000000E+00 -0.00000000000E+00 -0.53885529079E+03  0.53885529079E+03  0.00000000000E+00 0.  1.
          6    1    1    2  501    0 -0.57650674346E+01  0.90699982249E+02 -0.21225676311E+03  0.28851630156E+03  0.17300000000E+03 0. -1.
         -6    1    1    2    0  502  0.57650674346E+01 -0.90699982249E+02 -0.25537269374E+03  0.32156482316E+03  0.17300000000E+03 0. -1.
<mgrwt>
<rscale>  2 0.19541935E+03</rscale>
<asrwt>0</asrwt>
<pdfrwt beam="1">  1       21 0.10957821E-01 0.19541935E+03</pdfrwt>
<pdfrwt beam="2">  1       21 0.82900813E-01 0.19541935E+03</pdfrwt>
<totfact> 0.87436318E+04</totfact>
</mgrwt>
</event>
<event>
 4    1  0.4365842E+000  0.2081022E+03  0.7546771E-02  0.1143078E+00
         21   -1    0    0  503  502  0.00000000000E+00  0.00000000000E+00  0.10433872072E+03  0.10433872072E+03  0.00000000000E+00 0.  1.
         21   -1    0    0  501  503 -0.00000000000E+00 -0.00000000000E+00 -0.65045577874E+03  0.65045577874E+03  0.00000000000E+00 0.  1.
          6    1    1    2  501    0 -0.65399948230E+02  0.95395962036E+02 -0.50009295309E+03  0.54166364520E+03  0.17300000000E+03 0.  1.
         -6    1    1    2    0  502  0.65399948230E+02 -0.95395962036E+02 -0.46024104938E+02  0.21313085426E+03  0.17300000000E+03 0.  1.
<mgrwt>
<rscale>  2 0.20810224E+03</rscale>
<asrwt>0</asrwt>
<pdfrwt beam="1">  1       21 0.16052111E-01 0.20810224E+03</pdfrwt>
<pdfrwt beam="2">  1       21 0.10007012E+00 0.20810224E+03</pdfrwt>
<totfact> 0.28156570E+04</totfact>
</mgrwt>
</event>
<event>
 4    1  0.4365842E+000  0.1904874E+03  0.7546771E-02  0.1158022E+00
         21   -1    0    0  501  502  0.00000000000E+00  0.00000000000E+00  0.94399715865E+03  0.94399715865E+03  0.00000000000E+00 0.  1.
         21   -1    0    0  502  503 -0.00000000000E+00 -0.00000000000E+00 -0.38835535589E+02  0.38835535589E+02  0.00000000000E+00 0.  1.
          6    1    1    2  501    0 -0.14664766080E+02 -0.78367123384E+02  0.40286827860E+03  0.44563248456E+03  0.17300000000E+03 0.  1.
         -6    1    1    2    0  503  0.14664766080E+02  0.78367123384E+02  0.50229334446E+03  0.53720020968E+03  0.17300000000E+03 0.  1.
<mgrwt>
<rscale>  2 0.19048743E+03</rscale>
<asrwt>0</asrwt>
<pdfrwt beam="1">  1       21 0.14523031E+00 0.19048743E+03</pdfrwt>
<pdfrwt beam="2">  1       21 0.59746985E-02 0.19048743E+03</pdfrwt>
<totfact> 0.64685045E+04</totfact>
</mgrwt>
</event>
<event>
 4    1  0.4365842E+000  0.1905057E+03  0.7546771E-02  0.1158006E+00
         21   -1    0    0  503  502  0.00000000000E+00  0.00000000000E+00  0.34066565825E+03  0.34066565825E+03  0.00000000000E+00 0.  1.
         21   -1    0    0  501  503 -0.00000000000E+00 -0.00000000000E+00 -0.10953899546E+03  0.10953899546E+03  0.00000000000E+00 0.  1.
          6    1    1    2  501    0 -0.78655961138E+02 -0.13290692304E+02  0.78278438621E+02  0.20596095911E+03  0.17300000000E+03 0. -1.
         -6    1    1    2    0  502  0.78655961138E+02  0.13290692304E+02  0.15284822417E+03  0.24424369461E+03  0.17300000000E+03 0. -1.
<mgrwt>
<rscale>  2 0.19050565E+03</rscale>
<asrwt>0</asrwt>
<pdfrwt beam="1">  1       21 0.52410101E-01 0.19050565E+03</pdfrwt>
<pdfrwt beam="2">  1       21 0.16852153E-01 0.19050565E+03</pdfrwt>
<totfact> 0.10955647E+05</totfact>
</mgrwt>
</event>
<event>
 4    1  0.4365842E+000  0.2346145E+03  0.7546771E-02  0.1123433E+00
         21   -1    0    0  501  502  0.00000000000E+00  0.00000000000E+00  0.71223055786E+02  0.71223055786E+02  0.00000000000E+00 0. -1.
         21   -1    0    0  502  503 -0.00000000000E+00 -0.00000000000E+00 -0.85519906427E+03  0.85519906427E+03  0.00000000000E+00 0. -1.
          6    1    1    2  501    0 -0.15531215048E+02  0.15771410666E+03 -0.53573657789E+03  0.58485693889E+03  0.17300000000E+03 0. -1.
         -6    1    1    2    0  503  0.15531215048E+02 -0.15771410666E+03 -0.24823943059E+03  0.34156518116E+03  0.17300000000E+03 0. -1.
<mgrwt>
<rscale>  2 0.23461449E+03</rscale>
<asrwt>0</asrwt>
<pdfrwt beam="1">  1       21 0.10957393E-01 0.23461449E+03</pdfrwt>
<pdfrwt beam="2">  1       21 0.13156908E+00 0.23461449E+03</pdfrwt>
<totfact> 0.28248936E+04</totfact>
</mgrwt>
</event>
<event>
 4    1  0.4365842E+000  0.2190159E+03  0.7546771E-02  0.1134619E+00
         21   -1    0    0  501  502  0.00000000000E+00  0.00000000000E+00  0.18838189107E+04  0.18838189107E+04  0.00000000000E+00 0. -1.
         21   -1    0    0  502  503 -0.00000000000E+00 -0.00000000000E+00 -0.25484447524E+02  0.25484447524E+02  0.00000000000E+00 0. -1.
          6    1    1    2  501    0 -0.13424942185E+03  0.40087271738E+01  0.95676016739E+03  0.98150802089E+03  0.17300000000E+03 0. -1.
         -6    1    1    2    0  503  0.13424942185E+03 -0.40087271738E+01  0.90157429576E+03  0.92779533731E+03  0.17300000000E+03 0. -1.
<mgrwt>
<rscale>  2 0.21901593E+03</rscale>
<asrwt>0</asrwt>
<pdfrwt beam="1">  1       21 0.28981818E+00 0.21901593E+03</pdfrwt>
<pdfrwt beam="2">  1       21 0.39206857E-02 0.21901593E+03</pdfrwt>
<totfact> 0.15437473E+04</totfact>
</mgrwt>
</event>
<event>
 4    1  0.4365842E+000  0.3420428E+03  0.7546771E-02  0.1065929E+00
         21   -1    0    0  503  502  0.00000000000E+00  0.00000000000E+00  0.21905240409E+03  0.21905240409E+03  0.00000000000E+00 0. -1.
         21   -1    0    0  501  503 -0.00000000000E+00 -0.00000000000E+00 -0.83176747817E+03  0.83176747817E+03  0.00000000000E+00 0.  1.
          6    1    1    2  501    0  0.28562855735E+03  0.74031262565E+02 -0.62067725913E+03  0.70868438716E+03  0.17300000000E+03 0.  1.
         -6    1    1    2    0  502 -0.28562855735E+03 -0.74031262565E+02  0.79621850512E+01  0.34213549509E+03  0.17300000000E+03 0. -1.
<mgrwt>
<rscale>  2 0.34204283E+03</rscale>
<asrwt>0</asrwt>
<pdfrwt beam="1">  1       21 0.33700370E-01 0.34204283E+03</pdfrwt>
<pdfrwt beam="2">  1       21 0.12796423E+00 0.34204283E+03</pdfrwt>
<totfact> 0.34638551E+03</totfact>
</mgrwt>
</event>
<event>
 4    1  0.4365842E+000  0.1816178E+03  0.7546771E-02  0.1166246E+00
         21   -1    0    0  501  502  0.00000000000E+00  0.00000000000E+00  0.42053868864E+02  0.42053868864E+02  0.00000000000E+00 0. -1.
         21   -1    0    0  502  503 -0.00000000000E+00 -0.00000000000E+00 -0.11919216188E+04  0.11919216188E+04  0.00000000000E+00 0. -1.
          6    1    1    2  501    0 -0.24761089506E+02 -0.49425720234E+02 -0.21414438419E+03  0.28078965554E+03  0.17300000000E+03 0. -1.
         -6    1    1    2    0  503  0.24761089506E+02  0.49425720234E+02 -0.93572336577E+03  0.95318583215E+03  0.17300000000E+03 0. -1.
<mgrwt>
<rscale>  2 0.18161777E+03</rscale>
<asrwt>0</asrwt>
<pdfrwt beam="1">  1       21 0.64698263E-02 0.18161777E+03</pdfrwt>
<pdfrwt beam="2">  1       21 0.18337255E+00 0.18161777E+03</pdfrwt>
<totfact> 0.30138543E+04</totfact>
</mgrwt>
</event>
<event>
 4    1  0.4365842E+000  0.2138739E+03  0.7546771E-02  0.1138534E+00
         21   -1    0    0  501  502  0.00000000000E+00  0.00000000000E+00  0.27651665721E+03  0.27651665721E+03  0.00000000000E+00 0. -1.
         21   -1    0    0  502  503 -0.00000000000E+00 -0.00000000000E+00 -0.26756296114E+03  0.26756296114E+03  0.00000000000E+00 0. -1.
          6    1    1    2  501    0  0.45230609707E+02 -0.11733390025E+03  0.17255782371E+03  0.27480584914E+03  0.17300000000E+03 0. -1.
         -6    1    1    2    0  503 -0.45230609707E+02  0.11733390025E+03 -0.16360412764E+03  0.26927376921E+03  0.17300000000E+03 0. -1.
<mgrwt>
<rscale>  2 0.21387392E+03</rscale>
<asrwt>0</asrwt>
<pdfrwt beam="1">  1       21 0.42541024E-01 0.21387392E+03</pdfrwt>
<pdfrwt beam="2">  1       21 0.41163533E-01 0.21387392E+03</pdfrwt>
<totfact> 0.29869689E+04</totfact>
</mgrwt>
</event>
<event>
 4    1  0.4365842E+000  0.1947380E+03  0.7546771E-02  0.1154256E+00
         21   -1    0    0  503  502  0.00000000000E+00  0.00000000000E+00  0.91848451537E+03  0.91848451537E+03  0.00000000000E+00 0.  1.
         21   -1    0    0  501  503 -0.00000000000E+00 -0.00000000000E+00 -0.41618763340E+02  0.41618763340E+02  0.00000000000E+00 0.  1.
          6    1    1    2  501    0  0.43383866701E+01 -0.89303307517E+02  0.39567318131E+03  0.44099905753E+03  0.17300000000E+03 0.  1.
         -6    1    1    2    0  502 -0.43383866701E+01  0.89303307517E+02  0.48119257072E+03  0.51910422118E+03  0.17300000000E+03 0.  1.
<mgrwt>
<rscale>  2 0.19473804E+03</rscale>
<asrwt>0</asrwt>
<pdfrwt beam="1">  1       21 0.14130529E+00 0.19473804E+03</pdfrwt>
<pdfrwt beam="2">  1       21 0.64028874E-02 0.19473804E+03</pdfrwt>
<totfact> 0.61550202E+04</totfact>
</mgrwt>
</event>
<event>
 4    1  0.4365842E+000  0.2577170E+03  0.7546771E-02  0.1108523E+00
         21   -1    0    0  501  502  0.00000000000E+00  0.00000000000E+00  0.22933737216E+03  0.22933737216E+03  0.00000000000E+00 0. -1.
         21   -1    0    0  502  503 -0.00000000000E+00 -0.00000000000E+00 -0.38737680163E+03  0.38737680163E+03  0.00000000000E+00 0.  1.
          6    1    1    2  501    0  0.10149615727E+03 -0.16182584770E+03  0.75892601107E+02  0.26865919271E+03  0.17300000000E+03 0.  1.
         -6    1    1    2    0  503 -0.10149615727E+03  0.16182584770E+03 -0.23393203058E+03  0.34805498108E+03  0.17300000000E+03 0.  1.
<mgrwt>
<rscale>  2 0.25771704E+03</rscale>
<asrwt>0</asrwt>
<pdfrwt beam="1">  1       21 0.35282673E-01 0.25771704E+03</pdfrwt>
<pdfrwt beam="2">  1       21 0.59596430E-01 0.25771704E+03</pdfrwt>
<totfact> 0.19659088E+04</totfact>
</mgrwt>
</event>
<event>
 4    1  0.4365842E+000  0.2796133E+03  0.7546771E-02  0.1095900E+00
         21   -1    0    0  501  502  0.00000000000E+00  0.00000000000E+00  0.10414597895E+04  0.10414597895E+04  0.00000000000E+00 0.  1.
         21   -1    0    0  502  503 -0.00000000000E+00 -0.00000000000E+00 -0.81803000651E+02  0.81803000651E+02  0.00000000000E+00 0.  1.
          6    1    1    2  501    0 -0.62735209639E+02 -0.21052048331E+03  0.64094270188E+03  0.69927900548E+03  0.17300000000E+03 0.  1.
         -6    1    1    2    0  503  0.62735209639E+02  0.21052048331E+03  0.31871408694E+03  0.42398378463E+03  0.17300000000E+03 0.  1.
<mgrwt>
<rscale>  2 0.27961327E+03</rscale>
<asrwt>0</asrwt>
<pdfrwt beam="1">  1       21 0.16022457E+00 0.27961327E+03</pdfrwt>
<pdfrwt beam="2">  1       21 0.12585078E-01 0.27961327E+03</pdfrwt>
<totfact> 0.12788874E+04</totfact>
</mgrwt>
</event>
<event>
 4    1  0.4365842E+000  0.2498559E+03  0.7546771E-02  0.1113396E+00
         21   -1    0    0  501  502  0.00000000000E+00  0.00000000000E+00  0.15571744533E+04  0.15571744533E+04  0.00000000000E+00 0.  1.
         21   -1    0    0  502  503 -0.00000000000E+00 -0.00000000000E+00 -0.40954554136E+02  0.40954554136E+02  0.00000000000E+00 0. -1.
          6    1    1    2  501    0  0.16562098376E+03  0.71194481730E+02  0.87417225597E+03  0.90917825402E+03  0.17300000000E+03 0.  1.
         -6    1    1    2    0  503 -0.16562098376E+03 -0.71194481730E+02  0.64204764316E+03  0.68895075337E+03  0.17300000000E+03 0. -1.
<mgrwt>
<rscale>  2 0.24985589E+03</rscale>
<asrwt>0</asrwt>
<pdfrwt beam="1">  1       21 0.23956526E+00 0.24985589E+03</pdfrwt>
<pdfrwt beam="2">  1       21 0.63007018E-02 0.24985589E+03</pdfrwt>
<totfact> 0.13274045E+04</totfact>
</mgrwt>
</event>
<event>
 4    1  0.4365842E+000  0.3321530E+03  0.7546771E-02  0.1070188E+00
         21   -1    0    0  503  502  0.00000000000E+00  0.00000000000E+00  0.48427197184E+02  0.48427197184E+02  0.00000000000E+00 0.  1.
         21   -1    0    0  501  503 -0.00000000000E+00 -0.00000000000E+00 -0.23425328821E+04  0.23425328821E+04  0.00000000000E+00 0. -1.
          6    1    1    2  501    0 -0.25955603892E+03 -0.11413705086E+03 -0.94889914496E+03  0.10053532668E+04  0.17300000000E+03 0.  1.
         -6    1    1    2    0  502  0.25955603892E+03  0.11413705086E+03 -0.13452065399E+04  0.13856068125E+04  0.17300000000E+03 0. -1.
<mgrwt>
<rscale>  2 0.33215298E+03</rscale>
<asrwt>0</asrwt>
<pdfrwt beam="1">  1       21 0.74503372E-02 0.33215298E+03</pdfrwt>
<pdfrwt beam="2">  1       21 0.36038971E+00 0.33215298E+03</pdfrwt>
<totfact> 0.17809790E+03</totfact>
</mgrwt>
</event>
<event>
 4    1  0.4365842E+000  0.2027538E+03  0.7546771E-02  0.1147436E+00
         21   -1    0    0  503  502  0.00000000000E+00  0.00000000000E+00  0.72617003353E+02  0.72617003353E+02  0.00000000000E+00 0. -1.
         21   -1    0    0  501  503 -0.00000000000E+00 -0.00000000000E+00 -0.60484637662E+03  0.60484637662E+03  0.00000000000E+00 0.  1.
          6    1    1    2  501    0  0.34420608258E+02 -0.99976532630E+02 -0.35183870948E+03  0.40607827181E+03  0.17300000000E+03 0. -1.
         -6    1    1    2    0  502 -0.34420608258E+02  0.99976532630E+02 -0.18039066379E+03  0.27138510816E+03  0.17300000000E+03 0. -1.
<mgrwt>
<rscale>  2 0.20275376E+03</rscale>
<asrwt>0</asrwt>
<pdfrwt beam="1">  1       21 0.11171847E-01 0.20275376E+03</pdfrwt>
<pdfrwt beam="2">  1       21 0.93053290E-01 0.20275376E+03</pdfrwt>
<totfact> 0.64506513E+04</totfact>
</mgrwt>
</event>
<event>
 4    1  0.4365842E+000  0.3268405E+03  0.7546771E-02  0.1072543E+00
         21   -1    0    0  503  502  0.00000000000E+00  0.00000000000E+00  0.94429795292E+03  0.94429795292E+03  0.00000000000E+00 0.  1.
         21   -1    0    0  501  503 -0.00000000000E+00 -0.00000000000E+00 -0.27118772507E+03  0.27118772507E+03  0.00000000000E+00 0.  1.
          6    1    1    2  501    0  0.26239892544E+03 -0.89679926283E+02 -0.12742369329E+03  0.35080120134E+03  0.17300000000E+03 0.  1.
         -6    1    1    2    0  502 -0.26239892544E+03  0.89679926283E+02  0.80053392115E+03  0.86468447665E+03  0.17300000000E+03 0.  1.
<mgrwt>
<rscale>  2 0.32684046E+03</rscale>
<asrwt>0</asrwt>
<pdfrwt beam="1">  1       21 0.14527661E+00 0.32684046E+03</pdfrwt>
<pdfrwt beam="2">  1       21 0.41721189E-01 0.32684046E+03</pdfrwt>
<totfact> 0.16260061E+03</totfact>
</mgrwt>
</event>
<event>
 4    1  0.4365842E+000  0.1883322E+03  0.7546771E-02  0.1159974E+00
         21   -1    0    0  503  502  0.00000000000E+00  0.00000000000E+00  0.26437805250E+03  0.26437805250E+03  0.00000000000E+00 0. -1.
         21   -1    0    0  501  503 -0.00000000000E+00 -0.00000000000E+00 -0.14181959287E+03  0.14181959287E+03  0.00000000000E+00 0. -1.
          6    1    1    2  501    0  0.74333364260E+02 -0.38175096271E+01  0.14079948366E+02  0.18885779668E+03  0.17300000000E+03 0. -1.
         -6    1    1    2    0  502 -0.74333364260E+02  0.38175096271E+01  0.10847851126E+03  0.21733984869E+03  0.17300000000E+03 0. -1.
<mgrwt>
<rscale>  2 0.18833221E+03</rscale>
<asrwt>0</asrwt>
<pdfrwt beam="1">  1       21 0.40673547E-01 0.18833221E+03</pdfrwt>
<pdfrwt beam="2">  1       21 0.21818399E-01 0.18833221E+03</pdfrwt>
<totfact> 0.11435794E+05</totfact>
</mgrwt>
</event>
<event>
 4    1  0.4365842E+000  0.1980465E+03  0.7546771E-02  0.1151398E+00
         21   -1    0    0  501  502  0.00000000000E+00  0.00000000000E+00  0.14926403102E+03  0.14926403102E+03  0.00000000000E+00 0. -1.
         21   -1    0    0  502  503 -0.00000000000E+00 -0.00000000000E+00 -0.33028363496E+03  0.33028363496E+03  0.00000000000E+00 0. -1.
          6    1    1    2  501    0  0.27699749521E+02  0.92337200329E+02  0.17894619214E+02  0.19885334316E+03  0.17300000000E+03 0. -1.
         -6    1    1    2    0  503 -0.27699749521E+02 -0.92337200329E+02 -0.19891422316E+03  0.28069432282E+03  0.17300000000E+03 0. -1.
<mgrwt>
<rscale>  2 0.19804655E+03</rscale>
<asrwt>0</asrwt>
<pdfrwt beam="1">  1       21 0.22963697E-01 0.19804655E+03</pdfrwt>
<pdfrwt beam="2">  1       21 0.50812867E-01 0.19804655E+03</pdfrwt>
<totfact> 0.65425470E+04</totfact>
</mgrwt>
</event>
<event>
 4    1  0.4365842E+000  0.1921876E+03  0.7546771E-02  0.1156503E+00
         21   -1    0    0  501  502  0.00000000000E+00  0.00000000000E+00  0.88218561952E+02  0.88218561952E+02  0.00000000000E+00 0.  1.
         21   -1    0    0  502  503 -0.00000000000E+00 -0.00000000000E+00 -0.43522940640E+03  0.43522940640E+03  0.00000000000E+00 0.  1.
          6    1    1    2  501    0  0.58639282323E+02 -0.59737025836E+02 -0.12248230485E+03  0.22789908444E+03  0.17300000000E+03 0.  1.
         -6    1    1    2    0  503 -0.58639282323E+02  0.59737025836E+02 -0.22452853960E+03  0.29554888391E+03  0.17300000000E+03 0.  1.
<mgrwt>
<rscale>  2 0.19218761E+03</rscale>
<asrwt>0</asrwt>
<pdfrwt beam="1">  1       21 0.13572086E-01 0.19218761E+03</pdfrwt>
<pdfrwt beam="2">  1       21 0.66958370E-01 0.19218761E+03</pdfrwt>
<totfact> 0.96099886E+04</totfact>
</mgrwt>
</event>
<event>
 4    1  0.4365842E+000  0.2475266E+03  0.7546771E-02  0.1114878E+00
         21   -1    0    0  503  502  0.00000000000E+00  0.00000000000E+00  0.14907378442E+03  0.14907378442E+03  0.00000000000E+00 0. -1.
         21   -1    0    0  501  503 -0.00000000000E+00 -0.00000000000E+00 -0.66151913790E+03  0.66151913790E+03  0.00000000000E+00 0.  1.
          6    1    1    2  501    0 -0.72334246004E+02 -0.16158027847E+03 -0.50563703656E+03  0.56297268342E+03  0.17300000000E+03 0.  1.
         -6    1    1    2    0  502  0.72334246004E+02  0.16158027847E+03 -0.68083169192E+01  0.24762023890E+03  0.17300000000E+03 0. -1.
<mgrwt>
<rscale>  2 0.24752662E+03</rscale>
<asrwt>0</asrwt>
<pdfrwt beam="1">  1       21 0.22934428E-01 0.24752662E+03</pdfrwt>
<pdfrwt beam="2">  1       21 0.10177218E+00 0.24752662E+03</pdfrwt>
<totfact> 0.13587276E+04</totfact>
</mgrwt>
</event>
<event>
 4    1  0.4365842E+000  0.1940349E+03  0.7546771E-02  0.1154872E+00
         21   -1    0    0  503  502  0.00000000000E+00  0.00000000000E+00  0.67883775452E+03  0.67883775452E+03  0.00000000000E+00 0.  1.
         21   -1    0    0  501  503 -0.00000000000E+00 -0.00000000000E+00 -0.79244207717E+02  0.79244207717E+02  0.00000000000E+00 0.  1.
          6    1    1    2  501    0 -0.26263650905E+02  0.83849735867E+02  0.92147508833E+02  0.21480391279E+03  0.17300000000E+03 0.  1.
         -6    1    1    2    0  502  0.26263650905E+02 -0.83849735867E+02  0.50744603797E+03  0.54327804946E+03  0.17300000000E+03 0.  1.
<mgrwt>
<rscale>  2 0.19403494E+03</rscale>
<asrwt>0</asrwt>
<pdfrwt beam="1">  1       21 0.10443657E+00 0.19403494E+03</pdfrwt>
<pdfrwt beam="2">  1       21 0.12191417E-01 0.19403494E+03</pdfrwt>
<totfact> 0.42188734E+04</totfact>
</mgrwt>
</event>
<event>
 4    1  0.4365842E+000  0.1778920E+03  0.7546771E-02  0.1169859E+00
         21   -1    0    0  501  502  0.00000000000E+00  0.00000000000E+00  0.91809882342E+03  0.91809882342E+03  0.00000000000E+00 0.  1.
         21   -1    0    0  502  503 -0.00000000000E+00 -0.00000000000E+00 -0.39759947148E+02  0.39759947148E+02  0.00000000000E+00 0.  1.
          6    1    1    2  501    0 -0.25957944337E+02 -0.32291832957E+02  0.61388511728E+03  0.63914044980E+03  0.17300000000E+03 0.  1.
         -6    1    1    2    0  503  0.25957944337E+02  0.32291832957E+02  0.26445375899E+03  0.31871832077E+03  0.17300000000E+03 0.  1.
<mgrwt>
<rscale>  2 0.17789204E+03</rscale>
<asrwt>0</asrwt>
<pdfrwt beam="1">  1       21 0.14124596E+00 0.17789204E+03</pdfrwt>
<pdfrwt beam="2">  1       21 0.61169156E-02 0.17789204E+03</pdfrwt>
<totfact> 0.67223162E+04</totfact>
</mgrwt>
</event>
<event>
 4    1  0.4365842E+000  0.2097719E+03  0.7546771E-02  0.1141747E+00
         21   -1    0    0  501  502  0.00000000000E+00  0.00000000000E+00  0.20297525138E+03  0.20297525138E+03  0.00000000000E+00 0.  1.
         21   -1    0    0  502  503 -0.00000000000E+00 -0.00000000000E+00 -0.34881466053E+03  0.34881466053E+03  0.00000000000E+00 0.  1.
          6    1    1    2  501    0  0.10849457743E+03 -0.48001807641E+02  0.96812346757E+02  0.23103436401E+03  0.17300000000E+03 0.  1.
         -6    1    1    2    0  503 -0.10849457743E+03  0.48001807641E+02 -0.24265175591E+03  0.32075554791E+03  0.17300000000E+03 0.  1.
<mgrwt>
<rscale>  2 0.20977189E+03</rscale>
<asrwt>0</asrwt>
<pdfrwt beam="1">  1       21 0.31226962E-01 0.20977189E+03</pdfrwt>
<pdfrwt beam="2">  1       21 0.53663793E-01 0.20977189E+03</pdfrwt>
<totfact> 0.32076765E+04</totfact>
</mgrwt>
</event>
<event>
 4    1  0.4365842E+000  0.2104729E+03  0.7546771E-02  0.1141192E+00
         21   -1    0    0  501  502  0.00000000000E+00  0.00000000000E+00  0.63539350907E+03  0.63539350907E+03  0.00000000000E+00 0. -1.
         21   -1    0    0  502  503 -0.00000000000E+00 -0.00000000000E+00 -0.92130733045E+02  0.92130733045E+02  0.00000000000E+00 0. -1.
          6    1    1    2  501    0 -0.68165452023E+02  0.98606900296E+02  0.45104493174E+03  0.49773525100E+03  0.17300000000E+03 0. -1.
         -6    1    1    2    0  503  0.68165452023E+02 -0.98606900296E+02  0.92217844287E+02  0.22978899112E+03  0.17300000000E+03 0. -1.
<mgrwt>
<rscale>  2 0.21047292E+03</rscale>
<asrwt>0</asrwt>
<pdfrwt beam="1">  1       21 0.97752845E-01 0.21047292E+03</pdfrwt>
<pdfrwt beam="2">  1       21 0.14173959E-01 0.21047292E+03</pdfrwt>
<totfact> 0.37303996E+04</totfact>
</mgrwt>
</event>
<event>
 4    1  0.4365842E+000  0.2270476E+03  0.7546771E-02  0.1128735E+00
         21   -1    0    0  503  502  0.00000000000E+00  0.00000000000E+00  0.12340292211E+03  0.12340292211E+03  0.00000000000E+00 0.  1.
         21   -1    0    0  501  503 -0.00000000000E+00 -0.00000000000E+00 -0.42780802764E+03  0.42780802764E+03  0.00000000000E+00 0.  1.
          6    1    1    2  501    0  0.81820176839E+02 -0.12217641501E+03 -0.10992727687E+03  0.25225904131E+03  0.17300000000E+03 0.  1.
         -6    1    1    2    0  502 -0.81820176839E+02  0.12217641501E+03 -0.19447782867E+03  0.29895190845E+03  0.17300000000E+03 0.  1.
<mgrwt>
<rscale>  2 0.22704761E+03</rscale>
<asrwt>0</asrwt>
<pdfrwt beam="1">  1       21 0.18985065E-01 0.22704761E+03</pdfrwt>
<pdfrwt beam="2">  1       21 0.65816619E-01 0.22704761E+03</pdfrwt>
<totfact> 0.53092334E+04</totfact>
</mgrwt>
</event>
<event>
 4    1  0.4365842E+000  0.3475756E+03  0.7546771E-02  0.1063615E+00
         21   -1    0    0  503  502  0.00000000000E+00  0.00000000000E+00  0.38515337238E+03  0.38515337238E+03  0.00000000000E+00 0.  1.
         21   -1    0    0  501  503 -0.00000000000E+00 -0.00000000000E+00 -0.79655861650E+03  0.79655861650E+03  0.00000000000E+00 0. -1.
          6    1    1    2  501    0 -0.25622439360E+03  0.15883590226E+03 -0.66574613965E+03  0.75101711444E+03  0.17300000000E+03 0. -1.
         -6    1    1    2    0  502  0.25622439360E+03 -0.15883590226E+03  0.25434089553E+03  0.43069487443E+03  0.17300000000E+03 0.  1.
<mgrwt>
<rscale>  2 0.34757558E+03</rscale>
<asrwt>0</asrwt>
<pdfrwt beam="1">  1       21 0.59254366E-01 0.34757558E+03</pdfrwt>
<pdfrwt beam="2">  1       21 0.12254748E+00 0.34757558E+03</pdfrwt>
<totfact> 0.11909088E+03</totfact>
</mgrwt>
</event>
<event>
 4    1  0.4365842E+000  0.1819319E+03  0.7546771E-02  0.1165946E+00
         21   -1    0    0  501  502  0.00000000000E+00  0.00000000000E+00  0.15484291781E+04  0.15484291781E+04  0.00000000000E+00 0.  1.
         21   -1    0    0  502  503 -0.00000000000E+00 -0.00000000000E+00 -0.26451574809E+02  0.26451574809E+02  0.00000000000E+00 0.  1.
          6    1    1    2  501    0  0.23930479541E+02 -0.50966239053E+02  0.11059215586E+04  0.11207862058E+04  0.17300000000E+03 0.  1.
         -6    1    1    2    0  503 -0.23930479541E+02  0.50966239053E+02  0.41605604470E+03  0.45409454710E+03  0.17300000000E+03 0.  1.
<mgrwt>
<rscale>  2 0.18193193E+03</rscale>
<asrwt>0</asrwt>
<pdfrwt beam="1">  1       21 0.23821980E+00 0.18193193E+03</pdfrwt>
<pdfrwt beam="2">  1       21 0.40694743E-02 0.18193193E+03</pdfrwt>
<totfact> 0.29980871E+04</totfact>
</mgrwt>
</event>
<event>
 4    1  0.4365842E+000  0.2084538E+03  0.7546771E-02  0.1142796E+00
         21   -1    0    0  503  502  0.00000000000E+00  0.00000000000E+00  0.14123376230E+04  0.14123376230E+04  0.00000000000E+00 0.  1.
         21   -1    0    0  501  503 -0.00000000000E+00 -0.00000000000E+00 -0.40826404129E+02  0.40826404129E+02  0.00000000000E+00 0. -1.
          6    1    1    2  501    0  0.11327184546E+03 -0.26333618794E+02  0.32508841367E+03  0.38618058879E+03  0.17300000000E+03 0. -1.
         -6    1    1    2    0  502 -0.11327184546E+03  0.26333618794E+02  0.10464228052E+04  0.10669834383E+04  0.17300000000E+03 0.  1.
<mgrwt>
<rscale>  2 0.20845376E+03</rscale>
<asrwt>0</asrwt>
<pdfrwt beam="1">  1       21 0.21728267E+00 0.20845376E+03</pdfrwt>
<pdfrwt beam="2">  1       21 0.62809863E-02 0.20845376E+03</pdfrwt>
<totfact> 0.18822489E+04</totfact>
</mgrwt>
</event>
<event>
 4    1  0.4365842E+000  0.2206589E+03  0.7546771E-02  0.1133393E+00
         21   -1    0    0  501  502  0.00000000000E+00  0.00000000000E+00  0.85853134635E+03  0.85853134635E+03  0.00000000000E+00 0. -1.
         21   -1    0    0  502  503 -0.00000000000E+00 -0.00000000000E+00 -0.80320674005E+02  0.80320674005E+02  0.00000000000E+00 0. -1.
          6    1    1    2  501    0 -0.13382103650E+03  0.29210995651E+02  0.13461276605E+03  0.25847814001E+03  0.17300000000E+03 0. -1.
         -6    1    1    2    0  503  0.13382103650E+03 -0.29210995651E+02  0.64359790629E+03  0.68037388034E+03  0.17300000000E+03 0. -1.
<mgrwt>
<rscale>  2 0.22065890E+03</rscale>
<asrwt>0</asrwt>
<pdfrwt beam="1">  1       21 0.13208174E+00 0.22065890E+03</pdfrwt>
<pdfrwt beam="2">  1       21 0.12357027E-01 0.22065890E+03</pdfrwt>
<totfact> 0.22725300E+04</totfact>
</mgrwt>
</event>
<event>
 4    1  0.4365842E+000  0.1891193E+03  0.7546771E-02  0.1159258E+00
         21   -1    0    0  501  502  0.00000000000E+00  0.00000000000E+00  0.31112505721E+03  0.31112505721E+03  0.00000000000E+00 0.  1.
         21   -1    0    0  502  503 -0.00000000000E+00 -0.00000000000E+00 -0.11496760436E+03  0.11496760436E+03  0.00000000000E+00 0.  1.
          6    1    1    2  501    0  0.71482802463E+02 -0.26968767369E+02  0.10009287585E+03  0.21397357140E+03  0.17300000000E+03 0.  1.
         -6    1    1    2    0  503 -0.71482802463E+02  0.26968767369E+02  0.96064576997E+02  0.21211909017E+03  0.17300000000E+03 0.  1.
<mgrwt>
<rscale>  2 0.18911929E+03</rscale>
<asrwt>0</asrwt>
<pdfrwt beam="1">  1       21 0.47865393E-01 0.18911929E+03</pdfrwt>
<pdfrwt beam="2">  1       21 0.17687324E-01 0.18911929E+03</pdfrwt>
<totfact> 0.12114216E+05</totfact>
</mgrwt>
</event>
<event>
 4    1  0.4365842E+000  0.1950785E+03  0.7546771E-02  0.1153959E+00
         21   -1    0    0  503  502  0.00000000000E+00  0.00000000000E+00  0.28991994337E+02  0.28991994337E+02  0.00000000000E+00 0.  1.
         21   -1    0    0  501  503 -0.00000000000E+00 -0.00000000000E+00 -0.26786101210E+04  0.26786101210E+04  0.00000000000E+00 0. -1.
          6    1    1    2  501    0  0.21705982290E+02 -0.87495588305E+02 -0.22915787400E+04  0.22998671156E+04  0.17300000000E+03 0. -1.
         -6    1    1    2    0  502 -0.21705982290E+02  0.87495588305E+02 -0.35803938670E+03  0.40773499981E+03  0.17300000000E+03 0.  1.
<mgrwt>
<rscale>  2 0.19507852E+03</rscale>
<asrwt>0</asrwt>
<pdfrwt beam="1">  1       21 0.44603078E-02 0.19507852E+03</pdfrwt>
<pdfrwt beam="2">  1       21 0.41209378E+00 0.19507852E+03</pdfrwt>
<totfact> 0.23789393E+03</totfact>
</mgrwt>
</event>
<event>
 4    1  0.4365842E+000  0.2265638E+03  0.7546771E-02  0.1129082E+00
         21   -1    0    0  501  502  0.00000000000E+00  0.00000000000E+00  0.39179598183E+02  0.39179598183E+02  0.00000000000E+00 0.  1.
         21   -1    0    0  502  503 -0.00000000000E+00 -0.00000000000E+00 -0.32259417787E+04  0.32259417787E+04  0.00000000000E+00 0.  1.
          6    1    1    2  501    0 -0.73938932884E+02 -0.12623472466E+03 -0.33528108517E+03  0.40465365138E+03  0.17300000000E+03 0.  1.
         -6    1    1    2    0  503  0.73938932884E+02  0.12623472466E+03 -0.28514810953E+04  0.28604677255E+04  0.17300000000E+03 0.  1.
<mgrwt>
<rscale>  2 0.22656384E+03</rscale>
<asrwt>0</asrwt>
<pdfrwt beam="1">  1       21 0.60276316E-02 0.22656384E+03</pdfrwt>
<pdfrwt beam="2">  1       21 0.49629865E+00 0.22656384E+03</pdfrwt>
<totfact> 0.37269822E+02</totfact>
</mgrwt>
</event>
<event>
 4    1  0.4365842E+000  0.2222509E+03  0.7546771E-02  0.1132216E+00
         21   -1    0    0  501  502  0.00000000000E+00  0.00000000000E+00  0.44452951499E+02  0.44452951499E+02  0.00000000000E+00 0.  1.
         21   -1    0    0  502  503 -0.00000000000E+00 -0.00000000000E+00 -0.14967395375E+04  0.14967395375E+04  0.00000000000E+00 0. -1.
          6    1    1    2  501    0 -0.62021103410E+02 -0.12497935079E+03 -0.33503533704E+03  0.40204991289E+03  0.17300000000E+03 0.  1.
         -6    1    1    2    0  503  0.62021103410E+02  0.12497935079E+03 -0.11172512489E+04  0.11391425761E+04  0.17300000000E+03 0. -1.
<mgrwt>
<rscale>  2 0.22225088E+03</rscale>
<asrwt>0</asrwt>
<pdfrwt beam="1">  1       21 0.68389169E-02 0.22225088E+03</pdfrwt>
<pdfrwt beam="2">  1       21 0.23026758E+00 0.22225088E+03</pdfrwt>
<totfact> 0.13385821E+04</totfact>
</mgrwt>
</event>
<event>
 4    1  0.4365842E+000  0.2110589E+03  0.7546771E-02  0.1140730E+00
         21   -1    0    0  503  502  0.00000000000E+00  0.00000000000E+00  0.74289194387E+03  0.74289194387E+03  0.00000000000E+00 0.  1.
         21   -1    0    0  501  503 -0.00000000000E+00 -0.00000000000E+00 -0.80867498102E+02  0.80867498102E+02  0.00000000000E+00 0. -1.
          6    1    1    2  501    0  0.10492451543E+02 -0.12044401176E+03  0.12159819531E+03  0.24358155228E+03  0.17300000000E+03 0. -1.
         -6    1    1    2    0  502 -0.10492451543E+02  0.12044401176E+03  0.54042625045E+03  0.58017788969E+03  0.17300000000E+03 0.  1.
<mgrwt>
<rscale>  2 0.21105888E+03</rscale>
<asrwt>0</asrwt>
<pdfrwt beam="1">  1       21 0.11429106E+00 0.21105888E+03</pdfrwt>
<pdfrwt beam="2">  1       21 0.12441154E-01 0.21105888E+03</pdfrwt>
<totfact> 0.32396886E+04</totfact>
</mgrwt>
</event>
<event>
 4    1  0.4365842E+000  0.2044935E+03  0.7546771E-02  0.1146002E+00
         21   -1    0    0  501  502  0.00000000000E+00  0.00000000000E+00  0.21762579398E+03  0.21762579398E+03  0.00000000000E+00 0.  1.
         21   -1    0    0  502  503 -0.00000000000E+00 -0.00000000000E+00 -0.19231333328E+03  0.19231333328E+03  0.00000000000E+00 0. -1.
          6    1    1    2  501    0 -0.76432971154E+02 -0.77759857103E+02  0.18562191653E+02  0.20533423829E+03  0.17300000000E+03 0.  1.
         -6    1    1    2    0  503  0.76432971154E+02  0.77759857103E+02  0.67502690413E+01  0.20460488896E+03  0.17300000000E+03 0.  1.
<mgrwt>
<rscale>  2 0.20449351E+03</rscale>
<asrwt>0</asrwt>
<pdfrwt beam="1">  1       21 0.33480891E-01 0.20449351E+03</pdfrwt>
<pdfrwt beam="2">  1       21 0.29586667E-01 0.20449351E+03</pdfrwt>
<totfact> 0.93608474E+04</totfact>
</mgrwt>
</event>
<event>
 4    1  0.4365842E+000  0.1765857E+03  0.7546771E-02  0.1171149E+00
         21   -1    0    0  503  502  0.00000000000E+00  0.00000000000E+00  0.11256804466E+03  0.11256804466E+03  0.00000000000E+00 0.  1.
         21   -1    0    0  501  503 -0.00000000000E+00 -0.00000000000E+00 -0.37734337954E+03  0.37734337954E+03  0.00000000000E+00 0.  1.
          6    1    1    2  501    0  0.11607497731E+02 -0.33448272474E+02 -0.25869862363E+03  0.31322116596E+03  0.17300000000E+03 0.  1.
         -6    1    1    2    0  502 -0.11607497731E+02  0.33448272474E+02 -0.60767112460E+01  0.17669025823E+03  0.17300000000E+03 0.  1.
<mgrwt>
<rscale>  2 0.17658573E+03</rscale>
<asrwt>0</asrwt>
<pdfrwt beam="1">  1       21 0.17318161E-01 0.17658573E+03</pdfrwt>
<pdfrwt beam="2">  1       21 0.58052828E-01 0.17658573E+03</pdfrwt>
<totfact> 0.84393281E+04</totfact>
</mgrwt>
</event>
<event>
 4    1  0.4365842E+000  0.1767547E+03  0.7546771E-02  0.1170981E+00
         21   -1    0    0  503  502  0.00000000000E+00  0.00000000000E+00  0.15542638893E+03  0.15542638893E+03  0.00000000000E+00 0.  1.
         21   -1    0    0  501  503 -0.00000000000E+00 -0.00000000000E+00 -0.26640285944E+03  0.26640285944E+03  0.00000000000E+00 0.  1.
          6    1    1    2  501    0 -0.31344245339E+02  0.18186851760E+02 -0.15998507765E+03  0.23840605773E+03  0.17300000000E+03 0.  1.
         -6    1    1    2    0  502  0.31344245339E+02 -0.18186851760E+02  0.49008607140E+02  0.18342319065E+03  0.17300000000E+03 0.  1.
<mgrwt>
<rscale>  2 0.17675470E+03</rscale>
<asrwt>0</asrwt>
<pdfrwt beam="1">  1       21 0.23911752E-01 0.17675470E+03</pdfrwt>
<pdfrwt beam="2">  1       21 0.40985055E-01 0.17675470E+03</pdfrwt>
<totfact> 0.95118240E+04</totfact>
</mgrwt>
</event>
<event>
 4    1  0.4365842E+000  0.2334740E+03  0.7546771E-02  0.1124218E+00
         21   -1    0    0  501  502  0.00000000000E+00  0.00000000000E+00  0.87133010512E+03  0.87133010512E+03  0.00000000000E+00 0.  1.
         21   -1    0    0  502  503 -0.00000000000E+00 -0.00000000000E+00 -0.67580817762E+02  0.67580817762E+02  0.00000000000E+00 0.  1.
          6    1    1    2  501    0  0.48493409726E+02  0.14909562556E+03  0.52983768316E+03  0.57899748431E+03  0.17300000000E+03 0.  1.
         -6    1    1    2    0  503 -0.48493409726E+02 -0.14909562556E+03  0.27391160420E+03  0.35991343857E+03  0.17300000000E+03 0.  1.
<mgrwt>
<rscale>  2 0.23347402E+03</rscale>
<asrwt>0</asrwt>
<pdfrwt beam="1">  1       21 0.13405078E+00 0.23347402E+03</pdfrwt>
<pdfrwt beam="2">  1       21 0.10397050E-01 0.23347402E+03</pdfrwt>
<totfact> 0.29592257E+04</totfact>
</mgrwt>
</event>
<event>
 4    1  0.4365842E+000  0.2777063E+03  0.7546771E-02  0.1096948E+00
         21   -1    0    0  503  502  0.00000000000E+00  0.00000000000E+00  0.15355323423E+03  0.15355323423E+03  0.00000000000E+00 0.  1.
         21   -1    0    0  501  503 -0.00000000000E+00 -0.00000000000E+00 -0.50226295299E+03  0.50226295299E+03  0.00000000000E+00 0. -1.
          6    1    1    2  501    0 -0.21470129322E+03  0.33092984059E+02 -0.17650302878E+03  0.32905031541E+03  0.17300000000E+03 0. -1.
         -6    1    1    2    0  502  0.21470129322E+03 -0.33092984059E+02 -0.17220668998E+03  0.32676587181E+03  0.17300000000E+03 0. -1.
<mgrwt>
<rscale>  2 0.27770630E+03</rscale>
<asrwt>0</asrwt>
<pdfrwt beam="1">  1       21 0.23623575E-01 0.27770630E+03</pdfrwt>
<pdfrwt beam="2">  1       21 0.77271223E-01 0.27770630E+03</pdfrwt>
<totfact> 0.24040370E+04</totfact>
</mgrwt>
</event>
<event>
 4    1  0.4365842E+000  0.1778841E+03  0.7546771E-02  0.1169867E+00
         21   -1    0    0  503  502  0.00000000000E+00  0.00000000000E+00  0.10233544987E+03  0.10233544987E+03  0.00000000000E+00 0.  1.
         21   -1    0    0  501  503 -0.00000000000E+00 -0.00000000000E+00 -0.45583200195E+03  0.45583200195E+03  0.00000000000E+00 0.  1.
          6    1    1    2  501    0 -0.71390751473E+01 -0.40777186197E+02 -0.33503243588E+03  0.37932766627E+03  0.17300000000E+03 0.  1.
         -6    1    1    2    0  502  0.71390751473E+01  0.40777186197E+02 -0.18464116198E+02  0.17883978555E+03  0.17300000000E+03 0.  1.
<mgrwt>
<rscale>  2 0.17788408E+03</rscale>
<asrwt>0</asrwt>
<pdfrwt beam="1">  1       21 0.15743916E-01 0.17788408E+03</pdfrwt>
<pdfrwt beam="2">  1       21 0.70127999E-01 0.17788408E+03</pdfrwt>
<totfact> 0.66709872E+04</totfact>
</mgrwt>
</event>
<event>
 4    1  0.4365842E+000  0.2052249E+03  0.7546771E-02  0.1145404E+00
         21   -1    0    0  503  502  0.00000000000E+00  0.00000000000E+00  0.29497000223E+03  0.29497000223E+03  0.00000000000E+00 0.  1.
         21   -1    0    0  501  503 -0.00000000000E+00 -0.00000000000E+00 -0.15031417969E+03  0.15031417969E+03  0.00000000000E+00 0.  1.
          6    1    1    2  501    0  0.47310576279E+02  0.99749553256E+02  0.22498719553E+02  0.20645448986E+03  0.17300000000E+03 0.  1.
         -6    1    1    2    0  502 -0.47310576279E+02 -0.99749553256E+02  0.12215710299E+03  0.23882969207E+03  0.17300000000E+03 0.  1.
<mgrwt>
<rscale>  2 0.20522491E+03</rscale>
<asrwt>0</asrwt>
<pdfrwt beam="1">  1       21 0.45380000E-01 0.20522491E+03</pdfrwt>
<pdfrwt beam="2">  1       21 0.23125258E-01 0.20522491E+03</pdfrwt>
<totfact> 0.81377824E+04</totfact>
</mgrwt>
</event>
<event>
 4    1  0.4365842E+000  0.1819350E+03  0.7546771E-02  0.1165943E+00
         21   -1    0    0  501  502  0.00000000000E+00  0.00000000000E+00  0.30733068632E+02  0.30733068632E+02  0.00000000000E+00 0. -1.
         21   -1    0    0  502  503 -0.00000000000E+00 -0.00000000000E+00 -0.11144739111E+04  0.11144739111E+04  0.00000000000E+00 0. -1.
          6    1    1    2  501    0 -0.51827466850E+02  0.22028559498E+02 -0.43690960059E+03  0.47327618030E+03  0.17300000000E+03 0. -1.
         -6    1    1    2    0  503  0.51827466850E+02 -0.22028559498E+02 -0.64683124188E+03  0.67193079943E+03  0.17300000000E+03 0. -1.
<mgrwt>
<rscale>  2 0.18193500E+03</rscale>
<asrwt>0</asrwt>
<pdfrwt beam="1">  1       21 0.47281639E-02 0.18193500E+03</pdfrwt>
<pdfrwt beam="2">  1       21 0.17145754E+00 0.18193500E+03</pdfrwt>
<totfact> 0.62006717E+04</totfact>
</mgrwt>
</event>
<event>
 4    1  0.4365842E+000  0.2011305E+03  0.7546771E-02  0.1148789E+00
         21   -1    0    0  503  502  0.00000000000E+00  0.00000000000E+00  0.42022572973E+03  0.42022572973E+03  0.00000000000E+00 0.  1.
         21   -1    0    0  501  503 -0.00000000000E+00 -0.00000000000E+00 -0.11715706675E+03  0.11715706675E+03  0.00000000000E+00 0.  1.
          6    1    1    2  501    0  0.84630119568E+02  0.57984763961E+02  0.26499591491E+03  0.33268051477E+03  0.17300000000E+03 0.  1.
         -6    1    1    2    0  502 -0.84630119568E+02 -0.57984763961E+02  0.38072748073E+02  0.20470228171E+03  0.17300000000E+03 0.  1.
<mgrwt>
<rscale>  2 0.20113053E+03</rscale>
<asrwt>0</asrwt>
<pdfrwt beam="1">  1       21 0.64650112E-01 0.20113053E+03</pdfrwt>
<pdfrwt beam="2">  1       21 0.18024164E-01 0.20113053E+03</pdfrwt>
<totfact> 0.61515283E+04</totfact>
</mgrwt>
</event>
<event>
 4    1  0.4365842E+000  0.1953777E+03  0.7546771E-02  0.1153698E+00
         21   -1    0    0  501  502  0.00000000000E+00  0.00000000000E+00  0.11174953750E+03  0.11174953750E+03  0.00000000000E+00 0.  1.
         21   -1    0    0  502  503 -0.00000000000E+00 -0.00000000000E+00 -0.67430292403E+03  0.67430292403E+03  0.00000000000E+00 0.  1.
          6    1    1    2  501    0 -0.14477094061E+02 -0.89631798847E+02 -0.52002754246E+01  0.19544689427E+03  0.17300000000E+03 0.  1.
         -6    1    1    2    0  503  0.14477094061E+02  0.89631798847E+02 -0.55735311110E+03  0.59060556726E+03  0.17300000000E+03 0.  1.
<mgrwt>
<rscale>  2 0.19537770E+03</rscale>
<asrwt>0</asrwt>
<pdfrwt beam="1">  1       21 0.17192236E-01 0.19537770E+03</pdfrwt>
<pdfrwt beam="2">  1       21 0.10373891E+00 0.19537770E+03</pdfrwt>
<totfact> 0.22945056E+04</totfact>
</mgrwt>
</event>
<event>
 4    1  0.4365842E+000  0.2143661E+03  0.7546771E-02  0.1138154E+00
         21   -1    0    0  501  502  0.00000000000E+00  0.00000000000E+00  0.18386869884E+03  0.18386869884E+03  0.00000000000E+00 0.  1.
         21   -1    0    0  502  503 -0.00000000000E+00 -0.00000000000E+00 -0.26400645041E+03  0.26400645041E+03  0.00000000000E+00 0.  1.
          6    1    1    2  501    0  0.12657951844E+03  0.11991332134E+01  0.11655037682E+02  0.21468267818E+03  0.17300000000E+03 0.  1.
         -6    1    1    2    0  503 -0.12657951844E+03 -0.11991332134E+01 -0.91792789251E+02  0.23319247108E+03  0.17300000000E+03 0.  1.
<mgrwt>
<rscale>  2 0.21436607E+03</rscale>
<asrwt>0</asrwt>
<pdfrwt beam="1">  1       21 0.28287492E-01 0.21436607E+03</pdfrwt>
<pdfrwt beam="2">  1       21 0.40616376E-01 0.21436607E+03</pdfrwt>
<totfact> 0.69096321E+04</totfact>
</mgrwt>
</event>
<event>
 4    1  0.4365842E+000  0.2205989E+03  0.7546771E-02  0.1133437E+00
         21   -1    0    0  503  502  0.00000000000E+00  0.00000000000E+00  0.90731937292E+02  0.90731937292E+02  0.00000000000E+00 0. -1.
         21   -1    0    0  501  503 -0.00000000000E+00 -0.00000000000E+00 -0.58777923413E+03  0.58777923413E+03  0.00000000000E+00 0.  1.
          6    1    1    2  501    0 -0.18027641216E+02 -0.13568305426E+03 -0.34887740667E+03  0.41277031380E+03  0.17300000000E+03 0.  1.
         -6    1    1    2    0  502  0.18027641216E+02  0.13568305426E+03 -0.14816989017E+03  0.26574085763E+03  0.17300000000E+03 0. -1.
<mgrwt>
<rscale>  2 0.22059893E+03</rscale>
<asrwt>0</asrwt>
<pdfrwt beam="1">  1       21 0.13958760E-01 0.22059893E+03</pdfrwt>
<pdfrwt beam="2">  1       21 0.90427574E-01 0.22059893E+03</pdfrwt>
<totfact> 0.45805190E+04</totfact>
</mgrwt>
</event>
<event>
 4    1  0.4365842E+000  0.2096280E+03  0.7546771E-02  0.1141861E+00
         21   -1    0    0  503  502  0.00000000000E+00  0.00000000000E+00  0.37402256066E+02  0.37402256066E+02  0.00000000000E+00 0. -1.
         21   -1    0    0  501  503 -0.00000000000E+00 -0.00000000000E+00 -0.11782719038E+04  0.11782719038E+04  0.00000000000E+00 0. -1.
          6    1    1    2  501    0 -0.44050352040E+02  0.10988390391E+03 -0.60295180924E+03  0.63835318603E+03  0.17300000000E+03 0. -1.
         -6    1    1    2    0  502  0.44050352040E+02 -0.10988390391E+03 -0.53791783849E+03  0.57732097383E+03  0.17300000000E+03 0. -1.
<mgrwt>
<rscale>  2 0.20962802E+03</rscale>
<asrwt>0</asrwt>
<pdfrwt beam="1">  1       21 0.57541945E-02 0.20962802E+03</pdfrwt>
<pdfrwt beam="2">  1       21 0.18127256E+00 0.20962802E+03</pdfrwt>
<totfact> 0.37368282E+04</totfact>
</mgrwt>
</event>
<event>
 4    1  0.4365842E+000  0.2020693E+03  0.7546771E-02  0.1148005E+00
         21   -1    0    0  503  502  0.00000000000E+00  0.00000000000E+00  0.11674497234E+04  0.11674497234E+04  0.00000000000E+00 0. -1.
         21   -1    0    0  501  503 -0.00000000000E+00 -0.00000000000E+00 -0.54556426639E+02  0.54556426639E+02  0.00000000000E+00 0. -1.
          6    1    1    2  501    0 -0.52226217750E+01 -0.10428679298E+03  0.19039845951E+03  0.27763930621E+03  0.17300000000E+03 0. -1.
         -6    1    1    2    0  502  0.52226217750E+01  0.10428679298E+03  0.92249483728E+03  0.94436684386E+03  0.17300000000E+03 0. -1.
<mgrwt>
<rscale>  2 0.20206932E+03</rscale>
<asrwt>0</asrwt>
<pdfrwt beam="1">  1       21 0.17960763E+00 0.20206932E+03</pdfrwt>
<pdfrwt beam="2">  1       21 0.83932972E-02 0.20206932E+03</pdfrwt>
<totfact> 0.20070448E+04</totfact>
</mgrwt>
</event>
<event>
 4    1  0.4365842E+000  0.1795866E+03  0.7546771E-02  0.1168204E+00
         21   -1    0    0  503  502  0.00000000000E+00  0.00000000000E+00  0.17687220799E+03  0.17687220799E+03  0.00000000000E+00 0.  1.
         21   -1    0    0  501  503 -0.00000000000E+00 -0.00000000000E+00 -0.23508635961E+03  0.23508635961E+03  0.00000000000E+00 0.  1.
          6    1    1    2  501    0  0.43989968838E+02  0.19678210784E+02 -0.12667231473E+03  0.21976629555E+03  0.17300000000E+03 0.  1.
         -6    1    1    2    0  502 -0.43989968838E+02 -0.19678210784E+02  0.68458163117E+02  0.19219227205E+03  0.17300000000E+03 0.  1.
<mgrwt>
<rscale>  2 0.17958661E+03</rscale>
<asrwt>0</asrwt>
<pdfrwt beam="1">  1       21 0.27211109E-01 0.17958661E+03</pdfrwt>
<pdfrwt beam="2">  1       21 0.36167132E-01 0.17958661E+03</pdfrwt>
<totfact> 0.95392277E+04</totfact>
</mgrwt>
</event>
<event>
 4    1  0.4365842E+000  0.2089441E+03  0.7546771E-02  0.1142405E+00
         21   -1    0    0  501  502  0.00000000000E+00  0.00000000000E+00  0.97221145361E+03  0.97221145361E+03  0.00000000000E+00 0. -1.
         21   -1    0    0  502  503 -0.00000000000E+00 -0.00000000000E+00 -0.44964169654E+02  0.44964169654E+02  0.00000000000E+00 0. -1.
          6    1    1    2  501    0 -0.10735800679E+03 -0.46935083670E+02  0.48199455643E+03  0.52533455639E+03  0.17300000000E+03 0. -1.
         -6    1    1    2    0  503  0.10735800679E+03  0.46935083670E+02  0.44525272752E+03  0.49184106688E+03  0.17300000000E+03 0. -1.
<mgrwt>
<rscale>  2 0.20894412E+03</rscale>
<asrwt>0</asrwt>
<pdfrwt beam="1">  1       21 0.14957098E+00 0.20894412E+03</pdfrwt>
<pdfrwt beam="2">  1       21 0.69175653E-02 0.20894412E+03</pdfrwt>
<totfact> 0.46065737E+04</totfact>
</mgrwt>
</event>
<event>
 4    1  0.4365842E+000  0.3037842E+03  0.7546771E-02  0.1083364E+00
         21   -1    0    0  503  502  0.00000000000E+00  0.00000000000E+00  0.74110469364E+03  0.74110469364E+03  0.00000000000E+00 0.  1.
         21   -1    0    0  501  503 -0.00000000000E+00 -0.00000000000E+00 -0.86540803058E+03  0.86540803058E+03  0.00000000000E+00 0. -1.
          6    1    1    2  501    0  0.43965505354E+02  0.24581068377E+03 -0.80537445041E+03  0.86076295418E+03  0.17300000000E+03 0. -1.
         -6    1    1    2    0  502 -0.43965505354E+02 -0.24581068377E+03  0.68107111347E+03  0.74574977004E+03  0.17300000000E+03 0.  1.
<mgrwt>
<rscale>  2 0.30378423E+03</rscale>
<asrwt>0</asrwt>
<pdfrwt beam="1">  1       21 0.11401611E+00 0.30378423E+03</pdfrwt>
<pdfrwt beam="2">  1       21 0.13313970E+00 0.30378423E+03</pdfrwt>
<totfact> 0.21826858E+02</totfact>
</mgrwt>
</event>
<event>
 4    1  0.4365842E+000  0.2379503E+03  0.7546771E-02  0.1121166E+00
         21   -1    0    0  503  502  0.00000000000E+00  0.00000000000E+00  0.32990401340E+03  0.32990401340E+03  0.00000000000E+00 0.  1.
         21   -1    0    0  501  503 -0.00000000000E+00 -0.00000000000E+00 -0.28701879121E+03  0.28701879121E+03  0.00000000000E+00 0. -1.
          6    1    1    2  501    0 -0.16109931396E+03  0.27173130233E+02 -0.17414147238E+03  0.29486542755E+03  0.17300000000E+03 0. -1.
         -6    1    1    2    0  502  0.16109931396E+03 -0.27173130233E+02  0.21702669457E+03  0.32205737706E+03  0.17300000000E+03 0.  1.
<mgrwt>
<rscale>  2 0.23795035E+03</rscale>
<asrwt>0</asrwt>
<pdfrwt beam="1">  1       21 0.50754464E-01 0.23795035E+03</pdfrwt>
<pdfrwt beam="2">  1       21 0.44156737E-01 0.23795035E+03</pdfrwt>
<totfact> 0.17726056E+04</totfact>
</mgrwt>
</event>
<event>
 4    1  0.4365842E+000  0.2380949E+03  0.7546771E-02  0.1121068E+00
         21   -1    0    0  503  502  0.00000000000E+00  0.00000000000E+00  0.55987567460E+03  0.55987567460E+03  0.00000000000E+00 0. -1.
         21   -1    0    0  501  503 -0.00000000000E+00 -0.00000000000E+00 -0.13340871166E+03  0.13340871166E+03  0.00000000000E+00 0. -1.
          6    1    1    2  501    0  0.15266469222E+03 -0.58768055391E+02  0.43050089912E+02  0.24195558027E+03  0.17300000000E+03 0. -1.
         -6    1    1    2    0  502 -0.15266469222E+03  0.58768055391E+02  0.38341687303E+03  0.45132880598E+03  0.17300000000E+03 0. -1.
<mgrwt>
<rscale>  2 0.23809492E+03</rscale>
<asrwt>0</asrwt>
<pdfrwt beam="1">  1       21 0.86134718E-01 0.23809492E+03</pdfrwt>
<pdfrwt beam="2">  1       21 0.20524417E-01 0.23809492E+03</pdfrwt>
<totfact> 0.24937038E+04</totfact>
</mgrwt>
</event>
<event>
 4    1  0.4365842E+000  0.1833280E+03  0.7546771E-02  0.1164620E+00
         21   -1    0    0  503  502  0.00000000000E+00  0.00000000000E+00  0.22819711263E+02  0.22819711263E+02  0.00000000000E+00 0. -1.
         21   -1    0    0  501  503 -0.00000000000E+00 -0.00000000000E+00 -0.14894115131E+04  0.14894115131E+04  0.00000000000E+00 0. -1.
          6    1    1    2  501    0  0.33072327038E+02 -0.50856536473E+02 -0.65347508133E+03  0.67870379993E+03  0.17300000000E+03 0. -1.
         -6    1    1    2    0  502 -0.33072327038E+02  0.50856536473E+02 -0.81311672049E+03  0.83352742442E+03  0.17300000000E+03 0. -1.
<mgrwt>
<rscale>  2 0.18332803E+03</rscale>
<asrwt>0</asrwt>
<pdfrwt beam="1">  1       21 0.35107252E-02 0.18332803E+03</pdfrwt>
<pdfrwt beam="2">  1       21 0.22914021E+00 0.18332803E+03</pdfrwt>
<totfact> 0.43432609E+04</totfact>
</mgrwt>
</event>
<event>
 4    1  0.4365842E+000  0.1790876E+03  0.7546771E-02  0.1168689E+00
         21   -1    0    0  503  502  0.00000000000E+00  0.00000000000E+00  0.17358501424E+03  0.17358501424E+03  0.00000000000E+00 0.  1.
         21   -1    0    0  501  503 -0.00000000000E+00 -0.00000000000E+00 -0.38171769766E+03  0.38171769766E+03  0.00000000000E+00 0.  1.
          6    1    1    2  501    0 -0.73639444012E+01  0.45706988642E+02  0.95372671834E+02  0.20289973637E+03  0.17300000000E+03 0.  1.
         -6    1    1    2    0  502  0.73639444012E+01 -0.45706988642E+02 -0.30350535526E+03  0.35240297553E+03  0.17300000000E+03 0.  1.
<mgrwt>
<rscale>  2 0.17908757E+03</rscale>
<asrwt>0</asrwt>
<pdfrwt beam="1">  1       21 0.26705387E-01 0.17908757E+03</pdfrwt>
<pdfrwt beam="2">  1       21 0.58725798E-01 0.17908757E+03</pdfrwt>
<totfact> 0.36470820E+04</totfact>
</mgrwt>
</event>
<event>
 4    1  0.4365842E+000  0.2877953E+03  0.7546771E-02  0.1091506E+00
         21   -1    0    0  501  502  0.00000000000E+00  0.00000000000E+00  0.11103813655E+04  0.11103813655E+04  0.00000000000E+00 0. -1.
         21   -1    0    0  502  503 -0.00000000000E+00 -0.00000000000E+00 -0.99346003308E+02  0.99346003308E+02  0.00000000000E+00 0. -1.
          6    1    1    2  501    0  0.17636761990E+03  0.14761977001E+03  0.80744370866E+03  0.85719978798E+03  0.17300000000E+03 0. -1.
         -6    1    1    2    0  503 -0.17636761990E+03 -0.14761977001E+03  0.20359165348E+03  0.35252758079E+03  0.17300000000E+03 0. -1.
<mgrwt>
<rscale>  2 0.28779530E+03</rscale>
<asrwt>0</asrwt>
<pdfrwt beam="1">  1       21 0.17082789E+00 0.28779530E+03</pdfrwt>
<pdfrwt beam="2">  1       21 0.15284001E-01 0.28779530E+03</pdfrwt>
<totfact> 0.74776060E+03</totfact>
</mgrwt>
</event>
<event>
 4    1  0.4365842E+000  0.2534325E+03  0.7546771E-02  0.1111155E+00
         21   -1    0    0  501  502  0.00000000000E+00  0.00000000000E+00  0.13261749981E+03  0.13261749981E+03  0.00000000000E+00 0.  1.
         21   -1    0    0  502  503 -0.00000000000E+00 -0.00000000000E+00 -0.48883063520E+03  0.48883063520E+03  0.00000000000E+00 0.  1.
          6    1    1    2  501    0  0.86683355263E+02  0.16366130636E+03 -0.20798644252E+03  0.32785116677E+03  0.17300000000E+03 0.  1.
         -6    1    1    2    0  503 -0.86683355263E+02 -0.16366130636E+03 -0.14822669287E+03  0.29359696824E+03  0.17300000000E+03 0.  1.
<mgrwt>
<rscale>  2 0.25343249E+03</rscale>
<asrwt>0</asrwt>
<pdfrwt beam="1">  1       21 0.20402692E-01 0.25343249E+03</pdfrwt>
<pdfrwt beam="2">  1       21 0.75204713E-01 0.25343249E+03</pdfrwt>
<totfact> 0.34112029E+04</totfact>
</mgrwt>
</event>
<event>
 4    1  0.4365842E+000  0.1731511E+03  0.7546771E-02  0.1174601E+00
         21   -1    0    0  501  502  0.00000000000E+00  0.00000000000E+00  0.10379560770E+03  0.10379560770E+03  0.00000000000E+00 0. -1.
         21   -1    0    0  502  503 -0.00000000000E+00 -0.00000000000E+00 -0.36577981213E+03  0.36577981213E+03  0.00000000000E+00 0. -1.
          6    1    1    2  501    0  0.70819007439E+01  0.14688650380E+01 -0.23317270891E+02  0.17471406928E+03  0.17300000000E+03 0. -1.
         -6    1    1    2    0  503 -0.70819007439E+01 -0.14688650380E+01 -0.23866693354E+03  0.29486135055E+03  0.17300000000E+03 0. -1.
<mgrwt>
<rscale>  2 0.17315112E+03</rscale>
<asrwt>0</asrwt>
<pdfrwt beam="1">  1       21 0.15968555E-01 0.17315112E+03</pdfrwt>
<pdfrwt beam="2">  1       21 0.56273818E-01 0.17315112E+03</pdfrwt>
<totfact> 0.10475628E+05</totfact>
</mgrwt>
</event>
<event>
 4    1  0.4365842E+000  0.1753973E+03  0.7546771E-02  0.1172333E+00
         21   -1    0    0  503  502  0.00000000000E+00  0.00000000000E+00  0.33985854863E+03  0.33985854863E+03  0.00000000000E+00 0. -1.
         21   -1    0    0  501  503 -0.00000000000E+00 -0.00000000000E+00 -0.14480569476E+03  0.14480569476E+03  0.00000000000E+00 0. -1.
          6    1    1    2  501    0  0.21966108176E+02  0.18780728071E+02 -0.50847694015E+02  0.18261903965E+03  0.17300000000E+03 0.  1.
         -6    1    1    2    0  502 -0.21966108176E+02 -0.18780728071E+02  0.24590054788E+03  0.30204520374E+03  0.17300000000E+03 0.  1.
<mgrwt>
<rscale>  2 0.17539734E+03</rscale>
<asrwt>0</asrwt>
<pdfrwt beam="1">  1       21 0.52285930E-01 0.17539734E+03</pdfrwt>
<pdfrwt beam="2">  1       21 0.22277799E-01 0.17539734E+03</pdfrwt>
<totfact> 0.65916696E+04</totfact>
</mgrwt>
</event>
<event>
 4    1  0.4365842E+000  0.1961769E+03  0.7546771E-02  0.1153005E+00
         21   -1    0    0  503  502  0.00000000000E+00  0.00000000000E+00  0.65761466238E+03  0.65761466238E+03  0.00000000000E+00 0.  1.
         21   -1    0    0  501  503 -0.00000000000E+00 -0.00000000000E+00 -0.72350377220E+02  0.72350377220E+02  0.00000000000E+00 0. -1.
          6    1    1    2  501    0 -0.14047628950E+02 -0.91427773856E+02  0.13307121004E+03  0.23705130384E+03  0.17300000000E+03 0. -1.
         -6    1    1    2    0  502  0.14047628950E+02  0.91427773856E+02  0.45219307513E+03  0.49291373576E+03  0.17300000000E+03 0.  1.
<mgrwt>
<rscale>  2 0.19617689E+03</rscale>
<asrwt>0</asrwt>
<pdfrwt beam="1">  1       21 0.10117148E+00 0.19617689E+03</pdfrwt>
<pdfrwt beam="2">  1       21 0.11130828E-01 0.19617689E+03</pdfrwt>
<totfact> 0.53491703E+04</totfact>
</mgrwt>
</event>
<event>
 4    1  0.4365842E+000  0.2669591E+03  0.7546771E-02  0.1103033E+00
         21   -1    0    0  501  502  0.00000000000E+00  0.00000000000E+00  0.90025363553E+03  0.90025363553E+03  0.00000000000E+00 0. -1.
         21   -1    0    0  502  503 -0.00000000000E+00 -0.00000000000E+00 -0.79587780500E+02  0.79587780500E+02  0.00000000000E+00 0.  1.
          6    1    1    2  501    0 -0.79673413072E+02  0.18705692879E+03  0.37455828030E+03  0.45995766403E+03  0.17300000000E+03 0.  1.
         -6    1    1    2    0  503  0.79673413072E+02 -0.18705692879E+03  0.44610757473E+03  0.51988375200E+03  0.17300000000E+03 0.  1.
<mgrwt>
<rscale>  2 0.26695907E+03</rscale>
<asrwt>0</asrwt>
<pdfrwt beam="1">  1       21 0.13850055E+00 0.26695907E+03</pdfrwt>
<pdfrwt beam="2">  1       21 0.12244275E-01 0.26695907E+03</pdfrwt>
<totfact> 0.19950780E+04</totfact>
</mgrwt>
</event>
<event>
 4    1  0.4365842E+000  0.2521005E+03  0.7546771E-02  0.1111985E+00
         21   -1    0    0  503  502  0.00000000000E+00  0.00000000000E+00  0.93547586177E+02  0.93547586177E+02  0.00000000000E+00 0. -1.
         21   -1    0    0  501  503 -0.00000000000E+00 -0.00000000000E+00 -0.83329705815E+03  0.83329705815E+03  0.00000000000E+00 0. -1.
          6    1    1    2  501    0  0.14454027305E+03 -0.11284398852E+03 -0.56904106557E+03  0.62238443954E+03  0.17300000000E+03 0. -1.
         -6    1    1    2    0  502 -0.14454027305E+03  0.11284398852E+03 -0.17070840640E+03  0.30446020478E+03  0.17300000000E+03 0. -1.
<mgrwt>
<rscale>  2 0.25210049E+03</rscale>
<asrwt>0</asrwt>
<pdfrwt beam="1">  1       21 0.14391937E-01 0.25210049E+03</pdfrwt>
<pdfrwt beam="2">  1       21 0.12819954E+00 0.25210049E+03</pdfrwt>
<totfact> 0.18278673E+04</totfact>
</mgrwt>
</event>
<event>
 4    1  0.4365842E+000  0.2508457E+03  0.7546771E-02  0.1112771E+00
         21   -1    0    0  501  502  0.00000000000E+00  0.00000000000E+00  0.12512293426E+04  0.12512293426E+04  0.00000000000E+00 0. -1.
         21   -1    0    0  502  503 -0.00000000000E+00 -0.00000000000E+00 -0.53348777219E+02  0.53348777219E+02  0.00000000000E+00 0.  1.
          6    1    1    2  501    0  0.39447833392E+02  0.17730893292E+03  0.75514474879E+03  0.79571802849E+03  0.17300000000E+03 0. -1.
         -6    1    1    2    0  503 -0.39447833392E+02 -0.17730893292E+03  0.44273581663E+03  0.50886009136E+03  0.17300000000E+03 0.  1.
<mgrwt>
<rscale>  2 0.25084575E+03</rscale>
<asrwt>0</asrwt>
<pdfrwt beam="1">  1       21 0.19249680E+00 0.25084575E+03</pdfrwt>
<pdfrwt beam="2">  1       21 0.82075051E-02 0.25084575E+03</pdfrwt>
<totfact> 0.16557435E+04</totfact>
</mgrwt>
</event>
<event>
 4    1  0.4365842E+000  0.1772062E+03  0.7546771E-02  0.1170535E+00
         21   -1    0    0  501  502  0.00000000000E+00  0.00000000000E+00  0.13619591789E+03  0.13619591789E+03  0.00000000000E+00 0. -1.
         21   -1    0    0  502  503 -0.00000000000E+00 -0.00000000000E+00 -0.24251633851E+03  0.24251633851E+03  0.00000000000E+00 0. -1.
          6    1    1    2  501    0 -0.37499634750E+02 -0.81735450163E+01 -0.11124848995E+02  0.17755503854E+03  0.17300000000E+03 0.  1.
         -6    1    1    2    0  503  0.37499634750E+02  0.81735450163E+01 -0.95195571622E+02  0.20115721787E+03  0.17300000000E+03 0.  1.
<mgrwt>
<rscale>  2 0.17720618E+03</rscale>
<asrwt>0</asrwt>
<pdfrwt beam="1">  1       21 0.20953218E-01 0.17720618E+03</pdfrwt>
<pdfrwt beam="2">  1       21 0.37310206E-01 0.17720618E+03</pdfrwt>
<totfact> 0.14731504E+05</totfact>
</mgrwt>
</event>
<event>
 4    1  0.4365842E+000  0.1794639E+03  0.7546771E-02  0.1168323E+00
         21   -1    0    0  503  502  0.00000000000E+00  0.00000000000E+00  0.11125593333E+03  0.11125593333E+03  0.00000000000E+00 0. -1.
         21   -1    0    0  501  503 -0.00000000000E+00 -0.00000000000E+00 -0.29059853903E+03  0.29059853903E+03  0.00000000000E+00 0. -1.
          6    1    1    2  501    0  0.30881773848E+02  0.36395335192E+02 -0.10209002266E+03  0.20646955491E+03  0.17300000000E+03 0.  1.
         -6    1    1    2    0  502 -0.30881773848E+02 -0.36395335192E+02 -0.77252583041E+02  0.19538491745E+03  0.17300000000E+03 0.  1.
<mgrwt>
<rscale>  2 0.17946394E+03</rscale>
<asrwt>0</asrwt>
<pdfrwt beam="1">  1       21 0.17116298E-01 0.17946394E+03</pdfrwt>
<pdfrwt beam="2">  1       21 0.44707467E-01 0.17946394E+03</pdfrwt>
<totfact> 0.14859196E+05</totfact>
</mgrwt>
</event>
<event>
 4    1  0.4365842E+000  0.2314150E+03  0.7546771E-02  0.1125648E+00
         21   -1    0    0  503  502  0.00000000000E+00  0.00000000000E+00  0.54375460886E+02  0.54375460886E+02  0.00000000000E+00 0. -1.
         21   -1    0    0  501  503 -0.00000000000E+00 -0.00000000000E+00 -0.13723327987E+04  0.13723327987E+04  0.00000000000E+00 0.  1.
          6    1    1    2  501    0 -0.21577091353E+02 -0.15217857614E+03 -0.10380222327E+04  0.10635050754E+04  0.17300000000E+03 0.  1.
         -6    1    1    2    0  502  0.21577091353E+02  0.15217857614E+03 -0.27993510517E+03  0.36320318420E+03  0.17300000000E+03 0. -1.
<mgrwt>
<rscale>  2 0.23141497E+03</rscale>
<asrwt>0</asrwt>
<pdfrwt beam="1">  1       21 0.83654559E-02 0.23141497E+03</pdfrwt>
<pdfrwt beam="2">  1       21 0.21112811E+00 0.23141497E+03</pdfrwt>
<totfact> 0.12291840E+04</totfact>
</mgrwt>
</event>
<event>
 4    1  0.4365842E+000  0.1785150E+03  0.7546771E-02  0.1169248E+00
         21   -1    0    0  503  502  0.00000000000E+00  0.00000000000E+00  0.30154837026E+02  0.30154837026E+02  0.00000000000E+00 0. -1.
         21   -1    0    0  501  503 -0.00000000000E+00 -0.00000000000E+00 -0.12188368198E+04  0.12188368198E+04  0.00000000000E+00 0. -1.
          6    1    1    2  501    0  0.31322218542E+02  0.30944113050E+02 -0.82204158325E+03  0.84120151218E+03  0.17300000000E+03 0. -1.
         -6    1    1    2    0  502 -0.31322218542E+02 -0.30944113050E+02 -0.36664039955E+03  0.40779014467E+03  0.17300000000E+03 0. -1.
<mgrwt>
<rscale>  2 0.17851504E+03</rscale>
<asrwt>0</asrwt>
<pdfrwt beam="1">  1       21 0.46392070E-02 0.17851504E+03</pdfrwt>
<pdfrwt beam="2">  1       21 0.18751330E+00 0.17851504E+03</pdfrwt>
<totfact> 0.49906698E+04</totfact>
</mgrwt>
</event>
<event>
 4    1  0.4365842E+000  0.1818408E+03  0.7546771E-02  0.1166033E+00
         21   -1    0    0  503  502  0.00000000000E+00  0.00000000000E+00  0.11454568513E+04  0.11454568513E+04  0.00000000000E+00 0.  1.
         21   -1    0    0  501  503 -0.00000000000E+00 -0.00000000000E+00 -0.49791238590E+02  0.49791238590E+02  0.00000000000E+00 0.  1.
          6    1    1    2  501    0  0.53880238648E+02 -0.15297275056E+02  0.16041929399E+03  0.24248801336E+03  0.17300000000E+03 0.  1.
         -6    1    1    2    0  502 -0.53880238648E+02  0.15297275056E+02  0.93524631874E+03  0.95276007654E+03  0.17300000000E+03 0.  1.
<mgrwt>
<rscale>  2 0.18184083E+03</rscale>
<asrwt>0</asrwt>
<pdfrwt beam="1">  1       21 0.17622411E+00 0.18184083E+03</pdfrwt>
<pdfrwt beam="2">  1       21 0.76601914E-02 0.18184083E+03</pdfrwt>
<totfact> 0.25179725E+04</totfact>
</mgrwt>
</event>
<event>
 4    1  0.4365842E+000  0.1910577E+03  0.7546771E-02  0.1157511E+00
         21   -1    0    0  501  502  0.00000000000E+00  0.00000000000E+00  0.17233317308E+03  0.17233317308E+03  0.00000000000E+00 0. -1.
         21   -1    0    0  502  503 -0.00000000000E+00 -0.00000000000E+00 -0.36114932557E+03  0.36114932557E+03  0.00000000000E+00 0. -1.
          6    1    1    2  501    0 -0.44135549919E+02  0.68015428067E+02 -0.26593176864E+03  0.32744885218E+03  0.17300000000E+03 0. -1.
         -6    1    1    2    0  503  0.44135549919E+02 -0.68015428067E+02  0.77115616152E+02  0.20603364647E+03  0.17300000000E+03 0. -1.
<mgrwt>
<rscale>  2 0.19105770E+03</rscale>
<asrwt>0</asrwt>
<pdfrwt beam="1">  1       21 0.26512796E-01 0.19105770E+03</pdfrwt>
<pdfrwt beam="2">  1       21 0.55561434E-01 0.19105770E+03</pdfrwt>
<totfact> 0.41354126E+04</totfact>
</mgrwt>
</event>
<event>
 4    1  0.4365842E+000  0.1883516E+03  0.7546771E-02  0.1159957E+00
         21   -1    0    0  503  502  0.00000000000E+00  0.00000000000E+00  0.51692824624E+03  0.51692824624E+03  0.00000000000E+00 0.  1.
         21   -1    0    0  501  503 -0.00000000000E+00 -0.00000000000E+00 -0.68661877087E+02  0.68661877087E+02  0.00000000000E+00 0. -1.
          6    1    1    2  501    0  0.23149726818E+01 -0.74444312235E+02  0.21773491395E+03  0.28789721686E+03  0.17300000000E+03 0. -1.
         -6    1    1    2    0  502 -0.23149726818E+01  0.74444312235E+02  0.23053145520E+03  0.29769290647E+03  0.17300000000E+03 0.  1.
<mgrwt>
<rscale>  2 0.18835157E+03</rscale>
<asrwt>0</asrwt>
<pdfrwt beam="1">  1       21 0.79527420E-01 0.18835157E+03</pdfrwt>
<pdfrwt beam="2">  1       21 0.10563366E-01 0.18835157E+03</pdfrwt>
<totfact> 0.10282358E+05</totfact>
</mgrwt>
</event>
<event>
 4    1  0.4365842E+000  0.2291600E+03  0.7546771E-02  0.1127232E+00
         21   -1    0    0  503  502  0.00000000000E+00  0.00000000000E+00  0.56507445170E+03  0.56507445170E+03  0.00000000000E+00 0. -1.
         21   -1    0    0  501  503 -0.00000000000E+00 -0.00000000000E+00 -0.11086662961E+03  0.11086662961E+03  0.00000000000E+00 0.  1.
          6    1    1    2  501    0  0.12774973737E+03  0.79153628620E+02  0.36303150508E+03  0.42930894004E+03  0.17300000000E+03 0. -1.
         -6    1    1    2    0  502 -0.12774973737E+03 -0.79153628620E+02  0.91176317021E+02  0.24663214127E+03  0.17300000000E+03 0.  1.
<mgrwt>
<rscale>  2 0.22915997E+03</rscale>
<asrwt>0</asrwt>
<pdfrwt beam="1">  1       21 0.86934529E-01 0.22915997E+03</pdfrwt>
<pdfrwt beam="2">  1       21 0.17056405E-01 0.22915997E+03</pdfrwt>
<totfact> 0.34621279E+04</totfact>
</mgrwt>
</event>
<event>
 4    1  0.4365842E+000  0.2654000E+03  0.7546771E-02  0.1103942E+00
         21   -1    0    0  501  502  0.00000000000E+00  0.00000000000E+00  0.33737410819E+03  0.33737410819E+03  0.00000000000E+00 0. -1.
         21   -1    0    0  502  503 -0.00000000000E+00 -0.00000000000E+00 -0.21640252835E+03  0.21640252835E+03  0.00000000000E+00 0.  1.
          6    1    1    2  501    0 -0.16293339128E+03 -0.11815607473E+03  0.11245039735E+03  0.28823989983E+03  0.17300000000E+03 0. -1.
         -6    1    1    2    0  503  0.16293339128E+03  0.11815607473E+03  0.85211824923E+01  0.26553673671E+03  0.17300000000E+03 0.  1.
<mgrwt>
<rscale>  2 0.26539998E+03</rscale>
<asrwt>0</asrwt>
<pdfrwt beam="1">  1       21 0.51903709E-01 0.26539998E+03</pdfrwt>
<pdfrwt beam="2">  1       21 0.33292696E-01 0.26539998E+03</pdfrwt>
<totfact> 0.29552332E+04</totfact>
</mgrwt>
</event>
<event>
 4    1  0.4365842E+000  0.2021971E+03  0.7546771E-02  0.1147898E+00
         21   -1    0    0  501  502  0.00000000000E+00  0.00000000000E+00  0.14574687205E+03  0.14574687205E+03  0.00000000000E+00 0.  1.
         21   -1    0    0  502  503 -0.00000000000E+00 -0.00000000000E+00 -0.51507601325E+03  0.51507601325E+03  0.00000000000E+00 0. -1.
          6    1    1    2  501    0  0.10466039897E+03 -0.93119947662E+00  0.38307577794E+02  0.20579391818E+03  0.17300000000E+03 0.  1.
         -6    1    1    2    0  503 -0.10466039897E+03  0.93119947662E+00 -0.40763671899E+03  0.45502896711E+03  0.17300000000E+03 0. -1.
<mgrwt>
<rscale>  2 0.20219710E+03</rscale>
<asrwt>0</asrwt>
<pdfrwt beam="1">  1       21 0.22422596E-01 0.20219710E+03</pdfrwt>
<pdfrwt beam="2">  1       21 0.79242462E-01 0.20219710E+03</pdfrwt>
<totfact> 0.26024854E+04</totfact>
</mgrwt>
</event>
<event>
 4    1  0.4365842E+000  0.2244620E+03  0.7546771E-02  0.1130599E+00
         21   -1    0    0  503  502  0.00000000000E+00  0.00000000000E+00  0.17171090103E+03  0.17171090103E+03  0.00000000000E+00 0.  1.
         21   -1    0    0  501  503 -0.00000000000E+00 -0.00000000000E+00 -0.46511873769E+03  0.46511873769E+03  0.00000000000E+00 0.  1.
          6    1    1    2  501    0 -0.14082295734E+03  0.24961818297E+02 -0.34016628133E+03  0.40754913402E+03  0.17300000000E+03 0.  1.
         -6    1    1    2    0  502  0.14082295734E+03 -0.24961818297E+02  0.46758444671E+02  0.22928050470E+03  0.17300000000E+03 0.  1.
<mgrwt>
<rscale>  2 0.22446202E+03</rscale>
<asrwt>0</asrwt>
<pdfrwt beam="1">  1       21 0.26417062E-01 0.22446202E+03</pdfrwt>
<pdfrwt beam="2">  1       21 0.71556729E-01 0.22446202E+03</pdfrwt>
<totfact> 0.23629650E+04</totfact>
</mgrwt>
</event>
<event>
 4    1  0.4365842E+000  0.1844920E+03  0.7546771E-02  0.1163525E+00
         21   -1    0    0  503  502  0.00000000000E+00  0.00000000000E+00  0.26208128561E+03  0.26208128561E+03  0.00000000000E+00 0.  1.
         21   -1    0    0  501  503 -0.00000000000E+00 -0.00000000000E+00 -0.21980531371E+03  0.21980531371E+03  0.00000000000E+00 0.  1.
          6    1    1    2  501    0 -0.60872027416E+02  0.20072491119E+02 -0.13298002863E+03  0.22742250688E+03  0.17300000000E+03 0.  1.
         -6    1    1    2    0  502  0.60872027416E+02 -0.20072491119E+02  0.17525600053E+03  0.25446409244E+03  0.17300000000E+03 0.  1.
<mgrwt>
<rscale>  2 0.18449203E+03</rscale>
<asrwt>0</asrwt>
<pdfrwt beam="1">  1       21 0.40320198E-01 0.18449203E+03</pdfrwt>
<pdfrwt beam="2">  1       21 0.33816202E-01 0.18449203E+03</pdfrwt>
<totfact> 0.50123644E+04</totfact>
</mgrwt>
</event>
<event>
 4    1  0.4365842E+000  0.2337484E+03  0.7546771E-02  0.1124029E+00
         21   -1    0    0  501  502  0.00000000000E+00  0.00000000000E+00  0.14726856960E+03  0.14726856960E+03  0.00000000000E+00 0. -1.
         21   -1    0    0  502  503 -0.00000000000E+00 -0.00000000000E+00 -0.37250261218E+03  0.37250261218E+03  0.00000000000E+00 0.  1.
          6    1    1    2  501    0 -0.15607697596E+03  0.18688793862E+02 -0.96172860141E+02  0.25275979203E+03  0.17300000000E+03 0.  1.
         -6    1    1    2    0  503  0.15607697596E+03 -0.18688793862E+02 -0.12906118244E+03  0.26701138974E+03  0.17300000000E+03 0. -1.
<mgrwt>
<rscale>  2 0.23374835E+03</rscale>
<asrwt>0</asrwt>
<pdfrwt beam="1">  1       21 0.22656703E-01 0.23374835E+03</pdfrwt>
<pdfrwt beam="2">  1       21 0.57308094E-01 0.23374835E+03</pdfrwt>
<totfact> 0.51221514E+04</totfact>
</mgrwt>
</event>
<event>
 4    1  0.4365842E+000  0.1922872E+03  0.7546771E-02  0.1156414E+00
         21   -1    0    0  501  502  0.00000000000E+00  0.00000000000E+00  0.15429066136E+03  0.15429066136E+03  0.00000000000E+00 0. -1.
         21   -1    0    0  502  503 -0.00000000000E+00 -0.00000000000E+00 -0.30479766876E+03  0.30479766876E+03  0.00000000000E+00 0. -1.
          6    1    1    2  501    0  0.34867240991E+02 -0.76352062458E+02  0.30876947948E+02  0.19475047587E+03  0.17300000000E+03 0. -1.
         -6    1    1    2    0  503 -0.34867240991E+02  0.76352062458E+02 -0.18138395535E+03  0.26433785426E+03  0.17300000000E+03 0. -1.
<mgrwt>
<rscale>  2 0.19228719E+03</rscale>
<asrwt>0</asrwt>
<pdfrwt beam="1">  1       21 0.23737025E-01 0.19228719E+03</pdfrwt>
<pdfrwt beam="2">  1       21 0.46891949E-01 0.19228719E+03</pdfrwt>
<totfact> 0.72794024E+04</totfact>
</mgrwt>
</event>
<event>
 4    1  0.4365842E+000  0.2246179E+03  0.7546771E-02  0.1130486E+00
         21   -1    0    0  503  502  0.00000000000E+00  0.00000000000E+00  0.23021244705E+03  0.23021244705E+03  0.00000000000E+00 0.  1.
         21   -1    0    0  501  503 -0.00000000000E+00 -0.00000000000E+00 -0.70333267455E+03  0.70333267455E+03  0.00000000000E+00 0. -1.
          6    1    1    2  501    0  0.11591175977E+03  0.84194110891E+02 -0.62384040914E+03  0.66304603192E+03  0.17300000000E+03 0. -1.
         -6    1    1    2    0  502 -0.11591175977E+03 -0.84194110891E+02  0.15072018164E+03  0.27049908968E+03  0.17300000000E+03 0.  1.
<mgrwt>
<rscale>  2 0.22461786E+03</rscale>
<asrwt>0</asrwt>
<pdfrwt beam="1">  1       21 0.35417299E-01 0.22461786E+03</pdfrwt>
<pdfrwt beam="2">  1       21 0.10820503E+00 0.22461786E+03</pdfrwt>
<totfact> 0.50982377E+03</totfact>
</mgrwt>
</event>
<event>
 4    1  0.4365842E+000  0.2770650E+03  0.7546771E-02  0.1097303E+00
         21   -1    0    0  501  502  0.00000000000E+00  0.00000000000E+00  0.75633544637E+03  0.75633544637E+03  0.00000000000E+00 0. -1.
         21   -1    0    0  502  503 -0.00000000000E+00 -0.00000000000E+00 -0.11303447850E+03  0.11303447850E+03  0.00000000000E+00 0. -1.
          6    1    1    2  501    0  0.54613682225E+02  0.20941196489E+03  0.46053164871E+03  0.53745178834E+03  0.17300000000E+03 0. -1.
         -6    1    1    2    0  503 -0.54613682225E+02 -0.20941196489E+03  0.18276931916E+03  0.33191813652E+03  0.17300000000E+03 0. -1.
<mgrwt>
<rscale>  2 0.27706502E+03</rscale>
<asrwt>0</asrwt>
<pdfrwt beam="1">  1       21 0.11635930E+00 0.27706502E+03</pdfrwt>
<pdfrwt beam="2">  1       21 0.17389920E-01 0.27706502E+03</pdfrwt>
<totfact> 0.16250715E+04</totfact>
</mgrwt>
</event>
<event>
 4    1  0.4365842E+000  0.2048208E+03  0.7546771E-02  0.1145734E+00
         21   -1    0    0  501  502  0.00000000000E+00  0.00000000000E+00  0.10675252371E+04  0.10675252371E+04  0.00000000000E+00 0. -1.
         21   -1    0    0  502  503 -0.00000000000E+00 -0.00000000000E+00 -0.69555054570E+02  0.69555054570E+02  0.00000000000E+00 0. -1.
          6    1    1    2  501    0 -0.56952894765E+00 -0.10964603874E+03  0.87396699118E+03  0.89764685698E+03  0.17300000000E+03 0. -1.
         -6    1    1    2    0  503  0.56952894765E+00  0.10964603874E+03  0.12400319132E+03  0.23943343466E+03  0.17300000000E+03 0. -1.
<mgrwt>
<rscale>  2 0.20482084E+03</rscale>
<asrwt>0</asrwt>
<pdfrwt beam="1">  1       21 0.16423464E+00 0.20482084E+03</pdfrwt>
<pdfrwt beam="2">  1       21 0.10700778E-01 0.20482084E+03</pdfrwt>
<totfact> 0.16732238E+04</totfact>
</mgrwt>
</event>
<event>
 4    1  0.4365842E+000  0.3118951E+03  0.7546771E-02  0.1079441E+00
         21   -1    0    0  501  502  0.00000000000E+00  0.00000000000E+00  0.53762577583E+03  0.53762577583E+03  0.00000000000E+00 0.  1.
         21   -1    0    0  502  503 -0.00000000000E+00 -0.00000000000E+00 -0.49134535233E+03  0.49134535233E+03  0.00000000000E+00 0.  1.
          6    1    1    2  501    0 -0.55507752643E+02  0.25351221470E+03  0.43206520740E+03  0.53287793823E+03  0.17300000000E+03 0.  1.
         -6    1    1    2    0  503  0.55507752643E+02 -0.25351221470E+03 -0.38578478390E+03  0.49609318993E+03  0.17300000000E+03 0.  1.
<mgrwt>
<rscale>  2 0.31189510E+03</rscale>
<asrwt>0</asrwt>
<pdfrwt beam="1">  1       21 0.82711658E-01 0.31189510E+03</pdfrwt>
<pdfrwt beam="2">  1       21 0.75591593E-01 0.31189510E+03</pdfrwt>
<totfact> 0.18277629E+03</totfact>
</mgrwt>
</event>
<event>
 4    1  0.4365842E+000  0.1814881E+03  0.7546771E-02  0.1166371E+00
         21   -1    0    0  503  502  0.00000000000E+00  0.00000000000E+00  0.13606186970E+03  0.13606186970E+03  0.00000000000E+00 0.  1.
         21   -1    0    0  501  503 -0.00000000000E+00 -0.00000000000E+00 -0.24217855164E+03  0.24217855164E+03  0.00000000000E+00 0.  1.
          6    1    1    2  501    0 -0.10061679057E+02  0.53923135661E+02 -0.56861363180E+02  0.19018716194E+03  0.17300000000E+03 0. -1.
         -6    1    1    2    0  502  0.10061679057E+02 -0.53923135661E+02 -0.49255318765E+02  0.18805325940E+03  0.17300000000E+03 0. -1.
<mgrwt>
<rscale>  2 0.18148813E+03</rscale>
<asrwt>0</asrwt>
<pdfrwt beam="1">  1       21 0.20932596E-01 0.18148813E+03</pdfrwt>
<pdfrwt beam="2">  1       21 0.37258238E-01 0.18148813E+03</pdfrwt>
<totfact> 0.14778899E+05</totfact>
</mgrwt>
</event>
<event>
 4    1  0.4365842E+000  0.1930662E+03  0.7546771E-02  0.1155725E+00
         21   -1    0    0  503  502  0.00000000000E+00  0.00000000000E+00  0.22767506089E+03  0.22767506089E+03  0.00000000000E+00 0.  1.
         21   -1    0    0  501  503 -0.00000000000E+00 -0.00000000000E+00 -0.16730586723E+03  0.16730586723E+03  0.00000000000E+00 0. -1.
          6    1    1    2  501    0 -0.40338543425E+02 -0.75619872426E+02  0.12649209316E+01  0.19307035820E+03  0.17300000000E+03 0. -1.
         -6    1    1    2    0  502  0.40338543425E+02  0.75619872426E+02  0.59104272725E+02  0.20191056992E+03  0.17300000000E+03 0. -1.
<mgrwt>
<rscale>  2 0.19306621E+03</rscale>
<asrwt>0</asrwt>
<pdfrwt beam="1">  1       21 0.35026932E-01 0.19306621E+03</pdfrwt>
<pdfrwt beam="2">  1       21 0.25739364E-01 0.19306621E+03</pdfrwt>
<totfact> 0.11255436E+05</totfact>
</mgrwt>
</event>
<event>
 4    1  0.4365842E+000  0.1864629E+03  0.7546771E-02  0.1161691E+00
         21   -1    0    0  503  502  0.00000000000E+00  0.00000000000E+00  0.14518638225E+03  0.14518638225E+03  0.00000000000E+00 0. -1.
         21   -1    0    0  501  503 -0.00000000000E+00 -0.00000000000E+00 -0.80676231286E+03  0.80676231286E+03  0.00000000000E+00 0. -1.
          6    1    1    2  501    0 -0.77220699319E+01 -0.69135848328E+02 -0.72991631776E+03  0.75335663986E+03  0.17300000000E+03 0. -1.
         -6    1    1    2    0  502  0.77220699319E+01  0.69135848328E+02  0.68340387157E+02  0.19859205524E+03  0.17300000000E+03 0. -1.
<mgrwt>
<rscale>  2 0.18646285E+03</rscale>
<asrwt>0</asrwt>
<pdfrwt beam="1">  1       21 0.22336367E-01 0.18646285E+03</pdfrwt>
<pdfrwt beam="2">  1       21 0.12411728E+00 0.18646285E+03</pdfrwt>
<totfact> 0.91499851E+03</totfact>
</mgrwt>
</event>
<event>
 4    1  0.4365842E+000  0.2287934E+03  0.7546771E-02  0.1127492E+00
         21   -1    0    0  501  502  0.00000000000E+00  0.00000000000E+00  0.68231030707E+03  0.68231030707E+03  0.00000000000E+00 0. -1.
         21   -1    0    0  502  503 -0.00000000000E+00 -0.00000000000E+00 -0.81684664198E+02  0.81684664198E+02  0.00000000000E+00 0.  1.
          6    1    1    2  501    0  0.12874905694E+03  0.76427182777E+02  0.39449346242E+03  0.45603895209E+03  0.17300000000E+03 0. -1.
         -6    1    1    2    0  503 -0.12874905694E+03 -0.76427182777E+02  0.20613218045E+03  0.30795601918E+03  0.17300000000E+03 0.  1.
<mgrwt>
<rscale>  2 0.22879343E+03</rscale>
<asrwt>0</asrwt>
<pdfrwt beam="1">  1       21 0.10497081E+00 0.22879343E+03</pdfrwt>
<pdfrwt beam="2">  1       21 0.12566872E-01 0.22879343E+03</pdfrwt>
<totfact> 0.38758520E+04</totfact>
</mgrwt>
</event>
<event>
 4    1  0.4365842E+000  0.2260390E+03  0.7546771E-02  0.1129459E+00
         21   -1    0    0  503  502  0.00000000000E+00  0.00000000000E+00  0.99007528395E+03  0.99007528395E+03  0.00000000000E+00 0. -1.
         21   -1    0    0  501  503 -0.00000000000E+00 -0.00000000000E+00 -0.37776642933E+03  0.37776642933E+03  0.00000000000E+00 0.  1.
          6    1    1    2  501    0  0.11286330800E+03 -0.91795876651E+02 -0.32933736771E+03  0.39944550446E+03  0.17300000000E+03 0.  1.
         -6    1    1    2    0  502 -0.11286330800E+03  0.91795876651E+02  0.94164622232E+03  0.96839620883E+03  0.17300000000E+03 0. -1.
<mgrwt>
<rscale>  2 0.22603896E+03</rscale>
<asrwt>0</asrwt>
<pdfrwt beam="1">  1       21 0.15231927E+00 0.22603896E+03</pdfrwt>
<pdfrwt beam="2">  1       21 0.58117912E-01 0.22603896E+03</pdfrwt>
<totfact> 0.76960888E+02</totfact>
</mgrwt>
</event>
<event>
 4    1  0.4365842E+000  0.1776546E+03  0.7546771E-02  0.1170092E+00
         21   -1    0    0  501  502  0.00000000000E+00  0.00000000000E+00  0.19632173177E+03  0.19632173177E+03  0.00000000000E+00 0. -1.
         21   -1    0    0  502  503 -0.00000000000E+00 -0.00000000000E+00 -0.19121761197E+03  0.19121761197E+03  0.00000000000E+00 0. -1.
          6    1    1    2  501    0  0.30026183032E+02 -0.27029066427E+02  0.79882958996E+02  0.19478816503E+03  0.17300000000E+03 0. -1.
         -6    1    1    2    0  503 -0.30026183032E+02  0.27029066427E+02 -0.74778839198E+02  0.19275117870E+03  0.17300000000E+03 0. -1.
<mgrwt>
<rscale>  2 0.17765456E+03</rscale>
<asrwt>0</asrwt>
<pdfrwt beam="1">  1       21 0.30203343E-01 0.17765456E+03</pdfrwt>
<pdfrwt beam="2">  1       21 0.29418094E-01 0.17765456E+03</pdfrwt>
<totfact> 0.11704714E+05</totfact>
</mgrwt>
</event>
<event>
 4    1  0.4365842E+000  0.2143868E+03  0.7546771E-02  0.1138138E+00
         21   -1    0    0  503  502  0.00000000000E+00  0.00000000000E+00  0.20504978760E+03  0.20504978760E+03  0.00000000000E+00 0.  1.
         21   -1    0    0  501  503 -0.00000000000E+00 -0.00000000000E+00 -0.22415106880E+03  0.22415106880E+03  0.00000000000E+00 0.  1.
          6    1    1    2  501    0  0.82094867682E+02 -0.96400958696E+02 -0.10196967259E+02  0.21462919251E+03  0.17300000000E+03 0.  1.
         -6    1    1    2    0  502 -0.82094867682E+02  0.96400958696E+02 -0.89043139399E+01  0.21457166389E+03  0.17300000000E+03 0.  1.
<mgrwt>
<rscale>  2 0.21438683E+03</rscale>
<asrwt>0</asrwt>
<pdfrwt beam="1">  1       21 0.31546121E-01 0.21438683E+03</pdfrwt>
<pdfrwt beam="2">  1       21 0.34484780E-01 0.21438683E+03</pdfrwt>
<totfact> 0.77559370E+04</totfact>
</mgrwt>
</event>
<event>
 4    1  0.4365842E+000  0.1859080E+03  0.7546771E-02  0.1162205E+00
         21   -1    0    0  503  502  0.00000000000E+00  0.00000000000E+00  0.86169802246E+02  0.86169802246E+02  0.00000000000E+00 0. -1.
         21   -1    0    0  501  503 -0.00000000000E+00 -0.00000000000E+00 -0.43215587707E+03  0.43215587707E+03  0.00000000000E+00 0. -1.
          6    1    1    2  501    0 -0.66161334551E+02  0.15982689905E+02 -0.10350651013E+03  0.21278008883E+03  0.17300000000E+03 0.  1.
         -6    1    1    2    0  502  0.66161334551E+02 -0.15982689905E+02 -0.24247956470E+03  0.30554559048E+03  0.17300000000E+03 0.  1.
<mgrwt>
<rscale>  2 0.18590796E+03</rscale>
<asrwt>0</asrwt>
<pdfrwt beam="1">  1       21 0.13256892E-01 0.18590796E+03</pdfrwt>
<pdfrwt beam="2">  1       21 0.66485521E-01 0.18590796E+03</pdfrwt>
<totfact> 0.10206749E+05</totfact>
</mgrwt>
</event>
<event>
 4    1  0.4365842E+000  0.1939136E+03  0.7546771E-02  0.1154978E+00
         21   -1    0    0  501  502  0.00000000000E+00  0.00000000000E+00  0.11103774513E+03  0.11103774513E+03  0.00000000000E+00 0.  1.
         21   -1    0    0  502  503 -0.00000000000E+00 -0.00000000000E+00 -0.65057532625E+03  0.65057532625E+03  0.00000000000E+00 0. -1.
          6    1    1    2  501    0  0.43178885087E+02 -0.76217194899E+02 -0.60847931243E+01  0.19400902459E+03  0.17300000000E+03 0.  1.
         -6    1    1    2    0  503 -0.43178885087E+02  0.76217194899E+02 -0.53345278799E+03  0.56760404679E+03  0.17300000000E+03 0. -1.
<mgrwt>
<rscale>  2 0.19391358E+03</rscale>
<asrwt>0</asrwt>
<pdfrwt beam="1">  1       21 0.17082730E-01 0.19391358E+03</pdfrwt>
<pdfrwt beam="2">  1       21 0.10008851E+00 0.19391358E+03</pdfrwt>
<totfact> 0.25313145E+04</totfact>
</mgrwt>
</event>
<event>
 4    1  0.4365842E+000  0.3364760E+03  0.7546771E-02  0.1068307E+00
         21   -1    0    0  503  502  0.00000000000E+00  0.00000000000E+00  0.12589280493E+04  0.12589280493E+04  0.00000000000E+00 0. -1.
         21   -1    0    0  501  503 -0.00000000000E+00 -0.00000000000E+00 -0.10573308003E+03  0.10573308003E+03  0.00000000000E+00 0.  1.
          6    1    1    2  501    0 -0.54995088047E+02  0.28330666230E+03  0.31281112238E+03  0.45942020298E+03  0.17300000000E+03 0.  1.
         -6    1    1    2    0  502  0.54995088047E+02 -0.28330666230E+03  0.84038384684E+03  0.90524092630E+03  0.17300000000E+03 0. -1.
<mgrwt>
<rscale>  2 0.33647604E+03</rscale>
<asrwt>0</asrwt>
<pdfrwt beam="1">  1       21 0.19368123E+00 0.33647604E+03</pdfrwt>
<pdfrwt beam="2">  1       21 0.16266629E-01 0.33647604E+03</pdfrwt>
<totfact> 0.45132216E+03</totfact>
</mgrwt>
</event>
<event>
 4    1  0.4365842E+000  0.1736014E+03  0.7546771E-02  0.1174143E+00
         21   -1    0    0  501  502  0.00000000000E+00  0.00000000000E+00  0.40808381952E+03  0.40808381952E+03  0.00000000000E+00 0. -1.
         21   -1    0    0  502  503 -0.00000000000E+00 -0.00000000000E+00 -0.94923548021E+02  0.94923548021E+02  0.00000000000E+00 0. -1.
          6    1    1    2  501    0  0.12522695187E+02 -0.71843967942E+01  0.27507922267E+03  0.32527836110E+03  0.17300000000E+03 0.  1.
         -6    1    1    2    0  503 -0.12522695187E+02  0.71843967942E+01  0.38081048829E+02  0.17772900645E+03  0.17300000000E+03 0.  1.
<mgrwt>
<rscale>  2 0.17360136E+03</rscale>
<asrwt>0</asrwt>
<pdfrwt beam="1">  1       21 0.62782125E-01 0.17360136E+03</pdfrwt>
<pdfrwt beam="2">  1       21 0.14603623E-01 0.17360136E+03</pdfrwt>
<totfact> 0.97515902E+04</totfact>
</mgrwt>
</event>
<event>
 4    1  0.4365842E+000  0.2068304E+03  0.7546771E-02  0.1144101E+00
         21   -1    0    0  501  502  0.00000000000E+00  0.00000000000E+00  0.95232820543E+03  0.95232820543E+03  0.00000000000E+00 0.  1.
         21   -1    0    0  502  503 -0.00000000000E+00 -0.00000000000E+00 -0.45007077505E+02  0.45007077505E+02  0.00000000000E+00 0. -1.
          6    1    1    2  501    0  0.84496299112E+02  0.75565909315E+02  0.43175911734E+03  0.47874290242E+03  0.17300000000E+03 0. -1.
         -6    1    1    2    0  503 -0.84496299112E+02 -0.75565909315E+02  0.47556201058E+03  0.51859238051E+03  0.17300000000E+03 0. -1.
<mgrwt>
<rscale>  2 0.20683044E+03</rscale>
<asrwt>0</asrwt>
<pdfrwt beam="1">  1       21 0.14651202E+00 0.20683044E+03</pdfrwt>
<pdfrwt beam="2">  1       21 0.69241665E-02 0.20683044E+03</pdfrwt>
<totfact> 0.48615629E+04</totfact>
</mgrwt>
</event>
<event>
 4    1  0.4365842E+000  0.1765651E+03  0.7546771E-02  0.1171169E+00
         21   -1    0    0  503  502  0.00000000000E+00  0.00000000000E+00  0.29283059720E+03  0.29283059720E+03  0.00000000000E+00 0. -1.
         21   -1    0    0  501  503 -0.00000000000E+00 -0.00000000000E+00 -0.11475123177E+03  0.11475123177E+03  0.00000000000E+00 0. -1.
          6    1    1    2  501    0 -0.19066512649E+02 -0.29710018624E+02  0.34265806852E+02  0.17985928564E+03  0.17300000000E+03 0. -1.
         -6    1    1    2    0  502  0.19066512649E+02  0.29710018624E+02  0.14381355857E+03  0.22772254333E+03  0.17300000000E+03 0. -1.
<mgrwt>
<rscale>  2 0.17656505E+03</rscale>
<asrwt>0</asrwt>
<pdfrwt beam="1">  1       21 0.45050861E-01 0.17656505E+03</pdfrwt>
<pdfrwt beam="2">  1       21 0.17654036E-01 0.17656505E+03</pdfrwt>
<totfact> 0.13832452E+05</totfact>
</mgrwt>
</event>
<event>
 4    1  0.4365842E+000  0.2111727E+03  0.7546771E-02  0.1140641E+00
         21   -1    0    0  503  502  0.00000000000E+00  0.00000000000E+00  0.15386989125E+03  0.15386989125E+03  0.00000000000E+00 0.  1.
         21   -1    0    0  501  503 -0.00000000000E+00 -0.00000000000E+00 -0.45605340561E+03  0.45605340561E+03  0.00000000000E+00 0.  1.
          6    1    1    2  501    0  0.11570152717E+03 -0.35750181281E+02 -0.33521222509E+03  0.39618323374E+03  0.17300000000E+03 0.  1.
         -6    1    1    2    0  502 -0.11570152717E+03  0.35750181281E+02  0.33028710730E+02  0.21374006312E+03  0.17300000000E+03 0.  1.
<mgrwt>
<rscale>  2 0.21117272E+03</rscale>
<asrwt>0</asrwt>
<pdfrwt beam="1">  1       21 0.23672291E-01 0.21117272E+03</pdfrwt>
<pdfrwt beam="2">  1       21 0.70162062E-01 0.21117272E+03</pdfrwt>
<totfact> 0.30667815E+04</totfact>
</mgrwt>
</event>
<event>
 4    1  0.4365842E+000  0.2171770E+03  0.7546771E-02  0.1136005E+00
         21   -1    0    0  503  502  0.00000000000E+00  0.00000000000E+00  0.97586802831E+02  0.97586802831E+02  0.00000000000E+00 0. -1.
         21   -1    0    0  501  503 -0.00000000000E+00 -0.00000000000E+00 -0.50651563179E+03  0.50651563179E+03  0.00000000000E+00 0.  1.
          6    1    1    2  501    0  0.11926394873E+03 -0.54890464877E+02 -0.26909947660E+03  0.34580396312E+03  0.17300000000E+03 0. -1.
         -6    1    1    2    0  502 -0.11926394873E+03  0.54890464877E+02 -0.13982935236E+03  0.25829847150E+03  0.17300000000E+03 0. -1.
<mgrwt>
<rscale>  2 0.21717701E+03</rscale>
<asrwt>0</asrwt>
<pdfrwt beam="1">  1       21 0.15013354E-01 0.21717701E+03</pdfrwt>
<pdfrwt beam="2">  1       21 0.77925483E-01 0.21717701E+03</pdfrwt>
<totfact> 0.56493238E+04</totfact>
</mgrwt>
</event>
<event>
 4    1  0.4365842E+000  0.1848951E+03  0.7546771E-02  0.1163148E+00
         21   -1    0    0  501  502  0.00000000000E+00  0.00000000000E+00  0.81957755866E+02  0.81957755866E+02  0.00000000000E+00 0.  1.
         21   -1    0    0  502  503 -0.00000000000E+00 -0.00000000000E+00 -0.56246635712E+03  0.56246635712E+03  0.00000000000E+00 0. -1.
          6    1    1    2  501    0 -0.10845409409E+02 -0.64339649628E+02 -0.76461167298E+02  0.20008129229E+03  0.17300000000E+03 0.  1.
         -6    1    1    2    0  503  0.10845409409E+02  0.64339649628E+02 -0.40404743396E+03  0.44434282070E+03  0.17300000000E+03 0. -1.
<mgrwt>
<rscale>  2 0.18489514E+03</rscale>
<asrwt>0</asrwt>
<pdfrwt beam="1">  1       21 0.12608885E-01 0.18489514E+03</pdfrwt>
<pdfrwt beam="2">  1       21 0.86533288E-01 0.18489514E+03</pdfrwt>
<totfact> 0.61983532E+04</totfact>
</mgrwt>
</event>
<event>
 4    1  0.4365842E+000  0.2071541E+03  0.7546771E-02  0.1143840E+00
         21   -1    0    0  503  502  0.00000000000E+00  0.00000000000E+00  0.98570088994E+03  0.98570088994E+03  0.00000000000E+00 0. -1.
         21   -1    0    0  501  503 -0.00000000000E+00 -0.00000000000E+00 -0.74008618837E+02  0.74008618837E+02  0.00000000000E+00 0. -1.
          6    1    1    2  501    0  0.59311333361E+02 -0.97293284974E+02  0.11584895101E+03  0.23734741839E+03  0.17300000000E+03 0. -1.
         -6    1    1    2    0  502 -0.59311333361E+02  0.97293284974E+02  0.79584332009E+03  0.82236209039E+03  0.17300000000E+03 0. -1.
<mgrwt>
<rscale>  2 0.20715409E+03</rscale>
<asrwt>0</asrwt>
<pdfrwt beam="1">  1       21 0.15164628E+00 0.20715409E+03</pdfrwt>
<pdfrwt beam="2">  1       21 0.11385942E-01 0.20715409E+03</pdfrwt>
<totfact> 0.18534800E+04</totfact>
</mgrwt>
</event>
<event>
 4    1  0.4365842E+000  0.2329888E+03  0.7546771E-02  0.1124554E+00
         21   -1    0    0  503  502  0.00000000000E+00  0.00000000000E+00  0.10785117764E+04  0.10785117764E+04  0.00000000000E+00 0. -1.
         21   -1    0    0  501  503 -0.00000000000E+00 -0.00000000000E+00 -0.61790794235E+02  0.61790794235E+02  0.00000000000E+00 0. -1.
          6    1    1    2  501    0 -0.14698741140E+03 -0.52435622970E+02  0.26283576332E+03  0.35123557928E+03  0.17300000000E+03 0. -1.
         -6    1    1    2    0  502  0.14698741140E+03  0.52435622970E+02  0.75388521883E+03  0.78906699135E+03  0.17300000000E+03 0. -1.
<mgrwt>
<rscale>  2 0.23298883E+03</rscale>
<asrwt>0</asrwt>
<pdfrwt beam="1">  1       21 0.16592487E+00 0.23298883E+03</pdfrwt>
<pdfrwt beam="2">  1       21 0.95062768E-02 0.23298883E+03</pdfrwt>
<totfact> 0.19701598E+04</totfact>
</mgrwt>
</event>
<event>
 4    1  0.4365842E+000  0.2239915E+03  0.7546771E-02  0.1130942E+00
         21   -1    0    0  501  502  0.00000000000E+00  0.00000000000E+00  0.57214005834E+03  0.57214005834E+03  0.00000000000E+00 0.  1.
         21   -1    0    0  502  503 -0.00000000000E+00 -0.00000000000E+00 -0.91122555893E+02  0.91122555893E+02  0.00000000000E+00 0. -1.
          6    1    1    2  501    0 -0.10838860495E+03  0.92168890639E+02  0.30485379198E+03  0.37829621802E+03  0.17300000000E+03 0.  1.
         -6    1    1    2    0  503  0.10838860495E+03 -0.92168890639E+02  0.17616371048E+03  0.28496639622E+03  0.17300000000E+03 0. -1.
<mgrwt>
<rscale>  2 0.22399150E+03</rscale>
<asrwt>0</asrwt>
<pdfrwt beam="1">  1       21 0.88021545E-01 0.22399150E+03</pdfrwt>
<pdfrwt beam="2">  1       21 0.14018855E-01 0.22399150E+03</pdfrwt>
<totfact> 0.48306459E+04</totfact>
</mgrwt>
</event>
<event>
 4    1  0.4365842E+000  0.2624723E+03  0.7546771E-02  0.1105667E+00
         21   -1    0    0  501  502  0.00000000000E+00  0.00000000000E+00  0.16088743974E+04  0.16088743974E+04  0.00000000000E+00 0. -1.
         21   -1    0    0  502  503 -0.00000000000E+00 -0.00000000000E+00 -0.60557425183E+02  0.60557425183E+02  0.00000000000E+00 0.  1.
          6    1    1    2  501    0 -0.12140485333E+03  0.15563926764E+03  0.12259129191E+04  0.12536962173E+04  0.17300000000E+03 0. -1.
         -6    1    1    2    0  503  0.12140485333E+03 -0.15563926764E+03  0.32240405314E+03  0.41573560531E+03  0.17300000000E+03 0.  1.
<mgrwt>
<rscale>  2 0.26247232E+03</rscale>
<asrwt>0</asrwt>
<pdfrwt beam="1">  1       21 0.24751911E+00 0.26247232E+03</pdfrwt>
<pdfrwt beam="2">  1       21 0.93165282E-02 0.26247232E+03</pdfrwt>
<totfact> 0.59474317E+03</totfact>
</mgrwt>
</event>
<event>
 4    1  0.4365842E+000  0.1870945E+03  0.7546771E-02  0.1161108E+00
         21   -1    0    0  501  502  0.00000000000E+00  0.00000000000E+00  0.80538883745E+03  0.80538883745E+03  0.00000000000E+00 0.  1.
         21   -1    0    0  502  503 -0.00000000000E+00 -0.00000000000E+00 -0.65945003037E+02  0.65945003037E+02  0.00000000000E+00 0.  1.
          6    1    1    2  501    0 -0.48490192194E+02 -0.52192298589E+02  0.62410281841E+03  0.65154329305E+03  0.17300000000E+03 0.  1.
         -6    1    1    2    0  503  0.48490192194E+02  0.52192298589E+02  0.11534101601E+03  0.21979054744E+03  0.17300000000E+03 0.  1.
<mgrwt>
<rscale>  2 0.18709445E+03</rscale>
<asrwt>0</asrwt>
<pdfrwt beam="1">  1       21 0.12390597E+00 0.18709445E+03</pdfrwt>
<pdfrwt beam="2">  1       21 0.10145386E-01 0.18709445E+03</pdfrwt>
<totfact> 0.38690475E+04</totfact>
</mgrwt>
</event>
<event>
 4    1  0.4365842E+000  0.3350974E+03  0.7546771E-02  0.1068903E+00
         21   -1    0    0  503  502  0.00000000000E+00  0.00000000000E+00  0.26477360814E+03  0.26477360814E+03  0.00000000000E+00 0.  1.
         21   -1    0    0  501  503 -0.00000000000E+00 -0.00000000000E+00 -0.49441362262E+03  0.49441362262E+03  0.00000000000E+00 0.  1.
          6    1    1    2  501    0 -0.22581584402E+03  0.17711155692E+03 -0.25797141295E+03  0.42289425262E+03  0.17300000000E+03 0.  1.
         -6    1    1    2    0  502  0.22581584402E+03 -0.17711155692E+03  0.28331398472E+02  0.33629297814E+03  0.17300000000E+03 0.  1.
<mgrwt>
<rscale>  2 0.33509745E+03</rscale>
<asrwt>0</asrwt>
<pdfrwt beam="1">  1       21 0.40734402E-01 0.33509745E+03</pdfrwt>
<pdfrwt beam="2">  1       21 0.76063633E-01 0.33509745E+03</pdfrwt>
<totfact> 0.82731401E+03</totfact>
</mgrwt>
</event>
<event>
 4    1  0.4365842E+000  0.2356832E+03  0.7546771E-02  0.1122702E+00
         21   -1    0    0  503  502  0.00000000000E+00  0.00000000000E+00  0.21787303650E+03  0.21787303650E+03  0.00000000000E+00 0.  1.
         21   -1    0    0  501  503 -0.00000000000E+00 -0.00000000000E+00 -0.25704495436E+03  0.25704495436E+03  0.00000000000E+00 0.  1.
          6    1    1    2  501    0  0.10567008132E+03  0.12021400289E+03 -0.41027034101E+02  0.23922748609E+03  0.17300000000E+03 0. -1.
         -6    1    1    2    0  502 -0.10567008132E+03 -0.12021400289E+03  0.18551162416E+01  0.23569050476E+03  0.17300000000E+03 0. -1.
<mgrwt>
<rscale>  2 0.23568320E+03</rscale>
<asrwt>0</asrwt>
<pdfrwt beam="1">  1       21 0.33518929E-01 0.23568320E+03</pdfrwt>
<pdfrwt beam="2">  1       21 0.39545378E-01 0.23568320E+03</pdfrwt>
<totfact> 0.51822091E+04</totfact>
</mgrwt>
</event>
<event>
 4    1  0.4365842E+000  0.2209906E+03  0.7546771E-02  0.1133147E+00
         21   -1    0    0  501  502  0.00000000000E+00  0.00000000000E+00  0.12089658047E+03  0.12089658047E+03  0.00000000000E+00 0.  1.
         21   -1    0    0  502  503 -0.00000000000E+00 -0.00000000000E+00 -0.43287036722E+03  0.43287036722E+03  0.00000000000E+00 0. -1.
          6    1    1    2  501    0 -0.46905590487E+01 -0.13742580498E+03 -0.84425662741E+02  0.23656826869E+03  0.17300000000E+03 0.  1.
         -6    1    1    2    0  503  0.46905590487E+01  0.13742580498E+03 -0.22754812401E+03  0.31719867900E+03  0.17300000000E+03 0. -1.
<mgrwt>
<rscale>  2 0.22099062E+03</rscale>
<asrwt>0</asrwt>
<pdfrwt beam="1">  1       21 0.18599474E-01 0.22099062E+03</pdfrwt>
<pdfrwt beam="2">  1       21 0.66595439E-01 0.22099062E+03</pdfrwt>
<totfact> 0.53900542E+04</totfact>
</mgrwt>
</event>
<event>
 4    1  0.4365842E+000  0.2406537E+03  0.7546771E-02  0.1119358E+00
         21   -1    0    0  503  502  0.00000000000E+00  0.00000000000E+00  0.75943409357E+03  0.75943409357E+03  0.00000000000E+00 0. -1.
         21   -1    0    0  501  503 -0.00000000000E+00 -0.00000000000E+00 -0.77462466104E+02  0.77462466104E+02  0.00000000000E+00 0. -1.
          6    1    1    2  501    0  0.15928171580E+03 -0.51132503089E+02  0.39312821941E+03  0.46093816804E+03  0.17300000000E+03 0. -1.
         -6    1    1    2    0  502 -0.15928171580E+03  0.51132503089E+02  0.28884340806E+03  0.37595839164E+03  0.17300000000E+03 0. -1.
<mgrwt>
<rscale>  2 0.24065369E+03</rscale>
<asrwt>0</asrwt>
<pdfrwt beam="1">  1       21 0.11683601E+00 0.24065369E+03</pdfrwt>
<pdfrwt beam="2">  1       21 0.11917303E-01 0.24065369E+03</pdfrwt>
<totfact> 0.32658210E+04</totfact>
</mgrwt>
</event>
<event>
 4    1  0.4365842E+000  0.2089206E+03  0.7546771E-02  0.1142424E+00
         21   -1    0    0  503  502  0.00000000000E+00  0.00000000000E+00  0.65020470095E+03  0.65020470095E+03  0.00000000000E+00 0.  1.
         21   -1    0    0  501  503 -0.00000000000E+00 -0.00000000000E+00 -0.19334772978E+03  0.19334772978E+03  0.00000000000E+00 0.  1.
          6    1    1    2  501    0 -0.11675264054E+03 -0.93609389318E+01 -0.11235134372E+03  0.23721431384E+03  0.17300000000E+03 0.  1.
         -6    1    1    2    0  502  0.11675264054E+03  0.93609389318E+01  0.56920831490E+03  0.60633811690E+03  0.17300000000E+03 0.  1.
<mgrwt>
<rscale>  2 0.20892057E+03</rscale>
<asrwt>0</asrwt>
<pdfrwt beam="1">  1       21 0.10003149E+00 0.20892057E+03</pdfrwt>
<pdfrwt beam="2">  1       21 0.29745805E-01 0.20892057E+03</pdfrwt>
<totfact> 0.87854499E+03</totfact>
</mgrwt>
</event>
<event>
 4    1  0.4365842E+000  0.2324989E+03  0.7546771E-02  0.1124893E+00
         21   -1    0    0  503  502  0.00000000000E+00  0.00000000000E+00  0.51494916709E+03  0.51494916709E+03  0.00000000000E+00 0.  1.
         21   -1    0    0  501  503 -0.00000000000E+00 -0.00000000000E+00 -0.10470409663E+04  0.10470409663E+04  0.00000000000E+00 0. -1.
          6    1    1    2  501    0 -0.14151492820E+03 -0.64033351183E+02 -0.10068571651E+04  0.10333523580E+04  0.17300000000E+03 0. -1.
         -6    1    1    2    0  502  0.14151492820E+03  0.64033351183E+02  0.47476536584E+03  0.52863777539E+03  0.17300000000E+03 0.  1.
<mgrwt>
<rscale>  2 0.23249891E+03</rscale>
<asrwt>0</asrwt>
<pdfrwt beam="1">  1       21 0.79222949E-01 0.23249891E+03</pdfrwt>
<pdfrwt beam="2">  1       21 0.16108322E+00 0.23249891E+03</pdfrwt>
<totfact> 0.33229164E+02</totfact>
</mgrwt>
</event>
<event>
 4    1  0.4365842E+000  0.2585248E+03  0.7546771E-02  0.1108033E+00
         21   -1    0    0  503  502  0.00000000000E+00  0.00000000000E+00  0.48343178067E+03  0.48343178067E+03  0.00000000000E+00 0. -1.
         21   -1    0    0  501  503 -0.00000000000E+00 -0.00000000000E+00 -0.16362342160E+03  0.16362342160E+03  0.00000000000E+00 0.  1.
          6    1    1    2  501    0  0.15383434627E+03 -0.11506980896E+03  0.32504866830E+02  0.26056022988E+03  0.17300000000E+03 0.  1.
         -6    1    1    2    0  502 -0.15383434627E+03  0.11506980896E+03  0.28730349224E+03  0.38649497239E+03  0.17300000000E+03 0. -1.
<mgrwt>
<rscale>  2 0.25852479E+03</rscale>
<asrwt>0</asrwt>
<pdfrwt beam="1">  1       21 0.74374120E-01 0.25852479E+03</pdfrwt>
<pdfrwt beam="2">  1       21 0.25172834E-01 0.25852479E+03</pdfrwt>
<totfact> 0.23394445E+04</totfact>
</mgrwt>
</event>
<event>
 4    1  0.4365842E+000  0.1923533E+03  0.7546771E-02  0.1156356E+00
         21   -1    0    0  503  502  0.00000000000E+00  0.00000000000E+00  0.60403215519E+03  0.60403215519E+03  0.00000000000E+00 0.  1.
         21   -1    0    0  501  503 -0.00000000000E+00 -0.00000000000E+00 -0.13210405620E+03  0.13210405620E+03  0.00000000000E+00 0.  1.
          6    1    1    2  501    0 -0.59634213828E+02 -0.59283740808E+02 -0.33585183082E+02  0.19526332453E+03  0.17300000000E+03 0.  1.
         -6    1    1    2    0  502  0.59634213828E+02  0.59283740808E+02  0.50551328207E+03  0.54087288686E+03  0.17300000000E+03 0.  1.
<mgrwt>
<rscale>  2 0.19235332E+03</rscale>
<asrwt>0</asrwt>
<pdfrwt beam="1">  1       21 0.92928022E-01 0.19235332E+03</pdfrwt>
<pdfrwt beam="2">  1       21 0.20323701E-01 0.19235332E+03</pdfrwt>
<totfact> 0.21852578E+04</totfact>
</mgrwt>
</event>
<event>
 4    1  0.4365842E+000  0.1835375E+03  0.7546771E-02  0.1164423E+00
         21   -1    0    0  503  502  0.00000000000E+00  0.00000000000E+00  0.20392175237E+02  0.20392175237E+02  0.00000000000E+00 0.  1.
         21   -1    0    0  501  503 -0.00000000000E+00 -0.00000000000E+00 -0.16523084174E+04  0.16523084174E+04  0.00000000000E+00 0.  1.
          6    1    1    2  501    0  0.14364291269E+02 -0.59587511147E+02 -0.82897223378E+03  0.84904709453E+03  0.17300000000E+03 0.  1.
         -6    1    1    2    0  502 -0.14364291269E+02  0.59587511147E+02 -0.80294400836E+03  0.82365349809E+03  0.17300000000E+03 0.  1.
<mgrwt>
<rscale>  2 0.18353747E+03</rscale>
<asrwt>0</asrwt>
<pdfrwt beam="1">  1       21 0.31372577E-02 0.18353747E+03</pdfrwt>
<pdfrwt beam="2">  1       21 0.25420130E+00 0.18353747E+03</pdfrwt>
<totfact> 0.37189919E+04</totfact>
</mgrwt>
</event>
<event>
 4    1  0.4365842E+000  0.1763372E+03  0.7546771E-02  0.1171396E+00
         21   -1    0    0  501  502  0.00000000000E+00  0.00000000000E+00  0.24194959310E+04  0.24194959310E+04  0.00000000000E+00 0. -1.
         21   -1    0    0  502  503 -0.00000000000E+00 -0.00000000000E+00 -0.35709922981E+02  0.35709922981E+02  0.00000000000E+00 0. -1.
          6    1    1    2  501    0  0.21338929761E+02 -0.26654747830E+02  0.21740568565E+04  0.21811964701E+04  0.17300000000E+03 0. -1.
         -6    1    1    2    0  503 -0.21338929761E+02  0.26654747830E+02  0.20972915152E+03  0.27400938397E+03  0.17300000000E+03 0. -1.
<mgrwt>
<rscale>  2 0.17633725E+03</rscale>
<asrwt>0</asrwt>
<pdfrwt beam="1">  1       21 0.37223002E+00 0.17633725E+03</pdfrwt>
<pdfrwt beam="2">  1       21 0.54938362E-02 0.17633725E+03</pdfrwt>
<totfact> 0.30241479E+03</totfact>
</mgrwt>
</event>
<event>
 4    1  0.4365842E+000  0.2590704E+03  0.7546771E-02  0.1107703E+00
         21   -1    0    0  501  502  0.00000000000E+00  0.00000000000E+00  0.40151125319E+02  0.40151125319E+02  0.00000000000E+00 0.  1.
         21   -1    0    0  502  503 -0.00000000000E+00 -0.00000000000E+00 -0.18569777257E+04  0.18569777257E+04  0.00000000000E+00 0. -1.
          6    1    1    2  501    0 -0.51276134979E+02 -0.18590106977E+03 -0.60872617665E+03  0.66156255025E+03  0.17300000000E+03 0. -1.
         -6    1    1    2    0  503  0.51276134979E+02  0.18590106977E+03 -0.12081004238E+04  0.12355663008E+04  0.17300000000E+03 0.  1.
<mgrwt>
<rscale>  2 0.25907036E+03</rscale>
<asrwt>0</asrwt>
<pdfrwt beam="1">  1       21 0.61770976E-02 0.25907036E+03</pdfrwt>
<pdfrwt beam="2">  1       21 0.28568882E+00 0.25907036E+03</pdfrwt>
<totfact> 0.72744625E+03</totfact>
</mgrwt>
</event>
<event>
 4    1  0.4365842E+000  0.2264301E+03  0.7546771E-02  0.1129178E+00
         21   -1    0    0  503  502  0.00000000000E+00  0.00000000000E+00  0.12284351524E+04  0.12284351524E+04  0.00000000000E+00 0.  1.
         21   -1    0    0  501  503 -0.00000000000E+00 -0.00000000000E+00 -0.61081742201E+02  0.61081742201E+02  0.00000000000E+00 0. -1.
          6    1    1    2  501    0 -0.14583695325E+03  0.85546786317E+01  0.22082574634E+03  0.31628248403E+03  0.17300000000E+03 0. -1.
         -6    1    1    2    0  502  0.14583695325E+03 -0.85546786317E+01  0.94652766382E+03  0.97323441053E+03  0.17300000000E+03 0.  1.
<mgrwt>
<rscale>  2 0.22643012E+03</rscale>
<asrwt>0</asrwt>
<pdfrwt beam="1">  1       21 0.18899001E+00 0.22643012E+03</pdfrwt>
<pdfrwt beam="2">  1       21 0.93971920E-02 0.22643012E+03</pdfrwt>
<totfact> 0.13985065E+04</totfact>
</mgrwt>
</event>
<event>
 4    1  0.4365842E+000  0.4852779E+03  0.7546771E-02  0.1017695E+00
         21   -1    0    0  503  502  0.00000000000E+00  0.00000000000E+00  0.81802302077E+03  0.81802302077E+03  0.00000000000E+00 0. -1.
         21   -1    0    0  501  503 -0.00000000000E+00 -0.00000000000E+00 -0.56448938612E+03  0.56448938612E+03  0.00000000000E+00 0.  1.
          6    1    1    2  501    0 -0.94413486023E+02  0.44345432151E+03 -0.35711858563E+03  0.60251831990E+03  0.17300000000E+03 0. -1.
         -6    1    1    2    0  502  0.94413486023E+02 -0.44345432151E+03  0.61065222028E+03  0.77999408699E+03  0.17300000000E+03 0.  1.
<mgrwt>
<rscale>  2 0.48527790E+03</rscale>
<asrwt>0</asrwt>
<pdfrwt beam="1">  1       21 0.12584970E+00 0.48527790E+03</pdfrwt>
<pdfrwt beam="2">  1       21 0.86844521E-01 0.48527790E+03</pdfrwt>
<totfact> 0.43903306E+02</totfact>
</mgrwt>
</event>
<event>
 4    1  0.4365842E+000  0.2553314E+03  0.7546771E-02  0.1109981E+00
         21   -1    0    0  503  502  0.00000000000E+00  0.00000000000E+00  0.16208112237E+04  0.16208112237E+04  0.00000000000E+00 0. -1.
         21   -1    0    0  501  503 -0.00000000000E+00 -0.00000000000E+00 -0.40243751070E+02  0.40243751070E+02  0.00000000000E+00 0.  1.
          6    1    1    2  501    0  0.10779258950E+02 -0.18748041591E+03  0.80908434720E+03  0.84841710241E+03  0.17300000000E+03 0. -1.
         -6    1    1    2    0  502 -0.10779258950E+02  0.18748041591E+03  0.77148312542E+03  0.81263787236E+03  0.17300000000E+03 0.  1.
<mgrwt>
<rscale>  2 0.25533135E+03</rscale>
<asrwt>0</asrwt>
<pdfrwt beam="1">  1       21 0.24935552E+00 0.25533135E+03</pdfrwt>
<pdfrwt beam="2">  1       21 0.61913476E-02 0.25533135E+03</pdfrwt>
<totfact> 0.11903948E+04</totfact>
</mgrwt>
</event>
<event>
 4    1  0.4365842E+000  0.2221453E+03  0.7546771E-02  0.1132294E+00
         21   -1    0    0  503  502  0.00000000000E+00  0.00000000000E+00  0.13500628260E+03  0.13500628260E+03  0.00000000000E+00 0.  1.
         21   -1    0    0  501  503 -0.00000000000E+00 -0.00000000000E+00 -0.52823955042E+03  0.52823955042E+03  0.00000000000E+00 0.  1.
          6    1    1    2  501    0  0.13261609993E+03 -0.42807750178E+02 -0.38066785120E+03  0.44074544396E+03  0.17300000000E+03 0.  1.
         -6    1    1    2    0  502 -0.13261609993E+03  0.42807750178E+02 -0.12565416624E+02  0.22250038905E+03  0.17300000000E+03 0.  1.
<mgrwt>
<rscale>  2 0.22214530E+03</rscale>
<asrwt>0</asrwt>
<pdfrwt beam="1">  1       21 0.20770197E-01 0.22214530E+03</pdfrwt>
<pdfrwt beam="2">  1       21 0.81267623E-01 0.22214530E+03</pdfrwt>
<totfact> 0.28087256E+04</totfact>
</mgrwt>
</event>
<event>
 4    1  0.4365842E+000  0.1814274E+03  0.7546771E-02  0.1166429E+00
         21   -1    0    0  503  502  0.00000000000E+00  0.00000000000E+00  0.41634465227E+03  0.41634465227E+03  0.00000000000E+00 0. -1.
         21   -1    0    0  501  503 -0.00000000000E+00 -0.00000000000E+00 -0.89844745276E+02  0.89844745276E+02  0.00000000000E+00 0. -1.
          6    1    1    2  501    0  0.52613329582E+02  0.14789713730E+02  0.75558624671E+02  0.19653244985E+03  0.17300000000E+03 0. -1.
         -6    1    1    2    0  502 -0.52613329582E+02 -0.14789713730E+02  0.25094128232E+03  0.30965694769E+03  0.17300000000E+03 0. -1.
<mgrwt>
<rscale>  2 0.18142739E+03</rscale>
<asrwt>0</asrwt>
<pdfrwt beam="1">  1       21 0.64053022E-01 0.18142739E+03</pdfrwt>
<pdfrwt beam="2">  1       21 0.13822269E-01 0.18142739E+03</pdfrwt>
<totfact> 0.10282940E+05</totfact>
</mgrwt>
</event>
<event>
 4    1  0.4365842E+000  0.2338043E+03  0.7546771E-02  0.1123990E+00
         21   -1    0    0  503  502  0.00000000000E+00  0.00000000000E+00  0.17974245816E+03  0.17974245816E+03  0.00000000000E+00 0.  1.
         21   -1    0    0  501  503 -0.00000000000E+00 -0.00000000000E+00 -0.37901795816E+03  0.37901795816E+03  0.00000000000E+00 0.  1.
          6    1    1    2  501    0  0.46886045849E+02 -0.15012382348E+03 -0.22382630676E+03  0.32367063393E+03  0.17300000000E+03 0.  1.
         -6    1    1    2    0  502 -0.46886045849E+02  0.15012382348E+03  0.24550806762E+02  0.23508978239E+03  0.17300000000E+03 0.  1.
<mgrwt>
<rscale>  2 0.23380433E+03</rscale>
<asrwt>0</asrwt>
<pdfrwt beam="1">  1       21 0.27652686E-01 0.23380433E+03</pdfrwt>
<pdfrwt beam="2">  1       21 0.58310455E-01 0.23380433E+03</pdfrwt>
<totfact> 0.33671136E+04</totfact>
</mgrwt>
</event>
<event>
 4    1  0.4365842E+000  0.4058720E+03  0.7546771E-02  0.1041765E+00
         21   -1    0    0  503  502  0.00000000000E+00  0.00000000000E+00  0.25530943075E+04  0.25530943075E+04  0.00000000000E+00 0.  1.
         21   -1    0    0  501  503 -0.00000000000E+00 -0.00000000000E+00 -0.73644208262E+02  0.73644208262E+02  0.00000000000E+00 0. -1.
          6    1    1    2  501    0  0.35590873876E+03 -0.90177756048E+02  0.77749800527E+03  0.87706054877E+03  0.17300000000E+03 0. -1.
         -6    1    1    2    0  502 -0.35590873876E+03  0.90177756048E+02  0.17019520940E+04  0.17496779670E+04  0.17300000000E+03 0.  1.
<mgrwt>
<rscale>  2 0.40587197E+03</rscale>
<asrwt>0</asrwt>
<pdfrwt beam="1">  1       21 0.39278367E+00 0.40587197E+03</pdfrwt>
<pdfrwt beam="2">  1       21 0.11329880E-01 0.40587197E+03</pdfrwt>
<totfact> 0.50200835E+02</totfact>
</mgrwt>
</event>
<event>
 4    1  0.4365842E+000  0.1802967E+03  0.7546771E-02  0.1167516E+00
         21   -1    0    0  503  502  0.00000000000E+00  0.00000000000E+00  0.36948136481E+03  0.36948136481E+03  0.00000000000E+00 0.  1.
         21   -1    0    0  501  503 -0.00000000000E+00 -0.00000000000E+00 -0.88611416212E+02  0.88611416212E+02  0.00000000000E+00 0.  1.
          6    1    1    2  501    0  0.21984931192E+02  0.45766365094E+02  0.15977266052E+03  0.24090288588E+03  0.17300000000E+03 0. -1.
         -6    1    1    2    0  502 -0.21984931192E+02 -0.45766365094E+02  0.12109728807E+03  0.21718989514E+03  0.17300000000E+03 0. -1.
<mgrwt>
<rscale>  2 0.18029669E+03</rscale>
<asrwt>0</asrwt>
<pdfrwt beam="1">  1       21 0.56843286E-01 0.18029669E+03</pdfrwt>
<pdfrwt beam="2">  1       21 0.13632526E-01 0.18029669E+03</pdfrwt>
<totfact> 0.13627316E+05</totfact>
</mgrwt>
</event>
<event>
 4    1  0.4365842E+000  0.1751778E+03  0.7546771E-02  0.1172553E+00
         21   -1    0    0  503  502  0.00000000000E+00  0.00000000000E+00  0.38865706624E+02  0.38865706624E+02  0.00000000000E+00 0. -1.
         21   -1    0    0  501  503 -0.00000000000E+00 -0.00000000000E+00 -0.78962461738E+03  0.78962461738E+03  0.00000000000E+00 0. -1.
          6    1    1    2  501    0 -0.26577305829E+02 -0.72052427890E+01 -0.37876510617E+03  0.41731316102E+03  0.17300000000E+03 0. -1.
         -6    1    1    2    0  502  0.26577305829E+02  0.72052427890E+01 -0.37199380458E+03  0.41117716298E+03  0.17300000000E+03 0. -1.
<mgrwt>
<rscale>  2 0.17517782E+03</rscale>
<asrwt>0</asrwt>
<pdfrwt beam="1">  1       21 0.59793397E-02 0.17517782E+03</pdfrwt>
<pdfrwt beam="2">  1       21 0.12148071E+00 0.17517782E+03</pdfrwt>
<totfact> 0.10238067E+05</totfact>
</mgrwt>
</event>
<event>
 4    1  0.4365842E+000  0.2106162E+03  0.7546771E-02  0.1141079E+00
         21   -1    0    0  503  502  0.00000000000E+00  0.00000000000E+00  0.59484716475E+03  0.59484716475E+03  0.00000000000E+00 0.  1.
         21   -1    0    0  501  503 -0.00000000000E+00 -0.00000000000E+00 -0.17808641093E+03  0.17808641093E+03  0.00000000000E+00 0.  1.
          6    1    1    2  501    0  0.41814728752E+02  0.11261302973E+03 -0.86262812553E+02  0.22759709760E+03  0.17300000000E+03 0.  1.
         -6    1    1    2    0  502 -0.41814728752E+02 -0.11261302973E+03  0.50302356637E+03  0.54533647808E+03  0.17300000000E+03 0.  1.
<mgrwt>
<rscale>  2 0.21061616E+03</rscale>
<asrwt>0</asrwt>
<pdfrwt beam="1">  1       21 0.91514948E-01 0.21061616E+03</pdfrwt>
<pdfrwt beam="2">  1       21 0.27397910E-01 0.21061616E+03</pdfrwt>
<totfact> 0.12690148E+04</totfact>
</mgrwt>
</event>
<event>
 4    1  0.4365842E+000  0.1885857E+03  0.7546771E-02  0.1159743E+00
         21   -1    0    0  501  502  0.00000000000E+00  0.00000000000E+00  0.15903676420E+04  0.15903676420E+04  0.00000000000E+00 0. -1.
         21   -1    0    0  502  503 -0.00000000000E+00 -0.00000000000E+00 -0.39467933040E+02  0.39467933040E+02  0.00000000000E+00 0. -1.
          6    1    1    2  501    0 -0.45101686764E+02  0.60011789508E+02  0.13119363536E+04  0.13254212813E+04  0.17300000000E+03 0. -1.
         -6    1    1    2    0  503  0.45101686764E+02 -0.60011789508E+02  0.23896335537E+03  0.30441429375E+03  0.17300000000E+03 0. -1.
<mgrwt>
<rscale>  2 0.18858573E+03</rscale>
<asrwt>0</asrwt>
<pdfrwt beam="1">  1       21 0.24467190E+00 0.18858573E+03</pdfrwt>
<pdfrwt beam="2">  1       21 0.60719909E-02 0.18858573E+03</pdfrwt>
<totfact> 0.13861016E+04</totfact>
</mgrwt>
</event>
<event>
 4    1  0.4365842E+000  0.1825071E+03  0.7546771E-02  0.1165398E+00
         21   -1    0    0  501  502  0.00000000000E+00  0.00000000000E+00  0.74031417102E+02  0.74031417102E+02  0.00000000000E+00 0.  1.
         21   -1    0    0  502  503 -0.00000000000E+00 -0.00000000000E+00 -0.58123183123E+03  0.58123183123E+03  0.00000000000E+00 0.  1.
          6    1    1    2  501    0 -0.19034346258E+01  0.58105289789E+02 -0.97878585415E+02  0.20709675335E+03  0.17300000000E+03 0. -1.
         -6    1    1    2    0  503  0.19034346258E+01 -0.58105289789E+02 -0.40932182871E+03  0.44816649498E+03  0.17300000000E+03 0. -1.
<mgrwt>
<rscale>  2 0.18250712E+03</rscale>
<asrwt>0</asrwt>
<pdfrwt beam="1">  1       21 0.11389449E-01 0.18250712E+03</pdfrwt>
<pdfrwt beam="2">  1       21 0.89420282E-01 0.18250712E+03</pdfrwt>
<totfact> 0.69007272E+04</totfact>
</mgrwt>
</event>
<event>
 4    1  0.4365842E+000  0.1975776E+03  0.7546771E-02  0.1151799E+00
         21   -1    0    0  501  502  0.00000000000E+00  0.00000000000E+00  0.75334316356E+02  0.75334316356E+02  0.00000000000E+00 0. -1.
         21   -1    0    0  502  503 -0.00000000000E+00 -0.00000000000E+00 -0.12006694832E+04  0.12006694832E+04  0.00000000000E+00 0.  1.
          6    1    1    2  501    0  0.34769560599E+02  0.88876138553E+02 -0.81653750708E+02  0.21378546572E+03  0.17300000000E+03 0. -1.
         -6    1    1    2    0  503 -0.34769560599E+02 -0.88876138553E+02 -0.10436814161E+04  0.10622183338E+04  0.17300000000E+03 0.  1.
<mgrwt>
<rscale>  2 0.19757756E+03</rscale>
<asrwt>0</asrwt>
<pdfrwt beam="1">  1       21 0.11589896E-01 0.19757756E+03</pdfrwt>
<pdfrwt beam="2">  1       21 0.18471837E+00 0.19757756E+03</pdfrwt>
<totfact> 0.10516794E+04</totfact>
</mgrwt>
</event>
<event>
 4    1  0.4365842E+000  0.2352749E+03  0.7546771E-02  0.1122981E+00
         21   -1    0    0  501  502  0.00000000000E+00  0.00000000000E+00  0.12465135236E+03  0.12465135236E+03  0.00000000000E+00 0. -1.
         21   -1    0    0  502  503 -0.00000000000E+00 -0.00000000000E+00 -0.77185999955E+03  0.77185999955E+03  0.00000000000E+00 0.  1.
          6    1    1    2  501    0  0.11011485697E+03  0.11532570740E+03 -0.31490311465E+02  0.23737299810E+03  0.17300000000E+03 0. -1.
         -6    1    1    2    0  503 -0.11011485697E+03 -0.11532570740E+03 -0.61571833572E+03  0.65913835381E+03  0.17300000000E+03 0.  1.
<mgrwt>
<rscale>  2 0.23527495E+03</rscale>
<asrwt>0</asrwt>
<pdfrwt beam="1">  1       21 0.19177131E-01 0.23527495E+03</pdfrwt>
<pdfrwt beam="2">  1       21 0.11874769E+00 0.23527495E+03</pdfrwt>
<totfact> 0.13164195E+04</totfact>
</mgrwt>
</event>
<event>
 4    1  0.4365842E+000  0.3649004E+03  0.7546771E-02  0.1056660E+00
         21   -1    0    0  501  502  0.00000000000E+00  0.00000000000E+00  0.42453947698E+03  0.42453947698E+03  0.00000000000E+00 0. -1.
         21   -1    0    0  502  503 -0.00000000000E+00 -0.00000000000E+00 -0.37934428486E+03  0.37934428486E+03  0.00000000000E+00 0.  1.
          6    1    1    2  501    0  0.21607189136E+03  0.23777345959E+03  0.18987817524E+03  0.41134657134E+03  0.17300000000E+03 0. -1.
         -6    1    1    2    0  503 -0.21607189136E+03 -0.23777345959E+03 -0.14468298312E+03  0.39253719050E+03  0.17300000000E+03 0.  1.
<mgrwt>
<rscale>  2 0.36490037E+03</rscale>
<asrwt>0</asrwt>
<pdfrwt beam="1">  1       21 0.65313766E-01 0.36490037E+03</pdfrwt>
<pdfrwt beam="2">  1       21 0.58360659E-01 0.36490037E+03</pdfrwt>
<totfact> 0.53879406E+03</totfact>
</mgrwt>
</event>
<event>
 4    1  0.4365842E+000  0.1796954E+03  0.7546771E-02  0.1168098E+00
         21   -1    0    0  503  502  0.00000000000E+00  0.00000000000E+00  0.22468522100E+02  0.22468522100E+02  0.00000000000E+00 0.  1.
         21   -1    0    0  501  503 -0.00000000000E+00 -0.00000000000E+00 -0.15598914020E+04  0.15598914020E+04  0.00000000000E+00 0.  1.
          6    1    1    2  501    0 -0.44069983220E+02 -0.20476006946E+02 -0.99065363498E+03  0.10068192761E+04  0.17300000000E+03 0.  1.
         -6    1    1    2    0  502  0.44069983220E+02  0.20476006946E+02 -0.54676924497E+03  0.57554064802E+03  0.17300000000E+03 0.  1.
<mgrwt>
<rscale>  2 0.17969538E+03</rscale>
<asrwt>0</asrwt>
<pdfrwt beam="1">  1       21 0.34566955E-02 0.17969538E+03</pdfrwt>
<pdfrwt beam="2">  1       21 0.23998330E+00 0.17969538E+03</pdfrwt>
<totfact> 0.38502264E+04</totfact>
</mgrwt>
</event>
<event>
 4    1  0.4365842E+000  0.1877772E+03  0.7546771E-02  0.1160482E+00
         21   -1    0    0  501  502  0.00000000000E+00  0.00000000000E+00  0.92900149519E+02  0.92900149519E+02  0.00000000000E+00 0.  1.
         21   -1    0    0  502  503 -0.00000000000E+00 -0.00000000000E+00 -0.72412028482E+03  0.72412028482E+03  0.00000000000E+00 0.  1.
          6    1    1    2  501    0 -0.24951262767E+02 -0.68620021073E+02 -0.33813087722E+02  0.19079726860E+03  0.17300000000E+03 0.  1.
         -6    1    1    2    0  503  0.24951262767E+02  0.68620021073E+02 -0.59740704758E+03  0.62622316573E+03  0.17300000000E+03 0.  1.
<mgrwt>
<rscale>  2 0.18777719E+03</rscale>
<asrwt>0</asrwt>
<pdfrwt beam="1">  1       21 0.14292331E-01 0.18777719E+03</pdfrwt>
<pdfrwt beam="2">  1       21 0.11140312E+00 0.18777719E+03</pdfrwt>
<totfact> 0.27203751E+04</totfact>
</mgrwt>
</event>
<event>
 4    1  0.4365842E+000  0.3840249E+03  0.7546771E-02  0.1049456E+00
         21   -1    0    0  503  502  0.00000000000E+00  0.00000000000E+00  0.33015768143E+03  0.33015768143E+03  0.00000000000E+00 0. -1.
         21   -1    0    0  501  503 -0.00000000000E+00 -0.00000000000E+00 -0.51150663533E+03  0.51150663533E+03  0.00000000000E+00 0.  1.
          6    1    1    2  501    0  0.18182833371E+03  0.29066227060E+03 -0.24049017842E+03  0.45311215433E+03  0.17300000000E+03 0.  1.
         -6    1    1    2    0  502 -0.18182833371E+03 -0.29066227060E+03  0.59141224521E+02  0.38855216243E+03  0.17300000000E+03 0. -1.
<mgrwt>
<rscale>  2 0.38402487E+03</rscale>
<asrwt>0</asrwt>
<pdfrwt beam="1">  1       21 0.50793490E-01 0.38402487E+03</pdfrwt>
<pdfrwt beam="2">  1       21 0.78693328E-01 0.38402487E+03</pdfrwt>
<totfact> 0.47346007E+03</totfact>
</mgrwt>
</event>
<event>
 4    1  0.4365842E+000  0.2242031E+03  0.7546771E-02  0.1130788E+00
         21   -1    0    0  503  502  0.00000000000E+00  0.00000000000E+00  0.88781478563E+03  0.88781478563E+03  0.00000000000E+00 0. -1.
         21   -1    0    0  501  503 -0.00000000000E+00 -0.00000000000E+00 -0.79393535707E+02  0.79393535707E+02  0.00000000000E+00 0. -1.
          6    1    1    2  501    0 -0.37439925372E+02  0.13760922771E+03  0.14519634827E+03  0.26711238667E+03  0.17300000000E+03 0. -1.
         -6    1    1    2    0  502  0.37439925372E+02 -0.13760922771E+03  0.66322490166E+03  0.70009593467E+03  0.17300000000E+03 0. -1.
<mgrwt>
<rscale>  2 0.22420314E+03</rscale>
<asrwt>0</asrwt>
<pdfrwt beam="1">  1       21 0.13658688E+00 0.22420314E+03</pdfrwt>
<pdfrwt beam="2">  1       21 0.12214391E-01 0.22420314E+03</pdfrwt>
<totfact> 0.21255367E+04</totfact>
</mgrwt>
</event>
<event>
 4    1  0.4365842E+000  0.2294714E+03  0.7546771E-02  0.1127012E+00
         21   -1    0    0  503  502  0.00000000000E+00  0.00000000000E+00  0.22595326722E+03  0.22595326722E+03  0.00000000000E+00 0.  1.
         21   -1    0    0  501  503 -0.00000000000E+00 -0.00000000000E+00 -0.24388201755E+03  0.24388201755E+03  0.00000000000E+00 0. -1.
          6    1    1    2  501    0  0.13383277215E+03 -0.69403824797E+02 -0.58486168122E+02  0.23680737670E+03  0.17300000000E+03 0. -1.
         -6    1    1    2    0  502 -0.13383277215E+03  0.69403824797E+02  0.40557417788E+02  0.23302790806E+03  0.17300000000E+03 0.  1.
<mgrwt>
<rscale>  2 0.22947135E+03</rscale>
<asrwt>0</asrwt>
<pdfrwt beam="1">  1       21 0.34762041E-01 0.22947135E+03</pdfrwt>
<pdfrwt beam="2">  1       21 0.37520310E-01 0.22947135E+03</pdfrwt>
<totfact> 0.53737778E+04</totfact>
</mgrwt>
</event>
<event>
 4    1  0.4365842E+000  0.1791658E+03  0.7546771E-02  0.1168613E+00
         21   -1    0    0  501  502  0.00000000000E+00  0.00000000000E+00  0.89499594546E+02  0.89499594546E+02  0.00000000000E+00 0.  1.
         21   -1    0    0  502  503 -0.00000000000E+00 -0.00000000000E+00 -0.53907387385E+03  0.53907387385E+03  0.00000000000E+00 0.  1.
          6    1    1    2  501    0 -0.11747889929E+02  0.45092838022E+02 -0.42971687570E+02  0.18424696169E+03  0.17300000000E+03 0.  1.
         -6    1    1    2    0  503  0.11747889929E+02 -0.45092838022E+02 -0.40660259174E+03  0.44432650671E+03  0.17300000000E+03 0.  1.
<mgrwt>
<rscale>  2 0.17916578E+03</rscale>
<asrwt>0</asrwt>
<pdfrwt beam="1">  1       21 0.13769168E-01 0.17916578E+03</pdfrwt>
<pdfrwt beam="2">  1       21 0.82934442E-01 0.17916578E+03</pdfrwt>
<totfact> 0.58443816E+04</totfact>
</mgrwt>
</event>
<event>
 4    1  0.4365842E+000  0.2706757E+03  0.7546771E-02  0.1100894E+00
         21   -1    0    0  501  502  0.00000000000E+00  0.00000000000E+00  0.16428016937E+04  0.16428016937E+04  0.00000000000E+00 0. -1.
         21   -1    0    0  502  503 -0.00000000000E+00 -0.00000000000E+00 -0.88236308618E+02  0.88236308618E+02  0.00000000000E+00 0.  1.
          6    1    1    2  501    0  0.39662447603E+02  0.20436052503E+03  0.13859611250E+04  0.14121450258E+04  0.17300000000E+03 0. -1.
         -6    1    1    2    0  503 -0.39662447603E+02 -0.20436052503E+03  0.16860426009E+03  0.31889297650E+03  0.17300000000E+03 0.  1.
<mgrwt>
<rscale>  2 0.27067570E+03</rscale>
<asrwt>0</asrwt>
<pdfrwt beam="1">  1       21 0.25273870E+00 0.27067570E+03</pdfrwt>
<pdfrwt beam="2">  1       21 0.13574818E-01 0.27067570E+03</pdfrwt>
<totfact> 0.27985615E+03</totfact>
</mgrwt>
</event>
<event>
 4    1  0.4365842E+000  0.2250649E+03  0.7546771E-02  0.1130162E+00
         21   -1    0    0  503  502  0.00000000000E+00  0.00000000000E+00  0.60727197311E+03  0.60727197311E+03  0.00000000000E+00 0.  1.
         21   -1    0    0  501  503 -0.00000000000E+00 -0.00000000000E+00 -0.12062512789E+03  0.12062512789E+03  0.00000000000E+00 0. -1.
          6    1    1    2  501    0 -0.12320882276E+03  0.74463299775E+02  0.41177454558E+02  0.22880074253E+03  0.17300000000E+03 0. -1.
         -6    1    1    2    0  502  0.12320882276E+03 -0.74463299775E+02  0.44546939066E+03  0.49909635847E+03  0.17300000000E+03 0.  1.
<mgrwt>
<rscale>  2 0.22506487E+03</rscale>
<asrwt>0</asrwt>
<pdfrwt beam="1">  1       21 0.93426456E-01 0.22506487E+03</pdfrwt>
<pdfrwt beam="2">  1       21 0.18557712E-01 0.22506487E+03</pdfrwt>
<totfact> 0.25093169E+04</totfact>
</mgrwt>
</event>
<event>
 4    1  0.4365842E+000  0.2095218E+03  0.7546771E-02  0.1141945E+00
         21   -1    0    0  501  502  0.00000000000E+00  0.00000000000E+00  0.10151896380E+03  0.10151896380E+03  0.00000000000E+00 0.  1.
         21   -1    0    0  502  503 -0.00000000000E+00 -0.00000000000E+00 -0.44370034744E+03  0.44370034744E+03  0.00000000000E+00 0.  1.
          6    1    1    2  501    0 -0.38835579333E+02 -0.11163423325E+03 -0.21454659014E+03  0.29988271640E+03  0.17300000000E+03 0.  1.
         -6    1    1    2    0  503  0.38835579333E+02  0.11163423325E+03 -0.12763479350E+03  0.24533659484E+03  0.17300000000E+03 0.  1.
<mgrwt>
<rscale>  2 0.20952185E+03</rscale>
<asrwt>0</asrwt>
<pdfrwt beam="1">  1       21 0.15618302E-01 0.20952185E+03</pdfrwt>
<pdfrwt beam="2">  1       21 0.68261592E-01 0.20952185E+03</pdfrwt>
<totfact> 0.70826393E+04</totfact>
</mgrwt>
</event>
<event>
 4    1  0.4365842E+000  0.1782527E+03  0.7546771E-02  0.1169505E+00
         21   -1    0    0  503  502  0.00000000000E+00  0.00000000000E+00  0.41038647390E+02  0.41038647390E+02  0.00000000000E+00 0.  1.
         21   -1    0    0  501  503 -0.00000000000E+00 -0.00000000000E+00 -0.92530443243E+03  0.92530443243E+03  0.00000000000E+00 0.  1.
          6    1    1    2  501    0  0.33650794550E+02  0.26695544064E+02 -0.63735582368E+03  0.66181302044E+03  0.17300000000E+03 0.  1.
         -6    1    1    2    0  502 -0.33650794550E+02 -0.26695544064E+02 -0.24690996136E+03  0.30453005938E+03  0.17300000000E+03 0.  1.
<mgrwt>
<rscale>  2 0.17825271E+03</rscale>
<asrwt>0</asrwt>
<pdfrwt beam="1">  1       21 0.63136378E-02 0.17825271E+03</pdfrwt>
<pdfrwt beam="2">  1       21 0.14235453E+00 0.17825271E+03</pdfrwt>
<totfact> 0.62390227E+04</totfact>
</mgrwt>
</event>
<event>
 4    1  0.4365842E+000  0.1962518E+03  0.7546771E-02  0.1152940E+00
         21   -1    0    0  501  502  0.00000000000E+00  0.00000000000E+00  0.47745843448E+02  0.47745843448E+02  0.00000000000E+00 0.  1.
         21   -1    0    0  502  503 -0.00000000000E+00 -0.00000000000E+00 -0.13996040557E+04  0.13996040557E+04  0.00000000000E+00 0.  1.
          6    1    1    2  501    0 -0.89593883406E+02 -0.23637075809E+02 -0.20490087786E+03  0.28372371251E+03  0.17300000000E+03 0.  1.
         -6    1    1    2    0  503  0.89593883406E+02  0.23637075809E+02 -0.11469573344E+04  0.11636261866E+04  0.17300000000E+03 0.  1.
<mgrwt>
<rscale>  2 0.19625182E+03</rscale>
<asrwt>0</asrwt>
<pdfrwt beam="1">  1       21 0.73455143E-02 0.19625182E+03</pdfrwt>
<pdfrwt beam="2">  1       21 0.21532370E+00 0.19625182E+03</pdfrwt>
<totfact> 0.14917140E+04</totfact>
</mgrwt>
</event>
<event>
 4    1  0.4365842E+000  0.2036678E+03  0.7546771E-02  0.1146681E+00
         21   -1    0    0  501  502  0.00000000000E+00  0.00000000000E+00  0.56874207044E+02  0.56874207044E+02  0.00000000000E+00 0.  1.
         21   -1    0    0  502  503 -0.00000000000E+00 -0.00000000000E+00 -0.80698447443E+03  0.80698447443E+03  0.00000000000E+00 0. -1.
          6    1    1    2  501    0  0.13012547574E+02 -0.10668759428E+03 -0.24107556044E+03  0.31559150022E+03  0.17300000000E+03 0. -1.
         -6    1    1    2    0  503 -0.13012547574E+02  0.10668759428E+03 -0.50903470694E+03  0.54826718125E+03  0.17300000000E+03 0.  1.
<mgrwt>
<rscale>  2 0.20366779E+03</rscale>
<asrwt>0</asrwt>
<pdfrwt beam="1">  1       21 0.87498792E-02 0.20366779E+03</pdfrwt>
<pdfrwt beam="2">  1       21 0.12415144E+00 0.20366779E+03</pdfrwt>
<totfact> 0.49503746E+04</totfact>
</mgrwt>
</event>
<event>
 4    1  0.4365842E+000  0.1965778E+03  0.7546771E-02  0.1152659E+00
         21   -1    0    0  503  502  0.00000000000E+00  0.00000000000E+00  0.11970377927E+03  0.11970377927E+03  0.00000000000E+00 0.  1.
         21   -1    0    0  501  503 -0.00000000000E+00 -0.00000000000E+00 -0.33774111293E+03  0.33774111293E+03  0.00000000000E+00 0. -1.
          6    1    1    2  501    0 -0.22210001347E+02 -0.90667126979E+02 -0.60944385082E+02  0.20580823635E+03  0.17300000000E+03 0.  1.
         -6    1    1    2    0  502  0.22210001347E+02  0.90667126979E+02 -0.15709294858E+03  0.25163665585E+03  0.17300000000E+03 0.  1.
<mgrwt>
<rscale>  2 0.19657775E+03</rscale>
<asrwt>0</asrwt>
<pdfrwt beam="1">  1       21 0.18415967E-01 0.19657775E+03</pdfrwt>
<pdfrwt beam="2">  1       21 0.51960170E-01 0.19657775E+03</pdfrwt>
<totfact> 0.94477075E+04</totfact>
</mgrwt>
</event>
<event>
 4    1  0.4365842E+000  0.1844504E+03  0.7546771E-02  0.1163564E+00
         21   -1    0    0  503  502  0.00000000000E+00  0.00000000000E+00  0.56332686677E+02  0.56332686677E+02  0.00000000000E+00 0.  1.
         21   -1    0    0  501  503 -0.00000000000E+00 -0.00000000000E+00 -0.64058718810E+03  0.64058718810E+03  0.00000000000E+00 0.  1.
          6    1    1    2  501    0 -0.61857019080E+02  0.16329165101E+02 -0.37546565365E+03  0.41832569789E+03  0.17300000000E+03 0.  1.
         -6    1    1    2    0  502  0.61857019080E+02 -0.16329165101E+02 -0.20878884777E+03  0.27859417689E+03  0.17300000000E+03 0.  1.
<mgrwt>
<rscale>  2 0.18445035E+03</rscale>
<asrwt>0</asrwt>
<pdfrwt beam="1">  1       21 0.86665672E-02 0.18445035E+03</pdfrwt>
<pdfrwt beam="2">  1       21 0.98551875E-01 0.18445035E+03</pdfrwt>
<totfact> 0.88990740E+04</totfact>
</mgrwt>
</event>
<event>
 4    1  0.4365842E+000  0.1963068E+03  0.7546771E-02  0.1152893E+00
         21   -1    0    0  503  502  0.00000000000E+00  0.00000000000E+00  0.97074609263E+03  0.97074609263E+03  0.00000000000E+00 0.  1.
         21   -1    0    0  501  503 -0.00000000000E+00 -0.00000000000E+00 -0.10788987456E+03  0.10788987456E+03  0.00000000000E+00 0.  1.
          6    1    1    2  501    0  0.78050633503E+02 -0.50154449177E+02  0.26605846853E+01  0.19632485547E+03  0.17300000000E+03 0.  1.
         -6    1    1    2    0  502 -0.78050633503E+02  0.50154449177E+02  0.86019563339E+03  0.88231111172E+03  0.17300000000E+03 0.  1.
<mgrwt>
<rscale>  2 0.19630683E+03</rscale>
<asrwt>0</asrwt>
<pdfrwt beam="1">  1       21 0.14934555E+00 0.19630683E+03</pdfrwt>
<pdfrwt beam="2">  1       21 0.16598443E-01 0.19630683E+03</pdfrwt>
<totfact> 0.98291493E+03</totfact>
</mgrwt>
</event>
<event>
 4    1  0.4365842E+000  0.2288668E+03  0.7546771E-02  0.1127440E+00
         21   -1    0    0  501  502  0.00000000000E+00  0.00000000000E+00  0.53701167766E+03  0.53701167766E+03  0.00000000000E+00 0. -1.
         21   -1    0    0  502  503 -0.00000000000E+00 -0.00000000000E+00 -0.98903411313E+02  0.98903411313E+02  0.00000000000E+00 0.  1.
          6    1    1    2  501    0  0.14464384796E+03 -0.39104635919E+02  0.25638840706E+03  0.34367867344E+03  0.17300000000E+03 0.  1.
         -6    1    1    2    0  503 -0.14464384796E+03  0.39104635919E+02  0.18171985929E+03  0.29223641553E+03  0.17300000000E+03 0. -1.
<mgrwt>
<rscale>  2 0.22886681E+03</rscale>
<asrwt>0</asrwt>
<pdfrwt beam="1">  1       21 0.82617179E-01 0.22886681E+03</pdfrwt>
<pdfrwt beam="2">  1       21 0.15215910E-01 0.22886681E+03</pdfrwt>
<totfact> 0.48019835E+04</totfact>
</mgrwt>
</event>
<event>
 4    1  0.4365842E+000  0.1762552E+03  0.7546771E-02  0.1171477E+00
         21   -1    0    0  501  502  0.00000000000E+00  0.00000000000E+00  0.39795383061E+03  0.39795383061E+03  0.00000000000E+00 0. -1.
         21   -1    0    0  502  503 -0.00000000000E+00 -0.00000000000E+00 -0.96014923075E+02  0.96014923075E+02  0.00000000000E+00 0. -1.
          6    1    1    2  501    0  0.23308604779E+02  0.24364182761E+02  0.25776235694E+03  0.31226164849E+03  0.17300000000E+03 0. -1.
         -6    1    1    2    0  503 -0.23308604779E+02 -0.24364182761E+02  0.44176550593E+02  0.18170710520E+03  0.17300000000E+03 0. -1.
<mgrwt>
<rscale>  2 0.17625523E+03</rscale>
<asrwt>0</asrwt>
<pdfrwt beam="1">  1       21 0.61223665E-01 0.17625523E+03</pdfrwt>
<pdfrwt beam="2">  1       21 0.14771527E-01 0.17625523E+03</pdfrwt>
<totfact> 0.10071986E+05</totfact>
</mgrwt>
</event>
<event>
 4    1  0.4365842E+000  0.1746681E+03  0.7546771E-02  0.1173065E+00
         21   -1    0    0  501  502  0.00000000000E+00  0.00000000000E+00  0.48888116272E+03  0.48888116272E+03  0.00000000000E+00 0. -1.
         21   -1    0    0  502  503 -0.00000000000E+00 -0.00000000000E+00 -0.91143004475E+02  0.91143004475E+02  0.00000000000E+00 0. -1.
          6    1    1    2  501    0 -0.17669507757E+02 -0.16362579453E+02  0.36171535627E+03  0.40168015195E+03  0.17300000000E+03 0.  1.
         -6    1    1    2    0  503  0.17669507757E+02  0.16362579453E+02  0.36022801975E+02  0.17834401524E+03  0.17300000000E+03 0.  1.
<mgrwt>
<rscale>  2 0.17466810E+03</rscale>
<asrwt>0</asrwt>
<pdfrwt beam="1">  1       21 0.75212485E-01 0.17466810E+03</pdfrwt>
<pdfrwt beam="2">  1       21 0.14022001E-01 0.17466810E+03</pdfrwt>
<totfact> 0.70607449E+04</totfact>
</mgrwt>
</event>
<event>
 4    1  0.4365842E+000  0.2078594E+03  0.7546771E-02  0.1143272E+00
         21   -1    0    0  503  502  0.00000000000E+00  0.00000000000E+00  0.24712951767E+03  0.24712951767E+03  0.00000000000E+00 0. -1.
         21   -1    0    0  501  503 -0.00000000000E+00 -0.00000000000E+00 -0.42385779093E+03  0.42385779093E+03  0.00000000000E+00 0.  1.
          6    1    1    2  501    0  0.20722150169E+02 -0.11334517081E+03 -0.34552125496E+03  0.40322508960E+03  0.17300000000E+03 0.  1.
         -6    1    1    2    0  502 -0.20722150169E+02  0.11334517081E+03  0.16879298169E+03  0.26776221900E+03  0.17300000000E+03 0. -1.
<mgrwt>
<rscale>  2 0.20785941E+03</rscale>
<asrwt>0</asrwt>
<pdfrwt beam="1">  1       21 0.38019926E-01 0.20785941E+03</pdfrwt>
<pdfrwt beam="2">  1       21 0.65208890E-01 0.20785941E+03</pdfrwt>
<totfact> 0.14299585E+04</totfact>
</mgrwt>
</event>
<event>
 4    1  0.4365842E+000  0.2302664E+03  0.7546771E-02  0.1126452E+00
         21   -1    0    0  501  502  0.00000000000E+00  0.00000000000E+00  0.12413674115E+03  0.12413674115E+03  0.00000000000E+00 0.  1.
         21   -1    0    0  502  503 -0.00000000000E+00 -0.00000000000E+00 -0.49468371398E+03  0.49468371398E+03  0.00000000000E+00 0. -1.
          6    1    1    2  501    0  0.71470582924E+02 -0.13411022081E+03 -0.70934673313E+02  0.24094464806E+03  0.17300000000E+03 0.  1.
         -6    1    1    2    0  503 -0.71470582924E+02  0.13411022081E+03 -0.29961229952E+03  0.37787580708E+03  0.17300000000E+03 0. -1.
<mgrwt>
<rscale>  2 0.23026636E+03</rscale>
<asrwt>0</asrwt>
<pdfrwt beam="1">  1       21 0.19097960E-01 0.23026636E+03</pdfrwt>
<pdfrwt beam="2">  1       21 0.76105187E-01 0.23026636E+03</pdfrwt>
<totfact> 0.37983314E+04</totfact>
</mgrwt>
</event>
<event>
 4    1  0.4365842E+000  0.2087082E+03  0.7546771E-02  0.1142593E+00
         21   -1    0    0  503  502  0.00000000000E+00  0.00000000000E+00  0.22800983159E+04  0.22800983159E+04  0.00000000000E+00 0. -1.
         21   -1    0    0  501  503 -0.00000000000E+00 -0.00000000000E+00 -0.19815284296E+02  0.19815284296E+02  0.00000000000E+00 0.  1.
          6    1    1    2  501    0 -0.44323680928E+02  0.10800696061E+03  0.13480079848E+04  0.13640691402E+04  0.17300000000E+03 0.  1.
         -6    1    1    2    0  502  0.44323680928E+02 -0.10800696061E+03  0.91227504676E+03  0.93584445993E+03  0.17300000000E+03 0.  1.
<mgrwt>
<rscale>  2 0.20870815E+03</rscale>
<asrwt>0</asrwt>
<pdfrwt beam="1">  1       21 0.35078415E+00 0.20870815E+03</pdfrwt>
<pdfrwt beam="2">  1       21 0.30485071E-02 0.20870815E+03</pdfrwt>
<totfact> 0.10466270E+04</totfact>
</mgrwt>
</event>
<event>
 4    1  0.4365842E+000  0.2734658E+03  0.7546771E-02  0.1099312E+00
         21   -1    0    0  503  502  0.00000000000E+00  0.00000000000E+00  0.25524232864E+03  0.25524232864E+03  0.00000000000E+00 0. -1.
         21   -1    0    0  501  503 -0.00000000000E+00 -0.00000000000E+00 -0.50862284800E+03  0.50862284800E+03  0.00000000000E+00 0. -1.
          6    1    1    2  501    0 -0.16926524391E+03  0.12729425091E+03 -0.37537311849E+03  0.46442278927E+03  0.17300000000E+03 0. -1.
         -6    1    1    2    0  502  0.16926524391E+03 -0.12729425091E+03  0.12199259913E+03  0.29944238737E+03  0.17300000000E+03 0. -1.
<mgrwt>
<rscale>  2 0.27346581E+03</rscale>
<asrwt>0</asrwt>
<pdfrwt beam="1">  1       21 0.39268050E-01 0.27346581E+03</pdfrwt>
<pdfrwt beam="2">  1       21 0.78249669E-01 0.27346581E+03</pdfrwt>
<totfact> 0.86024192E+03</totfact>
</mgrwt>
</event>
<event>
 4    1  0.4365842E+000  0.1778711E+03  0.7546771E-02  0.1169879E+00
         21   -1    0    0  503  502  0.00000000000E+00  0.00000000000E+00  0.16376982693E+03  0.16376982693E+03  0.00000000000E+00 0.  1.
         21   -1    0    0  501  503 -0.00000000000E+00 -0.00000000000E+00 -0.22058457338E+03  0.22058457338E+03  0.00000000000E+00 0.  1.
          6    1    1    2  501    0 -0.26721627945E+02  0.31545039218E+02 -0.96136202507E+02  0.20218878389E+03  0.17300000000E+03 0. -1.
         -6    1    1    2    0  502  0.26721627945E+02 -0.31545039218E+02  0.39321456062E+02  0.18216561642E+03  0.17300000000E+03 0. -1.
<mgrwt>
<rscale>  2 0.17787112E+03</rscale>
<asrwt>0</asrwt>
<pdfrwt beam="1">  1       21 0.25195358E-01 0.17787112E+03</pdfrwt>
<pdfrwt beam="2">  1       21 0.33936088E-01 0.17787112E+03</pdfrwt>
<totfact> 0.12548329E+05</totfact>
</mgrwt>
</event>
<event>
 4    1  0.4365842E+000  0.2316969E+03  0.7546771E-02  0.1125451E+00
         21   -1    0    0  501  502  0.00000000000E+00  0.00000000000E+00  0.56746883955E+03  0.56746883955E+03  0.00000000000E+00 0.  1.
         21   -1    0    0  502  503 -0.00000000000E+00 -0.00000000000E+00 -0.10544420442E+03  0.10544420442E+03  0.00000000000E+00 0.  1.
          6    1    1    2  501    0 -0.15400101731E+03  0.61745290160E+01  0.12312132756E+03  0.26237816113E+03  0.17300000000E+03 0.  1.
         -6    1    1    2    0  503  0.15400101731E+03 -0.61745290160E+01  0.33890330757E+03  0.41053488284E+03  0.17300000000E+03 0.  1.
<mgrwt>
<rscale>  2 0.23169687E+03</rscale>
<asrwt>0</asrwt>
<pdfrwt beam="1">  1       21 0.87302896E-01 0.23169687E+03</pdfrwt>
<pdfrwt beam="2">  1       21 0.16222186E-01 0.23169687E+03</pdfrwt>
<totfact> 0.37560846E+04</totfact>
</mgrwt>
</event>
<event>
 4    1  0.4365842E+000  0.1802401E+03  0.7546771E-02  0.1167571E+00
         21   -1    0    0  501  502  0.00000000000E+00  0.00000000000E+00  0.45151313648E+02  0.45151313648E+02  0.00000000000E+00 0. -1.
         21   -1    0    0  502  503 -0.00000000000E+00 -0.00000000000E+00 -0.75749558220E+03  0.75749558220E+03  0.00000000000E+00 0.  1.
          6    1    1    2  501    0 -0.28118441868E+02 -0.42033687645E+02 -0.26629330084E+03  0.32155652651E+03  0.17300000000E+03 0. -1.
         -6    1    1    2    0  503  0.28118441868E+02  0.42033687645E+02 -0.44605096772E+03  0.48109036934E+03  0.17300000000E+03 0. -1.
<mgrwt>
<rscale>  2 0.18024006E+03</rscale>
<asrwt>0</asrwt>
<pdfrwt beam="1">  1       21 0.69463565E-02 0.18024006E+03</pdfrwt>
<pdfrwt beam="2">  1       21 0.11653777E+00 0.18024006E+03</pdfrwt>
<totfact> 0.87482291E+04</totfact>
</mgrwt>
</event>
<event>
 4    1  0.4365842E+000  0.1780766E+03  0.7546771E-02  0.1169678E+00
         21   -1    0    0  503  502  0.00000000000E+00  0.00000000000E+00  0.38660367115E+02  0.38660367115E+02  0.00000000000E+00 0.  1.
         21   -1    0    0  501  503 -0.00000000000E+00 -0.00000000000E+00 -0.10665290176E+04  0.10665290176E+04  0.00000000000E+00 0.  1.
          6    1    1    2  501    0  0.35982804586E+02 -0.22079537582E+02 -0.77947542488E+03  0.79955813185E+03  0.17300000000E+03 0.  1.
         -6    1    1    2    0  502 -0.35982804586E+02  0.22079537582E+02 -0.24839322561E+03  0.30563125288E+03  0.17300000000E+03 0.  1.
<mgrwt>
<rscale>  2 0.17807658E+03</rscale>
<asrwt>0</asrwt>
<pdfrwt beam="1">  1       21 0.59477487E-02 0.17807658E+03</pdfrwt>
<pdfrwt beam="2">  1       21 0.16408139E+00 0.17807658E+03</pdfrwt>
<totfact> 0.47465263E+04</totfact>
</mgrwt>
</event>
<event>
 4    1  0.4365842E+000  0.2226790E+03  0.7546771E-02  0.1131901E+00
         21   -1    0    0  503  502  0.00000000000E+00  0.00000000000E+00  0.15826789403E+03  0.15826789403E+03  0.00000000000E+00 0. -1.
         21   -1    0    0  501  503 -0.00000000000E+00 -0.00000000000E+00 -0.58382984355E+03  0.58382984355E+03  0.00000000000E+00 0.  1.
          6    1    1    2  501    0  0.13249007346E+03 -0.45862104651E+02 -0.46535716460E+03  0.51589072763E+03  0.17300000000E+03 0.  1.
         -6    1    1    2    0  502 -0.13249007346E+03  0.45862104651E+02  0.39795215070E+02  0.22620700995E+03  0.17300000000E+03 0. -1.
<mgrwt>
<rscale>  2 0.22267903E+03</rscale>
<asrwt>0</asrwt>
<pdfrwt beam="1">  1       21 0.24348906E-01 0.22267903E+03</pdfrwt>
<pdfrwt beam="2">  1       21 0.89819978E-01 0.22267903E+03</pdfrwt>
<totfact> 0.16504407E+04</totfact>
</mgrwt>
</event>
<event>
 4    1  0.4365842E+000  0.3969435E+03  0.7546771E-02  0.1044843E+00
         21   -1    0    0  501  502  0.00000000000E+00  0.00000000000E+00  0.15537591661E+03  0.15537591661E+03  0.00000000000E+00 0.  1.
         21   -1    0    0  502  503 -0.00000000000E+00 -0.00000000000E+00 -0.10340207899E+04  0.10340207899E+04  0.00000000000E+00 0. -1.
          6    1    1    2  501    0 -0.13925639728E+03  0.32900273327E+03 -0.52190073097E+03  0.65570154466E+03  0.17300000000E+03 0.  1.
         -6    1    1    2    0  503  0.13925639728E+03 -0.32900273327E+03 -0.35674414229E+03  0.53369516181E+03  0.17300000000E+03 0. -1.
<mgrwt>
<rscale>  2 0.39694350E+03</rscale>
<asrwt>0</asrwt>
<pdfrwt beam="1">  1       21 0.23903988E-01 0.39694350E+03</pdfrwt>
<pdfrwt beam="2">  1       21 0.15908012E+00 0.39694350E+03</pdfrwt>
<totfact> 0.37226754E+03</totfact>
</mgrwt>
</event>
<event>
 4    1  0.4365842E+000  0.2007236E+03  0.7546771E-02  0.1149130E+00
         21   -1    0    0  501  502  0.00000000000E+00  0.00000000000E+00  0.70576220587E+03  0.70576220587E+03  0.00000000000E+00 0. -1.
         21   -1    0    0  502  503 -0.00000000000E+00 -0.00000000000E+00 -0.12812607529E+03  0.12812607529E+03  0.00000000000E+00 0. -1.
          6    1    1    2  501    0 -0.43315446257E+02 -0.92112523135E+02  0.59927927101E+03  0.63200125749E+03  0.17300000000E+03 0. -1.
         -6    1    1    2    0  503  0.43315446257E+02  0.92112523135E+02 -0.21643140429E+02  0.20188702368E+03  0.17300000000E+03 0. -1.
<mgrwt>
<rscale>  2 0.20072355E+03</rscale>
<asrwt>0</asrwt>
<pdfrwt beam="1">  1       21 0.10857880E+00 0.20072355E+03</pdfrwt>
<pdfrwt beam="2">  1       21 0.19711704E-01 0.20072355E+03</pdfrwt>
<totfact> 0.15899985E+04</totfact>
</mgrwt>
</event>
<event>
 4    1  0.4365842E+000  0.1960193E+03  0.7546771E-02  0.1153142E+00
         21   -1    0    0  503  502  0.00000000000E+00  0.00000000000E+00  0.64970103705E+02  0.64970103705E+02  0.00000000000E+00 0. -1.
         21   -1    0    0  501  503 -0.00000000000E+00 -0.00000000000E+00 -0.71764981407E+03  0.71764981407E+03  0.00000000000E+00 0.  1.
          6    1    1    2  501    0 -0.70679254059E+02 -0.59152309727E+02 -0.49046450331E+03  0.52818460949E+03  0.17300000000E+03 0.  1.
         -6    1    1    2    0  502  0.70679254059E+02  0.59152309727E+02 -0.16221520706E+03  0.25443530828E+03  0.17300000000E+03 0. -1.
<mgrwt>
<rscale>  2 0.19601927E+03</rscale>
<asrwt>0</asrwt>
<pdfrwt beam="1">  1       21 0.99954009E-02 0.19601927E+03</pdfrwt>
<pdfrwt beam="2">  1       21 0.11040766E+00 0.19601927E+03</pdfrwt>
<totfact> 0.52476200E+04</totfact>
</mgrwt>
</event>
<event>
 4    1  0.4365842E+000  0.2064355E+03  0.7546771E-02  0.1144420E+00
         21   -1    0    0  501  502  0.00000000000E+00  0.00000000000E+00  0.35750427092E+03  0.35750427092E+03  0.00000000000E+00 0. -1.
         21   -1    0    0  502  503 -0.00000000000E+00 -0.00000000000E+00 -0.12199738287E+03  0.12199738287E+03  0.00000000000E+00 0. -1.
          6    1    1    2  501    0 -0.59832689277E+02 -0.95428911431E+02  0.15403766154E+03  0.25757179391E+03  0.17300000000E+03 0. -1.
         -6    1    1    2    0  503  0.59832689277E+02  0.95428911431E+02  0.81469226505E+02  0.22192985989E+03  0.17300000000E+03 0. -1.
<mgrwt>
<rscale>  2 0.20643553E+03</rscale>
<asrwt>0</asrwt>
<pdfrwt beam="1">  1       21 0.55000657E-01 0.20643553E+03</pdfrwt>
<pdfrwt beam="2">  1       21 0.18768828E-01 0.20643553E+03</pdfrwt>
<totfact> 0.80562259E+04</totfact>
</mgrwt>
</event>
<event>
 4    1  0.4365842E+000  0.1789488E+03  0.7546771E-02  0.1168824E+00
         21   -1    0    0  503  502  0.00000000000E+00  0.00000000000E+00  0.42877369080E+02  0.42877369080E+02  0.00000000000E+00 0. -1.
         21   -1    0    0  501  503 -0.00000000000E+00 -0.00000000000E+00 -0.10692645720E+04  0.10692645720E+04  0.00000000000E+00 0. -1.
          6    1    1    2  501    0  0.45703838419E+02  0.21960192254E+01 -0.81854483173E+03  0.83787726124E+03  0.17300000000E+03 0. -1.
         -6    1    1    2    0  502 -0.45703838419E+02 -0.21960192254E+01 -0.20784237118E+03  0.27426467984E+03  0.17300000000E+03 0. -1.
<mgrwt>
<rscale>  2 0.17894877E+03</rscale>
<asrwt>0</asrwt>
<pdfrwt beam="1">  1       21 0.65965190E-02 0.17894877E+03</pdfrwt>
<pdfrwt beam="2">  1       21 0.16450223E+00 0.17894877E+03</pdfrwt>
<totfact> 0.39454561E+04</totfact>
</mgrwt>
</event>
<event>
 4    1  0.4365842E+000  0.1819402E+03  0.7546771E-02  0.1165938E+00
         21   -1    0    0  503  502  0.00000000000E+00  0.00000000000E+00  0.43466104301E+03  0.43466104301E+03  0.00000000000E+00 0. -1.
         21   -1    0    0  501  503 -0.00000000000E+00 -0.00000000000E+00 -0.95836969288E+02  0.95836969288E+02  0.00000000000E+00 0.  1.
          6    1    1    2  501    0 -0.15985085771E+02 -0.54015936599E+02  0.49211766117E+02  0.18847822765E+03  0.17300000000E+03 0.  1.
         -6    1    1    2    0  502  0.15985085771E+02  0.54015936599E+02  0.28961230761E+03  0.34201978465E+03  0.17300000000E+03 0. -1.
<mgrwt>
<rscale>  2 0.18194022E+03</rscale>
<asrwt>0</asrwt>
<pdfrwt beam="1">  1       21 0.66870928E-01 0.18194022E+03</pdfrwt>
<pdfrwt beam="2">  1       21 0.14744149E-01 0.18194022E+03</pdfrwt>
<totfact> 0.83284560E+04</totfact>
</mgrwt>
</event>
<event>
 4    1  0.4365842E+000  0.1806589E+03  0.7546771E-02  0.1167167E+00
         21   -1    0    0  503  502  0.00000000000E+00  0.00000000000E+00  0.11670321728E+03  0.11670321728E+03  0.00000000000E+00 0.  1.
         21   -1    0    0  501  503 -0.00000000000E+00 -0.00000000000E+00 -0.34058000262E+03  0.34058000262E+03  0.00000000000E+00 0.  1.
          6    1    1    2  501    0  0.51991166516E+02 -0.23577874285E+01 -0.20863536179E+03  0.27598252616E+03  0.17300000000E+03 0.  1.
         -6    1    1    2    0  502 -0.51991166516E+02  0.23577874285E+01 -0.15241423559E+02  0.18130069374E+03  0.17300000000E+03 0.  1.
<mgrwt>
<rscale>  2 0.18065891E+03</rscale>
<asrwt>0</asrwt>
<pdfrwt beam="1">  1       21 0.17954342E-01 0.18065891E+03</pdfrwt>
<pdfrwt beam="2">  1       21 0.52396922E-01 0.18065891E+03</pdfrwt>
<totfact> 0.97899777E+04</totfact>
</mgrwt>
</event>
<event>
 4    1  0.4365842E+000  0.2279099E+03  0.7546771E-02  0.1128120E+00
         21   -1    0    0  503  502  0.00000000000E+00  0.00000000000E+00  0.29318173934E+03  0.29318173934E+03  0.00000000000E+00 0. -1.
         21   -1    0    0  501  503 -0.00000000000E+00 -0.00000000000E+00 -0.17795269972E+03  0.17795269972E+03  0.00000000000E+00 0. -1.
          6    1    1    2  501    0 -0.13712221119E+03  0.56669317210E+02  0.73240648563E+02  0.23938902422E+03  0.17300000000E+03 0. -1.
         -6    1    1    2    0  502  0.13712221119E+03 -0.56669317210E+02  0.41988391049E+02  0.23174541484E+03  0.17300000000E+03 0. -1.
<mgrwt>
<rscale>  2 0.22790988E+03</rscale>
<asrwt>0</asrwt>
<pdfrwt beam="1">  1       21 0.45104883E-01 0.22790988E+03</pdfrwt>
<pdfrwt beam="2">  1       21 0.27377338E-01 0.22790988E+03</pdfrwt>
<totfact> 0.59071186E+04</totfact>
</mgrwt>
</event>
<event>
 4    1  0.4365842E+000  0.4438721E+03  0.7546771E-02  0.1029565E+00
         21   -1    0    0  503  502  0.00000000000E+00  0.00000000000E+00  0.21271962316E+03  0.21271962316E+03  0.00000000000E+00 0. -1.
         21   -1    0    0  501  503 -0.00000000000E+00 -0.00000000000E+00 -0.13860445336E+04  0.13860445336E+04  0.00000000000E+00 0.  1.
          6    1    1    2  501    0 -0.34032002961E+03 -0.22644141114E+03 -0.10470970580E+04  0.11372926994E+04  0.17300000000E+03 0.  1.
         -6    1    1    2    0  502  0.34032002961E+03  0.22644141114E+03 -0.12622785244E+03  0.46147145736E+03  0.17300000000E+03 0. -1.
<mgrwt>
<rscale>  2 0.44387209E+03</rscale>
<asrwt>0</asrwt>
<pdfrwt beam="1">  1       21 0.32726096E-01 0.44387209E+03</pdfrwt>
<pdfrwt beam="2">  1       21 0.21323762E+00 0.44387209E+03</pdfrwt>
<totfact> 0.82679768E+02</totfact>
</mgrwt>
</event>
<event>
 4    1  0.4365842E+000  0.1985425E+03  0.7546771E-02  0.1150975E+00
         21   -1    0    0  503  502  0.00000000000E+00  0.00000000000E+00  0.14414675295E+03  0.14414675295E+03  0.00000000000E+00 0.  1.
         21   -1    0    0  501  503 -0.00000000000E+00 -0.00000000000E+00 -0.14571565094E+04  0.14571565094E+04  0.00000000000E+00 0.  1.
          6    1    1    2  501    0  0.52697413546E+02  0.81933526392E+02 -0.13781268077E+04  0.13923550619E+04  0.17300000000E+03 0.  1.
         -6    1    1    2    0  502 -0.52697413546E+02 -0.81933526392E+02  0.65117051229E+02  0.20894820052E+03  0.17300000000E+03 0.  1.
<mgrwt>
<rscale>  2 0.19854249E+03</rscale>
<asrwt>0</asrwt>
<pdfrwt beam="1">  1       21 0.22176423E-01 0.19854249E+03</pdfrwt>
<pdfrwt beam="2">  1       21 0.22417793E+00 0.19854249E+03</pdfrwt>
<totfact> 0.17919964E+03</totfact>
</mgrwt>
</event>
<event>
 4    1  0.4365842E+000  0.2364199E+03  0.7546771E-02  0.1122201E+00
         21   -1    0    0  503  502  0.00000000000E+00  0.00000000000E+00  0.36227237759E+03  0.36227237759E+03  0.00000000000E+00 0.  1.
         21   -1    0    0  501  503 -0.00000000000E+00 -0.00000000000E+00 -0.25560457592E+03  0.25560457592E+03  0.00000000000E+00 0. -1.
          6    1    1    2  501    0 -0.29560618395E+02  0.15840309012E+03 -0.14116959749E+03  0.27536017210E+03  0.17300000000E+03 0. -1.
         -6    1    1    2    0  502  0.29560618395E+02 -0.15840309012E+03  0.24783739916E+03  0.34251678141E+03  0.17300000000E+03 0.  1.
<mgrwt>
<rscale>  2 0.23641990E+03</rscale>
<asrwt>0</asrwt>
<pdfrwt beam="1">  1       21 0.55734212E-01 0.23641990E+03</pdfrwt>
<pdfrwt beam="2">  1       21 0.39323781E-01 0.23641990E+03</pdfrwt>
<totfact> 0.18440410E+04</totfact>
</mgrwt>
</event>
<event>
 4    1  0.4365842E+000  0.1863677E+03  0.7546771E-02  0.1161779E+00
         21   -1    0    0  503  502  0.00000000000E+00  0.00000000000E+00  0.45235142547E+03  0.45235142547E+03  0.00000000000E+00 0. -1.
         21   -1    0    0  501  503 -0.00000000000E+00 -0.00000000000E+00 -0.28055429848E+03  0.28055429848E+03  0.00000000000E+00 0. -1.
          6    1    1    2  501    0  0.41051194006E+02 -0.55845393746E+02 -0.22640802010E+03  0.29324648352E+03  0.17300000000E+03 0. -1.
         -6    1    1    2    0  502 -0.41051194006E+02  0.55845393746E+02  0.39820514709E+03  0.43965924043E+03  0.17300000000E+03 0. -1.
<mgrwt>
<rscale>  2 0.18636767E+03</rscale>
<asrwt>0</asrwt>
<pdfrwt beam="1">  1       21 0.69592527E-01 0.18636767E+03</pdfrwt>
<pdfrwt beam="2">  1       21 0.43162200E-01 0.18636767E+03</pdfrwt>
<totfact> 0.97290060E+03</totfact>
</mgrwt>
</event>
<event>
 4    1  0.4365842E+000  0.2413908E+03  0.7546771E-02  0.1118870E+00
         21   -1    0    0  503  502  0.00000000000E+00  0.00000000000E+00  0.55167277198E+02  0.55167277198E+02  0.00000000000E+00 0.  1.
         21   -1    0    0  501  503 -0.00000000000E+00 -0.00000000000E+00 -0.11106335593E+04  0.11106335593E+04  0.00000000000E+00 0. -1.
          6    1    1    2  501    0  0.51550991557E+02  0.16025922754E+03 -0.65673880209E+03  0.69969663348E+03  0.17300000000E+03 0. -1.
         -6    1    1    2    0  502 -0.51550991557E+02 -0.16025922754E+03 -0.39872747999E+03  0.46610420299E+03  0.17300000000E+03 0. -1.
<mgrwt>
<rscale>  2 0.24139081E+03</rscale>
<asrwt>0</asrwt>
<pdfrwt beam="1">  1       21 0.84872729E-02 0.24139081E+03</pdfrwt>
<pdfrwt beam="2">  1       21 0.17086671E+00 0.24139081E+03</pdfrwt>
<totfact> 0.22074485E+04</totfact>
</mgrwt>
</event>
<event>
 4    1  0.4365842E+000  0.1768954E+03  0.7546771E-02  0.1170842E+00
         21   -1    0    0  503  502  0.00000000000E+00  0.00000000000E+00  0.14874398654E+03  0.14874398654E+03  0.00000000000E+00 0.  1.
         21   -1    0    0  501  503 -0.00000000000E+00 -0.00000000000E+00 -0.23474442573E+03  0.23474442573E+03  0.00000000000E+00 0.  1.
          6    1    1    2  501    0 -0.61827549711E+01 -0.36396976569E+02 -0.10478055147E+03  0.20559895508E+03  0.17300000000E+03 0.  1.
         -6    1    1    2    0  502  0.61827549711E+01  0.36396976569E+02  0.18780112290E+02  0.17788945719E+03  0.17300000000E+03 0.  1.
<mgrwt>
<rscale>  2 0.17689535E+03</rscale>
<asrwt>0</asrwt>
<pdfrwt beam="1">  1       21 0.22883690E-01 0.17689535E+03</pdfrwt>
<pdfrwt beam="2">  1       21 0.36114527E-01 0.17689535E+03</pdfrwt>
<totfact> 0.13320333E+05</totfact>
</mgrwt>
</event>
<event>
 4    1  0.4365842E+000  0.1918333E+03  0.7546771E-02  0.1156818E+00
         21   -1    0    0  503  502  0.00000000000E+00  0.00000000000E+00  0.32555684702E+03  0.32555684702E+03  0.00000000000E+00 0. -1.
         21   -1    0    0  501  503 -0.00000000000E+00 -0.00000000000E+00 -0.11716920258E+03  0.11716920258E+03  0.00000000000E+00 0.  1.
          6    1    1    2  501    0 -0.36701303179E+02  0.74323905932E+02  0.62623865864E+02  0.20179637565E+03  0.17300000000E+03 0.  1.
         -6    1    1    2    0  502  0.36701303179E+02 -0.74323905932E+02  0.14576377857E+03  0.24092967395E+03  0.17300000000E+03 0.  1.
<mgrwt>
<rscale>  2 0.19183334E+03</rscale>
<asrwt>0</asrwt>
<pdfrwt beam="1">  1       21 0.50085669E-01 0.19183334E+03</pdfrwt>
<pdfrwt beam="2">  1       21 0.18026031E-01 0.19183334E+03</pdfrwt>
<totfact> 0.10635221E+05</totfact>
</mgrwt>
</event>
<event>
 4    1  0.4365842E+000  0.2322556E+03  0.7546771E-02  0.1125062E+00
         21   -1    0    0  501  502  0.00000000000E+00  0.00000000000E+00  0.68784495029E+03  0.68784495029E+03  0.00000000000E+00 0.  1.
         21   -1    0    0  502  503 -0.00000000000E+00 -0.00000000000E+00 -0.12782800946E+03  0.12782800946E+03  0.00000000000E+00 0. -1.
          6    1    1    2  501    0  0.13828464440E+03 -0.69935957484E+02  0.53355619803E+03  0.58191485415E+03  0.17300000000E+03 0.  1.
         -6    1    1    2    0  503 -0.13828464440E+03  0.69935957484E+02  0.26460742798E+02  0.23375810560E+03  0.17300000000E+03 0. -1.
<mgrwt>
<rscale>  2 0.23225564E+03</rscale>
<asrwt>0</asrwt>
<pdfrwt beam="1">  1       21 0.10582230E+00 0.23225564E+03</pdfrwt>
<pdfrwt beam="2">  1       21 0.19665848E-01 0.23225564E+03</pdfrwt>
<totfact> 0.16671380E+04</totfact>
</mgrwt>
</event>
<event>
 4    1  0.4365842E+000  0.2356847E+03  0.7546771E-02  0.1122701E+00
         21   -1    0    0  503  502  0.00000000000E+00  0.00000000000E+00  0.79141985623E+03  0.79141985623E+03  0.00000000000E+00 0. -1.
         21   -1    0    0  501  503 -0.00000000000E+00 -0.00000000000E+00 -0.80538434656E+02  0.80538434656E+02  0.00000000000E+00 0. -1.
          6    1    1    2  501    0 -0.13713707394E+03 -0.82533152983E+02  0.19913793036E+03  0.30855018020E+03  0.17300000000E+03 0. -1.
         -6    1    1    2    0  502  0.13713707394E+03  0.82533152983E+02  0.51174349121E+03  0.56340811069E+03  0.17300000000E+03 0. -1.
<mgrwt>
<rscale>  2 0.23568474E+03</rscale>
<asrwt>0</asrwt>
<pdfrwt beam="1">  1       21 0.12175690E+00 0.23568474E+03</pdfrwt>
<pdfrwt beam="2">  1       21 0.12390529E-01 0.23568474E+03</pdfrwt>
<totfact> 0.27545875E+04</totfact>
</mgrwt>
</event>
<event>
 4    1  0.4365842E+000  0.1769847E+03  0.7546771E-02  0.1170754E+00
         21   -1    0    0  501  502  0.00000000000E+00  0.00000000000E+00  0.32218853857E+03  0.32218853857E+03  0.00000000000E+00 0.  1.
         21   -1    0    0  502  503 -0.00000000000E+00 -0.00000000000E+00 -0.34123683853E+03  0.34123683853E+03  0.00000000000E+00 0.  1.
          6    1    1    2  501    0  0.61389353731E+01 -0.36836214351E+02  0.27098230383E+03  0.32365877434E+03  0.17300000000E+03 0.  1.
         -6    1    1    2    0  503 -0.61389353731E+01  0.36836214351E+02 -0.29003060380E+03  0.33976660276E+03  0.17300000000E+03 0.  1.
<mgrwt>
<rscale>  2 0.17698473E+03</rscale>
<asrwt>0</asrwt>
<pdfrwt beam="1">  1       21 0.49567467E-01 0.17698473E+03</pdfrwt>
<pdfrwt beam="2">  1       21 0.52497975E-01 0.17698473E+03</pdfrwt>
<totfact> 0.13488420E+04</totfact>
</mgrwt>
</event>
<event>
 4    1  0.4365842E+000  0.3060771E+03  0.7546771E-02  0.1082242E+00
         21   -1    0    0  501  502  0.00000000000E+00  0.00000000000E+00  0.18287580836E+03  0.18287580836E+03  0.00000000000E+00 0. -1.
         21   -1    0    0  502  503 -0.00000000000E+00 -0.00000000000E+00 -0.72965187553E+03  0.72965187553E+03  0.00000000000E+00 0. -1.
          6    1    1    2  501    0 -0.15156581360E+03 -0.20194553198E+03 -0.24351993859E+02  0.30704431821E+03  0.17300000000E+03 0. -1.
         -6    1    1    2    0  503  0.15156581360E+03  0.20194553198E+03 -0.52242407332E+03  0.60548336568E+03  0.17300000000E+03 0. -1.
<mgrwt>
<rscale>  2 0.30607710E+03</rscale>
<asrwt>0</asrwt>
<pdfrwt beam="1">  1       21 0.28134740E-01 0.30607710E+03</pdfrwt>
<pdfrwt beam="2">  1       21 0.11225413E+00 0.30607710E+03</pdfrwt>
<totfact> 0.70029732E+03</totfact>
</mgrwt>
</event>
<event>
 4    1  0.4365842E+000  0.2247534E+03  0.7546771E-02  0.1130388E+00
         21   -1    0    0  501  502  0.00000000000E+00  0.00000000000E+00  0.61851214418E+02  0.61851214418E+02  0.00000000000E+00 0. -1.
         21   -1    0    0  502  503 -0.00000000000E+00 -0.00000000000E+00 -0.89370446087E+03  0.89370446087E+03  0.00000000000E+00 0.  1.
          6    1    1    2  501    0 -0.10123429479E+03 -0.10166966798E+03 -0.27568494971E+03  0.35569129217E+03  0.17300000000E+03 0. -1.
         -6    1    1    2    0  503  0.10123429479E+03  0.10166966798E+03 -0.55616829674E+03  0.59986438311E+03  0.17300000000E+03 0. -1.
<mgrwt>
<rscale>  2 0.22475343E+03</rscale>
<asrwt>0</asrwt>
<pdfrwt beam="1">  1       21 0.95155714E-02 0.22475343E+03</pdfrwt>
<pdfrwt beam="2">  1       21 0.13749300E+00 0.22475343E+03</pdfrwt>
<totfact> 0.32595516E+04</totfact>
</mgrwt>
</event>
<event>
 4    1  0.4365842E+000  0.1990191E+03  0.7546771E-02  0.1150569E+00
         21   -1    0    0  501  502  0.00000000000E+00  0.00000000000E+00  0.56247088119E+02  0.56247088119E+02  0.00000000000E+00 0.  1.
         21   -1    0    0  502  503 -0.00000000000E+00 -0.00000000000E+00 -0.16903942828E+04  0.16903942828E+04  0.00000000000E+00 0.  1.
          6    1    1    2  501    0  0.98379256273E+02 -0.10522541978E+01 -0.15001592485E+03  0.24922552640E+03  0.17300000000E+03 0.  1.
         -6    1    1    2    0  503 -0.98379256273E+02  0.10522541978E+01 -0.14841312698E+04  0.14974158445E+04  0.17300000000E+03 0.  1.
<mgrwt>
<rscale>  2 0.19901906E+03</rscale>
<asrwt>0</asrwt>
<pdfrwt beam="1">  1       21 0.86533996E-02 0.19901906E+03</pdfrwt>
<pdfrwt beam="2">  1       21 0.26006062E+00 0.19901906E+03</pdfrwt>
<totfact> 0.60357694E+03</totfact>
</mgrwt>
</event>
<event>
 4    1  0.4365842E+000  0.2302267E+03  0.7546771E-02  0.1126480E+00
         21   -1    0    0  501  502  0.00000000000E+00  0.00000000000E+00  0.15009213765E+03  0.15009213765E+03  0.00000000000E+00 0. -1.
         21   -1    0    0  502  503 -0.00000000000E+00 -0.00000000000E+00 -0.53965192781E+03  0.53965192781E+03  0.00000000000E+00 0.  1.
          6    1    1    2  501    0  0.56190175885E+02  0.14113106147E+03  0.79642891021E+01  0.23036436851E+03  0.17300000000E+03 0. -1.
         -6    1    1    2    0  503 -0.56190175885E+02 -0.14113106147E+03 -0.39752407926E+03  0.45937969695E+03  0.17300000000E+03 0.  1.
<mgrwt>
<rscale>  2 0.23022665E+03</rscale>
<asrwt>0</asrwt>
<pdfrwt beam="1">  1       21 0.23091098E-01 0.23022665E+03</pdfrwt>
<pdfrwt beam="2">  1       21 0.83023374E-01 0.23022665E+03</pdfrwt>
<totfact> 0.21801444E+04</totfact>
</mgrwt>
</event>
<event>
 4    1  0.4365842E+000  0.1839698E+03  0.7546771E-02  0.1164015E+00
         21   -1    0    0  501  502  0.00000000000E+00  0.00000000000E+00  0.43570264779E+02  0.43570264779E+02  0.00000000000E+00 0. -1.
         21   -1    0    0  502  503 -0.00000000000E+00 -0.00000000000E+00 -0.88224117589E+03  0.88224117589E+03  0.00000000000E+00 0. -1.
          6    1    1    2  501    0 -0.46295503009E+02  0.42102262326E+02 -0.25929565670E+03  0.31792941304E+03  0.17300000000E+03 0. -1.
         -6    1    1    2    0  503  0.46295503009E+02 -0.42102262326E+02 -0.57937525441E+03  0.60788202763E+03  0.17300000000E+03 0. -1.
<mgrwt>
<rscale>  2 0.18396976E+03</rscale>
<asrwt>0</asrwt>
<pdfrwt beam="1">  1       21 0.67031179E-02 0.18396976E+03</pdfrwt>
<pdfrwt beam="2">  1       21 0.13572941E+00 0.18396976E+03</pdfrwt>
<totfact> 0.63441894E+04</totfact>
</mgrwt>
</event>
<event>
 4    1  0.4365842E+000  0.1864655E+03  0.7546771E-02  0.1161688E+00
         21   -1    0    0  503  502  0.00000000000E+00  0.00000000000E+00  0.55639663755E+02  0.55639663755E+02  0.00000000000E+00 0.  1.
         21   -1    0    0  501  503 -0.00000000000E+00 -0.00000000000E+00 -0.64284672749E+03  0.64284672749E+03  0.00000000000E+00 0.  1.
          6    1    1    2  501    0 -0.45218122267E+02 -0.52874379010E+02 -0.35195256571E+03  0.39829635580E+03  0.17300000000E+03 0. -1.
         -6    1    1    2    0  502  0.45218122267E+02  0.52874379010E+02 -0.23525449803E+03  0.30019003544E+03  0.17300000000E+03 0. -1.
<mgrwt>
<rscale>  2 0.18646549E+03</rscale>
<asrwt>0</asrwt>
<pdfrwt beam="1">  1       21 0.85599478E-02 0.18646549E+03</pdfrwt>
<pdfrwt beam="2">  1       21 0.98899502E-01 0.18646549E+03</pdfrwt>
<totfact> 0.90107910E+04</totfact>
</mgrwt>
</event>
<event>
 4    1  0.4365842E+000  0.2148647E+03  0.7546771E-02  0.1137771E+00
         21   -1    0    0  503  502  0.00000000000E+00  0.00000000000E+00  0.29050431699E+03  0.29050431699E+03  0.00000000000E+00 0.  1.
         21   -1    0    0  501  503 -0.00000000000E+00 -0.00000000000E+00 -0.15969458506E+03  0.15969458506E+03  0.00000000000E+00 0. -1.
          6    1    1    2  501    0  0.12705625027E+03 -0.97232926095E+01  0.81085832383E+02  0.22965571050E+03  0.17300000000E+03 0.  1.
         -6    1    1    2    0  502 -0.12705625027E+03  0.97232926095E+01  0.49723899551E+02  0.22054319155E+03  0.17300000000E+03 0. -1.
<mgrwt>
<rscale>  2 0.21486469E+03</rscale>
<asrwt>0</asrwt>
<pdfrwt beam="1">  1       21 0.44692972E-01 0.21486469E+03</pdfrwt>
<pdfrwt beam="2">  1       21 0.24568398E-01 0.21486469E+03</pdfrwt>
<totfact> 0.74531623E+04</totfact>
</mgrwt>
</event>
<event>
 4    1  0.4365842E+000  0.1975617E+03  0.7546771E-02  0.1151813E+00
         21   -1    0    0  503  502  0.00000000000E+00  0.00000000000E+00  0.10861392013E+03  0.10861392013E+03  0.00000000000E+00 0.  1.
         21   -1    0    0  501  503 -0.00000000000E+00 -0.00000000000E+00 -0.11471278821E+04  0.11471278821E+04  0.00000000000E+00 0.  1.
          6    1    1    2  501    0  0.94685952399E+02  0.11670933998E+02 -0.10395712677E+04  0.10581772351E+04  0.17300000000E+03 0.  1.
         -6    1    1    2    0  502 -0.94685952399E+02 -0.11670933998E+02  0.10573057303E+01  0.19756456711E+03  0.17300000000E+03 0.  1.
<mgrwt>
<rscale>  2 0.19756174E+03</rscale>
<asrwt>0</asrwt>
<pdfrwt beam="1">  1       21 0.16709833E-01 0.19756174E+03</pdfrwt>
<pdfrwt beam="2">  1       21 0.17648122E+00 0.19756174E+03</pdfrwt>
<totfact> 0.61673809E+03</totfact>
</mgrwt>
</event>
<event>
 4    1  0.4365842E+000  0.1735312E+03  0.7546771E-02  0.1174215E+00
         21   -1    0    0  501  502  0.00000000000E+00  0.00000000000E+00  0.56507780759E+02  0.56507780759E+02  0.00000000000E+00 0. -1.
         21   -1    0    0  502  503 -0.00000000000E+00 -0.00000000000E+00 -0.65021997986E+03  0.65021997986E+03  0.00000000000E+00 0. -1.
          6    1    1    2  501    0  0.12240458257E+02 -0.58534270880E+01 -0.14675810963E+03  0.22726863877E+03  0.17300000000E+03 0.  1.
         -6    1    1    2    0  503 -0.12240458257E+02  0.58534270880E+01 -0.44695408947E+03  0.47945912184E+03  0.17300000000E+03 0.  1.
<mgrwt>
<rscale>  2 0.17353124E+03</rscale>
<asrwt>0</asrwt>
<pdfrwt beam="1">  1       21 0.86935043E-02 0.17353124E+03</pdfrwt>
<pdfrwt beam="2">  1       21 0.10003385E+00 0.17353124E+03</pdfrwt>
<totfact> 0.85857635E+04</totfact>
</mgrwt>
</event>
<event>
 4    1  0.4365842E+000  0.2017171E+03  0.7546771E-02  0.1148298E+00
         21   -1    0    0  501  502  0.00000000000E+00  0.00000000000E+00  0.36821106087E+03  0.36821106087E+03  0.00000000000E+00 0. -1.
         21   -1    0    0  502  503 -0.00000000000E+00 -0.00000000000E+00 -0.11984407983E+03  0.11984407983E+03  0.00000000000E+00 0.  1.
          6    1    1    2  501    0 -0.87679375494E+02  0.55435840331E+02  0.19229838731E+03  0.27869064398E+03  0.17300000000E+03 0. -1.
         -6    1    1    2    0  503  0.87679375494E+02 -0.55435840331E+02  0.56068593728E+02  0.20936449671E+03  0.17300000000E+03 0.  1.
<mgrwt>
<rscale>  2 0.20171714E+03</rscale>
<asrwt>0</asrwt>
<pdfrwt beam="1">  1       21 0.56647855E-01 0.20171714E+03</pdfrwt>
<pdfrwt beam="2">  1       21 0.18437551E-01 0.20171714E+03</pdfrwt>
<totfact> 0.78371733E+04</totfact>
</mgrwt>
</event>
<event>
 4    1  0.4365842E+000  0.2052308E+03  0.7546771E-02  0.1145399E+00
         21   -1    0    0  503  502  0.00000000000E+00  0.00000000000E+00  0.12570154479E+04  0.12570154479E+04  0.00000000000E+00 0. -1.
         21   -1    0    0  501  503 -0.00000000000E+00 -0.00000000000E+00 -0.33731717807E+02  0.33731717807E+02  0.00000000000E+00 0. -1.
          6    1    1    2  501    0 -0.63020555361E+02  0.90659255039E+02  0.55904770242E+03  0.59552835743E+03  0.17300000000E+03 0. -1.
         -6    1    1    2    0  502  0.63020555361E+02 -0.90659255039E+02  0.66423602765E+03  0.69521880826E+03  0.17300000000E+03 0. -1.
<mgrwt>
<rscale>  2 0.20523082E+03</rscale>
<asrwt>0</asrwt>
<pdfrwt beam="1">  1       21 0.19338696E+00 0.20523082E+03</pdfrwt>
<pdfrwt beam="2">  1       21 0.51894960E-02 0.20523082E+03</pdfrwt>
<totfact> 0.37107853E+04</totfact>
</mgrwt>
</event>
<event>
 4    1  0.4365842E+000  0.2227372E+03  0.7546771E-02  0.1131859E+00
         21   -1    0    0  503  502  0.00000000000E+00  0.00000000000E+00  0.10540022643E+03  0.10540022643E+03  0.00000000000E+00 0.  1.
         21   -1    0    0  501  503 -0.00000000000E+00 -0.00000000000E+00 -0.57995303465E+03  0.57995303465E+03  0.00000000000E+00 0.  1.
          6    1    1    2  501    0  0.11278428597E+03  0.83441945397E+02 -0.38600875934E+03  0.44566199714E+03  0.17300000000E+03 0.  1.
         -6    1    1    2    0  502 -0.11278428597E+03 -0.83441945397E+02 -0.88544048886E+02  0.23969126393E+03  0.17300000000E+03 0.  1.
<mgrwt>
<rscale>  2 0.22273718E+03</rscale>
<asrwt>0</asrwt>
<pdfrwt beam="1">  1       21 0.16215419E-01 0.22273718E+03</pdfrwt>
<pdfrwt beam="2">  1       21 0.89223544E-01 0.22273718E+03</pdfrwt>
<totfact> 0.35897073E+04</totfact>
</mgrwt>
</event>
<event>
 4    1  0.4365842E+000  0.2289564E+03  0.7546771E-02  0.1127376E+00
         21   -1    0    0  501  502  0.00000000000E+00  0.00000000000E+00  0.76925380169E+03  0.76925380169E+03  0.00000000000E+00 0.  1.
         21   -1    0    0  502  503 -0.00000000000E+00 -0.00000000000E+00 -0.68232979489E+02  0.68232979489E+02  0.00000000000E+00 0.  1.
          6    1    1    2  501    0  0.13871405235E+03 -0.57012847429E+02  0.36551862334E+03  0.43130605966E+03  0.17300000000E+03 0.  1.
         -6    1    1    2    0  503 -0.13871405235E+03  0.57012847429E+02  0.33550219886E+03  0.40618072152E+03  0.17300000000E+03 0.  1.
<mgrwt>
<rscale>  2 0.22895644E+03</rscale>
<asrwt>0</asrwt>
<pdfrwt beam="1">  1       21 0.11834673E+00 0.22895644E+03</pdfrwt>
<pdfrwt beam="2">  1       21 0.10497382E-01 0.22895644E+03</pdfrwt>
<totfact> 0.39924486E+04</totfact>
</mgrwt>
</event>
<event>
 4    1  0.4365842E+000  0.2329449E+03  0.7546771E-02  0.1124584E+00
         21   -1    0    0  501  502  0.00000000000E+00  0.00000000000E+00  0.84587327781E+02  0.84587327781E+02  0.00000000000E+00 0. -1.
         21   -1    0    0  502  503 -0.00000000000E+00 -0.00000000000E+00 -0.66895334895E+03  0.66895334895E+03  0.00000000000E+00 0. -1.
          6    1    1    2  501    0  0.13009817547E+03 -0.86074254089E+02 -0.36850080205E+03  0.43595430218E+03  0.17300000000E+03 0. -1.
         -6    1    1    2    0  503 -0.13009817547E+03  0.86074254089E+02 -0.21586521912E+03  0.31758637455E+03  0.17300000000E+03 0. -1.
<mgrwt>
<rscale>  2 0.23294487E+03</rscale>
<asrwt>0</asrwt>
<pdfrwt beam="1">  1       21 0.13013434E-01 0.23294487E+03</pdfrwt>
<pdfrwt beam="2">  1       21 0.10291591E+00 0.23294487E+03</pdfrwt>
<totfact> 0.38090296E+04</totfact>
</mgrwt>
</event>
<event>
 4    1  0.4365842E+000  0.3310194E+03  0.7546771E-02  0.1070687E+00
         21   -1    0    0  503  502  0.00000000000E+00  0.00000000000E+00  0.75125500751E+03  0.75125500751E+03  0.00000000000E+00 0.  1.
         21   -1    0    0  501  503 -0.00000000000E+00 -0.00000000000E+00 -0.16612990775E+03  0.16612990775E+03  0.00000000000E+00 0. -1.
          6    1    1    2  501    0 -0.65377413309E+02  0.27453717109E+03  0.13231797817E+03  0.35648550017E+03  0.17300000000E+03 0. -1.
         -6    1    1    2    0  502  0.65377413309E+02 -0.27453717109E+03  0.45280712160E+03  0.56089941509E+03  0.17300000000E+03 0.  1.
<mgrwt>
<rscale>  2 0.33101943E+03</rscale>
<asrwt>0</asrwt>
<pdfrwt beam="1">  1       21 0.11557769E+00 0.33101943E+03</pdfrwt>
<pdfrwt beam="2">  1       21 0.25558448E-01 0.33101943E+03</pdfrwt>
<totfact> 0.77644739E+03</totfact>
</mgrwt>
</event>
<event>
 4    1  0.4365842E+000  0.3103378E+03  0.7546771E-02  0.1080184E+00
         21   -1    0    0  501  502  0.00000000000E+00  0.00000000000E+00  0.52332114401E+03  0.52332114401E+03  0.00000000000E+00 0.  1.
         21   -1    0    0  502  503 -0.00000000000E+00 -0.00000000000E+00 -0.21373359595E+03  0.21373359595E+03  0.00000000000E+00 0. -1.
          6    1    1    2  501    0 -0.17870843570E+02 -0.25702370409E+03  0.29216611135E+03  0.42622832864E+03  0.17300000000E+03 0. -1.
         -6    1    1    2    0  503  0.17870843570E+02  0.25702370409E+03  0.17421436708E+02  0.31082641132E+03  0.17300000000E+03 0.  1.
<mgrwt>
<rscale>  2 0.31033780E+03</rscale>
<asrwt>0</asrwt>
<pdfrwt beam="1">  1       21 0.80510945E-01 0.31033780E+03</pdfrwt>
<pdfrwt beam="2">  1       21 0.32882092E-01 0.31033780E+03</pdfrwt>
<totfact> 0.11321393E+04</totfact>
</mgrwt>
</event>
<event>
 4    1  0.4365842E+000  0.1870113E+03  0.7546771E-02  0.1161185E+00
         21   -1    0    0  503  502  0.00000000000E+00  0.00000000000E+00  0.67699286259E+03  0.67699286259E+03  0.00000000000E+00 0.  1.
         21   -1    0    0  501  503 -0.00000000000E+00 -0.00000000000E+00 -0.14365904926E+03  0.14365904926E+03  0.00000000000E+00 0.  1.
          6    1    1    2  501    0 -0.36670571923E+02 -0.60823617955E+02 -0.61696604245E+02  0.19692565684E+03  0.17300000000E+03 0.  1.
         -6    1    1    2    0  502  0.36670571923E+02  0.60823617955E+02  0.59503041758E+03  0.62372625501E+03  0.17300000000E+03 0.  1.
<mgrwt>
<rscale>  2 0.18701135E+03</rscale>
<asrwt>0</asrwt>
<pdfrwt beam="1">  1       21 0.10415275E+00 0.18701135E+03</pdfrwt>
<pdfrwt beam="2">  1       21 0.22101393E-01 0.18701135E+03</pdfrwt>
<totfact> 0.14309089E+04</totfact>
</mgrwt>
</event>
<event>
 4    1  0.4365842E+000  0.1987626E+03  0.7546771E-02  0.1150787E+00
         21   -1    0    0  503  502  0.00000000000E+00  0.00000000000E+00  0.19114697789E+03  0.19114697789E+03  0.00000000000E+00 0. -1.
         21   -1    0    0  501  503 -0.00000000000E+00 -0.00000000000E+00 -0.21089195209E+03  0.21089195209E+03  0.00000000000E+00 0. -1.
          6    1    1    2  501    0 -0.88568069722E+02 -0.41632673071E+02 -0.38275350960E+02  0.20241438914E+03  0.17300000000E+03 0. -1.
         -6    1    1    2    0  502  0.88568069722E+02  0.41632673071E+02  0.18530376759E+02  0.19962454084E+03  0.17300000000E+03 0. -1.
<mgrwt>
<rscale>  2 0.19876263E+03</rscale>
<asrwt>0</asrwt>
<pdfrwt beam="1">  1       21 0.29407227E-01 0.19876263E+03</pdfrwt>
<pdfrwt beam="2">  1       21 0.32444916E-01 0.19876263E+03</pdfrwt>
<totfact> 0.10101863E+05</totfact>
</mgrwt>
</event>
<event>
 4    1  0.4365842E+000  0.2743837E+03  0.7546771E-02  0.1098797E+00
         21   -1    0    0  503  502  0.00000000000E+00  0.00000000000E+00  0.10420211111E+04  0.10420211111E+04  0.00000000000E+00 0.  1.
         21   -1    0    0  501  503 -0.00000000000E+00 -0.00000000000E+00 -0.87029508311E+02  0.87029508311E+02  0.00000000000E+00 0.  1.
          6    1    1    2  501    0 -0.15732930499E+03 -0.14354417141E+03  0.24486120199E+03  0.36775460241E+03  0.17300000000E+03 0.  1.
         -6    1    1    2    0  502  0.15732930499E+03  0.14354417141E+03  0.71013040081E+03  0.76129601701E+03  0.17300000000E+03 0.  1.
<mgrwt>
<rscale>  2 0.27438374E+03</rscale>
<asrwt>0</asrwt>
<pdfrwt beam="1">  1       21 0.16031093E+00 0.27438374E+03</pdfrwt>
<pdfrwt beam="2">  1       21 0.13389156E-01 0.27438374E+03</pdfrwt>
<totfact> 0.11444683E+04</totfact>
</mgrwt>
</event>
<event>
 4    1  0.4365842E+000  0.2053129E+03  0.7546771E-02  0.1145332E+00
         21   -1    0    0  501  502  0.00000000000E+00  0.00000000000E+00  0.40981044856E+02  0.40981044856E+02  0.00000000000E+00 0. -1.
         21   -1    0    0  502  503 -0.00000000000E+00 -0.00000000000E+00 -0.10477971043E+04  0.10477971043E+04  0.00000000000E+00 0. -1.
          6    1    1    2  501    0 -0.80109869358E+02  0.76202323107E+02 -0.42973463467E+03  0.47626173629E+03  0.17300000000E+03 0. -1.
         -6    1    1    2    0  503  0.80109869358E+02 -0.76202323107E+02 -0.57708142475E+03  0.61251641285E+03  0.17300000000E+03 0. -1.
<mgrwt>
<rscale>  2 0.20531290E+03</rscale>
<asrwt>0</asrwt>
<pdfrwt beam="1">  1       21 0.63047771E-02 0.20531290E+03</pdfrwt>
<pdfrwt beam="2">  1       21 0.16119953E+00 0.20531290E+03</pdfrwt>
<totfact> 0.44340808E+04</totfact>
</mgrwt>
</event>
<event>
 4    1  0.4365842E+000  0.1920883E+03  0.7546771E-02  0.1156591E+00
         21   -1    0    0  501  502  0.00000000000E+00  0.00000000000E+00  0.13557175095E+03  0.13557175095E+03  0.00000000000E+00 0.  1.
         21   -1    0    0  502  503 -0.00000000000E+00 -0.00000000000E+00 -0.27224496928E+03  0.27224496928E+03  0.00000000000E+00 0.  1.
          6    1    1    2  501    0  0.80572441022E+02  0.21839942078E+02 -0.71828828680E+02  0.20507872135E+03  0.17300000000E+03 0.  1.
         -6    1    1    2    0  503 -0.80572441022E+02 -0.21839942078E+02 -0.64844389652E+02  0.20273799888E+03  0.17300000000E+03 0.  1.
<mgrwt>
<rscale>  2 0.19208826E+03</rscale>
<asrwt>0</asrwt>
<pdfrwt beam="1">  1       21 0.20857193E-01 0.19208826E+03</pdfrwt>
<pdfrwt beam="2">  1       21 0.41883841E-01 0.19208826E+03</pdfrwt>
<totfact> 0.11712041E+05</totfact>
</mgrwt>
</event>
<event>
 4    1  0.4365842E+000  0.1758460E+03  0.7546771E-02  0.1171885E+00
         21   -1    0    0  503  502  0.00000000000E+00  0.00000000000E+00  0.11284807310E+03  0.11284807310E+03  0.00000000000E+00 0. -1.
         21   -1    0    0  501  503 -0.00000000000E+00 -0.00000000000E+00 -0.34311752380E+03  0.34311752380E+03  0.00000000000E+00 0. -1.
          6    1    1    2  501    0  0.11450038936E+02  0.29355101436E+02 -0.12820916840E+02  0.17631279387E+03  0.17300000000E+03 0. -1.
         -6    1    1    2    0  502 -0.11450038936E+02 -0.29355101436E+02 -0.21744853386E+03  0.27965280304E+03  0.17300000000E+03 0. -1.
<mgrwt>
<rscale>  2 0.17584603E+03</rscale>
<asrwt>0</asrwt>
<pdfrwt beam="1">  1       21 0.17361242E-01 0.17584603E+03</pdfrwt>
<pdfrwt beam="2">  1       21 0.52787311E-01 0.17584603E+03</pdfrwt>
<totfact> 0.10273406E+05</totfact>
</mgrwt>
</event>
<event>
 4    1  0.4365842E+000  0.2774218E+03  0.7546771E-02  0.1097105E+00
         21   -1    0    0  501  502  0.00000000000E+00  0.00000000000E+00  0.32750336460E+02  0.32750336460E+02  0.00000000000E+00 0.  1.
         21   -1    0    0  502  503 -0.00000000000E+00 -0.00000000000E+00 -0.23527306785E+04  0.23527306785E+04  0.00000000000E+00 0. -1.
          6    1    1    2  501    0  0.29977083974E+01 -0.21685219304E+03 -0.12007224455E+04  0.12323543528E+04  0.17300000000E+03 0. -1.
         -6    1    1    2    0  503 -0.29977083974E+01  0.21685219304E+03 -0.11192578965E+04  0.11531266621E+04  0.17300000000E+03 0.  1.
<mgrwt>
<rscale>  2 0.27742181E+03</rscale>
<asrwt>0</asrwt>
<pdfrwt beam="1">  1       21 0.50385125E-02 0.27742181E+03</pdfrwt>
<pdfrwt beam="2">  1       21 0.36195862E+00 0.27742181E+03</pdfrwt>
<totfact> 0.35907505E+03</totfact>
</mgrwt>
</event>
<event>
 4    1  0.4365842E+000  0.1802623E+03  0.7546771E-02  0.1167549E+00
         21   -1    0    0  503  502  0.00000000000E+00  0.00000000000E+00  0.24924891311E+03  0.24924891311E+03  0.00000000000E+00 0. -1.
         21   -1    0    0  501  503 -0.00000000000E+00 -0.00000000000E+00 -0.18140688381E+03  0.18140688381E+03  0.00000000000E+00 0. -1.
          6    1    1    2  501    0 -0.45161957151E+02  0.22932140337E+02  0.14813443118E+03  0.23332015587E+03  0.17300000000E+03 0. -1.
         -6    1    1    2    0  502  0.45161957151E+02 -0.22932140337E+02 -0.80292401875E+02  0.19733564106E+03  0.17300000000E+03 0. -1.
<mgrwt>
<rscale>  2 0.18026227E+03</rscale>
<asrwt>0</asrwt>
<pdfrwt beam="1">  1       21 0.38345987E-01 0.18026227E+03</pdfrwt>
<pdfrwt beam="2">  1       21 0.27908751E-01 0.18026227E+03</pdfrwt>
<totfact> 0.80811928E+04</totfact>
</mgrwt>
</event>
<event>
 4    1  0.4365842E+000  0.1881403E+03  0.7546771E-02  0.1160149E+00
         21   -1    0    0  503  502  0.00000000000E+00  0.00000000000E+00  0.23153405830E+03  0.23153405830E+03  0.00000000000E+00 0. -1.
         21   -1    0    0  501  503 -0.00000000000E+00 -0.00000000000E+00 -0.23589966808E+03  0.23589966808E+03  0.00000000000E+00 0.  1.
          6    1    1    2  501    0  0.65538977280E+02 -0.34240393784E+02  0.13646683347E+03  0.23242194119E+03  0.17300000000E+03 0. -1.
         -6    1    1    2    0  502 -0.65538977280E+02  0.34240393784E+02 -0.14083244324E+03  0.23501178519E+03  0.17300000000E+03 0.  1.
<mgrwt>
<rscale>  2 0.18814027E+03</rscale>
<asrwt>0</asrwt>
<pdfrwt beam="1">  1       21 0.35620625E-01 0.18814027E+03</pdfrwt>
<pdfrwt beam="2">  1       21 0.36292256E-01 0.18814027E+03</pdfrwt>
<totfact> 0.55754566E+04</totfact>
</mgrwt>
</event>
<event>
 4    1  0.4365842E+000  0.1747275E+03  0.7546771E-02  0.1173006E+00
         21   -1    0    0  501  502  0.00000000000E+00  0.00000000000E+00  0.81342966178E+02  0.81342966178E+02  0.00000000000E+00 0.  1.
         21   -1    0    0  502  503 -0.00000000000E+00 -0.00000000000E+00 -0.37779534921E+03  0.37779534921E+03  0.00000000000E+00 0.  1.
          6    1    1    2  501    0 -0.24508920860E+02  0.54218770167E-01 -0.16680644446E+03  0.24156589175E+03  0.17300000000E+03 0.  1.
         -6    1    1    2    0  503  0.24508920860E+02 -0.54218770167E-01 -0.12964593857E+03  0.21757242364E+03  0.17300000000E+03 0.  1.
<mgrwt>
<rscale>  2 0.17472747E+03</rscale>
<asrwt>0</asrwt>
<pdfrwt beam="1">  1       21 0.12514303E-01 0.17472747E+03</pdfrwt>
<pdfrwt beam="2">  1       21 0.58122360E-01 0.17472747E+03</pdfrwt>
<totfact> 0.15187852E+05</totfact>
</mgrwt>
</event>
<event>
 4    1  0.4365842E+000  0.1762615E+03  0.7546771E-02  0.1171471E+00
         21   -1    0    0  501  502  0.00000000000E+00  0.00000000000E+00  0.56702153421E+03  0.56702153421E+03  0.00000000000E+00 0.  1.
         21   -1    0    0  502  503 -0.00000000000E+00 -0.00000000000E+00 -0.58227082230E+02  0.58227082230E+02  0.00000000000E+00 0.  1.
          6    1    1    2  501    0  0.32642472636E+02 -0.85787319365E+01  0.33033222303E+03  0.37441621657E+03  0.17300000000E+03 0.  1.
         -6    1    1    2    0  503 -0.32642472636E+02  0.85787319365E+01  0.17846222895E+03  0.25083239987E+03  0.17300000000E+03 0.  1.
<mgrwt>
<rscale>  2 0.17626153E+03</rscale>
<asrwt>0</asrwt>
<pdfrwt beam="1">  1       21 0.87234078E-01 0.17626153E+03</pdfrwt>
<pdfrwt beam="2">  1       21 0.89580130E-02 0.17626153E+03</pdfrwt>
<totfact> 0.11190452E+05</totfact>
</mgrwt>
</event>
<event>
 4    1  0.4365842E+000  0.1895481E+03  0.7546771E-02  0.1158870E+00
         21   -1    0    0  501  502  0.00000000000E+00  0.00000000000E+00  0.72877130977E+02  0.72877130977E+02  0.00000000000E+00 0.  1.
         21   -1    0    0  502  503 -0.00000000000E+00 -0.00000000000E+00 -0.54534470676E+03  0.54534470676E+03  0.00000000000E+00 0. -1.
          6    1    1    2  501    0 -0.76293903784E+02 -0.13368278874E+02 -0.33200006739E+03  0.38229898690E+03  0.17300000000E+03 0.  1.
         -6    1    1    2    0  503  0.76293903784E+02  0.13368278874E+02 -0.14046750839E+03  0.23592285084E+03  0.17300000000E+03 0. -1.
<mgrwt>
<rscale>  2 0.18954807E+03</rscale>
<asrwt>0</asrwt>
<pdfrwt beam="1">  1       21 0.11211867E-01 0.18954807E+03</pdfrwt>
<pdfrwt beam="2">  1       21 0.83899182E-01 0.18954807E+03</pdfrwt>
<totfact> 0.81887662E+04</totfact>
</mgrwt>
</event>
<event>
 4    1  0.4365842E+000  0.1837865E+03  0.7546771E-02  0.1164188E+00
         21   -1    0    0  503  502  0.00000000000E+00  0.00000000000E+00  0.22167434895E+03  0.22167434895E+03  0.00000000000E+00 0. -1.
         21   -1    0    0  501  503 -0.00000000000E+00 -0.00000000000E+00 -0.63828636379E+03  0.63828636379E+03  0.00000000000E+00 0. -1.
          6    1    1    2  501    0 -0.62002814491E+02 -0.20315960545E+01 -0.58346872020E+03  0.61172969834E+03  0.17300000000E+03 0. -1.
         -6    1    1    2    0  502  0.62002814491E+02  0.20315960545E+01  0.16685670536E+03  0.24823101440E+03  0.17300000000E+03 0. -1.
<mgrwt>
<rscale>  2 0.18378650E+03</rscale>
<asrwt>0</asrwt>
<pdfrwt beam="1">  1       21 0.34103746E-01 0.18378650E+03</pdfrwt>
<pdfrwt beam="2">  1       21 0.98197901E-01 0.18378650E+03</pdfrwt>
<totfact> 0.71473978E+03</totfact>
</mgrwt>
</event>
<event>
 4    1  0.4365842E+000  0.1777298E+03  0.7546771E-02  0.1170018E+00
         21   -1    0    0  501  502  0.00000000000E+00  0.00000000000E+00  0.32468939620E+03  0.32468939620E+03  0.00000000000E+00 0. -1.
         21   -1    0    0  502  503 -0.00000000000E+00 -0.00000000000E+00 -0.13063538617E+03  0.13063538617E+03  0.00000000000E+00 0. -1.
          6    1    1    2  501    0 -0.25786833019E+02  0.31526336398E+02  0.21205459753E+03  0.27668578384E+03  0.17300000000E+03 0. -1.
         -6    1    1    2    0  503  0.25786833019E+02 -0.31526336398E+02 -0.18000587503E+02  0.17863899853E+03  0.17300000000E+03 0. -1.
<mgrwt>
<rscale>  2 0.17772977E+03</rscale>
<asrwt>0</asrwt>
<pdfrwt beam="1">  1       21 0.49952215E-01 0.17772977E+03</pdfrwt>
<pdfrwt beam="2">  1       21 0.20097752E-01 0.17772977E+03</pdfrwt>
<totfact> 0.87852500E+04</totfact>
</mgrwt>
</event>
<event>
 4    1  0.4365842E+000  0.3183777E+03  0.7546771E-02  0.1076398E+00
         21   -1    0    0  501  502  0.00000000000E+00  0.00000000000E+00  0.12920504868E+03  0.12920504868E+03  0.00000000000E+00 0.  1.
         21   -1    0    0  502  503 -0.00000000000E+00 -0.00000000000E+00 -0.80096989556E+03  0.80096989556E+03  0.00000000000E+00 0. -1.
          6    1    1    2  501    0 -0.26684700074E+03  0.15101743251E+02 -0.40252675137E+03  0.51321746855E+03  0.17300000000E+03 0. -1.
         -6    1    1    2    0  503  0.26684700074E+03 -0.15101743251E+02 -0.26923809551E+03  0.41695747569E+03  0.17300000000E+03 0.  1.
<mgrwt>
<rscale>  2 0.31837774E+03</rscale>
<asrwt>0</asrwt>
<pdfrwt beam="1">  1       21 0.19877700E-01 0.31837774E+03</pdfrwt>
<pdfrwt beam="2">  1       21 0.12322614E+00 0.31837774E+03</pdfrwt>
<totfact> 0.10751156E+04</totfact>
</mgrwt>
</event>
<event>
 4    1  0.4365842E+000  0.1799818E+03  0.7546771E-02  0.1167821E+00
         21   -1    0    0  501  502  0.00000000000E+00  0.00000000000E+00  0.25446786940E+03  0.25446786940E+03  0.00000000000E+00 0.  1.
         21   -1    0    0  502  503 -0.00000000000E+00 -0.00000000000E+00 -0.14983591926E+03  0.14983591926E+03  0.00000000000E+00 0.  1.
          6    1    1    2  501    0  0.47583930899E+02 -0.14150275813E+02  0.13071647052E+03  0.22244157986E+03  0.17300000000E+03 0.  1.
         -6    1    1    2    0  503 -0.47583930899E+02  0.14150275813E+02 -0.26084520384E+02  0.18186220880E+03  0.17300000000E+03 0.  1.
<mgrwt>
<rscale>  2 0.17998183E+03</rscale>
<asrwt>0</asrwt>
<pdfrwt beam="1">  1       21 0.39148903E-01 0.17998183E+03</pdfrwt>
<pdfrwt beam="2">  1       21 0.23051680E-01 0.17998183E+03</pdfrwt>
<totfact> 0.11168503E+05</totfact>
</mgrwt>
</event>
<event>
 4    1  0.4365842E+000  0.2612994E+03  0.7546771E-02  0.1106365E+00
         21   -1    0    0  501  502  0.00000000000E+00  0.00000000000E+00  0.13548365570E+03  0.13548365570E+03  0.00000000000E+00 0.  1.
         21   -1    0    0  502  503 -0.00000000000E+00 -0.00000000000E+00 -0.50800661753E+03  0.50800661753E+03  0.00000000000E+00 0. -1.
          6    1    1    2  501    0 -0.18153795830E+03 -0.73432463016E+02 -0.15751970217E+03  0.30510623314E+03  0.17300000000E+03 0.  1.
         -6    1    1    2    0  503  0.18153795830E+03  0.73432463016E+02 -0.21500325965E+03  0.33838404009E+03  0.17300000000E+03 0. -1.
<mgrwt>
<rscale>  2 0.26129936E+03</rscale>
<asrwt>0</asrwt>
<pdfrwt beam="1">  1       21 0.20843640E-01 0.26129936E+03</pdfrwt>
<pdfrwt beam="2">  1       21 0.78154863E-01 0.26129936E+03</pdfrwt>
<totfact> 0.29934345E+04</totfact>
</mgrwt>
</event>
<event>
 4    1  0.4365842E+000  0.2028125E+03  0.7546771E-02  0.1147388E+00
         21   -1    0    0  503  502  0.00000000000E+00  0.00000000000E+00  0.94204243683E+02  0.94204243683E+02  0.00000000000E+00 0. -1.
         21   -1    0    0  501  503 -0.00000000000E+00 -0.00000000000E+00 -0.50962807117E+03  0.50962807117E+03  0.00000000000E+00 0.  1.
          6    1    1    2  501    0 -0.84802872274E+02 -0.63343533747E+02 -0.32197306443E+03  0.38052540603E+03  0.17300000000E+03 0.  1.
         -6    1    1    2    0  502  0.84802872274E+02  0.63343533747E+02 -0.93450763055E+02  0.22330690883E+03  0.17300000000E+03 0.  1.
<mgrwt>
<rscale>  2 0.20281255E+03</rscale>
<asrwt>0</asrwt>
<pdfrwt beam="1">  1       21 0.14492960E-01 0.20281255E+03</pdfrwt>
<pdfrwt beam="2">  1       21 0.78404321E-01 0.20281255E+03</pdfrwt>
<totfact> 0.59813560E+04</totfact>
</mgrwt>
</event>
<event>
 4    1  0.4365842E+000  0.2163338E+03  0.7546771E-02  0.1136646E+00
         21   -1    0    0  501  502  0.00000000000E+00  0.00000000000E+00  0.57655600885E+03  0.57655600885E+03  0.00000000000E+00 0. -1.
         21   -1    0    0  502  503 -0.00000000000E+00 -0.00000000000E+00 -0.23206849998E+03  0.23206849998E+03  0.00000000000E+00 0. -1.
          6    1    1    2  501    0  0.12306575048E+03 -0.41546638439E+02  0.49826668461E+03  0.54320345277E+03  0.17300000000E+03 0. -1.
         -6    1    1    2    0  503 -0.12306575048E+03  0.41546638439E+02 -0.15377917574E+03  0.26542105606E+03  0.17300000000E+03 0. -1.
<mgrwt>
<rscale>  2 0.21633377E+03</rscale>
<asrwt>0</asrwt>
<pdfrwt beam="1">  1       21 0.88700924E-01 0.21633377E+03</pdfrwt>
<pdfrwt beam="2">  1       21 0.35702846E-01 0.21633377E+03</pdfrwt>
<totfact> 0.80824395E+03</totfact>
</mgrwt>
</event>
<event>
 4    1  0.4365842E+000  0.1758168E+03  0.7546771E-02  0.1171914E+00
         21   -1    0    0  501  502  0.00000000000E+00  0.00000000000E+00  0.88472413198E+03  0.88472413198E+03  0.00000000000E+00 0.  1.
         21   -1    0    0  502  503 -0.00000000000E+00 -0.00000000000E+00 -0.50296392897E+02  0.50296392897E+02  0.00000000000E+00 0.  1.
          6    1    1    2  501    0  0.16938045971E+02  0.26374897542E+02  0.67554632996E+03  0.69805041118E+03  0.17300000000E+03 0. -1.
         -6    1    1    2    0  503 -0.16938045971E+02 -0.26374897542E+02  0.15888140912E+03  0.23697011370E+03  0.17300000000E+03 0. -1.
<mgrwt>
<rscale>  2 0.17581676E+03</rscale>
<asrwt>0</asrwt>
<pdfrwt beam="1">  1       21 0.13611139E+00 0.17581676E+03</pdfrwt>
<pdfrwt beam="2">  1       21 0.77379072E-02 0.17581676E+03</pdfrwt>
<totfact> 0.49372998E+04</totfact>
</mgrwt>
</event>
<event>
 4    1  0.4365842E+000  0.1772581E+03  0.7546771E-02  0.1170483E+00
         21   -1    0    0  503  502  0.00000000000E+00  0.00000000000E+00  0.11207164525E+04  0.11207164525E+04  0.00000000000E+00 0.  1.
         21   -1    0    0  501  503 -0.00000000000E+00 -0.00000000000E+00 -0.32826330284E+02  0.32826330284E+02  0.00000000000E+00 0.  1.
          6    1    1    2  501    0 -0.25130248667E+02 -0.29324330793E+02  0.32361503687E+03  0.36898121614E+03  0.17300000000E+03 0.  1.
         -6    1    1    2    0  502  0.25130248667E+02  0.29324330793E+02  0.76427508531E+03  0.78456156661E+03  0.17300000000E+03 0.  1.
<mgrwt>
<rscale>  2 0.17725813E+03</rscale>
<asrwt>0</asrwt>
<pdfrwt beam="1">  1       21 0.17241789E+00 0.17725813E+03</pdfrwt>
<pdfrwt beam="2">  1       21 0.50502055E-02 0.17725813E+03</pdfrwt>
<totfact> 0.54775402E+04</totfact>
</mgrwt>
</event>
<event>
 4    1  0.4365842E+000  0.1761741E+03  0.7546771E-02  0.1171558E+00
         21   -1    0    0  501  502  0.00000000000E+00  0.00000000000E+00  0.98232022855E+03  0.98232022855E+03  0.00000000000E+00 0.  1.
         21   -1    0    0  502  503 -0.00000000000E+00 -0.00000000000E+00 -0.10516660303E+03  0.10516660303E+03  0.00000000000E+00 0.  1.
          6    1    1    2  501    0 -0.24911964624E+02  0.22084081949E+02  0.89336322237E+03  0.91056859146E+03  0.17300000000E+03 0.  1.
         -6    1    1    2    0  503  0.24911964624E+02 -0.22084081949E+02 -0.16209596851E+02  0.17691824012E+03  0.17300000000E+03 0.  1.
<mgrwt>
<rscale>  2 0.17617410E+03</rscale>
<asrwt>0</asrwt>
<pdfrwt beam="1">  1       21 0.15112618E+00 0.17617410E+03</pdfrwt>
<pdfrwt beam="2">  1       21 0.16179478E-01 0.17617410E+03</pdfrwt>
<totfact> 0.10140734E+04</totfact>
</mgrwt>
</event>
<event>
 4    1  0.4365842E+000  0.1893719E+03  0.7546771E-02  0.1159029E+00
         21   -1    0    0  501  502  0.00000000000E+00  0.00000000000E+00  0.81409451734E+02  0.81409451734E+02  0.00000000000E+00 0. -1.
         21   -1    0    0  502  503 -0.00000000000E+00 -0.00000000000E+00 -0.54426837451E+03  0.54426837451E+03  0.00000000000E+00 0. -1.
          6    1    1    2  501    0  0.48819771750E+02  0.59576472882E+02 -0.94837686759E+02  0.21179214590E+03  0.17300000000E+03 0. -1.
         -6    1    1    2    0  503 -0.48819771750E+02 -0.59576472882E+02 -0.36802123602E+03  0.41388568035E+03  0.17300000000E+03 0. -1.
<mgrwt>
<rscale>  2 0.18937193E+03</rscale>
<asrwt>0</asrwt>
<pdfrwt beam="1">  1       21 0.12524531E-01 0.18937193E+03</pdfrwt>
<pdfrwt beam="2">  1       21 0.83733597E-01 0.18937193E+03</pdfrwt>
<totfact> 0.67498493E+04</totfact>
</mgrwt>
</event>
<event>
 4    1  0.4365842E+000  0.1741055E+03  0.7546771E-02  0.1173633E+00
         21   -1    0    0  501  502  0.00000000000E+00  0.00000000000E+00  0.58378654750E+02  0.58378654750E+02  0.00000000000E+00 0.  1.
         21   -1    0    0  502  503 -0.00000000000E+00 -0.00000000000E+00 -0.52480108321E+03  0.52480108321E+03  0.00000000000E+00 0.  1.
          6    1    1    2  501    0  0.10260336434E+02 -0.16686768292E+02 -0.20320386642E+03  0.26759023537E+03  0.17300000000E+03 0.  1.
         -6    1    1    2    0  503 -0.10260336434E+02  0.16686768292E+02 -0.26321856204E+03  0.31558950258E+03  0.17300000000E+03 0.  1.
<mgrwt>
<rscale>  2 0.17410549E+03</rscale>
<asrwt>0</asrwt>
<pdfrwt beam="1">  1       21 0.89813309E-02 0.17410549E+03</pdfrwt>
<pdfrwt beam="2">  1       21 0.80738634E-01 0.17410549E+03</pdfrwt>
<totfact> 0.13295464E+05</totfact>
</mgrwt>
</event>
<event>
 4    1  0.4365842E+000  0.2090160E+03  0.7546771E-02  0.1142348E+00
         21   -1    0    0  503  502  0.00000000000E+00  0.00000000000E+00  0.10732059147E+03  0.10732059147E+03  0.00000000000E+00 0.  1.
         21   -1    0    0  501  503 -0.00000000000E+00 -0.00000000000E+00 -0.80565506099E+03  0.80565506099E+03  0.00000000000E+00 0.  1.
          6    1    1    2  501    0  0.70142330707E+02  0.94014635413E+02 -0.67024598198E+03  0.70208074649E+03  0.17300000000E+03 0.  1.
         -6    1    1    2    0  502 -0.70142330707E+02 -0.94014635413E+02 -0.28088487538E+02  0.21089490596E+03  0.17300000000E+03 0.  1.
<mgrwt>
<rscale>  2 0.20901602E+03</rscale>
<asrwt>0</asrwt>
<pdfrwt beam="1">  1       21 0.16510860E-01 0.20901602E+03</pdfrwt>
<pdfrwt beam="2">  1       21 0.12394693E+00 0.20901602E+03</pdfrwt>
<totfact> 0.15864514E+04</totfact>
</mgrwt>
</event>
<event>
 4    1  0.4365842E+000  0.1946160E+03  0.7546771E-02  0.1154363E+00
         21   -1    0    0  501  502  0.00000000000E+00  0.00000000000E+00  0.20330391522E+04  0.20330391522E+04  0.00000000000E+00 0. -1.
         21   -1    0    0  502  503 -0.00000000000E+00 -0.00000000000E+00 -0.34947215420E+02  0.34947215420E+02  0.00000000000E+00 0. -1.
          6    1    1    2  501    0 -0.63489486697E+02  0.62573811704E+02  0.17055834618E+04  0.17166509086E+04  0.17300000000E+03 0. -1.
         -6    1    1    2    0  503  0.63489486697E+02 -0.62573811704E+02  0.29250847500E+03  0.35133545904E+03  0.17300000000E+03 0. -1.
<mgrwt>
<rscale>  2 0.19461602E+03</rscale>
<asrwt>0</asrwt>
<pdfrwt beam="1">  1       21 0.31277516E+00 0.19461602E+03</pdfrwt>
<pdfrwt beam="2">  1       21 0.53764963E-02 0.19461602E+03</pdfrwt>
<totfact> 0.68356674E+03</totfact>
</mgrwt>
</event>
<event>
 4    1  0.4365842E+000  0.1804796E+03  0.7546771E-02  0.1167340E+00
         21   -1    0    0  501  502  0.00000000000E+00  0.00000000000E+00  0.41246117619E+03  0.41246117619E+03  0.00000000000E+00 0. -1.
         21   -1    0    0  502  503 -0.00000000000E+00 -0.00000000000E+00 -0.10127805927E+03  0.10127805927E+03  0.00000000000E+00 0. -1.
          6    1    1    2  501    0  0.21111829017E+01 -0.51375491632E+02  0.27614126132E+03  0.32988921540E+03  0.17300000000E+03 0. -1.
         -6    1    1    2    0  503 -0.21111829017E+01  0.51375491632E+02  0.35041855594E+02  0.18385002006E+03  0.17300000000E+03 0. -1.
<mgrwt>
<rscale>  2 0.18047963E+03</rscale>
<asrwt>0</asrwt>
<pdfrwt beam="1">  1       21 0.63455565E-01 0.18047963E+03</pdfrwt>
<pdfrwt beam="2">  1       21 0.15581240E-01 0.18047963E+03</pdfrwt>
<totfact> 0.84464702E+04</totfact>
</mgrwt>
</event>
<event>
 4    1  0.4365842E+000  0.1772572E+03  0.7546771E-02  0.1170484E+00
         21   -1    0    0  503  502  0.00000000000E+00  0.00000000000E+00  0.43227763859E+03  0.43227763859E+03  0.00000000000E+00 0.  1.
         21   -1    0    0  501  503 -0.00000000000E+00 -0.00000000000E+00 -0.80148357856E+02  0.80148357856E+02  0.00000000000E+00 0.  1.
          6    1    1    2  501    0 -0.27082231124E+02  0.27525623374E+02  0.97880168929E+02  0.20248613447E+03  0.17300000000E+03 0.  1.
         -6    1    1    2    0  502  0.27082231124E+02 -0.27525623374E+02  0.25424911180E+03  0.30993986197E+03  0.17300000000E+03 0.  1.
<mgrwt>
<rscale>  2 0.17725718E+03</rscale>
<asrwt>0</asrwt>
<pdfrwt beam="1">  1       21 0.66504251E-01 0.17725718E+03</pdfrwt>
<pdfrwt beam="2">  1       21 0.12330517E-01 0.17725718E+03</pdfrwt>
<totfact> 0.11655241E+05</totfact>
</mgrwt>
</event>
<event>
 4    1  0.4365842E+000  0.1919743E+03  0.7546771E-02  0.1156693E+00
         21   -1    0    0  503  502  0.00000000000E+00  0.00000000000E+00  0.18453768807E+03  0.18453768807E+03  0.00000000000E+00 0.  1.
         21   -1    0    0  501  503 -0.00000000000E+00 -0.00000000000E+00 -0.33019765964E+03  0.33019765964E+03  0.00000000000E+00 0. -1.
          6    1    1    2  501    0 -0.79112332917E+02  0.25814089578E+02 -0.23461964498E+03  0.30315096281E+03  0.17300000000E+03 0. -1.
         -6    1    1    2    0  502  0.79112332917E+02 -0.25814089578E+02  0.88959673407E+02  0.21158438490E+03  0.17300000000E+03 0.  1.
<mgrwt>
<rscale>  2 0.19197429E+03</rscale>
<asrwt>0</asrwt>
<pdfrwt beam="1">  1       21 0.28390414E-01 0.19197429E+03</pdfrwt>
<pdfrwt beam="2">  1       21 0.50799639E-01 0.19197429E+03</pdfrwt>
<totfact> 0.43741011E+04</totfact>
</mgrwt>
</event>
<event>
 4    1  0.4365842E+000  0.1976626E+03  0.7546771E-02  0.1151726E+00
         21   -1    0    0  503  502  0.00000000000E+00  0.00000000000E+00  0.19544752670E+03  0.19544752670E+03  0.00000000000E+00 0.  1.
         21   -1    0    0  501  503 -0.00000000000E+00 -0.00000000000E+00 -0.32362922998E+03  0.32362922998E+03  0.00000000000E+00 0.  1.
          6    1    1    2  501    0 -0.94145337774E+02  0.16678646446E+02 -0.22456638646E+03  0.29916648175E+03  0.17300000000E+03 0.  1.
         -6    1    1    2    0  502  0.94145337774E+02 -0.16678646446E+02  0.96384683185E+02  0.21991027494E+03  0.17300000000E+03 0.  1.
<mgrwt>
<rscale>  2 0.19766265E+03</rscale>
<asrwt>0</asrwt>
<pdfrwt beam="1">  1       21 0.30068850E-01 0.19766265E+03</pdfrwt>
<pdfrwt beam="2">  1       21 0.49789112E-01 0.19766265E+03</pdfrwt>
<totfact> 0.40676917E+04</totfact>
</mgrwt>
</event>
<event>
 4    1  0.4365842E+000  0.2434384E+03  0.7546771E-02  0.1117523E+00
         21   -1    0    0  501  502  0.00000000000E+00  0.00000000000E+00  0.10379722908E+03  0.10379722908E+03  0.00000000000E+00 0. -1.
         21   -1    0    0  502  503 -0.00000000000E+00 -0.00000000000E+00 -0.57236282439E+03  0.57236282439E+03  0.00000000000E+00 0.  1.
          6    1    1    2  501    0 -0.15516043566E+03 -0.72515535762E+02 -0.25112335962E+03  0.34975020439E+03  0.17300000000E+03 0. -1.
         -6    1    1    2    0  503  0.15516043566E+03  0.72515535762E+02 -0.21744223568E+03  0.32640984908E+03  0.17300000000E+03 0. -1.
<mgrwt>
<rscale>  2 0.24343842E+03</rscale>
<asrwt>0</asrwt>
<pdfrwt beam="1">  1       21 0.15968804E-01 0.24343842E+03</pdfrwt>
<pdfrwt beam="2">  1       21 0.88055821E-01 0.24343842E+03</pdfrwt>
<totfact> 0.37702086E+04</totfact>
</mgrwt>
</event>
<event>
 4    1  0.4365842E+000  0.2696555E+03  0.7546771E-02  0.1101477E+00
         21   -1    0    0  501  502  0.00000000000E+00  0.00000000000E+00  0.40001169458E+03  0.40001169458E+03  0.00000000000E+00 0.  1.
         21   -1    0    0  502  503 -0.00000000000E+00 -0.00000000000E+00 -0.20712926888E+03  0.20712926888E+03  0.00000000000E+00 0. -1.
          6    1    1    2  501    0  0.18225290584E+03  0.97821140581E+02  0.20264063051E+03  0.33730894202E+03  0.17300000000E+03 0.  1.
         -6    1    1    2    0  503 -0.18225290584E+03 -0.97821140581E+02 -0.97582048035E+01  0.26983202144E+03  0.17300000000E+03 0. -1.
<mgrwt>
<rscale>  2 0.26965552E+03</rscale>
<asrwt>0</asrwt>
<pdfrwt beam="1">  1       21 0.61540261E-01 0.26965552E+03</pdfrwt>
<pdfrwt beam="2">  1       21 0.31866041E-01 0.26965552E+03</pdfrwt>
<totfact> 0.22335763E+04</totfact>
</mgrwt>
</event>
<event>
 4    1  0.4365842E+000  0.2692494E+03  0.7546771E-02  0.1101710E+00
         21   -1    0    0  501  502  0.00000000000E+00  0.00000000000E+00  0.12314067314E+04  0.12314067314E+04  0.00000000000E+00 0. -1.
         21   -1    0    0  502  503 -0.00000000000E+00 -0.00000000000E+00 -0.74810095818E+02  0.74810095818E+02  0.00000000000E+00 0.  1.
          6    1    1    2  501    0  0.13790479475E+03  0.15345522185E+03  0.87975501303E+03  0.92003484743E+03  0.17300000000E+03 0. -1.
         -6    1    1    2    0  503 -0.13790479475E+03 -0.15345522185E+03  0.27684162252E+03  0.38618197976E+03  0.17300000000E+03 0. -1.
<mgrwt>
<rscale>  2 0.26924940E+03</rscale>
<asrwt>0</asrwt>
<pdfrwt beam="1">  1       21 0.18944718E+00 0.26924940E+03</pdfrwt>
<pdfrwt beam="2">  1       21 0.11509246E-01 0.26924940E+03</pdfrwt>
<totfact> 0.94140162E+03</totfact>
</mgrwt>
</event>
<event>
 4    1  0.4365842E+000  0.2073179E+03  0.7546771E-02  0.1143708E+00
         21   -1    0    0  501  502  0.00000000000E+00  0.00000000000E+00  0.51867068797E+02  0.51867068797E+02  0.00000000000E+00 0.  1.
         21   -1    0    0  502  503 -0.00000000000E+00 -0.00000000000E+00 -0.86043482609E+03  0.86043482609E+03  0.00000000000E+00 0.  1.
          6    1    1    2  501    0  0.75269905082E+01  0.11399579910E+03 -0.31664011876E+03  0.37847280300E+03  0.17300000000E+03 0.  1.
         -6    1    1    2    0  503 -0.75269905082E+01 -0.11399579910E+03 -0.49192763853E+03  0.53382909189E+03  0.17300000000E+03 0.  1.
<mgrwt>
<rscale>  2 0.20731787E+03</rscale>
<asrwt>0</asrwt>
<pdfrwt beam="1">  1       21 0.79795498E-02 0.20731787E+03</pdfrwt>
<pdfrwt beam="2">  1       21 0.13237458E+00 0.20731787E+03</pdfrwt>
<totfact> 0.49377230E+04</totfact>
</mgrwt>
</event>
<event>
 4    1  0.4365842E+000  0.2207334E+03  0.7546771E-02  0.1133337E+00
         21   -1    0    0  503  502  0.00000000000E+00  0.00000000000E+00  0.43591271830E+03  0.43591271830E+03  0.00000000000E+00 0. -1.
         21   -1    0    0  501  503 -0.00000000000E+00 -0.00000000000E+00 -0.14080846120E+03  0.14080846120E+03  0.00000000000E+00 0. -1.
          6    1    1    2  501    0 -0.11211388130E+03 -0.78896912458E+02  0.27849635608E+03  0.35536384949E+03  0.17300000000E+03 0. -1.
         -6    1    1    2    0  502  0.11211388130E+03  0.78896912458E+02  0.16607901027E+02  0.22135733002E+03  0.17300000000E+03 0. -1.
<mgrwt>
<rscale>  2 0.22073343E+03</rscale>
<asrwt>0</asrwt>
<pdfrwt beam="1">  1       21 0.67063495E-01 0.22073343E+03</pdfrwt>
<pdfrwt beam="2">  1       21 0.21662840E-01 0.22073343E+03</pdfrwt>
<totfact> 0.39887922E+04</totfact>
</mgrwt>
</event>
<event>
 4    1  0.4365842E+000  0.2427564E+03  0.7546771E-02  0.1117970E+00
         21   -1    0    0  503  502  0.00000000000E+00  0.00000000000E+00  0.18096301924E+03  0.18096301924E+03  0.00000000000E+00 0.  1.
         21   -1    0    0  501  503 -0.00000000000E+00 -0.00000000000E+00 -0.75263592149E+03  0.75263592149E+03  0.00000000000E+00 0. -1.
          6    1    1    2  501    0 -0.16894239507E+03  0.21450916536E+02 -0.63743289331E+03  0.68209337201E+03  0.17300000000E+03 0. -1.
         -6    1    1    2    0  502  0.16894239507E+03 -0.21450916536E+02  0.65759991059E+02  0.25150556872E+03  0.17300000000E+03 0.  1.
<mgrwt>
<rscale>  2 0.24275641E+03</rscale>
<asrwt>0</asrwt>
<pdfrwt beam="1">  1       21 0.27840464E-01 0.24275641E+03</pdfrwt>
<pdfrwt beam="2">  1       21 0.11579014E+00 0.24275641E+03</pdfrwt>
<totfact> 0.68572315E+03</totfact>
</mgrwt>
</event>
<event>
 4    1  0.4365842E+000  0.2001358E+03  0.7546771E-02  0.1149624E+00
         21   -1    0    0  501  502  0.00000000000E+00  0.00000000000E+00  0.59278895438E+03  0.59278895438E+03  0.00000000000E+00 0. -1.
         21   -1    0    0  502  503 -0.00000000000E+00 -0.00000000000E+00 -0.71271569956E+02  0.71271569956E+02  0.00000000000E+00 0. -1.
          6    1    1    2  501    0 -0.93751782134E+02  0.36550769177E+02  0.18508385416E+03  0.27259931851E+03  0.17300000000E+03 0. -1.
         -6    1    1    2    0  503  0.93751782134E+02 -0.36550769177E+02  0.33643353026E+03  0.39146120583E+03  0.17300000000E+03 0. -1.
<mgrwt>
<rscale>  2 0.20013584E+03</rscale>
<asrwt>0</asrwt>
<pdfrwt beam="1">  1       21 0.91198297E-01 0.20013584E+03</pdfrwt>
<pdfrwt beam="2">  1       21 0.10964857E-01 0.20013584E+03</pdfrwt>
<totfact> 0.69979259E+04</totfact>
</mgrwt>
</event>
<event>
 4    1  0.4365842E+000  0.2023744E+03  0.7546771E-02  0.1147751E+00
         21   -1    0    0  501  502  0.00000000000E+00  0.00000000000E+00  0.26543675068E+03  0.26543675068E+03  0.00000000000E+00 0.  1.
         21   -1    0    0  502  503 -0.00000000000E+00 -0.00000000000E+00 -0.21623267798E+03  0.21623267798E+03  0.00000000000E+00 0.  1.
          6    1    1    2  501    0 -0.34446483622E+02 -0.99195910212E+02  0.15349766521E+03  0.25400181507E+03  0.17300000000E+03 0.  1.
         -6    1    1    2    0  503  0.34446483622E+02  0.99195910212E+02 -0.10429359251E+03  0.22766761359E+03  0.17300000000E+03 0.  1.
<mgrwt>
<rscale>  2 0.20237438E+03</rscale>
<asrwt>0</asrwt>
<pdfrwt beam="1">  1       21 0.40836423E-01 0.20237438E+03</pdfrwt>
<pdfrwt beam="2">  1       21 0.33266566E-01 0.20237438E+03</pdfrwt>
<totfact> 0.50026208E+04</totfact>
</mgrwt>
</event>
<event>
 4    1  0.4365842E+000  0.2114963E+03  0.7546771E-02  0.1140386E+00
         21   -1    0    0  501  502  0.00000000000E+00  0.00000000000E+00  0.18833892533E+03  0.18833892533E+03  0.00000000000E+00 0. -1.
         21   -1    0    0  502  503 -0.00000000000E+00 -0.00000000000E+00 -0.50719127147E+03  0.50719127147E+03  0.00000000000E+00 0. -1.
          6    1    1    2  501    0  0.12164798861E+03  0.18623382831E+01  0.94164146260E+02  0.23151152861E+03  0.17300000000E+03 0. -1.
         -6    1    1    2    0  503 -0.12164798861E+03 -0.18623382831E+01 -0.41301649240E+03  0.46401866819E+03  0.17300000000E+03 0. -1.
<mgrwt>
<rscale>  2 0.21149634E+03</rscale>
<asrwt>0</asrwt>
<pdfrwt beam="1">  1       21 0.28975219E-01 0.21149634E+03</pdfrwt>
<pdfrwt beam="2">  1       21 0.78029427E-01 0.21149634E+03</pdfrwt>
<totfact> 0.16394500E+04</totfact>
</mgrwt>
</event>
<event>
 4    1  0.4365842E+000  0.2018678E+03  0.7546771E-02  0.1148173E+00
         21   -1    0    0  503  502  0.00000000000E+00  0.00000000000E+00  0.98636399230E+03  0.98636399230E+03  0.00000000000E+00 0. -1.
         21   -1    0    0  501  503 -0.00000000000E+00 -0.00000000000E+00 -0.44062953273E+02  0.44062953273E+02  0.00000000000E+00 0. -1.
          6    1    1    2  501    0  0.51078031729E+02  0.90623647408E+02  0.59983808544E+03  0.63289520423E+03  0.17300000000E+03 0. -1.
         -6    1    1    2    0  502 -0.51078031729E+02 -0.90623647408E+02  0.34246295360E+03  0.39753174135E+03  0.17300000000E+03 0. -1.
<mgrwt>
<rscale>  2 0.20186781E+03</rscale>
<asrwt>0</asrwt>
<pdfrwt beam="1">  1       21 0.15174829E+00 0.20186781E+03</pdfrwt>
<pdfrwt beam="2">  1       21 0.67789166E-02 0.20186781E+03</pdfrwt>
<totfact> 0.46102864E+04</totfact>
</mgrwt>
</event>
<event>
 4    1  0.4365842E+000  0.2271893E+03  0.7546771E-02  0.1128634E+00
         21   -1    0    0  501  502  0.00000000000E+00  0.00000000000E+00  0.45409544177E+03  0.45409544177E+03  0.00000000000E+00 0.  1.
         21   -1    0    0  502  503 -0.00000000000E+00 -0.00000000000E+00 -0.11418783093E+03  0.11418783093E+03  0.00000000000E+00 0. -1.
          6    1    1    2  501    0 -0.12758756958E+03 -0.73534901161E+02  0.18917198882E+03  0.29563661978E+03  0.17300000000E+03 0.  1.
         -6    1    1    2    0  503  0.12758756958E+03  0.73534901161E+02  0.15073562202E+03  0.27264665292E+03  0.17300000000E+03 0. -1.
<mgrwt>
<rscale>  2 0.22718928E+03</rscale>
<asrwt>0</asrwt>
<pdfrwt beam="1">  1       21 0.69860836E-01 0.22718928E+03</pdfrwt>
<pdfrwt beam="2">  1       21 0.17567359E-01 0.22718928E+03</pdfrwt>
<totfact> 0.53780570E+04</totfact>
</mgrwt>
</event>
<event>
 4    1  0.4365842E+000  0.1798664E+03  0.7546771E-02  0.1167932E+00
         21   -1    0    0  503  502  0.00000000000E+00  0.00000000000E+00  0.49071395937E+02  0.49071395937E+02  0.00000000000E+00 0.  1.
         21   -1    0    0  501  503 -0.00000000000E+00 -0.00000000000E+00 -0.13091378753E+04  0.13091378753E+04  0.00000000000E+00 0.  1.
          6    1    1    2  501    0 -0.69979306921E+01 -0.48723130830E+02 -0.11085006320E+04  0.11229984709E+04  0.17300000000E+03 0.  1.
         -6    1    1    2    0  502  0.69979306921E+01  0.48723130830E+02 -0.15156584740E+03  0.23521080037E+03  0.17300000000E+03 0.  1.
<mgrwt>
<rscale>  2 0.17986638E+03</rscale>
<asrwt>0</asrwt>
<pdfrwt beam="1">  1       21 0.75494466E-02 0.17986638E+03</pdfrwt>
<pdfrwt beam="2">  1       21 0.20140580E+00 0.17986638E+03</pdfrwt>
<totfact> 0.17631957E+04</totfact>
</mgrwt>
</event>
<event>
 4    1  0.4365842E+000  0.1810521E+03  0.7546771E-02  0.1166789E+00
         21   -1    0    0  501  502  0.00000000000E+00  0.00000000000E+00  0.13692037937E+03  0.13692037937E+03  0.00000000000E+00 0. -1.
         21   -1    0    0  502  503 -0.00000000000E+00 -0.00000000000E+00 -0.23959290266E+03  0.23959290266E+03  0.00000000000E+00 0. -1.
          6    1    1    2  501    0  0.41257508471E+02 -0.33892200870E+02 -0.46109470262E+02  0.18683133178E+03  0.17300000000E+03 0.  1.
         -6    1    1    2    0  503 -0.41257508471E+02  0.33892200870E+02 -0.56563053023E+02  0.18968195025E+03  0.17300000000E+03 0.  1.
<mgrwt>
<rscale>  2 0.18105210E+03</rscale>
<asrwt>0</asrwt>
<pdfrwt beam="1">  1       21 0.21064674E-01 0.18105210E+03</pdfrwt>
<pdfrwt beam="2">  1       21 0.36860446E-01 0.18105210E+03</pdfrwt>
<totfact> 0.14924179E+05</totfact>
</mgrwt>
</event>
<event>
 4    1  0.4365842E+000  0.2967691E+03  0.7546771E-02  0.1086867E+00
         21   -1    0    0  501  502  0.00000000000E+00  0.00000000000E+00  0.36865785401E+03  0.36865785401E+03  0.00000000000E+00 0.  1.
         21   -1    0    0  502  503 -0.00000000000E+00 -0.00000000000E+00 -0.24756313522E+03  0.24756313522E+03  0.00000000000E+00 0. -1.
          6    1    1    2  501    0 -0.16312108159E+03 -0.17757938807E+03  0.29064764439E+01  0.29678337880E+03  0.17300000000E+03 0.  1.
         -6    1    1    2    0  503  0.16312108159E+03  0.17757938807E+03  0.11818824234E+03  0.31943761043E+03  0.17300000000E+03 0. -1.
<mgrwt>
<rscale>  2 0.29676915E+03</rscale>
<asrwt>0</asrwt>
<pdfrwt beam="1">  1       21 0.56716593E-01 0.29676915E+03</pdfrwt>
<pdfrwt beam="2">  1       21 0.38086636E-01 0.29676915E+03</pdfrwt>
<totfact> 0.18434496E+04</totfact>
</mgrwt>
</event>
<event>
 4    1  0.4365842E+000  0.2634376E+03  0.7546771E-02  0.1105095E+00
         21   -1    0    0  503  502  0.00000000000E+00  0.00000000000E+00  0.67978396579E+03  0.67978396579E+03  0.00000000000E+00 0.  1.
         21   -1    0    0  501  503 -0.00000000000E+00 -0.00000000000E+00 -0.10745381686E+03  0.10745381686E+03  0.00000000000E+00 0. -1.
          6    1    1    2  501    0  0.62860931250E+02  0.18846447917E+03  0.19822448266E+03  0.32968515604E+03  0.17300000000E+03 0. -1.
         -6    1    1    2    0  502 -0.62860931250E+02 -0.18846447917E+03  0.37410566627E+03  0.45755262661E+03  0.17300000000E+03 0.  1.
<mgrwt>
<rscale>  2 0.26343758E+03</rscale>
<asrwt>0</asrwt>
<pdfrwt beam="1">  1       21 0.10458215E+00 0.26343758E+03</pdfrwt>
<pdfrwt beam="2">  1       21 0.16531357E-01 0.26343758E+03</pdfrwt>
<totfact> 0.23323917E+04</totfact>
</mgrwt>
</event>
<event>
 4    1  0.4365842E+000  0.1875506E+03  0.7546771E-02  0.1160689E+00
         21   -1    0    0  501  502  0.00000000000E+00  0.00000000000E+00  0.26960431767E+03  0.26960431767E+03  0.00000000000E+00 0.  1.
         21   -1    0    0  502  503 -0.00000000000E+00 -0.00000000000E+00 -0.35218685449E+03  0.35218685449E+03  0.00000000000E+00 0.  1.
          6    1    1    2  501    0 -0.64048196098E+02  0.33824125071E+02  0.20538504974E+03  0.27813353181E+03  0.17300000000E+03 0.  1.
         -6    1    1    2    0  503  0.64048196098E+02 -0.33824125071E+02 -0.28796758656E+03  0.34365764035E+03  0.17300000000E+03 0.  1.
<mgrwt>
<rscale>  2 0.18755064E+03</rscale>
<asrwt>0</asrwt>
<pdfrwt beam="1">  1       21 0.41477588E-01 0.18755064E+03</pdfrwt>
<pdfrwt beam="2">  1       21 0.54182593E-01 0.18755064E+03</pdfrwt>
<totfact> 0.18074451E+04</totfact>
</mgrwt>
</event>
<event>
 4    1  0.4365842E+000  0.1956520E+03  0.7546771E-02  0.1153460E+00
         21   -1    0    0  501  502  0.00000000000E+00  0.00000000000E+00  0.83338990858E+02  0.83338990858E+02  0.00000000000E+00 0.  1.
         21   -1    0    0  502  503 -0.00000000000E+00 -0.00000000000E+00 -0.63626203213E+03  0.63626203213E+03  0.00000000000E+00 0. -1.
          6    1    1    2  501    0  0.58967478042E+02  0.69810638039E+02 -0.86724077783E+02  0.21401110793E+03  0.17300000000E+03 0.  1.
         -6    1    1    2    0  503 -0.58967478042E+02 -0.69810638039E+02 -0.46619896348E+03  0.50558991505E+03  0.17300000000E+03 0. -1.
<mgrwt>
<rscale>  2 0.19565196E+03</rscale>
<asrwt>0</asrwt>
<pdfrwt beam="1">  1       21 0.12821383E-01 0.19565196E+03</pdfrwt>
<pdfrwt beam="2">  1       21 0.97886466E-01 0.19565196E+03</pdfrwt>
<totfact> 0.44927314E+04</totfact>
</mgrwt>
</event>
<event>
 4    1  0.4365842E+000  0.1740861E+03  0.7546771E-02  0.1173652E+00
         21   -1    0    0  503  502  0.00000000000E+00  0.00000000000E+00  0.42262996304E+03  0.42262996304E+03  0.00000000000E+00 0.  1.
         21   -1    0    0  501  503 -0.00000000000E+00 -0.00000000000E+00 -0.72775026721E+02  0.72775026721E+02  0.00000000000E+00 0.  1.
          6    1    1    2  501    0 -0.10467181730E+02 -0.16352524286E+02  0.14493457304E+03  0.22652151643E+03  0.17300000000E+03 0.  1.
         -6    1    1    2    0  502  0.10467181730E+02  0.16352524286E+02  0.20492036328E+03  0.26888347333E+03  0.17300000000E+03 0.  1.
<mgrwt>
<rscale>  2 0.17408609E+03</rscale>
<asrwt>0</asrwt>
<pdfrwt beam="1">  1       21 0.65019993E-01 0.17408609E+03</pdfrwt>
<pdfrwt beam="2">  1       21 0.11196158E-01 0.17408609E+03</pdfrwt>
<totfact> 0.14556414E+05</totfact>
</mgrwt>
</event>
<event>
 4    1  0.4365842E+000  0.2042711E+03  0.7546771E-02  0.1146185E+00
         21   -1    0    0  501  502  0.00000000000E+00  0.00000000000E+00  0.21878519651E+04  0.21878519651E+04  0.00000000000E+00 0. -1.
         21   -1    0    0  502  503 -0.00000000000E+00 -0.00000000000E+00 -0.20197739260E+03  0.20197739260E+03  0.00000000000E+00 0. -1.
          6    1    1    2  501    0  0.47421397439E+02  0.97718469444E+02  0.21300376116E+04  0.21398100184E+04  0.17300000000E+03 0. -1.
         -6    1    1    2    0  503 -0.47421397439E+02 -0.97718469444E+02 -0.14416303904E+03  0.25001933931E+03  0.17300000000E+03 0. -1.
<mgrwt>
<rscale>  2 0.20427111E+03</rscale>
<asrwt>0</asrwt>
<pdfrwt beam="1">  1       21 0.33659259E+00 0.20427111E+03</pdfrwt>
<pdfrwt beam="2">  1       21 0.31073447E-01 0.20427111E+03</pdfrwt>
<totfact> 0.20475055E+02</totfact>
</mgrwt>
</event>
<event>
 4    1  0.4365842E+000  0.2309078E+03  0.7546771E-02  0.1126002E+00
         21   -1    0    0  503  502  0.00000000000E+00  0.00000000000E+00  0.26738851961E+03  0.26738851961E+03  0.00000000000E+00 0.  1.
         21   -1    0    0  501  503 -0.00000000000E+00 -0.00000000000E+00 -0.22334568680E+03  0.22334568680E+03  0.00000000000E+00 0. -1.
          6    1    1    2  501    0  0.68038899377E+02  0.13696759390E+03 -0.58313147213E+02  0.23815716816E+03  0.17300000000E+03 0. -1.
         -6    1    1    2    0  502 -0.68038899377E+02 -0.13696759390E+03  0.10235598002E+03  0.25257703826E+03  0.17300000000E+03 0.  1.
<mgrwt>
<rscale>  2 0.23090780E+03</rscale>
<asrwt>0</asrwt>
<pdfrwt beam="1">  1       21 0.41136695E-01 0.23090780E+03</pdfrwt>
<pdfrwt beam="2">  1       21 0.34360875E-01 0.23090780E+03</pdfrwt>
<totfact> 0.45621140E+04</totfact>
</mgrwt>
</event>
<event>
 4    1  0.4365842E+000  0.2400087E+03  0.7546771E-02  0.1119787E+00
         21   -1    0    0  501  502  0.00000000000E+00  0.00000000000E+00  0.29539764360E+04  0.29539764360E+04  0.00000000000E+00 0. -1.
         21   -1    0    0  502  503 -0.00000000000E+00 -0.00000000000E+00 -0.20948396413E+02  0.20948396413E+02  0.00000000000E+00 0. -1.
          6    1    1    2  501    0 -0.54433189250E+02 -0.15720109561E+03  0.18575640242E+04  0.18730051416E+04  0.17300000000E+03 0. -1.
         -6    1    1    2    0  503  0.54433189250E+02  0.15720109561E+03  0.10754640154E+04  0.11019196908E+04  0.17300000000E+03 0. -1.
<mgrwt>
<rscale>  2 0.24000866E+03</rscale>
<asrwt>0</asrwt>
<pdfrwt beam="1">  1       21 0.45445758E+00 0.24000866E+03</pdfrwt>
<pdfrwt beam="2">  1       21 0.32228326E-02 0.24000866E+03</pdfrwt>
<totfact> 0.20476227E+03</totfact>
</mgrwt>
</event>
<event>
 4    1  0.4365842E+000  0.2068534E+03  0.7546771E-02  0.1144082E+00
         21   -1    0    0  501  502  0.00000000000E+00  0.00000000000E+00  0.66160829460E+02  0.66160829460E+02  0.00000000000E+00 0.  1.
         21   -1    0    0  502  503 -0.00000000000E+00 -0.00000000000E+00 -0.96864694160E+03  0.96864694160E+03  0.00000000000E+00 0.  1.
          6    1    1    2  501    0 -0.92306156880E+02  0.65870476293E+02 -0.15296775928E+03  0.25726927843E+03  0.17300000000E+03 0.  1.
         -6    1    1    2    0  503  0.92306156880E+02 -0.65870476293E+02 -0.74951835286E+03  0.77753849263E+03  0.17300000000E+03 0.  1.
<mgrwt>
<rscale>  2 0.20685344E+03</rscale>
<asrwt>0</asrwt>
<pdfrwt beam="1">  1       21 0.10178590E-01 0.20685344E+03</pdfrwt>
<pdfrwt beam="2">  1       21 0.14902259E+00 0.20685344E+03</pdfrwt>
<totfact> 0.23695493E+04</totfact>
</mgrwt>
</event>
<event>
 4    1  0.4365842E+000  0.2939760E+03  0.7546771E-02  0.1088291E+00
         21   -1    0    0  501  502  0.00000000000E+00  0.00000000000E+00  0.67578270425E+03  0.67578270425E+03  0.00000000000E+00 0.  1.
         21   -1    0    0  502  503 -0.00000000000E+00 -0.00000000000E+00 -0.16779834065E+03  0.16779834065E+03  0.00000000000E+00 0. -1.
          6    1    1    2  501    0  0.20014547852E+03 -0.12819781796E+03  0.45970752230E+03  0.54566738876E+03  0.17300000000E+03 0.  1.
         -6    1    1    2    0  503 -0.20014547852E+03  0.12819781796E+03  0.48276841305E+02  0.29791365613E+03  0.17300000000E+03 0. -1.
<mgrwt>
<rscale>  2 0.29397601E+03</rscale>
<asrwt>0</asrwt>
<pdfrwt beam="1">  1       21 0.10396657E+00 0.29397601E+03</pdfrwt>
<pdfrwt beam="2">  1       21 0.25815130E-01 0.29397601E+03</pdfrwt>
<totfact> 0.10044500E+04</totfact>
</mgrwt>
</event>
<event>
 4    1  0.4365842E+000  0.2291572E+03  0.7546771E-02  0.1127234E+00
         21   -1    0    0  503  502  0.00000000000E+00  0.00000000000E+00  0.13991584697E+03  0.13991584697E+03  0.00000000000E+00 0.  1.
         21   -1    0    0  501  503 -0.00000000000E+00 -0.00000000000E+00 -0.45062215605E+03  0.45062215605E+03  0.00000000000E+00 0.  1.
          6    1    1    2  501    0  0.60794263458E+02  0.13743398037E+03 -0.27605638173E+03  0.35877592913E+03  0.17300000000E+03 0.  1.
         -6    1    1    2    0  502 -0.60794263458E+02 -0.13743398037E+03 -0.34649927350E+02  0.23176207389E+03  0.17300000000E+03 0.  1.
<mgrwt>
<rscale>  2 0.22915724E+03</rscale>
<asrwt>0</asrwt>
<pdfrwt beam="1">  1       21 0.21525515E-01 0.22915724E+03</pdfrwt>
<pdfrwt beam="2">  1       21 0.69326484E-01 0.22915724E+03</pdfrwt>
<totfact> 0.37373985E+04</totfact>
</mgrwt>
</event>
<event>
 4    1  0.4365842E+000  0.1980270E+03  0.7546771E-02  0.1151414E+00
         21   -1    0    0  503  502  0.00000000000E+00  0.00000000000E+00  0.61852745315E+02  0.61852745315E+02  0.00000000000E+00 0. -1.
         21   -1    0    0  501  503 -0.00000000000E+00 -0.00000000000E+00 -0.96546132131E+03  0.96546132131E+03  0.00000000000E+00 0.  1.
          6    1    1    2  501    0 -0.95959924432E+02  0.87972978797E+01 -0.15083540056E+03  0.24892974432E+03  0.17300000000E+03 0. -1.
         -6    1    1    2    0  502  0.95959924432E+02 -0.87972978797E+01 -0.75277317544E+03  0.77838432230E+03  0.17300000000E+03 0.  1.
<mgrwt>
<rscale>  2 0.19802702E+03</rscale>
<asrwt>0</asrwt>
<pdfrwt beam="1">  1       21 0.95158072E-02 0.19802702E+03</pdfrwt>
<pdfrwt beam="2">  1       21 0.14853251E+00 0.19802702E+03</pdfrwt>
<totfact> 0.27073179E+04</totfact>
</mgrwt>
</event>
<event>
 4    1  0.4365842E+000  0.1740388E+03  0.7546771E-02  0.1173700E+00
         21   -1    0    0  503  502  0.00000000000E+00  0.00000000000E+00  0.17888001165E+03  0.17888001165E+03  0.00000000000E+00 0. -1.
         21   -1    0    0  501  503 -0.00000000000E+00 -0.00000000000E+00 -0.16940700519E+03  0.16940700519E+03  0.00000000000E+00 0. -1.
          6    1    1    2  501    0 -0.18361476483E+02  0.48324292341E+01  0.98933632766E+00  0.17404158979E+03  0.17300000000E+03 0.  1.
         -6    1    1    2    0  502  0.18361476483E+02 -0.48324292341E+01  0.84836701330E+01  0.17424542706E+03  0.17300000000E+03 0.  1.
<mgrwt>
<rscale>  2 0.17403878E+03</rscale>
<asrwt>0</asrwt>
<pdfrwt beam="1">  1       21 0.27520002E-01 0.17403878E+03</pdfrwt>
<pdfrwt beam="2">  1       21 0.26062616E-01 0.17403878E+03</pdfrwt>
<totfact> 0.17719401E+05</totfact>
</mgrwt>
</event>
<event>
 4    1  0.4365842E+000  0.2360984E+03  0.7546771E-02  0.1122420E+00
         21   -1    0    0  503  502  0.00000000000E+00  0.00000000000E+00  0.49649472985E+03  0.49649472985E+03  0.00000000000E+00 0.  1.
         21   -1    0    0  501  503 -0.00000000000E+00 -0.00000000000E+00 -0.12857031748E+03  0.12857031748E+03  0.00000000000E+00 0.  1.
          6    1    1    2  501    0  0.69018942291E+01  0.16051734580E+03  0.72687540711E+02  0.24703427499E+03  0.17300000000E+03 0.  1.
         -6    1    1    2    0  502 -0.69018942291E+01 -0.16051734580E+03  0.29523687166E+03  0.37803077234E+03  0.17300000000E+03 0.  1.
<mgrwt>
<rscale>  2 0.23609840E+03</rscale>
<asrwt>0</asrwt>
<pdfrwt beam="1">  1       21 0.76383804E-01 0.23609840E+03</pdfrwt>
<pdfrwt beam="2">  1       21 0.19780049E-01 0.23609840E+03</pdfrwt>
<totfact> 0.35182724E+04</totfact>
</mgrwt>
</event>
<event>
 4    1  0.4365842E+000  0.3328385E+03  0.7546771E-02  0.1069888E+00
         21   -1    0    0  503  502  0.00000000000E+00  0.00000000000E+00  0.78247862613E+02  0.78247862613E+02  0.00000000000E+00 0.  1.
         21   -1    0    0  501  503 -0.00000000000E+00 -0.00000000000E+00 -0.14867532685E+04  0.14867532685E+04  0.00000000000E+00 0. -1.
          6    1    1    2  501    0  0.95167951544E+02 -0.26794689427E+03 -0.87522416660E+03  0.93637536221E+03  0.17300000000E+03 0.  1.
         -6    1    1    2    0  502 -0.95167951544E+02  0.26794689427E+03 -0.53328123927E+03  0.62862576888E+03  0.17300000000E+03 0. -1.
<mgrwt>
<rscale>  2 0.33283852E+03</rscale>
<asrwt>0</asrwt>
<pdfrwt beam="1">  1       21 0.12038133E-01 0.33283852E+03</pdfrwt>
<pdfrwt beam="2">  1       21 0.22873127E+00 0.33283852E+03</pdfrwt>
<totfact> 0.46738113E+03</totfact>
</mgrwt>
</event>
<event>
 4    1  0.4365842E+000  0.1749771E+03  0.7546771E-02  0.1172755E+00
         21   -1    0    0  503  502  0.00000000000E+00  0.00000000000E+00  0.18980518386E+03  0.18980518386E+03  0.00000000000E+00 0.  1.
         21   -1    0    0  501  503 -0.00000000000E+00 -0.00000000000E+00 -0.16349695420E+03  0.16349695420E+03  0.00000000000E+00 0.  1.
          6    1    1    2  501    0  0.32158583982E+01 -0.26031655526E+02 -0.72884340101E+01  0.17512883859E+03  0.17300000000E+03 0.  1.
         -6    1    1    2    0  502 -0.32158583982E+01  0.26031655526E+02  0.33596663672E+02  0.17817329947E+03  0.17300000000E+03 0.  1.
<mgrwt>
<rscale>  2 0.17497711E+03</rscale>
<asrwt>0</asrwt>
<pdfrwt beam="1">  1       21 0.29200797E-01 0.17497711E+03</pdfrwt>
<pdfrwt beam="2">  1       21 0.25153378E-01 0.17497711E+03</pdfrwt>
<totfact> 0.16905482E+05</totfact>
</mgrwt>
</event>
<event>
 4    1  0.4365842E+000  0.1896613E+03  0.7546771E-02  0.1158767E+00
         21   -1    0    0  501  502  0.00000000000E+00  0.00000000000E+00  0.94529086297E+03  0.94529086297E+03  0.00000000000E+00 0.  1.
         21   -1    0    0  502  503 -0.00000000000E+00 -0.00000000000E+00 -0.38348958488E+02  0.38348958488E+02  0.00000000000E+00 0. -1.
          6    1    1    2  501    0  0.71622804189E+02  0.30208797312E+02  0.49665814878E+03  0.53163964700E+03  0.17300000000E+03 0. -1.
         -6    1    1    2    0  503 -0.71622804189E+02 -0.30208797312E+02  0.41028375570E+03  0.45200017446E+03  0.17300000000E+03 0. -1.
<mgrwt>
<rscale>  2 0.18966127E+03</rscale>
<asrwt>0</asrwt>
<pdfrwt beam="1">  1       21 0.14542935E+00 0.18966127E+03</pdfrwt>
<pdfrwt beam="2">  1       21 0.58998405E-02 0.18966127E+03</pdfrwt>
<totfact> 0.65886871E+04</totfact>
</mgrwt>
</event>
<event>
 4    1  0.4365842E+000  0.2042777E+03  0.7546771E-02  0.1146179E+00
         21   -1    0    0  503  502  0.00000000000E+00  0.00000000000E+00  0.40770785450E+03  0.40770785450E+03  0.00000000000E+00 0. -1.
         21   -1    0    0  501  503 -0.00000000000E+00 -0.00000000000E+00 -0.11790084785E+03  0.11790084785E+03  0.00000000000E+00 0.  1.
          6    1    1    2  501    0  0.98680786904E+02 -0.45414379618E+02  0.49462453403E+02  0.21018063155E+03  0.17300000000E+03 0.  1.
         -6    1    1    2    0  502 -0.98680786904E+02  0.45414379618E+02  0.24034455325E+03  0.31542807081E+03  0.17300000000E+03 0. -1.
<mgrwt>
<rscale>  2 0.20427766E+03</rscale>
<asrwt>0</asrwt>
<pdfrwt beam="1">  1       21 0.62724284E-01 0.20427766E+03</pdfrwt>
<pdfrwt beam="2">  1       21 0.18138592E-01 0.20427766E+03</pdfrwt>
<totfact> 0.64831008E+04</totfact>
</mgrwt>
</event>
<event>
 4    1  0.4365842E+000  0.2905644E+03  0.7546771E-02  0.1090055E+00
         21   -1    0    0  503  502  0.00000000000E+00  0.00000000000E+00  0.34771690061E+03  0.34771690061E+03  0.00000000000E+00 0. -1.
         21   -1    0    0  501  503 -0.00000000000E+00 -0.00000000000E+00 -0.40428885065E+03  0.40428885065E+03  0.00000000000E+00 0.  1.
          6    1    1    2  501    0 -0.97918390565E+01  0.23324399657E+03 -0.26592015337E+03  0.39387963899E+03  0.17300000000E+03 0.  1.
         -6    1    1    2    0  502  0.97918390565E+01 -0.23324399657E+03  0.20934820333E+03  0.35812611226E+03  0.17300000000E+03 0. -1.
<mgrwt>
<rscale>  2 0.29056435E+03</rscale>
<asrwt>0</asrwt>
<pdfrwt beam="1">  1       21 0.53494908E-01 0.29056435E+03</pdfrwt>
<pdfrwt beam="2">  1       21 0.62198285E-01 0.29056435E+03</pdfrwt>
<totfact> 0.74764202E+03</totfact>
</mgrwt>
</event>
<event>
 4    1  0.4365842E+000  0.2261844E+03  0.7546771E-02  0.1129355E+00
         21   -1    0    0  501  502  0.00000000000E+00  0.00000000000E+00  0.54894762995E+03  0.54894762995E+03  0.00000000000E+00 0. -1.
         21   -1    0    0  502  503 -0.00000000000E+00 -0.00000000000E+00 -0.16896860079E+03  0.16896860079E+03  0.00000000000E+00 0.  1.
          6    1    1    2  501    0  0.11131277363E+03  0.94020533242E+02  0.43036965662E+03  0.48618662629E+03  0.17300000000E+03 0. -1.
         -6    1    1    2    0  503 -0.11131277363E+03 -0.94020533242E+02 -0.50390627454E+02  0.23172960445E+03  0.17300000000E+03 0.  1.
<mgrwt>
<rscale>  2 0.22618443E+03</rscale>
<asrwt>0</asrwt>
<pdfrwt beam="1">  1       21 0.84453481E-01 0.22618443E+03</pdfrwt>
<pdfrwt beam="2">  1       21 0.25995170E-01 0.22618443E+03</pdfrwt>
<totfact> 0.16750519E+04</totfact>
</mgrwt>
</event>
<event>
 4    1  0.4365842E+000  0.2509697E+03  0.7546771E-02  0.1112694E+00
         21   -1    0    0  503  502  0.00000000000E+00  0.00000000000E+00  0.75583139039E+02  0.75583139039E+02  0.00000000000E+00 0.  1.
         21   -1    0    0  501  503 -0.00000000000E+00 -0.00000000000E+00 -0.99759642909E+03  0.99759642909E+03  0.00000000000E+00 0. -1.
          6    1    1    2  501    0  0.16796422792E+03  0.69604637582E+02 -0.24326686086E+03  0.34952046153E+03  0.17300000000E+03 0.  1.
         -6    1    1    2    0  502 -0.16796422792E+03 -0.69604637582E+02 -0.67874642919E+03  0.72365910660E+03  0.17300000000E+03 0. -1.
<mgrwt>
<rscale>  2 0.25096969E+03</rscale>
<asrwt>0</asrwt>
<pdfrwt beam="1">  1       21 0.11628175E-01 0.25096969E+03</pdfrwt>
<pdfrwt beam="2">  1       21 0.15347638E+00 0.25096969E+03</pdfrwt>
<totfact> 0.16833694E+04</totfact>
</mgrwt>
</event>
<event>
 4    1  0.4365842E+000  0.1749977E+03  0.7546771E-02  0.1172734E+00
         21   -1    0    0  503  502  0.00000000000E+00  0.00000000000E+00  0.39571010334E+02  0.39571010334E+02  0.00000000000E+00 0.  1.
         21   -1    0    0  501  503 -0.00000000000E+00 -0.00000000000E+00 -0.11310148904E+04  0.11310148904E+04  0.00000000000E+00 0.  1.
          6    1    1    2  501    0  0.16292293618E+02  0.20730538816E+02 -0.87460401553E+03  0.89193967176E+03  0.17300000000E+03 0.  1.
         -6    1    1    2    0  502 -0.16292293618E+02 -0.20730538816E+02 -0.21683986453E+03  0.27864622897E+03  0.17300000000E+03 0.  1.
<mgrwt>
<rscale>  2 0.17499770E+03</rscale>
<asrwt>0</asrwt>
<pdfrwt beam="1">  1       21 0.60878484E-02 0.17499770E+03</pdfrwt>
<pdfrwt beam="2">  1       21 0.17400227E+00 0.17499770E+03</pdfrwt>
<totfact> 0.38922220E+04</totfact>
</mgrwt>
</event>
<event>
 4    1  0.4365842E+000  0.2065855E+03  0.7546771E-02  0.1144299E+00
         21   -1    0    0  501  502  0.00000000000E+00  0.00000000000E+00  0.10530907784E+04  0.10530907784E+04  0.00000000000E+00 0.  1.
         21   -1    0    0  502  503 -0.00000000000E+00 -0.00000000000E+00 -0.70677908514E+02  0.70677908514E+02  0.00000000000E+00 0.  1.
          6    1    1    2  501    0  0.96388597892E+02 -0.58803084523E+02  0.85820336982E+03  0.88271772868E+03  0.17300000000E+03 0.  1.
         -6    1    1    2    0  503 -0.96388597892E+02  0.58803084523E+02  0.12420950004E+03  0.24105095821E+03  0.17300000000E+03 0.  1.
<mgrwt>
<rscale>  2 0.20658549E+03</rscale>
<asrwt>0</asrwt>
<pdfrwt beam="1">  1       21 0.16201395E+00 0.20658549E+03</pdfrwt>
<pdfrwt beam="2">  1       21 0.10873525E-01 0.20658549E+03</pdfrwt>
<totfact> 0.16855548E+04</totfact>
</mgrwt>
</event>
<event>
 4    1  0.4365842E+000  0.2086265E+03  0.7546771E-02  0.1142658E+00
         21   -1    0    0  503  502  0.00000000000E+00  0.00000000000E+00  0.72171072546E+03  0.72171072546E+03  0.00000000000E+00 0.  1.
         21   -1    0    0  501  503 -0.00000000000E+00 -0.00000000000E+00 -0.28310676022E+03  0.28310676022E+03  0.00000000000E+00 0.  1.
          6    1    1    2  501    0 -0.15421255099E+02 -0.11557767655E+03 -0.22639361042E+03  0.30786211405E+03  0.17300000000E+03 0.  1.
         -6    1    1    2    0  502  0.15421255099E+02  0.11557767655E+03  0.66499757566E+03  0.69695537164E+03  0.17300000000E+03 0.  1.
<mgrwt>
<rscale>  2 0.20862650E+03</rscale>
<asrwt>0</asrwt>
<pdfrwt beam="1">  1       21 0.11103242E+00 0.20862650E+03</pdfrwt>
<pdfrwt beam="2">  1       21 0.43554886E-01 0.20862650E+03</pdfrwt>
<totfact> 0.31915226E+03</totfact>
</mgrwt>
</event>
<event>
 4    1  0.4365842E+000  0.1937010E+03  0.7546771E-02  0.1155165E+00
         21   -1    0    0  501  502  0.00000000000E+00  0.00000000000E+00  0.90850226165E+02  0.90850226165E+02  0.00000000000E+00 0.  1.
         21   -1    0    0  502  503 -0.00000000000E+00 -0.00000000000E+00 -0.59343793120E+03  0.59343793120E+03  0.00000000000E+00 0.  1.
          6    1    1    2  501    0 -0.80293707778E+02 -0.33822794374E+02 -0.62625248795E+02  0.20357304024E+03  0.17300000000E+03 0.  1.
         -6    1    1    2    0  503  0.80293707778E+02  0.33822794374E+02 -0.43996245624E+03  0.48071511712E+03  0.17300000000E+03 0.  1.
<mgrwt>
<rscale>  2 0.19370096E+03</rscale>
<asrwt>0</asrwt>
<pdfrwt beam="1">  1       21 0.13976959E-01 0.19370096E+03</pdfrwt>
<pdfrwt beam="2">  1       21 0.91298137E-01 0.19370096E+03</pdfrwt>
<totfact> 0.45301243E+04</totfact>
</mgrwt>
</event>
<event>
 4    1  0.4365842E+000  0.1754730E+03  0.7546771E-02  0.1172258E+00
         21   -1    0    0  501  502  0.00000000000E+00  0.00000000000E+00  0.81677819856E+02  0.81677819856E+02  0.00000000000E+00 0.  1.
         21   -1    0    0  502  503 -0.00000000000E+00 -0.00000000000E+00 -0.83013827526E+03  0.83013827526E+03  0.00000000000E+00 0.  1.
          6    1    1    2  501    0 -0.26363159529E+02  0.12913061615E+02 -0.37386996251E+02  0.17941167975E+03  0.17300000000E+03 0.  1.
         -6    1    1    2    0  503  0.26363159529E+02 -0.12913061615E+02 -0.71107345915E+03  0.73240441537E+03  0.17300000000E+03 0.  1.
<mgrwt>
<rscale>  2 0.17547297E+03</rscale>
<asrwt>0</asrwt>
<pdfrwt beam="1">  1       21 0.12565818E-01 0.17547297E+03</pdfrwt>
<pdfrwt beam="2">  1       21 0.12771358E+00 0.17547297E+03</pdfrwt>
<totfact> 0.24686642E+04</totfact>
</mgrwt>
</event>
<event>
 4    1  0.4365842E+000  0.2063742E+03  0.7546771E-02  0.1144470E+00
         21   -1    0    0  503  502  0.00000000000E+00  0.00000000000E+00  0.20761114035E+03  0.20761114035E+03  0.00000000000E+00 0.  1.
         21   -1    0    0  501  503 -0.00000000000E+00 -0.00000000000E+00 -0.20534499207E+03  0.20534499207E+03  0.00000000000E+00 0.  1.
          6    1    1    2  501    0  0.10472280138E+03  0.41163402020E+02  0.75843086661E+01  0.20651346817E+03  0.17300000000E+03 0.  1.
         -6    1    1    2    0  502 -0.10472280138E+03 -0.41163402020E+02 -0.53181603802E+01  0.20644266426E+03  0.17300000000E+03 0.  1.
<mgrwt>
<rscale>  2 0.20637415E+03</rscale>
<asrwt>0</asrwt>
<pdfrwt beam="1">  1       21 0.31940176E-01 0.20637415E+03</pdfrwt>
<pdfrwt beam="2">  1       21 0.31591537E-01 0.20637415E+03</pdfrwt>
<totfact> 0.90285885E+04</totfact>
</mgrwt>
</event>
<event>
 4    1  0.4365842E+000  0.2165774E+03  0.7546771E-02  0.1136461E+00
         21   -1    0    0  501  502  0.00000000000E+00  0.00000000000E+00  0.77066974777E+02  0.77066974777E+02  0.00000000000E+00 0.  1.
         21   -1    0    0  502  503 -0.00000000000E+00 -0.00000000000E+00 -0.61375179521E+03  0.61375179521E+03  0.00000000000E+00 0. -1.
          6    1    1    2  501    0 -0.20538141102E+02  0.12866609916E+03 -0.23680910419E+03  0.32091172017E+03  0.17300000000E+03 0. -1.
         -6    1    1    2    0  503  0.20538141102E+02 -0.12866609916E+03 -0.29987571624E+03  0.36990704981E+03  0.17300000000E+03 0. -1.
<mgrwt>
<rscale>  2 0.21657742E+03</rscale>
<asrwt>0</asrwt>
<pdfrwt beam="1">  1       21 0.11856458E-01 0.21657742E+03</pdfrwt>
<pdfrwt beam="2">  1       21 0.94423348E-01 0.21657742E+03</pdfrwt>
<totfact> 0.55688497E+04</totfact>
</mgrwt>
</event>
<event>
 4    1  0.4365842E+000  0.2301612E+03  0.7546771E-02  0.1126526E+00
         21   -1    0    0  501  502  0.00000000000E+00  0.00000000000E+00  0.10280013247E+03  0.10280013247E+03  0.00000000000E+00 0. -1.
         21   -1    0    0  502  503 -0.00000000000E+00 -0.00000000000E+00 -0.74697935256E+03  0.74697935256E+03  0.00000000000E+00 0.  1.
          6    1    1    2  501    0  0.75626052430E+02 -0.13162779457E+03 -0.85468191563E+02  0.24551779544E+03  0.17300000000E+03 0. -1.
         -6    1    1    2    0  503 -0.75626052430E+02  0.13162779457E+03 -0.55871102853E+03  0.60426168959E+03  0.17300000000E+03 0.  1.
<mgrwt>
<rscale>  2 0.23016120E+03</rscale>
<asrwt>0</asrwt>
<pdfrwt beam="1">  1       21 0.15815405E-01 0.23016120E+03</pdfrwt>
<pdfrwt beam="2">  1       21 0.11491990E+00 0.23016120E+03</pdfrwt>
<totfact> 0.20451148E+04</totfact>
</mgrwt>
</event>
<event>
 4    1  0.4365842E+000  0.1922472E+03  0.7546771E-02  0.1156450E+00
         21   -1    0    0  503  502  0.00000000000E+00  0.00000000000E+00  0.99543229928E+02  0.99543229928E+02  0.00000000000E+00 0.  1.
         21   -1    0    0  501  503 -0.00000000000E+00 -0.00000000000E+00 -0.38209860660E+03  0.38209860660E+03  0.00000000000E+00 0.  1.
          6    1    1    2  501    0 -0.50158306539E+02  0.67187170521E+02 -0.18178924760E+03  0.26458704076E+03  0.17300000000E+03 0.  1.
         -6    1    1    2    0  502  0.50158306539E+02 -0.67187170521E+02 -0.10076612908E+03  0.21705479577E+03  0.17300000000E+03 0.  1.
<mgrwt>
<rscale>  2 0.19224716E+03</rscale>
<asrwt>0</asrwt>
<pdfrwt beam="1">  1       21 0.15314343E-01 0.19224716E+03</pdfrwt>
<pdfrwt beam="2">  1       21 0.58784401E-01 0.19224716E+03</pdfrwt>
<totfact> 0.10228968E+05</totfact>
</mgrwt>
</event>
<event>
 4    1  0.4365842E+000  0.1820321E+03  0.7546771E-02  0.1165851E+00
         21   -1    0    0  503  502  0.00000000000E+00  0.00000000000E+00  0.26337609033E+03  0.26337609033E+03  0.00000000000E+00 0.  1.
         21   -1    0    0  501  503 -0.00000000000E+00 -0.00000000000E+00 -0.14509822283E+03  0.14509822283E+03  0.00000000000E+00 0. -1.
          6    1    1    2  501    0 -0.54995906983E+02 -0.13495509708E+02  0.13360108808E+03  0.22579842626E+03  0.17300000000E+03 0.  1.
         -6    1    1    2    0  502  0.54995906983E+02  0.13495509708E+02 -0.15323220581E+02  0.18267588690E+03  0.17300000000E+03 0. -1.
<mgrwt>
<rscale>  2 0.18203208E+03</rscale>
<asrwt>0</asrwt>
<pdfrwt beam="1">  1       21 0.40519398E-01 0.18203208E+03</pdfrwt>
<pdfrwt beam="2">  1       21 0.22322804E-01 0.18203208E+03</pdfrwt>
<totfact> 0.11063253E+05</totfact>
</mgrwt>
</event>
<event>
 4    1  0.4365842E+000  0.2382038E+03  0.7546771E-02  0.1120995E+00
         21   -1    0    0  503  502  0.00000000000E+00  0.00000000000E+00  0.10677811846E+04  0.10677811846E+04  0.00000000000E+00 0.  1.
         21   -1    0    0  501  503 -0.00000000000E+00 -0.00000000000E+00 -0.57557889087E+02  0.57557889087E+02  0.00000000000E+00 0.  1.
          6    1    1    2  501    0 -0.89290476713E+02 -0.13725610486E+03  0.34921090891E+03  0.42271655569E+03  0.17300000000E+03 0.  1.
         -6    1    1    2    0  502  0.89290476713E+02  0.13725610486E+03  0.66101238663E+03  0.70262251802E+03  0.17300000000E+03 0.  1.
<mgrwt>
<rscale>  2 0.23820375E+03</rscale>
<asrwt>0</asrwt>
<pdfrwt beam="1">  1       21 0.16427401E+00 0.23820375E+03</pdfrwt>
<pdfrwt beam="2">  1       21 0.88550606E-02 0.23820375E+03</pdfrwt>
<totfact> 0.22882757E+04</totfact>
</mgrwt>
</event>
<event>
 4    1  0.4365842E+000  0.2092599E+03  0.7546771E-02  0.1142153E+00
         21   -1    0    0  501  502  0.00000000000E+00  0.00000000000E+00  0.22275983968E+03  0.22275983968E+03  0.00000000000E+00 0.  1.
         21   -1    0    0  502  503 -0.00000000000E+00 -0.00000000000E+00 -0.19690569622E+03  0.19690569622E+03  0.00000000000E+00 0.  1.
          6    1    1    2  501    0  0.78363729673E+02  0.87862535253E+02  0.21486285563E+02  0.21036007154E+03  0.17300000000E+03 0.  1.
         -6    1    1    2    0  503 -0.78363729673E+02 -0.87862535253E+02  0.43678578906E+01  0.20930546436E+03  0.17300000000E+03 0.  1.
<mgrwt>
<rscale>  2 0.20925988E+03</rscale>
<asrwt>0</asrwt>
<pdfrwt beam="1">  1       21 0.34270745E-01 0.20925988E+03</pdfrwt>
<pdfrwt beam="2">  1       21 0.30293184E-01 0.20925988E+03</pdfrwt>
<totfact> 0.85194847E+04</totfact>
</mgrwt>
</event>
<event>
 4    1  0.4365842E+000  0.1743934E+03  0.7546771E-02  0.1173342E+00
         21   -1    0    0  501  502  0.00000000000E+00  0.00000000000E+00  0.89839411775E+03  0.89839411775E+03  0.00000000000E+00 0.  1.
         21   -1    0    0  502  503 -0.00000000000E+00 -0.00000000000E+00 -0.38008318686E+02  0.38008318686E+02  0.00000000000E+00 0.  1.
          6    1    1    2  501    0  0.13692531383E+02  0.17220778050E+02  0.58500773081E+03  0.61044826621E+03  0.17300000000E+03 0.  1.
         -6    1    1    2    0  503 -0.13692531383E+02 -0.17220778050E+02  0.27537806825E+03  0.32595417023E+03  0.17300000000E+03 0.  1.
<mgrwt>
<rscale>  2 0.17439335E+03</rscale>
<asrwt>0</asrwt>
<pdfrwt beam="1">  1       21 0.13821446E+00 0.17439335E+03</pdfrwt>
<pdfrwt beam="2">  1       21 0.58474343E-02 0.17439335E+03</pdfrwt>
<totfact> 0.76909813E+04</totfact>
</mgrwt>
</event>
<event>
 4    1  0.4365842E+000  0.1912711E+03  0.7546771E-02  0.1157320E+00
         21   -1    0    0  501  502  0.00000000000E+00  0.00000000000E+00  0.31650956415E+03  0.31650956415E+03  0.00000000000E+00 0.  1.
         21   -1    0    0  502  503 -0.00000000000E+00 -0.00000000000E+00 -0.11671587405E+03  0.11671587405E+03  0.00000000000E+00 0. -1.
          6    1    1    2  501    0  0.33377125790E+02 -0.74441825448E+02  0.12119312702E+03  0.22643407857E+03  0.17300000000E+03 0. -1.
         -6    1    1    2    0  503 -0.33377125790E+02  0.74441825448E+02  0.78600563084E+02  0.20679135963E+03  0.17300000000E+03 0. -1.
<mgrwt>
<rscale>  2 0.19127106E+03</rscale>
<asrwt>0</asrwt>
<pdfrwt beam="1">  1       21 0.48693779E-01 0.19127106E+03</pdfrwt>
<pdfrwt beam="2">  1       21 0.17956288E-01 0.19127106E+03</pdfrwt>
<totfact> 0.11360984E+05</totfact>
</mgrwt>
</event>
<event>
 4    1  0.4365842E+000  0.2800409E+03  0.7546771E-02  0.1095667E+00
         21   -1    0    0  503  502  0.00000000000E+00  0.00000000000E+00  0.28549706345E+03  0.28549706345E+03  0.00000000000E+00 0. -1.
         21   -1    0    0  501  503 -0.00000000000E+00 -0.00000000000E+00 -0.27512015140E+03  0.27512015140E+03  0.00000000000E+00 0. -1.
          6    1    1    2  501    0  0.10914998241E+03  0.19125954503E+03 -0.59068255736E+01  0.28010323599E+03  0.17300000000E+03 0. -1.
         -6    1    1    2    0  502 -0.10914998241E+03 -0.19125954503E+03  0.16283737623E+02  0.28051397886E+03  0.17300000000E+03 0. -1.
<mgrwt>
<rscale>  2 0.28004095E+03</rscale>
<asrwt>0</asrwt>
<pdfrwt beam="1">  1       21 0.43922625E-01 0.28004095E+03</pdfrwt>
<pdfrwt beam="2">  1       21 0.42326177E-01 0.28004095E+03</pdfrwt>
<totfact> 0.25634444E+04</totfact>
</mgrwt>
</event>
<event>
 4    1  0.4365842E+000  0.2445969E+03  0.7546771E-02  0.1116768E+00
         21   -1    0    0  501  502  0.00000000000E+00  0.00000000000E+00  0.78360298484E+02  0.78360298484E+02  0.00000000000E+00 0.  1.
         21   -1    0    0  502  503 -0.00000000000E+00 -0.00000000000E+00 -0.77687798391E+03  0.77687798391E+03  0.00000000000E+00 0. -1.
          6    1    1    2  501    0 -0.14043728364E+03 -0.10087624503E+03 -0.29313243068E+03  0.38177777485E+03  0.17300000000E+03 0. -1.
         -6    1    1    2    0  503  0.14043728364E+03  0.10087624503E+03 -0.40538525474E+03  0.47346050755E+03  0.17300000000E+03 0.  1.
<mgrwt>
<rscale>  2 0.24459691E+03</rscale>
<asrwt>0</asrwt>
<pdfrwt beam="1">  1       21 0.12055430E-01 0.24459691E+03</pdfrwt>
<pdfrwt beam="2">  1       21 0.11951969E+00 0.24459691E+03</pdfrwt>
<totfact> 0.30180589E+04</totfact>
</mgrwt>
</event>
<event>
 4    1  0.4365842E+000  0.2017100E+03  0.7546771E-02  0.1148304E+00
         21   -1    0    0  503  502  0.00000000000E+00  0.00000000000E+00  0.93827633805E+03  0.93827633805E+03  0.00000000000E+00 0.  1.
         21   -1    0    0  501  503 -0.00000000000E+00 -0.00000000000E+00 -0.50460178965E+02  0.50460178965E+02  0.00000000000E+00 0. -1.
          6    1    1    2  501    0 -0.44963941663E+02 -0.93467532641E+02  0.25851048281E+03  0.32789419853E+03  0.17300000000E+03 0. -1.
         -6    1    1    2    0  502  0.44963941663E+02  0.93467532641E+02  0.62930567628E+03  0.66084231849E+03  0.17300000000E+03 0. -1.
<mgrwt>
<rscale>  2 0.20171003E+03</rscale>
<asrwt>0</asrwt>
<pdfrwt beam="1">  1       21 0.14435019E+00 0.20171003E+03</pdfrwt>
<pdfrwt beam="2">  1       21 0.77631052E-02 0.20171003E+03</pdfrwt>
<totfact> 0.41571253E+04</totfact>
</mgrwt>
</event>
<event>
 4    1  0.4365842E+000  0.2108822E+03  0.7546771E-02  0.1140869E+00
         21   -1    0    0  501  502  0.00000000000E+00  0.00000000000E+00  0.33807363333E+03  0.33807363333E+03  0.00000000000E+00 0. -1.
         21   -1    0    0  502  503 -0.00000000000E+00 -0.00000000000E+00 -0.13276509228E+03  0.13276509228E+03  0.00000000000E+00 0. -1.
          6    1    1    2  501    0 -0.62149328087E+02  0.10334303949E+03  0.80070410687E+02  0.22557170359E+03  0.17300000000E+03 0.  1.
         -6    1    1    2    0  503  0.62149328087E+02 -0.10334303949E+03  0.12523813037E+03  0.24526702202E+03  0.17300000000E+03 0.  1.
<mgrwt>
<rscale>  2 0.21088225E+03</rscale>
<asrwt>0</asrwt>
<pdfrwt beam="1">  1       21 0.52011328E-01 0.21088225E+03</pdfrwt>
<pdfrwt beam="2">  1       21 0.20425399E-01 0.21088225E+03</pdfrwt>
<totfact> 0.77256499E+04</totfact>
</mgrwt>
</event>
<event>
 4    1  0.4365842E+000  0.1807759E+03  0.7546771E-02  0.1167054E+00
         21   -1    0    0  503  502  0.00000000000E+00  0.00000000000E+00  0.26553447952E+03  0.26553447952E+03  0.00000000000E+00 0. -1.
         21   -1    0    0  501  503 -0.00000000000E+00 -0.00000000000E+00 -0.12322904573E+03  0.12322904573E+03  0.00000000000E+00 0. -1.
          6    1    1    2  501    0  0.14269640152E+02  0.50470641671E+02  0.78087894436E+02  0.19692035841E+03  0.17300000000E+03 0. -1.
         -6    1    1    2    0  502 -0.14269640152E+02 -0.50470641671E+02  0.64217539354E+02  0.19184316684E+03  0.17300000000E+03 0. -1.
<mgrwt>
<rscale>  2 0.18077585E+03</rscale>
<asrwt>0</asrwt>
<pdfrwt beam="1">  1       21 0.40851458E-01 0.18077585E+03</pdfrwt>
<pdfrwt beam="2">  1       21 0.18958315E-01 0.18077585E+03</pdfrwt>
<totfact> 0.14777112E+05</totfact>
</mgrwt>
</event>
<event>
 4    1  0.4365842E+000  0.1801078E+03  0.7546771E-02  0.1167699E+00
         21   -1    0    0  503  502  0.00000000000E+00  0.00000000000E+00  0.13931020169E+03  0.13931020169E+03  0.00000000000E+00 0.  1.
         21   -1    0    0  501  503 -0.00000000000E+00 -0.00000000000E+00 -0.24637275259E+03  0.24637275259E+03  0.00000000000E+00 0.  1.
          6    1    1    2  501    0 -0.12376030062E+02  0.48545249382E+02 -0.98705161318E+02  0.20538139212E+03  0.17300000000E+03 0.  1.
         -6    1    1    2    0  502  0.12376030062E+02 -0.48545249382E+02 -0.83573895833E+01  0.18030156216E+03  0.17300000000E+03 0.  1.
<mgrwt>
<rscale>  2 0.18010777E+03</rscale>
<asrwt>0</asrwt>
<pdfrwt beam="1">  1       21 0.21432339E-01 0.18010777E+03</pdfrwt>
<pdfrwt beam="2">  1       21 0.37903500E-01 0.18010777E+03</pdfrwt>
<totfact> 0.13668450E+05</totfact>
</mgrwt>
</event>
<event>
 4    1  0.4365842E+000  0.2509509E+03  0.7546771E-02  0.1112705E+00
         21   -1    0    0  501  502  0.00000000000E+00  0.00000000000E+00  0.83730227018E+03  0.83730227018E+03  0.00000000000E+00 0. -1.
         21   -1    0    0  502  503 -0.00000000000E+00 -0.00000000000E+00 -0.83043679119E+02  0.83043679119E+02  0.00000000000E+00 0. -1.
          6    1    1    2  501    0 -0.16753187499E+03 -0.70572287108E+02  0.51843365803E+03  0.57597728655E+03  0.17300000000E+03 0. -1.
         -6    1    1    2    0  503  0.16753187499E+03  0.70572287108E+02  0.23582493303E+03  0.34436866275E+03  0.17300000000E+03 0. -1.
<mgrwt>
<rscale>  2 0.25095095E+03</rscale>
<asrwt>0</asrwt>
<pdfrwt beam="1">  1       21 0.12881573E+00 0.25095095E+03</pdfrwt>
<pdfrwt beam="2">  1       21 0.12775951E-01 0.25095095E+03</pdfrwt>
<totfact> 0.22435014E+04</totfact>
</mgrwt>
</event>
<event>
 4    1  0.4365842E+000  0.1795000E+03  0.7546771E-02  0.1168288E+00
         21   -1    0    0  501  502  0.00000000000E+00  0.00000000000E+00  0.48289570387E+03  0.48289570387E+03  0.00000000000E+00 0. -1.
         21   -1    0    0  502  503 -0.00000000000E+00 -0.00000000000E+00 -0.69564118801E+02  0.69564118801E+02  0.00000000000E+00 0. -1.
          6    1    1    2  501    0 -0.52306515112E+01  0.47580171870E+02  0.15084120289E+03  0.23446385854E+03  0.17300000000E+03 0. -1.
         -6    1    1    2    0  503  0.52306515112E+01 -0.47580171870E+02  0.26249038217E+03  0.31799596413E+03  0.17300000000E+03 0. -1.
<mgrwt>
<rscale>  2 0.17949995E+03</rscale>
<asrwt>0</asrwt>
<pdfrwt beam="1">  1       21 0.74291645E-01 0.17949995E+03</pdfrwt>
<pdfrwt beam="2">  1       21 0.10702172E-01 0.17949995E+03</pdfrwt>
<totfact> 0.11742530E+05</totfact>
</mgrwt>
</event>
<event>
 4    1  0.4365842E+000  0.2087548E+03  0.7546771E-02  0.1142556E+00
         21   -1    0    0  501  502  0.00000000000E+00  0.00000000000E+00  0.57885214471E+03  0.57885214471E+03  0.00000000000E+00 0. -1.
         21   -1    0    0  502  503 -0.00000000000E+00 -0.00000000000E+00 -0.75444482219E+02  0.75444482219E+02  0.00000000000E+00 0. -1.
          6    1    1    2  501    0  0.98197910496E+02  0.63298767560E+02  0.23663641623E+03  0.31555563231E+03  0.17300000000E+03 0. -1.
         -6    1    1    2    0  503 -0.98197910496E+02 -0.63298767560E+02  0.26677124627E+03  0.33874099462E+03  0.17300000000E+03 0. -1.
<mgrwt>
<rscale>  2 0.20875479E+03</rscale>
<asrwt>0</asrwt>
<pdfrwt beam="1">  1       21 0.89054173E-01 0.20875479E+03</pdfrwt>
<pdfrwt beam="2">  1       21 0.11606844E-01 0.20875479E+03</pdfrwt>
<totfact> 0.66545616E+04</totfact>
</mgrwt>
</event>
<event>
 4    1  0.4365842E+000  0.1898180E+03  0.7546771E-02  0.1158626E+00
         21   -1    0    0  503  502  0.00000000000E+00  0.00000000000E+00  0.67746288031E+02  0.67746288031E+02  0.00000000000E+00 0.  1.
         21   -1    0    0  501  503 -0.00000000000E+00 -0.00000000000E+00 -0.11752324024E+04  0.11752324024E+04  0.00000000000E+00 0.  1.
          6    1    1    2  501    0  0.44086947355E+02  0.64484213720E+02 -0.10135826384E+04  0.10312034899E+04  0.17300000000E+03 0.  1.
         -6    1    1    2    0  502 -0.44086947355E+02 -0.64484213720E+02 -0.93903475933E+02  0.21177520048E+03  0.17300000000E+03 0.  1.
<mgrwt>
<rscale>  2 0.18981800E+03</rscale>
<asrwt>0</asrwt>
<pdfrwt beam="1">  1       21 0.10422507E-01 0.18981800E+03</pdfrwt>
<pdfrwt beam="2">  1       21 0.18080496E+00 0.18981800E+03</pdfrwt>
<totfact> 0.13580848E+04</totfact>
</mgrwt>
</event>
<event>
 4    1  0.4365842E+000  0.1856568E+03  0.7546771E-02  0.1162438E+00
         21   -1    0    0  501  502  0.00000000000E+00  0.00000000000E+00  0.57400621196E+02  0.57400621196E+02  0.00000000000E+00 0.  1.
         21   -1    0    0  502  503 -0.00000000000E+00 -0.00000000000E+00 -0.60624355184E+03  0.60624355184E+03  0.00000000000E+00 0.  1.
          6    1    1    2  501    0 -0.14073820932E+02 -0.65889222460E+02 -0.24209382298E+03  0.30508667817E+03  0.17300000000E+03 0.  1.
         -6    1    1    2    0  503  0.14073820932E+02  0.65889222460E+02 -0.30674910767E+03  0.35855749487E+03  0.17300000000E+03 0.  1.
<mgrwt>
<rscale>  2 0.18565684E+03</rscale>
<asrwt>0</asrwt>
<pdfrwt beam="1">  1       21 0.88308654E-02 0.18565684E+03</pdfrwt>
<pdfrwt beam="2">  1       21 0.93268232E-01 0.18565684E+03</pdfrwt>
<totfact> 0.97934227E+04</totfact>
</mgrwt>
</event>
<event>
 4    1  0.4365842E+000  0.4803328E+03  0.7546771E-02  0.1019044E+00
         21   -1    0    0  501  502  0.00000000000E+00  0.00000000000E+00  0.99799436451E+02  0.99799436451E+02  0.00000000000E+00 0. -1.
         21   -1    0    0  502  503 -0.00000000000E+00 -0.00000000000E+00 -0.23912899231E+04  0.23912899231E+04  0.00000000000E+00 0.  1.
          6    1    1    2  501    0 -0.17359141758E+03  0.41310605358E+03 -0.13727892952E+04  0.14543967962E+04  0.17300000000E+03 0.  1.
         -6    1    1    2    0  503  0.17359141758E+03 -0.41310605358E+03 -0.91870119147E+03  0.10366925634E+04  0.17300000000E+03 0. -1.
<mgrwt>
<rscale>  2 0.48033279E+03</rscale>
<asrwt>0</asrwt>
<pdfrwt beam="1">  1       21 0.15353759E-01 0.48033279E+03</pdfrwt>
<pdfrwt beam="2">  1       21 0.36789077E+00 0.48033279E+03</pdfrwt>
<totfact> 0.39298199E+02</totfact>
</mgrwt>
</event>
<event>
 4    1  0.4365842E+000  0.2303298E+03  0.7546771E-02  0.1126408E+00
         21   -1    0    0  501  502  0.00000000000E+00  0.00000000000E+00  0.52045080706E+02  0.52045080706E+02  0.00000000000E+00 0.  1.
         21   -1    0    0  502  503 -0.00000000000E+00 -0.00000000000E+00 -0.10672015024E+04  0.10672015024E+04  0.00000000000E+00 0.  1.
          6    1    1    2  501    0 -0.12022737875E+03 -0.93103098641E+02 -0.38906949290E+03  0.45213590864E+03  0.17300000000E+03 0.  1.
         -6    1    1    2    0  503  0.12022737875E+03  0.93103098641E+02 -0.62608692875E+03  0.66711067442E+03  0.17300000000E+03 0.  1.
<mgrwt>
<rscale>  2 0.23032978E+03</rscale>
<asrwt>0</asrwt>
<pdfrwt beam="1">  1       21 0.80069365E-02 0.23032978E+03</pdfrwt>
<pdfrwt beam="2">  1       21 0.16418483E+00 0.23032978E+03</pdfrwt>
<totfact> 0.27466289E+04</totfact>
</mgrwt>
</event>
<event>
 4    1  0.4365842E+000  0.1800940E+03  0.7546771E-02  0.1167712E+00
         21   -1    0    0  501  502  0.00000000000E+00  0.00000000000E+00  0.54771387924E+03  0.54771387924E+03  0.00000000000E+00 0.  1.
         21   -1    0    0  502  503 -0.00000000000E+00 -0.00000000000E+00 -0.68578405735E+02  0.68578405735E+02  0.00000000000E+00 0.  1.
          6    1    1    2  501    0 -0.47064744438E+02 -0.17022541116E+02  0.35341916358E+03  0.39665975629E+03  0.17300000000E+03 0.  1.
         -6    1    1    2    0  503  0.47064744438E+02  0.17022541116E+02  0.12571630992E+03  0.21963252868E+03  0.17300000000E+03 0.  1.
<mgrwt>
<rscale>  2 0.18009402E+03</rscale>
<asrwt>0</asrwt>
<pdfrwt beam="1">  1       21 0.84263671E-01 0.18009402E+03</pdfrwt>
<pdfrwt beam="2">  1       21 0.10550524E-01 0.18009402E+03</pdfrwt>
<totfact> 0.90676024E+04</totfact>
</mgrwt>
</event>
<event>
 4    1  0.4365842E+000  0.1999837E+03  0.7546771E-02  0.1149753E+00
         21   -1    0    0  503  502  0.00000000000E+00  0.00000000000E+00  0.20910394755E+03  0.20910394755E+03  0.00000000000E+00 0. -1.
         21   -1    0    0  501  503 -0.00000000000E+00 -0.00000000000E+00 -0.19379752378E+03  0.19379752378E+03  0.00000000000E+00 0.  1.
          6    1    1    2  501    0  0.82567813706E+02 -0.56982758231E+02 -0.15392724812E+02  0.20057520927E+03  0.17300000000E+03 0.  1.
         -6    1    1    2    0  502 -0.82567813706E+02  0.56982758231E+02  0.30699148590E+02  0.20232626206E+03  0.17300000000E+03 0. -1.
<mgrwt>
<rscale>  2 0.19998370E+03</rscale>
<asrwt>0</asrwt>
<pdfrwt beam="1">  1       21 0.32169838E-01 0.19998370E+03</pdfrwt>
<pdfrwt beam="2">  1       21 0.29815004E-01 0.19998370E+03</pdfrwt>
<totfact> 0.99956639E+04</totfact>
</mgrwt>
</event>
<event>
 4    1  0.4365842E+000  0.1834791E+03  0.7546771E-02  0.1164478E+00
         21   -1    0    0  503  502  0.00000000000E+00  0.00000000000E+00  0.26156621104E+03  0.26156621104E+03  0.00000000000E+00 0. -1.
         21   -1    0    0  501  503 -0.00000000000E+00 -0.00000000000E+00 -0.28762450060E+03  0.28762450060E+03  0.00000000000E+00 0. -1.
          6    1    1    2  501    0 -0.43102911468E+01  0.60967180806E+02 -0.21714203390E+03  0.28428021147E+03  0.17300000000E+03 0. -1.
         -6    1    1    2    0  502  0.43102911468E+01 -0.60967180806E+02  0.19108374435E+03  0.26491050017E+03  0.17300000000E+03 0. -1.
<mgrwt>
<rscale>  2 0.18347909E+03</rscale>
<asrwt>0</asrwt>
<pdfrwt beam="1">  1       21 0.40240955E-01 0.18347909E+03</pdfrwt>
<pdfrwt beam="2">  1       21 0.44249923E-01 0.18347909E+03</pdfrwt>
<totfact> 0.29333047E+04</totfact>
</mgrwt>
</event>
<event>
 4    1  0.4365842E+000  0.1922159E+03  0.7546771E-02  0.1156478E+00
         21   -1    0    0  501  502  0.00000000000E+00  0.00000000000E+00  0.20193000443E+03  0.20193000443E+03  0.00000000000E+00 0. -1.
         21   -1    0    0  502  503 -0.00000000000E+00 -0.00000000000E+00 -0.24522926886E+03  0.24522926886E+03  0.00000000000E+00 0. -1.
          6    1    1    2  501    0  0.77982996366E+02 -0.30603833061E+02  0.91005607069E+02  0.21267102021E+03  0.17300000000E+03 0. -1.
         -6    1    1    2    0  503 -0.77982996366E+02  0.30603833061E+02 -0.13430487150E+03  0.23448825307E+03  0.17300000000E+03 0. -1.
<mgrwt>
<rscale>  2 0.19221587E+03</rscale>
<asrwt>0</asrwt>
<pdfrwt beam="1">  1       21 0.31066155E-01 0.19221587E+03</pdfrwt>
<pdfrwt beam="2">  1       21 0.37727580E-01 0.19221587E+03</pdfrwt>
<totfact> 0.67458917E+04</totfact>
</mgrwt>
</event>
<event>
 4    1  0.4365842E+000  0.1749956E+03  0.7546771E-02  0.1172736E+00
         21   -1    0    0  503  502  0.00000000000E+00  0.00000000000E+00  0.14210012049E+03  0.14210012049E+03  0.00000000000E+00 0. -1.
         21   -1    0    0  501  503 -0.00000000000E+00 -0.00000000000E+00 -0.31264830630E+03  0.31264830630E+03  0.00000000000E+00 0. -1.
          6    1    1    2  501    0 -0.22701089766E+02  0.13383033853E+02 -0.21201508865E+03  0.27490697133E+03  0.17300000000E+03 0. -1.
         -6    1    1    2    0  502  0.22701089766E+02 -0.13383033853E+02  0.41466902837E+02  0.17984145546E+03  0.17300000000E+03 0. -1.
<mgrwt>
<rscale>  2 0.17499556E+03</rscale>
<asrwt>0</asrwt>
<pdfrwt beam="1">  1       21 0.21861557E-01 0.17499556E+03</pdfrwt>
<pdfrwt beam="2">  1       21 0.48099739E-01 0.17499556E+03</pdfrwt>
<totfact> 0.81264042E+04</totfact>
</mgrwt>
</event>
<event>
 4    1  0.4365842E+000  0.2386799E+03  0.7546771E-02  0.1120675E+00
         21   -1    0    0  501  502  0.00000000000E+00  0.00000000000E+00  0.34274018183E+03  0.34274018183E+03  0.00000000000E+00 0. -1.
         21   -1    0    0  502  503 -0.00000000000E+00 -0.00000000000E+00 -0.22476091383E+03  0.22476091383E+03  0.00000000000E+00 0. -1.
          6    1    1    2  501    0 -0.12783440483E+03 -0.10342861698E+03  0.20380992946E+03  0.31385761296E+03  0.17300000000E+03 0. -1.
         -6    1    1    2    0  503  0.12783440483E+03  0.10342861698E+03 -0.85830661464E+02  0.25364348270E+03  0.17300000000E+03 0. -1.
<mgrwt>
<rscale>  2 0.23867994E+03</rscale>
<asrwt>0</asrwt>
<pdfrwt beam="1">  1       21 0.52729259E-01 0.23867994E+03</pdfrwt>
<pdfrwt beam="2">  1       21 0.34578602E-01 0.23867994E+03</pdfrwt>
<totfact> 0.26823348E+04</totfact>
</mgrwt>
</event>
<event>
 4    1  0.4365842E+000  0.2000774E+03  0.7546771E-02  0.1149674E+00
         21   -1    0    0  503  502  0.00000000000E+00  0.00000000000E+00  0.14184159814E+03  0.14184159814E+03  0.00000000000E+00 0. -1.
         21   -1    0    0  501  503 -0.00000000000E+00 -0.00000000000E+00 -0.28248983813E+03  0.28248983813E+03  0.00000000000E+00 0. -1.
          6    1    1    2  501    0  0.98296781195E+02 -0.20969154957E+02 -0.76844760771E+02  0.21432703962E+03  0.17300000000E+03 0. -1.
         -6    1    1    2    0  502 -0.98296781195E+02  0.20969154957E+02 -0.63803479216E+02  0.21000439665E+03  0.17300000000E+03 0. -1.
<mgrwt>
<rscale>  2 0.20007739E+03</rscale>
<asrwt>0</asrwt>
<pdfrwt beam="1">  1       21 0.21821784E-01 0.20007739E+03</pdfrwt>
<pdfrwt beam="2">  1       21 0.43459975E-01 0.20007739E+03</pdfrwt>
<totfact> 0.99452599E+04</totfact>
</mgrwt>
</event>
<event>
 4    1  0.4365842E+000  0.2237109E+03  0.7546771E-02  0.1131146E+00
         21   -1    0    0  501  502  0.00000000000E+00  0.00000000000E+00  0.17628292428E+03  0.17628292428E+03  0.00000000000E+00 0. -1.
         21   -1    0    0  502  503 -0.00000000000E+00 -0.00000000000E+00 -0.29265309471E+03  0.29265309471E+03  0.00000000000E+00 0. -1.
          6    1    1    2  501    0 -0.82640320988E+02  0.11527411899E+03 -0.17633039953E+02  0.22440469973E+03  0.17300000000E+03 0. -1.
         -6    1    1    2    0  503  0.82640320988E+02 -0.11527411899E+03 -0.98737130474E+02  0.24453131926E+03  0.17300000000E+03 0. -1.
<mgrwt>
<rscale>  2 0.22371085E+03</rscale>
<asrwt>0</asrwt>
<pdfrwt beam="1">  1       21 0.27120450E-01 0.22371085E+03</pdfrwt>
<pdfrwt beam="2">  1       21 0.45023553E-01 0.22371085E+03</pdfrwt>
<totfact> 0.60489049E+04</totfact>
</mgrwt>
</event>
<event>
 4    1  0.4365842E+000  0.2209050E+03  0.7546771E-02  0.1133210E+00
         21   -1    0    0  503  502  0.00000000000E+00  0.00000000000E+00  0.27516485931E+03  0.27516485931E+03  0.00000000000E+00 0.  1.
         21   -1    0    0  501  503 -0.00000000000E+00 -0.00000000000E+00 -0.20014607909E+03  0.20014607909E+03  0.00000000000E+00 0.  1.
          6    1    1    2  501    0  0.13642863126E+03  0.16038806612E+02 -0.42705563288E+02  0.22499506635E+03  0.17300000000E+03 0.  1.
         -6    1    1    2    0  502 -0.13642863126E+03 -0.16038806612E+02  0.11772434350E+03  0.25031587205E+03  0.17300000000E+03 0.  1.
<mgrwt>
<rscale>  2 0.22090499E+03</rscale>
<asrwt>0</asrwt>
<pdfrwt beam="1">  1       21 0.42333055E-01 0.22090499E+03</pdfrwt>
<pdfrwt beam="2">  1       21 0.30791704E-01 0.22090499E+03</pdfrwt>
<totfact> 0.53670905E+04</totfact>
</mgrwt>
</event>
<event>
 4    1  0.4365842E+000  0.1757539E+03  0.7546771E-02  0.1171977E+00
         21   -1    0    0  503  502  0.00000000000E+00  0.00000000000E+00  0.21445180730E+03  0.21445180730E+03  0.00000000000E+00 0. -1.
         21   -1    0    0  501  503 -0.00000000000E+00 -0.00000000000E+00 -0.14420342285E+03  0.14420342285E+03  0.00000000000E+00 0. -1.
          6    1    1    2  501    0 -0.24328574879E+02  0.19198143589E+02  0.29070920655E+02  0.17814198467E+03  0.17300000000E+03 0. -1.
         -6    1    1    2    0  502  0.24328574879E+02 -0.19198143589E+02  0.41177463793E+02  0.18051324549E+03  0.17300000000E+03 0. -1.
<mgrwt>
<rscale>  2 0.17575394E+03</rscale>
<asrwt>0</asrwt>
<pdfrwt beam="1">  1       21 0.32992586E-01 0.17575394E+03</pdfrwt>
<pdfrwt beam="2">  1       21 0.22185142E-01 0.17575394E+03</pdfrwt>
<totfact> 0.16892514E+05</totfact>
</mgrwt>
</event>
<event>
 4    1  0.4365842E+000  0.1742442E+03  0.7546771E-02  0.1173493E+00
         21   -1    0    0  503  502  0.00000000000E+00  0.00000000000E+00  0.10770185918E+03  0.10770185918E+03  0.00000000000E+00 0.  1.
         21   -1    0    0  501  503 -0.00000000000E+00 -0.00000000000E+00 -0.32531025890E+03  0.32531025890E+03  0.00000000000E+00 0.  1.
          6    1    1    2  501    0 -0.20507394105E+02  0.33877108417E+01 -0.18789448412E+03  0.25625254528E+03  0.17300000000E+03 0. -1.
         -6    1    1    2    0  502  0.20507394105E+02 -0.33877108417E+01 -0.29713915591E+02  0.17675957280E+03  0.17300000000E+03 0. -1.
<mgrwt>
<rscale>  2 0.17424417E+03</rscale>
<asrwt>0</asrwt>
<pdfrwt beam="1">  1       21 0.16569517E-01 0.17424417E+03</pdfrwt>
<pdfrwt beam="2">  1       21 0.50047731E-01 0.17424417E+03</pdfrwt>
<totfact> 0.12517511E+05</totfact>
</mgrwt>
</event>
<event>
 4    1  0.4365842E+000  0.1811583E+03  0.7546771E-02  0.1166687E+00
         21   -1    0    0  503  502  0.00000000000E+00  0.00000000000E+00  0.17905635518E+03  0.17905635518E+03  0.00000000000E+00 0.  1.
         21   -1    0    0  501  503 -0.00000000000E+00 -0.00000000000E+00 -0.21770449778E+03  0.21770449778E+03  0.00000000000E+00 0.  1.
          6    1    1    2  501    0  0.52498245412E+02 -0.11544029280E+02 -0.98204246253E+02  0.20606407830E+03  0.17300000000E+03 0. -1.
         -6    1    1    2    0  502 -0.52498245412E+02  0.11544029280E+02  0.59556103660E+02  0.19069677466E+03  0.17300000000E+03 0. -1.
<mgrwt>
<rscale>  2 0.18115830E+03</rscale>
<asrwt>0</asrwt>
<pdfrwt beam="1">  1       21 0.27547131E-01 0.18115830E+03</pdfrwt>
<pdfrwt beam="2">  1       21 0.33493000E-01 0.18115830E+03</pdfrwt>
<totfact> 0.10840507E+05</totfact>
</mgrwt>
</event>
<event>
 4    1  0.4365842E+000  0.2405090E+03  0.7546771E-02  0.1119454E+00
         21   -1    0    0  503  502  0.00000000000E+00  0.00000000000E+00  0.32269418062E+03  0.32269418062E+03  0.00000000000E+00 0.  1.
         21   -1    0    0  501  503 -0.00000000000E+00 -0.00000000000E+00 -0.53185418028E+03  0.53185418028E+03  0.00000000000E+00 0.  1.
          6    1    1    2  501    0  0.42405754226E+02  0.16160854938E+03 -0.45247722200E+03  0.51242580697E+03  0.17300000000E+03 0.  1.
         -6    1    1    2    0  502 -0.42405754226E+02 -0.16160854938E+03  0.24331722233E+03  0.34212255393E+03  0.17300000000E+03 0.  1.
<mgrwt>
<rscale>  2 0.24050898E+03</rscale>
<asrwt>0</asrwt>
<pdfrwt beam="1">  1       21 0.49645258E-01 0.24050898E+03</pdfrwt>
<pdfrwt beam="2">  1       21 0.81823721E-01 0.24050898E+03</pdfrwt>
<totfact> 0.48822570E+03</totfact>
</mgrwt>
</event>
<event>
 4    1  0.4365842E+000  0.1915771E+03  0.7546771E-02  0.1157047E+00
         21   -1    0    0  501  502  0.00000000000E+00  0.00000000000E+00  0.23984270710E+03  0.23984270710E+03  0.00000000000E+00 0. -1.
         21   -1    0    0  502  503 -0.00000000000E+00 -0.00000000000E+00 -0.19156762145E+03  0.19156762145E+03  0.00000000000E+00 0. -1.
          6    1    1    2  501    0 -0.63424440565E+02  0.52441547555E+02  0.12089261642E+03  0.22653211754E+03  0.17300000000E+03 0. -1.
         -6    1    1    2    0  503  0.63424440565E+02 -0.52441547555E+02 -0.72617530770E+02  0.20487821101E+03  0.17300000000E+03 0. -1.
<mgrwt>
<rscale>  2 0.19157707E+03</rscale>
<asrwt>0</asrwt>
<pdfrwt beam="1">  1       21 0.36898878E-01 0.19157707E+03</pdfrwt>
<pdfrwt beam="2">  1       21 0.29471942E-01 0.19157707E+03</pdfrwt>
<totfact> 0.78176843E+04</totfact>
</mgrwt>
</event>
<event>
 4    1  0.4365842E+000  0.1914522E+03  0.7546771E-02  0.1157158E+00
         21   -1    0    0  501  502  0.00000000000E+00  0.00000000000E+00  0.39486941657E+03  0.39486941657E+03  0.00000000000E+00 0. -1.
         21   -1    0    0  502  503 -0.00000000000E+00 -0.00000000000E+00 -0.10446925439E+03  0.10446925439E+03  0.00000000000E+00 0. -1.
          6    1    1    2  501    0  0.48503730830E+02 -0.66123563852E+02  0.22855248122E+03  0.29814455265E+03  0.17300000000E+03 0. -1.
         -6    1    1    2    0  503 -0.48503730830E+02  0.66123563852E+02  0.61847680955E+02  0.20119411831E+03  0.17300000000E+03 0. -1.
<mgrwt>
<rscale>  2 0.19145218E+03</rscale>
<asrwt>0</asrwt>
<pdfrwt beam="1">  1       21 0.60749140E-01 0.19145218E+03</pdfrwt>
<pdfrwt beam="2">  1       21 0.16072193E-01 0.19145218E+03</pdfrwt>
<totfact> 0.87296076E+04</totfact>
</mgrwt>
</event>
<event>
 4    1  0.4365842E+000  0.1937642E+03  0.7546771E-02  0.1155109E+00
         21   -1    0    0  501  502  0.00000000000E+00  0.00000000000E+00  0.98627252993E+02  0.98627252993E+02  0.00000000000E+00 0.  1.
         21   -1    0    0  502  503 -0.00000000000E+00 -0.00000000000E+00 -0.44664751088E+03  0.44664751088E+03  0.00000000000E+00 0.  1.
          6    1    1    2  501    0 -0.61415326202E+02 -0.61997770131E+02 -0.69225739043E+02  0.20575900646E+03  0.17300000000E+03 0.  1.
         -6    1    1    2    0  503  0.61415326202E+02  0.61997770131E+02 -0.27879451884E+03  0.33951575741E+03  0.17300000000E+03 0.  1.
<mgrwt>
<rscale>  2 0.19376420E+03</rscale>
<asrwt>0</asrwt>
<pdfrwt beam="1">  1       21 0.15173423E-01 0.19376420E+03</pdfrwt>
<pdfrwt beam="2">  1       21 0.68715003E-01 0.19376420E+03</pdfrwt>
<totfact> 0.74111160E+04</totfact>
</mgrwt>
</event>
<event>
 4    1  0.4365842E+000  0.2088964E+03  0.7546771E-02  0.1142443E+00
         21   -1    0    0  501  502  0.00000000000E+00  0.00000000000E+00  0.34460791110E+03  0.34460791110E+03  0.00000000000E+00 0. -1.
         21   -1    0    0  502  503 -0.00000000000E+00 -0.00000000000E+00 -0.12664412214E+03  0.12664412214E+03  0.00000000000E+00 0. -1.
          6    1    1    2  501    0  0.65256244561E+02  0.97212897963E+02  0.10650017049E+03  0.23447816806E+03  0.17300000000E+03 0. -1.
         -6    1    1    2    0  503 -0.65256244561E+02 -0.97212897963E+02  0.11146361848E+03  0.23677386517E+03  0.17300000000E+03 0. -1.
<mgrwt>
<rscale>  2 0.20889645E+03</rscale>
<asrwt>0</asrwt>
<pdfrwt beam="1">  1       21 0.53016601E-01 0.20889645E+03</pdfrwt>
<pdfrwt beam="2">  1       21 0.19483711E-01 0.20889645E+03</pdfrwt>
<totfact> 0.81124720E+04</totfact>
</mgrwt>
</event>
<event>
 4    1  0.4365842E+000  0.1845718E+03  0.7546771E-02  0.1163450E+00
         21   -1    0    0  503  502  0.00000000000E+00  0.00000000000E+00  0.54730677922E+03  0.54730677922E+03  0.00000000000E+00 0.  1.
         21   -1    0    0  501  503 -0.00000000000E+00 -0.00000000000E+00 -0.63058022585E+02  0.63058022585E+02  0.00000000000E+00 0.  1.
          6    1    1    2  501    0  0.31847410720E+02  0.55888369290E+02  0.20745803960E+03  0.27767896137E+03  0.17300000000E+03 0. -1.
         -6    1    1    2    0  502 -0.31847410720E+02 -0.55888369290E+02  0.27679071703E+03  0.33268584044E+03  0.17300000000E+03 0. -1.
<mgrwt>
<rscale>  2 0.18457185E+03</rscale>
<asrwt>0</asrwt>
<pdfrwt beam="1">  1       21 0.84201040E-01 0.18457185E+03</pdfrwt>
<pdfrwt beam="2">  1       21 0.97012346E-02 0.18457185E+03</pdfrwt>
<totfact> 0.10514730E+05</totfact>
</mgrwt>
</event>
<event>
 4    1  0.4365842E+000  0.2044075E+03  0.7546771E-02  0.1146073E+00
         21   -1    0    0  503  502  0.00000000000E+00  0.00000000000E+00  0.63420987815E+03  0.63420987815E+03  0.00000000000E+00 0. -1.
         21   -1    0    0  501  503 -0.00000000000E+00 -0.00000000000E+00 -0.95219706178E+02  0.95219706178E+02  0.00000000000E+00 0.  1.
          6    1    1    2  501    0 -0.96098527737E+02 -0.51171467288E+02  0.67048863134E+02  0.21512321154E+03  0.17300000000E+03 0.  1.
         -6    1    1    2    0  502  0.96098527737E+02  0.51171467288E+02  0.47194130884E+03  0.51430637278E+03  0.17300000000E+03 0. -1.
<mgrwt>
<rscale>  2 0.20440755E+03</rscale>
<asrwt>0</asrwt>
<pdfrwt beam="1">  1       21 0.97570748E-01 0.20440755E+03</pdfrwt>
<pdfrwt beam="2">  1       21 0.14649186E-01 0.20440755E+03</pdfrwt>
<totfact> 0.35402187E+04</totfact>
</mgrwt>
</event>
<event>
 4    1  0.4365842E+000  0.1814490E+03  0.7546771E-02  0.1166408E+00
         21   -1    0    0  501  502  0.00000000000E+00  0.00000000000E+00  0.50790739074E+03  0.50790739074E+03  0.00000000000E+00 0. -1.
         21   -1    0    0  502  503 -0.00000000000E+00 -0.00000000000E+00 -0.70843538283E+02  0.70843538283E+02  0.00000000000E+00 0. -1.
          6    1    1    2  501    0 -0.43558719308E+02  0.33126502302E+02  0.13416847194E+03  0.22566547376E+03  0.17300000000E+03 0. -1.
         -6    1    1    2    0  503  0.43558719308E+02 -0.33126502302E+02  0.30289538051E+03  0.35308545526E+03  0.17300000000E+03 0. -1.
<mgrwt>
<rscale>  2 0.18144897E+03</rscale>
<asrwt>0</asrwt>
<pdfrwt beam="1">  1       21 0.78139597E-01 0.18144897E+03</pdfrwt>
<pdfrwt beam="2">  1       21 0.10899006E-01 0.18144897E+03</pdfrwt>
<totfact> 0.10147975E+05</totfact>
</mgrwt>
</event>
<event>
 4    1  0.4365842E+000  0.1878784E+03  0.7546771E-02  0.1160389E+00
         21   -1    0    0  501  502  0.00000000000E+00  0.00000000000E+00  0.43079922928E+03  0.43079922928E+03  0.00000000000E+00 0. -1.
         21   -1    0    0  502  503 -0.00000000000E+00 -0.00000000000E+00 -0.82021388116E+02  0.82021388116E+02  0.00000000000E+00 0. -1.
          6    1    1    2  501    0  0.49668041278E+02  0.53873821229E+02  0.16615379165E+03  0.25080946038E+03  0.17300000000E+03 0.  1.
         -6    1    1    2    0  503 -0.49668041278E+02 -0.53873821229E+02  0.18262404952E+03  0.26201115701E+03  0.17300000000E+03 0.  1.
<mgrwt>
<rscale>  2 0.18787843E+03</rscale>
<asrwt>0</asrwt>
<pdfrwt beam="1">  1       21 0.66276803E-01 0.18787843E+03</pdfrwt>
<pdfrwt beam="2">  1       21 0.12618675E-01 0.18787843E+03</pdfrwt>
<totfact> 0.11222294E+05</totfact>
</mgrwt>
</event>
<event>
 4    1  0.4365842E+000  0.2280332E+03  0.7546771E-02  0.1128032E+00
         21   -1    0    0  503  502  0.00000000000E+00  0.00000000000E+00  0.10879670223E+03  0.10879670223E+03  0.00000000000E+00 0.  1.
         21   -1    0    0  501  503 -0.00000000000E+00 -0.00000000000E+00 -0.69375041409E+03  0.69375041409E+03  0.00000000000E+00 0.  1.
          6    1    1    2  501    0 -0.10897216249E+03  0.10097121068E+03 -0.51628068601E+03  0.56439778909E+03  0.17300000000E+03 0.  1.
         -6    1    1    2    0  502  0.10897216249E+03 -0.10097121068E+03 -0.68673025846E+02  0.23814932723E+03  0.17300000000E+03 0.  1.
<mgrwt>
<rscale>  2 0.22803315E+03</rscale>
<asrwt>0</asrwt>
<pdfrwt beam="1">  1       21 0.16737955E-01 0.22803315E+03</pdfrwt>
<pdfrwt beam="2">  1       21 0.10673083E+00 0.22803315E+03</pdfrwt>
<totfact> 0.22086056E+04</totfact>
</mgrwt>
</event>
<event>
 4    1  0.4365842E+000  0.2180903E+03  0.7546771E-02  0.1135315E+00
         21   -1    0    0  503  502  0.00000000000E+00  0.00000000000E+00  0.86807644776E+02  0.86807644776E+02  0.00000000000E+00 0.  1.
         21   -1    0    0  501  503 -0.00000000000E+00 -0.00000000000E+00 -0.81305952825E+03  0.81305952825E+03  0.00000000000E+00 0. -1.
          6    1    1    2  501    0 -0.46430439586E+02  0.12441295599E+03 -0.62006319637E+03  0.65729881853E+03  0.17300000000E+03 0. -1.
         -6    1    1    2    0  502  0.46430439586E+02 -0.12441295599E+03 -0.10618868710E+03  0.24256835450E+03  0.17300000000E+03 0.  1.
<mgrwt>
<rscale>  2 0.21809028E+03</rscale>
<asrwt>0</asrwt>
<pdfrwt beam="1">  1       21 0.13355022E-01 0.21809028E+03</pdfrwt>
<pdfrwt beam="2">  1       21 0.12508608E+00 0.21809028E+03</pdfrwt>
<totfact> 0.22702394E+04</totfact>
</mgrwt>
</event>
<event>
 4    1  0.4365842E+000  0.1822976E+03  0.7546771E-02  0.1165598E+00
         21   -1    0    0  503  502  0.00000000000E+00  0.00000000000E+00  0.89557907233E+03  0.89557907233E+03  0.00000000000E+00 0. -1.
         21   -1    0    0  501  503 -0.00000000000E+00 -0.00000000000E+00 -0.53589261742E+02  0.53589261742E+02  0.00000000000E+00 0. -1.
          6    1    1    2  501    0 -0.29125661615E+02 -0.49549096418E+02  0.15779826463E+03  0.24110725713E+03  0.17300000000E+03 0.  1.
         -6    1    1    2    0  502  0.29125661615E+02  0.49549096418E+02  0.68419154596E+03  0.70806107694E+03  0.17300000000E+03 0.  1.
<mgrwt>
<rscale>  2 0.18229761E+03</rscale>
<asrwt>0</asrwt>
<pdfrwt beam="1">  1       21 0.13778138E+00 0.18229761E+03</pdfrwt>
<pdfrwt beam="2">  1       21 0.82445025E-02 0.18229761E+03</pdfrwt>
<totfact> 0.42706978E+04</totfact>
</mgrwt>
</event>
<event>
 4    1  0.4365842E+000  0.1967461E+03  0.7546771E-02  0.1152514E+00
         21   -1    0    0  501  502  0.00000000000E+00  0.00000000000E+00  0.91731869942E+02  0.91731869942E+02  0.00000000000E+00 0. -1.
         21   -1    0    0  502  503 -0.00000000000E+00 -0.00000000000E+00 -0.57225171379E+03  0.57225171379E+03  0.00000000000E+00 0. -1.
          6    1    1    2  501    0 -0.87909663461E+01 -0.93288536645E+02 -0.41038648820E+03  0.45511108738E+03  0.17300000000E+03 0. -1.
         -6    1    1    2    0  503  0.87909663461E+01  0.93288536645E+02 -0.70133355652E+02  0.20887249636E+03  0.17300000000E+03 0. -1.
<mgrwt>
<rscale>  2 0.19674611E+03</rscale>
<asrwt>0</asrwt>
<pdfrwt beam="1">  1       21 0.14112595E-01 0.19674611E+03</pdfrwt>
<pdfrwt beam="2">  1       21 0.88038725E-01 0.19674611E+03</pdfrwt>
<totfact> 0.48343530E+04</totfact>
</mgrwt>
</event>
<event>
 4    1  0.4365842E+000  0.1836055E+03  0.7546771E-02  0.1164359E+00
         21   -1    0    0  501  502  0.00000000000E+00  0.00000000000E+00  0.14109095918E+04  0.14109095918E+04  0.00000000000E+00 0.  1.
         21   -1    0    0  502  503 -0.00000000000E+00 -0.00000000000E+00 -0.23941063830E+02  0.23941063830E+02  0.00000000000E+00 0. -1.
          6    1    1    2  501    0 -0.61384038294E+02 -0.37384890369E+01  0.72560238784E+03  0.74847164388E+03  0.17300000000E+03 0.  1.
         -6    1    1    2    0  503  0.61384038294E+02  0.37384890369E+01  0.66136614018E+03  0.68637901179E+03  0.17300000000E+03 0. -1.
<mgrwt>
<rscale>  2 0.18360549E+03</rscale>
<asrwt>0</asrwt>
<pdfrwt beam="1">  1       21 0.21706295E+00 0.18360549E+03</pdfrwt>
<pdfrwt beam="2">  1       21 0.36832417E-02 0.18360549E+03</pdfrwt>
<totfact> 0.47478751E+04</totfact>
</mgrwt>
</event>
<event>
 4    1  0.4365842E+000  0.1845941E+03  0.7546771E-02  0.1163429E+00
         21   -1    0    0  501  502  0.00000000000E+00  0.00000000000E+00  0.62319004088E+03  0.62319004088E+03  0.00000000000E+00 0. -1.
         21   -1    0    0  502  503 -0.00000000000E+00 -0.00000000000E+00 -0.65523985810E+02  0.65523985810E+02  0.00000000000E+00 0.  1.
          6    1    1    2  501    0 -0.45555017977E+02  0.45505243003E+02  0.41893260099E+03  0.45779854846E+03  0.17300000000E+03 0. -1.
         -6    1    1    2    0  503  0.45555017977E+02 -0.45505243003E+02  0.13873345408E+03  0.23091547823E+03  0.17300000000E+03 0.  1.
<mgrwt>
<rscale>  2 0.18459411E+03</rscale>
<asrwt>0</asrwt>
<pdfrwt beam="1">  1       21 0.95875387E-01 0.18459411E+03</pdfrwt>
<pdfrwt beam="2">  1       21 0.10080614E-01 0.18459411E+03</pdfrwt>
<totfact> 0.72794150E+04</totfact>
</mgrwt>
</event>
<event>
 4    1  0.4365842E+000  0.1734167E+03  0.7546771E-02  0.1174331E+00
         21   -1    0    0  501  502  0.00000000000E+00  0.00000000000E+00  0.89118965105E+02  0.89118965105E+02  0.00000000000E+00 0. -1.
         21   -1    0    0  502  503 -0.00000000000E+00 -0.00000000000E+00 -0.14690320480E+04  0.14690320480E+04  0.00000000000E+00 0. -1.
          6    1    1    2  501    0  0.68655811798E+01 -0.98598953703E+01 -0.61919649348E+01  0.17352721450E+03  0.17300000000E+03 0. -1.
         -6    1    1    2    0  503 -0.68655811798E+01  0.98598953703E+01 -0.13737211180E+04  0.13846237986E+04  0.17300000000E+03 0. -1.
<mgrwt>
<rscale>  2 0.17341671E+03</rscale>
<asrwt>0</asrwt>
<pdfrwt beam="1">  1       21 0.13710611E-01 0.17341671E+03</pdfrwt>
<pdfrwt beam="2">  1       21 0.22600491E+00 0.17341671E+03</pdfrwt>
<totfact> 0.43559129E+03</totfact>
</mgrwt>
</event>
<event>
 4    1  0.4365842E+000  0.2317268E+03  0.7546771E-02  0.1125430E+00
         21   -1    0    0  503  502  0.00000000000E+00  0.00000000000E+00  0.27758613964E+04  0.27758613964E+04  0.00000000000E+00 0.  1.
         21   -1    0    0  501  503 -0.00000000000E+00 -0.00000000000E+00 -0.96563519423E+02  0.96563519423E+02  0.00000000000E+00 0.  1.
          6    1    1    2  501    0  0.11011736967E+03 -0.10790029440E+03  0.55324831696E+02  0.23823968107E+03  0.17300000000E+03 0.  1.
         -6    1    1    2    0  502 -0.11011736967E+03  0.10790029440E+03  0.26239730453E+04  0.26341852347E+04  0.17300000000E+03 0.  1.
<mgrwt>
<rscale>  2 0.23172680E+03</rscale>
<asrwt>0</asrwt>
<pdfrwt beam="1">  1       21 0.42705554E+00 0.23172680E+03</pdfrwt>
<pdfrwt beam="2">  1       21 0.14855928E-01 0.23172680E+03</pdfrwt>
<totfact> 0.22021885E+02</totfact>
</mgrwt>
</event>
<event>
 4    1  0.4365842E+000  0.1845574E+03  0.7546771E-02  0.1163464E+00
         21   -1    0    0  501  502  0.00000000000E+00  0.00000000000E+00  0.62658007422E+02  0.62658007422E+02  0.00000000000E+00 0. -1.
         21   -1    0    0  502  503 -0.00000000000E+00 -0.00000000000E+00 -0.59903287207E+03  0.59903287207E+03  0.00000000000E+00 0. -1.
          6    1    1    2  501    0  0.11665120174E+01  0.64273413216E+02 -0.16755226331E+03  0.24926931888E+03  0.17300000000E+03 0. -1.
         -6    1    1    2    0  503 -0.11665120174E+01 -0.64273413216E+02 -0.36882260133E+03  0.41242156060E+03  0.17300000000E+03 0. -1.
<mgrwt>
<rscale>  2 0.18455740E+03</rscale>
<asrwt>0</asrwt>
<pdfrwt beam="1">  1       21 0.96396931E-02 0.18455740E+03</pdfrwt>
<pdfrwt beam="2">  1       21 0.92158907E-01 0.18455740E+03</pdfrwt>
<totfact> 0.86378120E+04</totfact>
</mgrwt>
</event>
<event>
 4    1  0.4365842E+000  0.2158120E+03  0.7546771E-02  0.1137044E+00
         21   -1    0    0  503  502  0.00000000000E+00  0.00000000000E+00  0.27727005180E+03  0.27727005180E+03  0.00000000000E+00 0. -1.
         21   -1    0    0  501  503 -0.00000000000E+00 -0.00000000000E+00 -0.60946064490E+03  0.60946064490E+03  0.00000000000E+00 0. -1.
          6    1    1    2  501    0 -0.12674096432E+03  0.24136113802E+02 -0.54344717891E+03  0.58473041677E+03  0.17300000000E+03 0. -1.
         -6    1    1    2    0  502  0.12674096432E+03 -0.24136113802E+02  0.21125658582E+03  0.30200027993E+03  0.17300000000E+03 0. -1.
<mgrwt>
<rscale>  2 0.21581201E+03</rscale>
<asrwt>0</asrwt>
<pdfrwt beam="1">  1       21 0.42656932E-01 0.21581201E+03</pdfrwt>
<pdfrwt beam="2">  1       21 0.93763174E-01 0.21581201E+03</pdfrwt>
<totfact> 0.49604674E+03</totfact>
</mgrwt>
</event>
<event>
 4    1  0.4365842E+000  0.1844296E+03  0.7546771E-02  0.1163584E+00
         21   -1    0    0  503  502  0.00000000000E+00  0.00000000000E+00  0.33648782796E+03  0.33648782796E+03  0.00000000000E+00 0. -1.
         21   -1    0    0  501  503 -0.00000000000E+00 -0.00000000000E+00 -0.17015639511E+03  0.17015639511E+03  0.00000000000E+00 0. -1.
          6    1    1    2  501    0  0.63239121847E+02 -0.92794064419E+01 -0.78230791619E+02  0.20033559512E+03  0.17300000000E+03 0. -1.
         -6    1    1    2    0  502 -0.63239121847E+02  0.92794064419E+01  0.24456222448E+03  0.30630862795E+03  0.17300000000E+03 0. -1.
<mgrwt>
<rscale>  2 0.18442964E+03</rscale>
<asrwt>0</asrwt>
<pdfrwt beam="1">  1       21 0.51767358E-01 0.18442964E+03</pdfrwt>
<pdfrwt beam="2">  1       21 0.26177907E-01 0.18442964E+03</pdfrwt>
<totfact> 0.49336845E+04</totfact>
</mgrwt>
</event>
<event>
 4    1  0.4365842E+000  0.1969370E+03  0.7546771E-02  0.1152349E+00
         21   -1    0    0  501  502  0.00000000000E+00  0.00000000000E+00  0.28520901419E+02  0.28520901419E+02  0.00000000000E+00 0.  1.
         21   -1    0    0  502  503 -0.00000000000E+00 -0.00000000000E+00 -0.13655616652E+04  0.13655616652E+04  0.00000000000E+00 0.  1.
          6    1    1    2  501    0  0.76513370428E+02 -0.54780454023E+02 -0.71359402053E+03  0.74027063979E+03  0.17300000000E+03 0.  1.
         -6    1    1    2    0  503 -0.76513370428E+02  0.54780454023E+02 -0.62344674329E+03  0.65381192687E+03  0.17300000000E+03 0.  1.
<mgrwt>
<rscale>  2 0.19693703E+03</rscale>
<asrwt>0</asrwt>
<pdfrwt beam="1">  1       21 0.43878312E-02 0.19693703E+03</pdfrwt>
<pdfrwt beam="2">  1       21 0.21008640E+00 0.19693703E+03</pdfrwt>
<totfact> 0.38756528E+04</totfact>
</mgrwt>
</event>
<event>
 4    1  0.4365842E+000  0.1931786E+03  0.7546771E-02  0.1155625E+00
         21   -1    0    0  503  502  0.00000000000E+00  0.00000000000E+00  0.13427501975E+04  0.13427501975E+04  0.00000000000E+00 0. -1.
         21   -1    0    0  501  503 -0.00000000000E+00 -0.00000000000E+00 -0.20453687901E+03  0.20453687901E+03  0.00000000000E+00 0.  1.
          6    1    1    2  501    0 -0.11456636775E+02 -0.85192299515E+02 -0.15005787799E+03  0.24461265129E+03  0.17300000000E+03 0.  1.
         -6    1    1    2    0  502  0.11456636775E+02  0.85192299515E+02  0.12882711965E+04  0.13026744253E+04  0.17300000000E+03 0. -1.
<mgrwt>
<rscale>  2 0.19317863E+03</rscale>
<asrwt>0</asrwt>
<pdfrwt beam="1">  1       21 0.20657695E+00 0.19317863E+03</pdfrwt>
<pdfrwt beam="2">  1       21 0.31467213E-01 0.19317863E+03</pdfrwt>
<totfact> 0.11829203E+03</totfact>
</mgrwt>
</event>
<event>
 4    1  0.4365842E+000  0.2004593E+03  0.7546771E-02  0.1149352E+00
         21   -1    0    0  503  502  0.00000000000E+00  0.00000000000E+00  0.10679994876E+03  0.10679994876E+03  0.00000000000E+00 0.  1.
         21   -1    0    0  501  503 -0.00000000000E+00 -0.00000000000E+00 -0.70189893970E+03  0.70189893970E+03  0.00000000000E+00 0.  1.
          6    1    1    2  501    0  0.10125469655E+03  0.15499124481E+01 -0.57296708632E+03  0.60702157936E+03  0.17300000000E+03 0.  1.
         -6    1    1    2    0  502 -0.10125469655E+03 -0.15499124481E+01 -0.22131904615E+02  0.20167730909E+03  0.17300000000E+03 0.  1.
<mgrwt>
<rscale>  2 0.20045926E+03</rscale>
<asrwt>0</asrwt>
<pdfrwt beam="1">  1       21 0.16430761E-01 0.20045926E+03</pdfrwt>
<pdfrwt beam="2">  1       21 0.10798445E+00 0.20045926E+03</pdfrwt>
<totfact> 0.22573125E+04</totfact>
</mgrwt>
</event>
<event>
 4    1  0.4365842E+000  0.2209294E+03  0.7546771E-02  0.1133192E+00
         21   -1    0    0  501  502  0.00000000000E+00  0.00000000000E+00  0.26936889340E+02  0.26936889340E+02  0.00000000000E+00 0.  1.
         21   -1    0    0  502  503 -0.00000000000E+00 -0.00000000000E+00 -0.18669123017E+04  0.18669123017E+04  0.00000000000E+00 0.  1.
          6    1    1    2  501    0  0.11935822272E+03 -0.68076381539E+02 -0.75759431192E+03  0.78915075905E+03  0.17300000000E+03 0.  1.
         -6    1    1    2    0  503 -0.11935822272E+03  0.68076381539E+02 -0.10823811005E+04  0.11046984320E+04  0.17300000000E+03 0.  1.
<mgrwt>
<rscale>  2 0.22092935E+03</rscale>
<asrwt>0</asrwt>
<pdfrwt beam="1">  1       21 0.41441363E-02 0.22092935E+03</pdfrwt>
<pdfrwt beam="2">  1       21 0.28721731E+00 0.22092935E+03</pdfrwt>
<totfact> 0.14535312E+04</totfact>
</mgrwt>
</event>
<event>
 4    1  0.4365842E+000  0.2159410E+03  0.7546771E-02  0.1136946E+00
         21   -1    0    0  503  502  0.00000000000E+00  0.00000000000E+00  0.49590169686E+03  0.49590169686E+03  0.00000000000E+00 0. -1.
         21   -1    0    0  501  503 -0.00000000000E+00 -0.00000000000E+00 -0.28089796743E+03  0.28089796743E+03  0.00000000000E+00 0.  1.
          6    1    1    2  501    0 -0.34374721401E+02  0.12457885886E+03 -0.20928714847E+03  0.30071851300E+03  0.17300000000E+03 0.  1.
         -6    1    1    2    0  502  0.34374721401E+02 -0.12457885886E+03  0.42429087790E+03  0.47608115129E+03  0.17300000000E+03 0. -1.
<mgrwt>
<rscale>  2 0.21594100E+03</rscale>
<asrwt>0</asrwt>
<pdfrwt beam="1">  1       21 0.76292569E-01 0.21594100E+03</pdfrwt>
<pdfrwt beam="2">  1       21 0.43215072E-01 0.21594100E+03</pdfrwt>
<totfact> 0.77496964E+03</totfact>
</mgrwt>
</event>
<event>
 4    1  0.4365842E+000  0.1801612E+03  0.7546771E-02  0.1167647E+00
         21   -1    0    0  501  502  0.00000000000E+00  0.00000000000E+00  0.54899272478E+03  0.54899272478E+03  0.00000000000E+00 0. -1.
         21   -1    0    0  502  503 -0.00000000000E+00 -0.00000000000E+00 -0.60523202839E+02  0.60523202839E+02  0.00000000000E+00 0. -1.
          6    1    1    2  501    0  0.41440274692E+02 -0.28491733266E+02  0.29058966653E+03  0.34190704808E+03  0.17300000000E+03 0. -1.
         -6    1    1    2    0  503 -0.41440274692E+02  0.28491733266E+02  0.19787985541E+03  0.26760887954E+03  0.17300000000E+03 0. -1.
<mgrwt>
<rscale>  2 0.18016125E+03</rscale>
<asrwt>0</asrwt>
<pdfrwt beam="1">  1       21 0.84460416E-01 0.18016125E+03</pdfrwt>
<pdfrwt beam="2">  1       21 0.93112623E-02 0.18016125E+03</pdfrwt>
<totfact> 0.11241632E+05</totfact>
</mgrwt>
</event>
<event>
 4    1  0.4365842E+000  0.3679275E+03  0.7546771E-02  0.1055488E+00
         21   -1    0    0  503  502  0.00000000000E+00  0.00000000000E+00  0.18548345854E+03  0.18548345854E+03  0.00000000000E+00 0. -1.
         21   -1    0    0  501  503 -0.00000000000E+00 -0.00000000000E+00 -0.76705789952E+03  0.76705789952E+03  0.00000000000E+00 0.  1.
          6    1    1    2  501    0  0.28500729499E+03 -0.15560356123E+03 -0.39571684734E+03  0.54033549738E+03  0.17300000000E+03 0.  1.
         -6    1    1    2    0  502 -0.28500729499E+03  0.15560356123E+03 -0.18585759364E+03  0.41220586068E+03  0.17300000000E+03 0. -1.
<mgrwt>
<rscale>  2 0.36792747E+03</rscale>
<asrwt>0</asrwt>
<pdfrwt beam="1">  1       21 0.28535917E-01 0.36792747E+03</pdfrwt>
<pdfrwt beam="2">  1       21 0.11800891E+00 0.36792747E+03</pdfrwt>
<totfact> 0.58528526E+03</totfact>
</mgrwt>
</event>
<event>
 4    1  0.4365842E+000  0.2018617E+03  0.7546771E-02  0.1148178E+00
         21   -1    0    0  503  502  0.00000000000E+00  0.00000000000E+00  0.55832610616E+03  0.55832610616E+03  0.00000000000E+00 0. -1.
         21   -1    0    0  501  503 -0.00000000000E+00 -0.00000000000E+00 -0.10324316452E+03  0.10324316452E+03  0.00000000000E+00 0.  1.
          6    1    1    2  501    0  0.57836269767E+02  0.86452985477E+02  0.48459282847E+02  0.20759685665E+03  0.17300000000E+03 0.  1.
         -6    1    1    2    0  502 -0.57836269767E+02 -0.86452985477E+02  0.40662365880E+03  0.45397241402E+03  0.17300000000E+03 0. -1.
<mgrwt>
<rscale>  2 0.20186172E+03</rscale>
<asrwt>0</asrwt>
<pdfrwt beam="1">  1       21 0.85896322E-01 0.20186172E+03</pdfrwt>
<pdfrwt beam="2">  1       21 0.15883564E-01 0.20186172E+03</pdfrwt>
<totfact> 0.41137969E+04</totfact>
</mgrwt>
</event>
<event>
 4    1  0.4365842E+000  0.4848485E+03  0.7546771E-02  0.1017811E+00
         21   -1    0    0  503  502  0.00000000000E+00  0.00000000000E+00  0.28461484466E+03  0.28461484466E+03  0.00000000000E+00 0.  1.
         21   -1    0    0  501  503 -0.00000000000E+00 -0.00000000000E+00 -0.11478702153E+04  0.11478702153E+04  0.00000000000E+00 0. -1.
          6    1    1    2  501    0  0.39618348702E+03  0.21951695534E+03 -0.81093118157E+03  0.94482137482E+03  0.17300000000E+03 0. -1.
         -6    1    1    2    0  502 -0.39618348702E+03 -0.21951695534E+03 -0.52324189110E+02  0.48766368518E+03  0.17300000000E+03 0.  1.
<mgrwt>
<rscale>  2 0.48484848E+03</rscale>
<asrwt>0</asrwt>
<pdfrwt beam="1">  1       21 0.43786899E-01 0.48484848E+03</pdfrwt>
<pdfrwt beam="2">  1       21 0.17659542E+00 0.48484848E+03</pdfrwt>
<totfact> 0.79229772E+02</totfact>
</mgrwt>
</event>
<event>
 4    1  0.4365842E+000  0.1750006E+03  0.7546771E-02  0.1172731E+00
         21   -1    0    0  503  502  0.00000000000E+00  0.00000000000E+00  0.48271861322E+03  0.48271861322E+03  0.00000000000E+00 0.  1.
         21   -1    0    0  501  503 -0.00000000000E+00 -0.00000000000E+00 -0.89943812645E+02  0.89943812645E+02  0.00000000000E+00 0.  1.
          6    1    1    2  501    0  0.16714288648E-01 -0.26386086953E+02  0.40966008380E+02  0.17973157682E+03  0.17300000000E+03 0.  1.
         -6    1    1    2    0  502 -0.16714288648E-01  0.26386086953E+02  0.35180879219E+03  0.39293084904E+03  0.17300000000E+03 0.  1.
<mgrwt>
<rscale>  2 0.17500065E+03</rscale>
<asrwt>0</asrwt>
<pdfrwt beam="1">  1       21 0.74264400E-01 0.17500065E+03</pdfrwt>
<pdfrwt beam="2">  1       21 0.13837510E-01 0.17500065E+03</pdfrwt>
<totfact> 0.74375979E+04</totfact>
</mgrwt>
</event>
<event>
 4    1  0.4365842E+000  0.1903774E+03  0.7546771E-02  0.1158121E+00
         21   -1    0    0  503  502  0.00000000000E+00  0.00000000000E+00  0.61237456959E+03  0.61237456959E+03  0.00000000000E+00 0.  1.
         21   -1    0    0  501  503 -0.00000000000E+00 -0.00000000000E+00 -0.62703251605E+02  0.62703251605E+02  0.00000000000E+00 0.  1.
          6    1    1    2  501    0 -0.16046507546E+02 -0.77827204324E+02  0.35478678743E+03  0.40263783810E+03  0.17300000000E+03 0.  1.
         -6    1    1    2    0  502  0.16046507546E+02  0.77827204324E+02  0.19488453056E+03  0.27243998309E+03  0.17300000000E+03 0.  1.
<mgrwt>
<rscale>  2 0.19037743E+03</rscale>
<asrwt>0</asrwt>
<pdfrwt beam="1">  1       21 0.94211468E-01 0.19037743E+03</pdfrwt>
<pdfrwt beam="2">  1       21 0.96466545E-02 0.19037743E+03</pdfrwt>
<totfact> 0.81753307E+04</totfact>
</mgrwt>
</event>
<event>
 4    1  0.4365842E+000  0.2452997E+03  0.7546771E-02  0.1116312E+00
         21   -1    0    0  503  502  0.00000000000E+00  0.00000000000E+00  0.41669969881E+03  0.41669969881E+03  0.00000000000E+00 0. -1.
         21   -1    0    0  501  503 -0.00000000000E+00 -0.00000000000E+00 -0.20564125516E+03  0.20564125516E+03  0.00000000000E+00 0. -1.
          6    1    1    2  501    0  0.16045544832E+02  0.17316319979E+03 -0.64279857337E+02  0.25358204457E+03  0.17300000000E+03 0. -1.
         -6    1    1    2    0  502 -0.16045544832E+02 -0.17316319979E+03  0.27533830099E+03  0.36875890940E+03  0.17300000000E+03 0. -1.
<mgrwt>
<rscale>  2 0.24529972E+03</rscale>
<asrwt>0</asrwt>
<pdfrwt beam="1">  1       21 0.64107646E-01 0.24529972E+03</pdfrwt>
<pdfrwt beam="2">  1       21 0.31637116E-01 0.24529972E+03</pdfrwt>
<totfact> 0.20959085E+04</totfact>
</mgrwt>
</event>
<event>
 4    1  0.4365842E+000  0.1791855E+03  0.7546771E-02  0.1168594E+00
         21   -1    0    0  501  502  0.00000000000E+00  0.00000000000E+00  0.17062011305E+03  0.17062011305E+03  0.00000000000E+00 0.  1.
         21   -1    0    0  502  503 -0.00000000000E+00 -0.00000000000E+00 -0.18975448712E+03  0.18975448712E+03  0.00000000000E+00 0.  1.
          6    1    1    2  501    0  0.37270742642E+02  0.28094874145E+02  0.68419849113E+01  0.17931604214E+03  0.17300000000E+03 0.  1.
         -6    1    1    2    0  503 -0.37270742642E+02 -0.28094874145E+02 -0.25976358987E+02  0.18105855803E+03  0.17300000000E+03 0.  1.
<mgrwt>
<rscale>  2 0.17918546E+03</rscale>
<asrwt>0</asrwt>
<pdfrwt beam="1">  1       21 0.26249248E-01 0.17918546E+03</pdfrwt>
<pdfrwt beam="2">  1       21 0.29192998E-01 0.17918546E+03</pdfrwt>
<totfact> 0.15569767E+05</totfact>
</mgrwt>
</event>
<event>
 4    1  0.4365842E+000  0.2107430E+03  0.7546771E-02  0.1140979E+00
         21   -1    0    0  501  502  0.00000000000E+00  0.00000000000E+00  0.89560899544E+03  0.89560899544E+03  0.00000000000E+00 0. -1.
         21   -1    0    0  502  503 -0.00000000000E+00 -0.00000000000E+00 -0.26251695739E+03  0.26251695739E+03  0.00000000000E+00 0.  1.
          6    1    1    2  501    0 -0.76441483658E+02 -0.92953326399E+02  0.83805663975E+03  0.86414787666E+03  0.17300000000E+03 0. -1.
         -6    1    1    2    0  503  0.76441483658E+02  0.92953326399E+02 -0.20496460171E+03  0.29397807617E+03  0.17300000000E+03 0.  1.
<mgrwt>
<rscale>  2 0.21074302E+03</rscale>
<asrwt>0</asrwt>
<pdfrwt beam="1">  1       21 0.13778600E+00 0.21074302E+03</pdfrwt>
<pdfrwt beam="2">  1       21 0.40387225E-01 0.21074302E+03</pdfrwt>
<totfact> 0.21665088E+03</totfact>
</mgrwt>
</event>
<event>
 4    1  0.4365842E+000  0.1850848E+03  0.7546771E-02  0.1162971E+00
         21   -1    0    0  503  502  0.00000000000E+00  0.00000000000E+00  0.17385787049E+04  0.17385787049E+04  0.00000000000E+00 0.  1.
         21   -1    0    0  501  503 -0.00000000000E+00 -0.00000000000E+00 -0.19778882058E+02  0.19778882058E+02  0.00000000000E+00 0.  1.
          6    1    1    2  501    0 -0.11261841622E+02  0.64811594721E+02  0.91361689122E+03  0.93217605409E+03  0.17300000000E+03 0.  1.
         -6    1    1    2    0  502  0.11261841622E+02 -0.64811594721E+02  0.80518293166E+03  0.82618153292E+03  0.17300000000E+03 0.  1.
<mgrwt>
<rscale>  2 0.18508477E+03</rscale>
<asrwt>0</asrwt>
<pdfrwt beam="1">  1       21 0.26747353E+00 0.18508477E+03</pdfrwt>
<pdfrwt beam="2">  1       21 0.30429063E-02 0.18508477E+03</pdfrwt>
<totfact> 0.32710904E+04</totfact>
</mgrwt>
</event>
<event>
 4    1  0.4365842E+000  0.1954107E+03  0.7546771E-02  0.1153670E+00
         21   -1    0    0  503  502  0.00000000000E+00  0.00000000000E+00  0.34722280055E+02  0.34722280055E+02  0.00000000000E+00 0.  1.
         21   -1    0    0  501  503 -0.00000000000E+00 -0.00000000000E+00 -0.11432589614E+04  0.11432589614E+04  0.00000000000E+00 0.  1.
          6    1    1    2  501    0  0.89126235625E+02 -0.17687721349E+02 -0.66918825488E+03  0.69713575566E+03  0.17300000000E+03 0.  1.
         -6    1    1    2    0  502 -0.89126235625E+02  0.17687721349E+02 -0.43934842646E+03  0.48084548578E+03  0.17300000000E+03 0.  1.
<mgrwt>
<rscale>  2 0.19541070E+03</rscale>
<asrwt>0</asrwt>
<pdfrwt beam="1">  1       21 0.53418900E-02 0.19541070E+03</pdfrwt>
<pdfrwt beam="2">  1       21 0.17588597E+00 0.19541070E+03</pdfrwt>
<totfact> 0.46600575E+04</totfact>
</mgrwt>
</event>
<event>
 4    1  0.4365842E+000  0.2046726E+03  0.7546771E-02  0.1145856E+00
         21   -1    0    0  503  502  0.00000000000E+00  0.00000000000E+00  0.18647706482E+03  0.18647706482E+03  0.00000000000E+00 0. -1.
         21   -1    0    0  501  503 -0.00000000000E+00 -0.00000000000E+00 -0.69467464854E+03  0.69467464854E+03  0.00000000000E+00 0.  1.
          6    1    1    2  501    0 -0.92884406286E+02 -0.57743770060E+02 -0.61650305707E+03  0.64958977462E+03  0.17300000000E+03 0.  1.
         -6    1    1    2    0  502  0.92884406286E+02  0.57743770060E+02  0.10830547335E+03  0.23156193873E+03  0.17300000000E+03 0. -1.
<mgrwt>
<rscale>  2 0.20467256E+03</rscale>
<asrwt>0</asrwt>
<pdfrwt beam="1">  1       21 0.28688779E-01 0.20467256E+03</pdfrwt>
<pdfrwt beam="2">  1       21 0.10687302E+00 0.20467256E+03</pdfrwt>
<totfact> 0.80672001E+03</totfact>
</mgrwt>
</event>
<event>
 4    1  0.4365842E+000  0.2656661E+03  0.7546771E-02  0.1103786E+00
         21   -1    0    0  503  502  0.00000000000E+00  0.00000000000E+00  0.91960833414E+03  0.91960833414E+03  0.00000000000E+00 0.  1.
         21   -1    0    0  501  503 -0.00000000000E+00 -0.00000000000E+00 -0.85745316378E+02  0.85745316378E+02  0.00000000000E+00 0.  1.
          6    1    1    2  501    0 -0.55747427976E+02  0.19375678227E+03  0.25410296054E+03  0.36762315074E+03  0.17300000000E+03 0.  1.
         -6    1    1    2    0  502  0.55747427976E+02 -0.19375678227E+03  0.57976005722E+03  0.63773049978E+03  0.17300000000E+03 0.  1.
<mgrwt>
<rscale>  2 0.26566608E+03</rscale>
<asrwt>0</asrwt>
<pdfrwt beam="1">  1       21 0.14147820E+00 0.26566608E+03</pdfrwt>
<pdfrwt beam="2">  1       21 0.13191588E-01 0.26566608E+03</pdfrwt>
<totfact> 0.16500616E+04</totfact>
</mgrwt>
</event>
<event>
 4    1  0.4365842E+000  0.2533675E+03  0.7546771E-02  0.1111195E+00
         21   -1    0    0  501  502  0.00000000000E+00  0.00000000000E+00  0.41200947655E+02  0.41200947655E+02  0.00000000000E+00 0. -1.
         21   -1    0    0  502  503 -0.00000000000E+00 -0.00000000000E+00 -0.17269466515E+04  0.17269466515E+04  0.00000000000E+00 0.  1.
          6    1    1    2  501    0 -0.18488292728E+03  0.91857099905E+01 -0.56643398244E+03  0.62051795343E+03  0.17300000000E+03 0. -1.
         -6    1    1    2    0  503  0.18488292728E+03 -0.91857099905E+01 -0.11193117214E+04  0.11476296458E+04  0.17300000000E+03 0.  1.
<mgrwt>
<rscale>  2 0.25336747E+03</rscale>
<asrwt>0</asrwt>
<pdfrwt beam="1">  1       21 0.63386063E-02 0.25336747E+03</pdfrwt>
<pdfrwt beam="2">  1       21 0.26568414E+00 0.25336747E+03</pdfrwt>
<totfact> 0.91588592E+03</totfact>
</mgrwt>
</event>
<event>
 4    1  0.4365842E+000  0.2075040E+03  0.7546771E-02  0.1143558E+00
         21   -1    0    0  501  502  0.00000000000E+00  0.00000000000E+00  0.88495252474E+02  0.88495252474E+02  0.00000000000E+00 0.  1.
         21   -1    0    0  502  503 -0.00000000000E+00 -0.00000000000E+00 -0.50696936776E+03  0.50696936776E+03  0.00000000000E+00 0.  1.
          6    1    1    2  501    0 -0.11157006207E+03 -0.26096384902E+02 -0.26898073594E+03  0.33971831914E+03  0.17300000000E+03 0.  1.
         -6    1    1    2    0  503  0.11157006207E+03  0.26096384902E+02 -0.14949337935E+03  0.25574630110E+03  0.17300000000E+03 0.  1.
<mgrwt>
<rscale>  2 0.20750398E+03</rscale>
<asrwt>0</asrwt>
<pdfrwt beam="1">  1       21 0.13614655E-01 0.20750398E+03</pdfrwt>
<pdfrwt beam="2">  1       21 0.77995285E-01 0.20750398E+03</pdfrwt>
<totfact> 0.67644320E+04</totfact>
</mgrwt>
</event>
<event>
 4    1  0.4365842E+000  0.2224112E+03  0.7546771E-02  0.1132098E+00
         21   -1    0    0  503  502  0.00000000000E+00  0.00000000000E+00  0.14636363951E+03  0.14636363951E+03  0.00000000000E+00 0.  1.
         21   -1    0    0  501  503 -0.00000000000E+00 -0.00000000000E+00 -0.49601376763E+03  0.49601376763E+03  0.00000000000E+00 0.  1.
          6    1    1    2  501    0  0.41318795978E+02  0.13353084153E+03 -0.35612603056E+03  0.41987197833E+03  0.17300000000E+03 0.  1.
         -6    1    1    2    0  502 -0.41318795978E+02 -0.13353084153E+03  0.64759024431E+01  0.22250542882E+03  0.17300000000E+03 0.  1.
<mgrwt>
<rscale>  2 0.22241117E+03</rscale>
<asrwt>0</asrwt>
<pdfrwt beam="1">  1       21 0.22517483E-01 0.22241117E+03</pdfrwt>
<pdfrwt beam="2">  1       21 0.76309811E-01 0.22241117E+03</pdfrwt>
<totfact> 0.27800521E+04</totfact>
</mgrwt>
</event>
<event>
 4    1  0.4365842E+000  0.2295180E+03  0.7546771E-02  0.1126980E+00
         21   -1    0    0  501  502  0.00000000000E+00  0.00000000000E+00  0.62407959698E+03  0.62407959698E+03  0.00000000000E+00 0.  1.
         21   -1    0    0  502  503 -0.00000000000E+00 -0.00000000000E+00 -0.18126309357E+03  0.18126309357E+03  0.00000000000E+00 0. -1.
          6    1    1    2  501    0 -0.37618098171E+02 -0.14606290699E+03  0.51575077772E+03  0.56451515376E+03  0.17300000000E+03 0.  1.
         -6    1    1    2    0  503  0.37618098171E+02  0.14606290699E+03 -0.72934274307E+02  0.24082753679E+03  0.17300000000E+03 0. -1.
<mgrwt>
<rscale>  2 0.22951796E+03</rscale>
<asrwt>0</asrwt>
<pdfrwt beam="1">  1       21 0.96012245E-01 0.22951796E+03</pdfrwt>
<pdfrwt beam="2">  1       21 0.27886630E-01 0.22951796E+03</pdfrwt>
<totfact> 0.10830297E+04</totfact>
</mgrwt>
</event>
<event>
 4    1  0.4365842E+000  0.1749962E+03  0.7546771E-02  0.1172735E+00
         21   -1    0    0  501  502  0.00000000000E+00  0.00000000000E+00  0.25557488841E+03  0.25557488841E+03  0.00000000000E+00 0. -1.
         21   -1    0    0  502  503 -0.00000000000E+00 -0.00000000000E+00 -0.12839082787E+03  0.12839082787E+03  0.00000000000E+00 0. -1.
          6    1    1    2  501    0 -0.26327669148E+02  0.12401941190E+01  0.13997095205E+02  0.17555512786E+03  0.17300000000E+03 0. -1.
         -6    1    1    2    0  503  0.26327669148E+02 -0.12401941190E+01  0.11318696534E+03  0.20841058842E+03  0.17300000000E+03 0. -1.
<mgrwt>
<rscale>  2 0.17499624E+03</rscale>
<asrwt>0</asrwt>
<pdfrwt beam="1">  1       21 0.39319213E-01 0.17499624E+03</pdfrwt>
<pdfrwt beam="2">  1       21 0.19752435E-01 0.17499624E+03</pdfrwt>
<totfact> 0.14818093E+05</totfact>
</mgrwt>
</event>
<event>
 4    1  0.4365842E+000  0.2000590E+03  0.7546771E-02  0.1149689E+00
         21   -1    0    0  501  502  0.00000000000E+00  0.00000000000E+00  0.53051006514E+03  0.53051006514E+03  0.00000000000E+00 0. -1.
         21   -1    0    0  502  503 -0.00000000000E+00 -0.00000000000E+00 -0.12293387907E+03  0.12293387907E+03  0.00000000000E+00 0. -1.
          6    1    1    2  501    0 -0.35878176892E+02  0.93847476393E+02  0.40685767829E+03  0.45338368165E+03  0.17300000000E+03 0. -1.
         -6    1    1    2    0  503  0.35878176892E+02 -0.93847476393E+02  0.71850777706E+00  0.20006026256E+03  0.17300000000E+03 0. -1.
<mgrwt>
<rscale>  2 0.20005897E+03</rscale>
<asrwt>0</asrwt>
<pdfrwt beam="1">  1       21 0.81616932E-01 0.20005897E+03</pdfrwt>
<pdfrwt beam="2">  1       21 0.18912905E-01 0.20005897E+03</pdfrwt>
<totfact> 0.33533871E+04</totfact>
</mgrwt>
</event>
<event>
 4    1  0.4365842E+000  0.2482987E+03  0.7546771E-02  0.1114385E+00
         21   -1    0    0  503  502  0.00000000000E+00  0.00000000000E+00  0.35585528603E+03  0.35585528603E+03  0.00000000000E+00 0.  1.
         21   -1    0    0  501  503 -0.00000000000E+00 -0.00000000000E+00 -0.17599749602E+03  0.17599749602E+03  0.00000000000E+00 0.  1.
          6    1    1    2  501    0 -0.10517077376E+03  0.14374397040E+03  0.56707964969E+02  0.25469199824E+03  0.17300000000E+03 0.  1.
         -6    1    1    2    0  502  0.10517077376E+03 -0.14374397040E+03  0.12314982504E+03  0.27716078381E+03  0.17300000000E+03 0.  1.
<mgrwt>
<rscale>  2 0.24829865E+03</rscale>
<asrwt>0</asrwt>
<pdfrwt beam="1">  1       21 0.54746967E-01 0.24829865E+03</pdfrwt>
<pdfrwt beam="2">  1       21 0.27076538E-01 0.24829865E+03</pdfrwt>
<totfact> 0.39880016E+04</totfact>
</mgrwt>
</event>
<event>
 4    1  0.4365842E+000  0.1950714E+03  0.7546771E-02  0.1153965E+00
         21   -1    0    0  501  502  0.00000000000E+00  0.00000000000E+00  0.10981506383E+04  0.10981506383E+04  0.00000000000E+00 0. -1.
         21   -1    0    0  502  503 -0.00000000000E+00 -0.00000000000E+00 -0.37904942812E+02  0.37904942812E+02  0.00000000000E+00 0. -1.
          6    1    1    2  501    0 -0.39512358538E+02  0.81009952894E+02  0.69653180958E+03  0.72333215102E+03  0.17300000000E+03 0. -1.
         -6    1    1    2    0  503  0.39512358538E+02 -0.81009952894E+02  0.36371388593E+03  0.41272343012E+03  0.17300000000E+03 0. -1.
<mgrwt>
<rscale>  2 0.19507137E+03</rscale>
<asrwt>0</asrwt>
<pdfrwt beam="1">  1       21 0.16894623E+00 0.19507137E+03</pdfrwt>
<pdfrwt beam="2">  1       21 0.58315305E-02 0.19507137E+03</pdfrwt>
<totfact> 0.44870058E+04</totfact>
</mgrwt>
</event>
<event>
 4    1  0.4365842E+000  0.1777513E+03  0.7546771E-02  0.1169997E+00
         21   -1    0    0  501  502  0.00000000000E+00  0.00000000000E+00  0.66493562328E+02  0.66493562328E+02  0.00000000000E+00 0.  1.
         21   -1    0    0  502  503 -0.00000000000E+00 -0.00000000000E+00 -0.57734172035E+03  0.57734172035E+03  0.00000000000E+00 0.  1.
          6    1    1    2  501    0  0.37941177297E+02 -0.15065674816E+02 -0.39084983937E+03  0.42937059101E+03  0.17300000000E+03 0.  1.
         -6    1    1    2    0  503 -0.37941177297E+02  0.15065674816E+02 -0.11999831866E+03  0.21446469167E+03  0.17300000000E+03 0.  1.
<mgrwt>
<rscale>  2 0.17775125E+03</rscale>
<asrwt>0</asrwt>
<pdfrwt beam="1">  1       21 0.10229779E-01 0.17775125E+03</pdfrwt>
<pdfrwt beam="2">  1       21 0.88821800E-01 0.17775125E+03</pdfrwt>
<totfact> 0.84960789E+04</totfact>
</mgrwt>
</event>
<event>
 4    1  0.4365842E+000  0.1885077E+03  0.7546771E-02  0.1159814E+00
         21   -1    0    0  501  502  0.00000000000E+00  0.00000000000E+00  0.40407595772E+03  0.40407595772E+03  0.00000000000E+00 0. -1.
         21   -1    0    0  502  503 -0.00000000000E+00 -0.00000000000E+00 -0.42405667763E+03  0.42405667763E+03  0.00000000000E+00 0. -1.
          6    1    1    2  501    0  0.21863422603E+02 -0.71611041026E+02  0.35864912076E+03  0.40517199097E+03  0.17300000000E+03 0. -1.
         -6    1    1    2    0  503 -0.21863422603E+02  0.71611041026E+02 -0.37862984067E+03  0.42296064438E+03  0.17300000000E+03 0. -1.
<mgrwt>
<rscale>  2 0.18850769E+03</rscale>
<asrwt>0</asrwt>
<pdfrwt beam="1">  1       21 0.62165532E-01 0.18850769E+03</pdfrwt>
<pdfrwt beam="2">  1       21 0.65239489E-01 0.18850769E+03</pdfrwt>
<totfact> 0.52074037E+03</totfact>
</mgrwt>
</event>
<event>
 4    1  0.4365842E+000  0.1953362E+03  0.7546771E-02  0.1153735E+00
         21   -1    0    0  503  502  0.00000000000E+00  0.00000000000E+00  0.11225477590E+03  0.11225477590E+03  0.00000000000E+00 0. -1.
         21   -1    0    0  501  503 -0.00000000000E+00 -0.00000000000E+00 -0.38585431277E+03  0.38585431277E+03  0.00000000000E+00 0. -1.
          6    1    1    2  501    0  0.86874230584E+02  0.26078798701E+02 -0.22274280185E+03  0.29626101913E+03  0.17300000000E+03 0. -1.
         -6    1    1    2    0  502 -0.86874230584E+02 -0.26078798701E+02 -0.50856735019E+02  0.20184806954E+03  0.17300000000E+03 0. -1.
<mgrwt>
<rscale>  2 0.19533621E+03</rscale>
<asrwt>0</asrwt>
<pdfrwt beam="1">  1       21 0.17269965E-01 0.19533621E+03</pdfrwt>
<pdfrwt beam="2">  1       21 0.59362202E-01 0.19533621E+03</pdfrwt>
<totfact> 0.80257531E+04</totfact>
</mgrwt>
</event>
<event>
 4    1  0.4365842E+000  0.1757653E+03  0.7546771E-02  0.1171965E+00
         21   -1    0    0  501  502  0.00000000000E+00  0.00000000000E+00  0.76337286966E+02  0.76337286966E+02  0.00000000000E+00 0. -1.
         21   -1    0    0  502  503 -0.00000000000E+00 -0.00000000000E+00 -0.46114119268E+03  0.46114119268E+03  0.00000000000E+00 0. -1.
          6    1    1    2  501    0 -0.20665870697E+01  0.30986634670E+02 -0.98380879466E+02  0.20142551913E+03  0.17300000000E+03 0. -1.
         -6    1    1    2    0  503  0.20665870697E+01 -0.30986634670E+02 -0.28642302625E+03  0.33605296052E+03  0.17300000000E+03 0. -1.
<mgrwt>
<rscale>  2 0.17576530E+03</rscale>
<asrwt>0</asrwt>
<pdfrwt beam="1">  1       21 0.11744198E-01 0.17576530E+03</pdfrwt>
<pdfrwt beam="2">  1       21 0.70944798E-01 0.17576530E+03</pdfrwt>
<totfact> 0.11041100E+05</totfact>
</mgrwt>
</event>
<event>
 4    1  0.4365842E+000  0.1771580E+03  0.7546771E-02  0.1170582E+00
         21   -1    0    0  503  502  0.00000000000E+00  0.00000000000E+00  0.39899639244E+03  0.39899639244E+03  0.00000000000E+00 0. -1.
         21   -1    0    0  501  503 -0.00000000000E+00 -0.00000000000E+00 -0.12055600609E+03  0.12055600609E+03  0.00000000000E+00 0. -1.
          6    1    1    2  501    0  0.38017515877E+02  0.32610137026E+01 -0.13921138841E+02  0.17770414691E+03  0.17300000000E+03 0. -1.
         -6    1    1    2    0  502 -0.38017515877E+02 -0.32610137026E+01  0.29236152519E+03  0.34184825162E+03  0.17300000000E+03 0. -1.
<mgrwt>
<rscale>  2 0.17715802E+03</rscale>
<asrwt>0</asrwt>
<pdfrwt beam="1">  1       21 0.61384060E-01 0.17715802E+03</pdfrwt>
<pdfrwt beam="2">  1       21 0.18547078E-01 0.17715802E+03</pdfrwt>
<totfact> 0.65980458E+04</totfact>
</mgrwt>
</event>
<event>
 4    1  0.4365842E+000  0.2204419E+03  0.7546771E-02  0.1133554E+00
         21   -1    0    0  503  502  0.00000000000E+00  0.00000000000E+00  0.71687244141E+03  0.71687244141E+03  0.00000000000E+00 0.  1.
         21   -1    0    0  501  503 -0.00000000000E+00 -0.00000000000E+00 -0.20701614624E+03  0.20701614624E+03  0.00000000000E+00 0.  1.
          6    1    1    2  501    0  0.10329715796E+03 -0.89416589303E+02 -0.12390902216E+03  0.25287956631E+03  0.17300000000E+03 0.  1.
         -6    1    1    2    0  502 -0.10329715796E+03  0.89416589303E+02  0.63376531733E+03  0.67100902135E+03  0.17300000000E+03 0.  1.
<mgrwt>
<rscale>  2 0.22044190E+03</rscale>
<asrwt>0</asrwt>
<pdfrwt beam="1">  1       21 0.11028807E+00 0.22044190E+03</pdfrwt>
<pdfrwt beam="2">  1       21 0.31848638E-01 0.22044190E+03</pdfrwt>
<totfact> 0.60257978E+03</totfact>
</mgrwt>
</event>
<event>
 4    1  0.4365842E+000  0.1851461E+03  0.7546771E-02  0.1162914E+00
         21   -1    0    0  501  502  0.00000000000E+00  0.00000000000E+00  0.12317815960E+03  0.12317815960E+03  0.00000000000E+00 0.  1.
         21   -1    0    0  502  503 -0.00000000000E+00 -0.00000000000E+00 -0.32113038468E+03  0.32113038468E+03  0.00000000000E+00 0.  1.
          6    1    1    2  501    0 -0.59327009467E+02 -0.28816589804E+02 -0.17833826324E+02  0.18600305175E+03  0.17300000000E+03 0.  1.
         -6    1    1    2    0  503  0.59327009467E+02  0.28816589804E+02 -0.18011839876E+03  0.25830549253E+03  0.17300000000E+03 0.  1.
<mgrwt>
<rscale>  2 0.18514613E+03</rscale>
<asrwt>0</asrwt>
<pdfrwt beam="1">  1       21 0.18950487E-01 0.18514613E+03</pdfrwt>
<pdfrwt beam="2">  1       21 0.49404673E-01 0.18514613E+03</pdfrwt>
<totfact> 0.99988665E+04</totfact>
</mgrwt>
</event>
<event>
 4    1  0.4365842E+000  0.1798439E+03  0.7546771E-02  0.1167954E+00
         21   -1    0    0  503  502  0.00000000000E+00  0.00000000000E+00  0.87631584233E+03  0.87631584233E+03  0.00000000000E+00 0. -1.
         21   -1    0    0  501  503 -0.00000000000E+00 -0.00000000000E+00 -0.39614197044E+02  0.39614197044E+02  0.00000000000E+00 0. -1.
          6    1    1    2  501    0 -0.43544816651E+02  0.22774810102E+02  0.29867254156E+03  0.34863896815E+03  0.17300000000E+03 0. -1.
         -6    1    1    2    0  502  0.43544816651E+02 -0.22774810102E+02  0.53802910373E+03  0.56729107122E+03  0.17300000000E+03 0. -1.
<mgrwt>
<rscale>  2 0.17984394E+03</rscale>
<asrwt>0</asrwt>
<pdfrwt beam="1">  1       21 0.13481781E+00 0.17984394E+03</pdfrwt>
<pdfrwt beam="2">  1       21 0.60944925E-02 0.17984394E+03</pdfrwt>
<totfact> 0.76146697E+04</totfact>
</mgrwt>
</event>
<event>
 4    1  0.4365842E+000  0.2108694E+03  0.7546771E-02  0.1140879E+00
         21   -1    0    0  501  502  0.00000000000E+00  0.00000000000E+00  0.12817846796E+03  0.12817846796E+03  0.00000000000E+00 0. -1.
         21   -1    0    0  502  503 -0.00000000000E+00 -0.00000000000E+00 -0.84816526623E+03  0.84816526623E+03  0.00000000000E+00 0.  1.
          6    1    1    2  501    0 -0.11839696877E+03 -0.22783364895E+02  0.15293637733E+02  0.21142331774E+03  0.17300000000E+03 0. -1.
         -6    1    1    2    0  503  0.11839696877E+03  0.22783364895E+02 -0.73528043600E+03  0.76492041645E+03  0.17300000000E+03 0.  1.
<mgrwt>
<rscale>  2 0.21086945E+03</rscale>
<asrwt>0</asrwt>
<pdfrwt beam="1">  1       21 0.19719765E-01 0.21086945E+03</pdfrwt>
<pdfrwt beam="2">  1       21 0.13048696E+00 0.21086945E+03</pdfrwt>
<totfact> 0.10015361E+04</totfact>
</mgrwt>
</event>
<event>
 4    1  0.4365842E+000  0.2400329E+03  0.7546771E-02  0.1119771E+00
         21   -1    0    0  503  502  0.00000000000E+00  0.00000000000E+00  0.32821904203E+04  0.32821904203E+04  0.00000000000E+00 0.  1.
         21   -1    0    0  501  503 -0.00000000000E+00 -0.00000000000E+00 -0.50637950690E+02  0.50637950690E+02  0.00000000000E+00 0.  1.
          6    1    1    2  501    0  0.34724545261E+02 -0.16272984714E+03  0.26882112383E+03  0.36038950291E+03  0.17300000000E+03 0.  1.
         -6    1    1    2    0  502 -0.34724545261E+02  0.16272984714E+03  0.29627313458E+04  0.29724388681E+04  0.17300000000E+03 0.  1.
<mgrwt>
<rscale>  2 0.24003291E+03</rscale>
<asrwt>0</asrwt>
<pdfrwt beam="1">  1       21 0.50495221E+00 0.24003291E+03</pdfrwt>
<pdfrwt beam="2">  1       21 0.77904565E-02 0.24003291E+03</pdfrwt>
<totfact> 0.20358252E+02</totfact>
</mgrwt>
</event>
<event>
 4    1  0.4365842E+000  0.3104623E+03  0.7546771E-02  0.1080124E+00
         21   -1    0    0  501  502  0.00000000000E+00  0.00000000000E+00  0.12343021989E+03  0.12343021989E+03  0.00000000000E+00 0. -1.
         21   -1    0    0  502  503 -0.00000000000E+00 -0.00000000000E+00 -0.80294955727E+03  0.80294955727E+03  0.00000000000E+00 0. -1.
          6    1    1    2  501    0 -0.10333413007E+03 -0.23617770331E+03 -0.26300591677E+03  0.40688937346E+03  0.17300000000E+03 0. -1.
         -6    1    1    2    0  503  0.10333413007E+03  0.23617770331E+03 -0.41651342061E+03  0.51949040369E+03  0.17300000000E+03 0. -1.
<mgrwt>
<rscale>  2 0.31046232E+03</rscale>
<asrwt>0</asrwt>
<pdfrwt beam="1">  1       21 0.18989264E-01 0.31046232E+03</pdfrwt>
<pdfrwt beam="2">  1       21 0.12353070E+00 0.31046232E+03</pdfrwt>
<totfact> 0.11686416E+04</totfact>
</mgrwt>
</event>
<event>
 4    1  0.4365842E+000  0.3073312E+03  0.7546771E-02  0.1081632E+00
         21   -1    0    0  501  502  0.00000000000E+00  0.00000000000E+00  0.52719527525E+03  0.52719527525E+03  0.00000000000E+00 0. -1.
         21   -1    0    0  502  503 -0.00000000000E+00 -0.00000000000E+00 -0.46927642716E+03  0.46927642716E+03  0.00000000000E+00 0. -1.
          6    1    1    2  501    0 -0.25400710542E+03  0.19667719393E+01  0.42070718288E+03  0.52100576918E+03  0.17300000000E+03 0. -1.
         -6    1    1    2    0  503  0.25400710542E+03 -0.19667719393E+01 -0.36278833479E+03  0.47546593322E+03  0.17300000000E+03 0. -1.
<mgrwt>
<rscale>  2 0.30733122E+03</rscale>
<asrwt>0</asrwt>
<pdfrwt beam="1">  1       21 0.81106965E-01 0.30733122E+03</pdfrwt>
<pdfrwt beam="2">  1       21 0.72196374E-01 0.30733122E+03</pdfrwt>
<totfact> 0.21261453E+03</totfact>
</mgrwt>
</event>
<event>
 4    1  0.4365842E+000  0.1902784E+03  0.7546771E-02  0.1158210E+00
         21   -1    0    0  503  502  0.00000000000E+00  0.00000000000E+00  0.58027966470E+03  0.58027966470E+03  0.00000000000E+00 0. -1.
         21   -1    0    0  501  503 -0.00000000000E+00 -0.00000000000E+00 -0.71069498657E+02  0.71069498657E+02  0.00000000000E+00 0. -1.
          6    1    1    2  501    0 -0.43968414620E+02  0.65906489701E+02  0.14081798503E+03  0.23671838073E+03  0.17300000000E+03 0. -1.
         -6    1    1    2    0  502  0.43968414620E+02 -0.65906489701E+02  0.36839218101E+03  0.41463078262E+03  0.17300000000E+03 0. -1.
<mgrwt>
<rscale>  2 0.19027845E+03</rscale>
<asrwt>0</asrwt>
<pdfrwt beam="1">  1       21 0.89273792E-01 0.19027845E+03</pdfrwt>
<pdfrwt beam="2">  1       21 0.10933769E-01 0.19027845E+03</pdfrwt>
<totfact> 0.74232411E+04</totfact>
</mgrwt>
</event>
<event>
 4    1  0.4365842E+000  0.4388543E+03  0.7546771E-02  0.1031099E+00
         21   -1    0    0  503  502  0.00000000000E+00  0.00000000000E+00  0.55423832792E+03  0.55423832792E+03  0.00000000000E+00 0.  1.
         21   -1    0    0  501  503 -0.00000000000E+00 -0.00000000000E+00 -0.76166913641E+03  0.76166913641E+03  0.00000000000E+00 0. -1.
          6    1    1    2  501    0 -0.17219499984E+03  0.36470950065E+03 -0.58889828660E+03  0.73443470084E+03  0.17300000000E+03 0. -1.
         -6    1    1    2    0  502  0.17219499984E+03 -0.36470950065E+03  0.38146747811E+03  0.58147276350E+03  0.17300000000E+03 0.  1.
<mgrwt>
<rscale>  2 0.43885435E+03</rscale>
<asrwt>0</asrwt>
<pdfrwt beam="1">  1       21 0.85267435E-01 0.43885435E+03</pdfrwt>
<pdfrwt beam="2">  1       21 0.11717987E+00 0.43885435E+03</pdfrwt>
<totfact> 0.56141967E+02</totfact>
</mgrwt>
</event>
<event>
 4    1  0.4365842E+000  0.2124535E+03  0.7546771E-02  0.1139638E+00
         21   -1    0    0  503  502  0.00000000000E+00  0.00000000000E+00  0.86191655409E+03  0.86191655409E+03  0.00000000000E+00 0.  1.
         21   -1    0    0  501  503 -0.00000000000E+00 -0.00000000000E+00 -0.10840288865E+03  0.10840288865E+03  0.00000000000E+00 0.  1.
          6    1    1    2  501    0 -0.78875511177E+02  0.94795291260E+02  0.27941832882E+02  0.21428308270E+03  0.17300000000E+03 0.  1.
         -6    1    1    2    0  502  0.78875511177E+02 -0.94795291260E+02  0.72557183256E+03  0.75603636004E+03  0.17300000000E+03 0.  1.
<mgrwt>
<rscale>  2 0.21245351E+03</rscale>
<asrwt>0</asrwt>
<pdfrwt beam="1">  1       21 0.13260254E+00 0.21245351E+03</pdfrwt>
<pdfrwt beam="2">  1       21 0.16677368E-01 0.21245351E+03</pdfrwt>
<totfact> 0.13105333E+04</totfact>
</mgrwt>
</event>
<event>
 4    1  0.4365842E+000  0.1776024E+03  0.7546771E-02  0.1170144E+00
         21   -1    0    0  503  502  0.00000000000E+00  0.00000000000E+00  0.10604050803E+03  0.10604050803E+03  0.00000000000E+00 0. -1.
         21   -1    0    0  501  503 -0.00000000000E+00 -0.00000000000E+00 -0.42669754147E+03  0.42669754147E+03  0.00000000000E+00 0.  1.
          6    1    1    2  501    0  0.40087759593E+02 -0.25653780815E+01 -0.30692419301E+03  0.35460551305E+03  0.17300000000E+03 0.  1.
         -6    1    1    2    0  502 -0.40087759593E+02  0.25653780815E+01 -0.13732840431E+02  0.17813253644E+03  0.17300000000E+03 0. -1.
<mgrwt>
<rscale>  2 0.17760239E+03</rscale>
<asrwt>0</asrwt>
<pdfrwt beam="1">  1       21 0.16313924E-01 0.17760239E+03</pdfrwt>
<pdfrwt beam="2">  1       21 0.65645776E-01 0.17760239E+03</pdfrwt>
<totfact> 0.72241085E+04</totfact>
</mgrwt>
</event>
<event>
 4    1  0.4365842E+000  0.1744267E+03  0.7546771E-02  0.1173309E+00
         21   -1    0    0  501  502  0.00000000000E+00  0.00000000000E+00  0.11421054115E+04  0.11421054115E+04  0.00000000000E+00 0.  1.
         21   -1    0    0  502  503 -0.00000000000E+00 -0.00000000000E+00 -0.79504756350E+02  0.79504756350E+02  0.00000000000E+00 0.  1.
          6    1    1    2  501    0  0.19362921313E+02 -0.10988832293E+02  0.10293731458E+04  0.10440468143E+04  0.17300000000E+03 0.  1.
         -6    1    1    2    0  503 -0.19362921313E+02  0.10988832293E+02  0.33227509388E+02  0.17756335359E+03  0.17300000000E+03 0.  1.
<mgrwt>
<rscale>  2 0.17442671E+03</rscale>
<asrwt>0</asrwt>
<pdfrwt beam="1">  1       21 0.17570851E+00 0.17442671E+03</pdfrwt>
<pdfrwt beam="2">  1       21 0.12231502E-01 0.17442671E+03</pdfrwt>
<totfact> 0.11205513E+04</totfact>
</mgrwt>
</event>
<event>
 4    1  0.4365842E+000  0.2868477E+03  0.7546771E-02  0.1092007E+00
         21   -1    0    0  503  502  0.00000000000E+00  0.00000000000E+00  0.61240384621E+03  0.61240384621E+03  0.00000000000E+00 0. -1.
         21   -1    0    0  501  503 -0.00000000000E+00 -0.00000000000E+00 -0.41290679990E+03  0.41290679990E+03  0.00000000000E+00 0.  1.
          6    1    1    2  501    0 -0.40350206591E+02 -0.22522090689E+03 -0.32131710760E+03  0.43072761661E+03  0.17300000000E+03 0.  1.
         -6    1    1    2    0  502  0.40350206591E+02  0.22522090689E+03  0.52081415390E+03  0.59458302950E+03  0.17300000000E+03 0. -1.
<mgrwt>
<rscale>  2 0.28684769E+03</rscale>
<asrwt>0</asrwt>
<pdfrwt beam="1">  1       21 0.94215976E-01 0.28684769E+03</pdfrwt>
<pdfrwt beam="2">  1       21 0.63524123E-01 0.28684769E+03</pdfrwt>
<totfact> 0.20158338E+03</totfact>
</mgrwt>
</event>
<event>
 4    1  0.4365842E+000  0.1846454E+03  0.7546771E-02  0.1163381E+00
         21   -1    0    0  503  502  0.00000000000E+00  0.00000000000E+00  0.14420641487E+03  0.14420641487E+03  0.00000000000E+00 0. -1.
         21   -1    0    0  501  503 -0.00000000000E+00 -0.00000000000E+00 -0.34544894310E+03  0.34544894310E+03  0.00000000000E+00 0. -1.
          6    1    1    2  501    0 -0.14596931748E+02  0.62863766262E+02 -0.23816176535E+03  0.30135518910E+03  0.17300000000E+03 0. -1.
         -6    1    1    2    0  502  0.14596931748E+02 -0.62863766262E+02  0.36919237116E+02  0.18830016886E+03  0.17300000000E+03 0. -1.
<mgrwt>
<rscale>  2 0.18464540E+03</rscale>
<asrwt>0</asrwt>
<pdfrwt beam="1">  1       21 0.22185603E-01 0.18464540E+03</pdfrwt>
<pdfrwt beam="2">  1       21 0.53145991E-01 0.18464540E+03</pdfrwt>
<totfact> 0.63933631E+04</totfact>
</mgrwt>
</event>
<event>
 4    1  0.4365842E+000  0.2139402E+03  0.7546771E-02  0.1138483E+00
         21   -1    0    0  503  502  0.00000000000E+00  0.00000000000E+00  0.20984739127E+03  0.20984739127E+03  0.00000000000E+00 0. -1.
         21   -1    0    0  501  503 -0.00000000000E+00 -0.00000000000E+00 -0.21890920629E+03  0.21890920629E+03  0.00000000000E+00 0. -1.
          6    1    1    2  501    0 -0.58377437792E+02 -0.11150551406E+03 -0.17461322793E+02  0.21465158444E+03  0.17300000000E+03 0. -1.
         -6    1    1    2    0  502  0.58377437792E+02  0.11150551406E+03  0.83995077767E+01  0.21410501311E+03  0.17300000000E+03 0. -1.
<mgrwt>
<rscale>  2 0.21394019E+03</rscale>
<asrwt>0</asrwt>
<pdfrwt beam="1">  1       21 0.32284214E-01 0.21394019E+03</pdfrwt>
<pdfrwt beam="2">  1       21 0.33678339E-01 0.21394019E+03</pdfrwt>
<totfact> 0.77683799E+04</totfact>
</mgrwt>
</event>
<event>
 4    1  0.4365842E+000  0.2998278E+03  0.7546771E-02  0.1085327E+00
         21   -1    0    0  501  502  0.00000000000E+00  0.00000000000E+00  0.24195721547E+03  0.24195721547E+03  0.00000000000E+00 0.  1.
         21   -1    0    0  502  503 -0.00000000000E+00 -0.00000000000E+00 -0.37187648091E+03  0.37187648091E+03  0.00000000000E+00 0.  1.
          6    1    1    2  501    0 -0.23423155633E+03 -0.71437130221E+02 -0.74197326635E+02  0.30887202663E+03  0.17300000000E+03 0.  1.
         -6    1    1    2    0  503  0.23423155633E+03  0.71437130221E+02 -0.55721938805E+02  0.30496166975E+03  0.17300000000E+03 0.  1.
<mgrwt>
<rscale>  2 0.29982776E+03</rscale>
<asrwt>0</asrwt>
<pdfrwt beam="1">  1       21 0.37224187E-01 0.29982776E+03</pdfrwt>
<pdfrwt beam="2">  1       21 0.57211766E-01 0.29982776E+03</pdfrwt>
<totfact> 0.18928229E+04</totfact>
</mgrwt>
</event>
<event>
 4    1  0.4365842E+000  0.1828321E+03  0.7546771E-02  0.1165090E+00
         21   -1    0    0  503  502  0.00000000000E+00  0.00000000000E+00  0.64700250886E+03  0.64700250886E+03  0.00000000000E+00 0. -1.
         21   -1    0    0  501  503 -0.00000000000E+00 -0.00000000000E+00 -0.58877374313E+02  0.58877374313E+02  0.00000000000E+00 0. -1.
          6    1    1    2  501    0 -0.58877181144E+02 -0.56616497017E+01  0.17053702153E+03  0.25002090402E+03  0.17300000000E+03 0. -1.
         -6    1    1    2    0  502  0.58877181144E+02  0.56616497017E+01  0.41758811302E+03  0.45585897915E+03  0.17300000000E+03 0. -1.
<mgrwt>
<rscale>  2 0.18283210E+03</rscale>
<asrwt>0</asrwt>
<pdfrwt beam="1">  1       21 0.99538842E-01 0.18283210E+03</pdfrwt>
<pdfrwt beam="2">  1       21 0.90580581E-02 0.18283210E+03</pdfrwt>
<totfact> 0.80511246E+04</totfact>
</mgrwt>
</event>
<event>
 4    1  0.4365842E+000  0.1842869E+03  0.7546771E-02  0.1163718E+00
         21   -1    0    0  503  502  0.00000000000E+00  0.00000000000E+00  0.44880477924E+03  0.44880477924E+03  0.00000000000E+00 0.  1.
         21   -1    0    0  501  503 -0.00000000000E+00 -0.00000000000E+00 -0.10109967606E+03  0.10109967606E+03  0.00000000000E+00 0.  1.
          6    1    1    2  501    0  0.62525999199E+02 -0.11097251597E+02  0.31174532678E+03  0.36214195882E+03  0.17300000000E+03 0.  1.
         -6    1    1    2    0  502 -0.62525999199E+02  0.11097251597E+02  0.35959776408E+02  0.18776249649E+03  0.17300000000E+03 0.  1.
<mgrwt>
<rscale>  2 0.18428687E+03</rscale>
<asrwt>0</asrwt>
<pdfrwt beam="1">  1       21 0.69046888E-01 0.18428687E+03</pdfrwt>
<pdfrwt beam="2">  1       21 0.15553797E-01 0.18428687E+03</pdfrwt>
<totfact> 0.70375063E+04</totfact>
</mgrwt>
</event>
<event>
 4    1  0.4365842E+000  0.2744893E+03  0.7546771E-02  0.1098737E+00
         21   -1    0    0  501  502  0.00000000000E+00  0.00000000000E+00  0.10063531304E+04  0.10063531304E+04  0.00000000000E+00 0.  1.
         21   -1    0    0  502  503 -0.00000000000E+00 -0.00000000000E+00 -0.77312612297E+02  0.77312612297E+02  0.00000000000E+00 0. -1.
          6    1    1    2  501    0 -0.18483262948E+03 -0.10607675480E+03  0.56085445847E+03  0.62442141412E+03  0.17300000000E+03 0.  1.
         -6    1    1    2    0  503  0.18483262948E+03  0.10607675480E+03  0.36818605968E+03  0.45924432862E+03  0.17300000000E+03 0. -1.
<mgrwt>
<rscale>  2 0.27448931E+03</rscale>
<asrwt>0</asrwt>
<pdfrwt beam="1">  1       21 0.15482355E+00 0.27448931E+03</pdfrwt>
<pdfrwt beam="2">  1       21 0.11894249E-01 0.27448931E+03</pdfrwt>
<totfact> 0.15589436E+04</totfact>
</mgrwt>
</event>
<event>
 4    1  0.4365842E+000  0.1763986E+03  0.7546771E-02  0.1171335E+00
         21   -1    0    0  501  502  0.00000000000E+00  0.00000000000E+00  0.29196088863E+03  0.29196088863E+03  0.00000000000E+00 0. -1.
         21   -1    0    0  502  503 -0.00000000000E+00 -0.00000000000E+00 -0.28241657761E+03  0.28241657761E+03  0.00000000000E+00 0. -1.
          6    1    1    2  501    0 -0.32565718568E+02  0.11265999862E+02  0.23138267044E+03  0.29095427297E+03  0.17300000000E+03 0. -1.
         -6    1    1    2    0  503  0.32565718568E+02 -0.11265999862E+02 -0.22183835941E+03  0.28342319327E+03  0.17300000000E+03 0. -1.
<mgrwt>
<rscale>  2 0.17639855E+03</rscale>
<asrwt>0</asrwt>
<pdfrwt beam="1">  1       21 0.44917060E-01 0.17639855E+03</pdfrwt>
<pdfrwt beam="2">  1       21 0.43448704E-01 0.17639855E+03</pdfrwt>
<totfact> 0.24446051E+04</totfact>
</mgrwt>
</event>
<event>
 4    1  0.4365842E+000  0.3118021E+03  0.7546771E-02  0.1079485E+00
         21   -1    0    0  501  502  0.00000000000E+00  0.00000000000E+00  0.58016710084E+03  0.58016710084E+03  0.00000000000E+00 0. -1.
         21   -1    0    0  502  503 -0.00000000000E+00 -0.00000000000E+00 -0.16923377630E+03  0.16923377630E+03  0.00000000000E+00 0.  1.
          6    1    1    2  501    0 -0.19836957913E+02  0.25864659043E+03  0.24258138320E+03  0.39505226378E+03  0.17300000000E+03 0. -1.
         -6    1    1    2    0  503  0.19836957913E+02 -0.25864659043E+03  0.16835194134E+03  0.35434861336E+03  0.17300000000E+03 0. -1.
<mgrwt>
<rscale>  2 0.31180212E+03</rscale>
<asrwt>0</asrwt>
<pdfrwt beam="1">  1       21 0.89256476E-01 0.31180212E+03</pdfrwt>
<pdfrwt beam="2">  1       21 0.26035966E-01 0.31180212E+03</pdfrwt>
<totfact> 0.14097700E+04</totfact>
</mgrwt>
</event>
<event>
 4    1  0.4365842E+000  0.2132615E+03  0.7546771E-02  0.1139009E+00
         21   -1    0    0  501  502  0.00000000000E+00  0.00000000000E+00  0.27757198919E+03  0.27757198919E+03  0.00000000000E+00 0.  1.
         21   -1    0    0  502  503 -0.00000000000E+00 -0.00000000000E+00 -0.17960548640E+03  0.17960548640E+03  0.00000000000E+00 0. -1.
          6    1    1    2  501    0  0.10823227903E+03 -0.61945639871E+02  0.11668426061E+03  0.24309608223E+03  0.17300000000E+03 0. -1.
         -6    1    1    2    0  503 -0.10823227903E+03  0.61945639871E+02 -0.18717757828E+02  0.21408139336E+03  0.17300000000E+03 0. -1.
<mgrwt>
<rscale>  2 0.21326155E+03</rscale>
<asrwt>0</asrwt>
<pdfrwt beam="1">  1       21 0.42703383E-01 0.21326155E+03</pdfrwt>
<pdfrwt beam="2">  1       21 0.27631613E-01 0.21326155E+03</pdfrwt>
<totfact> 0.65325438E+04</totfact>
</mgrwt>
</event>
<event>
 4    1  0.4365842E+000  0.1774475E+03  0.7546771E-02  0.1170296E+00
         21   -1    0    0  501  502  0.00000000000E+00  0.00000000000E+00  0.29119125151E+03  0.29119125151E+03  0.00000000000E+00 0.  1.
         21   -1    0    0  502  503 -0.00000000000E+00 -0.00000000000E+00 -0.15398239384E+03  0.15398239384E+03  0.00000000000E+00 0.  1.
          6    1    1    2  501    0  0.37973343067E+02 -0.10799626603E+02  0.19006269770E+03  0.26002199095E+03  0.17300000000E+03 0.  1.
         -6    1    1    2    0  503 -0.37973343067E+02  0.10799626603E+02 -0.52853840038E+02  0.18515165440E+03  0.17300000000E+03 0.  1.
<mgrwt>
<rscale>  2 0.17744748E+03</rscale>
<asrwt>0</asrwt>
<pdfrwt beam="1">  1       21 0.44798654E-01 0.17744748E+03</pdfrwt>
<pdfrwt beam="2">  1       21 0.23689599E-01 0.17744748E+03</pdfrwt>
<totfact> 0.80757475E+04</totfact>
</mgrwt>
</event>
<event>
 4    1  0.4365842E+000  0.2049114E+03  0.7546771E-02  0.1145660E+00
         21   -1    0    0  501  502  0.00000000000E+00  0.00000000000E+00  0.32490249641E+03  0.32490249641E+03  0.00000000000E+00 0. -1.
         21   -1    0    0  502  503 -0.00000000000E+00 -0.00000000000E+00 -0.26426746627E+03  0.26426746627E+03  0.00000000000E+00 0. -1.
          6    1    1    2  501    0  0.63549366280E+02 -0.89560926742E+02  0.24089324237E+03  0.31625659799E+03  0.17300000000E+03 0. -1.
         -6    1    1    2    0  503 -0.63549366280E+02  0.89560926742E+02 -0.18025821222E+03  0.27291336469E+03  0.17300000000E+03 0. -1.
<mgrwt>
<rscale>  2 0.20491140E+03</rscale>
<asrwt>0</asrwt>
<pdfrwt beam="1">  1       21 0.49984999E-01 0.20491140E+03</pdfrwt>
<pdfrwt beam="2">  1       21 0.40656533E-01 0.20491140E+03</pdfrwt>
<totfact> 0.22063044E+04</totfact>
</mgrwt>
</event>
<event>
 4    1  0.4365842E+000  0.1998247E+03  0.7546771E-02  0.1149887E+00
         21   -1    0    0  501  502  0.00000000000E+00  0.00000000000E+00  0.27702578987E+03  0.27702578987E+03  0.00000000000E+00 0.  1.
         21   -1    0    0  502  503 -0.00000000000E+00 -0.00000000000E+00 -0.48560470642E+03  0.48560470642E+03  0.00000000000E+00 0.  1.
          6    1    1    2  501    0  0.44037329434E+02  0.89786551215E+02  0.21546527744E+03  0.29386254771E+03  0.17300000000E+03 0.  1.
         -6    1    1    2    0  503 -0.44037329434E+02 -0.89786551215E+02 -0.42404419399E+03  0.46876794859E+03  0.17300000000E+03 0.  1.
<mgrwt>
<rscale>  2 0.19982470E+03</rscale>
<asrwt>0</asrwt>
<pdfrwt beam="1">  1       21 0.42619353E-01 0.19982470E+03</pdfrwt>
<pdfrwt beam="2">  1       21 0.74708416E-01 0.19982470E+03</pdfrwt>
<totfact> 0.84503317E+03</totfact>
</mgrwt>
</event>
<event>
 4    1  0.4365842E+000  0.2995911E+03  0.7546771E-02  0.1085445E+00
         21   -1    0    0  503  502  0.00000000000E+00  0.00000000000E+00  0.83008889273E+03  0.83008889273E+03  0.00000000000E+00 0. -1.
         21   -1    0    0  501  503 -0.00000000000E+00 -0.00000000000E+00 -0.15199302481E+03  0.15199302481E+03  0.00000000000E+00 0. -1.
          6    1    1    2  501    0  0.22285581661E+03  0.10080226923E+03  0.75250068099E+02  0.30889704632E+03  0.17300000000E+03 0. -1.
         -6    1    1    2    0  502 -0.22285581661E+03 -0.10080226923E+03  0.60284579982E+03  0.67318487122E+03  0.17300000000E+03 0. -1.
<mgrwt>
<rscale>  2 0.29959108E+03</rscale>
<asrwt>0</asrwt>
<pdfrwt beam="1">  1       21 0.12770598E+00 0.29959108E+03</pdfrwt>
<pdfrwt beam="2">  1       21 0.23383543E-01 0.29959108E+03</pdfrwt>
<totfact> 0.72723725E+03</totfact>
</mgrwt>
</event>
<event>
 4    1  0.4365842E+000  0.2690732E+03  0.7546771E-02  0.1101811E+00
         21   -1    0    0  503  502  0.00000000000E+00  0.00000000000E+00  0.30539978346E+03  0.30539978346E+03  0.00000000000E+00 0. -1.
         21   -1    0    0  501  503 -0.00000000000E+00 -0.00000000000E+00 -0.24126537248E+03  0.24126537248E+03  0.00000000000E+00 0.  1.
          6    1    1    2  501    0 -0.11805887821E+03  0.16891861739E+03  0.68121135955E+02  0.27756240233E+03  0.17300000000E+03 0. -1.
         -6    1    1    2    0  502  0.11805887821E+03 -0.16891861739E+03 -0.39867249685E+01  0.26910275361E+03  0.17300000000E+03 0.  1.
<mgrwt>
<rscale>  2 0.26907322E+03</rscale>
<asrwt>0</asrwt>
<pdfrwt beam="1">  1       21 0.46984582E-01 0.26907322E+03</pdfrwt>
<pdfrwt beam="2">  1       21 0.37117750E-01 0.26907322E+03</pdfrwt>
<totfact> 0.29249570E+04</totfact>
</mgrwt>
</event>
<event>
 4    1  0.4365842E+000  0.2935304E+03  0.7546771E-02  0.1088520E+00
         21   -1    0    0  503  502  0.00000000000E+00  0.00000000000E+00  0.53575055392E+02  0.53575055392E+02  0.00000000000E+00 0. -1.
         21   -1    0    0  501  503 -0.00000000000E+00 -0.00000000000E+00 -0.16531911504E+04  0.16531911504E+04  0.00000000000E+00 0.  1.
          6    1    1    2  501    0 -0.20794327667E+03 -0.11397659741E+03 -0.94057021866E+03  0.98530828034E+03  0.17300000000E+03 0.  1.
         -6    1    1    2    0  502  0.20794327667E+03  0.11397659741E+03 -0.65904587638E+03  0.72145792548E+03  0.17300000000E+03 0.  1.
<mgrwt>
<rscale>  2 0.29353036E+03</rscale>
<asrwt>0</asrwt>
<pdfrwt beam="1">  1       21 0.82423167E-02 0.29353036E+03</pdfrwt>
<pdfrwt beam="2">  1       21 0.25433708E+00 0.29353036E+03</pdfrwt>
<totfact> 0.65741828E+03</totfact>
</mgrwt>
</event>
<event>
 4    1  0.4365842E+000  0.2175672E+03  0.7546771E-02  0.1135710E+00
         21   -1    0    0  501  502  0.00000000000E+00  0.00000000000E+00  0.54324268493E+03  0.54324268493E+03  0.00000000000E+00 0.  1.
         21   -1    0    0  502  503 -0.00000000000E+00 -0.00000000000E+00 -0.27584616997E+03  0.27584616997E+03  0.00000000000E+00 0.  1.
          6    1    1    2  501    0  0.95229545516E+02 -0.91311653717E+02  0.47243809536E+03  0.52012809806E+03  0.17300000000E+03 0.  1.
         -6    1    1    2    0  503 -0.95229545516E+02  0.91311653717E+02 -0.20504158039E+03  0.29896075684E+03  0.17300000000E+03 0.  1.
<mgrwt>
<rscale>  2 0.21756720E+03</rscale>
<asrwt>0</asrwt>
<pdfrwt beam="1">  1       21 0.83575798E-01 0.21756720E+03</pdfrwt>
<pdfrwt beam="2">  1       21 0.42437872E-01 0.21756720E+03</pdfrwt>
<totfact> 0.65337818E+03</totfact>
</mgrwt>
</event>
<event>
 4    1  0.4365842E+000  0.1923451E+03  0.7546771E-02  0.1156363E+00
         21   -1    0    0  503  502  0.00000000000E+00  0.00000000000E+00  0.67425996795E+02  0.67425996795E+02  0.00000000000E+00 0. -1.
         21   -1    0    0  501  503 -0.00000000000E+00 -0.00000000000E+00 -0.76980399167E+03  0.76980399167E+03  0.00000000000E+00 0. -1.
          6    1    1    2  501    0  0.83256938126E+02  0.11657742604E+02 -0.12684041073E+03  0.23040206271E+03  0.17300000000E+03 0. -1.
         -6    1    1    2    0  502 -0.83256938126E+02 -0.11657742604E+02 -0.57553758415E+03  0.60682792575E+03  0.17300000000E+03 0. -1.
<mgrwt>
<rscale>  2 0.19234506E+03</rscale>
<asrwt>0</asrwt>
<pdfrwt beam="1">  1       21 0.10373230E-01 0.19234506E+03</pdfrwt>
<pdfrwt beam="2">  1       21 0.11843138E+00 0.19234506E+03</pdfrwt>
<totfact> 0.41502565E+04</totfact>
</mgrwt>
</event>
<event>
 4    1  0.4365842E+000  0.1908340E+03  0.7546771E-02  0.1157711E+00
         21   -1    0    0  501  502  0.00000000000E+00  0.00000000000E+00  0.48363309994E+02  0.48363309994E+02  0.00000000000E+00 0.  1.
         21   -1    0    0  502  503 -0.00000000000E+00 -0.00000000000E+00 -0.11830605582E+04  0.11830605582E+04  0.00000000000E+00 0.  1.
          6    1    1    2  501    0 -0.61677021707E+02  0.51812917714E+02 -0.19612273712E+03  0.27364532056E+03  0.17300000000E+03 0.  1.
         -6    1    1    2    0  503  0.61677021707E+02 -0.51812917714E+02 -0.93857451107E+03  0.95777854762E+03  0.17300000000E+03 0.  1.
<mgrwt>
<rscale>  2 0.19083405E+03</rscale>
<asrwt>0</asrwt>
<pdfrwt beam="1">  1       21 0.74405093E-02 0.19083405E+03</pdfrwt>
<pdfrwt beam="2">  1       21 0.18200932E+00 0.19083405E+03</pdfrwt>
<totfact> 0.24032193E+04</totfact>
</mgrwt>
</event>
<event>
 4    1  0.4365842E+000  0.1733572E+03  0.7546771E-02  0.1174391E+00
         21   -1    0    0  501  502  0.00000000000E+00  0.00000000000E+00  0.48022750684E+02  0.48022750684E+02  0.00000000000E+00 0. -1.
         21   -1    0    0  502  503 -0.00000000000E+00 -0.00000000000E+00 -0.62742918081E+03  0.62742918081E+03  0.00000000000E+00 0. -1.
          6    1    1    2  501    0 -0.93782404609E+01 -0.59795721465E+01 -0.30690503171E+03  0.35248177991E+03  0.17300000000E+03 0.  1.
         -6    1    1    2    0  503  0.93782404609E+01  0.59795721465E+01 -0.27250139841E+03  0.32297015159E+03  0.17300000000E+03 0.  1.
<mgrwt>
<rscale>  2 0.17335717E+03</rscale>
<asrwt>0</asrwt>
<pdfrwt beam="1">  1       21 0.73881162E-02 0.17335717E+03</pdfrwt>
<pdfrwt beam="2">  1       21 0.96527557E-01 0.17335717E+03</pdfrwt>
<totfact> 0.12386868E+05</totfact>
</mgrwt>
</event>
<event>
 4    1  0.4365842E+000  0.2061513E+03  0.7546771E-02  0.1144651E+00
         21   -1    0    0  503  502  0.00000000000E+00  0.00000000000E+00  0.71819767712E+03  0.71819767712E+03  0.00000000000E+00 0.  1.
         21   -1    0    0  501  503 -0.00000000000E+00 -0.00000000000E+00 -0.72058871818E+02  0.72058871818E+02  0.00000000000E+00 0.  1.
          6    1    1    2  501    0  0.78442945958E+02 -0.80100206908E+02  0.15598294765E+03  0.25851309227E+03  0.17300000000E+03 0.  1.
         -6    1    1    2    0  502 -0.78442945958E+02  0.80100206908E+02  0.49015585765E+03  0.53174345667E+03  0.17300000000E+03 0.  1.
<mgrwt>
<rscale>  2 0.20615125E+03</rscale>
<asrwt>0</asrwt>
<pdfrwt beam="1">  1       21 0.11049195E+00 0.20615125E+03</pdfrwt>
<pdfrwt beam="2">  1       21 0.11085981E-01 0.20615125E+03</pdfrwt>
<totfact> 0.43354184E+04</totfact>
</mgrwt>
</event>
<event>
 4    1  0.4365842E+000  0.1954711E+03  0.7546771E-02  0.1153617E+00
         21   -1    0    0  501  502  0.00000000000E+00  0.00000000000E+00  0.62999590085E+03  0.62999590085E+03  0.00000000000E+00 0. -1.
         21   -1    0    0  502  503 -0.00000000000E+00 -0.00000000000E+00 -0.65596135248E+02  0.65596135248E+02  0.00000000000E+00 0. -1.
          6    1    1    2  501    0 -0.72935144859E+02 -0.54409775085E+02  0.37770768445E+03  0.42529055230E+03  0.17300000000E+03 0. -1.
         -6    1    1    2    0  503  0.72935144859E+02  0.54409775085E+02  0.18669208116E+03  0.27030148380E+03  0.17300000000E+03 0. -1.
<mgrwt>
<rscale>  2 0.19547112E+03</rscale>
<asrwt>0</asrwt>
<pdfrwt beam="1">  1       21 0.96922442E-01 0.19547112E+03</pdfrwt>
<pdfrwt beam="2">  1       21 0.10091714E-01 0.19547112E+03</pdfrwt>
<totfact> 0.70477948E+04</totfact>
</mgrwt>
</event>
<event>
 4    1  0.4365842E+000  0.2209661E+03  0.7546771E-02  0.1133165E+00
         21   -1    0    0  503  502  0.00000000000E+00  0.00000000000E+00  0.38786670377E+03  0.38786670377E+03  0.00000000000E+00 0.  1.
         21   -1    0    0  501  503 -0.00000000000E+00 -0.00000000000E+00 -0.29591406002E+03  0.29591406002E+03  0.00000000000E+00 0. -1.
          6    1    1    2  501    0  0.77490036716E+02 -0.11354425015E+03 -0.21318347282E+03  0.30703940401E+03  0.17300000000E+03 0. -1.
         -6    1    1    2    0  502 -0.77490036716E+02  0.11354425015E+03  0.30513611657E+03  0.37674135978E+03  0.17300000000E+03 0.  1.
<mgrwt>
<rscale>  2 0.22096607E+03</rscale>
<asrwt>0</asrwt>
<pdfrwt beam="1">  1       21 0.59671800E-01 0.22096607E+03</pdfrwt>
<pdfrwt beam="2">  1       21 0.45525240E-01 0.22096607E+03</pdfrwt>
<totfact> 0.11912185E+04</totfact>
</mgrwt>
</event>
<event>
 4    1  0.4365842E+000  0.2277063E+03  0.7546771E-02  0.1128265E+00
         21   -1    0    0  501  502  0.00000000000E+00  0.00000000000E+00  0.74266677050E+03  0.74266677050E+03  0.00000000000E+00 0. -1.
         21   -1    0    0  502  503 -0.00000000000E+00 -0.00000000000E+00 -0.73134383939E+02  0.73134383939E+02  0.00000000000E+00 0. -1.
          6    1    1    2  501    0  0.14449435775E+03 -0.32288172904E+02  0.42165144384E+03  0.47920776874E+03  0.17300000000E+03 0. -1.
         -6    1    1    2    0  503 -0.14449435775E+03  0.32288172904E+02  0.24788094273E+03  0.33659338570E+03  0.17300000000E+03 0. -1.
<mgrwt>
<rscale>  2 0.22770627E+03</rscale>
<asrwt>0</asrwt>
<pdfrwt beam="1">  1       21 0.11425642E+00 0.22770627E+03</pdfrwt>
<pdfrwt beam="2">  1       21 0.11251444E-01 0.22770627E+03</pdfrwt>
<totfact> 0.38485437E+04</totfact>
</mgrwt>
</event>
<event>
 4    1  0.4365842E+000  0.2369196E+03  0.7546771E-02  0.1121862E+00
         21   -1    0    0  503  502  0.00000000000E+00  0.00000000000E+00  0.10851735097E+04  0.10851735097E+04  0.00000000000E+00 0.  1.
         21   -1    0    0  501  503 -0.00000000000E+00 -0.00000000000E+00 -0.12858665090E+03  0.12858665090E+03  0.00000000000E+00 0.  1.
          6    1    1    2  501    0 -0.12797391036E+02  0.16136327473E+03  0.90922815733E+01  0.23709396710E+03  0.17300000000E+03 0.  1.
         -6    1    1    2    0  502  0.12797391036E+02 -0.16136327473E+03  0.94749457719E+03  0.97666619346E+03  0.17300000000E+03 0.  1.
<mgrwt>
<rscale>  2 0.23691956E+03</rscale>
<asrwt>0</asrwt>
<pdfrwt beam="1">  1       21 0.16694977E+00 0.23691956E+03</pdfrwt>
<pdfrwt beam="2">  1       21 0.19782562E-01 0.23691956E+03</pdfrwt>
<totfact> 0.50988568E+03</totfact>
</mgrwt>
</event>
<event>
 4    1  0.4365842E+000  0.1922813E+03  0.7546771E-02  0.1156420E+00
         21   -1    0    0  501  502  0.00000000000E+00  0.00000000000E+00  0.16710798554E+03  0.16710798554E+03  0.00000000000E+00 0. -1.
         21   -1    0    0  502  503 -0.00000000000E+00 -0.00000000000E+00 -0.27064725599E+03  0.27064725599E+03  0.00000000000E+00 0. -1.
          6    1    1    2  501    0 -0.76011420928E+02 -0.35571797972E+02  0.41741967567E+02  0.19675995725E+03  0.17300000000E+03 0. -1.
         -6    1    1    2    0  503  0.76011420928E+02  0.35571797972E+02 -0.14528123802E+03  0.24099528428E+03  0.17300000000E+03 0. -1.
<mgrwt>
<rscale>  2 0.19228128E+03</rscale>
<asrwt>0</asrwt>
<pdfrwt beam="1">  1       21 0.25708921E-01 0.19228128E+03</pdfrwt>
<pdfrwt beam="2">  1       21 0.41638039E-01 0.19228128E+03</pdfrwt>
<totfact> 0.79749350E+04</totfact>
</mgrwt>
</event>
<event>
 4    1  0.4365842E+000  0.1897413E+03  0.7546771E-02  0.1158695E+00
         21   -1    0    0  501  502  0.00000000000E+00  0.00000000000E+00  0.10755792258E+03  0.10755792258E+03  0.00000000000E+00 0. -1.
         21   -1    0    0  502  503 -0.00000000000E+00 -0.00000000000E+00 -0.35967730111E+03  0.35967730111E+03  0.00000000000E+00 0.  1.
          6    1    1    2  501    0  0.36370066721E+02  0.68920028869E+02 -0.18759873578E+03  0.26682398281E+03  0.17300000000E+03 0.  1.
         -6    1    1    2    0  503 -0.36370066721E+02 -0.68920028869E+02 -0.64520642740E+02  0.20041124088E+03  0.17300000000E+03 0. -1.
<mgrwt>
<rscale>  2 0.18974128E+03</rscale>
<asrwt>0</asrwt>
<pdfrwt beam="1">  1       21 0.16547373E-01 0.18974128E+03</pdfrwt>
<pdfrwt beam="2">  1       21 0.55334969E-01 0.18974128E+03</pdfrwt>
<totfact> 0.10106430E+05</totfact>
</mgrwt>
</event>
<event>
 4    1  0.4365842E+000  0.1966176E+03  0.7546771E-02  0.1152625E+00
         21   -1    0    0  501  502  0.00000000000E+00  0.00000000000E+00  0.53042502663E+03  0.53042502663E+03  0.00000000000E+00 0.  1.
         21   -1    0    0  502  503 -0.00000000000E+00 -0.00000000000E+00 -0.24338652427E+03  0.24338652427E+03  0.00000000000E+00 0.  1.
          6    1    1    2  501    0 -0.80109006239E+02 -0.48083400176E+02  0.46735503098E+03  0.50702977352E+03  0.17300000000E+03 0.  1.
         -6    1    1    2    0  503  0.80109006239E+02  0.48083400176E+02 -0.18031652862E+03  0.26678177739E+03  0.17300000000E+03 0.  1.
<mgrwt>
<rscale>  2 0.19661756E+03</rscale>
<asrwt>0</asrwt>
<pdfrwt beam="1">  1       21 0.81603850E-01 0.19661756E+03</pdfrwt>
<pdfrwt beam="2">  1       21 0.37444081E-01 0.19661756E+03</pdfrwt>
<totfact> 0.90196090E+03</totfact>
</mgrwt>
</event>
<event>
 4    1  0.4365842E+000  0.1900076E+03  0.7546771E-02  0.1158454E+00
         21   -1    0    0  501  502  0.00000000000E+00  0.00000000000E+00  0.50541235640E+03  0.50541235640E+03  0.00000000000E+00 0.  1.
         21   -1    0    0  502  503 -0.00000000000E+00 -0.00000000000E+00 -0.10887722188E+03  0.10887722188E+03  0.00000000000E+00 0.  1.
          6    1    1    2  501    0 -0.76319236681E+02  0.18688763710E+02  0.37839075482E+03  0.42341759424E+03  0.17300000000E+03 0.  1.
         -6    1    1    2    0  503  0.76319236681E+02 -0.18688763710E+02  0.18144379694E+02  0.19087198404E+03  0.17300000000E+03 0.  1.
<mgrwt>
<rscale>  2 0.19000762E+03</rscale>
<asrwt>0</asrwt>
<pdfrwt beam="1">  1       21 0.77755746E-01 0.19000762E+03</pdfrwt>
<pdfrwt beam="2">  1       21 0.16750342E-01 0.19000762E+03</pdfrwt>
<totfact> 0.47072276E+04</totfact>
</mgrwt>
</event>
<event>
 4    1  0.4365842E+000  0.2201329E+03  0.7546771E-02  0.1133784E+00
         21   -1    0    0  503  502  0.00000000000E+00  0.00000000000E+00  0.11383565017E+03  0.11383565017E+03  0.00000000000E+00 0. -1.
         21   -1    0    0  501  503 -0.00000000000E+00 -0.00000000000E+00 -0.44870766259E+03  0.44870766259E+03  0.00000000000E+00 0. -1.
          6    1    1    2  501    0  0.59428791583E+02 -0.12246511192E+03 -0.23114378892E+03  0.31919576448E+03  0.17300000000E+03 0. -1.
         -6    1    1    2    0  502 -0.59428791583E+02  0.12246511192E+03 -0.10372822349E+03  0.24334754828E+03  0.17300000000E+03 0. -1.
<mgrwt>
<rscale>  2 0.22013288E+03</rscale>
<asrwt>0</asrwt>
<pdfrwt beam="1">  1       21 0.17513177E-01 0.22013288E+03</pdfrwt>
<pdfrwt beam="2">  1       21 0.69031947E-01 0.22013288E+03</pdfrwt>
<totfact> 0.55707051E+04</totfact>
</mgrwt>
</event>
<event>
 4    1  0.4365842E+000  0.2548947E+03  0.7546771E-02  0.1110250E+00
         21   -1    0    0  501  502  0.00000000000E+00  0.00000000000E+00  0.12389986770E+03  0.12389986770E+03  0.00000000000E+00 0. -1.
         21   -1    0    0  502  503 -0.00000000000E+00 -0.00000000000E+00 -0.54447432696E+03  0.54447432696E+03  0.00000000000E+00 0.  1.
          6    1    1    2  501    0  0.15553226899E+03  0.10417298690E+03 -0.27447878963E+03  0.37457963620E+03  0.17300000000E+03 0. -1.
         -6    1    1    2    0  503 -0.15553226899E+03 -0.10417298690E+03 -0.14609566963E+03  0.29379455846E+03  0.17300000000E+03 0.  1.
<mgrwt>
<rscale>  2 0.25489468E+03</rscale>
<asrwt>0</asrwt>
<pdfrwt beam="1">  1       21 0.19061518E-01 0.25489468E+03</pdfrwt>
<pdfrwt beam="2">  1       21 0.83765280E-01 0.25489468E+03</pdfrwt>
<totfact> 0.30312326E+04</totfact>
</mgrwt>
</event>
<event>
 4    1  0.4365842E+000  0.1895527E+03  0.7546771E-02  0.1158865E+00
         21   -1    0    0  503  502  0.00000000000E+00  0.00000000000E+00  0.50411496131E+03  0.50411496131E+03  0.00000000000E+00 0. -1.
         21   -1    0    0  501  503 -0.00000000000E+00 -0.00000000000E+00 -0.18219429323E+03  0.18219429323E+03  0.00000000000E+00 0. -1.
          6    1    1    2  501    0 -0.73803812438E+02 -0.23541995765E+02 -0.10678888812E+03  0.21756400190E+03  0.17300000000E+03 0. -1.
         -6    1    1    2    0  502  0.73803812438E+02  0.23541995765E+02  0.42870955621E+03  0.46874525264E+03  0.17300000000E+03 0. -1.
<mgrwt>
<rscale>  2 0.18955271E+03</rscale>
<asrwt>0</asrwt>
<pdfrwt beam="1">  1       21 0.77556147E-01 0.18955271E+03</pdfrwt>
<pdfrwt beam="2">  1       21 0.28029891E-01 0.18955271E+03</pdfrwt>
<totfact> 0.17967466E+04</totfact>
</mgrwt>
</event>
<event>
 4    1  0.4365842E+000  0.1918710E+03  0.7546771E-02  0.1156785E+00
         21   -1    0    0  503  502  0.00000000000E+00  0.00000000000E+00  0.99593900605E+02  0.99593900605E+02  0.00000000000E+00 0.  1.
         21   -1    0    0  501  503 -0.00000000000E+00 -0.00000000000E+00 -0.47984075621E+03  0.47984075621E+03  0.00000000000E+00 0.  1.
          6    1    1    2  501    0  0.46199591172E+01  0.82850104108E+02 -0.32896081533E+03  0.38082765367E+03  0.17300000000E+03 0.  1.
         -6    1    1    2    0  502 -0.46199591172E+01 -0.82850104108E+02 -0.51286040273E+02  0.19860700315E+03  0.17300000000E+03 0.  1.
<mgrwt>
<rscale>  2 0.19187101E+03</rscale>
<asrwt>0</asrwt>
<pdfrwt beam="1">  1       21 0.15322138E-01 0.19187101E+03</pdfrwt>
<pdfrwt beam="2">  1       21 0.73821656E-01 0.19187101E+03</pdfrwt>
<totfact> 0.62181978E+04</totfact>
</mgrwt>
</event>
<event>
 4    1  0.4365842E+000  0.2024338E+03  0.7546771E-02  0.1147702E+00
         21   -1    0    0  501  502  0.00000000000E+00  0.00000000000E+00  0.83451632230E+02  0.83451632230E+02  0.00000000000E+00 0. -1.
         21   -1    0    0  502  503 -0.00000000000E+00 -0.00000000000E+00 -0.11362664658E+04  0.11362664658E+04  0.00000000000E+00 0. -1.
          6    1    1    2  501    0 -0.99014752369E+02  0.35305945725E+02 -0.66849709878E+02  0.21318610344E+03  0.17300000000E+03 0. -1.
         -6    1    1    2    0  503  0.99014752369E+02 -0.35305945725E+02 -0.98596512371E+03  0.10065319946E+04  0.17300000000E+03 0. -1.
<mgrwt>
<rscale>  2 0.20243377E+03</rscale>
<asrwt>0</asrwt>
<pdfrwt beam="1">  1       21 0.12838713E-01 0.20243377E+03</pdfrwt>
<pdfrwt beam="2">  1       21 0.17481022E+00 0.20243377E+03</pdfrwt>
<totfact> 0.10189185E+04</totfact>
</mgrwt>
</event>
<event>
 4    1  0.4365842E+000  0.1800312E+03  0.7546771E-02  0.1167773E+00
         21   -1    0    0  503  502  0.00000000000E+00  0.00000000000E+00  0.86956874690E+02  0.86956874690E+02  0.00000000000E+00 0.  1.
         21   -1    0    0  501  503 -0.00000000000E+00 -0.00000000000E+00 -0.42641009457E+03  0.42641009457E+03  0.00000000000E+00 0.  1.
          6    1    1    2  501    0  0.17235738513E+02 -0.46745907709E+02 -0.26080166561E+03  0.31690496897E+03  0.17300000000E+03 0.  1.
         -6    1    1    2    0  502 -0.17235738513E+02  0.46745907709E+02 -0.78651554265E+02  0.19646200029E+03  0.17300000000E+03 0.  1.
<mgrwt>
<rscale>  2 0.18003125E+03</rscale>
<asrwt>0</asrwt>
<pdfrwt beam="1">  1       21 0.13377981E-01 0.18003125E+03</pdfrwt>
<pdfrwt beam="2">  1       21 0.65601552E-01 0.18003125E+03</pdfrwt>
<totfact> 0.10361433E+05</totfact>
</mgrwt>
</event>
<event>
 4    1  0.4365842E+000  0.2504177E+03  0.7546771E-02  0.1113041E+00
         21   -1    0    0  503  502  0.00000000000E+00  0.00000000000E+00  0.28416611470E+03  0.28416611470E+03  0.00000000000E+00 0. -1.
         21   -1    0    0  501  503 -0.00000000000E+00 -0.00000000000E+00 -0.35933671042E+03  0.35933671042E+03  0.00000000000E+00 0.  1.
          6    1    1    2  501    0 -0.55739705690E+00  0.18105175436E+03 -0.23745369808E+03  0.34509898171E+03  0.17300000000E+03 0.  1.
         -6    1    1    2    0  502  0.55739705690E+00 -0.18105175436E+03  0.16228310236E+03  0.29840384341E+03  0.17300000000E+03 0. -1.
<mgrwt>
<rscale>  2 0.25041775E+03</rscale>
<asrwt>0</asrwt>
<pdfrwt beam="1">  1       21 0.43717864E-01 0.25041775E+03</pdfrwt>
<pdfrwt beam="2">  1       21 0.55282570E-01 0.25041775E+03</pdfrwt>
<totfact> 0.15005452E+04</totfact>
</mgrwt>
</event>
<event>
 4    1  0.4365842E+000  0.1841720E+03  0.7546771E-02  0.1163825E+00
         21   -1    0    0  503  502  0.00000000000E+00  0.00000000000E+00  0.95127520663E+02  0.95127520663E+02  0.00000000000E+00 0. -1.
         21   -1    0    0  501  503 -0.00000000000E+00 -0.00000000000E+00 -0.87165658632E+03  0.87165658632E+03  0.00000000000E+00 0. -1.
          6    1    1    2  501    0 -0.36194595126E+02 -0.51771528033E+02 -0.75985807736E+03  0.78185909061E+03  0.17300000000E+03 0. -1.
         -6    1    1    2    0  502  0.36194595126E+02  0.51771528033E+02 -0.16670988296E+02  0.18492501638E+03  0.17300000000E+03 0. -1.
<mgrwt>
<rscale>  2 0.18417204E+03</rscale>
<asrwt>0</asrwt>
<pdfrwt beam="1">  1       21 0.14635003E-01 0.18417204E+03</pdfrwt>
<pdfrwt beam="2">  1       21 0.13410101E+00 0.18417204E+03</pdfrwt>
<totfact> 0.16486812E+04</totfact>
</mgrwt>
</event>
<event>
 4    1  0.4365842E+000  0.1744308E+03  0.7546771E-02  0.1173304E+00
         21   -1    0    0  503  502  0.00000000000E+00  0.00000000000E+00  0.14786137021E+04  0.14786137021E+04  0.00000000000E+00 0. -1.
         21   -1    0    0  501  503 -0.00000000000E+00 -0.00000000000E+00 -0.22504664233E+02  0.22504664233E+02  0.00000000000E+00 0. -1.
          6    1    1    2  501    0 -0.15279613769E+02  0.16237403991E+02  0.50841417266E+03  0.53750450310E+03  0.17300000000E+03 0. -1.
         -6    1    1    2    0  502  0.15279613769E+02 -0.16237403991E+02  0.94769486521E+03  0.96361386324E+03  0.17300000000E+03 0. -1.
<mgrwt>
<rscale>  2 0.17443085E+03</rscale>
<asrwt>0</asrwt>
<pdfrwt beam="1">  1       21 0.22747896E+00 0.17443085E+03</pdfrwt>
<pdfrwt beam="2">  1       21 0.34622572E-02 0.17443085E+03</pdfrwt>
<totfact> 0.45793712E+04</totfact>
</mgrwt>
</event>
<event>
 4    1  0.4365842E+000  0.1739261E+03  0.7546771E-02  0.1173814E+00
         21   -1    0    0  501  502  0.00000000000E+00  0.00000000000E+00  0.12429374000E+04  0.12429374000E+04  0.00000000000E+00 0. -1.
         21   -1    0    0  502  503 -0.00000000000E+00 -0.00000000000E+00 -0.67400409688E+02  0.67400409688E+02  0.00000000000E+00 0. -1.
          6    1    1    2  501    0 -0.17781815125E+02  0.22539191065E+01  0.11114563978E+04  0.11249824876E+04  0.17300000000E+03 0. -1.
         -6    1    1    2    0  503  0.17781815125E+02 -0.22539191065E+01  0.64080592492E+02  0.18535532211E+03  0.17300000000E+03 0. -1.
<mgrwt>
<rscale>  2 0.17392606E+03</rscale>
<asrwt>0</asrwt>
<pdfrwt beam="1">  1       21 0.19122112E+00 0.17392606E+03</pdfrwt>
<pdfrwt beam="2">  1       21 0.10369295E-01 0.17392606E+03</pdfrwt>
<totfact> 0.11835223E+04</totfact>
</mgrwt>
</event>
<event>
 4    1  0.4365842E+000  0.1781781E+03  0.7546771E-02  0.1169578E+00
         21   -1    0    0  501  502  0.00000000000E+00  0.00000000000E+00  0.22125182043E+03  0.22125182043E+03  0.00000000000E+00 0.  1.
         21   -1    0    0  502  503 -0.00000000000E+00 -0.00000000000E+00 -0.15722852434E+03  0.15722852434E+03  0.00000000000E+00 0.  1.
          6    1    1    2  501    0 -0.86812872434E+01 -0.41750171881E+02  0.87950871305E+02  0.19870278650E+03  0.17300000000E+03 0. -1.
         -6    1    1    2    0  503  0.86812872434E+01  0.41750171881E+02 -0.23927575214E+02  0.17977755827E+03  0.17300000000E+03 0. -1.
<mgrwt>
<rscale>  2 0.17817812E+03</rscale>
<asrwt>0</asrwt>
<pdfrwt beam="1">  1       21 0.34038742E-01 0.17817812E+03</pdfrwt>
<pdfrwt beam="2">  1       21 0.24189004E-01 0.17817812E+03</pdfrwt>
<totfact> 0.13478346E+05</totfact>
</mgrwt>
</event>
<event>
 4    1  0.4365842E+000  0.2467187E+03  0.7546771E-02  0.1115396E+00
         21   -1    0    0  503  502  0.00000000000E+00  0.00000000000E+00  0.17081464744E+03  0.17081464744E+03  0.00000000000E+00 0.  1.
         21   -1    0    0  501  503 -0.00000000000E+00 -0.00000000000E+00 -0.39472318332E+03  0.39472318332E+03  0.00000000000E+00 0.  1.
          6    1    1    2  501    0  0.66340696535E+02  0.16291110624E+03 -0.23790780097E+02  0.24786310288E+03  0.17300000000E+03 0.  1.
         -6    1    1    2    0  502 -0.66340696535E+02 -0.16291110624E+03 -0.20011775578E+03  0.31767472788E+03  0.17300000000E+03 0.  1.
<mgrwt>
<rscale>  2 0.24671870E+03</rscale>
<asrwt>0</asrwt>
<pdfrwt beam="1">  1       21 0.26279177E-01 0.24671870E+03</pdfrwt>
<pdfrwt beam="2">  1       21 0.60726643E-01 0.24671870E+03</pdfrwt>
<totfact> 0.33847759E+04</totfact>
</mgrwt>
</event>
<event>
 4    1  0.4365842E+000  0.2187656E+03  0.7546771E-02  0.1134807E+00
         21   -1    0    0  503  502  0.00000000000E+00  0.00000000000E+00  0.25903955104E+03  0.25903955104E+03  0.00000000000E+00 0.  1.
         21   -1    0    0  501  503 -0.00000000000E+00 -0.00000000000E+00 -0.19611384851E+03  0.19611384851E+03  0.00000000000E+00 0. -1.
          6    1    1    2  501    0 -0.12405324978E+03  0.50400236520E+02 -0.23311183838E+02  0.22000409976E+03  0.17300000000E+03 0. -1.
         -6    1    1    2    0  502  0.12405324978E+03 -0.50400236520E+02  0.86236886361E+02  0.23514929979E+03  0.17300000000E+03 0.  1.
<mgrwt>
<rscale>  2 0.21876561E+03</rscale>
<asrwt>0</asrwt>
<pdfrwt beam="1">  1       21 0.39852239E-01 0.21876561E+03</pdfrwt>
<pdfrwt beam="2">  1       21 0.30171361E-01 0.21876561E+03</pdfrwt>
<totfact> 0.63213842E+04</totfact>
</mgrwt>
</event>
<event>
 4    1  0.4365842E+000  0.1871890E+03  0.7546771E-02  0.1161021E+00
         21   -1    0    0  501  502  0.00000000000E+00  0.00000000000E+00  0.12264032135E+04  0.12264032135E+04  0.00000000000E+00 0.  1.
         21   -1    0    0  502  503 -0.00000000000E+00 -0.00000000000E+00 -0.45962061795E+02  0.45962061795E+02  0.00000000000E+00 0.  1.
          6    1    1    2  501    0  0.13886155882E+02  0.70127801541E+02  0.98155081056E+03  0.99924057543E+03  0.17300000000E+03 0.  1.
         -6    1    1    2    0  503 -0.13886155882E+02 -0.70127801541E+02  0.19889034114E+03  0.27312469986E+03  0.17300000000E+03 0.  1.
<mgrwt>
<rscale>  2 0.18718903E+03</rscale>
<asrwt>0</asrwt>
<pdfrwt beam="1">  1       21 0.18867739E+00 0.18718903E+03</pdfrwt>
<pdfrwt beam="2">  1       21 0.70710874E-02 0.18718903E+03</pdfrwt>
<totfact> 0.23748470E+04</totfact>
</mgrwt>
</event>
<event>
 4    1  0.4365842E+000  0.2231528E+03  0.7546771E-02  0.1131554E+00
         21   -1    0    0  503  502  0.00000000000E+00  0.00000000000E+00  0.15238955173E+03  0.15238955173E+03  0.00000000000E+00 0.  1.
         21   -1    0    0  501  503 -0.00000000000E+00 -0.00000000000E+00 -0.88572594829E+03  0.88572594829E+03  0.00000000000E+00 0. -1.
          6    1    1    2  501    0 -0.13783544968E+03  0.29488507724E+02 -0.77900549694E+03  0.81033742820E+03  0.17300000000E+03 0. -1.
         -6    1    1    2    0  502  0.13783544968E+03 -0.29488507724E+02  0.45669100383E+02  0.22777807183E+03  0.17300000000E+03 0.  1.
<mgrwt>
<rscale>  2 0.22315282E+03</rscale>
<asrwt>0</asrwt>
<pdfrwt beam="1">  1       21 0.23444546E-01 0.22315282E+03</pdfrwt>
<pdfrwt beam="2">  1       21 0.13626553E+00 0.22315282E+03</pdfrwt>
<totfact> 0.64154126E+03</totfact>
</mgrwt>
</event>
<event>
 4    1  0.4365842E+000  0.4163467E+03  0.7546771E-02  0.1038262E+00
         21   -1    0    0  503  502  0.00000000000E+00  0.00000000000E+00  0.66589434457E+03  0.66589434457E+03  0.00000000000E+00 0.  1.
         21   -1    0    0  501  503 -0.00000000000E+00 -0.00000000000E+00 -0.48524870187E+03  0.48524870187E+03  0.00000000000E+00 0. -1.
          6    1    1    2  501    0 -0.35729585147E+03 -0.12551989361E+03 -0.30154631832E+03  0.51407660057E+03  0.17300000000E+03 0. -1.
         -6    1    1    2    0  502  0.35729585147E+03  0.12551989361E+03  0.48219196102E+03  0.63706644586E+03  0.17300000000E+03 0.  1.
<mgrwt>
<rscale>  2 0.41634669E+03</rscale>
<asrwt>0</asrwt>
<pdfrwt beam="1">  1       21 0.10244528E+00 0.41634669E+03</pdfrwt>
<pdfrwt beam="2">  1       21 0.74653646E-01 0.41634669E+03</pdfrwt>
<totfact> 0.10748740E+03</totfact>
</mgrwt>
</event>
<event>
 4    1  0.4365842E+000  0.2532509E+03  0.7546771E-02  0.1111267E+00
         21   -1    0    0  501  502  0.00000000000E+00  0.00000000000E+00  0.99370565484E+02  0.99370565484E+02  0.00000000000E+00 0.  1.
         21   -1    0    0  502  503 -0.00000000000E+00 -0.00000000000E+00 -0.84285294251E+03  0.84285294251E+03  0.00000000000E+00 0. -1.
          6    1    1    2  501    0  0.51594064140E+02  0.17760932283E+03 -0.14373067541E+03  0.29119499663E+03  0.17300000000E+03 0.  1.
         -6    1    1    2    0  503 -0.51594064140E+02 -0.17760932283E+03 -0.59975170161E+03  0.65102851136E+03  0.17300000000E+03 0. -1.
<mgrwt>
<rscale>  2 0.25325090E+03</rscale>
<asrwt>0</asrwt>
<pdfrwt beam="1">  1       21 0.15287779E-01 0.25325090E+03</pdfrwt>
<pdfrwt beam="2">  1       21 0.12966968E+00 0.25325090E+03</pdfrwt>
<totfact> 0.15888458E+04</totfact>
</mgrwt>
</event>
<event>
 4    1  0.4365842E+000  0.1775693E+03  0.7546771E-02  0.1170176E+00
         21   -1    0    0  503  502  0.00000000000E+00  0.00000000000E+00  0.19093037609E+04  0.19093037609E+04  0.00000000000E+00 0.  1.
         21   -1    0    0  501  503 -0.00000000000E+00 -0.00000000000E+00 -0.84673092364E+02  0.84673092364E+02  0.00000000000E+00 0.  1.
          6    1    1    2  501    0  0.89209920475E+01  0.39016279967E+02  0.17819577678E+02  0.17846117659E+03  0.17300000000E+03 0.  1.
         -6    1    1    2    0  502 -0.89209920475E+01 -0.39016279967E+02  0.18068110909E+04  0.18155156767E+04  0.17300000000E+03 0.  1.
<mgrwt>
<rscale>  2 0.17756929E+03</rscale>
<asrwt>0</asrwt>
<pdfrwt beam="1">  1       21 0.29373901E+00 0.17756929E+03</pdfrwt>
<pdfrwt beam="2">  1       21 0.13026631E-01 0.17756929E+03</pdfrwt>
<totfact> 0.19158339E+03</totfact>
</mgrwt>
</event>
<event>
 4    1  0.4365842E+000  0.1930905E+03  0.7546771E-02  0.1155703E+00
         21   -1    0    0  503  502  0.00000000000E+00  0.00000000000E+00  0.18824491913E+03  0.18824491913E+03  0.00000000000E+00 0. -1.
         21   -1    0    0  501  503 -0.00000000000E+00 -0.00000000000E+00 -0.24416992497E+03  0.24416992497E+03  0.00000000000E+00 0. -1.
          6    1    1    2  501    0 -0.35500301070E+02  0.78068365620E+02 -0.12191707280E+03  0.22835873911E+03  0.17300000000E+03 0. -1.
         -6    1    1    2    0  502  0.35500301070E+02 -0.78068365620E+02  0.65992066959E+02  0.20405610500E+03  0.17300000000E+03 0. -1.
<mgrwt>
<rscale>  2 0.19309050E+03</rscale>
<asrwt>0</asrwt>
<pdfrwt beam="1">  1       21 0.28960757E-01 0.19309050E+03</pdfrwt>
<pdfrwt beam="2">  1       21 0.37564604E-01 0.19309050E+03</pdfrwt>
<totfact> 0.77992500E+04</totfact>
</mgrwt>
</event>
<event>
 4    1  0.4365842E+000  0.2089159E+03  0.7546771E-02  0.1142427E+00
         21   -1    0    0  501  502  0.00000000000E+00  0.00000000000E+00  0.26266889665E+03  0.26266889665E+03  0.00000000000E+00 0.  1.
         21   -1    0    0  502  503 -0.00000000000E+00 -0.00000000000E+00 -0.82802055506E+03  0.82802055506E+03  0.00000000000E+00 0. -1.
          6    1    1    2  501    0 -0.40467379603E+02  0.10990554575E+03  0.20488952909E+03  0.29261844940E+03  0.17300000000E+03 0.  1.
         -6    1    1    2    0  503  0.40467379603E+02 -0.10990554575E+03 -0.77024118750E+03  0.79807100231E+03  0.17300000000E+03 0. -1.
<mgrwt>
<rscale>  2 0.20891586E+03</rscale>
<asrwt>0</asrwt>
<pdfrwt beam="1">  1       21 0.40410600E-01 0.20891586E+03</pdfrwt>
<pdfrwt beam="2">  1       21 0.12738778E+00 0.20891586E+03</pdfrwt>
<totfact> 0.26460594E+03</totfact>
</mgrwt>
</event>
<event>
 4    1  0.4365842E+000  0.2065829E+03  0.7546771E-02  0.1144301E+00
         21   -1    0    0  501  502  0.00000000000E+00  0.00000000000E+00  0.23079470845E+03  0.23079470845E+03  0.00000000000E+00 0.  1.
         21   -1    0    0  502  503 -0.00000000000E+00 -0.00000000000E+00 -0.20813805027E+03  0.20813805027E+03  0.00000000000E+00 0.  1.
          6    1    1    2  501    0  0.11225303000E+03  0.12114113629E+02  0.84642632791E+02  0.22325068820E+03  0.17300000000E+03 0.  1.
         -6    1    1    2    0  503 -0.11225303000E+03 -0.12114113629E+02 -0.61985974609E+02  0.21568207052E+03  0.17300000000E+03 0.  1.
<mgrwt>
<rscale>  2 0.20658290E+03</rscale>
<asrwt>0</asrwt>
<pdfrwt beam="1">  1       21 0.35506878E-01 0.20658290E+03</pdfrwt>
<pdfrwt beam="2">  1       21 0.32021239E-01 0.20658290E+03</pdfrwt>
<totfact> 0.71296101E+04</totfact>
</mgrwt>
</event>
<event>
 4    1  0.4365842E+000  0.1770268E+03  0.7546771E-02  0.1170712E+00
         21   -1    0    0  503  502  0.00000000000E+00  0.00000000000E+00  0.45938584464E+03  0.45938584464E+03  0.00000000000E+00 0.  1.
         21   -1    0    0  501  503 -0.00000000000E+00 -0.00000000000E+00 -0.71624568244E+02  0.71624568244E+02  0.00000000000E+00 0.  1.
          6    1    1    2  501    0  0.11945839924E+02 -0.35591683991E+02  0.13597932191E+03  0.22322376004E+03  0.17300000000E+03 0. -1.
         -6    1    1    2    0  502 -0.11945839924E+02  0.35591683991E+02  0.25178195449E+03  0.30778665284E+03  0.17300000000E+03 0. -1.
<mgrwt>
<rscale>  2 0.17702675E+03</rscale>
<asrwt>0</asrwt>
<pdfrwt beam="1">  1       21 0.70674743E-01 0.17702675E+03</pdfrwt>
<pdfrwt beam="2">  1       21 0.11019165E-01 0.17702675E+03</pdfrwt>
<totfact> 0.12464465E+05</totfact>
</mgrwt>
</event>
<event>
 4    1  0.4365842E+000  0.1792380E+03  0.7546771E-02  0.1168543E+00
         21   -1    0    0  503  502  0.00000000000E+00  0.00000000000E+00  0.29090736555E+03  0.29090736555E+03  0.00000000000E+00 0. -1.
         21   -1    0    0  501  503 -0.00000000000E+00 -0.00000000000E+00 -0.19708154322E+03  0.19708154322E+03  0.00000000000E+00 0. -1.
          6    1    1    2  501    0 -0.26165214279E+02 -0.38892931229E+02 -0.11487022763E+03  0.21288834570E+03  0.17300000000E+03 0. -1.
         -6    1    1    2    0  502  0.26165214279E+02  0.38892931229E+02  0.20869604996E+03  0.27510056308E+03  0.17300000000E+03 0. -1.
<mgrwt>
<rscale>  2 0.17923805E+03</rscale>
<asrwt>0</asrwt>
<pdfrwt beam="1">  1       21 0.44754979E-01 0.17923805E+03</pdfrwt>
<pdfrwt beam="2">  1       21 0.30320237E-01 0.17923805E+03</pdfrwt>
<totfact> 0.50335041E+04</totfact>
</mgrwt>
</event>
<event>
 4    1  0.4365842E+000  0.2105949E+03  0.7546771E-02  0.1141096E+00
         21   -1    0    0  503  502  0.00000000000E+00  0.00000000000E+00  0.57959072069E+03  0.57959072069E+03  0.00000000000E+00 0.  1.
         21   -1    0    0  501  503 -0.00000000000E+00 -0.00000000000E+00 -0.10809130564E+03  0.10809130564E+03  0.00000000000E+00 0.  1.
          6    1    1    2  501    0 -0.11846617372E+03  0.19671756064E+02  0.49922459961E+02  0.21643119995E+03  0.17300000000E+03 0.  1.
         -6    1    1    2    0  502  0.11846617372E+03 -0.19671756064E+02  0.42157695508E+03  0.47125082638E+03  0.17300000000E+03 0.  1.
<mgrwt>
<rscale>  2 0.21059490E+03</rscale>
<asrwt>0</asrwt>
<pdfrwt beam="1">  1       21 0.89167801E-01 0.21059490E+03</pdfrwt>
<pdfrwt beam="2">  1       21 0.16629432E-01 0.21059490E+03</pdfrwt>
<totfact> 0.34533183E+04</totfact>
</mgrwt>
</event>
<event>
 4    1  0.4365842E+000  0.2126639E+03  0.7546771E-02  0.1139474E+00
         21   -1    0    0  503  502  0.00000000000E+00  0.00000000000E+00  0.12362693334E+03  0.12362693334E+03  0.00000000000E+00 0.  1.
         21   -1    0    0  501  503 -0.00000000000E+00 -0.00000000000E+00 -0.37049596665E+03  0.37049596665E+03  0.00000000000E+00 0. -1.
          6    1    1    2  501    0  0.12297465531E+03  0.13196845705E+02 -0.15117277150E+03  0.26091977585E+03  0.17300000000E+03 0. -1.
         -6    1    1    2    0  502 -0.12297465531E+03 -0.13196845705E+02 -0.95696261813E+02  0.23320312415E+03  0.17300000000E+03 0.  1.
<mgrwt>
<rscale>  2 0.21266387E+03</rscale>
<asrwt>0</asrwt>
<pdfrwt beam="1">  1       21 0.19019528E-01 0.21266387E+03</pdfrwt>
<pdfrwt beam="2">  1       21 0.56999379E-01 0.21266387E+03</pdfrwt>
<totfact> 0.72660390E+04</totfact>
</mgrwt>
</event>
<event>
 4    1  0.4365842E+000  0.1865215E+03  0.7546771E-02  0.1161637E+00
         21   -1    0    0  503  502  0.00000000000E+00  0.00000000000E+00  0.89592760451E+02  0.89592760451E+02  0.00000000000E+00 0.  1.
         21   -1    0    0  501  503 -0.00000000000E+00 -0.00000000000E+00 -0.39396055236E+03  0.39396055236E+03  0.00000000000E+00 0.  1.
          6    1    1    2  501    0  0.52358693711E+02  0.46041836275E+02 -0.18112471747E+03  0.25999316678E+03  0.17300000000E+03 0.  1.
         -6    1    1    2    0  502 -0.52358693711E+02 -0.46041836275E+02 -0.12324307444E+03  0.22356014603E+03  0.17300000000E+03 0.  1.
<mgrwt>
<rscale>  2 0.18652154E+03</rscale>
<asrwt>0</asrwt>
<pdfrwt beam="1">  1       21 0.13783501E-01 0.18652154E+03</pdfrwt>
<pdfrwt beam="2">  1       21 0.60609317E-01 0.18652154E+03</pdfrwt>
<totfact> 0.11622401E+05</totfact>
</mgrwt>
</event>
<event>
 4    1  0.4365842E+000  0.2797654E+03  0.7546771E-02  0.1095817E+00
         21   -1    0    0  501  502  0.00000000000E+00  0.00000000000E+00  0.18359421848E+03  0.18359421848E+03  0.00000000000E+00 0.  1.
         21   -1    0    0  502  503 -0.00000000000E+00 -0.00000000000E+00 -0.43251250643E+03  0.43251250643E+03  0.00000000000E+00 0. -1.
          6    1    1    2  501    0  0.22679381518E+02  0.21869004623E+03 -0.16133891971E+03  0.32295346055E+03  0.17300000000E+03 0.  1.
         -6    1    1    2    0  503 -0.22679381518E+02 -0.21869004623E+03 -0.87579368242E+02  0.29315326436E+03  0.17300000000E+03 0. -1.
<mgrwt>
<rscale>  2 0.27976542E+03</rscale>
<asrwt>0</asrwt>
<pdfrwt beam="1">  1       21 0.28245265E-01 0.27976542E+03</pdfrwt>
<pdfrwt beam="2">  1       21 0.66540384E-01 0.27976542E+03</pdfrwt>
<totfact> 0.23755894E+04</totfact>
</mgrwt>
</event>
<event>
 4    1  0.4365842E+000  0.2188495E+03  0.7546771E-02  0.1134744E+00
         21   -1    0    0  501  502  0.00000000000E+00  0.00000000000E+00  0.11711058340E+03  0.11711058340E+03  0.00000000000E+00 0.  1.
         21   -1    0    0  502  503 -0.00000000000E+00 -0.00000000000E+00 -0.41688816375E+03  0.41688816375E+03  0.00000000000E+00 0.  1.
          6    1    1    2  501    0 -0.12408213107E+03 -0.50692554138E+02 -0.11309960396E+03  0.24634656627E+03  0.17300000000E+03 0.  1.
         -6    1    1    2    0  503  0.12408213107E+03  0.50692554138E+02 -0.18667797639E+03  0.28765218088E+03  0.17300000000E+03 0.  1.
<mgrwt>
<rscale>  2 0.21884952E+03</rscale>
<asrwt>0</asrwt>
<pdfrwt beam="1">  1       21 0.18017013E-01 0.21884952E+03</pdfrwt>
<pdfrwt beam="2">  1       21 0.64136641E-01 0.21884952E+03</pdfrwt>
<totfact> 0.62141373E+04</totfact>
</mgrwt>
</event>
<event>
 4    1  0.4365842E+000  0.2909948E+03  0.7546771E-02  0.1089831E+00
         21   -1    0    0  503  502  0.00000000000E+00  0.00000000000E+00  0.50090548801E+03  0.50090548801E+03  0.00000000000E+00 0. -1.
         21   -1    0    0  501  503 -0.00000000000E+00 -0.00000000000E+00 -0.18938422301E+03  0.18938422301E+03  0.00000000000E+00 0. -1.
          6    1    1    2  501    0  0.67660739675E+02 -0.22398877006E+03  0.42664950196E+02  0.29410583602E+03  0.17300000000E+03 0. -1.
         -6    1    1    2    0  502 -0.67660739675E+02  0.22398877006E+03  0.26885631481E+03  0.39618387501E+03  0.17300000000E+03 0. -1.
<mgrwt>
<rscale>  2 0.29099475E+03</rscale>
<asrwt>0</asrwt>
<pdfrwt beam="1">  1       21 0.77062382E-01 0.29099475E+03</pdfrwt>
<pdfrwt beam="2">  1       21 0.29136035E-01 0.29099475E+03</pdfrwt>
<totfact> 0.16021451E+04</totfact>
</mgrwt>
</event>
<event>
 4    1  0.4365842E+000  0.2918786E+03  0.7546771E-02  0.1089372E+00
         21   -1    0    0  501  502  0.00000000000E+00  0.00000000000E+00  0.14313785198E+03  0.14313785198E+03  0.00000000000E+00 0. -1.
         21   -1    0    0  502  503 -0.00000000000E+00 -0.00000000000E+00 -0.64145725071E+03  0.64145725071E+03  0.00000000000E+00 0.  1.
          6    1    1    2  501    0  0.23406960817E+03  0.21806392855E+02 -0.14379254872E+03  0.32537577861E+03  0.17300000000E+03 0.  1.
         -6    1    1    2    0  503 -0.23406960817E+03 -0.21806392855E+02 -0.35452685001E+03  0.45921932409E+03  0.17300000000E+03 0. -1.
<mgrwt>
<rscale>  2 0.29187857E+03</rscale>
<asrwt>0</asrwt>
<pdfrwt beam="1">  1       21 0.22021208E-01 0.29187857E+03</pdfrwt>
<pdfrwt beam="2">  1       21 0.98685731E-01 0.29187857E+03</pdfrwt>
<totfact> 0.15466496E+04</totfact>
</mgrwt>
</event>
<event>
 4    1  0.4365842E+000  0.1895021E+03  0.7546771E-02  0.1158911E+00
         21   -1    0    0  501  502  0.00000000000E+00  0.00000000000E+00  0.16872221761E+03  0.16872221761E+03  0.00000000000E+00 0. -1.
         21   -1    0    0  502  503 -0.00000000000E+00 -0.00000000000E+00 -0.47973003984E+03  0.47973003984E+03  0.00000000000E+00 0. -1.
          6    1    1    2  501    0  0.26153886888E+02  0.72787433194E+02  0.86328650037E+02  0.20823945843E+03  0.17300000000E+03 0. -1.
         -6    1    1    2    0  503 -0.26153886888E+02 -0.72787433194E+02 -0.39733647226E+03  0.44021279902E+03  0.17300000000E+03 0. -1.
<mgrwt>
<rscale>  2 0.18950207E+03</rscale>
<asrwt>0</asrwt>
<pdfrwt beam="1">  1       21 0.25957265E-01 0.18950207E+03</pdfrwt>
<pdfrwt beam="2">  1       21 0.73804621E-01 0.18950207E+03</pdfrwt>
<totfact> 0.23272003E+04</totfact>
</mgrwt>
</event>
<event>
 4    1  0.4365842E+000  0.1945369E+03  0.7546771E-02  0.1154432E+00
         21   -1    0    0  501  502  0.00000000000E+00  0.00000000000E+00  0.22927701117E+03  0.22927701117E+03  0.00000000000E+00 0.  1.
         21   -1    0    0  502  503 -0.00000000000E+00 -0.00000000000E+00 -0.38625850262E+03  0.38625850262E+03  0.00000000000E+00 0.  1.
          6    1    1    2  501    0  0.35869689246E+02  0.81418533941E+02  0.15441196711E+03  0.24837002207E+03  0.17300000000E+03 0.  1.
         -6    1    1    2    0  503 -0.35869689246E+02 -0.81418533941E+02 -0.31139345856E+03  0.36716549172E+03  0.17300000000E+03 0.  1.
<mgrwt>
<rscale>  2 0.19453692E+03</rscale>
<asrwt>0</asrwt>
<pdfrwt beam="1">  1       21 0.35273387E-01 0.19453692E+03</pdfrwt>
<pdfrwt beam="2">  1       21 0.59424384E-01 0.19453692E+03</pdfrwt>
<totfact> 0.20475954E+04</totfact>
</mgrwt>
</event>
<event>
 4    1  0.4365842E+000  0.1795541E+03  0.7546771E-02  0.1168235E+00
         21   -1    0    0  503  502  0.00000000000E+00  0.00000000000E+00  0.34213059229E+03  0.34213059229E+03  0.00000000000E+00 0.  1.
         21   -1    0    0  501  503 -0.00000000000E+00 -0.00000000000E+00 -0.97550593977E+02  0.97550593977E+02  0.00000000000E+00 0.  1.
          6    1    1    2  501    0 -0.37469889501E+02  0.30111293162E+02  0.81742530269E+02  0.19728538681E+03  0.17300000000E+03 0.  1.
         -6    1    1    2    0  502  0.37469889501E+02 -0.30111293162E+02  0.16283746805E+03  0.24239579946E+03  0.17300000000E+03 0.  1.
<mgrwt>
<rscale>  2 0.17955412E+03</rscale>
<asrwt>0</asrwt>
<pdfrwt beam="1">  1       21 0.52635475E-01 0.17955412E+03</pdfrwt>
<pdfrwt beam="2">  1       21 0.15007784E-01 0.17955412E+03</pdfrwt>
<totfact> 0.13471211E+05</totfact>
</mgrwt>
</event>
<event>
 4    1  0.4365842E+000  0.2285260E+03  0.7546771E-02  0.1127682E+00
         21   -1    0    0  501  502  0.00000000000E+00  0.00000000000E+00  0.90428866674E+03  0.90428866674E+03  0.00000000000E+00 0.  1.
         21   -1    0    0  502  503 -0.00000000000E+00 -0.00000000000E+00 -0.59742848695E+02  0.59742848695E+02  0.00000000000E+00 0.  1.
          6    1    1    2  501    0  0.12444508029E+03 -0.82513955371E+02  0.51027224600E+03  0.55910812539E+03  0.17300000000E+03 0.  1.
         -6    1    1    2    0  503 -0.12444508029E+03  0.82513955371E+02  0.33427357204E+03  0.40492339004E+03  0.17300000000E+03 0.  1.
<mgrwt>
<rscale>  2 0.22852600E+03</rscale>
<asrwt>0</asrwt>
<pdfrwt beam="1">  1       21 0.13912132E+00 0.22852600E+03</pdfrwt>
<pdfrwt beam="2">  1       21 0.91912081E-02 0.22852600E+03</pdfrwt>
<totfact> 0.33544035E+04</totfact>
</mgrwt>
</event>
<event>
 4    1  0.4365842E+000  0.2132786E+03  0.7546771E-02  0.1138996E+00
         21   -1    0    0  501  502  0.00000000000E+00  0.00000000000E+00  0.82325074965E+02  0.82325074965E+02  0.00000000000E+00 0. -1.
         21   -1    0    0  502  503 -0.00000000000E+00 -0.00000000000E+00 -0.10988328680E+04  0.10988328680E+04  0.00000000000E+00 0. -1.
          6    1    1    2  501    0 -0.10074908815E+03  0.73541600546E+02 -0.91839578814E+02  0.23221165778E+03  0.17300000000E+03 0. -1.
         -6    1    1    2    0  503  0.10074908815E+03 -0.73541600546E+02 -0.92466821425E+03  0.94894628521E+03  0.17300000000E+03 0. -1.
<mgrwt>
<rscale>  2 0.21327856E+03</rscale>
<asrwt>0</asrwt>
<pdfrwt beam="1">  1       21 0.12665398E-01 0.21327856E+03</pdfrwt>
<pdfrwt beam="2">  1       21 0.16905119E+00 0.21327856E+03</pdfrwt>
<totfact> 0.11365241E+04</totfact>
</mgrwt>
</event>
<event>
 4    1  0.4365842E+000  0.1775159E+03  0.7546771E-02  0.1170229E+00
         21   -1    0    0  501  502  0.00000000000E+00  0.00000000000E+00  0.10873690737E+03  0.10873690737E+03  0.00000000000E+00 0. -1.
         21   -1    0    0  502  503 -0.00000000000E+00 -0.00000000000E+00 -0.59056899674E+03  0.59056899674E+03  0.00000000000E+00 0. -1.
          6    1    1    2  501    0  0.23125969414E+02 -0.32374063691E+02  0.86117017765E+01  0.17772465183E+03  0.17300000000E+03 0. -1.
         -6    1    1    2    0  503 -0.23125969414E+02  0.32374063691E+02 -0.49044379114E+03  0.52158125228E+03  0.17300000000E+03 0. -1.
<mgrwt>
<rscale>  2 0.17751589E+03</rscale>
<asrwt>0</asrwt>
<pdfrwt beam="1">  1       21 0.16728755E-01 0.17751589E+03</pdfrwt>
<pdfrwt beam="2">  1       21 0.90856768E-01 0.17751589E+03</pdfrwt>
<totfact> 0.33300713E+04</totfact>
</mgrwt>
</event>
<event>
 4    1  0.4365842E+000  0.2512405E+03  0.7546771E-02  0.1112523E+00
         21   -1    0    0  503  502  0.00000000000E+00  0.00000000000E+00  0.38915500785E+02  0.38915500785E+02  0.00000000000E+00 0.  1.
         21   -1    0    0  501  503 -0.00000000000E+00 -0.00000000000E+00 -0.16220348310E+04  0.16220348310E+04  0.00000000000E+00 0. -1.
          6    1    1    2  501    0  0.14322495389E+03  0.11260287461E+03 -0.78921544168E+03  0.82824079118E+03  0.17300000000E+03 0.  1.
         -6    1    1    2    0  502 -0.14322495389E+03 -0.11260287461E+03 -0.79390388855E+03  0.83270954062E+03  0.17300000000E+03 0.  1.
<mgrwt>
<rscale>  2 0.25124051E+03</rscale>
<asrwt>0</asrwt>
<pdfrwt beam="1">  1       21 0.59870006E-02 0.25124051E+03</pdfrwt>
<pdfrwt beam="2">  1       21 0.24954380E+00 0.25124051E+03</pdfrwt>
<totfact> 0.12617101E+04</totfact>
</mgrwt>
</event>
<event>
 4    1  0.4365842E+000  0.1786293E+03  0.7546771E-02  0.1169136E+00
         21   -1    0    0  501  502  0.00000000000E+00  0.00000000000E+00  0.18225939363E+04  0.18225939363E+04  0.00000000000E+00 0.  1.
         21   -1    0    0  502  503 -0.00000000000E+00 -0.00000000000E+00 -0.32007920979E+02  0.32007920979E+02  0.00000000000E+00 0.  1.
          6    1    1    2  501    0  0.44412739837E+02 -0.26341033548E+01  0.15194408466E+04  0.15299048716E+04  0.17300000000E+03 0.  1.
         -6    1    1    2    0  503 -0.44412739837E+02  0.26341033548E+01  0.27114516872E+03  0.32469698563E+03  0.17300000000E+03 0.  1.
<mgrwt>
<rscale>  2 0.17862931E+03</rscale>
<asrwt>0</asrwt>
<pdfrwt beam="1">  1       21 0.28039899E+00 0.17862931E+03</pdfrwt>
<pdfrwt beam="2">  1       21 0.49242970E-02 0.17862931E+03</pdfrwt>
<totfact> 0.12398138E+04</totfact>
</mgrwt>
</event>
<event>
 4    1  0.4365842E+000  0.2148530E+03  0.7546771E-02  0.1137780E+00
         21   -1    0    0  503  502  0.00000000000E+00  0.00000000000E+00  0.19387187724E+03  0.19387187724E+03  0.00000000000E+00 0.  1.
         21   -1    0    0  501  503 -0.00000000000E+00 -0.00000000000E+00 -0.24084855547E+03  0.24084855547E+03  0.00000000000E+00 0.  1.
          6    1    1    2  501    0 -0.11647397705E+03  0.51639490814E+02 -0.46687956600E+02  0.21986720909E+03  0.17300000000E+03 0.  1.
         -6    1    1    2    0  502  0.11647397705E+03 -0.51639490814E+02 -0.28872162937E+00  0.21485322363E+03  0.17300000000E+03 0.  1.
<mgrwt>
<rscale>  2 0.21485303E+03</rscale>
<asrwt>0</asrwt>
<pdfrwt beam="1">  1       21 0.29826443E-01 0.21485303E+03</pdfrwt>
<pdfrwt beam="2">  1       21 0.37053624E-01 0.21485303E+03</pdfrwt>
<totfact> 0.74986662E+04</totfact>
</mgrwt>
</event>
<event>
 4    1  0.4365842E+000  0.1940536E+03  0.7546771E-02  0.1154855E+00
         21   -1    0    0  503  502  0.00000000000E+00  0.00000000000E+00  0.17929856225E+03  0.17929856225E+03  0.00000000000E+00 0.  1.
         21   -1    0    0  501  503 -0.00000000000E+00 -0.00000000000E+00 -0.21002948328E+03  0.21002948328E+03  0.00000000000E+00 0.  1.
          6    1    1    2  501    0 -0.35100701259E+02 -0.80596102484E+02 -0.16461316004E+02  0.19475052218E+03  0.17300000000E+03 0.  1.
         -6    1    1    2    0  502  0.35100701259E+02  0.80596102484E+02 -0.14269605021E+02  0.19457752335E+03  0.17300000000E+03 0.  1.
<mgrwt>
<rscale>  2 0.19405358E+03</rscale>
<asrwt>0</asrwt>
<pdfrwt beam="1">  1       21 0.27584394E-01 0.19405358E+03</pdfrwt>
<pdfrwt beam="2">  1       21 0.32312228E-01 0.19405358E+03</pdfrwt>
<totfact> 0.11550554E+05</totfact>
</mgrwt>
</event>
<event>
 4    1  0.4365842E+000  0.1890970E+03  0.7546771E-02  0.1159278E+00
         21   -1    0    0  501  502  0.00000000000E+00  0.00000000000E+00  0.28434413679E+03  0.28434413679E+03  0.00000000000E+00 0. -1.
         21   -1    0    0  502  503 -0.00000000000E+00 -0.00000000000E+00 -0.13254871268E+03  0.13254871268E+03  0.00000000000E+00 0. -1.
          6    1    1    2  501    0  0.68465317897E+02  0.33781149070E+02  0.28706212140E+02  0.19126346332E+03  0.17300000000E+03 0. -1.
         -6    1    1    2    0  503 -0.68465317897E+02 -0.33781149070E+02  0.12308921198E+03  0.22562938615E+03  0.17300000000E+03 0. -1.
<mgrwt>
<rscale>  2 0.18909697E+03</rscale>
<asrwt>0</asrwt>
<pdfrwt beam="1">  1       21 0.43745252E-01 0.18909697E+03</pdfrwt>
<pdfrwt beam="2">  1       21 0.20392110E-01 0.18909697E+03</pdfrwt>
<totfact> 0.11192348E+05</totfact>
</mgrwt>
</event>
<event>
 4    1  0.4365842E+000  0.2610989E+03  0.7546771E-02  0.1106485E+00
         21   -1    0    0  503  502  0.00000000000E+00  0.00000000000E+00  0.21731573016E+04  0.21731573016E+04  0.00000000000E+00 0. -1.
         21   -1    0    0  501  503 -0.00000000000E+00 -0.00000000000E+00 -0.62189608106E+02  0.62189608106E+02  0.00000000000E+00 0. -1.
          6    1    1    2  501    0 -0.16725393559E+03 -0.10133987980E+03  0.26867851449E+03  0.37464756019E+03  0.17300000000E+03 0. -1.
         -6    1    1    2    0  502  0.16725393559E+03  0.10133987980E+03  0.18422891790E+04  0.18606993495E+04  0.17300000000E+03 0. -1.
<mgrwt>
<rscale>  2 0.26109893E+03</rscale>
<asrwt>0</asrwt>
<pdfrwt beam="1">  1       21 0.33433183E+00 0.26109893E+03</pdfrwt>
<pdfrwt beam="2">  1       21 0.95676337E-02 0.26109893E+03</pdfrwt>
<totfact> 0.17503204E+03</totfact>
</mgrwt>
</event>
<event>
 4    1  0.4365842E+000  0.3549440E+03  0.7546771E-02  0.1060604E+00
         21   -1    0    0  501  502  0.00000000000E+00  0.00000000000E+00  0.16280344020E+04  0.16280344020E+04  0.00000000000E+00 0. -1.
         21   -1    0    0  502  503 -0.00000000000E+00 -0.00000000000E+00 -0.16010306680E+03  0.16010306680E+03  0.00000000000E+00 0.  1.
          6    1    1    2  501    0 -0.30294357662E+03 -0.65432917990E+02  0.13766112642E+04  0.14216342181E+04  0.17300000000E+03 0. -1.
         -6    1    1    2    0  503  0.30294357662E+03  0.65432917990E+02  0.91320070962E+02  0.36650325065E+03  0.17300000000E+03 0.  1.
<mgrwt>
<rscale>  2 0.35494405E+03</rscale>
<asrwt>0</asrwt>
<pdfrwt beam="1">  1       21 0.25046682E+00 0.35494405E+03</pdfrwt>
<pdfrwt beam="2">  1       21 0.24631242E-01 0.35494405E+03</pdfrwt>
<totfact> 0.89009710E+02</totfact>
</mgrwt>
</event>
<event>
 4    1  0.4365842E+000  0.1805524E+03  0.7546771E-02  0.1167269E+00
         21   -1    0    0  501  502  0.00000000000E+00  0.00000000000E+00  0.18685157679E+03  0.18685157679E+03  0.00000000000E+00 0. -1.
         21   -1    0    0  502  503 -0.00000000000E+00 -0.00000000000E+00 -0.18596745317E+04  0.18596745317E+04  0.00000000000E+00 0. -1.
          6    1    1    2  501    0 -0.18144897661E+02 -0.48383276883E+02  0.13767091677E+03  0.22705166839E+03  0.17300000000E+03 0. -1.
         -6    1    1    2    0  503  0.18144897661E+02  0.48383276883E+02 -0.18104938716E+04  0.18194744401E+04  0.17300000000E+03 0. -1.
<mgrwt>
<rscale>  2 0.18055243E+03</rscale>
<asrwt>0</asrwt>
<pdfrwt beam="1">  1       21 0.28746395E-01 0.18055243E+03</pdfrwt>
<pdfrwt beam="2">  1       21 0.28610379E+00 0.18055243E+03</pdfrwt>
<totfact> 0.48366697E+02</totfact>
</mgrwt>
</event>
<event>
 4    1  0.4365842E+000  0.1807653E+03  0.7546771E-02  0.1167064E+00
         21   -1    0    0  501  502  0.00000000000E+00  0.00000000000E+00  0.14481136379E+03  0.14481136379E+03  0.00000000000E+00 0. -1.
         21   -1    0    0  502  503 -0.00000000000E+00 -0.00000000000E+00 -0.25196352542E+03  0.25196352542E+03  0.00000000000E+00 0. -1.
          6    1    1    2  501    0 -0.38873958943E+01 -0.52268383991E+02  0.10540210574E+02  0.18107233872E+03  0.17300000000E+03 0. -1.
         -6    1    1    2    0  503  0.38873958943E+01  0.52268383991E+02 -0.11769237221E+03  0.21570255049E+03  0.17300000000E+03 0. -1.
<mgrwt>
<rscale>  2 0.18076531E+03</rscale>
<asrwt>0</asrwt>
<pdfrwt beam="1">  1       21 0.22278671E-01 0.18076531E+03</pdfrwt>
<pdfrwt beam="2">  1       21 0.38763619E-01 0.18076531E+03</pdfrwt>
<totfact> 0.12146636E+05</totfact>
</mgrwt>
</event>
<event>
 4    1  0.4365842E+000  0.2528215E+03  0.7546771E-02  0.1111535E+00
         21   -1    0    0  503  502  0.00000000000E+00  0.00000000000E+00  0.27248766145E+03  0.27248766145E+03  0.00000000000E+00 0. -1.
         21   -1    0    0  501  503 -0.00000000000E+00 -0.00000000000E+00 -0.28282128932E+03  0.28282128932E+03  0.00000000000E+00 0.  1.
          6    1    1    2  501    0 -0.38892427454E+02 -0.18021398210E+03 -0.11984534530E+03  0.27978850414E+03  0.17300000000E+03 0.  1.
         -6    1    1    2    0  502  0.38892427454E+02  0.18021398210E+03  0.10951171744E+03  0.27552044663E+03  0.17300000000E+03 0. -1.
<mgrwt>
<rscale>  2 0.25282148E+03</rscale>
<asrwt>0</asrwt>
<pdfrwt beam="1">  1       21 0.41921179E-01 0.25282148E+03</pdfrwt>
<pdfrwt beam="2">  1       21 0.43510967E-01 0.25282148E+03</pdfrwt>
<totfact> 0.26968849E+04</totfact>
</mgrwt>
</event>
<event>
 4    1  0.4365842E+000  0.1839329E+03  0.7546771E-02  0.1164050E+00
         21   -1    0    0  503  502  0.00000000000E+00  0.00000000000E+00  0.12743265119E+04  0.12743265119E+04  0.00000000000E+00 0.  1.
         21   -1    0    0  501  503 -0.00000000000E+00 -0.00000000000E+00 -0.72410463691E+02  0.72410463691E+02  0.00000000000E+00 0.  1.
          6    1    1    2  501    0  0.52566280790E+02  0.33750592982E+02  0.11368521185E+04  0.11516353832E+04  0.17300000000E+03 0. -1.
         -6    1    1    2    0  502 -0.52566280790E+02 -0.33750592982E+02  0.65063929640E+02  0.19510159236E+03  0.17300000000E+03 0. -1.
<mgrwt>
<rscale>  2 0.18393291E+03</rscale>
<asrwt>0</asrwt>
<pdfrwt beam="1">  1       21 0.19605022E+00 0.18393291E+03</pdfrwt>
<pdfrwt beam="2">  1       21 0.11140072E-01 0.18393291E+03</pdfrwt>
<totfact> 0.96119733E+03</totfact>
</mgrwt>
</event>
<event>
 4    1  0.4365842E+000  0.1833014E+03  0.7546771E-02  0.1164646E+00
         21   -1    0    0  501  502  0.00000000000E+00  0.00000000000E+00  0.11628278844E+03  0.11628278844E+03  0.00000000000E+00 0. -1.
         21   -1    0    0  502  503 -0.00000000000E+00 -0.00000000000E+00 -0.58282779218E+03  0.58282779218E+03  0.00000000000E+00 0. -1.
          6    1    1    2  501    0 -0.89988086795E+01 -0.59911734816E+02  0.14945013163E+02  0.18390961896E+03  0.17300000000E+03 0. -1.
         -6    1    1    2    0  503  0.89988086795E+01  0.59911734816E+02 -0.48149001690E+03  0.51520096166E+03  0.17300000000E+03 0. -1.
<mgrwt>
<rscale>  2 0.18330138E+03</rscale>
<asrwt>0</asrwt>
<pdfrwt beam="1">  1       21 0.17889660E-01 0.18330138E+03</pdfrwt>
<pdfrwt beam="2">  1       21 0.89665813E-01 0.18330138E+03</pdfrwt>
<totfact> 0.30247072E+04</totfact>
</mgrwt>
</event>
<event>
 4    1  0.4365842E+000  0.1970697E+03  0.7546771E-02  0.1152235E+00
         21   -1    0    0  501  502  0.00000000000E+00  0.00000000000E+00  0.29600991320E+03  0.29600991320E+03  0.00000000000E+00 0. -1.
         21   -1    0    0  502  503 -0.00000000000E+00 -0.00000000000E+00 -0.16088098107E+03  0.16088098107E+03  0.00000000000E+00 0. -1.
          6    1    1    2  501    0  0.87849232187E+01  0.93969689343E+02  0.16568724830E+03  0.25746600094E+03  0.17300000000E+03 0. -1.
         -6    1    1    2    0  503 -0.87849232187E+01 -0.93969689343E+02 -0.30558316180E+02  0.19942489333E+03  0.17300000000E+03 0. -1.
<mgrwt>
<rscale>  2 0.19706973E+03</rscale>
<asrwt>0</asrwt>
<pdfrwt beam="1">  1       21 0.45539987E-01 0.19706973E+03</pdfrwt>
<pdfrwt beam="2">  1       21 0.24750920E-01 0.19706973E+03</pdfrwt>
<totfact> 0.71249243E+04</totfact>
</mgrwt>
</event>
<event>
 4    1  0.4365842E+000  0.2072086E+03  0.7546771E-02  0.1143796E+00
         21   -1    0    0  503  502  0.00000000000E+00  0.00000000000E+00  0.28718396465E+02  0.28718396465E+02  0.00000000000E+00 0.  1.
         21   -1    0    0  501  503 -0.00000000000E+00 -0.00000000000E+00 -0.16920216502E+04  0.16920216502E+04  0.00000000000E+00 0. -1.
          6    1    1    2  501    0 -0.78451574418E+02 -0.82775383407E+02 -0.11252036882E+04  0.11441235744E+04  0.17300000000E+03 0. -1.
         -6    1    1    2    0  502  0.78451574418E+02  0.82775383407E+02 -0.53809956558E+03  0.57661647228E+03  0.17300000000E+03 0.  1.
<mgrwt>
<rscale>  2 0.20720862E+03</rscale>
<asrwt>0</asrwt>
<pdfrwt beam="1">  1       21 0.44182143E-02 0.20720862E+03</pdfrwt>
<pdfrwt beam="2">  1       21 0.26031106E+00 0.20720862E+03</pdfrwt>
<totfact> 0.18939500E+04</totfact>
</mgrwt>
</event>
<event>
 4    1  0.4365842E+000  0.2348010E+03  0.7546771E-02  0.1123305E+00
         21   -1    0    0  501  502  0.00000000000E+00  0.00000000000E+00  0.21353764308E+03  0.21353764308E+03  0.00000000000E+00 0.  1.
         21   -1    0    0  502  503 -0.00000000000E+00 -0.00000000000E+00 -0.28772642537E+03  0.28772642537E+03  0.00000000000E+00 0. -1.
          6    1    1    2  501    0  0.43471799127E+02  0.15268504916E+03 -0.11740748263E+03  0.26251864416E+03  0.17300000000E+03 0. -1.
         -6    1    1    2    0  503 -0.43471799127E+02 -0.15268504916E+03  0.43218700343E+02  0.23874542428E+03  0.17300000000E+03 0.  1.
<mgrwt>
<rscale>  2 0.23480103E+03</rscale>
<asrwt>0</asrwt>
<pdfrwt beam="1">  1       21 0.32851945E-01 0.23480103E+03</pdfrwt>
<pdfrwt beam="2">  1       21 0.44265604E-01 0.23480103E+03</pdfrwt>
<totfact> 0.42847128E+04</totfact>
</mgrwt>
</event>
<event>
 4    1  0.4365842E+000  0.3100277E+03  0.7546771E-02  0.1080333E+00
         21   -1    0    0  501  502  0.00000000000E+00  0.00000000000E+00  0.36567592662E+03  0.36567592662E+03  0.00000000000E+00 0.  1.
         21   -1    0    0  502  503 -0.00000000000E+00 -0.00000000000E+00 -0.37634285681E+03  0.37634285681E+03  0.00000000000E+00 0. -1.
          6    1    1    2  501    0  0.25639324913E+03  0.21229042889E+02  0.19840884993E+03  0.36808048331E+03  0.17300000000E+03 0.  1.
         -6    1    1    2    0  503 -0.25639324913E+03 -0.21229042889E+02 -0.20907578013E+03  0.37393830012E+03  0.17300000000E+03 0. -1.
<mgrwt>
<rscale>  2 0.31002769E+03</rscale>
<asrwt>0</asrwt>
<pdfrwt beam="1">  1       21 0.56257835E-01 0.31002769E+03</pdfrwt>
<pdfrwt beam="2">  1       21 0.57898901E-01 0.31002769E+03</pdfrwt>
<totfact> 0.77714128E+03</totfact>
</mgrwt>
</event>
<event>
 4    1  0.4365842E+000  0.1771571E+03  0.7546771E-02  0.1170583E+00
         21   -1    0    0  503  502  0.00000000000E+00  0.00000000000E+00  0.26455979922E+03  0.26455979922E+03  0.00000000000E+00 0. -1.
         21   -1    0    0  501  503 -0.00000000000E+00 -0.00000000000E+00 -0.12009664097E+03  0.12009664097E+03  0.00000000000E+00 0. -1.
          6    1    1    2  501    0 -0.37717099976E+02 -0.57497104273E+01  0.93487990702E+02  0.20031136564E+03  0.17300000000E+03 0.  1.
         -6    1    1    2    0  502  0.37717099976E+02  0.57497104273E+01  0.50975167547E+02  0.18434507454E+03  0.17300000000E+03 0.  1.
<mgrwt>
<rscale>  2 0.17715710E+03</rscale>
<asrwt>0</asrwt>
<pdfrwt beam="1">  1       21 0.40701507E-01 0.17715710E+03</pdfrwt>
<pdfrwt beam="2">  1       21 0.18476406E-01 0.17715710E+03</pdfrwt>
<totfact> 0.15633256E+05</totfact>
</mgrwt>
</event>
<event>
 4    1  0.4365842E+000  0.1871387E+03  0.7546771E-02  0.1161068E+00
         21   -1    0    0  501  502  0.00000000000E+00  0.00000000000E+00  0.22896407741E+04  0.22896407741E+04  0.00000000000E+00 0.  1.
         21   -1    0    0  502  503 -0.00000000000E+00 -0.00000000000E+00 -0.38442038130E+02  0.38442038130E+02  0.00000000000E+00 0.  1.
          6    1    1    2  501    0 -0.70547241229E+02 -0.10723185252E+02  0.20288525090E+04  0.20374649453E+04  0.17300000000E+03 0. -1.
         -6    1    1    2    0  503  0.70547241229E+02  0.10723185252E+02  0.22234622698E+03  0.29061786696E+03  0.17300000000E+03 0. -1.
<mgrwt>
<rscale>  2 0.18713872E+03</rscale>
<asrwt>0</asrwt>
<pdfrwt beam="1">  1       21 0.35225232E+00 0.18713872E+03</pdfrwt>
<pdfrwt beam="2">  1       21 0.59141615E-02 0.18713872E+03</pdfrwt>
<totfact> 0.34530370E+03</totfact>
</mgrwt>
</event>
<event>
 4    1  0.4365842E+000  0.1990627E+03  0.7546771E-02  0.1150532E+00
         21   -1    0    0  501  502  0.00000000000E+00  0.00000000000E+00  0.10729688778E+03  0.10729688778E+03  0.00000000000E+00 0. -1.
         21   -1    0    0  502  503 -0.00000000000E+00 -0.00000000000E+00 -0.38278951995E+03  0.38278951995E+03  0.00000000000E+00 0. -1.
          6    1    1    2  501    0 -0.10326244393E+02  0.97930296381E+02 -0.91765599567E+02  0.21919602993E+03  0.17300000000E+03 0. -1.
         -6    1    1    2    0  503  0.10326244393E+02 -0.97930296381E+02 -0.18372703260E+03  0.27089037779E+03  0.17300000000E+03 0. -1.
<mgrwt>
<rscale>  2 0.19906274E+03</rscale>
<asrwt>0</asrwt>
<pdfrwt beam="1">  1       21 0.16507213E-01 0.19906274E+03</pdfrwt>
<pdfrwt beam="2">  1       21 0.58890696E-01 0.19906274E+03</pdfrwt>
<totfact> 0.88570662E+04</totfact>
</mgrwt>
</event>
<event>
 4    1  0.4365842E+000  0.2034159E+03  0.7546771E-02  0.1146889E+00
         21   -1    0    0  503  502  0.00000000000E+00  0.00000000000E+00  0.10897324980E+04  0.10897324980E+04  0.00000000000E+00 0.  1.
         21   -1    0    0  501  503 -0.00000000000E+00 -0.00000000000E+00 -0.44749388999E+02  0.44749388999E+02  0.00000000000E+00 0. -1.
          6    1    1    2  501    0 -0.21833009336E+01  0.10697780699E+03  0.30171976838E+03  0.36388574666E+03  0.17300000000E+03 0.  1.
         -6    1    1    2    0  502  0.21833009336E+01 -0.10697780699E+03  0.74326334063E+03  0.77059614035E+03  0.17300000000E+03 0.  1.
<mgrwt>
<rscale>  2 0.20341587E+03</rscale>
<asrwt>0</asrwt>
<pdfrwt beam="1">  1       21 0.16765113E+00 0.20341587E+03</pdfrwt>
<pdfrwt beam="2">  1       21 0.68845222E-02 0.20341587E+03</pdfrwt>
<totfact> 0.34274558E+04</totfact>
</mgrwt>
</event>
<event>
 4    1  0.4365842E+000  0.2287495E+03  0.7546771E-02  0.1127523E+00
         21   -1    0    0  503  502  0.00000000000E+00  0.00000000000E+00  0.54019317172E+02  0.54019317172E+02  0.00000000000E+00 0.  1.
         21   -1    0    0  501  503 -0.00000000000E+00 -0.00000000000E+00 -0.96872442063E+03  0.96872442063E+03  0.00000000000E+00 0. -1.
          6    1    1    2  501    0 -0.11432496696E+03 -0.96577215024E+02 -0.45318527931E+03  0.50764481078E+03  0.17300000000E+03 0. -1.
         -6    1    1    2    0  502  0.11432496696E+03  0.96577215024E+02 -0.46151982415E+03  0.51509892702E+03  0.17300000000E+03 0.  1.
<mgrwt>
<rscale>  2 0.22874955E+03</rscale>
<asrwt>0</asrwt>
<pdfrwt beam="1">  1       21 0.83106646E-02 0.22874955E+03</pdfrwt>
<pdfrwt beam="2">  1       21 0.14903452E+00 0.22874955E+03</pdfrwt>
<totfact> 0.33426266E+04</totfact>
</mgrwt>
</event>
<event>
 4    1  0.4365842E+000  0.1741380E+03  0.7546771E-02  0.1173600E+00
         21   -1    0    0  501  502  0.00000000000E+00  0.00000000000E+00  0.12901019332E+04  0.12901019332E+04  0.00000000000E+00 0. -1.
         21   -1    0    0  502  503 -0.00000000000E+00 -0.00000000000E+00 -0.66546439012E+02  0.66546439012E+02  0.00000000000E+00 0. -1.
          6    1    1    2  501    0 -0.16672810587E+02 -0.10818926365E+02  0.11573063882E+04  0.11703341865E+04  0.17300000000E+03 0. -1.
         -6    1    1    2    0  503  0.16672810587E+02  0.10818926365E+02  0.66249106007E+02  0.18631418579E+03  0.17300000000E+03 0. -1.
<mgrwt>
<rscale>  2 0.17413797E+03</rscale>
<asrwt>0</asrwt>
<pdfrwt beam="1">  1       21 0.19847720E+00 0.17413797E+03</pdfrwt>
<pdfrwt beam="2">  1       21 0.10237915E-01 0.17413797E+03</pdfrwt>
<totfact> 0.10861058E+04</totfact>
</mgrwt>
</event>
<event>
 4    1  0.4365842E+000  0.1749543E+03  0.7546771E-02  0.1172778E+00
         21   -1    0    0  501  502  0.00000000000E+00  0.00000000000E+00  0.13861022071E+03  0.13861022071E+03  0.00000000000E+00 0.  1.
         21   -1    0    0  502  503 -0.00000000000E+00 -0.00000000000E+00 -0.23888021274E+03  0.23888021274E+03  0.00000000000E+00 0.  1.
          6    1    1    2  501    0 -0.23703603570E+02  0.10868796752E+02 -0.10202137525E+03  0.20252741190E+03  0.17300000000E+03 0.  1.
         -6    1    1    2    0  503  0.23703603570E+02 -0.10868796752E+02  0.17513832219E+01  0.17496302155E+03  0.17300000000E+03 0.  1.
<mgrwt>
<rscale>  2 0.17495426E+03</rscale>
<asrwt>0</asrwt>
<pdfrwt beam="1">  1       21 0.21324649E-01 0.17495426E+03</pdfrwt>
<pdfrwt beam="2">  1       21 0.36750802E-01 0.17495426E+03</pdfrwt>
<totfact> 0.14701586E+05</totfact>
</mgrwt>
</event>
<event>
 4    1  0.4365842E+000  0.2206068E+03  0.7546771E-02  0.1133431E+00
         21   -1    0    0  501  502  0.00000000000E+00  0.00000000000E+00  0.57902075404E+03  0.57902075404E+03  0.00000000000E+00 0.  1.
         21   -1    0    0  502  503 -0.00000000000E+00 -0.00000000000E+00 -0.84931200184E+02  0.84931200184E+02  0.00000000000E+00 0. -1.
          6    1    1    2  501    0 -0.13660267739E+03  0.88347205076E+01  0.28083832370E+03  0.35712393901E+03  0.17300000000E+03 0.  1.
         -6    1    1    2    0  503  0.13660267739E+03 -0.88347205076E+01  0.21325123015E+03  0.30682801521E+03  0.17300000000E+03 0. -1.
<mgrwt>
<rscale>  2 0.22060676E+03</rscale>
<asrwt>0</asrwt>
<pdfrwt beam="1">  1       21 0.89080114E-01 0.22060676E+03</pdfrwt>
<pdfrwt beam="2">  1       21 0.13066339E-01 0.22060676E+03</pdfrwt>
<totfact> 0.53460740E+04</totfact>
</mgrwt>
</event>
<event>
 4    1  0.4365842E+000  0.2116575E+03  0.7546771E-02  0.1140260E+00
         21   -1    0    0  501  502  0.00000000000E+00  0.00000000000E+00  0.82962365192E+03  0.82962365192E+03  0.00000000000E+00 0.  1.
         21   -1    0    0  502  503 -0.00000000000E+00 -0.00000000000E+00 -0.56606377896E+02  0.56606377896E+02  0.00000000000E+00 0. -1.
          6    1    1    2  501    0  0.12158354517E+03  0.93449004288E+01  0.48160895174E+03  0.52606660036E+03  0.17300000000E+03 0.  1.
         -6    1    1    2    0  503 -0.12158354517E+03 -0.93449004288E+01  0.29140832229E+03  0.36016342946E+03  0.17300000000E+03 0. -1.
<mgrwt>
<rscale>  2 0.21165747E+03</rscale>
<asrwt>0</asrwt>
<pdfrwt beam="1">  1       21 0.12763440E+00 0.21165747E+03</pdfrwt>
<pdfrwt beam="2">  1       21 0.87086741E-02 0.21165747E+03</pdfrwt>
<totfact> 0.46367272E+04</totfact>
</mgrwt>
</event>
<event>
 4    1  0.4365842E+000  0.1769633E+03  0.7546771E-02  0.1170775E+00
         21   -1    0    0  503  502  0.00000000000E+00  0.00000000000E+00  0.91863019260E+02  0.91863019260E+02  0.00000000000E+00 0.  1.
         21   -1    0    0  501  503 -0.00000000000E+00 -0.00000000000E+00 -0.60718110079E+03  0.60718110079E+03  0.00000000000E+00 0.  1.
          6    1    1    2  501    0 -0.33662977832E+02  0.15931441939E+02 -0.48912466197E+03  0.52015280626E+03  0.17300000000E+03 0.  1.
         -6    1    1    2    0  502  0.33662977832E+02 -0.15931441939E+02 -0.26193419558E+02  0.17889131378E+03  0.17300000000E+03 0.  1.
<mgrwt>
<rscale>  2 0.17696329E+03</rscale>
<asrwt>0</asrwt>
<pdfrwt beam="1">  1       21 0.14132773E-01 0.17696329E+03</pdfrwt>
<pdfrwt beam="2">  1       21 0.93412472E-01 0.17696329E+03</pdfrwt>
<totfact> 0.42461126E+04</totfact>
</mgrwt>
</event>
<event>
 4    1  0.4365842E+000  0.2222779E+03  0.7546771E-02  0.1132196E+00
         21   -1    0    0  501  502  0.00000000000E+00  0.00000000000E+00  0.73470646101E+03  0.73470646101E+03  0.00000000000E+00 0.  1.
         21   -1    0    0  502  503 -0.00000000000E+00 -0.00000000000E+00 -0.29040273799E+03  0.29040273799E+03  0.00000000000E+00 0.  1.
          6    1    1    2  501    0 -0.10090458173E+03 -0.96419617948E+02  0.67145858856E+03  0.70729351297E+03  0.17300000000E+03 0.  1.
         -6    1    1    2    0  503  0.10090458173E+03  0.96419617948E+02 -0.22715486555E+03  0.31781568603E+03  0.17300000000E+03 0.  1.
<mgrwt>
<rscale>  2 0.22227793E+03</rscale>
<asrwt>0</asrwt>
<pdfrwt beam="1">  1       21 0.11303176E+00 0.22227793E+03</pdfrwt>
<pdfrwt beam="2">  1       21 0.44677345E-01 0.22227793E+03</pdfrwt>
<totfact> 0.28685987E+03</totfact>
</mgrwt>
</event>
<event>
 4    1  0.4365842E+000  0.2144970E+03  0.7546771E-02  0.1138054E+00
         21   -1    0    0  501  502  0.00000000000E+00  0.00000000000E+00  0.20822063209E+03  0.20822063209E+03  0.00000000000E+00 0. -1.
         21   -1    0    0  502  503 -0.00000000000E+00 -0.00000000000E+00 -0.22221454229E+03  0.22221454229E+03  0.00000000000E+00 0.  1.
          6    1    1    2  501    0  0.35971074666E+02  0.12159793903E+03  0.91570314612E+01  0.21469240372E+03  0.17300000000E+03 0. -1.
         -6    1    1    2    0  503 -0.35971074666E+02 -0.12159793903E+03 -0.23150941658E+02  0.21574277065E+03  0.17300000000E+03 0.  1.
<mgrwt>
<rscale>  2 0.21449703E+03</rscale>
<asrwt>0</asrwt>
<pdfrwt beam="1">  1       21 0.32033943E-01 0.21449703E+03</pdfrwt>
<pdfrwt beam="2">  1       21 0.34186853E-01 0.21449703E+03</pdfrwt>
<totfact> 0.76557198E+04</totfact>
</mgrwt>
</event>
<event>
 4    1  0.4365842E+000  0.1736392E+03  0.7546771E-02  0.1174105E+00
         21   -1    0    0  501  502  0.00000000000E+00  0.00000000000E+00  0.12108421157E+03  0.12108421157E+03  0.00000000000E+00 0.  1.
         21   -1    0    0  502  503 -0.00000000000E+00 -0.00000000000E+00 -0.66557932496E+03  0.66557932496E+03  0.00000000000E+00 0.  1.
          6    1    1    2  501    0 -0.14679822233E+01 -0.14812553310E+02  0.38927942210E+02  0.17794929444E+03  0.17300000000E+03 0.  1.
         -6    1    1    2    0  503  0.14679822233E+01  0.14812553310E+02 -0.58342305560E+03  0.60871424208E+03  0.17300000000E+03 0.  1.
<mgrwt>
<rscale>  2 0.17363919E+03</rscale>
<asrwt>0</asrwt>
<pdfrwt beam="1">  1       21 0.18628340E-01 0.17363919E+03</pdfrwt>
<pdfrwt beam="2">  1       21 0.10239682E+00 0.17363919E+03</pdfrwt>
<totfact> 0.20687532E+04</totfact>
</mgrwt>
</event>
<event>
 4    1  0.4365842E+000  0.1792718E+03  0.7546771E-02  0.1168510E+00
         21   -1    0    0  501  502  0.00000000000E+00  0.00000000000E+00  0.34311159349E+03  0.34311159349E+03  0.00000000000E+00 0. -1.
         21   -1    0    0  502  503 -0.00000000000E+00 -0.00000000000E+00 -0.93690768748E+02  0.93690768748E+02  0.00000000000E+00 0. -1.
          6    1    1    2  501    0  0.31868921391E+01 -0.46895831260E+02  0.12815871319E+03  0.22037021359E+03  0.17300000000E+03 0.  1.
         -6    1    1    2    0  503 -0.31868921391E+01  0.46895831260E+02  0.12126211156E+03  0.21643214865E+03  0.17300000000E+03 0.  1.
<mgrwt>
<rscale>  2 0.17927179E+03</rscale>
<asrwt>0</asrwt>
<pdfrwt beam="1">  1       21 0.52786398E-01 0.17927179E+03</pdfrwt>
<pdfrwt beam="2">  1       21 0.14413965E-01 0.17927179E+03</pdfrwt>
<totfact> 0.14409892E+05</totfact>
</mgrwt>
</event>
<event>
 4    1  0.4365842E+000  0.1954616E+03  0.7546771E-02  0.1153626E+00
         21   -1    0    0  501  502  0.00000000000E+00  0.00000000000E+00  0.30409701011E+02  0.30409701011E+02  0.00000000000E+00 0.  1.
         21   -1    0    0  502  503 -0.00000000000E+00 -0.00000000000E+00 -0.12645233851E+04  0.12645233851E+04  0.00000000000E+00 0. -1.
          6    1    1    2  501    0 -0.81572974717E+02  0.40275097040E+02 -0.56500335487E+03  0.59785786326E+03  0.17300000000E+03 0.  1.
         -6    1    1    2    0  503  0.81572974717E+02 -0.40275097040E+02 -0.66911032917E+03  0.69707522280E+03  0.17300000000E+03 0. -1.
<mgrwt>
<rscale>  2 0.19546159E+03</rscale>
<asrwt>0</asrwt>
<pdfrwt beam="1">  1       21 0.46784160E-02 0.19546159E+03</pdfrwt>
<pdfrwt beam="2">  1       21 0.19454204E+00 0.19546159E+03</pdfrwt>
<totfact> 0.43759896E+04</totfact>
</mgrwt>
</event>
<event>
 4    1  0.4365842E+000  0.2568240E+03  0.7546771E-02  0.1109067E+00
         21   -1    0    0  503  502  0.00000000000E+00  0.00000000000E+00  0.18727946152E+03  0.18727946152E+03  0.00000000000E+00 0. -1.
         21   -1    0    0  501  503 -0.00000000000E+00 -0.00000000000E+00 -0.55399701250E+03  0.55399701250E+03  0.00000000000E+00 0.  1.
          6    1    1    2  501    0  0.11134511641E+03 -0.15372641052E+03 -0.40705633334E+03  0.48130385699E+03  0.17300000000E+03 0.  1.
         -6    1    1    2    0  502 -0.11134511641E+03  0.15372641052E+03  0.40338782357E+02  0.25997261703E+03  0.17300000000E+03 0.  1.
<mgrwt>
<rscale>  2 0.25682396E+03</rscale>
<asrwt>0</asrwt>
<pdfrwt beam="1">  1       21 0.28812224E-01 0.25682396E+03</pdfrwt>
<pdfrwt beam="2">  1       21 0.85230311E-01 0.25682396E+03</pdfrwt>
<totfact> 0.13216430E+04</totfact>
</mgrwt>
</event>
<event>
 4    1  0.4365842E+000  0.4167903E+03  0.7546771E-02  0.1038116E+00
         21   -1    0    0  503  502  0.00000000000E+00  0.00000000000E+00  0.58019595336E+03  0.58019595336E+03  0.00000000000E+00 0.  1.
         21   -1    0    0  501  503 -0.00000000000E+00 -0.00000000000E+00 -0.36258662311E+03  0.36258662311E+03  0.00000000000E+00 0. -1.
          6    1    1    2  501    0 -0.82775358045E+02  0.37004517291E+03 -0.87969182186E+02  0.42597273024E+03  0.17300000000E+03 0. -1.
         -6    1    1    2    0  502  0.82775358045E+02 -0.37004517291E+03  0.30557851243E+03  0.51680984622E+03  0.17300000000E+03 0.  1.
<mgrwt>
<rscale>  2 0.41679034E+03</rscale>
<asrwt>0</asrwt>
<pdfrwt beam="1">  1       21 0.89260916E-01 0.41679034E+03</pdfrwt>
<pdfrwt beam="2">  1       21 0.55782557E-01 0.41679034E+03</pdfrwt>
<totfact> 0.28525315E+03</totfact>
</mgrwt>
</event>
<event>
 4    1  0.4365842E+000  0.2191287E+03  0.7546771E-02  0.1134534E+00
         21   -1    0    0  503  502  0.00000000000E+00  0.00000000000E+00  0.14598555405E+04  0.14598555405E+04  0.00000000000E+00 0. -1.
         21   -1    0    0  501  503 -0.00000000000E+00 -0.00000000000E+00 -0.80634290067E+02  0.80634290067E+02  0.00000000000E+00 0.  1.
          6    1    1    2  501    0  0.11497667922E+03 -0.69776506911E+02  0.96929478782E+02  0.23960951888E+03  0.17300000000E+03 0.  1.
         -6    1    1    2    0  502 -0.11497667922E+03  0.69776506911E+02  0.12822917716E+04  0.13008803117E+04  0.17300000000E+03 0. -1.
<mgrwt>
<rscale>  2 0.21912872E+03</rscale>
<asrwt>0</asrwt>
<pdfrwt beam="1">  1       21 0.22459314E+00 0.21912872E+03</pdfrwt>
<pdfrwt beam="2">  1       21 0.12405276E-01 0.21912872E+03</pdfrwt>
<totfact> 0.50869136E+03</totfact>
</mgrwt>
</event>
<event>
 4    1  0.4365842E+000  0.2417563E+03  0.7546771E-02  0.1118628E+00
         21   -1    0    0  503  502  0.00000000000E+00  0.00000000000E+00  0.66210094166E+02  0.66210094166E+02  0.00000000000E+00 0.  1.
         21   -1    0    0  501  503 -0.00000000000E+00 -0.00000000000E+00 -0.88437853060E+03  0.88437853060E+03  0.00000000000E+00 0. -1.
          6    1    1    2  501    0  0.14646867744E+03  0.84047754089E+02 -0.42956143472E+03  0.49291898385E+03  0.17300000000E+03 0.  1.
         -6    1    1    2    0  502 -0.14646867744E+03 -0.84047754089E+02 -0.38860700171E+03  0.45766964092E+03  0.17300000000E+03 0. -1.
<mgrwt>
<rscale>  2 0.24175628E+03</rscale>
<asrwt>0</asrwt>
<pdfrwt beam="1">  1       21 0.10186168E-01 0.24175628E+03</pdfrwt>
<pdfrwt beam="2">  1       21 0.13605824E+00 0.24175628E+03</pdfrwt>
<totfact> 0.29418583E+04</totfact>
</mgrwt>
</event>
<event>
 4    1  0.4365842E+000  0.1938432E+03  0.7546771E-02  0.1155040E+00
         21   -1    0    0  501  502  0.00000000000E+00  0.00000000000E+00  0.24663550179E+03  0.24663550179E+03  0.00000000000E+00 0. -1.
         21   -1    0    0  502  503 -0.00000000000E+00 -0.00000000000E+00 -0.23973107887E+03  0.23973107887E+03  0.00000000000E+00 0. -1.
          6    1    1    2  501    0 -0.58941860672E+02  0.64591206961E+02  0.15026968967E+03  0.24526750007E+03  0.17300000000E+03 0. -1.
         -6    1    1    2    0  503  0.58941860672E+02 -0.64591206961E+02 -0.14336526675E+03  0.24109908060E+03  0.17300000000E+03 0. -1.
<mgrwt>
<rscale>  2 0.19384315E+03</rscale>
<asrwt>0</asrwt>
<pdfrwt beam="1">  1       21 0.37943923E-01 0.19384315E+03</pdfrwt>
<pdfrwt beam="2">  1       21 0.36881705E-01 0.19384315E+03</pdfrwt>
<totfact> 0.47467602E+04</totfact>
</mgrwt>
</event>
<event>
 4    1  0.4365842E+000  0.2454417E+03  0.7546771E-02  0.1116220E+00
         21   -1    0    0  503  502  0.00000000000E+00  0.00000000000E+00  0.27166786623E+03  0.27166786623E+03  0.00000000000E+00 0. -1.
         21   -1    0    0  501  503 -0.00000000000E+00 -0.00000000000E+00 -0.70908970291E+03  0.70908970291E+03  0.00000000000E+00 0. -1.
          6    1    1    2  501    0 -0.17367590215E+03 -0.12219677353E+02 -0.62524610871E+03  0.67169512129E+03  0.17300000000E+03 0. -1.
         -6    1    1    2    0  502  0.17367590215E+03  0.12219677353E+02  0.18782427204E+03  0.30906244785E+03  0.17300000000E+03 0. -1.
<mgrwt>
<rscale>  2 0.24544172E+03</rscale>
<asrwt>0</asrwt>
<pdfrwt beam="1">  1       21 0.41795057E-01 0.24544172E+03</pdfrwt>
<pdfrwt beam="2">  1       21 0.10909072E+00 0.24544172E+03</pdfrwt>
<totfact> 0.35266531E+03</totfact>
</mgrwt>
</event>
<event>
 4    1  0.4365842E+000  0.3547938E+03  0.7546771E-02  0.1060664E+00
         21   -1    0    0  503  502  0.00000000000E+00  0.00000000000E+00  0.50503340715E+03  0.50503340715E+03  0.00000000000E+00 0.  1.
         21   -1    0    0  501  503 -0.00000000000E+00 -0.00000000000E+00 -0.36533560461E+03  0.36533560461E+03  0.00000000000E+00 0. -1.
          6    1    1    2  501    0  0.89744080013E+02 -0.29647198907E+03 -0.17546382410E+03  0.39581080552E+03  0.17300000000E+03 0.  1.
         -6    1    1    2    0  502 -0.89744080013E+02  0.29647198907E+03  0.31516162664E+03  0.47455820624E+03  0.17300000000E+03 0. -1.
<mgrwt>
<rscale>  2 0.35479380E+03</rscale>
<asrwt>0</asrwt>
<pdfrwt beam="1">  1       21 0.77697448E-01 0.35479380E+03</pdfrwt>
<pdfrwt beam="2">  1       21 0.56205477E-01 0.35479380E+03</pdfrwt>
<totfact> 0.39731553E+03</totfact>
</mgrwt>
</event>
<event>
 4    1  0.4365842E+000  0.1828882E+03  0.7546771E-02  0.1165037E+00
         21   -1    0    0  503  502  0.00000000000E+00  0.00000000000E+00  0.16472378480E+03  0.16472378480E+03  0.00000000000E+00 0. -1.
         21   -1    0    0  501  503 -0.00000000000E+00 -0.00000000000E+00 -0.35828944488E+03  0.35828944488E+03  0.00000000000E+00 0. -1.
          6    1    1    2  501    0  0.44481368520E+02  0.39249090058E+02 -0.26891375828E+03  0.32521176579E+03  0.17300000000E+03 0. -1.
         -6    1    1    2    0  502 -0.44481368520E+02 -0.39249090058E+02  0.75348098195E+02  0.19780146389E+03  0.17300000000E+03 0. -1.
<mgrwt>
<rscale>  2 0.18288817E+03</rscale>
<asrwt>0</asrwt>
<pdfrwt beam="1">  1       21 0.25342121E-01 0.18288817E+03</pdfrwt>
<pdfrwt beam="2">  1       21 0.55121453E-01 0.18288817E+03</pdfrwt>
<totfact> 0.46035989E+04</totfact>
</mgrwt>
</event>
<event>
 4    1  0.4365842E+000  0.1759617E+03  0.7546771E-02  0.1171770E+00
         21   -1    0    0  503  502  0.00000000000E+00  0.00000000000E+00  0.13806860963E+03  0.13806860963E+03  0.00000000000E+00 0.  1.
         21   -1    0    0  501  503 -0.00000000000E+00 -0.00000000000E+00 -0.34004671532E+03  0.34004671532E+03  0.00000000000E+00 0.  1.
          6    1    1    2  501    0  0.32025238682E+02 -0.28143163436E+01 -0.24048855587E+03  0.29798872763E+03  0.17300000000E+03 0.  1.
         -6    1    1    2    0  502 -0.32025238682E+02  0.28143163436E+01  0.38510450184E+02  0.18012659732E+03  0.17300000000E+03 0.  1.
<mgrwt>
<rscale>  2 0.17596175E+03</rscale>
<asrwt>0</asrwt>
<pdfrwt beam="1">  1       21 0.21241325E-01 0.17596175E+03</pdfrwt>
<pdfrwt beam="2">  1       21 0.52314879E-01 0.17596175E+03</pdfrwt>
<totfact> 0.71986392E+04</totfact>
</mgrwt>
</event>
<event>
 4    1  0.4365842E+000  0.2100756E+03  0.7546771E-02  0.1141506E+00
         21   -1    0    0  503  502  0.00000000000E+00  0.00000000000E+00  0.19937441713E+03  0.19937441713E+03  0.00000000000E+00 0.  1.
         21   -1    0    0  501  503 -0.00000000000E+00 -0.00000000000E+00 -0.22609052062E+03  0.22609052062E+03  0.00000000000E+00 0.  1.
          6    1    1    2  501    0  0.51981070617E+02 -0.10724136047E+03  0.17442357117E+02  0.21079842722E+03  0.17300000000E+03 0.  1.
         -6    1    1    2    0  502 -0.51981070617E+02  0.10724136047E+03 -0.44158460610E+02  0.21466651053E+03  0.17300000000E+03 0.  1.
<mgrwt>
<rscale>  2 0.21007556E+03</rscale>
<asrwt>0</asrwt>
<pdfrwt beam="1">  1       21 0.30672987E-01 0.21007556E+03</pdfrwt>
<pdfrwt beam="2">  1       21 0.34783157E-01 0.21007556E+03</pdfrwt>
<totfact> 0.80701656E+04</totfact>
</mgrwt>
</event>
<event>
 4    1  0.4365842E+000  0.1839741E+03  0.7546771E-02  0.1164011E+00
         21   -1    0    0  501  502  0.00000000000E+00  0.00000000000E+00  0.30769503184E+03  0.30769503184E+03  0.00000000000E+00 0.  1.
         21   -1    0    0  502  503 -0.00000000000E+00 -0.00000000000E+00 -0.25108477957E+03  0.25108477957E+03  0.00000000000E+00 0.  1.
          6    1    1    2  501    0 -0.62364986954E+02 -0.52986797069E+01  0.23773591518E+03  0.30060743998E+03  0.17300000000E+03 0.  1.
         -6    1    1    2    0  503  0.62364986954E+02  0.52986797069E+01 -0.18112566291E+03  0.25817237143E+03  0.17300000000E+03 0.  1.
<mgrwt>
<rscale>  2 0.18397409E+03</rscale>
<asrwt>0</asrwt>
<pdfrwt beam="1">  1       21 0.47337697E-01 0.18397409E+03</pdfrwt>
<pdfrwt beam="2">  1       21 0.38628428E-01 0.18397409E+03</pdfrwt>
<totfact> 0.27718573E+04</totfact>
</mgrwt>
</event>
<event>
 4    1  0.4365842E+000  0.2330231E+03  0.7546771E-02  0.1124530E+00
         21   -1    0    0  503  502  0.00000000000E+00  0.00000000000E+00  0.17964850585E+03  0.17964850585E+03  0.00000000000E+00 0. -1.
         21   -1    0    0  501  503 -0.00000000000E+00 -0.00000000000E+00 -0.38817312637E+03  0.38817312637E+03  0.00000000000E+00 0.  1.
          6    1    1    2  501    0 -0.10763962318E+03  0.11306837599E+03 -0.23783275757E+03  0.33296271068E+03  0.17300000000E+03 0.  1.
         -6    1    1    2    0  502  0.10763962318E+03 -0.11306837599E+03  0.29308137051E+02  0.23485892154E+03  0.17300000000E+03 0. -1.
<mgrwt>
<rscale>  2 0.23302306E+03</rscale>
<asrwt>0</asrwt>
<pdfrwt beam="1">  1       21 0.27638232E-01 0.23302306E+03</pdfrwt>
<pdfrwt beam="2">  1       21 0.59718941E-01 0.23302306E+03</pdfrwt>
<totfact> 0.32029451E+04</totfact>
</mgrwt>
</event>
<event>
 4    1  0.4365842E+000  0.1795214E+03  0.7546771E-02  0.1168267E+00
         21   -1    0    0  503  502  0.00000000000E+00  0.00000000000E+00  0.17536181705E+03  0.17536181705E+03  0.00000000000E+00 0. -1.
         21   -1    0    0  501  503 -0.00000000000E+00 -0.00000000000E+00 -0.19496336322E+03  0.19496336322E+03  0.00000000000E+00 0. -1.
          6    1    1    2  501    0 -0.45085032508E+02  0.16318009272E+02 -0.54148287825E+02  0.18750993216E+03  0.17300000000E+03 0. -1.
         -6    1    1    2    0  502  0.45085032508E+02 -0.16318009272E+02  0.34546741661E+02  0.18281524811E+03  0.17300000000E+03 0. -1.
<mgrwt>
<rscale>  2 0.17952141E+03</rscale>
<asrwt>0</asrwt>
<pdfrwt beam="1">  1       21 0.26978741E-01 0.17952141E+03</pdfrwt>
<pdfrwt beam="2">  1       21 0.29994364E-01 0.17952141E+03</pdfrwt>
<totfact> 0.14013683E+05</totfact>
</mgrwt>
</event>
<event>
 4    1  0.4365842E+000  0.2952774E+03  0.7546771E-02  0.1087626E+00
         21   -1    0    0  501  502  0.00000000000E+00  0.00000000000E+00  0.14080553537E+03  0.14080553537E+03  0.00000000000E+00 0. -1.
         21   -1    0    0  502  503 -0.00000000000E+00 -0.00000000000E+00 -0.68878431022E+03  0.68878431022E+03  0.00000000000E+00 0.  1.
          6    1    1    2  501    0  0.10753847443E+03 -0.21376437398E+03 -0.14216238005E+03  0.32771767326E+03  0.17300000000E+03 0. -1.
         -6    1    1    2    0  503 -0.10753847443E+03  0.21376437398E+03 -0.40581639480E+03  0.50187217233E+03  0.17300000000E+03 0.  1.
<mgrwt>
<rscale>  2 0.29527738E+03</rscale>
<asrwt>0</asrwt>
<pdfrwt beam="1">  1       21 0.21662390E-01 0.29527738E+03</pdfrwt>
<pdfrwt beam="2">  1       21 0.10596682E+00 0.29527738E+03</pdfrwt>
<totfact> 0.13414836E+04</totfact>
</mgrwt>
</event>
<event>
 4    1  0.4365842E+000  0.2039043E+03  0.7546771E-02  0.1146486E+00
         21   -1    0    0  503  502  0.00000000000E+00  0.00000000000E+00  0.14526148257E+03  0.14526148257E+03  0.00000000000E+00 0. -1.
         21   -1    0    0  501  503 -0.00000000000E+00 -0.00000000000E+00 -0.28944260259E+03  0.28944260259E+03  0.00000000000E+00 0.  1.
          6    1    1    2  501    0  0.10467507936E+03 -0.26288636073E+02 -0.95019414986E+02  0.22495700445E+03  0.17300000000E+03 0.  1.
         -6    1    1    2    0  502 -0.10467507936E+03  0.26288636073E+02 -0.49161705040E+02  0.20974708072E+03  0.17300000000E+03 0.  1.
<mgrwt>
<rscale>  2 0.20390430E+03</rscale>
<asrwt>0</asrwt>
<pdfrwt beam="1">  1       21 0.22347921E-01 0.20390430E+03</pdfrwt>
<pdfrwt beam="2">  1       21 0.44529631E-01 0.20390430E+03</pdfrwt>
<totfact> 0.90314852E+04</totfact>
</mgrwt>
</event>
<event>
 4    1  0.4365842E+000  0.2152729E+03  0.7546771E-02  0.1137457E+00
         21   -1    0    0  503  502  0.00000000000E+00  0.00000000000E+00  0.42048773897E+02  0.42048773897E+02  0.00000000000E+00 0.  1.
         21   -1    0    0  501  503 -0.00000000000E+00 -0.00000000000E+00 -0.11348055844E+04  0.11348055844E+04  0.00000000000E+00 0.  1.
          6    1    1    2  501    0  0.43722386952E+02 -0.12042337431E+03 -0.64625569558E+03  0.68116727775E+03  0.17300000000E+03 0.  1.
         -6    1    1    2    0  502 -0.43722386952E+02  0.12042337431E+03 -0.44650111493E+03  0.49568708056E+03  0.17300000000E+03 0.  1.
<mgrwt>
<rscale>  2 0.21527293E+03</rscale>
<asrwt>0</asrwt>
<pdfrwt beam="1">  1       21 0.64690416E-02 0.21527293E+03</pdfrwt>
<pdfrwt beam="2">  1       21 0.17458549E+00 0.21527293E+03</pdfrwt>
<totfact> 0.33860130E+04</totfact>
</mgrwt>
</event>
<event>
 4    1  0.4365842E+000  0.1758721E+03  0.7546771E-02  0.1171859E+00
         21   -1    0    0  503  502  0.00000000000E+00  0.00000000000E+00  0.23455698938E+03  0.23455698938E+03  0.00000000000E+00 0. -1.
         21   -1    0    0  501  503 -0.00000000000E+00 -0.00000000000E+00 -0.17017527792E+03  0.17017527792E+03  0.00000000000E+00 0. -1.
          6    1    1    2  501    0  0.23672430788E+02 -0.21014512172E+02 -0.63819878444E+02  0.18709348087E+03  0.17300000000E+03 0. -1.
         -6    1    1    2    0  502 -0.23672430788E+02  0.21014512172E+02  0.12820158991E+03  0.21763878642E+03  0.17300000000E+03 0. -1.
<mgrwt>
<rscale>  2 0.17587209E+03</rscale>
<asrwt>0</asrwt>
<pdfrwt beam="1">  1       21 0.36085691E-01 0.17587209E+03</pdfrwt>
<pdfrwt beam="2">  1       21 0.26180812E-01 0.17587209E+03</pdfrwt>
<totfact> 0.10333497E+05</totfact>
</mgrwt>
</event>
<event>
 4    1  0.4365842E+000  0.2136782E+03  0.7546771E-02  0.1138686E+00
         21   -1    0    0  503  502  0.00000000000E+00  0.00000000000E+00  0.35656802586E+03  0.35656802586E+03  0.00000000000E+00 0.  1.
         21   -1    0    0  501  503 -0.00000000000E+00 -0.00000000000E+00 -0.84982870432E+03  0.84982870432E+03  0.00000000000E+00 0.  1.
          6    1    1    2  501    0  0.64872372262E+02 -0.10733569956E+03 -0.80253027486E+03  0.83048974656E+03  0.17300000000E+03 0.  1.
         -6    1    1    2    0  502 -0.64872372262E+02  0.10733569956E+03  0.30926959639E+03  0.37590698362E+03  0.17300000000E+03 0.  1.
<mgrwt>
<rscale>  2 0.21367821E+03</rscale>
<asrwt>0</asrwt>
<pdfrwt beam="1">  1       21 0.54856620E-01 0.21367821E+03</pdfrwt>
<pdfrwt beam="2">  1       21 0.13074288E+00 0.21367821E+03</pdfrwt>
<totfact> 0.13096511E+03</totfact>
</mgrwt>
</event>
<event>
 4    1  0.4365842E+000  0.1791318E+03  0.7546771E-02  0.1168646E+00
         21   -1    0    0  501  502  0.00000000000E+00  0.00000000000E+00  0.16972523606E+03  0.16972523606E+03  0.00000000000E+00 0. -1.
         21   -1    0    0  502  503 -0.00000000000E+00 -0.00000000000E+00 -0.43747108480E+03  0.43747108480E+03  0.00000000000E+00 0. -1.
          6    1    1    2  501    0 -0.40460327408E+02  0.22850562702E+02  0.94902984326E+02  0.20271843218E+03  0.17300000000E+03 0. -1.
         -6    1    1    2    0  503  0.40460327408E+02 -0.22850562702E+02 -0.36264883307E+03  0.40447788868E+03  0.17300000000E+03 0. -1.
<mgrwt>
<rscale>  2 0.17913176E+03</rscale>
<asrwt>0</asrwt>
<pdfrwt beam="1">  1       21 0.26111575E-01 0.17913176E+03</pdfrwt>
<pdfrwt beam="2">  1       21 0.67303243E-01 0.17913176E+03</pdfrwt>
<totfact> 0.28363765E+04</totfact>
</mgrwt>
</event>
<event>
 4    1  0.4365842E+000  0.2170842E+03  0.7546771E-02  0.1136076E+00
         21   -1    0    0  501  502  0.00000000000E+00  0.00000000000E+00  0.52382370312E+03  0.52382370312E+03  0.00000000000E+00 0.  1.
         21   -1    0    0  502  503 -0.00000000000E+00 -0.00000000000E+00 -0.89967421822E+02  0.89967421822E+02  0.00000000000E+00 0.  1.
          6    1    1    2  501    0 -0.20905382718E+02  0.12945853071E+03  0.21518415566E+03  0.30566283229E+03  0.17300000000E+03 0.  1.
         -6    1    1    2    0  503  0.20905382718E+02 -0.12945853071E+03  0.21867212564E+03  0.30812829265E+03  0.17300000000E+03 0.  1.
<mgrwt>
<rscale>  2 0.21708419E+03</rscale>
<asrwt>0</asrwt>
<pdfrwt beam="1">  1       21 0.80588260E-01 0.21708419E+03</pdfrwt>
<pdfrwt beam="2">  1       21 0.13841142E-01 0.21708419E+03</pdfrwt>
<totfact> 0.60708761E+04</totfact>
</mgrwt>
</event>
<event>
 4    1  0.4365842E+000  0.2269815E+03  0.7546771E-02  0.1128783E+00
         21   -1    0    0  503  502  0.00000000000E+00  0.00000000000E+00  0.52886627144E+02  0.52886627144E+02  0.00000000000E+00 0. -1.
         21   -1    0    0  501  503 -0.00000000000E+00 -0.00000000000E+00 -0.16861467942E+04  0.16861467942E+04  0.00000000000E+00 0. -1.
          6    1    1    2  501    0  0.18475627312E+02  0.14577467568E+03 -0.13816489309E+04  0.14001694088E+04  0.17300000000E+03 0. -1.
         -6    1    1    2    0  502 -0.18475627312E+02 -0.14577467568E+03 -0.25161123608E+03  0.33886401254E+03  0.17300000000E+03 0. -1.
<mgrwt>
<rscale>  2 0.22698151E+03</rscale>
<asrwt>0</asrwt>
<pdfrwt beam="1">  1       21 0.81364036E-02 0.22698151E+03</pdfrwt>
<pdfrwt beam="2">  1       21 0.25940722E+00 0.22698151E+03</pdfrwt>
<totfact> 0.66026787E+03</totfact>
</mgrwt>
</event>
<event>
 4    1  0.4365842E+000  0.2870454E+03  0.7546771E-02  0.1091902E+00
         21   -1    0    0  501  502  0.00000000000E+00  0.00000000000E+00  0.89526692542E+03  0.89526692542E+03  0.00000000000E+00 0. -1.
         21   -1    0    0  502  503 -0.00000000000E+00 -0.00000000000E+00 -0.16250768782E+03  0.16250768782E+03  0.00000000000E+00 0.  1.
          6    1    1    2  501    0 -0.13725320524E+03  0.18337836387E+03  0.71466836753E+03  0.77015968619E+03  0.17300000000E+03 0. -1.
         -6    1    1    2    0  503  0.13725320524E+03 -0.18337836387E+03  0.18090870079E+02  0.28761492705E+03  0.17300000000E+03 0.  1.
<mgrwt>
<rscale>  2 0.28704541E+03</rscale>
<asrwt>0</asrwt>
<pdfrwt beam="1">  1       21 0.13773337E+00 0.28704541E+03</pdfrwt>
<pdfrwt beam="2">  1       21 0.25001183E-01 0.28704541E+03</pdfrwt>
<totfact> 0.52998139E+03</totfact>
</mgrwt>
</event>
<event>
 4    1  0.4365842E+000  0.2119974E+03  0.7546771E-02  0.1139994E+00
         21   -1    0    0  503  502  0.00000000000E+00  0.00000000000E+00  0.15909765961E+03  0.15909765961E+03  0.00000000000E+00 0.  1.
         21   -1    0    0  501  503 -0.00000000000E+00 -0.00000000000E+00 -0.84487557361E+03  0.84487557361E+03  0.00000000000E+00 0.  1.
          6    1    1    2  501    0  0.10531682662E+03 -0.62627940007E+02 -0.75244592162E+03  0.78174021120E+03  0.17300000000E+03 0.  1.
         -6    1    1    2    0  502 -0.10531682662E+03  0.62627940007E+02  0.66668007617E+02  0.22223302202E+03  0.17300000000E+03 0.  1.
<mgrwt>
<rscale>  2 0.21199739E+03</rscale>
<asrwt>0</asrwt>
<pdfrwt beam="1">  1       21 0.24476562E-01 0.21199739E+03</pdfrwt>
<pdfrwt beam="2">  1       21 0.12998086E+00 0.21199739E+03</pdfrwt>
<totfact> 0.67190599E+03</totfact>
</mgrwt>
</event>
<event>
 4    1  0.4365842E+000  0.2126526E+03  0.7546771E-02  0.1139482E+00
         21   -1    0    0  503  502  0.00000000000E+00  0.00000000000E+00  0.30264383930E+03  0.30264383930E+03  0.00000000000E+00 0.  1.
         21   -1    0    0  501  503 -0.00000000000E+00 -0.00000000000E+00 -0.16682874891E+03  0.16682874891E+03  0.00000000000E+00 0.  1.
          6    1    1    2  501    0  0.76038323610E+02  0.97520828138E+02 -0.79195845240E+01  0.21280004323E+03  0.17300000000E+03 0.  1.
         -6    1    1    2    0  502 -0.76038323610E+02 -0.97520828138E+02  0.14373467492E+03  0.25667254499E+03  0.17300000000E+03 0.  1.
<mgrwt>
<rscale>  2 0.21265262E+03</rscale>
<asrwt>0</asrwt>
<pdfrwt beam="1">  1       21 0.46560591E-01 0.21265262E+03</pdfrwt>
<pdfrwt beam="2">  1       21 0.25665961E-01 0.21265262E+03</pdfrwt>
<totfact> 0.63056376E+04</totfact>
</mgrwt>
</event>
<event>
 4    1  0.4365842E+000  0.2258383E+03  0.7546771E-02  0.1129604E+00
         21   -1    0    0  503  502  0.00000000000E+00  0.00000000000E+00  0.42349743412E+02  0.42349743412E+02  0.00000000000E+00 0. -1.
         21   -1    0    0  501  503 -0.00000000000E+00 -0.00000000000E+00 -0.13419902659E+04  0.13419902659E+04  0.00000000000E+00 0. -1.
          6    1    1    2  501    0 -0.87200612510E+02  0.11606037032E+03 -0.87151046133E+03  0.90029630711E+03  0.17300000000E+03 0. -1.
         -6    1    1    2    0  502  0.87200612510E+02 -0.11606037032E+03 -0.42813006117E+03  0.48404370222E+03  0.17300000000E+03 0. -1.
<mgrwt>
<rscale>  2 0.22583834E+03</rscale>
<asrwt>0</asrwt>
<pdfrwt beam="1">  1       21 0.65153457E-02 0.22583834E+03</pdfrwt>
<pdfrwt beam="2">  1       21 0.20646002E+00 0.22583834E+03</pdfrwt>
<totfact> 0.20403997E+04</totfact>
</mgrwt>
</event>
<event>
 4    1  0.4365842E+000  0.1937613E+03  0.7546771E-02  0.1155112E+00
         21   -1    0    0  503  502  0.00000000000E+00  0.00000000000E+00  0.80381492437E+03  0.80381492437E+03  0.00000000000E+00 0. -1.
         21   -1    0    0  501  503 -0.00000000000E+00 -0.00000000000E+00 -0.18268675950E+03  0.18268675950E+03  0.00000000000E+00 0. -1.
          6    1    1    2  501    0  0.64438245142E+02 -0.58839972034E+02 -0.11498742823E+03  0.22531209110E+03  0.17300000000E+03 0. -1.
         -6    1    1    2    0  502 -0.64438245142E+02  0.58839972034E+02  0.73611559309E+03  0.76118959277E+03  0.17300000000E+03 0. -1.
<mgrwt>
<rscale>  2 0.19376127E+03</rscale>
<asrwt>0</asrwt>
<pdfrwt beam="1">  1       21 0.12366383E+00 0.19376127E+03</pdfrwt>
<pdfrwt beam="2">  1       21 0.28105656E-01 0.19376127E+03</pdfrwt>
<totfact> 0.59218584E+03</totfact>
</mgrwt>
</event>
<event>
 4    1  0.4365842E+000  0.3100954E+03  0.7546771E-02  0.1080300E+00
         21   -1    0    0  503  502  0.00000000000E+00  0.00000000000E+00  0.59855008930E+02  0.59855008930E+02  0.00000000000E+00 0. -1.
         21   -1    0    0  501  503 -0.00000000000E+00 -0.00000000000E+00 -0.16120560710E+04  0.16120560710E+04  0.00000000000E+00 0.  1.
          6    1    1    2  501    0  0.53364394068E+02  0.25175866355E+03 -0.72717968491E+03  0.79053746108E+03  0.17300000000E+03 0. -1.
         -6    1    1    2    0  502 -0.53364394068E+02 -0.25175866355E+03 -0.82502137714E+03  0.88137361883E+03  0.17300000000E+03 0.  1.
<mgrwt>
<rscale>  2 0.31009544E+03</rscale>
<asrwt>0</asrwt>
<pdfrwt beam="1">  1       21 0.92084655E-02 0.31009544E+03</pdfrwt>
<pdfrwt beam="2">  1       21 0.24800856E+00 0.31009544E+03</pdfrwt>
<totfact> 0.58376413E+03</totfact>
</mgrwt>
</event>
<event>
 4    1  0.4365842E+000  0.1838141E+03  0.7546771E-02  0.1164162E+00
         21   -1    0    0  503  502  0.00000000000E+00  0.00000000000E+00  0.18043799048E+03  0.18043799048E+03  0.00000000000E+00 0.  1.
         21   -1    0    0  501  503 -0.00000000000E+00 -0.00000000000E+00 -0.19162722901E+03  0.19162722901E+03  0.00000000000E+00 0.  1.
          6    1    1    2  501    0 -0.51246358754E+02  0.35106201311E+02  0.22510751549E+02  0.18518738778E+03  0.17300000000E+03 0.  1.
         -6    1    1    2    0  502  0.51246358754E+02 -0.35106201311E+02 -0.33699990080E+02  0.18687783172E+03  0.17300000000E+03 0.  1.
<mgrwt>
<rscale>  2 0.18381413E+03</rscale>
<asrwt>0</asrwt>
<pdfrwt beam="1">  1       21 0.27759691E-01 0.18381413E+03</pdfrwt>
<pdfrwt beam="2">  1       21 0.29481112E-01 0.18381413E+03</pdfrwt>
<totfact> 0.13697353E+05</totfact>
</mgrwt>
</event>
<event>
 4    1  0.4365842E+000  0.1945035E+03  0.7546771E-02  0.1154461E+00
         21   -1    0    0  501  502  0.00000000000E+00  0.00000000000E+00  0.99196346338E+02  0.99196346338E+02  0.00000000000E+00 0. -1.
         21   -1    0    0  502  503 -0.00000000000E+00 -0.00000000000E+00 -0.47806107593E+03  0.47806107593E+03  0.00000000000E+00 0.  1.
          6    1    1    2  501    0 -0.88838602247E+02  0.32137138273E+01 -0.31922970659E+03  0.37381710873E+03  0.17300000000E+03 0.  1.
         -6    1    1    2    0  503  0.88838602247E+02 -0.32137138273E+01 -0.59635023000E+02  0.20344031354E+03  0.17300000000E+03 0. -1.
<mgrwt>
<rscale>  2 0.19450354E+03</rscale>
<asrwt>0</asrwt>
<pdfrwt beam="1">  1       21 0.15260976E-01 0.19450354E+03</pdfrwt>
<pdfrwt beam="2">  1       21 0.73547858E-01 0.19450354E+03</pdfrwt>
<totfact> 0.63080536E+04</totfact>
</mgrwt>
</event>
<event>
 4    1  0.4365842E+000  0.1780447E+03  0.7546771E-02  0.1169709E+00
         21   -1    0    0  501  502  0.00000000000E+00  0.00000000000E+00  0.10510009717E+03  0.10510009717E+03  0.00000000000E+00 0.  1.
         21   -1    0    0  502  503 -0.00000000000E+00 -0.00000000000E+00 -0.10200699712E+04  0.10200699712E+04  0.00000000000E+00 0.  1.
          6    1    1    2  501    0  0.36812766774E+02 -0.20389995488E+02  0.14656908630E+02  0.17864701700E+03  0.17300000000E+03 0.  1.
         -6    1    1    2    0  503 -0.36812766774E+02  0.20389995488E+02 -0.92962678262E+03  0.94652305132E+03  0.17300000000E+03 0.  1.
<mgrwt>
<rscale>  2 0.17804475E+03</rscale>
<asrwt>0</asrwt>
<pdfrwt beam="1">  1       21 0.16169245E-01 0.17804475E+03</pdfrwt>
<pdfrwt beam="2">  1       21 0.15693385E+00 0.17804475E+03</pdfrwt>
<totfact> 0.91741365E+03</totfact>
</mgrwt>
</event>
<event>
 4    1  0.4365842E+000  0.1852060E+03  0.7546771E-02  0.1162858E+00
         21   -1    0    0  501  502  0.00000000000E+00  0.00000000000E+00  0.30696130844E+03  0.30696130844E+03  0.00000000000E+00 0.  1.
         21   -1    0    0  502  503 -0.00000000000E+00 -0.00000000000E+00 -0.16486576445E+03  0.16486576445E+03  0.00000000000E+00 0.  1.
          6    1    1    2  501    0 -0.36586214912E+02 -0.55079178376E+02  0.20496036986E+03  0.27624268357E+03  0.17300000000E+03 0.  1.
         -6    1    1    2    0  503  0.36586214912E+02  0.55079178376E+02 -0.62864825874E+02  0.19558438932E+03  0.17300000000E+03 0.  1.
<mgrwt>
<rscale>  2 0.18520601E+03</rscale>
<asrwt>0</asrwt>
<pdfrwt beam="1">  1       21 0.47224816E-01 0.18520601E+03</pdfrwt>
<pdfrwt beam="2">  1       21 0.25363964E-01 0.18520601E+03</pdfrwt>
<totfact> 0.63416937E+04</totfact>
</mgrwt>
</event>
<event>
 4    1  0.4365842E+000  0.1919446E+03  0.7546771E-02  0.1156719E+00
         21   -1    0    0  503  502  0.00000000000E+00  0.00000000000E+00  0.18590691985E+04  0.18590691985E+04  0.00000000000E+00 0.  1.
         21   -1    0    0  501  503 -0.00000000000E+00 -0.00000000000E+00 -0.34440919262E+02  0.34440919262E+02  0.00000000000E+00 0. -1.
          6    1    1    2  501    0  0.81495938409E+02 -0.16496613397E+02  0.29540704967E+03  0.35228972625E+03  0.17300000000E+03 0. -1.
         -6    1    1    2    0  502 -0.81495938409E+02  0.16496613397E+02  0.15292212296E+04  0.15412203915E+04  0.17300000000E+03 0.  1.
<mgrwt>
<rscale>  2 0.19194459E+03</rscale>
<asrwt>0</asrwt>
<pdfrwt beam="1">  1       21 0.28601057E+00 0.19194459E+03</pdfrwt>
<pdfrwt beam="2">  1       21 0.52986044E-02 0.19194459E+03</pdfrwt>
<totfact> 0.10023412E+04</totfact>
</mgrwt>
</event>
<event>
 4    1  0.4365842E+000  0.3868769E+03  0.7546771E-02  0.1048421E+00
         21   -1    0    0  501  502  0.00000000000E+00  0.00000000000E+00  0.38208075343E+03  0.38208075343E+03  0.00000000000E+00 0.  1.
         21   -1    0    0  502  503 -0.00000000000E+00 -0.00000000000E+00 -0.43066285796E+03  0.43066285796E+03  0.00000000000E+00 0. -1.
          6    1    1    2  501    0 -0.26672927314E+03  0.22045457985E+03  0.97887506271E+02  0.39906852897E+03  0.17300000000E+03 0.  1.
         -6    1    1    2    0  503  0.26672927314E+03 -0.22045457985E+03 -0.14646961080E+03  0.41367508242E+03  0.17300000000E+03 0. -1.
<mgrwt>
<rscale>  2 0.38687689E+03</rscale>
<asrwt>0</asrwt>
<pdfrwt beam="1">  1       21 0.58781655E-01 0.38687689E+03</pdfrwt>
<pdfrwt beam="2">  1       21 0.66255824E-01 0.38687689E+03</pdfrwt>
<totfact> 0.50941412E+03</totfact>
</mgrwt>
</event>
<event>
 4    1  0.4365842E+000  0.2171055E+03  0.7546771E-02  0.1136060E+00
         21   -1    0    0  501  502  0.00000000000E+00  0.00000000000E+00  0.39011419101E+03  0.39011419101E+03  0.00000000000E+00 0. -1.
         21   -1    0    0  502  503 -0.00000000000E+00 -0.00000000000E+00 -0.13318811341E+03  0.13318811341E+03  0.00000000000E+00 0. -1.
          6    1    1    2  501    0 -0.11367417802E+03  0.65451995118E+02  0.20818689032E+03  0.30079322418E+03  0.17300000000E+03 0. -1.
         -6    1    1    2    0  503  0.11367417802E+03 -0.65451995118E+02  0.48739187281E+02  0.22250908024E+03  0.17300000000E+03 0. -1.
<mgrwt>
<rscale>  2 0.21710546E+03</rscale>
<asrwt>0</asrwt>
<pdfrwt beam="1">  1       21 0.60017567E-01 0.21710546E+03</pdfrwt>
<pdfrwt beam="2">  1       21 0.20490479E-01 0.21710546E+03</pdfrwt>
<totfact> 0.56480681E+04</totfact>
</mgrwt>
</event>
<event>
 4    1  0.4365842E+000  0.2590476E+03  0.7546771E-02  0.1107717E+00
         21   -1    0    0  503  502  0.00000000000E+00  0.00000000000E+00  0.76047659781E+02  0.76047659781E+02  0.00000000000E+00 0.  1.
         21   -1    0    0  501  503 -0.00000000000E+00 -0.00000000000E+00 -0.88383508927E+03  0.88383508927E+03  0.00000000000E+00 0. -1.
          6    1    1    2  501    0 -0.42388690585E+02 -0.18809529769E+03 -0.42312760260E+03  0.49612761482E+03  0.17300000000E+03 0. -1.
         -6    1    1    2    0  502  0.42388690585E+02  0.18809529769E+03 -0.38465982688E+03  0.46375513422E+03  0.17300000000E+03 0. -1.
<mgrwt>
<rscale>  2 0.25904757E+03</rscale>
<asrwt>0</asrwt>
<pdfrwt beam="1">  1       21 0.11699640E-01 0.25904757E+03</pdfrwt>
<pdfrwt beam="2">  1       21 0.13597463E+00 0.25904757E+03</pdfrwt>
<totfact> 0.22803405E+04</totfact>
</mgrwt>
</event>
<event>
 4    1  0.4365842E+000  0.1910974E+03  0.7546771E-02  0.1157475E+00
         21   -1    0    0  501  502  0.00000000000E+00  0.00000000000E+00  0.26778443249E+02  0.26778443249E+02  0.00000000000E+00 0. -1.
         21   -1    0    0  502  503 -0.00000000000E+00 -0.00000000000E+00 -0.15734339908E+04  0.15734339908E+04  0.00000000000E+00 0. -1.
          6    1    1    2  501    0 -0.55775031159E+02 -0.58977625352E+02 -0.48122186605E+03  0.51777668812E+03  0.17300000000E+03 0. -1.
         -6    1    1    2    0  503  0.55775031159E+02  0.58977625352E+02 -0.10654336815E+04  0.10824357459E+04  0.17300000000E+03 0. -1.
<mgrwt>
<rscale>  2 0.19109740E+03</rscale>
<asrwt>0</asrwt>
<pdfrwt beam="1">  1       21 0.41197599E-02 0.19109740E+03</pdfrwt>
<pdfrwt beam="2">  1       21 0.24206680E+00 0.19109740E+03</pdfrwt>
<totfact> 0.27656516E+04</totfact>
</mgrwt>
</event>
<event>
 4    1  0.4365842E+000  0.1796562E+03  0.7546771E-02  0.1168136E+00
         21   -1    0    0  501  502  0.00000000000E+00  0.00000000000E+00  0.63406576754E+02  0.63406576754E+02  0.00000000000E+00 0. -1.
         21   -1    0    0  502  503 -0.00000000000E+00 -0.00000000000E+00 -0.56716935919E+03  0.56716935919E+03  0.00000000000E+00 0.  1.
          6    1    1    2  501    0  0.26728161336E+02 -0.40410002766E+02 -0.15094310946E+03  0.23464906824E+03  0.17300000000E+03 0. -1.
         -6    1    1    2    0  503 -0.26728161336E+02  0.40410002766E+02 -0.35281967297E+03  0.39592686770E+03  0.17300000000E+03 0.  1.
<mgrwt>
<rscale>  2 0.17965624E+03</rscale>
<asrwt>0</asrwt>
<pdfrwt beam="1">  1       21 0.97548581E-02 0.17965624E+03</pdfrwt>
<pdfrwt beam="2">  1       21 0.87256823E-01 0.17965624E+03</pdfrwt>
<totfact> 0.96165614E+04</totfact>
</mgrwt>
</event>
<event>
 4    1  0.4365842E+000  0.1876189E+03  0.7546771E-02  0.1160627E+00
         21   -1    0    0  501  502  0.00000000000E+00  0.00000000000E+00  0.53786077484E+03  0.53786077484E+03  0.00000000000E+00 0. -1.
         21   -1    0    0  502  503 -0.00000000000E+00 -0.00000000000E+00 -0.16484337794E+03  0.16484337794E+03  0.00000000000E+00 0. -1.
          6    1    1    2  501    0  0.68830917248E+02  0.23111809166E+02  0.45933998840E+03  0.49617947945E+03  0.17300000000E+03 0. -1.
         -6    1    1    2    0  503 -0.68830917248E+02 -0.23111809166E+02 -0.86322591498E+02  0.20652467333E+03  0.17300000000E+03 0. -1.
<mgrwt>
<rscale>  2 0.18761890E+03</rscale>
<asrwt>0</asrwt>
<pdfrwt beam="1">  1       21 0.82747811E-01 0.18761890E+03</pdfrwt>
<pdfrwt beam="2">  1       21 0.25360520E-01 0.18761890E+03</pdfrwt>
<totfact> 0.18833505E+04</totfact>
</mgrwt>
</event>
<event>
 4    1  0.4365842E+000  0.1871874E+03  0.7546771E-02  0.1161023E+00
         21   -1    0    0  503  502  0.00000000000E+00  0.00000000000E+00  0.24049079940E+04  0.24049079940E+04  0.00000000000E+00 0. -1.
         21   -1    0    0  501  503 -0.00000000000E+00 -0.00000000000E+00 -0.46314419687E+02  0.46314419687E+02  0.00000000000E+00 0. -1.
          6    1    1    2  501    0  0.71116855468E+02  0.72457032698E+01  0.16461597003E+03  0.24927399571E+03  0.17300000000E+03 0. -1.
         -6    1    1    2    0  502 -0.71116855468E+02 -0.72457032698E+01  0.21939776043E+04  0.22019484180E+04  0.17300000000E+03 0. -1.
<mgrwt>
<rscale>  2 0.18718736E+03</rscale>
<asrwt>0</asrwt>
<pdfrwt beam="1">  1       21 0.36998575E+00 0.18718736E+03</pdfrwt>
<pdfrwt beam="2">  1       21 0.71252972E-02 0.18718736E+03</pdfrwt>
<totfact> 0.19658078E+03</totfact>
</mgrwt>
</event>
<event>
 4    1  0.4365842E+000  0.2093688E+03  0.7546771E-02  0.1142067E+00
         21   -1    0    0  501  502  0.00000000000E+00  0.00000000000E+00  0.21542330595E+03  0.21542330595E+03  0.00000000000E+00 0.  1.
         21   -1    0    0  502  503 -0.00000000000E+00 -0.00000000000E+00 -0.42463862817E+03  0.42463862817E+03  0.00000000000E+00 0. -1.
          6    1    1    2  501    0  0.10322693051E+03  0.57013293890E+02  0.12634859410E+03  0.24453891734E+03  0.17300000000E+03 0.  1.
         -6    1    1    2    0  503 -0.10322693051E+03 -0.57013293890E+02 -0.33556391632E+03  0.39552301678E+03  0.17300000000E+03 0. -1.
<mgrwt>
<rscale>  2 0.20936885E+03</rscale>
<asrwt>0</asrwt>
<pdfrwt beam="1">  1       21 0.33142047E-01 0.20936885E+03</pdfrwt>
<pdfrwt beam="2">  1       21 0.65329020E-01 0.20936885E+03</pdfrwt>
<totfact> 0.18706245E+04</totfact>
</mgrwt>
</event>
<event>
 4    1  0.4365842E+000  0.3813639E+03  0.7546771E-02  0.1050431E+00
         21   -1    0    0  501  502  0.00000000000E+00  0.00000000000E+00  0.21133262995E+03  0.21133262995E+03  0.00000000000E+00 0. -1.
         21   -1    0    0  502  503 -0.00000000000E+00 -0.00000000000E+00 -0.90633307067E+03  0.90633307067E+03  0.00000000000E+00 0. -1.
          6    1    1    2  501    0 -0.33223934439E+03  0.71599346976E+02 -0.73341594395E+02  0.38835220859E+03  0.17300000000E+03 0. -1.
         -6    1    1    2    0  503  0.33223934439E+03 -0.71599346976E+02 -0.62165884633E+03  0.72931349203E+03  0.17300000000E+03 0. -1.
<mgrwt>
<rscale>  2 0.38136393E+03</rscale>
<asrwt>0</asrwt>
<pdfrwt beam="1">  1       21 0.32512712E-01 0.38136393E+03</pdfrwt>
<pdfrwt beam="2">  1       21 0.13943586E+00 0.38136393E+03</pdfrwt>
<totfact> 0.29239997E+03</totfact>
</mgrwt>
</event>
<event>
 4    1  0.4365842E+000  0.1970343E+03  0.7546771E-02  0.1152266E+00
         21   -1    0    0  501  502  0.00000000000E+00  0.00000000000E+00  0.66383403751E+03  0.66383403751E+03  0.00000000000E+00 0.  1.
         21   -1    0    0  502  503 -0.00000000000E+00 -0.00000000000E+00 -0.59094000115E+02  0.59094000115E+02  0.00000000000E+00 0.  1.
          6    1    1    2  501    0  0.23053081134E+02 -0.91444455477E+02  0.33914624151E+03  0.39222787524E+03  0.17300000000E+03 0.  1.
         -6    1    1    2    0  503 -0.23053081134E+02  0.91444455477E+02  0.26559379589E+03  0.33070016239E+03  0.17300000000E+03 0.  1.
<mgrwt>
<rscale>  2 0.19703434E+03</rscale>
<asrwt>0</asrwt>
<pdfrwt beam="1">  1       21 0.10212831E+00 0.19703434E+03</pdfrwt>
<pdfrwt beam="2">  1       21 0.90913851E-02 0.19703434E+03</pdfrwt>
<totfact> 0.74775779E+04</totfact>
</mgrwt>
</event>
<event>
 4    1  0.4365842E+000  0.1804267E+03  0.7546771E-02  0.1167391E+00
         21   -1    0    0  501  502  0.00000000000E+00  0.00000000000E+00  0.50706498146E+02  0.50706498146E+02  0.00000000000E+00 0.  1.
         21   -1    0    0  502  503 -0.00000000000E+00 -0.00000000000E+00 -0.90658106718E+03  0.90658106718E+03  0.00000000000E+00 0.  1.
          6    1    1    2  501    0  0.49876718505E+02 -0.11709561338E+02 -0.16936333216E+03  0.24746260153E+03  0.17300000000E+03 0.  1.
         -6    1    1    2    0  503 -0.49876718505E+02  0.11709561338E+02 -0.68651123687E+03  0.70982496379E+03  0.17300000000E+03 0.  1.
<mgrwt>
<rscale>  2 0.18042672E+03</rscale>
<asrwt>0</asrwt>
<pdfrwt beam="1">  1       21 0.78010006E-02 0.18042672E+03</pdfrwt>
<pdfrwt beam="2">  1       21 0.13947399E+00 0.18042672E+03</pdfrwt>
<totfact> 0.45611481E+04</totfact>
</mgrwt>
</event>
<event>
 4    1  0.4365842E+000  0.2269187E+03  0.7546771E-02  0.1128828E+00
         21   -1    0    0  501  502  0.00000000000E+00  0.00000000000E+00  0.24835905833E+03  0.24835905833E+03  0.00000000000E+00 0.  1.
         21   -1    0    0  502  503 -0.00000000000E+00 -0.00000000000E+00 -0.20784621344E+03  0.20784621344E+03  0.00000000000E+00 0.  1.
          6    1    1    2  501    0 -0.12469346279E+03  0.77554021260E+02  0.31632917191E+02  0.22911291392E+03  0.17300000000E+03 0.  1.
         -6    1    1    2    0  503  0.12469346279E+03 -0.77554021260E+02  0.88799276966E+01  0.22709235785E+03  0.17300000000E+03 0.  1.
<mgrwt>
<rscale>  2 0.22691868E+03</rscale>
<asrwt>0</asrwt>
<pdfrwt beam="1">  1       21 0.38209086E-01 0.22691868E+03</pdfrwt>
<pdfrwt beam="2">  1       21 0.31976341E-01 0.22691868E+03</pdfrwt>
<totfact> 0.61195202E+04</totfact>
</mgrwt>
</event>
<event>
 4    1  0.4365842E+000  0.2368020E+03  0.7546771E-02  0.1121942E+00
         21   -1    0    0  501  502  0.00000000000E+00  0.00000000000E+00  0.63903226766E+03  0.63903226766E+03  0.00000000000E+00 0.  1.
         21   -1    0    0  502  503 -0.00000000000E+00 -0.00000000000E+00 -0.12723716343E+03  0.12723716343E+03  0.00000000000E+00 0.  1.
          6    1    1    2  501    0 -0.66718317776E+02 -0.14729174095E+03  0.46933545386E+03  0.52569093499E+03  0.17300000000E+03 0.  1.
         -6    1    1    2    0  503  0.66718317776E+02  0.14729174095E+03  0.42459650365E+02  0.24057849610E+03  0.17300000000E+03 0.  1.
<mgrwt>
<rscale>  2 0.23680201E+03</rscale>
<asrwt>0</asrwt>
<pdfrwt beam="1">  1       21 0.98312654E-01 0.23680201E+03</pdfrwt>
<pdfrwt beam="2">  1       21 0.19574949E-01 0.23680201E+03</pdfrwt>
<totfact> 0.20016133E+04</totfact>
</mgrwt>
</event>
<event>
 4    1  0.4365842E+000  0.2097725E+03  0.7546771E-02  0.1141746E+00
         21   -1    0    0  503  502  0.00000000000E+00  0.00000000000E+00  0.11244717685E+04  0.11244717685E+04  0.00000000000E+00 0.  1.
         21   -1    0    0  501  503 -0.00000000000E+00 -0.00000000000E+00 -0.40008215372E+02  0.40008215372E+02  0.00000000000E+00 0.  1.
          6    1    1    2  501    0  0.98519210171E+02 -0.66101965409E+02  0.45613967140E+03  0.50206364579E+03  0.17300000000E+03 0. -1.
         -6    1    1    2    0  502 -0.98519210171E+02  0.66101965409E+02  0.62832388177E+03  0.66241633812E+03  0.17300000000E+03 0. -1.
<mgrwt>
<rscale>  2 0.20977251E+03</rscale>
<asrwt>0</asrwt>
<pdfrwt beam="1">  1       21 0.17299563E+00 0.20977251E+03</pdfrwt>
<pdfrwt beam="2">  1       21 0.61551109E-02 0.20977251E+03</pdfrwt>
<totfact> 0.37968003E+04</totfact>
</mgrwt>
</event>
<event>
 4    1  0.4365842E+000  0.1890744E+03  0.7546771E-02  0.1159299E+00
         21   -1    0    0  501  502  0.00000000000E+00  0.00000000000E+00  0.85144985977E+03  0.85144985977E+03  0.00000000000E+00 0. -1.
         21   -1    0    0  502  503 -0.00000000000E+00 -0.00000000000E+00 -0.10809592864E+03  0.10809592864E+03  0.00000000000E+00 0. -1.
          6    1    1    2  501    0 -0.33166656961E+02  0.68703021427E+02  0.74687777994E+03  0.77043854425E+03  0.17300000000E+03 0. -1.
         -6    1    1    2    0  503  0.33166656961E+02 -0.68703021427E+02 -0.35238488135E+01  0.18910724417E+03  0.17300000000E+03 0. -1.
<mgrwt>
<rscale>  2 0.18907441E+03</rscale>
<asrwt>0</asrwt>
<pdfrwt beam="1">  1       21 0.13099228E+00 0.18907441E+03</pdfrwt>
<pdfrwt beam="2">  1       21 0.16630143E-01 0.18907441E+03</pdfrwt>
<totfact> 0.13808596E+04</totfact>
</mgrwt>
</event>
<event>
 4    1  0.4365842E+000  0.1877801E+03  0.7546771E-02  0.1160479E+00
         21   -1    0    0  501  502  0.00000000000E+00  0.00000000000E+00  0.35709997130E+02  0.35709997130E+02  0.00000000000E+00 0.  1.
         21   -1    0    0  502  503 -0.00000000000E+00 -0.00000000000E+00 -0.12139594508E+04  0.12139594508E+04  0.00000000000E+00 0.  1.
          6    1    1    2  501    0 -0.41516169571E+02  0.60073143724E+02 -0.31921494437E+03  0.37035058478E+03  0.17300000000E+03 0.  1.
         -6    1    1    2    0  503  0.41516169571E+02 -0.60073143724E+02 -0.85903450925E+03  0.87931886311E+03  0.17300000000E+03 0.  1.
<mgrwt>
<rscale>  2 0.18778012E+03</rscale>
<asrwt>0</asrwt>
<pdfrwt beam="1">  1       21 0.54938465E-02 0.18778012E+03</pdfrwt>
<pdfrwt beam="2">  1       21 0.18676296E+00 0.18778012E+03</pdfrwt>
<totfact> 0.37677358E+04</totfact>
</mgrwt>
</event>
<event>
 4    1  0.4365842E+000  0.1864463E+03  0.7546771E-02  0.1161706E+00
         21   -1    0    0  501  502  0.00000000000E+00  0.00000000000E+00  0.27776089061E+04  0.27776089061E+04  0.00000000000E+00 0.  1.
         21   -1    0    0  502  503 -0.00000000000E+00 -0.00000000000E+00 -0.12765859390E+02  0.12765859390E+02  0.00000000000E+00 0.  1.
          6    1    1    2  501    0  0.49582261617E+02  0.48732222461E+02  0.15779369096E+04  0.15889138179E+04  0.17300000000E+03 0.  1.
         -6    1    1    2    0  503 -0.49582261617E+02 -0.48732222461E+02  0.11869061372E+04  0.12014609476E+04  0.17300000000E+03 0.  1.
<mgrwt>
<rscale>  2 0.18644632E+03</rscale>
<asrwt>0</asrwt>
<pdfrwt beam="1">  1       21 0.42732397E+00 0.18644632E+03</pdfrwt>
<pdfrwt beam="2">  1       21 0.19639806E-02 0.18644632E+03</pdfrwt>
<totfact> 0.74830606E+03</totfact>
</mgrwt>
</event>
<event>
 4    1  0.4365842E+000  0.1945959E+03  0.7546771E-02  0.1154380E+00
         21   -1    0    0  503  502  0.00000000000E+00  0.00000000000E+00  0.15984593188E+03  0.15984593188E+03  0.00000000000E+00 0.  1.
         21   -1    0    0  501  503 -0.00000000000E+00 -0.00000000000E+00 -0.24312631572E+03  0.24312631572E+03  0.00000000000E+00 0.  1.
          6    1    1    2  501    0 -0.83914536291E+02 -0.29948440601E+02 -0.73882954026E+02  0.20814958417E+03  0.17300000000E+03 0.  1.
         -6    1    1    2    0  502  0.83914536291E+02  0.29948440601E+02 -0.93974298145E+01  0.19482266342E+03  0.17300000000E+03 0.  1.
<mgrwt>
<rscale>  2 0.19459589E+03</rscale>
<asrwt>0</asrwt>
<pdfrwt beam="1">  1       21 0.24591682E-01 0.19459589E+03</pdfrwt>
<pdfrwt beam="2">  1       21 0.37404048E-01 0.19459589E+03</pdfrwt>
<totfact> 0.10766968E+05</totfact>
</mgrwt>
</event>
<event>
 4    1  0.4365842E+000  0.2188637E+03  0.7546771E-02  0.1134733E+00
         21   -1    0    0  503  502  0.00000000000E+00  0.00000000000E+00  0.42868638792E+03  0.42868638792E+03  0.00000000000E+00 0. -1.
         21   -1    0    0  501  503 -0.00000000000E+00 -0.00000000000E+00 -0.11366833844E+03  0.11366833844E+03  0.00000000000E+00 0. -1.
          6    1    1    2  501    0 -0.12333435109E+03 -0.52544797254E+02  0.12218653239E+03  0.25066085968E+03  0.17300000000E+03 0. -1.
         -6    1    1    2    0  502  0.12333435109E+03  0.52544797254E+02  0.19283151709E+03  0.29169386668E+03  0.17300000000E+03 0. -1.
<mgrwt>
<rscale>  2 0.21886370E+03</rscale>
<asrwt>0</asrwt>
<pdfrwt beam="1">  1       21 0.65951751E-01 0.21886370E+03</pdfrwt>
<pdfrwt beam="2">  1       21 0.17487437E-01 0.21886370E+03</pdfrwt>
<totfact> 0.61788471E+04</totfact>
</mgrwt>
</event>
<event>
 4    1  0.4365842E+000  0.1890033E+03  0.7546771E-02  0.1159363E+00
         21   -1    0    0  503  502  0.00000000000E+00  0.00000000000E+00  0.15131628771E+03  0.15131628771E+03  0.00000000000E+00 0. -1.
         21   -1    0    0  501  503 -0.00000000000E+00 -0.00000000000E+00 -0.41964550631E+03  0.41964550631E+03  0.00000000000E+00 0.  1.
          6    1    1    2  501    0 -0.62908309368E+02  0.42846241207E+02 -0.32297902975E+03  0.37421612664E+03  0.17300000000E+03 0.  1.
         -6    1    1    2    0  502  0.62908309368E+02 -0.42846241207E+02  0.54649811156E+02  0.19674566738E+03  0.17300000000E+03 0.  1.
<mgrwt>
<rscale>  2 0.18900332E+03</rscale>
<asrwt>0</asrwt>
<pdfrwt beam="1">  1       21 0.23279429E-01 0.18900332E+03</pdfrwt>
<pdfrwt beam="2">  1       21 0.64560846E-01 0.18900332E+03</pdfrwt>
<totfact> 0.38441174E+04</totfact>
</mgrwt>
</event>
<event>
 4    1  0.4365842E+000  0.1761916E+03  0.7546771E-02  0.1171541E+00
         21   -1    0    0  501  502  0.00000000000E+00  0.00000000000E+00  0.20244058639E+03  0.20244058639E+03  0.00000000000E+00 0.  1.
         21   -1    0    0  502  503 -0.00000000000E+00 -0.00000000000E+00 -0.19258058239E+03  0.19258058239E+03  0.00000000000E+00 0.  1.
          6    1    1    2  501    0  0.11961725174E+02  0.31167132849E+02  0.94079340939E+02  0.19973581409E+03  0.17300000000E+03 0.  1.
         -6    1    1    2    0  503 -0.11961725174E+02 -0.31167132849E+02 -0.84219336940E+02  0.19528535468E+03  0.17300000000E+03 0.  1.
<mgrwt>
<rscale>  2 0.17619158E+03</rscale>
<asrwt>0</asrwt>
<pdfrwt beam="1">  1       21 0.31144706E-01 0.17619158E+03</pdfrwt>
<pdfrwt beam="2">  1       21 0.29627782E-01 0.17619158E+03</pdfrwt>
<totfact> 0.10879790E+05</totfact>
</mgrwt>
</event>
<event>
 4    1  0.4365842E+000  0.1774328E+03  0.7546771E-02  0.1170311E+00
         21   -1    0    0  503  502  0.00000000000E+00  0.00000000000E+00  0.25715841420E+03  0.25715841420E+03  0.00000000000E+00 0. -1.
         21   -1    0    0  501  503 -0.00000000000E+00 -0.00000000000E+00 -0.12642522488E+03  0.12642522488E+03  0.00000000000E+00 0. -1.
          6    1    1    2  501    0 -0.39390538252E+02  0.13341884634E+01  0.31247086916E+02  0.18016318992E+03  0.17300000000E+03 0. -1.
         -6    1    1    2    0  502  0.39390538252E+02 -0.13341884634E+01  0.99486102400E+02  0.20342044915E+03  0.17300000000E+03 0. -1.
<mgrwt>
<rscale>  2 0.17743279E+03</rscale>
<asrwt>0</asrwt>
<pdfrwt beam="1">  1       21 0.39562833E-01 0.17743279E+03</pdfrwt>
<pdfrwt beam="2">  1       21 0.19450035E-01 0.17743279E+03</pdfrwt>
<totfact> 0.15048956E+05</totfact>
</mgrwt>
</event>
<event>
 4    1  0.4365842E+000  0.2093331E+03  0.7546771E-02  0.1142095E+00
         21   -1    0    0  501  502  0.00000000000E+00  0.00000000000E+00  0.13507973209E+04  0.13507973209E+04  0.00000000000E+00 0. -1.
         21   -1    0    0  502  503 -0.00000000000E+00 -0.00000000000E+00 -0.87272390494E+02  0.87272390494E+02  0.00000000000E+00 0. -1.
          6    1    1    2  501    0 -0.10325769003E+03  0.56825845907E+02  0.12017019460E+04  0.12197983007E+04  0.17300000000E+03 0. -1.
         -6    1    1    2    0  503  0.10325769003E+03 -0.56825845907E+02  0.61822984332E+02  0.21827141064E+03  0.17300000000E+03 0. -1.
<mgrwt>
<rscale>  2 0.20933305E+03</rscale>
<asrwt>0</asrwt>
<pdfrwt beam="1">  1       21 0.20781496E+00 0.20933305E+03</pdfrwt>
<pdfrwt beam="2">  1       21 0.13426523E-01 0.20933305E+03</pdfrwt>
<totfact> 0.56572642E+03</totfact>
</mgrwt>
</event>
<event>
 4    1  0.4365842E+000  0.2184268E+03  0.7546771E-02  0.1135061E+00
         21   -1    0    0  501  502  0.00000000000E+00  0.00000000000E+00  0.74047478877E+03  0.74047478877E+03  0.00000000000E+00 0. -1.
         21   -1    0    0  502  503 -0.00000000000E+00 -0.00000000000E+00 -0.64726848930E+02  0.64726848930E+02  0.00000000000E+00 0. -1.
          6    1    1    2  501    0 -0.26913888061E+02  0.13060216930E+03  0.36504586068E+03  0.42540423645E+03  0.17300000000E+03 0. -1.
         -6    1    1    2    0  503  0.26913888061E+02 -0.13060216930E+03  0.31070207916E+03  0.37979740124E+03  0.17300000000E+03 0. -1.
<mgrwt>
<rscale>  2 0.21842684E+03</rscale>
<asrwt>0</asrwt>
<pdfrwt beam="1">  1       21 0.11391919E+00 0.21842684E+03</pdfrwt>
<pdfrwt beam="2">  1       21 0.99579773E-02 0.21842684E+03</pdfrwt>
<totfact> 0.48395089E+04</totfact>
</mgrwt>
</event>
<event>
 4    1  0.4365842E+000  0.1758394E+03  0.7546771E-02  0.1171892E+00
         21   -1    0    0  501  502  0.00000000000E+00  0.00000000000E+00  0.25394578542E+03  0.25394578542E+03  0.00000000000E+00 0.  1.
         21   -1    0    0  502  503 -0.00000000000E+00 -0.00000000000E+00 -0.12839923196E+03  0.12839923196E+03  0.00000000000E+00 0.  1.
          6    1    1    2  501    0 -0.25941858694E+02 -0.17818524205E+02  0.10625699018E+03  0.20545079167E+03  0.17300000000E+03 0. -1.
         -6    1    1    2    0  503  0.25941858694E+02  0.17818524205E+02  0.19289563286E+02  0.17689422571E+03  0.17300000000E+03 0. -1.
<mgrwt>
<rscale>  2 0.17583936E+03</rscale>
<asrwt>0</asrwt>
<pdfrwt beam="1">  1       21 0.39068582E-01 0.17583936E+03</pdfrwt>
<pdfrwt beam="2">  1       21 0.19753728E-01 0.17583936E+03</pdfrwt>
<totfact> 0.15003577E+05</totfact>
</mgrwt>
</event>
<event>
 4    1  0.4365842E+000  0.2017050E+03  0.7546771E-02  0.1148308E+00
         21   -1    0    0  503  502  0.00000000000E+00  0.00000000000E+00  0.59682670250E+03  0.59682670250E+03  0.00000000000E+00 0. -1.
         21   -1    0    0  501  503 -0.00000000000E+00 -0.00000000000E+00 -0.81449826169E+02  0.81449826169E+02  0.00000000000E+00 0.  1.
          6    1    1    2  501    0  0.45346440495E+02  0.93271742881E+02  0.12074264651E+03  0.23508233530E+03  0.17300000000E+03 0.  1.
         -6    1    1    2    0  502 -0.45346440495E+02 -0.93271742881E+02  0.39463422982E+03  0.44319419337E+03  0.17300000000E+03 0. -1.
<mgrwt>
<rscale>  2 0.20170503E+03</rscale>
<asrwt>0</asrwt>
<pdfrwt beam="1">  1       21 0.91819490E-01 0.20170503E+03</pdfrwt>
<pdfrwt beam="2">  1       21 0.12530743E-01 0.20170503E+03</pdfrwt>
<totfact> 0.54217238E+04</totfact>
</mgrwt>
</event>
<event>
 4    1  0.4365842E+000  0.1809513E+03  0.7546771E-02  0.1166886E+00
         21   -1    0    0  501  502  0.00000000000E+00  0.00000000000E+00  0.20231668470E+03  0.20231668470E+03  0.00000000000E+00 0.  1.
         21   -1    0    0  502  503 -0.00000000000E+00 -0.00000000000E+00 -0.23443812377E+03  0.23443812377E+03  0.00000000000E+00 0.  1.
          6    1    1    2  501    0  0.49919711087E+02 -0.17954963855E+02  0.10545990161E+03  0.20944008482E+03  0.17300000000E+03 0.  1.
         -6    1    1    2    0  503 -0.49919711087E+02  0.17954963855E+02 -0.13758134068E+03  0.22731472364E+03  0.17300000000E+03 0.  1.
<mgrwt>
<rscale>  2 0.18095126E+03</rscale>
<asrwt>0</asrwt>
<pdfrwt beam="1">  1       21 0.31125644E-01 0.18095126E+03</pdfrwt>
<pdfrwt beam="2">  1       21 0.36067403E-01 0.18095126E+03</pdfrwt>
<totfact> 0.73869955E+04</totfact>
</mgrwt>
</event>
<event>
 4    1  0.4365842E+000  0.2257539E+03  0.7546771E-02  0.1129665E+00
         21   -1    0    0  501  502  0.00000000000E+00  0.00000000000E+00  0.14450485573E+03  0.14450485573E+03  0.00000000000E+00 0. -1.
         21   -1    0    0  502  503 -0.00000000000E+00 -0.00000000000E+00 -0.41939101300E+03  0.41939101300E+03  0.00000000000E+00 0. -1.
          6    1    1    2  501    0 -0.85569269372E+02  0.11710555454E+03 -0.24998313358E+02  0.22713371929E+03  0.17300000000E+03 0. -1.
         -6    1    1    2    0  503  0.85569269372E+02 -0.11710555454E+03 -0.24988784391E+03  0.33676214945E+03  0.17300000000E+03 0. -1.
<mgrwt>
<rscale>  2 0.22575387E+03</rscale>
<asrwt>0</asrwt>
<pdfrwt beam="1">  1       21 0.22231516E-01 0.22575387E+03</pdfrwt>
<pdfrwt beam="2">  1       21 0.64521695E-01 0.22575387E+03</pdfrwt>
<totfact> 0.41235706E+04</totfact>
</mgrwt>
</event>
<event>
 4    1  0.4365842E+000  0.2061667E+03  0.7546771E-02  0.1144638E+00
         21   -1    0    0  501  502  0.00000000000E+00  0.00000000000E+00  0.14438796811E+03  0.14438796811E+03  0.00000000000E+00 0. -1.
         21   -1    0    0  502  503 -0.00000000000E+00 -0.00000000000E+00 -0.36266707369E+03  0.36266707369E+03  0.00000000000E+00 0. -1.
          6    1    1    2  501    0 -0.32755686025E+01 -0.11209353147E+03  0.87385112835E+00  0.20616850575E+03  0.17300000000E+03 0. -1.
         -6    1    1    2    0  503  0.32755686025E+01  0.11209353147E+03 -0.21915295670E+03  0.30088653605E+03  0.17300000000E+03 0. -1.
<mgrwt>
<rscale>  2 0.20616665E+03</rscale>
<asrwt>0</asrwt>
<pdfrwt beam="1">  1       21 0.22213534E-01 0.20616665E+03</pdfrwt>
<pdfrwt beam="2">  1       21 0.55794934E-01 0.20616665E+03</pdfrwt>
<totfact> 0.56987991E+04</totfact>
</mgrwt>
</event>
<event>
 4    1  0.4365842E+000  0.2929509E+03  0.7546771E-02  0.1088818E+00
         21   -1    0    0  501  502  0.00000000000E+00  0.00000000000E+00  0.43199524859E+02  0.43199524859E+02  0.00000000000E+00 0. -1.
         21   -1    0    0  502  503 -0.00000000000E+00 -0.00000000000E+00 -0.20172173133E+04  0.20172173133E+04  0.00000000000E+00 0. -1.
          6    1    1    2  501    0 -0.21266871080E+03 -0.10326314014E+03 -0.86009210977E+03  0.90861361092E+03  0.17300000000E+03 0. -1.
         -6    1    1    2    0  503  0.21266871080E+03  0.10326314014E+03 -0.11139256786E+04  0.11518032272E+04  0.17300000000E+03 0. -1.
<mgrwt>
<rscale>  2 0.29295095E+03</rscale>
<asrwt>0</asrwt>
<pdfrwt beam="1">  1       21 0.66460805E-02 0.29295095E+03</pdfrwt>
<pdfrwt beam="2">  1       21 0.31034114E+00 0.29295095E+03</pdfrwt>
<totfact> 0.44701378E+03</totfact>
</mgrwt>
</event>
<event>
 4    1  0.4365842E+000  0.2041668E+03  0.7546771E-02  0.1146270E+00
         21   -1    0    0  503  502  0.00000000000E+00  0.00000000000E+00  0.26179907424E+03  0.26179907424E+03  0.00000000000E+00 0. -1.
         21   -1    0    0  501  503 -0.00000000000E+00 -0.00000000000E+00 -0.18106507923E+03  0.18106507923E+03  0.00000000000E+00 0. -1.
          6    1    1    2  501    0  0.23382952530E+02 -0.10586935001E+03 -0.36543133131E+02  0.20741138426E+03  0.17300000000E+03 0. -1.
         -6    1    1    2    0  502 -0.23382952530E+02  0.10586935001E+03  0.11727712815E+03  0.23545276921E+03  0.17300000000E+03 0. -1.
<mgrwt>
<rscale>  2 0.20416680E+03</rscale>
<asrwt>0</asrwt>
<pdfrwt beam="1">  1       21 0.40276781E-01 0.20416680E+03</pdfrwt>
<pdfrwt beam="2">  1       21 0.27856166E-01 0.20416680E+03</pdfrwt>
<totfact> 0.72725495E+04</totfact>
</mgrwt>
</event>
<event>
 4    1  0.4365842E+000  0.1748003E+03  0.7546771E-02  0.1172932E+00
         21   -1    0    0  501  502  0.00000000000E+00  0.00000000000E+00  0.10616509286E+03  0.10616509286E+03  0.00000000000E+00 0. -1.
         21   -1    0    0  502  503 -0.00000000000E+00 -0.00000000000E+00 -0.32854951220E+03  0.32854951220E+03  0.00000000000E+00 0. -1.
          6    1    1    2  501    0 -0.11724594972E+02 -0.22105933323E+02 -0.34651297924E+02  0.17820171397E+03  0.17300000000E+03 0. -1.
         -6    1    1    2    0  503  0.11724594972E+02  0.22105933323E+02 -0.18773312142E+03  0.25651289108E+03  0.17300000000E+03 0. -1.
<mgrwt>
<rscale>  2 0.17480028E+03</rscale>
<asrwt>0</asrwt>
<pdfrwt beam="1">  1       21 0.16333091E-01 0.17480028E+03</pdfrwt>
<pdfrwt beam="2">  1       21 0.50546079E-01 0.17480028E+03</pdfrwt>
<totfact> 0.12586236E+05</totfact>
</mgrwt>
</event>
<event>
 4    1  0.4365842E+000  0.1890440E+03  0.7546771E-02  0.1159326E+00
         21   -1    0    0  503  502  0.00000000000E+00  0.00000000000E+00  0.16092539617E+04  0.16092539617E+04  0.00000000000E+00 0.  1.
         21   -1    0    0  501  503 -0.00000000000E+00 -0.00000000000E+00 -0.34027190600E+02  0.34027190600E+02  0.00000000000E+00 0. -1.
          6    1    1    2  501    0  0.33925793546E+02 -0.68247228104E+02  0.30336260416E+03  0.35744441976E+03  0.17300000000E+03 0. -1.
         -6    1    1    2    0  502 -0.33925793546E+02  0.68247228104E+02  0.12718641669E+04  0.12858367325E+04  0.17300000000E+03 0.  1.
<mgrwt>
<rscale>  2 0.18904403E+03</rscale>
<asrwt>0</asrwt>
<pdfrwt beam="1">  1       21 0.24757747E+00 0.18904403E+03</pdfrwt>
<pdfrwt beam="2">  1       21 0.52349536E-02 0.18904403E+03</pdfrwt>
<totfact> 0.17152672E+04</totfact>
</mgrwt>
</event>
<event>
 4    1  0.4365842E+000  0.3091358E+03  0.7546771E-02  0.1080761E+00
         21   -1    0    0  501  502  0.00000000000E+00  0.00000000000E+00  0.94225725383E+03  0.94225725383E+03  0.00000000000E+00 0. -1.
         21   -1    0    0  502  503 -0.00000000000E+00 -0.00000000000E+00 -0.12555094397E+03  0.12555094397E+03  0.00000000000E+00 0.  1.
          6    1    1    2  501    0 -0.36267272648E+02 -0.25361509381E+03  0.64241410159E+03  0.71292412555E+03  0.17300000000E+03 0. -1.
         -6    1    1    2    0  503  0.36267272648E+02  0.25361509381E+03  0.17429220828E+03  0.35488407225E+03  0.17300000000E+03 0.  1.
<mgrwt>
<rscale>  2 0.30913578E+03</rscale>
<asrwt>0</asrwt>
<pdfrwt beam="1">  1       21 0.14496265E+00 0.30913578E+03</pdfrwt>
<pdfrwt beam="2">  1       21 0.19315530E-01 0.30913578E+03</pdfrwt>
<totfact> 0.74837855E+03</totfact>
</mgrwt>
</event>
<event>
 4    1  0.4365842E+000  0.1808557E+03  0.7546771E-02  0.1166977E+00
         21   -1    0    0  501  502  0.00000000000E+00  0.00000000000E+00  0.87880803571E+03  0.87880803571E+03  0.00000000000E+00 0. -1.
         21   -1    0    0  502  503 -0.00000000000E+00 -0.00000000000E+00 -0.33453732973E+03  0.33453732973E+03  0.00000000000E+00 0. -1.
          6    1    1    2  501    0 -0.35135108031E+02  0.39310333883E+02  0.84406503809E+03  0.86322335852E+03  0.17300000000E+03 0. -1.
         -6    1    1    2    0  503  0.35135108031E+02 -0.39310333883E+02 -0.29979433211E+03  0.35012200693E+03  0.17300000000E+03 0. -1.
<mgrwt>
<rscale>  2 0.18085568E+03</rscale>
<asrwt>0</asrwt>
<pdfrwt beam="1">  1       21 0.13520124E+00 0.18085568E+03</pdfrwt>
<pdfrwt beam="2">  1       21 0.51467282E-01 0.18085568E+03</pdfrwt>
<totfact> 0.14205887E+03</totfact>
</mgrwt>
</event>
<event>
 4    1  0.4365842E+000  0.1957605E+03  0.7546771E-02  0.1153366E+00
         21   -1    0    0  503  502  0.00000000000E+00  0.00000000000E+00  0.12114031435E+04  0.12114031435E+04  0.00000000000E+00 0.  1.
         21   -1    0    0  501  503 -0.00000000000E+00 -0.00000000000E+00 -0.67736787271E+02  0.67736787271E+02  0.00000000000E+00 0.  1.
          6    1    1    2  501    0  0.43795154492E+02  0.80468420079E+02  0.10491274798E+03  0.22210102853E+03  0.17300000000E+03 0.  1.
         -6    1    1    2    0  502 -0.43795154492E+02 -0.80468420079E+02  0.10387536082E+04  0.10570389022E+04  0.17300000000E+03 0.  1.
<mgrwt>
<rscale>  2 0.19576052E+03</rscale>
<asrwt>0</asrwt>
<pdfrwt beam="1">  1       21 0.18636970E+00 0.19576052E+03</pdfrwt>
<pdfrwt beam="2">  1       21 0.10421045E-01 0.19576052E+03</pdfrwt>
<totfact> 0.12405134E+04</totfact>
</mgrwt>
</event>
<event>
 4    1  0.4365842E+000  0.2056570E+03  0.7546771E-02  0.1145052E+00
         21   -1    0    0  501  502  0.00000000000E+00  0.00000000000E+00  0.15297634897E+03  0.15297634897E+03  0.00000000000E+00 0. -1.
         21   -1    0    0  502  503 -0.00000000000E+00 -0.00000000000E+00 -0.32764612806E+03  0.32764612806E+03  0.00000000000E+00 0. -1.
          6    1    1    2  501    0 -0.19354514652E+02 -0.10950441110E+03 -0.18230026087E+03  0.27482394074E+03  0.17300000000E+03 0. -1.
         -6    1    1    2    0  503  0.19354514652E+02  0.10950441110E+03  0.76304817901E+01  0.20579853629E+03  0.17300000000E+03 0. -1.
<mgrwt>
<rscale>  2 0.20565703E+03</rscale>
<asrwt>0</asrwt>
<pdfrwt beam="1">  1       21 0.23534823E-01 0.20565703E+03</pdfrwt>
<pdfrwt beam="2">  1       21 0.50407096E-01 0.20565703E+03</pdfrwt>
<totfact> 0.63280790E+04</totfact>
</mgrwt>
</event>
<event>
 4    1  0.4365842E+000  0.2123002E+03  0.7546771E-02  0.1139757E+00
         21   -1    0    0  501  502  0.00000000000E+00  0.00000000000E+00  0.20490651517E+03  0.20490651517E+03  0.00000000000E+00 0. -1.
         21   -1    0    0  502  503 -0.00000000000E+00 -0.00000000000E+00 -0.22145613850E+03  0.22145613850E+03  0.00000000000E+00 0. -1.
          6    1    1    2  501    0 -0.86012974715E+02 -0.88000797650E+02  0.92436296669E+01  0.21250133387E+03  0.17300000000E+03 0. -1.
         -6    1    1    2    0  503  0.86012974715E+02  0.88000797650E+02 -0.25793253003E+02  0.21386131980E+03  0.17300000000E+03 0. -1.
<mgrwt>
<rscale>  2 0.21230019E+03</rscale>
<asrwt>0</asrwt>
<pdfrwt beam="1">  1       21 0.31524079E-01 0.21230019E+03</pdfrwt>
<pdfrwt beam="2">  1       21 0.34070175E-01 0.21230019E+03</pdfrwt>
<totfact> 0.79621037E+04</totfact>
</mgrwt>
</event>
<event>
 4    1  0.4365842E+000  0.2692314E+03  0.7546771E-02  0.1101720E+00
         21   -1    0    0  503  502  0.00000000000E+00  0.00000000000E+00  0.14862879650E+03  0.14862879650E+03  0.00000000000E+00 0. -1.
         21   -1    0    0  501  503 -0.00000000000E+00 -0.00000000000E+00 -0.95052525722E+03  0.95052525722E+03  0.00000000000E+00 0.  1.
          6    1    1    2  501    0  0.10411593093E+03  0.17809100816E+03 -0.78444134325E+03  0.82935743516E+03  0.17300000000E+03 0.  1.
         -6    1    1    2    0  502 -0.10411593093E+03 -0.17809100816E+03 -0.17455117465E+02  0.26979661856E+03  0.17300000000E+03 0. -1.
<mgrwt>
<rscale>  2 0.26923138E+03</rscale>
<asrwt>0</asrwt>
<pdfrwt beam="1">  1       21 0.22865968E-01 0.26923138E+03</pdfrwt>
<pdfrwt beam="2">  1       21 0.14623466E+00 0.26923138E+03</pdfrwt>
<totfact> 0.54288470E+03</totfact>
</mgrwt>
</event>
<event>
 4    1  0.4365842E+000  0.2242087E+03  0.7546771E-02  0.1130784E+00
         21   -1    0    0  503  502  0.00000000000E+00  0.00000000000E+00  0.92132197680E+02  0.92132197680E+02  0.00000000000E+00 0. -1.
         21   -1    0    0  501  503 -0.00000000000E+00 -0.00000000000E+00 -0.11471040410E+04  0.11471040410E+04  0.00000000000E+00 0. -1.
          6    1    1    2  501    0 -0.70449933015E+02 -0.12400550694E+03 -0.97616232940E+03  0.10015799779E+04  0.17300000000E+03 0. -1.
         -6    1    1    2    0  502  0.70449933015E+02  0.12400550694E+03 -0.78809513972E+02  0.23765626082E+03  0.17300000000E+03 0. -1.
<mgrwt>
<rscale>  2 0.22420874E+03</rscale>
<asrwt>0</asrwt>
<pdfrwt beam="1">  1       21 0.14174183E-01 0.22420874E+03</pdfrwt>
<pdfrwt beam="2">  1       21 0.17647755E+00 0.22420874E+03</pdfrwt>
<totfact> 0.81584348E+03</totfact>
</mgrwt>
</event>
<event>
 4    1  0.4365842E+000  0.2858695E+03  0.7546771E-02  0.1092526E+00
         21   -1    0    0  501  502  0.00000000000E+00  0.00000000000E+00  0.18351827163E+03  0.18351827163E+03  0.00000000000E+00 0.  1.
         21   -1    0    0  502  503 -0.00000000000E+00 -0.00000000000E+00 -0.45420623313E+03  0.45420623313E+03  0.00000000000E+00 0. -1.
          6    1    1    2  501    0 -0.94119307052E+01 -0.22738469575E+03 -0.90703295930E+02  0.29991410802E+03  0.17300000000E+03 0.  1.
         -6    1    1    2    0  503  0.94119307052E+01  0.22738469575E+03 -0.17998466557E+03  0.33781039673E+03  0.17300000000E+03 0. -1.
<mgrwt>
<rscale>  2 0.28586952E+03</rscale>
<asrwt>0</asrwt>
<pdfrwt beam="1">  1       21 0.28233580E-01 0.28586952E+03</pdfrwt>
<pdfrwt beam="2">  1       21 0.69877882E-01 0.28586952E+03</pdfrwt>
<totfact> 0.21277177E+04</totfact>
</mgrwt>
</event>
<event>
 4    1  0.4365842E+000  0.1954707E+03  0.7546771E-02  0.1153618E+00
         21   -1    0    0  501  502  0.00000000000E+00  0.00000000000E+00  0.86066174440E+02  0.86066174440E+02  0.00000000000E+00 0. -1.
         21   -1    0    0  502  503 -0.00000000000E+00 -0.00000000000E+00 -0.77565888418E+03  0.77565888418E+03  0.00000000000E+00 0. -1.
          6    1    1    2  501    0 -0.89631882441E+02 -0.15682280308E+02 -0.62655934367E+03  0.65634245589E+03  0.17300000000E+03 0. -1.
         -6    1    1    2    0  503  0.89631882441E+02  0.15682280308E+02 -0.63033366071E+02  0.20538260273E+03  0.17300000000E+03 0. -1.
<mgrwt>
<rscale>  2 0.19547074E+03</rscale>
<asrwt>0</asrwt>
<pdfrwt beam="1">  1       21 0.13240950E-01 0.19547074E+03</pdfrwt>
<pdfrwt beam="2">  1       21 0.11933213E+00 0.19547074E+03</pdfrwt>
<totfact> 0.26287543E+04</totfact>
</mgrwt>
</event>
<event>
 4    1  0.4365842E+000  0.1746899E+03  0.7546771E-02  0.1173043E+00
         21   -1    0    0  501  502  0.00000000000E+00  0.00000000000E+00  0.18223775606E+03  0.18223775606E+03  0.00000000000E+00 0.  1.
         21   -1    0    0  502  503 -0.00000000000E+00 -0.00000000000E+00 -0.27799315735E+03  0.27799315735E+03  0.00000000000E+00 0.  1.
          6    1    1    2  501    0  0.56234117335E+01  0.23578467986E+02  0.97228328449E+02  0.19992477276E+03  0.17300000000E+03 0.  1.
         -6    1    1    2    0  503 -0.56234117335E+01 -0.23578467986E+02 -0.19298372974E+03  0.26030614064E+03  0.17300000000E+03 0.  1.
<mgrwt>
<rscale>  2 0.17468992E+03</rscale>
<asrwt>0</asrwt>
<pdfrwt beam="1">  1       21 0.28036578E-01 0.17468992E+03</pdfrwt>
<pdfrwt beam="2">  1       21 0.42768178E-01 0.17468992E+03</pdfrwt>
<totfact> 0.64413281E+04</totfact>
</mgrwt>
</event>
<event>
 4    1  0.4365842E+000  0.1776443E+03  0.7546771E-02  0.1170103E+00
         21   -1    0    0  501  502  0.00000000000E+00  0.00000000000E+00  0.23913583581E+03  0.23913583581E+03  0.00000000000E+00 0. -1.
         21   -1    0    0  502  503 -0.00000000000E+00 -0.00000000000E+00 -0.13239238180E+03  0.13239238180E+03  0.00000000000E+00 0. -1.
          6    1    1    2  501    0 -0.83582645460E+01  0.39479739467E+02  0.63928832601E+02  0.18879726177E+03  0.17300000000E+03 0.  1.
         -6    1    1    2    0  503  0.83582645460E+01 -0.39479739467E+02  0.42814621410E+02  0.18273095584E+03  0.17300000000E+03 0.  1.
<mgrwt>
<rscale>  2 0.17764434E+03</rscale>
<asrwt>0</asrwt>
<pdfrwt beam="1">  1       21 0.36790129E-01 0.17764434E+03</pdfrwt>
<pdfrwt beam="2">  1       21 0.20368059E-01 0.17764434E+03</pdfrwt>
<totfact> 0.15971512E+05</totfact>
</mgrwt>
</event>
<event>
 4    1  0.4365842E+000  0.2271662E+03  0.7546771E-02  0.1128650E+00
         21   -1    0    0  501  502  0.00000000000E+00  0.00000000000E+00  0.22600943511E+04  0.22600943511E+04  0.00000000000E+00 0. -1.
         21   -1    0    0  502  503 -0.00000000000E+00 -0.00000000000E+00 -0.26926908892E+02  0.26926908892E+02  0.00000000000E+00 0. -1.
          6    1    1    2  501    0 -0.14111905420E+03 -0.41962812925E+02  0.15624682051E+04  0.15788956131E+04  0.17300000000E+03 0. -1.
         -6    1    1    2    0  503  0.14111905420E+03  0.41962812925E+02  0.67069923714E+03  0.70812564692E+03  0.17300000000E+03 0. -1.
<mgrwt>
<rscale>  2 0.22716616E+03</rscale>
<asrwt>0</asrwt>
<pdfrwt beam="1">  1       21 0.34770667E+00 0.22716616E+03</pdfrwt>
<pdfrwt beam="2">  1       21 0.41426031E-02 0.22716616E+03</pdfrwt>
<totfact> 0.64053250E+03</totfact>
</mgrwt>
</event>
<event>
 4    1  0.4365842E+000  0.1926660E+03  0.7546771E-02  0.1156079E+00
         21   -1    0    0  501  502  0.00000000000E+00  0.00000000000E+00  0.11456860091E+03  0.11456860091E+03  0.00000000000E+00 0. -1.
         21   -1    0    0  502  503 -0.00000000000E+00 -0.00000000000E+00 -0.37148888075E+03  0.37148888075E+03  0.00000000000E+00 0.  1.
          6    1    1    2  501    0  0.84476685054E+02  0.74070144653E+01 -0.41567540391E+02  0.19709904768E+03  0.17300000000E+03 0. -1.
         -6    1    1    2    0  503 -0.84476685054E+02 -0.74070144653E+01 -0.21535273945E+03  0.28895843398E+03  0.17300000000E+03 0.  1.
<mgrwt>
<rscale>  2 0.19266597E+03</rscale>
<asrwt>0</asrwt>
<pdfrwt beam="1">  1       21 0.17625939E-01 0.19266597E+03</pdfrwt>
<pdfrwt beam="2">  1       21 0.57152134E-01 0.19266597E+03</pdfrwt>
<totfact> 0.83920738E+04</totfact>
</mgrwt>
</event>
<event>
 4    1  0.4365842E+000  0.1818009E+03  0.7546771E-02  0.1166071E+00
         21   -1    0    0  503  502  0.00000000000E+00  0.00000000000E+00  0.13001124069E+04  0.13001124069E+04  0.00000000000E+00 0.  1.
         21   -1    0    0  501  503 -0.00000000000E+00 -0.00000000000E+00 -0.25952677368E+02  0.25952677368E+02  0.00000000000E+00 0.  1.
          6    1    1    2  501    0  0.29379740944E+02  0.47533071637E+02  0.54227597398E+03  0.57193950207E+03  0.17300000000E+03 0.  1.
         -6    1    1    2    0  502 -0.29379740944E+02 -0.47533071637E+02  0.73188375551E+03  0.75412558216E+03  0.17300000000E+03 0.  1.
<mgrwt>
<rscale>  2 0.18180089E+03</rscale>
<asrwt>0</asrwt>
<pdfrwt beam="1">  1       21 0.20001724E+00 0.18180089E+03</pdfrwt>
<pdfrwt beam="2">  1       21 0.39927206E-02 0.18180089E+03</pdfrwt>
<totfact> 0.53134787E+04</totfact>
</mgrwt>
</event>
<event>
 4    1  0.4365842E+000  0.2135129E+03  0.7546771E-02  0.1138814E+00
         21   -1    0    0  503  502  0.00000000000E+00  0.00000000000E+00  0.87453126053E+03  0.87453126053E+03  0.00000000000E+00 0. -1.
         21   -1    0    0  501  503 -0.00000000000E+00 -0.00000000000E+00 -0.83158005878E+02  0.83158005878E+02  0.00000000000E+00 0. -1.
          6    1    1    2  501    0 -0.92645341900E+02  0.84116615404E+02  0.10318254674E+03  0.23713793943E+03  0.17300000000E+03 0. -1.
         -6    1    1    2    0  502  0.92645341900E+02 -0.84116615404E+02  0.68819070791E+03  0.72055132699E+03  0.17300000000E+03 0. -1.
<mgrwt>
<rscale>  2 0.21351291E+03</rscale>
<asrwt>0</asrwt>
<pdfrwt beam="1">  1       21 0.13454326E+00 0.21351291E+03</pdfrwt>
<pdfrwt beam="2">  1       21 0.12793540E-01 0.21351291E+03</pdfrwt>
<totfact> 0.20454963E+04</totfact>
</mgrwt>
</event>
<event>
 4    1  0.4365842E+000  0.1861575E+03  0.7546771E-02  0.1161973E+00
         21   -1    0    0  503  502  0.00000000000E+00  0.00000000000E+00  0.14124165209E+03  0.14124165209E+03  0.00000000000E+00 0. -1.
         21   -1    0    0  501  503 -0.00000000000E+00 -0.00000000000E+00 -0.31063472931E+03  0.31063472931E+03  0.00000000000E+00 0. -1.
          6    1    1    2  501    0 -0.57286166283E+02 -0.37999008860E+02 -0.18826967477E+03  0.26476423467E+03  0.17300000000E+03 0. -1.
         -6    1    1    2    0  502  0.57286166283E+02  0.37999008860E+02  0.18876597546E+02  0.18711214674E+03  0.17300000000E+03 0. -1.
<mgrwt>
<rscale>  2 0.18615754E+03</rscale>
<asrwt>0</asrwt>
<pdfrwt beam="1">  1       21 0.21729485E-01 0.18615754E+03</pdfrwt>
<pdfrwt beam="2">  1       21 0.47789958E-01 0.18615754E+03</pdfrwt>
<totfact> 0.82919557E+04</totfact>
</mgrwt>
</event>
<event>
 4    1  0.4365842E+000  0.1899745E+03  0.7546771E-02  0.1158484E+00
         21   -1    0    0  501  502  0.00000000000E+00  0.00000000000E+00  0.49496419697E+02  0.49496419697E+02  0.00000000000E+00 0.  1.
         21   -1    0    0  502  503 -0.00000000000E+00 -0.00000000000E+00 -0.11356919017E+04  0.11356919017E+04  0.00000000000E+00 0. -1.
          6    1    1    2  501    0  0.67724352754E+02  0.39682689325E+02 -0.18854579356E+03  0.26765616013E+03  0.17300000000E+03 0. -1.
         -6    1    1    2    0  503 -0.67724352754E+02 -0.39682689325E+02 -0.89764968841E+03  0.91753216123E+03  0.17300000000E+03 0. -1.
<mgrwt>
<rscale>  2 0.18997448E+03</rscale>
<asrwt>0</asrwt>
<pdfrwt beam="1">  1       21 0.76148341E-02 0.18997448E+03</pdfrwt>
<pdfrwt beam="2">  1       21 0.17472182E+00 0.18997448E+03</pdfrwt>
<totfact> 0.25909492E+04</totfact>
</mgrwt>
</event>
<event>
 4    1  0.4365842E+000  0.2441189E+03  0.7546771E-02  0.1117079E+00
         21   -1    0    0  503  502  0.00000000000E+00  0.00000000000E+00  0.11934142481E+04  0.11934142481E+04  0.00000000000E+00 0. -1.
         21   -1    0    0  501  503 -0.00000000000E+00 -0.00000000000E+00 -0.11612985495E+03  0.11612985495E+03  0.00000000000E+00 0. -1.
          6    1    1    2  501    0 -0.15720684714E+03  0.70363532838E+02  0.44299761114E+02  0.24810580077E+03  0.17300000000E+03 0. -1.
         -6    1    1    2    0  502  0.15720684714E+03 -0.70363532838E+02  0.10329846321E+04  0.10614383023E+04  0.17300000000E+03 0. -1.
<mgrwt>
<rscale>  2 0.24411886E+03</rscale>
<asrwt>0</asrwt>
<pdfrwt beam="1">  1       21 0.18360218E+00 0.24411886E+03</pdfrwt>
<pdfrwt beam="2">  1       21 0.17866132E-01 0.24411886E+03</pdfrwt>
<totfact> 0.46946003E+03</totfact>
</mgrwt>
</event>
<event>
 4    1  0.4365842E+000  0.2358522E+03  0.7546771E-02  0.1122587E+00
         21   -1    0    0  503  502  0.00000000000E+00  0.00000000000E+00  0.21612769067E+03  0.21612769067E+03  0.00000000000E+00 0. -1.
         21   -1    0    0  501  503 -0.00000000000E+00 -0.00000000000E+00 -0.26703048625E+03  0.26703048625E+03  0.00000000000E+00 0.  1.
          6    1    1    2  501    0 -0.30394082726E+02  0.15739590835E+03 -0.71384264059E+02  0.24641831382E+03  0.17300000000E+03 0. -1.
         -6    1    1    2    0  502  0.30394082726E+02 -0.15739590835E+03  0.20481468484E+02  0.23673986310E+03  0.17300000000E+03 0.  1.
<mgrwt>
<rscale>  2 0.23585223E+03</rscale>
<asrwt>0</asrwt>
<pdfrwt beam="1">  1       21 0.33250414E-01 0.23585223E+03</pdfrwt>
<pdfrwt beam="2">  1       21 0.41081613E-01 0.23585223E+03</pdfrwt>
<totfact> 0.48726471E+04</totfact>
</mgrwt>
</event>
<event>
 4    1  0.4365842E+000  0.2554744E+03  0.7546771E-02  0.1109893E+00
         21   -1    0    0  501  502  0.00000000000E+00  0.00000000000E+00  0.88516276779E+03  0.88516276779E+03  0.00000000000E+00 0.  1.
         21   -1    0    0  502  503 -0.00000000000E+00 -0.00000000000E+00 -0.15438088835E+03  0.15438088835E+03  0.00000000000E+00 0. -1.
          6    1    1    2  501    0  0.69797665045E+02 -0.17454645754E+03  0.74106221307E+03  0.78386247743E+03  0.17300000000E+03 0.  1.
         -6    1    1    2    0  503 -0.69797665045E+02  0.17454645754E+03 -0.10280333619E+02  0.25568117871E+03  0.17300000000E+03 0. -1.
<mgrwt>
<rscale>  2 0.25547442E+03</rscale>
<asrwt>0</asrwt>
<pdfrwt beam="1">  1       21 0.13617888E+00 0.25547442E+03</pdfrwt>
<pdfrwt beam="2">  1       21 0.23750907E-01 0.25547442E+03</pdfrwt>
<totfact> 0.61362167E+03</totfact>
</mgrwt>
</event>
<event>
 4    1  0.4365842E+000  0.2834837E+03  0.7546771E-02  0.1093801E+00
         21   -1    0    0  503  502  0.00000000000E+00  0.00000000000E+00  0.94480070467E+02  0.94480070467E+02  0.00000000000E+00 0. -1.
         21   -1    0    0  501  503 -0.00000000000E+00 -0.00000000000E+00 -0.11241586242E+04  0.11241586242E+04  0.00000000000E+00 0.  1.
          6    1    1    2  501    0 -0.18205424923E+03  0.13149248105E+03 -0.21425180648E+03  0.35534048294E+03  0.17300000000E+03 0. -1.
         -6    1    1    2    0  502  0.18205424923E+03 -0.13149248105E+03 -0.81542674727E+03  0.86329821175E+03  0.17300000000E+03 0.  1.
<mgrwt>
<rscale>  2 0.28348372E+03</rscale>
<asrwt>0</asrwt>
<pdfrwt beam="1">  1       21 0.14535396E-01 0.28348372E+03</pdfrwt>
<pdfrwt beam="2">  1       21 0.17294747E+00 0.28348372E+03</pdfrwt>
<totfact> 0.79399414E+03</totfact>
</mgrwt>
</event>
<event>
 4    1  0.4365842E+000  0.1799485E+03  0.7546771E-02  0.1167853E+00
         21   -1    0    0  503  502  0.00000000000E+00  0.00000000000E+00  0.16492218387E+03  0.16492218387E+03  0.00000000000E+00 0.  1.
         21   -1    0    0  501  503 -0.00000000000E+00 -0.00000000000E+00 -0.19697187345E+03  0.19697187345E+03  0.00000000000E+00 0. -1.
          6    1    1    2  501    0  0.48814791857E+02  0.83405726423E+01 -0.58071494001E+01  0.18004213962E+03  0.17300000000E+03 0. -1.
         -6    1    1    2    0  502 -0.48814791857E+02 -0.83405726423E+01 -0.26242540183E+02  0.18185191770E+03  0.17300000000E+03 0. -1.
<mgrwt>
<rscale>  2 0.17994846E+03</rscale>
<asrwt>0</asrwt>
<pdfrwt beam="1">  1       21 0.25372643E-01 0.17994846E+03</pdfrwt>
<pdfrwt beam="2">  1       21 0.30303365E-01 0.17994846E+03</pdfrwt>
<totfact> 0.15447947E+05</totfact>
</mgrwt>
</event>
<event>
 4    1  0.4365842E+000  0.1787661E+03  0.7546771E-02  0.1169003E+00
         21   -1    0    0  501  502  0.00000000000E+00  0.00000000000E+00  0.15502366799E+03  0.15502366799E+03  0.00000000000E+00 0.  1.
         21   -1    0    0  502  503 -0.00000000000E+00 -0.00000000000E+00 -0.25959733431E+03  0.25959733431E+03  0.00000000000E+00 0.  1.
          6    1    1    2  501    0 -0.45034804577E+02  0.44021470133E+00  0.41784050349E+02  0.18358440641E+03  0.17300000000E+03 0.  1.
         -6    1    1    2    0  503  0.45034804577E+02 -0.44021470133E+00 -0.14635771667E+03  0.23103659589E+03  0.17300000000E+03 0.  1.
<mgrwt>
<rscale>  2 0.17876612E+03</rscale>
<asrwt>0</asrwt>
<pdfrwt beam="1">  1       21 0.23849795E-01 0.17876612E+03</pdfrwt>
<pdfrwt beam="2">  1       21 0.39938051E-01 0.17876612E+03</pdfrwt>
<totfact> 0.10063665E+05</totfact>
</mgrwt>
</event>
<event>
 4    1  0.4365842E+000  0.2015261E+03  0.7546771E-02  0.1148458E+00
         21   -1    0    0  501  502  0.00000000000E+00  0.00000000000E+00  0.79702431375E+02  0.79702431375E+02  0.00000000000E+00 0. -1.
         21   -1    0    0  502  503 -0.00000000000E+00 -0.00000000000E+00 -0.67936907326E+03  0.67936907326E+03  0.00000000000E+00 0. -1.
          6    1    1    2  501    0 -0.90205671527E+02  0.50465000537E+02 -0.11008124618E+03  0.22963157495E+03  0.17300000000E+03 0. -1.
         -6    1    1    2    0  503  0.90205671527E+02 -0.50465000537E+02 -0.48958539571E+03  0.52943992968E+03  0.17300000000E+03 0. -1.
<mgrwt>
<rscale>  2 0.20152613E+03</rscale>
<asrwt>0</asrwt>
<pdfrwt beam="1">  1       21 0.12261913E-01 0.20152613E+03</pdfrwt>
<pdfrwt beam="2">  1       21 0.10451832E+00 0.20152613E+03</pdfrwt>
<totfact> 0.41506495E+04</totfact>
</mgrwt>
</event>
<event>
 4    1  0.4365842E+000  0.2200536E+03  0.7546771E-02  0.1133843E+00
         21   -1    0    0  501  502  0.00000000000E+00  0.00000000000E+00  0.15859334984E+03  0.15859334984E+03  0.00000000000E+00 0.  1.
         21   -1    0    0  502  503 -0.00000000000E+00 -0.00000000000E+00 -0.31069388941E+03  0.31069388941E+03  0.00000000000E+00 0. -1.
          6    1    1    2  501    0 -0.96042282107E+01  0.13565520481E+03 -0.10687603076E+03  0.24463454732E+03  0.17300000000E+03 0. -1.
         -6    1    1    2    0  503  0.96042282107E+01 -0.13565520481E+03 -0.45224508814E+02  0.22465269192E+03  0.17300000000E+03 0. -1.
<mgrwt>
<rscale>  2 0.22005357E+03</rscale>
<asrwt>0</asrwt>
<pdfrwt beam="1">  1       21 0.24398977E-01 0.22005357E+03</pdfrwt>
<pdfrwt beam="2">  1       21 0.47799060E-01 0.22005357E+03</pdfrwt>
<totfact> 0.65585681E+04</totfact>
</mgrwt>
</event>
<event>
 4    1  0.4365842E+000  0.2144814E+03  0.7546771E-02  0.1138066E+00
         21   -1    0    0  501  502  0.00000000000E+00  0.00000000000E+00  0.38063304868E+03  0.38063304868E+03  0.00000000000E+00 0.  1.
         21   -1    0    0  502  503 -0.00000000000E+00 -0.00000000000E+00 -0.12898032651E+03  0.12898032651E+03  0.00000000000E+00 0. -1.
          6    1    1    2  501    0  0.47368763519E+01 -0.12669183435E+03  0.18977181632E+03  0.28638366077E+03  0.17300000000E+03 0.  1.
         -6    1    1    2    0  503 -0.47368763519E+01  0.12669183435E+03  0.61880905855E+02  0.22322971442E+03  0.17300000000E+03 0. -1.
<mgrwt>
<rscale>  2 0.21448137E+03</rscale>
<asrwt>0</asrwt>
<pdfrwt beam="1">  1       21 0.58558930E-01 0.21448137E+03</pdfrwt>
<pdfrwt beam="2">  1       21 0.19843127E-01 0.21448137E+03</pdfrwt>
<totfact> 0.63313868E+04</totfact>
</mgrwt>
</event>
<event>
 4    1  0.4365842E+000  0.1926760E+03  0.7546771E-02  0.1156070E+00
         21   -1    0    0  501  502  0.00000000000E+00  0.00000000000E+00  0.38112752320E+03  0.38112752320E+03  0.00000000000E+00 0. -1.
         21   -1    0    0  502  503 -0.00000000000E+00 -0.00000000000E+00 -0.97439393308E+02  0.97439393308E+02  0.00000000000E+00 0.  1.
          6    1    1    2  501    0 -0.73187029905E+02 -0.42880024506E+02  0.13740224772E+03  0.23665040783E+03  0.17300000000E+03 0. -1.
         -6    1    1    2    0  503  0.73187029905E+02  0.42880024506E+02  0.14628588217E+03  0.24191650867E+03  0.17300000000E+03 0.  1.
<mgrwt>
<rscale>  2 0.19267599E+03</rscale>
<asrwt>0</asrwt>
<pdfrwt beam="1">  1       21 0.58635003E-01 0.19267599E+03</pdfrwt>
<pdfrwt beam="2">  1       21 0.14990676E-01 0.19267599E+03</pdfrwt>
<totfact> 0.10691414E+05</totfact>
</mgrwt>
</event>
<event>
 4    1  0.4365842E+000  0.1991262E+03  0.7546771E-02  0.1150478E+00
         21   -1    0    0  503  502  0.00000000000E+00  0.00000000000E+00  0.95987563519E+02  0.95987563519E+02  0.00000000000E+00 0.  1.
         21   -1    0    0  501  503 -0.00000000000E+00 -0.00000000000E+00 -0.54000415767E+03  0.54000415767E+03  0.00000000000E+00 0.  1.
          6    1    1    2  501    0  0.46587479634E+01  0.98491391877E+02 -0.37617206177E+03  0.42562504421E+03  0.17300000000E+03 0.  1.
         -6    1    1    2    0  502 -0.46587479634E+01 -0.98491391877E+02 -0.67844532378E+02  0.21036667697E+03  0.17300000000E+03 0.  1.
<mgrwt>
<rscale>  2 0.19912624E+03</rscale>
<asrwt>0</asrwt>
<pdfrwt beam="1">  1       21 0.14767318E-01 0.19912624E+03</pdfrwt>
<pdfrwt beam="2">  1       21 0.83077561E-01 0.19912624E+03</pdfrwt>
<totfact> 0.50789741E+04</totfact>
</mgrwt>
</event>
<event>
 4    1  0.4365842E+000  0.2063201E+03  0.7546771E-02  0.1144514E+00
         21   -1    0    0  503  502  0.00000000000E+00  0.00000000000E+00  0.83733206952E+02  0.83733206952E+02  0.00000000000E+00 0.  1.
         21   -1    0    0  501  503 -0.00000000000E+00 -0.00000000000E+00 -0.53151188349E+03  0.53151188349E+03  0.00000000000E+00 0.  1.
          6    1    1    2  501    0  0.54971021707E+02 -0.98067114567E+02 -0.28806975680E+03  0.35433339804E+03  0.17300000000E+03 0.  1.
         -6    1    1    2    0  502 -0.54971021707E+02  0.98067114567E+02 -0.15970891975E+03  0.26091169240E+03  0.17300000000E+03 0.  1.
<mgrwt>
<rscale>  2 0.20632007E+03</rscale>
<asrwt>0</asrwt>
<pdfrwt beam="1">  1       21 0.12882032E-01 0.20632007E+03</pdfrwt>
<pdfrwt beam="2">  1       21 0.81771061E-01 0.20632007E+03</pdfrwt>
<totfact> 0.67200689E+04</totfact>
</mgrwt>
</event>
<event>
 4    1  0.4365842E+000  0.1968350E+03  0.7546771E-02  0.1152437E+00
         21   -1    0    0  503  502  0.00000000000E+00  0.00000000000E+00  0.73054050141E+03  0.73054050141E+03  0.00000000000E+00 0.  1.
         21   -1    0    0  501  503 -0.00000000000E+00 -0.00000000000E+00 -0.61575602521E+02  0.61575602521E+02  0.00000000000E+00 0.  1.
          6    1    1    2  501    0 -0.64866292561E+02 -0.67877687867E+02  0.18697780489E+03  0.27148612477E+03  0.17300000000E+03 0.  1.
         -6    1    1    2    0  502  0.64866292561E+02  0.67877687867E+02  0.48198709400E+03  0.52062997916E+03  0.17300000000E+03 0.  1.
<mgrwt>
<rscale>  2 0.19683500E+03</rscale>
<asrwt>0</asrwt>
<pdfrwt beam="1">  1       21 0.11239084E+00 0.19683500E+03</pdfrwt>
<pdfrwt beam="2">  1       21 0.94731701E-02 0.19683500E+03</pdfrwt>
<totfact> 0.55224130E+04</totfact>
</mgrwt>
</event>
<event>
 4    1  0.4365842E+000  0.2013799E+03  0.7546771E-02  0.1148580E+00
         21   -1    0    0  501  502  0.00000000000E+00  0.00000000000E+00  0.32132649063E+02  0.32132649063E+02  0.00000000000E+00 0.  1.
         21   -1    0    0  502  503 -0.00000000000E+00 -0.00000000000E+00 -0.15803963405E+04  0.15803963405E+04  0.00000000000E+00 0.  1.
          6    1    1    2  501    0  0.92431115249E+02 -0.45622062231E+02 -0.41228407019E+03  0.45883770350E+03  0.17300000000E+03 0.  1.
         -6    1    1    2    0  503 -0.92431115249E+02  0.45622062231E+02 -0.11359796213E+04  0.11536912861E+04  0.17300000000E+03 0.  1.
<mgrwt>
<rscale>  2 0.20137995E+03</rscale>
<asrwt>0</asrwt>
<pdfrwt beam="1">  1       21 0.49434850E-02 0.20137995E+03</pdfrwt>
<pdfrwt beam="2">  1       21 0.24313787E+00 0.20137995E+03</pdfrwt>
<totfact> 0.19867644E+04</totfact>
</mgrwt>
</event>
<event>
 4    1  0.4365842E+000  0.2354830E+03  0.7546771E-02  0.1122839E+00
         21   -1    0    0  503  502  0.00000000000E+00  0.00000000000E+00  0.12121275299E+03  0.12121275299E+03  0.00000000000E+00 0. -1.
         21   -1    0    0  501  503 -0.00000000000E+00 -0.00000000000E+00 -0.52852040941E+03  0.52852040941E+03  0.00000000000E+00 0. -1.
          6    1    1    2  501    0 -0.14987762459E+03 -0.55316753814E+02 -0.32275911415E+03  0.39953184025E+03  0.17300000000E+03 0. -1.
         -6    1    1    2    0  502  0.14987762459E+03  0.55316753814E+02 -0.84548542261E+02  0.25020132215E+03  0.17300000000E+03 0. -1.
<mgrwt>
<rscale>  2 0.23548300E+03</rscale>
<asrwt>0</asrwt>
<pdfrwt beam="1">  1       21 0.18648116E-01 0.23548300E+03</pdfrwt>
<pdfrwt beam="2">  1       21 0.81310833E-01 0.23548300E+03</pdfrwt>
<totfact> 0.34102468E+04</totfact>
</mgrwt>
</event>
<event>
 4    1  0.4365842E+000  0.2151541E+03  0.7546771E-02  0.1137548E+00
         21   -1    0    0  503  502  0.00000000000E+00  0.00000000000E+00  0.16503054256E+03  0.16503054256E+03  0.00000000000E+00 0. -1.
         21   -1    0    0  501  503 -0.00000000000E+00 -0.00000000000E+00 -0.34171891383E+03  0.34171891383E+03  0.00000000000E+00 0.  1.
          6    1    1    2  501    0 -0.12537169598E+03  0.25381329662E+02 -0.19558674030E+03  0.29076699784E+03  0.17300000000E+03 0.  1.
         -6    1    1    2    0  502  0.12537169598E+03 -0.25381329662E+02  0.18898369033E+02  0.21598245855E+03  0.17300000000E+03 0. -1.
<mgrwt>
<rscale>  2 0.21515407E+03</rscale>
<asrwt>0</asrwt>
<pdfrwt beam="1">  1       21 0.25389314E-01 0.21515407E+03</pdfrwt>
<pdfrwt beam="2">  1       21 0.52572141E-01 0.21515407E+03</pdfrwt>
<totfact> 0.49909550E+04</totfact>
</mgrwt>
</event>
<event>
 4    1  0.4365842E+000  0.1872569E+03  0.7546771E-02  0.1160959E+00
         21   -1    0    0  501  502  0.00000000000E+00  0.00000000000E+00  0.29494013135E+03  0.29494013135E+03  0.00000000000E+00 0.  1.
         21   -1    0    0  502  503 -0.00000000000E+00 -0.00000000000E+00 -0.13437253366E+03  0.13437253366E+03  0.00000000000E+00 0.  1.
          6    1    1    2  501    0 -0.71028928184E+02  0.95410231349E+01  0.15314953806E+03  0.24190891006E+03  0.17300000000E+03 0.  1.
         -6    1    1    2    0  503  0.71028928184E+02 -0.95410231349E+01  0.74180596373E+01  0.18740375495E+03  0.17300000000E+03 0.  1.
<mgrwt>
<rscale>  2 0.18725688E+03</rscale>
<asrwt>0</asrwt>
<pdfrwt beam="1">  1       21 0.45375405E-01 0.18725688E+03</pdfrwt>
<pdfrwt beam="2">  1       21 0.20672698E-01 0.18725688E+03</pdfrwt>
<totfact> 0.10128294E+05</totfact>
</mgrwt>
</event>
<event>
 4    1  0.4365842E+000  0.2490975E+03  0.7546771E-02  0.1113877E+00
         21   -1    0    0  501  502  0.00000000000E+00  0.00000000000E+00  0.17222013904E+04  0.17222013904E+04  0.00000000000E+00 0. -1.
         21   -1    0    0  502  503 -0.00000000000E+00 -0.00000000000E+00 -0.38200813724E+02  0.38200813724E+02  0.00000000000E+00 0. -1.
          6    1    1    2  501    0  0.11551530328E+03  0.13702840425E+03  0.10518629213E+04  0.10809556763E+04  0.17300000000E+03 0. -1.
         -6    1    1    2    0  503 -0.11551530328E+03 -0.13702840425E+03  0.63213765538E+03  0.67944652785E+03  0.17300000000E+03 0. -1.
<mgrwt>
<rscale>  2 0.24909751E+03</rscale>
<asrwt>0</asrwt>
<pdfrwt beam="1">  1       21 0.26495400E+00 0.24909751E+03</pdfrwt>
<pdfrwt beam="2">  1       21 0.58770496E-02 0.24909751E+03</pdfrwt>
<totfact> 0.10572016E+04</totfact>
</mgrwt>
</event>
<event>
 4    1  0.4365842E+000  0.2109636E+03  0.7546771E-02  0.1140805E+00
         21   -1    0    0  503  502  0.00000000000E+00  0.00000000000E+00  0.40159763599E+03  0.40159763599E+03  0.00000000000E+00 0.  1.
         21   -1    0    0  501  503 -0.00000000000E+00 -0.00000000000E+00 -0.26836280929E+03  0.26836280929E+03  0.00000000000E+00 0.  1.
          6    1    1    2  501    0  0.83698283776E+02  0.87012742020E+02 -0.19004090162E+03  0.28393866286E+03  0.17300000000E+03 0.  1.
         -6    1    1    2    0  502 -0.83698283776E+02 -0.87012742020E+02  0.32327572832E+03  0.38602178242E+03  0.17300000000E+03 0.  1.
<mgrwt>
<rscale>  2 0.21096355E+03</rscale>
<asrwt>0</asrwt>
<pdfrwt beam="1">  1       21 0.61784251E-01 0.21096355E+03</pdfrwt>
<pdfrwt beam="2">  1       21 0.41286586E-01 0.21096355E+03</pdfrwt>
<totfact> 0.13583542E+04</totfact>
</mgrwt>
</event>
<event>
 4    1  0.4365842E+000  0.1799735E+03  0.7546771E-02  0.1167829E+00
         21   -1    0    0  503  502  0.00000000000E+00  0.00000000000E+00  0.80708932302E+03  0.80708932302E+03  0.00000000000E+00 0.  1.
         21   -1    0    0  501  503 -0.00000000000E+00 -0.00000000000E+00 -0.43717844629E+02  0.43717844629E+02  0.00000000000E+00 0.  1.
          6    1    1    2  501    0 -0.40608441961E+01  0.49446635133E+02  0.50351206165E+03  0.53471006761E+03  0.17300000000E+03 0.  1.
         -6    1    1    2    0  502  0.40608441961E+01 -0.49446635133E+02  0.25985941675E+03  0.31609710004E+03  0.17300000000E+03 0.  1.
<mgrwt>
<rscale>  2 0.17997350E+03</rscale>
<asrwt>0</asrwt>
<pdfrwt beam="1">  1       21 0.12416758E+00 0.17997350E+03</pdfrwt>
<pdfrwt beam="2">  1       21 0.67258228E-02 0.17997350E+03</pdfrwt>
<totfact> 0.79077082E+04</totfact>
</mgrwt>
</event>
<event>
 4    1  0.4365842E+000  0.1775776E+03  0.7546771E-02  0.1170168E+00
         21   -1    0    0  503  502  0.00000000000E+00  0.00000000000E+00  0.73561720343E+02  0.73561720343E+02  0.00000000000E+00 0.  1.
         21   -1    0    0  501  503 -0.00000000000E+00 -0.00000000000E+00 -0.49860800531E+03  0.49860800531E+03  0.00000000000E+00 0.  1.
          6    1    1    2  501    0  0.31840466412E+02  0.24310139644E+02 -0.31966713967E+03  0.36567865453E+03  0.17300000000E+03 0.  1.
         -6    1    1    2    0  502 -0.31840466412E+02 -0.24310139644E+02 -0.10537914529E+03  0.20649107112E+03  0.17300000000E+03 0.  1.
<mgrwt>
<rscale>  2 0.17757758E+03</rscale>
<asrwt>0</asrwt>
<pdfrwt beam="1">  1       21 0.11317187E-01 0.17757758E+03</pdfrwt>
<pdfrwt beam="2">  1       21 0.76708928E-01 0.17757758E+03</pdfrwt>
<totfact> 0.99082620E+04</totfact>
</mgrwt>
</event>
<event>
 4    1  0.4365842E+000  0.2099470E+03  0.7546771E-02  0.1141608E+00
         21   -1    0    0  503  502  0.00000000000E+00  0.00000000000E+00  0.34251341475E+03  0.34251341475E+03  0.00000000000E+00 0.  1.
         21   -1    0    0  501  503 -0.00000000000E+00 -0.00000000000E+00 -0.18180356093E+03  0.18180356093E+03  0.00000000000E+00 0. -1.
          6    1    1    2  501    0 -0.90061065438E+01 -0.11860700564E+03 -0.61344878897E+02  0.21872568644E+03  0.17300000000E+03 0.  1.
         -6    1    1    2    0  502  0.90061065438E+01  0.11860700564E+03  0.22205473271E+03  0.30559128924E+03  0.17300000000E+03 0.  1.
<mgrwt>
<rscale>  2 0.20994697E+03</rscale>
<asrwt>0</asrwt>
<pdfrwt beam="1">  1       21 0.52694371E-01 0.20994697E+03</pdfrwt>
<pdfrwt beam="2">  1       21 0.27969779E-01 0.20994697E+03</pdfrwt>
<totfact> 0.41316829E+04</totfact>
</mgrwt>
</event>
<event>
 4    1  0.4365842E+000  0.2264661E+03  0.7546771E-02  0.1129152E+00
         21   -1    0    0  503  502  0.00000000000E+00  0.00000000000E+00  0.51465642857E+03  0.51465642857E+03  0.00000000000E+00 0. -1.
         21   -1    0    0  501  503 -0.00000000000E+00 -0.00000000000E+00 -0.14467893887E+03  0.14467893887E+03  0.00000000000E+00 0.  1.
          6    1    1    2  501    0  0.69740681343E+02  0.12842953517E+03  0.10782539455E+01  0.22646869711E+03  0.17300000000E+03 0.  1.
         -6    1    1    2    0  502 -0.69740681343E+02 -0.12842953517E+03  0.36889923576E+03  0.43286667033E+03  0.17300000000E+03 0. -1.
<mgrwt>
<rscale>  2 0.22646613E+03</rscale>
<asrwt>0</asrwt>
<pdfrwt beam="1">  1       21 0.79177911E-01 0.22646613E+03</pdfrwt>
<pdfrwt beam="2">  1       21 0.22258298E-01 0.22646613E+03</pdfrwt>
<totfact> 0.26091960E+04</totfact>
</mgrwt>
</event>
<event>
 4    1  0.4365842E+000  0.2292428E+03  0.7546771E-02  0.1127174E+00
         21   -1    0    0  501  502  0.00000000000E+00  0.00000000000E+00  0.14750521836E+03  0.14750521836E+03  0.00000000000E+00 0. -1.
         21   -1    0    0  502  503 -0.00000000000E+00 -0.00000000000E+00 -0.53393519905E+03  0.53393519905E+03  0.00000000000E+00 0. -1.
          6    1    1    2  501    0 -0.15027947447E+03 -0.62714872259E+01  0.33246220051E+01  0.22926688621E+03  0.17300000000E+03 0. -1.
         -6    1    1    2    0  503  0.15027947447E+03  0.62714872259E+01 -0.38975460270E+03  0.45217353120E+03  0.17300000000E+03 0. -1.
<mgrwt>
<rscale>  2 0.22924278E+03</rscale>
<asrwt>0</asrwt>
<pdfrwt beam="1">  1       21 0.22693110E-01 0.22924278E+03</pdfrwt>
<pdfrwt beam="2">  1       21 0.82143878E-01 0.22924278E+03</pdfrwt>
<totfact> 0.23100798E+04</totfact>
</mgrwt>
</event>
<event>
 4    1  0.4365842E+000  0.2047974E+03  0.7546771E-02  0.1145753E+00
         21   -1    0    0  503  502  0.00000000000E+00  0.00000000000E+00  0.31306738201E+02  0.31306738201E+02  0.00000000000E+00 0. -1.
         21   -1    0    0  501  503 -0.00000000000E+00 -0.00000000000E+00 -0.14219906698E+04  0.14219906698E+04  0.00000000000E+00 0. -1.
          6    1    1    2  501    0 -0.91270027344E+02 -0.60685866144E+02 -0.87013394423E+03  0.89390999163E+03  0.17300000000E+03 0. -1.
         -6    1    1    2    0  502  0.91270027344E+02  0.60685866144E+02 -0.52054998739E+03  0.55938741639E+03  0.17300000000E+03 0. -1.
<mgrwt>
<rscale>  2 0.20479744E+03</rscale>
<asrwt>0</asrwt>
<pdfrwt beam="1">  1       21 0.48164217E-02 0.20479744E+03</pdfrwt>
<pdfrwt beam="2">  1       21 0.21876777E+00 0.20479744E+03</pdfrwt>
<totfact> 0.29070652E+04</totfact>
</mgrwt>
</event>
<event>
 4    1  0.4365842E+000  0.1992990E+03  0.7546771E-02  0.1150332E+00
         21   -1    0    0  501  502  0.00000000000E+00  0.00000000000E+00  0.27880442074E+03  0.27880442074E+03  0.00000000000E+00 0.  1.
         21   -1    0    0  502  503 -0.00000000000E+00 -0.00000000000E+00 -0.16855273460E+03  0.16855273460E+03  0.00000000000E+00 0.  1.
          6    1    1    2  501    0  0.61684636183E+02  0.77369763061E+02  0.14312299593E+03  0.24536557734E+03  0.17300000000E+03 0.  1.
         -6    1    1    2    0  503 -0.61684636183E+02 -0.77369763061E+02 -0.32871309793E+02  0.20199157800E+03  0.17300000000E+03 0.  1.
<mgrwt>
<rscale>  2 0.19929896E+03</rscale>
<asrwt>0</asrwt>
<pdfrwt beam="1">  1       21 0.42892988E-01 0.19929896E+03</pdfrwt>
<pdfrwt beam="2">  1       21 0.25931190E-01 0.19929896E+03</pdfrwt>
<totfact> 0.73612444E+04</totfact>
</mgrwt>
</event>
<event>
 4    1  0.4365842E+000  0.1767768E+03  0.7546771E-02  0.1170959E+00
         21   -1    0    0  501  502  0.00000000000E+00  0.00000000000E+00  0.21319787212E+03  0.21319787212E+03  0.00000000000E+00 0. -1.
         21   -1    0    0  502  503 -0.00000000000E+00 -0.00000000000E+00 -0.25423279185E+03  0.25423279185E+03  0.00000000000E+00 0. -1.
          6    1    1    2  501    0 -0.14264582421E+02  0.33430002046E+02  0.13156838911E+03  0.22036398154E+03  0.17300000000E+03 0. -1.
         -6    1    1    2    0  503  0.14264582421E+02 -0.33430002046E+02 -0.17260330884E+03  0.24706668244E+03  0.17300000000E+03 0. -1.
<mgrwt>
<rscale>  2 0.17677682E+03</rscale>
<asrwt>0</asrwt>
<pdfrwt beam="1">  1       21 0.32799673E-01 0.17677682E+03</pdfrwt>
<pdfrwt beam="2">  1       21 0.39112737E-01 0.17677682E+03</pdfrwt>
<totfact> 0.56797641E+04</totfact>
</mgrwt>
</event>
<event>
 4    1  0.4365842E+000  0.2087456E+03  0.7546771E-02  0.1142563E+00
         21   -1    0    0  503  502  0.00000000000E+00  0.00000000000E+00  0.12892271436E+04  0.12892271436E+04  0.00000000000E+00 0.  1.
         21   -1    0    0  501  503 -0.00000000000E+00 -0.00000000000E+00 -0.38330423464E+02  0.38330423464E+02  0.00000000000E+00 0.  1.
          6    1    1    2  501    0  0.11164636035E+03 -0.34362705451E+02  0.39722266890E+03  0.44873216287E+03  0.17300000000E+03 0.  1.
         -6    1    1    2    0  502 -0.11164636035E+03  0.34362705451E+02  0.85367405122E+03  0.87882540418E+03  0.17300000000E+03 0.  1.
<mgrwt>
<rscale>  2 0.20874555E+03</rscale>
<asrwt>0</asrwt>
<pdfrwt beam="1">  1       21 0.19834260E+00 0.20874555E+03</pdfrwt>
<pdfrwt beam="2">  1       21 0.58969892E-02 0.20874555E+03</pdfrwt>
<totfact> 0.27631506E+04</totfact>
</mgrwt>
</event>
<event>
 4    1  0.4365842E+000  0.1930101E+03  0.7546771E-02  0.1155774E+00
         21   -1    0    0  501  502  0.00000000000E+00  0.00000000000E+00  0.14468851389E+03  0.14468851389E+03  0.00000000000E+00 0.  1.
         21   -1    0    0  502  503 -0.00000000000E+00 -0.00000000000E+00 -0.28353308181E+03  0.28353308181E+03  0.00000000000E+00 0.  1.
          6    1    1    2  501    0  0.19268555590E+02 -0.83382293797E+02 -0.13433854113E+03  0.23515894154E+03  0.17300000000E+03 0.  1.
         -6    1    1    2    0  503 -0.19268555590E+02  0.83382293797E+02 -0.45060267990E+01  0.19306265416E+03  0.17300000000E+03 0.  1.
<mgrwt>
<rscale>  2 0.19301006E+03</rscale>
<asrwt>0</asrwt>
<pdfrwt beam="1">  1       21 0.22259772E-01 0.19301006E+03</pdfrwt>
<pdfrwt beam="2">  1       21 0.43620473E-01 0.19301006E+03</pdfrwt>
<totfact> 0.95355964E+04</totfact>
</mgrwt>
</event>
<event>
 4    1  0.4365842E+000  0.1844528E+03  0.7546771E-02  0.1163562E+00
         21   -1    0    0  503  502  0.00000000000E+00  0.00000000000E+00  0.20522265935E+03  0.20522265935E+03  0.00000000000E+00 0.  1.
         21   -1    0    0  501  503 -0.00000000000E+00 -0.00000000000E+00 -0.26558610583E+03  0.26558610583E+03  0.00000000000E+00 0.  1.
          6    1    1    2  501    0 -0.42946421502E+02 -0.47428222248E+02 -0.17448613919E+03  0.25390597502E+03  0.17300000000E+03 0.  1.
         -6    1    1    2    0  502  0.42946421502E+02  0.47428222248E+02  0.11412269271E+03  0.21690279015E+03  0.17300000000E+03 0.  1.
<mgrwt>
<rscale>  2 0.18445279E+03</rscale>
<asrwt>0</asrwt>
<pdfrwt beam="1">  1       21 0.31572717E-01 0.18445279E+03</pdfrwt>
<pdfrwt beam="2">  1       21 0.40859401E-01 0.18445279E+03</pdfrwt>
<totfact> 0.55847627E+04</totfact>
</mgrwt>
</event>
<event>
 4    1  0.4365842E+000  0.1813253E+03  0.7546771E-02  0.1166527E+00
         21   -1    0    0  501  502  0.00000000000E+00  0.00000000000E+00  0.20338746377E+04  0.20338746377E+04  0.00000000000E+00 0. -1.
         21   -1    0    0  502  503 -0.00000000000E+00 -0.00000000000E+00 -0.46114859276E+02  0.46114859276E+02  0.00000000000E+00 0. -1.
          6    1    1    2  501    0 -0.50919792692E+02  0.18895162512E+02  0.18319948092E+04  0.18409464504E+04  0.17300000000E+03 0. -1.
         -6    1    1    2    0  503  0.50919792692E+02 -0.18895162512E+02  0.15576496919E+03  0.23904304650E+03  0.17300000000E+03 0. -1.
<mgrwt>
<rscale>  2 0.18132527E+03</rscale>
<asrwt>0</asrwt>
<pdfrwt beam="1">  1       21 0.31290372E+00 0.18132527E+03</pdfrwt>
<pdfrwt beam="2">  1       21 0.70945953E-02 0.18132527E+03</pdfrwt>
<totfact> 0.43117186E+03</totfact>
</mgrwt>
</event>
<event>
 4    1  0.4365842E+000  0.3883779E+03  0.7546771E-02  0.1047880E+00
         21   -1    0    0  501  502  0.00000000000E+00  0.00000000000E+00  0.24291916410E+03  0.24291916410E+03  0.00000000000E+00 0. -1.
         21   -1    0    0  502  503 -0.00000000000E+00 -0.00000000000E+00 -0.92651122993E+03  0.92651122993E+03  0.00000000000E+00 0.  1.
          6    1    1    2  501    0  0.52746883354E+02 -0.34369490527E+03 -0.59984071163E+01  0.38842425581E+03  0.17300000000E+03 0. -1.
         -6    1    1    2    0  503 -0.52746883354E+02  0.34369490527E+03 -0.67759365871E+03  0.78100613822E+03  0.17300000000E+03 0.  1.
<mgrwt>
<rscale>  2 0.38837794E+03</rscale>
<asrwt>0</asrwt>
<pdfrwt beam="1">  1       21 0.37372179E-01 0.38837794E+03</pdfrwt>
<pdfrwt beam="2">  1       21 0.14254019E+00 0.38837794E+03</pdfrwt>
<totfact> 0.20761061E+03</totfact>
</mgrwt>
</event>
<event>
 4    1  0.4365842E+000  0.2355348E+03  0.7546771E-02  0.1122804E+00
         21   -1    0    0  501  502  0.00000000000E+00  0.00000000000E+00  0.25254633698E+03  0.25254633698E+03  0.00000000000E+00 0. -1.
         21   -1    0    0  502  503 -0.00000000000E+00 -0.00000000000E+00 -0.23308678090E+03  0.23308678090E+03  0.00000000000E+00 0. -1.
          6    1    1    2  501    0  0.15594640934E+03  0.35048019541E+02  0.67987962321E+02  0.24515099282E+03  0.17300000000E+03 0. -1.
         -6    1    1    2    0  503 -0.15594640934E+03 -0.35048019541E+02 -0.48528406239E+02  0.24048212506E+03  0.17300000000E+03 0. -1.
<mgrwt>
<rscale>  2 0.23553481E+03</rscale>
<asrwt>0</asrwt>
<pdfrwt beam="1">  1       21 0.38853283E-01 0.23553481E+03</pdfrwt>
<pdfrwt beam="2">  1       21 0.35859505E-01 0.23553481E+03</pdfrwt>
<totfact> 0.46952362E+04</totfact>
</mgrwt>
</event>
<event>
 4    1  0.4365842E+000  0.1764589E+03  0.7546771E-02  0.1171275E+00
         21   -1    0    0  503  502  0.00000000000E+00  0.00000000000E+00  0.54325916038E+03  0.54325916038E+03  0.00000000000E+00 0.  1.
         21   -1    0    0  501  503 -0.00000000000E+00 -0.00000000000E+00 -0.57714222280E+02  0.57714222280E+02  0.00000000000E+00 0.  1.
          6    1    1    2  501    0  0.33422339148E+02  0.95763744163E+01  0.26771425269E+03  0.32063792788E+03  0.17300000000E+03 0.  1.
         -6    1    1    2    0  502 -0.33422339148E+02 -0.95763744163E+01  0.21783068541E+03  0.28033545478E+03  0.17300000000E+03 0.  1.
<mgrwt>
<rscale>  2 0.17645895E+03</rscale>
<asrwt>0</asrwt>
<pdfrwt beam="1">  1       21 0.83578329E-01 0.17645895E+03</pdfrwt>
<pdfrwt beam="2">  1       21 0.88791115E-02 0.17645895E+03</pdfrwt>
<totfact> 0.12531374E+05</totfact>
</mgrwt>
</event>
<event>
 4    1  0.4365842E+000  0.1870088E+03  0.7546771E-02  0.1161187E+00
         21   -1    0    0  503  502  0.00000000000E+00  0.00000000000E+00  0.34815016797E+02  0.34815016797E+02  0.00000000000E+00 0.  1.
         21   -1    0    0  501  503 -0.00000000000E+00 -0.00000000000E+00 -0.22394338671E+04  0.22394338671E+04  0.00000000000E+00 0.  1.
          6    1    1    2  501    0 -0.32273681567E+02  0.63259041026E+02 -0.19467277143E+04  0.19556894156E+04  0.17300000000E+03 0.  1.
         -6    1    1    2    0  502  0.32273681567E+02 -0.63259041026E+02 -0.25789113602E+03  0.31855946828E+03  0.17300000000E+03 0.  1.
<mgrwt>
<rscale>  2 0.18700881E+03</rscale>
<asrwt>0</asrwt>
<pdfrwt beam="1">  1       21 0.53561555E-02 0.18700881E+03</pdfrwt>
<pdfrwt beam="2">  1       21 0.34452835E+00 0.18700881E+03</pdfrwt>
<totfact> 0.45404375E+03</totfact>
</mgrwt>
</event>
<event>
 4    1  0.4365842E+000  0.1929311E+03  0.7546771E-02  0.1155844E+00
         21   -1    0    0  501  502  0.00000000000E+00  0.00000000000E+00  0.37720612782E+03  0.37720612782E+03  0.00000000000E+00 0. -1.
         21   -1    0    0  502  503 -0.00000000000E+00 -0.00000000000E+00 -0.10552796373E+03  0.10552796373E+03  0.00000000000E+00 0. -1.
          6    1    1    2  501    0 -0.61929848353E+02 -0.58805692969E+02  0.19732828773E+03  0.27597258701E+03  0.17300000000E+03 0. -1.
         -6    1    1    2    0  503  0.61929848353E+02  0.58805692969E+02  0.74349876361E+02  0.20676150453E+03  0.17300000000E+03 0. -1.
<mgrwt>
<rscale>  2 0.19293112E+03</rscale>
<asrwt>0</asrwt>
<pdfrwt beam="1">  1       21 0.58031711E-01 0.19293112E+03</pdfrwt>
<pdfrwt beam="2">  1       21 0.16235072E-01 0.19293112E+03</pdfrwt>
<totfact> 0.94477881E+04</totfact>
</mgrwt>
</event>
<event>
 4    1  0.4365842E+000  0.2239277E+03  0.7546771E-02  0.1130988E+00
         21   -1    0    0  501  502  0.00000000000E+00  0.00000000000E+00  0.15678578644E+04  0.15678578644E+04  0.00000000000E+00 0.  1.
         21   -1    0    0  502  503 -0.00000000000E+00 -0.00000000000E+00 -0.43188334694E+02  0.43188334694E+02  0.00000000000E+00 0.  1.
          6    1    1    2  501    0 -0.14213811227E+03 -0.33737172613E+01  0.11726538201E+04  0.11938427898E+04  0.17300000000E+03 0.  1.
         -6    1    1    2    0  503  0.14213811227E+03  0.33737172613E+01  0.35201570960E+03  0.41720340930E+03  0.17300000000E+03 0.  1.
<mgrwt>
<rscale>  2 0.22392772E+03</rscale>
<asrwt>0</asrwt>
<pdfrwt beam="1">  1       21 0.24120886E+00 0.22392772E+03</pdfrwt>
<pdfrwt beam="2">  1       21 0.66443604E-02 0.22392772E+03</pdfrwt>
<totfact> 0.12071071E+04</totfact>
</mgrwt>
</event>
<event>
 4    1  0.4365842E+000  0.1750523E+03  0.7546771E-02  0.1172679E+00
         21   -1    0    0  503  502  0.00000000000E+00  0.00000000000E+00  0.66430172159E+03  0.66430172159E+03  0.00000000000E+00 0.  1.
         21   -1    0    0  501  503 -0.00000000000E+00 -0.00000000000E+00 -0.66832569346E+02  0.66832569346E+02  0.00000000000E+00 0.  1.
          6    1    1    2  501    0 -0.24026419437E+02  0.11706564536E+02  0.95264839865E+02  0.19929551475E+03  0.17300000000E+03 0.  1.
         -6    1    1    2    0  502  0.24026419437E+02 -0.11706564536E+02  0.50220431238E+03  0.53183877618E+03  0.17300000000E+03 0.  1.
<mgrwt>
<rscale>  2 0.17505231E+03</rscale>
<asrwt>0</asrwt>
<pdfrwt beam="1">  1       21 0.10220026E+00 0.17505231E+03</pdfrwt>
<pdfrwt beam="2">  1       21 0.10281934E-01 0.17505231E+03</pdfrwt>
<totfact> 0.60728033E+04</totfact>
</mgrwt>
</event>
<event>
 4    1  0.4365842E+000  0.1884728E+03  0.7546771E-02  0.1159846E+00
         21   -1    0    0  501  502  0.00000000000E+00  0.00000000000E+00  0.91740947321E+02  0.91740947321E+02  0.00000000000E+00 0.  1.
         21   -1    0    0  502  503 -0.00000000000E+00 -0.00000000000E+00 -0.75763471142E+03  0.75763471142E+03  0.00000000000E+00 0.  1.
          6    1    1    2  501    0 -0.46567051182E+02 -0.58519304516E+02 -0.35987991877E+02  0.19187791644E+03  0.17300000000E+03 0.  1.
         -6    1    1    2    0  503  0.46567051182E+02  0.58519304516E+02 -0.62990577222E+03  0.65749774230E+03  0.17300000000E+03 0.  1.
<mgrwt>
<rscale>  2 0.18847281E+03</rscale>
<asrwt>0</asrwt>
<pdfrwt beam="1">  1       21 0.14113992E-01 0.18847281E+03</pdfrwt>
<pdfrwt beam="2">  1       21 0.11655918E+00 0.18847281E+03</pdfrwt>
<totfact> 0.24919307E+04</totfact>
</mgrwt>
</event>
<event>
 4    1  0.4365842E+000  0.1752922E+03  0.7546771E-02  0.1172439E+00
         21   -1    0    0  503  502  0.00000000000E+00  0.00000000000E+00  0.11629033189E+03  0.11629033189E+03  0.00000000000E+00 0. -1.
         21   -1    0    0  501  503 -0.00000000000E+00 -0.00000000000E+00 -0.28444845824E+03  0.28444845824E+03  0.00000000000E+00 0. -1.
          6    1    1    2  501    0 -0.13879712046E+02  0.24611366369E+02 -0.13749935512E+03  0.22278563333E+03  0.17300000000E+03 0. -1.
         -6    1    1    2    0  502  0.13879712046E+02 -0.24611366369E+02 -0.30658771228E+02  0.17795315680E+03  0.17300000000E+03 0. -1.
<mgrwt>
<rscale>  2 0.17529223E+03</rscale>
<asrwt>0</asrwt>
<pdfrwt beam="1">  1       21 0.17890821E-01 0.17529223E+03</pdfrwt>
<pdfrwt beam="2">  1       21 0.43761301E-01 0.17529223E+03</pdfrwt>
<totfact> 0.14329151E+05</totfact>
</mgrwt>
</event>
<event>
 4    1  0.4365842E+000  0.1815916E+03  0.7546771E-02  0.1166271E+00
         21   -1    0    0  501  502  0.00000000000E+00  0.00000000000E+00  0.12721041188E+03  0.12721041188E+03  0.00000000000E+00 0. -1.
         21   -1    0    0  502  503 -0.00000000000E+00 -0.00000000000E+00 -0.54002735150E+03  0.54002735150E+03  0.00000000000E+00 0.  1.
          6    1    1    2  501    0 -0.53137980407E+02 -0.14929147977E+02  0.34164444123E+02  0.18477752478E+03  0.17300000000E+03 0. -1.
         -6    1    1    2    0  503  0.53137980407E+02  0.14929147977E+02 -0.44698138374E+03  0.48246023860E+03  0.17300000000E+03 0.  1.
<mgrwt>
<rscale>  2 0.18159164E+03</rscale>
<asrwt>0</asrwt>
<pdfrwt beam="1">  1       21 0.19570832E-01 0.18159164E+03</pdfrwt>
<pdfrwt beam="2">  1       21 0.83081133E-01 0.18159164E+03</pdfrwt>
<totfact> 0.30527731E+04</totfact>
</mgrwt>
</event>
<event>
 4    1  0.4365842E+000  0.1800491E+03  0.7546771E-02  0.1167756E+00
         21   -1    0    0  501  502  0.00000000000E+00  0.00000000000E+00  0.12649023770E+03  0.12649023770E+03  0.00000000000E+00 0. -1.
         21   -1    0    0  502  503 -0.00000000000E+00 -0.00000000000E+00 -0.65407791353E+03  0.65407791353E+03  0.00000000000E+00 0. -1.
          6    1    1    2  501    0 -0.49472064049E+02 -0.64190805080E+01  0.40570671496E+02  0.18456345549E+03  0.17300000000E+03 0. -1.
         -6    1    1    2    0  503  0.49472064049E+02  0.64190805080E+01 -0.56815834732E+03  0.59600469574E+03  0.17300000000E+03 0. -1.
<mgrwt>
<rscale>  2 0.18004913E+03</rscale>
<asrwt>0</asrwt>
<pdfrwt beam="1">  1       21 0.19460036E-01 0.18004913E+03</pdfrwt>
<pdfrwt beam="2">  1       21 0.10062737E+00 0.18004913E+03</pdfrwt>
<totfact> 0.19803039E+04</totfact>
</mgrwt>
</event>
<event>
 4    1  0.4365842E+000  0.2011445E+03  0.7546771E-02  0.1148777E+00
         21   -1    0    0  503  502  0.00000000000E+00  0.00000000000E+00  0.29519691413E+03  0.29519691413E+03  0.00000000000E+00 0. -1.
         21   -1    0    0  501  503 -0.00000000000E+00 -0.00000000000E+00 -0.17018682862E+03  0.17018682862E+03  0.00000000000E+00 0. -1.
          6    1    1    2  501    0  0.93212458686E+02  0.42913134809E+02 -0.40159684789E+02  0.20511435804E+03  0.17300000000E+03 0. -1.
         -6    1    1    2    0  502 -0.93212458686E+02 -0.42913134809E+02  0.16516977031E+03  0.26026938471E+03  0.17300000000E+03 0. -1.
<mgrwt>
<rscale>  2 0.20114447E+03</rscale>
<asrwt>0</asrwt>
<pdfrwt beam="1">  1       21 0.45414910E-01 0.20114447E+03</pdfrwt>
<pdfrwt beam="2">  1       21 0.26182589E-01 0.20114447E+03</pdfrwt>
<totfact> 0.64221622E+04</totfact>
</mgrwt>
</event>
<event>
 4    1  0.4365842E+000  0.2062968E+03  0.7546771E-02  0.1144533E+00
         21   -1    0    0  501  502  0.00000000000E+00  0.00000000000E+00  0.12645934661E+03  0.12645934661E+03  0.00000000000E+00 0. -1.
         21   -1    0    0  502  503 -0.00000000000E+00 -0.00000000000E+00 -0.34073716262E+03  0.34073716262E+03  0.00000000000E+00 0. -1.
          6    1    1    2  501    0 -0.11204350322E+03 -0.86968540447E+01 -0.81206752658E+02  0.22170457497E+03  0.17300000000E+03 0. -1.
         -6    1    1    2    0  503  0.11204350322E+03  0.86968540447E+01 -0.13307106336E+03  0.24549193426E+03  0.17300000000E+03 0. -1.
<mgrwt>
<rscale>  2 0.20629683E+03</rscale>
<asrwt>0</asrwt>
<pdfrwt beam="1">  1       21 0.19455284E-01 0.20629683E+03</pdfrwt>
<pdfrwt beam="2">  1       21 0.52421102E-01 0.20629683E+03</pdfrwt>
<totfact> 0.83394888E+04</totfact>
</mgrwt>
</event>
<event>
 4    1  0.4365842E+000  0.2112445E+03  0.7546771E-02  0.1140584E+00
         21   -1    0    0  503  502  0.00000000000E+00  0.00000000000E+00  0.72759927797E+03  0.72759927797E+03  0.00000000000E+00 0. -1.
         21   -1    0    0  501  503 -0.00000000000E+00 -0.00000000000E+00 -0.11952746389E+03  0.11952746389E+03  0.00000000000E+00 0. -1.
          6    1    1    2  501    0 -0.15727254940E+02 -0.12019932078E+03  0.84840422517E+01  0.21141476352E+03  0.17300000000E+03 0. -1.
         -6    1    1    2    0  502  0.15727254940E+02  0.12019932078E+03  0.59958777183E+03  0.63571197833E+03  0.17300000000E+03 0. -1.
<mgrwt>
<rscale>  2 0.21124446E+03</rscale>
<asrwt>0</asrwt>
<pdfrwt beam="1">  1       21 0.11193835E+00 0.21124446E+03</pdfrwt>
<pdfrwt beam="2">  1       21 0.18388841E-01 0.21124446E+03</pdfrwt>
<totfact> 0.16693773E+04</totfact>
</mgrwt>
</event>
<event>
 4    1  0.4365842E+000  0.2382937E+03  0.7546771E-02  0.1120935E+00
         21   -1    0    0  503  502  0.00000000000E+00  0.00000000000E+00  0.19323464653E+03  0.19323464653E+03  0.00000000000E+00 0. -1.
         21   -1    0    0  501  503 -0.00000000000E+00 -0.00000000000E+00 -0.31189026854E+03  0.31189026854E+03  0.00000000000E+00 0.  1.
          6    1    1    2  501    0  0.16290439169E+03  0.17805729196E+02 -0.12005343653E+03  0.26682712090E+03  0.17300000000E+03 0.  1.
         -6    1    1    2    0  502 -0.16290439169E+03 -0.17805729196E+02  0.13978145232E+01  0.23829779418E+03  0.17300000000E+03 0. -1.
<mgrwt>
<rscale>  2 0.23829369E+03</rscale>
<asrwt>0</asrwt>
<pdfrwt beam="1">  1       21 0.29728408E-01 0.23829369E+03</pdfrwt>
<pdfrwt beam="2">  1       21 0.47983118E-01 0.23829369E+03</pdfrwt>
<totfact> 0.44068141E+04</totfact>
</mgrwt>
</event>
<event>
 4    1  0.4365842E+000  0.3045280E+03  0.7546771E-02  0.1082999E+00
         21   -1    0    0  501  502  0.00000000000E+00  0.00000000000E+00  0.16945391123E+03  0.16945391123E+03  0.00000000000E+00 0. -1.
         21   -1    0    0  502  503 -0.00000000000E+00 -0.00000000000E+00 -0.54819957387E+03  0.54819957387E+03  0.00000000000E+00 0. -1.
          6    1    1    2  501    0  0.17093383141E+03  0.18327551068E+03 -0.17460833396E+03  0.35103469604E+03  0.17300000000E+03 0. -1.
         -6    1    1    2    0  503 -0.17093383141E+03 -0.18327551068E+03 -0.20413732869E+03  0.36661878907E+03  0.17300000000E+03 0. -1.
<mgrwt>
<rscale>  2 0.30452797E+03</rscale>
<asrwt>0</asrwt>
<pdfrwt beam="1">  1       21 0.26069833E-01 0.30452797E+03</pdfrwt>
<pdfrwt beam="2">  1       21 0.84338396E-01 0.30452797E+03</pdfrwt>
<totfact> 0.16093364E+04</totfact>
</mgrwt>
</event>
<event>
 4    1  0.4365842E+000  0.1734309E+03  0.7546771E-02  0.1174316E+00
         21   -1    0    0  503  502  0.00000000000E+00  0.00000000000E+00  0.13209596463E+03  0.13209596463E+03  0.00000000000E+00 0. -1.
         21   -1    0    0  501  503 -0.00000000000E+00 -0.00000000000E+00 -0.27013820981E+03  0.27013820981E+03  0.00000000000E+00 0. -1.
          6    1    1    2  501    0 -0.45732901212E+01 -0.11330090129E+02 -0.14873485462E+03  0.22847394360E+03  0.17300000000E+03 0. -1.
         -6    1    1    2    0  502  0.45732901212E+01  0.11330090129E+02  0.10692609435E+02  0.17376023084E+03  0.17300000000E+03 0. -1.
<mgrwt>
<rscale>  2 0.17343093E+03</rscale>
<asrwt>0</asrwt>
<pdfrwt beam="1">  1       21 0.20322456E-01 0.17343093E+03</pdfrwt>
<pdfrwt beam="2">  1       21 0.41559724E-01 0.17343093E+03</pdfrwt>
<totfact> 0.12572785E+05</totfact>
</mgrwt>
</event>
<event>
 4    1  0.4365842E+000  0.4150911E+03  0.7546771E-02  0.1038676E+00
         21   -1    0    0  503  502  0.00000000000E+00  0.00000000000E+00  0.16831278923E+03  0.16831278923E+03  0.00000000000E+00 0.  1.
         21   -1    0    0  501  503 -0.00000000000E+00 -0.00000000000E+00 -0.10239654343E+04  0.10239654343E+04  0.00000000000E+00 0. -1.
          6    1    1    2  501    0 -0.34594927897E+03  0.15063429183E+03 -0.43755336817E+03  0.60311984173E+03  0.17300000000E+03 0. -1.
         -6    1    1    2    0  502  0.34594927897E+03 -0.15063429183E+03 -0.41809927688E+03  0.58915838178E+03  0.17300000000E+03 0.  1.
<mgrwt>
<rscale>  2 0.41509107E+03</rscale>
<asrwt>0</asrwt>
<pdfrwt beam="1">  1       21 0.25894276E-01 0.41509107E+03</pdfrwt>
<pdfrwt beam="2">  1       21 0.15753314E+00 0.41509107E+03</pdfrwt>
<totfact> 0.32498707E+03</totfact>
</mgrwt>
</event>
<event>
 4    1  0.4365842E+000  0.1799266E+03  0.7546771E-02  0.1167874E+00
         21   -1    0    0  501  502  0.00000000000E+00  0.00000000000E+00  0.32890310935E+03  0.32890310935E+03  0.00000000000E+00 0.  1.
         21   -1    0    0  502  503 -0.00000000000E+00 -0.00000000000E+00 -0.64649667390E+03  0.64649667390E+03  0.00000000000E+00 0.  1.
          6    1    1    2  501    0  0.47821595314E+02  0.12556784490E+02  0.29024488013E+03  0.34149036334E+03  0.17300000000E+03 0.  1.
         -6    1    1    2    0  503 -0.47821595314E+02 -0.12556784490E+02 -0.60783844468E+03  0.63390941991E+03  0.17300000000E+03 0.  1.
<mgrwt>
<rscale>  2 0.17992659E+03</rscale>
<asrwt>0</asrwt>
<pdfrwt beam="1">  1       21 0.50600479E-01 0.17992659E+03</pdfrwt>
<pdfrwt beam="2">  1       21 0.99461025E-01 0.17992659E+03</pdfrwt>
<totfact> 0.31250082E+03</totfact>
</mgrwt>
</event>
<event>
 4    1  0.4365842E+000  0.2105101E+03  0.7546771E-02  0.1141163E+00
         21   -1    0    0  501  502  0.00000000000E+00  0.00000000000E+00  0.37329671128E+03  0.37329671128E+03  0.00000000000E+00 0. -1.
         21   -1    0    0  502  503 -0.00000000000E+00 -0.00000000000E+00 -0.12067726813E+03  0.12067726813E+03  0.00000000000E+00 0.  1.
          6    1    1    2  501    0 -0.11478137568E+03  0.34795634005E+02  0.15783512725E+03  0.26310915557E+03  0.17300000000E+03 0. -1.
         -6    1    1    2    0  503  0.11478137568E+03 -0.34795634005E+02  0.94784315900E+02  0.23086482384E+03  0.17300000000E+03 0. -1.
<mgrwt>
<rscale>  2 0.21051010E+03</rscale>
<asrwt>0</asrwt>
<pdfrwt beam="1">  1       21 0.57430263E-01 0.21051010E+03</pdfrwt>
<pdfrwt beam="2">  1       21 0.18565734E-01 0.21051010E+03</pdfrwt>
<totfact> 0.74856307E+04</totfact>
</mgrwt>
</event>
<event>
 4    1  0.4365842E+000  0.1821037E+03  0.7546771E-02  0.1165783E+00
         21   -1    0    0  503  502  0.00000000000E+00  0.00000000000E+00  0.10940238313E+03  0.10940238313E+03  0.00000000000E+00 0. -1.
         21   -1    0    0  501  503 -0.00000000000E+00 -0.00000000000E+00 -0.43071170136E+03  0.43071170136E+03  0.00000000000E+00 0. -1.
          6    1    1    2  501    0 -0.50027882441E+01 -0.56636686330E+02 -0.30764140690E+03  0.35749822009E+03  0.17300000000E+03 0. -1.
         -6    1    1    2    0  502  0.50027882441E+01  0.56636686330E+02 -0.13667911326E+02  0.18261586439E+03  0.17300000000E+03 0. -1.
<mgrwt>
<rscale>  2 0.18210366E+03</rscale>
<asrwt>0</asrwt>
<pdfrwt beam="1">  1       21 0.16831136E-01 0.18210366E+03</pdfrwt>
<pdfrwt beam="2">  1       21 0.66263338E-01 0.18210366E+03</pdfrwt>
<totfact> 0.66714459E+04</totfact>
</mgrwt>
</event>
<event>
 4    1  0.4365842E+000  0.2727990E+03  0.7546771E-02  0.1099688E+00
         21   -1    0    0  503  502  0.00000000000E+00  0.00000000000E+00  0.29499976068E+04  0.29499976068E+04  0.00000000000E+00 0. -1.
         21   -1    0    0  501  503 -0.00000000000E+00 -0.00000000000E+00 -0.28417292807E+02  0.28417292807E+02  0.00000000000E+00 0.  1.
          6    1    1    2  501    0 -0.19666841302E+02  0.21000832478E+03  0.96180659456E+03  0.99974557087E+03  0.17300000000E+03 0.  1.
         -6    1    1    2    0  502  0.19666841302E+02 -0.21000832478E+03  0.19597737194E+04  0.19786693287E+04  0.17300000000E+03 0. -1.
<mgrwt>
<rscale>  2 0.27279898E+03</rscale>
<asrwt>0</asrwt>
<pdfrwt beam="1">  1       21 0.45384554E+00 0.27279898E+03</pdfrwt>
<pdfrwt beam="2">  1       21 0.43718935E-02 0.27279898E+03</pdfrwt>
<totfact> 0.11923048E+03</totfact>
</mgrwt>
</event>
<event>
 4    1  0.4365842E+000  0.1794942E+03  0.7546771E-02  0.1168293E+00
         21   -1    0    0  501  502  0.00000000000E+00  0.00000000000E+00  0.60263772729E+02  0.60263772729E+02  0.00000000000E+00 0.  1.
         21   -1    0    0  502  503 -0.00000000000E+00 -0.00000000000E+00 -0.62122991094E+03  0.62122991094E+03  0.00000000000E+00 0.  1.
          6    1    1    2  501    0 -0.47755698256E+02  0.29282525426E+01 -0.15325264136E+03  0.23601812105E+03  0.17300000000E+03 0. -1.
         -6    1    1    2    0  503  0.47755698256E+02 -0.29282525426E+01 -0.40771349685E+03  0.44547556262E+03  0.17300000000E+03 0. -1.
<mgrwt>
<rscale>  2 0.17949424E+03</rscale>
<asrwt>0</asrwt>
<pdfrwt beam="1">  1       21 0.92713498E-02 0.17949424E+03</pdfrwt>
<pdfrwt beam="2">  1       21 0.95573831E-01 0.17949424E+03</pdfrwt>
<totfact> 0.85163481E+04</totfact>
</mgrwt>
</event>
<event>
 4    1  0.4365842E+000  0.1960362E+03  0.7546771E-02  0.1153127E+00
         21   -1    0    0  501  502  0.00000000000E+00  0.00000000000E+00  0.21457475233E+02  0.21457475233E+02  0.00000000000E+00 0. -1.
         21   -1    0    0  502  503 -0.00000000000E+00 -0.00000000000E+00 -0.18210513808E+04  0.18210513808E+04  0.00000000000E+00 0. -1.
          6    1    1    2  501    0 -0.62882913701E+02  0.67431049185E+02 -0.10181541808E+04  0.10368549286E+04  0.17300000000E+03 0. -1.
         -6    1    1    2    0  503  0.62882913701E+02 -0.67431049185E+02 -0.78143972480E+03  0.80565392739E+03  0.17300000000E+03 0. -1.
<mgrwt>
<rscale>  2 0.19603624E+03</rscale>
<asrwt>0</asrwt>
<pdfrwt beam="1">  1       21 0.33011495E-02 0.19603624E+03</pdfrwt>
<pdfrwt beam="2">  1       21 0.28016180E+00 0.19603624E+03</pdfrwt>
<totfact> 0.23899968E+04</totfact>
</mgrwt>
</event>
<event>
 4    1  0.4365842E+000  0.2162023E+03  0.7546771E-02  0.1136746E+00
         21   -1    0    0  501  502  0.00000000000E+00  0.00000000000E+00  0.16723977879E+04  0.16723977879E+04  0.00000000000E+00 0. -1.
         21   -1    0    0  502  503 -0.00000000000E+00 -0.00000000000E+00 -0.84600941850E+02  0.84600941850E+02  0.00000000000E+00 0. -1.
          6    1    1    2  501    0  0.42798649966E+02 -0.12240381083E+03  0.15127804922E+04  0.15281519017E+04  0.17300000000E+03 0. -1.
         -6    1    1    2    0  503 -0.42798649966E+02  0.12240381083E+03  0.75016353909E+02  0.22884682803E+03  0.17300000000E+03 0. -1.
<mgrwt>
<rscale>  2 0.21620226E+03</rscale>
<asrwt>0</asrwt>
<pdfrwt beam="1">  1       21 0.25729194E+00 0.21620226E+03</pdfrwt>
<pdfrwt beam="2">  1       21 0.13015531E-01 0.21620226E+03</pdfrwt>
<totfact> 0.29806096E+03</totfact>
</mgrwt>
</event>
<event>
 4    1  0.4365842E+000  0.2463761E+03  0.7546771E-02  0.1115617E+00
         21   -1    0    0  501  502  0.00000000000E+00  0.00000000000E+00  0.32546889769E+03  0.32546889769E+03  0.00000000000E+00 0. -1.
         21   -1    0    0  502  503 -0.00000000000E+00 -0.00000000000E+00 -0.18814173200E+03  0.18814173200E+03  0.00000000000E+00 0. -1.
          6    1    1    2  501    0 -0.84992514420E+02 -0.15345508510E+03  0.92624727449E+02  0.26321195031E+03  0.17300000000E+03 0. -1.
         -6    1    1    2    0  503  0.84992514420E+02  0.15345508510E+03  0.44702438238E+02  0.25039867938E+03  0.17300000000E+03 0. -1.
<mgrwt>
<rscale>  2 0.24637612E+03</rscale>
<asrwt>0</asrwt>
<pdfrwt beam="1">  1       21 0.50072138E-01 0.24637612E+03</pdfrwt>
<pdfrwt beam="2">  1       21 0.28944882E-01 0.24637612E+03</pdfrwt>
<totfact> 0.42328050E+04</totfact>
</mgrwt>
</event>
<event>
 4    1  0.4365842E+000  0.1986860E+03  0.7546771E-02  0.1150852E+00
         21   -1    0    0  503  502  0.00000000000E+00  0.00000000000E+00  0.46112146767E+03  0.46112146767E+03  0.00000000000E+00 0. -1.
         21   -1    0    0  501  503 -0.00000000000E+00 -0.00000000000E+00 -0.88559789421E+02  0.88559789421E+02  0.00000000000E+00 0. -1.
          6    1    1    2  501    0  0.74594449962E+02 -0.63109247254E+02  0.13611155249E+03  0.24083700666E+03  0.17300000000E+03 0. -1.
         -6    1    1    2    0  502 -0.74594449962E+02  0.63109247254E+02  0.23645012576E+03  0.30884425043E+03  0.17300000000E+03 0. -1.
<mgrwt>
<rscale>  2 0.19868596E+03</rscale>
<asrwt>0</asrwt>
<pdfrwt beam="1">  1       21 0.70941763E-01 0.19868596E+03</pdfrwt>
<pdfrwt beam="2">  1       21 0.13624583E-01 0.19868596E+03</pdfrwt>
<totfact> 0.83805530E+04</totfact>
</mgrwt>
</event>
<event>
 4    1  0.4365842E+000  0.1883729E+03  0.7546771E-02  0.1159937E+00
         21   -1    0    0  503  502  0.00000000000E+00  0.00000000000E+00  0.25314203438E+03  0.25314203438E+03  0.00000000000E+00 0.  1.
         21   -1    0    0  501  503 -0.00000000000E+00 -0.00000000000E+00 -0.14382733682E+03  0.14382733682E+03  0.00000000000E+00 0.  1.
          6    1    1    2  501    0 -0.74197566846E+02  0.70759702814E+01  0.23030693496E+02  0.18977555460E+03  0.17300000000E+03 0.  1.
         -6    1    1    2    0  502  0.74197566846E+02 -0.70759702814E+01  0.86284004068E+02  0.20719381660E+03  0.17300000000E+03 0.  1.
<mgrwt>
<rscale>  2 0.18837290E+03</rscale>
<asrwt>0</asrwt>
<pdfrwt beam="1">  1       21 0.38944928E-01 0.18837290E+03</pdfrwt>
<pdfrwt beam="2">  1       21 0.22127283E-01 0.18837290E+03</pdfrwt>
<totfact> 0.12156717E+05</totfact>
</mgrwt>
</event>
<event>
 4    1  0.4365842E+000  0.1870329E+03  0.7546771E-02  0.1161165E+00
         21   -1    0    0  501  502  0.00000000000E+00  0.00000000000E+00  0.58186633727E+02  0.58186633727E+02  0.00000000000E+00 0.  1.
         21   -1    0    0  502  503 -0.00000000000E+00 -0.00000000000E+00 -0.60192760658E+03  0.60192760658E+03  0.00000000000E+00 0.  1.
          6    1    1    2  501    0  0.68641186892E+02 -0.18458117164E+02 -0.26032899612E+03  0.32055030939E+03  0.17300000000E+03 0. -1.
         -6    1    1    2    0  503 -0.68641186892E+02  0.18458117164E+02 -0.28341197674E+03  0.33956393092E+03  0.17300000000E+03 0. -1.
<mgrwt>
<rscale>  2 0.18703292E+03</rscale>
<asrwt>0</asrwt>
<pdfrwt beam="1">  1       21 0.89517902E-02 0.18703292E+03</pdfrwt>
<pdfrwt beam="2">  1       21 0.92604243E-01 0.18703292E+03</pdfrwt>
<totfact> 0.97179143E+04</totfact>
</mgrwt>
</event>
<event>
 4    1  0.4365842E+000  0.2208504E+03  0.7546771E-02  0.1133251E+00
         21   -1    0    0  503  502  0.00000000000E+00  0.00000000000E+00  0.33778324285E+03  0.33778324285E+03  0.00000000000E+00 0. -1.
         21   -1    0    0  501  503 -0.00000000000E+00 -0.00000000000E+00 -0.15118283532E+03  0.15118283532E+03  0.00000000000E+00 0. -1.
          6    1    1    2  501    0  0.13724817720E+03  0.29697000764E+01  0.41503790635E+02  0.22471636767E+03  0.17300000000E+03 0. -1.
         -6    1    1    2    0  502 -0.13724817720E+03 -0.29697000764E+01  0.14509661689E+03  0.26424971049E+03  0.17300000000E+03 0. -1.
<mgrwt>
<rscale>  2 0.22085036E+03</rscale>
<asrwt>0</asrwt>
<pdfrwt beam="1">  1       21 0.51966652E-01 0.22085036E+03</pdfrwt>
<pdfrwt beam="2">  1       21 0.23258898E-01 0.22085036E+03</pdfrwt>
<totfact> 0.60304392E+04</totfact>
</mgrwt>
</event>
<event>
 4    1  0.4365842E+000  0.2105386E+03  0.7546771E-02  0.1141140E+00
         21   -1    0    0  501  502  0.00000000000E+00  0.00000000000E+00  0.68120130060E+03  0.68120130060E+03  0.00000000000E+00 0. -1.
         21   -1    0    0  502  503 -0.00000000000E+00 -0.00000000000E+00 -0.67982800682E+02  0.67982800682E+02  0.00000000000E+00 0. -1.
          6    1    1    2  501    0  0.71608271369E+02 -0.96279518862E+02  0.22908538361E+03  0.31113759539E+03  0.17300000000E+03 0. -1.
         -6    1    1    2    0  503 -0.71608271369E+02  0.96279518862E+02  0.38413311631E+03  0.43804650589E+03  0.17300000000E+03 0. -1.
<mgrwt>
<rscale>  2 0.21053857E+03</rscale>
<asrwt>0</asrwt>
<pdfrwt beam="1">  1       21 0.10480020E+00 0.21053857E+03</pdfrwt>
<pdfrwt beam="2">  1       21 0.10458893E-01 0.21053857E+03</pdfrwt>
<totfact> 0.54520639E+04</totfact>
</mgrwt>
</event>
<event>
 4    1  0.4365842E+000  0.1774698E+03  0.7546771E-02  0.1170274E+00
         21   -1    0    0  503  502  0.00000000000E+00  0.00000000000E+00  0.21617186811E+03  0.21617186811E+03  0.00000000000E+00 0.  1.
         21   -1    0    0  501  503 -0.00000000000E+00 -0.00000000000E+00 -0.20389326693E+03  0.20389326693E+03  0.00000000000E+00 0.  1.
          6    1    1    2  501    0 -0.22587317275E+02 -0.32501545875E+02 -0.10607125609E+03  0.20675262696E+03  0.17300000000E+03 0.  1.
         -6    1    1    2    0  502  0.22587317275E+02  0.32501545875E+02  0.11834985727E+03  0.21331250808E+03  0.17300000000E+03 0.  1.
<mgrwt>
<rscale>  2 0.17746982E+03</rscale>
<asrwt>0</asrwt>
<pdfrwt beam="1">  1       21 0.33257210E-01 0.17746982E+03</pdfrwt>
<pdfrwt beam="2">  1       21 0.31368195E-01 0.17746982E+03</pdfrwt>
<totfact> 0.85549417E+04</totfact>
</mgrwt>
</event>
<event>
 4    1  0.4365842E+000  0.4275655E+03  0.7546771E-02  0.1034632E+00
         21   -1    0    0  501  502  0.00000000000E+00  0.00000000000E+00  0.47700713548E+03  0.47700713548E+03  0.00000000000E+00 0. -1.
         21   -1    0    0  502  503 -0.00000000000E+00 -0.00000000000E+00 -0.39100967793E+03  0.39100967793E+03  0.00000000000E+00 0.  1.
          6    1    1    2  501    0 -0.34763796011E+03 -0.17897241620E+03 -0.18147227913E+02  0.42795046320E+03  0.17300000000E+03 0. -1.
         -6    1    1    2    0  503  0.34763796011E+03  0.17897241620E+03  0.10414468546E+03  0.44006635020E+03  0.17300000000E+03 0.  1.
<mgrwt>
<rscale>  2 0.42756552E+03</rscale>
<asrwt>0</asrwt>
<pdfrwt beam="1">  1       21 0.73385713E-01 0.42756552E+03</pdfrwt>
<pdfrwt beam="2">  1       21 0.60155335E-01 0.42756552E+03</pdfrwt>
<totfact> 0.37924217E+03</totfact>
</mgrwt>
</event>
<event>
 4    1  0.4365842E+000  0.2035141E+03  0.7546771E-02  0.1146808E+00
         21   -1    0    0  501  502  0.00000000000E+00  0.00000000000E+00  0.62276249989E+03  0.62276249989E+03  0.00000000000E+00 0.  1.
         21   -1    0    0  502  503 -0.00000000000E+00 -0.00000000000E+00 -0.21510259020E+03  0.21510259020E+03  0.00000000000E+00 0.  1.
          6    1    1    2  501    0 -0.93415040863E+02  0.52560599564E+02  0.55202647486E+03  0.58834616972E+03  0.17300000000E+03 0.  1.
         -6    1    1    2    0  503  0.93415040863E+02 -0.52560599564E+02 -0.14436656516E+03  0.24951892037E+03  0.17300000000E+03 0.  1.
<mgrwt>
<rscale>  2 0.20351409E+03</rscale>
<asrwt>0</asrwt>
<pdfrwt beam="1">  1       21 0.95809615E-01 0.20351409E+03</pdfrwt>
<pdfrwt beam="2">  1       21 0.33092706E-01 0.20351409E+03</pdfrwt>
<totfact> 0.79208813E+03</totfact>
</mgrwt>
</event>
<event>
 4    1  0.4365842E+000  0.3147087E+03  0.7546771E-02  0.1078111E+00
         21   -1    0    0  501  502  0.00000000000E+00  0.00000000000E+00  0.19480397731E+03  0.19480397731E+03  0.00000000000E+00 0. -1.
         21   -1    0    0  502  503 -0.00000000000E+00 -0.00000000000E+00 -0.51939981725E+03  0.51939981725E+03  0.00000000000E+00 0.  1.
          6    1    1    2  501    0  0.19499111250E+03  0.17632641845E+03 -0.11036895059E+03  0.33350089213E+03  0.17300000000E+03 0. -1.
         -6    1    1    2    0  503 -0.19499111250E+03 -0.17632641845E+03 -0.21422688935E+03  0.38070290243E+03  0.17300000000E+03 0.  1.
<mgrwt>
<rscale>  2 0.31470866E+03</rscale>
<asrwt>0</asrwt>
<pdfrwt beam="1">  1       21 0.29969843E-01 0.31470866E+03</pdfrwt>
<pdfrwt beam="2">  1       21 0.79907663E-01 0.31470866E+03</pdfrwt>
<totfact> 0.13816446E+04</totfact>
</mgrwt>
</event>
<event>
 4    1  0.4365842E+000  0.2170155E+03  0.7546771E-02  0.1136128E+00
         21   -1    0    0  501  502  0.00000000000E+00  0.00000000000E+00  0.24454517851E+03  0.24454517851E+03  0.00000000000E+00 0.  1.
         21   -1    0    0  502  503 -0.00000000000E+00 -0.00000000000E+00 -0.20600747102E+03  0.20600747102E+03  0.00000000000E+00 0. -1.
          6    1    1    2  501    0  0.55984530493E+02  0.11845862254E+03  0.76772005209E+02  0.23019481683E+03  0.17300000000E+03 0. -1.
         -6    1    1    2    0  503 -0.55984530493E+02 -0.11845862254E+03 -0.38234297717E+02  0.22035783270E+03  0.17300000000E+03 0.  1.
<mgrwt>
<rscale>  2 0.21701547E+03</rscale>
<asrwt>0</asrwt>
<pdfrwt beam="1">  1       21 0.37622335E-01 0.21701547E+03</pdfrwt>
<pdfrwt beam="2">  1       21 0.31693457E-01 0.21701547E+03</pdfrwt>
<totfact> 0.64511682E+04</totfact>
</mgrwt>
</event>
<event>
 4    1  0.4365842E+000  0.2758159E+03  0.7546771E-02  0.1097996E+00
         21   -1    0    0  501  502  0.00000000000E+00  0.00000000000E+00  0.37462687565E+03  0.37462687565E+03  0.00000000000E+00 0.  1.
         21   -1    0    0  502  503 -0.00000000000E+00 -0.00000000000E+00 -0.21084419656E+03  0.21084419656E+03  0.00000000000E+00 0.  1.
          6    1    1    2  501    0 -0.21009219152E+03 -0.44796037096E+02  0.13811276158E+03  0.30846320492E+03  0.17300000000E+03 0.  1.
         -6    1    1    2    0  503  0.21009219152E+03  0.44796037096E+02  0.25669917505E+02  0.27700786730E+03  0.17300000000E+03 0.  1.
<mgrwt>
<rscale>  2 0.27581591E+03</rscale>
<asrwt>0</asrwt>
<pdfrwt beam="1">  1       21 0.57634904E-01 0.27581591E+03</pdfrwt>
<pdfrwt beam="2">  1       21 0.32437569E-01 0.27581591E+03</pdfrwt>
<totfact> 0.24783677E+04</totfact>
</mgrwt>
</event>
<event>
 4    1  0.4365842E+000  0.2266598E+03  0.7546771E-02  0.1129013E+00
         21   -1    0    0  503  502  0.00000000000E+00  0.00000000000E+00  0.14861609897E+03  0.14861609897E+03  0.00000000000E+00 0. -1.
         21   -1    0    0  501  503 -0.00000000000E+00 -0.00000000000E+00 -0.36594855424E+03  0.36594855424E+03  0.00000000000E+00 0. -1.
          6    1    1    2  501    0  0.11171171647E+02 -0.14601673928E+03 -0.16920507726E+03  0.28285162435E+03  0.17300000000E+03 0. -1.
         -6    1    1    2    0  502 -0.11171171647E+02  0.14601673928E+03 -0.48127378008E+02  0.23171302885E+03  0.17300000000E+03 0. -1.
<mgrwt>
<rscale>  2 0.22665984E+03</rscale>
<asrwt>0</asrwt>
<pdfrwt beam="1">  1       21 0.22864015E-01 0.22665984E+03</pdfrwt>
<pdfrwt beam="2">  1       21 0.56299778E-01 0.22665984E+03</pdfrwt>
<totfact> 0.52447312E+04</totfact>
</mgrwt>
</event>
<event>
 4    1  0.4365842E+000  0.1780829E+03  0.7546771E-02  0.1169671E+00
         21   -1    0    0  503  502  0.00000000000E+00  0.00000000000E+00  0.72291832661E+02  0.72291832661E+02  0.00000000000E+00 0. -1.
         21   -1    0    0  501  503 -0.00000000000E+00 -0.00000000000E+00 -0.46101810352E+03  0.46101810352E+03  0.00000000000E+00 0. -1.
          6    1    1    2  501    0  0.54994343782E+01 -0.41884009129E+02 -0.25305017149E+03  0.30943158096E+03  0.17300000000E+03 0. -1.
         -6    1    1    2    0  502 -0.54994343782E+01  0.41884009129E+02 -0.13567609936E+03  0.22387835522E+03  0.17300000000E+03 0. -1.
<mgrwt>
<rscale>  2 0.17808289E+03</rscale>
<asrwt>0</asrwt>
<pdfrwt beam="1">  1       21 0.11121821E-01 0.17808289E+03</pdfrwt>
<pdfrwt beam="2">  1       21 0.70925860E-01 0.17808289E+03</pdfrwt>
<totfact> 0.12160659E+05</totfact>
</mgrwt>
</event>
<event>
 4    1  0.4365842E+000  0.2327690E+03  0.7546771E-02  0.1124706E+00
         21   -1    0    0  503  502  0.00000000000E+00  0.00000000000E+00  0.40502250397E+03  0.40502250397E+03  0.00000000000E+00 0.  1.
         21   -1    0    0  501  503 -0.00000000000E+00 -0.00000000000E+00 -0.26980534821E+03  0.26980534821E+03  0.00000000000E+00 0.  1.
          6    1    1    2  501    0  0.15184230417E+03  0.34587969551E+02 -0.17197524660E+03  0.28940784097E+03  0.17300000000E+03 0.  1.
         -6    1    1    2    0  502 -0.15184230417E+03 -0.34587969551E+02  0.30719240236E+03  0.38542001121E+03  0.17300000000E+03 0.  1.
<mgrwt>
<rscale>  2 0.23276901E+03</rscale>
<asrwt>0</asrwt>
<pdfrwt beam="1">  1       21 0.62311155E-01 0.23276901E+03</pdfrwt>
<pdfrwt beam="2">  1       21 0.41508515E-01 0.23276901E+03</pdfrwt>
<totfact> 0.13021377E+04</totfact>
</mgrwt>
</event>
<event>
 4    1  0.4365842E+000  0.2057145E+03  0.7546771E-02  0.1145005E+00
         21   -1    0    0  501  502  0.00000000000E+00  0.00000000000E+00  0.36653146871E+02  0.36653146871E+02  0.00000000000E+00 0.  1.
         21   -1    0    0  502  503 -0.00000000000E+00 -0.00000000000E+00 -0.13420238394E+04  0.13420238394E+04  0.00000000000E+00 0. -1.
          6    1    1    2  501    0  0.34299018381E+02 -0.10589167242E+03 -0.39505057379E+03  0.44540254243E+03  0.17300000000E+03 0.  1.
         -6    1    1    2    0  503 -0.34299018381E+02  0.10589167242E+03 -0.91032011878E+03  0.93327444388E+03  0.17300000000E+03 0. -1.
<mgrwt>
<rscale>  2 0.20571453E+03</rscale>
<asrwt>0</asrwt>
<pdfrwt beam="1">  1       21 0.56389469E-02 0.20571453E+03</pdfrwt>
<pdfrwt beam="2">  1       21 0.20646516E+00 0.20571453E+03</pdfrwt>
<totfact> 0.26520383E+04</totfact>
</mgrwt>
</event>
<event>
 4    1  0.4365842E+000  0.1760791E+03  0.7546771E-02  0.1171653E+00
         21   -1    0    0  501  502  0.00000000000E+00  0.00000000000E+00  0.13442952670E+03  0.13442952670E+03  0.00000000000E+00 0. -1.
         21   -1    0    0  502  503 -0.00000000000E+00 -0.00000000000E+00 -0.28140267987E+03  0.28140267987E+03  0.00000000000E+00 0. -1.
          6    1    1    2  501    0 -0.11547385104E+02 -0.30684272910E+02  0.14826864711E+02  0.17670229943E+03  0.17300000000E+03 0. -1.
         -6    1    1    2    0  503  0.11547385104E+02  0.30684272910E+02 -0.16180001788E+03  0.23912990715E+03  0.17300000000E+03 0. -1.
<mgrwt>
<rscale>  2 0.17607915E+03</rscale>
<asrwt>0</asrwt>
<pdfrwt beam="1">  1       21 0.20681466E-01 0.17607915E+03</pdfrwt>
<pdfrwt beam="2">  1       21 0.43292719E-01 0.17607915E+03</pdfrwt>
<totfact> 0.11188021E+05</totfact>
</mgrwt>
</event>
<event>
 4    1  0.4365842E+000  0.1772563E+03  0.7546771E-02  0.1170485E+00
         21   -1    0    0  503  502  0.00000000000E+00  0.00000000000E+00  0.84030747510E+02  0.84030747510E+02  0.00000000000E+00 0.  1.
         21   -1    0    0  501  503 -0.00000000000E+00 -0.00000000000E+00 -0.37764545648E+03  0.37764545648E+03  0.00000000000E+00 0.  1.
          6    1    1    2  501    0  0.19653834742E+02 -0.33234303327E+02 -0.16977081083E+03  0.24544229535E+03  0.17300000000E+03 0.  1.
         -6    1    1    2    0  502 -0.19653834742E+02  0.33234303327E+02 -0.12384389813E+03  0.21623390863E+03  0.17300000000E+03 0.  1.
<mgrwt>
<rscale>  2 0.17725629E+03</rscale>
<asrwt>0</asrwt>
<pdfrwt beam="1">  1       21 0.12927807E-01 0.17725629E+03</pdfrwt>
<pdfrwt beam="2">  1       21 0.58099300E-01 0.17725629E+03</pdfrwt>
<totfact> 0.14327617E+05</totfact>
</mgrwt>
</event>
<event>
 4    1  0.4365842E+000  0.2989454E+03  0.7546771E-02  0.1085769E+00
         21   -1    0    0  501  502  0.00000000000E+00  0.00000000000E+00  0.77188425660E+03  0.77188425660E+03  0.00000000000E+00 0. -1.
         21   -1    0    0  502  503 -0.00000000000E+00 -0.00000000000E+00 -0.12832417382E+03  0.12832417382E+03  0.00000000000E+00 0. -1.
          6    1    1    2  501    0 -0.12908291537E+03  0.20682586400E+03  0.46251090113E+03  0.55071287503E+03  0.17300000000E+03 0. -1.
         -6    1    1    2    0  503  0.12908291537E+03 -0.20682586400E+03  0.18104918164E+03  0.34949555539E+03  0.17300000000E+03 0. -1.
<mgrwt>
<rscale>  2 0.29894537E+03</rscale>
<asrwt>0</asrwt>
<pdfrwt beam="1">  1       21 0.11875142E+00 0.29894537E+03</pdfrwt>
<pdfrwt beam="2">  1       21 0.19742181E-01 0.29894537E+03</pdfrwt>
<totfact> 0.12061429E+04</totfact>
</mgrwt>
</event>
<event>
 4    1  0.4365842E+000  0.1796301E+03  0.7546771E-02  0.1168162E+00
         21   -1    0    0  501  502  0.00000000000E+00  0.00000000000E+00  0.18473278574E+03  0.18473278574E+03  0.00000000000E+00 0. -1.
         21   -1    0    0  502  503 -0.00000000000E+00 -0.00000000000E+00 -0.17467126725E+03  0.17467126725E+03  0.00000000000E+00 0. -1.
          6    1    1    2  501    0 -0.31324380177E+02  0.36833982606E+02  0.57731557780E+01  0.17972280989E+03  0.17300000000E+03 0.  1.
         -6    1    1    2    0  503  0.31324380177E+02 -0.36833982606E+02  0.42883627082E+01  0.17968124310E+03  0.17300000000E+03 0.  1.
<mgrwt>
<rscale>  2 0.17963006E+03</rscale>
<asrwt>0</asrwt>
<pdfrwt beam="1">  1       21 0.28420428E-01 0.17963006E+03</pdfrwt>
<pdfrwt beam="2">  1       21 0.26872503E-01 0.17963006E+03</pdfrwt>
<totfact> 0.15675858E+05</totfact>
</mgrwt>
</event>
<event>
 4    1  0.4365842E+000  0.1882752E+03  0.7546771E-02  0.1160026E+00
         21   -1    0    0  501  502  0.00000000000E+00  0.00000000000E+00  0.40029729725E+03  0.40029729725E+03  0.00000000000E+00 0.  1.
         21   -1    0    0  502  503 -0.00000000000E+00 -0.00000000000E+00 -0.21797923966E+03  0.21797923966E+03  0.00000000000E+00 0. -1.
          6    1    1    2  501    0  0.46104441973E+02 -0.58248927489E+02  0.32936697349E+03  0.37938128624E+03  0.17300000000E+03 0. -1.
         -6    1    1    2    0  503 -0.46104441973E+02  0.58248927489E+02 -0.14704891590E+03  0.23889525066E+03  0.17300000000E+03 0. -1.
<mgrwt>
<rscale>  2 0.18827522E+03</rscale>
<asrwt>0</asrwt>
<pdfrwt beam="1">  1       21 0.61584199E-01 0.18827522E+03</pdfrwt>
<pdfrwt beam="2">  1       21 0.33535268E-01 0.18827522E+03</pdfrwt>
<totfact> 0.21035891E+04</totfact>
</mgrwt>
</event>
<event>
 4    1  0.4365842E+000  0.2234021E+03  0.7546771E-02  0.1131372E+00
         21   -1    0    0  503  502  0.00000000000E+00  0.00000000000E+00  0.15748302248E+04  0.15748302248E+04  0.00000000000E+00 0.  1.
         21   -1    0    0  501  503 -0.00000000000E+00 -0.00000000000E+00 -0.34058599378E+02  0.34058599378E+02  0.00000000000E+00 0.  1.
          6    1    1    2  501    0 -0.98112494293E+02 -0.10175184721E+03  0.55830351799E+03  0.60134126596E+03  0.17300000000E+03 0.  1.
         -6    1    1    2    0  502  0.98112494293E+02  0.10175184721E+03  0.98246810743E+03  0.10075475582E+04  0.17300000000E+03 0.  1.
<mgrwt>
<rscale>  2 0.22340210E+03</rscale>
<asrwt>0</asrwt>
<pdfrwt beam="1">  1       21 0.24228152E+00 0.22340210E+03</pdfrwt>
<pdfrwt beam="2">  1       21 0.52397857E-02 0.22340210E+03</pdfrwt>
<totfact> 0.17885839E+04</totfact>
</mgrwt>
</event>
<event>
 4    1  0.4365842E+000  0.1860172E+03  0.7546771E-02  0.1162103E+00
         21   -1    0    0  501  502  0.00000000000E+00  0.00000000000E+00  0.15375156792E+03  0.15375156792E+03  0.00000000000E+00 0.  1.
         21   -1    0    0  502  503 -0.00000000000E+00 -0.00000000000E+00 -0.40496188583E+03  0.40496188583E+03  0.00000000000E+00 0.  1.
          6    1    1    2  501    0  0.60266593794E+02  0.32269553468E+02  0.60593825211E+02  0.19563741478E+03  0.17300000000E+03 0.  1.
         -6    1    1    2    0  503 -0.60266593794E+02 -0.32269553468E+02 -0.31180414312E+03  0.36307603897E+03  0.17300000000E+03 0.  1.
<mgrwt>
<rscale>  2 0.18601717E+03</rscale>
<asrwt>0</asrwt>
<pdfrwt beam="1">  1       21 0.23654088E-01 0.18601717E+03</pdfrwt>
<pdfrwt beam="2">  1       21 0.62301828E-01 0.18601717E+03</pdfrwt>
<totfact> 0.40345953E+04</totfact>
</mgrwt>
</event>
<event>
 4    1  0.4365842E+000  0.1969445E+03  0.7546771E-02  0.1152343E+00
         21   -1    0    0  501  502  0.00000000000E+00  0.00000000000E+00  0.26879914950E+02  0.26879914950E+02  0.00000000000E+00 0.  1.
         21   -1    0    0  502  503 -0.00000000000E+00 -0.00000000000E+00 -0.14499600464E+04  0.14499600464E+04  0.00000000000E+00 0.  1.
          6    1    1    2  501    0 -0.16016782229E+02 -0.92744798296E+02 -0.66030039130E+03  0.68904552947E+03  0.17300000000E+03 0.  1.
         -6    1    1    2    0  503  0.16016782229E+02  0.92744798296E+02 -0.76277974011E+03  0.78779443185E+03  0.17300000000E+03 0.  1.
<mgrwt>
<rscale>  2 0.19694450E+03</rscale>
<asrwt>0</asrwt>
<pdfrwt beam="1">  1       21 0.41353717E-02 0.19694450E+03</pdfrwt>
<pdfrwt beam="2">  1       21 0.22307077E+00 0.19694450E+03</pdfrwt>
<totfact> 0.35586226E+04</totfact>
</mgrwt>
</event>
<event>
 4    1  0.4365842E+000  0.1739086E+03  0.7546771E-02  0.1173832E+00
         21   -1    0    0  501  502  0.00000000000E+00  0.00000000000E+00  0.35700039908E+03  0.35700039908E+03  0.00000000000E+00 0.  1.
         21   -1    0    0  502  503 -0.00000000000E+00 -0.00000000000E+00 -0.88666871271E+03  0.88666871271E+03  0.00000000000E+00 0.  1.
          6    1    1    2  501    0 -0.13338845787E+02  0.11716127634E+02  0.32654787662E+03  0.36996987469E+03  0.17300000000E+03 0.  1.
         -6    1    1    2    0  503  0.13338845787E+02 -0.11716127634E+02 -0.85621619025E+03  0.87369923710E+03  0.17300000000E+03 0.  1.
<mgrwt>
<rscale>  2 0.17390857E+03</rscale>
<asrwt>0</asrwt>
<pdfrwt beam="1">  1       21 0.54923139E-01 0.17390857E+03</pdfrwt>
<pdfrwt beam="2">  1       21 0.13641057E+00 0.17390857E+03</pdfrwt>
<totfact> 0.12206427E+03</totfact>
</mgrwt>
</event>
<event>
 4    1  0.4365842E+000  0.1854845E+03  0.7546771E-02  0.1162598E+00
         21   -1    0    0  501  502  0.00000000000E+00  0.00000000000E+00  0.80256573371E+02  0.80256573371E+02  0.00000000000E+00 0.  1.
         21   -1    0    0  502  503 -0.00000000000E+00 -0.00000000000E+00 -0.43082091552E+03  0.43082091552E+03  0.00000000000E+00 0.  1.
          6    1    1    2  501    0  0.59409059469E+02 -0.30757943957E+02 -0.15727347641E+03  0.24318600668E+03  0.17300000000E+03 0.  1.
         -6    1    1    2    0  503 -0.59409059469E+02  0.30757943957E+02 -0.19329086574E+03  0.26789148222E+03  0.17300000000E+03 0.  1.
<mgrwt>
<rscale>  2 0.18548447E+03</rscale>
<asrwt>0</asrwt>
<pdfrwt beam="1">  1       21 0.12347165E-01 0.18548447E+03</pdfrwt>
<pdfrwt beam="2">  1       21 0.66280140E-01 0.18548447E+03</pdfrwt>
<totfact> 0.11677420E+05</totfact>
</mgrwt>
</event>
<event>
 4    1  0.4365842E+000  0.1783584E+03  0.7546771E-02  0.1169401E+00
         21   -1    0    0  501  502  0.00000000000E+00  0.00000000000E+00  0.76343307148E+02  0.76343307148E+02  0.00000000000E+00 0.  1.
         21   -1    0    0  502  503 -0.00000000000E+00 -0.00000000000E+00 -0.75169337264E+03  0.75169337264E+03  0.00000000000E+00 0.  1.
          6    1    1    2  501    0  0.32011019092E+02 -0.29291612416E+02 -0.61285230568E+02  0.18859369922E+03  0.17300000000E+03 0.  1.
         -6    1    1    2    0  503 -0.32011019092E+02  0.29291612416E+02 -0.61406483492E+03  0.63944298056E+03  0.17300000000E+03 0.  1.
<mgrwt>
<rscale>  2 0.17835836E+03</rscale>
<asrwt>0</asrwt>
<pdfrwt beam="1">  1       21 0.11745124E-01 0.17835836E+03</pdfrwt>
<pdfrwt beam="2">  1       21 0.11564514E+00 0.17835836E+03</pdfrwt>
<totfact> 0.35548149E+04</totfact>
</mgrwt>
</event>
<event>
 4    1  0.4365842E+000  0.3709748E+03  0.7546771E-02  0.1054321E+00
         21   -1    0    0  501  502  0.00000000000E+00  0.00000000000E+00  0.42931640001E+03  0.42931640001E+03  0.00000000000E+00 0.  1.
         21   -1    0    0  502  503 -0.00000000000E+00 -0.00000000000E+00 -0.35474616881E+03  0.35474616881E+03  0.00000000000E+00 0. -1.
          6    1    1    2  501    0  0.23092325986E+03  0.23316891282E+03  0.15898153022E+03  0.40360552623E+03  0.17300000000E+03 0.  1.
         -6    1    1    2    0  503 -0.23092325986E+03 -0.23316891282E+03 -0.84411299018E+02  0.38045704259E+03  0.17300000000E+03 0. -1.
<mgrwt>
<rscale>  2 0.37097479E+03</rscale>
<asrwt>0</asrwt>
<pdfrwt beam="1">  1       21 0.66048677E-01 0.37097479E+03</pdfrwt>
<pdfrwt beam="2">  1       21 0.54576333E-01 0.37097479E+03</pdfrwt>
<totfact> 0.60596902E+03</totfact>
</mgrwt>
</event>
<event>
 4    1  0.4365842E+000  0.1882583E+03  0.7546771E-02  0.1160042E+00
         21   -1    0    0  501  502  0.00000000000E+00  0.00000000000E+00  0.93003406303E+03  0.93003406303E+03  0.00000000000E+00 0. -1.
         21   -1    0    0  502  503 -0.00000000000E+00 -0.00000000000E+00 -0.10255388312E+03  0.10255388312E+03  0.00000000000E+00 0. -1.
          6    1    1    2  501    0 -0.73714939095E+02 -0.88488449402E+01  0.82302012544E+03  0.84427680365E+03  0.17300000000E+03 0.  1.
         -6    1    1    2    0  503  0.73714939095E+02  0.88488449402E+01  0.44600544759E+01  0.18831114250E+03  0.17300000000E+03 0.  1.
<mgrwt>
<rscale>  2 0.18825832E+03</rscale>
<asrwt>0</asrwt>
<pdfrwt beam="1">  1       21 0.14308216E+00 0.18825832E+03</pdfrwt>
<pdfrwt beam="2">  1       21 0.15777521E-01 0.18825832E+03</pdfrwt>
<totfact> 0.12136709E+04</totfact>
</mgrwt>
</event>
<event>
 4    1  0.4365842E+000  0.2559990E+03  0.7546771E-02  0.1109571E+00
         21   -1    0    0  503  502  0.00000000000E+00  0.00000000000E+00  0.31544298701E+03  0.31544298701E+03  0.00000000000E+00 0.  1.
         21   -1    0    0  501  503 -0.00000000000E+00 -0.00000000000E+00 -0.32044589096E+03  0.32044589096E+03  0.00000000000E+00 0. -1.
          6    1    1    2  501    0 -0.17081518899E+03  0.80178917413E+02 -0.19104619966E+03  0.31942782908E+03  0.17300000000E+03 0. -1.
         -6    1    1    2    0  502  0.17081518899E+03 -0.80178917413E+02  0.18604329570E+03  0.31646104889E+03  0.17300000000E+03 0.  1.
<mgrwt>
<rscale>  2 0.25599900E+03</rscale>
<asrwt>0</asrwt>
<pdfrwt beam="1">  1       21 0.48529690E-01 0.25599900E+03</pdfrwt>
<pdfrwt beam="2">  1       21 0.49299368E-01 0.25599900E+03</pdfrwt>
<totfact> 0.15349183E+04</totfact>
</mgrwt>
</event>
<event>
 4    1  0.4365842E+000  0.1985400E+03  0.7546771E-02  0.1150977E+00
         21   -1    0    0  501  502  0.00000000000E+00  0.00000000000E+00  0.11417147888E+04  0.11417147888E+04  0.00000000000E+00 0.  1.
         21   -1    0    0  502  503 -0.00000000000E+00 -0.00000000000E+00 -0.34556992677E+02  0.34556992677E+02  0.00000000000E+00 0. -1.
          6    1    1    2  501    0 -0.95602436584E+02  0.18689537276E+02  0.57137045871E+03  0.60488207592E+03  0.17300000000E+03 0.  1.
         -6    1    1    2    0  503  0.95602436584E+02 -0.18689537276E+02  0.53578733742E+03  0.57138970556E+03  0.17300000000E+03 0. -1.
<mgrwt>
<rscale>  2 0.19853998E+03</rscale>
<asrwt>0</asrwt>
<pdfrwt beam="1">  1       21 0.17564840E+00 0.19853998E+03</pdfrwt>
<pdfrwt beam="2">  1       21 0.53164613E-02 0.19853998E+03</pdfrwt>
<totfact> 0.47066524E+04</totfact>
</mgrwt>
</event>
<event>
 4    1  0.4365842E+000  0.2945747E+03  0.7546771E-02  0.1087985E+00
         21   -1    0    0  503  502  0.00000000000E+00  0.00000000000E+00  0.19020074442E+03  0.19020074442E+03  0.00000000000E+00 0.  1.
         21   -1    0    0  501  503 -0.00000000000E+00 -0.00000000000E+00 -0.53851793154E+03  0.53851793154E+03  0.00000000000E+00 0. -1.
          6    1    1    2  501    0  0.19597768308E+03  0.13578653667E+03 -0.31659219563E+03  0.43244057874E+03  0.17300000000E+03 0. -1.
         -6    1    1    2    0  502 -0.19597768308E+03 -0.13578653667E+03 -0.31724991492E+02  0.29627809722E+03  0.17300000000E+03 0.  1.
<mgrwt>
<rscale>  2 0.29457467E+03</rscale>
<asrwt>0</asrwt>
<pdfrwt beam="1">  1       21 0.29261653E-01 0.29457467E+03</pdfrwt>
<pdfrwt beam="2">  1       21 0.82848912E-01 0.29457467E+03</pdfrwt>
<totfact> 0.13443286E+04</totfact>
</mgrwt>
</event>
<event>
 4    1  0.4365842E+000  0.1978579E+03  0.7546771E-02  0.1151559E+00
         21   -1    0    0  501  502  0.00000000000E+00  0.00000000000E+00  0.27096649242E+03  0.27096649242E+03  0.00000000000E+00 0. -1.
         21   -1    0    0  502  503 -0.00000000000E+00 -0.00000000000E+00 -0.27121240213E+03  0.27121240213E+03  0.00000000000E+00 0. -1.
          6    1    1    2  501    0 -0.90485415989E+02  0.32111098788E+02  0.18519230949E+03  0.27100539601E+03  0.17300000000E+03 0. -1.
         -6    1    1    2    0  503  0.90485415989E+02 -0.32111098788E+02 -0.18543821920E+03  0.27117349855E+03  0.17300000000E+03 0. -1.
<mgrwt>
<rscale>  2 0.19785786E+03</rscale>
<asrwt>0</asrwt>
<pdfrwt beam="1">  1       21 0.41687153E-01 0.19785786E+03</pdfrwt>
<pdfrwt beam="2">  1       21 0.41724985E-01 0.19785786E+03</pdfrwt>
<totfact> 0.30545816E+04</totfact>
</mgrwt>
</event>
<event>
 4    1  0.4365842E+000  0.1812767E+03  0.7546771E-02  0.1166573E+00
         21   -1    0    0  503  502  0.00000000000E+00  0.00000000000E+00  0.16827632534E+04  0.16827632534E+04  0.00000000000E+00 0. -1.
         21   -1    0    0  501  503 -0.00000000000E+00 -0.00000000000E+00 -0.22759787567E+02  0.22759787567E+02  0.00000000000E+00 0. -1.
          6    1    1    2  501    0  0.28270673761E+02 -0.46184588646E+02  0.50866893396E+03  0.54000493664E+03  0.17300000000E+03 0. -1.
         -6    1    1    2    0  502 -0.28270673761E+02  0.46184588646E+02  0.11513345319E+04  0.11655181044E+04  0.17300000000E+03 0. -1.
<mgrwt>
<rscale>  2 0.18127671E+03</rscale>
<asrwt>0</asrwt>
<pdfrwt beam="1">  1       21 0.25888656E+00 0.18127671E+03</pdfrwt>
<pdfrwt beam="2">  1       21 0.35015071E-02 0.18127671E+03</pdfrwt>
<totfact> 0.29158949E+04</totfact>
</mgrwt>
</event>
<event>
 4    1  0.4365842E+000  0.1962407E+03  0.7546771E-02  0.1152950E+00
         21   -1    0    0  503  502  0.00000000000E+00  0.00000000000E+00  0.48458609186E+03  0.48458609186E+03  0.00000000000E+00 0. -1.
         21   -1    0    0  501  503 -0.00000000000E+00 -0.00000000000E+00 -0.14775183652E+03  0.14775183652E+03  0.00000000000E+00 0. -1.
          6    1    1    2  501    0  0.88092223084E+02 -0.28656058265E+02 -0.46515859422E+02  0.20167829487E+03  0.17300000000E+03 0. -1.
         -6    1    1    2    0  502 -0.88092223084E+02  0.28656058265E+02  0.38335011477E+03  0.43065963351E+03  0.17300000000E+03 0. -1.
<mgrwt>
<rscale>  2 0.19624069E+03</rscale>
<asrwt>0</asrwt>
<pdfrwt beam="1">  1       21 0.74551706E-01 0.19624069E+03</pdfrwt>
<pdfrwt beam="2">  1       21 0.22731052E-01 0.19624069E+03</pdfrwt>
<totfact> 0.29184098E+04</totfact>
</mgrwt>
</event>
<event>
 4    1  0.4365842E+000  0.1837634E+03  0.7546771E-02  0.1164210E+00
         21   -1    0    0  501  502  0.00000000000E+00  0.00000000000E+00  0.10932012452E+03  0.10932012452E+03  0.00000000000E+00 0.  1.
         21   -1    0    0  502  503 -0.00000000000E+00 -0.00000000000E+00 -0.34740847487E+03  0.34740847487E+03  0.00000000000E+00 0. -1.
          6    1    1    2  501    0 -0.14420571457E+02 -0.60266263824E+02 -0.19507448062E+03  0.26799818736E+03  0.17300000000E+03 0. -1.
         -6    1    1    2    0  503  0.14420571457E+02  0.60266263824E+02 -0.43013869724E+02  0.18873041203E+03  0.17300000000E+03 0.  1.
<mgrwt>
<rscale>  2 0.18376337E+03</rscale>
<asrwt>0</asrwt>
<pdfrwt beam="1">  1       21 0.16818480E-01 0.18376337E+03</pdfrwt>
<pdfrwt beam="2">  1       21 0.53447458E-01 0.18376337E+03</pdfrwt>
<totfact> 0.10578153E+05</totfact>
</mgrwt>
</event>
<event>
 4    1  0.4365842E+000  0.2326735E+03  0.7546771E-02  0.1124772E+00
         21   -1    0    0  503  502  0.00000000000E+00  0.00000000000E+00  0.27695617922E+03  0.27695617922E+03  0.00000000000E+00 0. -1.
         21   -1    0    0  501  503 -0.00000000000E+00 -0.00000000000E+00 -0.23217676325E+03  0.23217676325E+03  0.00000000000E+00 0. -1.
          6    1    1    2  501    0 -0.14712322135E+03 -0.50623352286E+02 -0.78828250313E+02  0.24566411847E+03  0.17300000000E+03 0. -1.
         -6    1    1    2    0  502  0.14712322135E+03  0.50623352286E+02  0.12360766629E+03  0.26346882400E+03  0.17300000000E+03 0. -1.
<mgrwt>
<rscale>  2 0.23267352E+03</rscale>
<asrwt>0</asrwt>
<pdfrwt beam="1">  1       21 0.42608643E-01 0.23267352E+03</pdfrwt>
<pdfrwt beam="2">  1       21 0.35719502E-01 0.23267352E+03</pdfrwt>
<totfact> 0.39269768E+04</totfact>
</mgrwt>
</event>
<event>
 4    1  0.4365842E+000  0.2231967E+03  0.7546771E-02  0.1131522E+00
         21   -1    0    0  501  502  0.00000000000E+00  0.00000000000E+00  0.23110013798E+03  0.23110013798E+03  0.00000000000E+00 0. -1.
         21   -1    0    0  502  503 -0.00000000000E+00 -0.00000000000E+00 -0.21587846154E+03  0.21587846154E+03  0.00000000000E+00 0.  1.
          6    1    1    2  501    0  0.12044726068E+03  0.73349897554E+02 -0.92594615671E+00  0.22319858300E+03  0.17300000000E+03 0.  1.
         -6    1    1    2    0  503 -0.12044726068E+03 -0.73349897554E+02  0.16147622595E+02  0.22378001652E+03  0.17300000000E+03 0. -1.
<mgrwt>
<rscale>  2 0.22319666E+03</rscale>
<asrwt>0</asrwt>
<pdfrwt beam="1">  1       21 0.35553867E-01 0.22319666E+03</pdfrwt>
<pdfrwt beam="2">  1       21 0.33212071E-01 0.22319666E+03</pdfrwt>
<totfact> 0.65702462E+04</totfact>
</mgrwt>
</event>
<event>
 4    1  0.4365842E+000  0.1817791E+03  0.7546771E-02  0.1166092E+00
         21   -1    0    0  503  502  0.00000000000E+00  0.00000000000E+00  0.21513766147E+02  0.21513766147E+02  0.00000000000E+00 0.  1.
         21   -1    0    0  501  503 -0.00000000000E+00 -0.00000000000E+00 -0.16222636152E+04  0.16222636152E+04  0.00000000000E+00 0.  1.
          6    1    1    2  501    0  0.80663044858E+00  0.55803083971E+02 -0.98997684089E+03  0.10065275855E+04  0.17300000000E+03 0.  1.
         -6    1    1    2    0  502 -0.80663044858E+00 -0.55803083971E+02 -0.61077300820E+03  0.63724979591E+03  0.17300000000E+03 0.  1.
<mgrwt>
<rscale>  2 0.18177908E+03</rscale>
<asrwt>0</asrwt>
<pdfrwt beam="1">  1       21 0.33098080E-02 0.18177908E+03</pdfrwt>
<pdfrwt beam="2">  1       21 0.24957919E+00 0.18177908E+03</pdfrwt>
<totfact> 0.36270804E+04</totfact>
</mgrwt>
</event>
<event>
 4    1  0.4365842E+000  0.1891091E+03  0.7546771E-02  0.1159267E+00
         21   -1    0    0  501  502  0.00000000000E+00  0.00000000000E+00  0.65879806445E+02  0.65879806445E+02  0.00000000000E+00 0.  1.
         21   -1    0    0  502  503 -0.00000000000E+00 -0.00000000000E+00 -0.54377975911E+03  0.54377975911E+03  0.00000000000E+00 0.  1.
          6    1    1    2  501    0 -0.67641774466E+02 -0.35465871619E+02 -0.25161777849E+03  0.31475981979E+03  0.17300000000E+03 0.  1.
         -6    1    1    2    0  503  0.67641774466E+02  0.35465871619E+02 -0.22628217418E+03  0.29489974577E+03  0.17300000000E+03 0.  1.
<mgrwt>
<rscale>  2 0.18910906E+03</rscale>
<asrwt>0</asrwt>
<pdfrwt beam="1">  1       21 0.10135355E-01 0.18910906E+03</pdfrwt>
<pdfrwt beam="2">  1       21 0.83658423E-01 0.18910906E+03</pdfrwt>
<totfact> 0.98602952E+04</totfact>
</mgrwt>
</event>
<event>
 4    1  0.4365842E+000  0.1835005E+03  0.7546771E-02  0.1164458E+00
         21   -1    0    0  503  502  0.00000000000E+00  0.00000000000E+00  0.10024992914E+03  0.10024992914E+03  0.00000000000E+00 0.  1.
         21   -1    0    0  501  503 -0.00000000000E+00 -0.00000000000E+00 -0.35057605168E+03  0.35057605168E+03  0.00000000000E+00 0.  1.
          6    1    1    2  501    0  0.16097100452E+01  0.61162371623E+02 -0.17130727979E+03  0.25103507918E+03  0.17300000000E+03 0. -1.
         -6    1    1    2    0  502 -0.16097100452E+01 -0.61162371623E+02 -0.79018842752E+02  0.19979090164E+03  0.17300000000E+03 0. -1.
<mgrwt>
<rscale>  2 0.18350048E+03</rscale>
<asrwt>0</asrwt>
<pdfrwt beam="1">  1       21 0.15423066E-01 0.18350048E+03</pdfrwt>
<pdfrwt beam="2">  1       21 0.53934777E-01 0.18350048E+03</pdfrwt>
<totfact> 0.12160915E+05</totfact>
</mgrwt>
</event>
<event>
 4    1  0.4365842E+000  0.1942117E+03  0.7546771E-02  0.1154717E+00
         21   -1    0    0  501  502  0.00000000000E+00  0.00000000000E+00  0.27306194309E+03  0.27306194309E+03  0.00000000000E+00 0. -1.
         21   -1    0    0  502  503 -0.00000000000E+00 -0.00000000000E+00 -0.19047616622E+03  0.19047616622E+03  0.00000000000E+00 0. -1.
          6    1    1    2  501    0 -0.82789957139E+01  0.87867209329E+02  0.16279264581E+03  0.25341593039E+03  0.17300000000E+03 0. -1.
         -6    1    1    2    0  503  0.82789957139E+01 -0.87867209329E+02 -0.80206868941E+02  0.21012217891E+03  0.17300000000E+03 0. -1.
<mgrwt>
<rscale>  2 0.19421171E+03</rscale>
<asrwt>0</asrwt>
<pdfrwt beam="1">  1       21 0.42009530E-01 0.19421171E+03</pdfrwt>
<pdfrwt beam="2">  1       21 0.29304026E-01 0.19421171E+03</pdfrwt>
<totfact> 0.60792295E+04</totfact>
</mgrwt>
</event>
<event>
 4    1  0.4365842E+000  0.1912982E+03  0.7546771E-02  0.1157296E+00
         21   -1    0    0  503  502  0.00000000000E+00  0.00000000000E+00  0.26722911730E+03  0.26722911730E+03  0.00000000000E+00 0.  1.
         21   -1    0    0  501  503 -0.00000000000E+00 -0.00000000000E+00 -0.27510765229E+03  0.27510765229E+03  0.00000000000E+00 0.  1.
          6    1    1    2  501    0 -0.10874352583E+02 -0.80918228248E+02 -0.19610991374E+03  0.27396005087E+03  0.17300000000E+03 0.  1.
         -6    1    1    2    0  502  0.10874352583E+02  0.80918228248E+02  0.18823137875E+03  0.26837671872E+03  0.17300000000E+03 0.  1.
<mgrwt>
<rscale>  2 0.19129823E+03</rscale>
<asrwt>0</asrwt>
<pdfrwt beam="1">  1       21 0.41112172E-01 0.19129823E+03</pdfrwt>
<pdfrwt beam="2">  1       21 0.42324254E-01 0.19129823E+03</pdfrwt>
<totfact> 0.30631387E+04</totfact>
</mgrwt>
</event>
<event>
 4    1  0.4365842E+000  0.1894944E+03  0.7546771E-02  0.1158918E+00
         21   -1    0    0  501  502  0.00000000000E+00  0.00000000000E+00  0.32437677009E+03  0.32437677009E+03  0.00000000000E+00 0. -1.
         21   -1    0    0  502  503 -0.00000000000E+00 -0.00000000000E+00 -0.11394589796E+03  0.11394589796E+03  0.00000000000E+00 0. -1.
          6    1    1    2  501    0 -0.17077733411E+02  0.75415252932E+02  0.14221224892E+03  0.23692284208E+03  0.17300000000E+03 0. -1.
         -6    1    1    2    0  503  0.17077733411E+02 -0.75415252932E+02  0.68218623204E+02  0.20139982598E+03  0.17300000000E+03 0. -1.
<mgrwt>
<rscale>  2 0.18949435E+03</rscale>
<asrwt>0</asrwt>
<pdfrwt beam="1">  1       21 0.49904118E-01 0.18949435E+03</pdfrwt>
<pdfrwt beam="2">  1       21 0.17530138E-01 0.18949435E+03</pdfrwt>
<totfact> 0.11291760E+05</totfact>
</mgrwt>
</event>
<event>
 4    1  0.4365842E+000  0.1898554E+03  0.7546771E-02  0.1158592E+00
         21   -1    0    0  503  502  0.00000000000E+00  0.00000000000E+00  0.24148464902E+03  0.24148464902E+03  0.00000000000E+00 0.  1.
         21   -1    0    0  501  503 -0.00000000000E+00 -0.00000000000E+00 -0.45368004615E+03  0.45368004615E+03  0.00000000000E+00 0.  1.
          6    1    1    2  501    0  0.19355510282E+02 -0.75772322812E+02 -0.39081660085E+03  0.43449130738E+03  0.17300000000E+03 0.  1.
         -6    1    1    2    0  502 -0.19355510282E+02  0.75772322812E+02  0.17862120373E+03  0.26067338779E+03  0.17300000000E+03 0.  1.
<mgrwt>
<rscale>  2 0.18985542E+03</rscale>
<asrwt>0</asrwt>
<pdfrwt beam="1">  1       21 0.37151484E-01 0.18985542E+03</pdfrwt>
<pdfrwt beam="2">  1       21 0.69796930E-01 0.18985542E+03</pdfrwt>
<totfact> 0.13054591E+04</totfact>
</mgrwt>
</event>
<event>
 4    1  0.4365842E+000  0.2263420E+03  0.7546771E-02  0.1129241E+00
         21   -1    0    0  501  502  0.00000000000E+00  0.00000000000E+00  0.93741726862E+03  0.93741726862E+03  0.00000000000E+00 0. -1.
         21   -1    0    0  502  503 -0.00000000000E+00 -0.00000000000E+00 -0.14892306220E+03  0.14892306220E+03  0.00000000000E+00 0. -1.
          6    1    1    2  501    0 -0.82561104390E+02  0.12035507780E+03  0.82640922958E+03  0.85684473240E+03  0.17300000000E+03 0. -1.
         -6    1    1    2    0  503  0.82561104390E+02 -0.12035507780E+03 -0.37915023165E+02  0.22949559842E+03  0.17300000000E+03 0. -1.
<mgrwt>
<rscale>  2 0.22634196E+03</rscale>
<asrwt>0</asrwt>
<pdfrwt beam="1">  1       21 0.14421804E+00 0.22634196E+03</pdfrwt>
<pdfrwt beam="2">  1       21 0.22911241E-01 0.22634196E+03</pdfrwt>
<totfact> 0.57703533E+03</totfact>
</mgrwt>
</event>
<event>
 4    1  0.4365842E+000  0.1742700E+03  0.7546771E-02  0.1173467E+00
         21   -1    0    0  503  502  0.00000000000E+00  0.00000000000E+00  0.11231145439E+03  0.11231145439E+03  0.00000000000E+00 0.  1.
         21   -1    0    0  501  503 -0.00000000000E+00 -0.00000000000E+00 -0.49872251196E+03  0.49872251196E+03  0.00000000000E+00 0.  1.
          6    1    1    2  501    0 -0.92260622211E+01  0.18865792209E+02 -0.39992033805E+03  0.43624112039E+03  0.17300000000E+03 0.  1.
         -6    1    1    2    0  502  0.92260622211E+01 -0.18865792209E+02  0.13509280476E+02  0.17479284596E+03  0.17300000000E+03 0.  1.
<mgrwt>
<rscale>  2 0.17427002E+03</rscale>
<asrwt>0</asrwt>
<pdfrwt beam="1">  1       21 0.17278686E-01 0.17427002E+03</pdfrwt>
<pdfrwt beam="2">  1       21 0.76726539E-01 0.17427002E+03</pdfrwt>
<totfact> 0.46169296E+04</totfact>
</mgrwt>
</event>
<event>
 4    1  0.4365842E+000  0.2121791E+03  0.7546771E-02  0.1139852E+00
         21   -1    0    0  503  502  0.00000000000E+00  0.00000000000E+00  0.14947178666E+03  0.14947178666E+03  0.00000000000E+00 0.  1.
         21   -1    0    0  501  503 -0.00000000000E+00 -0.00000000000E+00 -0.34254187302E+03  0.34254187302E+03  0.00000000000E+00 0. -1.
          6    1    1    2  501    0  0.13485470825E+02 -0.12210294872E+03 -0.18200579523E+03  0.27954623501E+03  0.17300000000E+03 0. -1.
         -6    1    1    2    0  502 -0.13485470825E+02  0.12210294872E+03 -0.11064291131E+02  0.21246742467E+03  0.17300000000E+03 0. -1.
<mgrwt>
<rscale>  2 0.21217914E+03</rscale>
<asrwt>0</asrwt>
<pdfrwt beam="1">  1       21 0.22995659E-01 0.21217914E+03</pdfrwt>
<pdfrwt beam="2">  1       21 0.52698750E-01 0.21217914E+03</pdfrwt>
<totfact> 0.60060357E+04</totfact>
</mgrwt>
</event>
<event>
 4    1  0.4365842E+000  0.2001679E+03  0.7546771E-02  0.1149597E+00
         21   -1    0    0  503  502  0.00000000000E+00  0.00000000000E+00  0.63013946906E+03  0.63013946906E+03  0.00000000000E+00 0.  1.
         21   -1    0    0  501  503 -0.00000000000E+00 -0.00000000000E+00 -0.83425990285E+02  0.83425990285E+02  0.00000000000E+00 0. -1.
          6    1    1    2  501    0  0.79508582986E+02  0.61778500490E+02  0.99360991093E+02  0.22347215585E+03  0.17300000000E+03 0. -1.
         -6    1    1    2    0  502 -0.79508582986E+02 -0.61778500490E+02  0.44735248768E+03  0.49009330349E+03  0.17300000000E+03 0. -1.
<mgrwt>
<rscale>  2 0.20016792E+03</rscale>
<asrwt>0</asrwt>
<pdfrwt beam="1">  1       21 0.96944531E-01 0.20016792E+03</pdfrwt>
<pdfrwt beam="2">  1       21 0.12834768E-01 0.20016792E+03</pdfrwt>
<totfact> 0.45766489E+04</totfact>
</mgrwt>
</event>
<event>
 4    1  0.4365842E+000  0.1841796E+03  0.7546771E-02  0.1163818E+00
         21   -1    0    0  503  502  0.00000000000E+00  0.00000000000E+00  0.11646718613E+03  0.11646718613E+03  0.00000000000E+00 0.  1.
         21   -1    0    0  501  503 -0.00000000000E+00 -0.00000000000E+00 -0.41378945958E+03  0.41378945958E+03  0.00000000000E+00 0. -1.
          6    1    1    2  501    0 -0.17790591973E+02 -0.60635015103E+02 -0.29293529008E+03  0.34602484650E+03  0.17300000000E+03 0. -1.
         -6    1    1    2    0  502  0.17790591973E+02  0.60635015103E+02 -0.43869833700E+01  0.18423179922E+03  0.17300000000E+03 0.  1.
<mgrwt>
<rscale>  2 0.18417956E+03</rscale>
<asrwt>0</asrwt>
<pdfrwt beam="1">  1       21 0.17918029E-01 0.18417956E+03</pdfrwt>
<pdfrwt beam="2">  1       21 0.63659917E-01 0.18417956E+03</pdfrwt>
<totfact> 0.64806920E+04</totfact>
</mgrwt>
</event>
<event>
 4    1  0.4365842E+000  0.2901909E+03  0.7546771E-02  0.1090250E+00
         21   -1    0    0  503  502  0.00000000000E+00  0.00000000000E+00  0.62497376522E+03  0.62497376522E+03  0.00000000000E+00 0. -1.
         21   -1    0    0  501  503 -0.00000000000E+00 -0.00000000000E+00 -0.19856572249E+03  0.19856572249E+03  0.00000000000E+00 0.  1.
          6    1    1    2  501    0  0.19970516137E+03  0.11999830656E+03 -0.20244147744E+02  0.29089615084E+03  0.17300000000E+03 0.  1.
         -6    1    1    2    0  502 -0.19970516137E+03 -0.11999830656E+03  0.44665219047E+03  0.53264333687E+03  0.17300000000E+03 0. -1.
<mgrwt>
<rscale>  2 0.29019088E+03</rscale>
<asrwt>0</asrwt>
<pdfrwt beam="1">  1       21 0.96149809E-01 0.29019088E+03</pdfrwt>
<pdfrwt beam="2">  1       21 0.30548573E-01 0.29019088E+03</pdfrwt>
<totfact> 0.87382453E+03</totfact>
</mgrwt>
</event>
<event>
 4    1  0.4365842E+000  0.2113659E+03  0.7546771E-02  0.1140489E+00
         21   -1    0    0  501  502  0.00000000000E+00  0.00000000000E+00  0.43056466444E+02  0.43056466444E+02  0.00000000000E+00 0. -1.
         21   -1    0    0  502  503 -0.00000000000E+00 -0.00000000000E+00 -0.10376101380E+04  0.10376101380E+04  0.00000000000E+00 0. -1.
          6    1    1    2  501    0  0.42615068050E+02 -0.11371233528E+03 -0.49864603210E+03  0.54159339411E+03  0.17300000000E+03 0. -1.
         -6    1    1    2    0  503 -0.42615068050E+02  0.11371233528E+03 -0.49590763941E+03  0.53907321028E+03  0.17300000000E+03 0. -1.
<mgrwt>
<rscale>  2 0.21136589E+03</rscale>
<asrwt>0</asrwt>
<pdfrwt beam="1">  1       21 0.66240720E-02 0.21136589E+03</pdfrwt>
<pdfrwt beam="2">  1       21 0.15963232E+00 0.21136589E+03</pdfrwt>
<totfact> 0.41668891E+04</totfact>
</mgrwt>
</event>
<event>
 4    1  0.4365842E+000  0.1781800E+03  0.7546771E-02  0.1169576E+00
         21   -1    0    0  503  502  0.00000000000E+00  0.00000000000E+00  0.10746387621E+03  0.10746387621E+03  0.00000000000E+00 0. -1.
         21   -1    0    0  501  503 -0.00000000000E+00 -0.00000000000E+00 -0.71545164667E+03  0.71545164667E+03  0.00000000000E+00 0.  1.
          6    1    1    2  501    0 -0.34610359386E+02 -0.24924508008E+02 -0.61925520302E+03  0.64437963542E+03  0.17300000000E+03 0.  1.
         -6    1    1    2    0  502  0.34610359386E+02  0.24924508008E+02  0.11267432552E+02  0.17853588746E+03  0.17300000000E+03 0. -1.
<mgrwt>
<rscale>  2 0.17817999E+03</rscale>
<asrwt>0</asrwt>
<pdfrwt beam="1">  1       21 0.16532904E-01 0.17817999E+03</pdfrwt>
<pdfrwt beam="2">  1       21 0.11006949E+00 0.17817999E+03</pdfrwt>
<totfact> 0.21605629E+04</totfact>
</mgrwt>
</event>
<event>
 4    1  0.4365842E+000  0.3031658E+03  0.7546771E-02  0.1083669E+00
         21   -1    0    0  501  502  0.00000000000E+00  0.00000000000E+00  0.94913744388E+03  0.94913744388E+03  0.00000000000E+00 0. -1.
         21   -1    0    0  502  503 -0.00000000000E+00 -0.00000000000E+00 -0.23944844883E+03  0.23944844883E+03  0.00000000000E+00 0. -1.
          6    1    1    2  501    0 -0.18513277704E+03 -0.16645231357E+03  0.81348788278E+03  0.86814287606E+03  0.17300000000E+03 0. -1.
         -6    1    1    2    0  503  0.18513277704E+03  0.16645231357E+03 -0.10379888772E+03  0.32044301665E+03  0.17300000000E+03 0. -1.
<mgrwt>
<rscale>  2 0.30316583E+03</rscale>
<asrwt>0</asrwt>
<pdfrwt beam="1">  1       21 0.14602114E+00 0.30316583E+03</pdfrwt>
<pdfrwt beam="2">  1       21 0.36838223E-01 0.30316583E+03</pdfrwt>
<totfact> 0.20963092E+03</totfact>
</mgrwt>
</event>
<event>
 4    1  0.4365842E+000  0.1771386E+03  0.7546771E-02  0.1170601E+00
         21   -1    0    0  503  502  0.00000000000E+00  0.00000000000E+00  0.29432741809E+03  0.29432741809E+03  0.00000000000E+00 0.  1.
         21   -1    0    0  501  503 -0.00000000000E+00 -0.00000000000E+00 -0.14875951035E+03  0.14875951035E+03  0.00000000000E+00 0.  1.
          6    1    1    2  501    0 -0.36641726889E+02  0.10318489249E+02 -0.45143688605E+02  0.18280054702E+03  0.17300000000E+03 0.  1.
         -6    1    1    2    0  502  0.36641726889E+02 -0.10318489249E+02  0.19071159635E+03  0.26028638142E+03  0.17300000000E+03 0.  1.
<mgrwt>
<rscale>  2 0.17713861E+03</rscale>
<asrwt>0</asrwt>
<pdfrwt beam="1">  1       21 0.45281141E-01 0.17713861E+03</pdfrwt>
<pdfrwt beam="2">  1       21 0.22886079E-01 0.17713861E+03</pdfrwt>
<totfact> 0.84343302E+04</totfact>
</mgrwt>
</event>
<event>
 4    1  0.4365842E+000  0.1781269E+03  0.7546771E-02  0.1169628E+00
         21   -1    0    0  501  502  0.00000000000E+00  0.00000000000E+00  0.20712968402E+03  0.20712968402E+03  0.00000000000E+00 0. -1.
         21   -1    0    0  502  503 -0.00000000000E+00 -0.00000000000E+00 -0.19170517033E+03  0.19170517033E+03  0.00000000000E+00 0. -1.
          6    1    1    2  501    0 -0.42291642667E+02  0.34072017672E+01  0.97102360354E+02  0.20287449433E+03  0.17300000000E+03 0. -1.
         -6    1    1    2    0  503  0.42291642667E+02 -0.34072017672E+01 -0.81677846665E+02  0.19596036002E+03  0.17300000000E+03 0. -1.
<mgrwt>
<rscale>  2 0.17812690E+03</rscale>
<asrwt>0</asrwt>
<pdfrwt beam="1">  1       21 0.31866105E-01 0.17812690E+03</pdfrwt>
<pdfrwt beam="2">  1       21 0.29493103E-01 0.17812690E+03</pdfrwt>
<totfact> 0.10488003E+05</totfact>
</mgrwt>
</event>
<event>
 4    1  0.4365842E+000  0.1952443E+03  0.7546771E-02  0.1153815E+00
         21   -1    0    0  503  502  0.00000000000E+00  0.00000000000E+00  0.46195893682E+02  0.46195893682E+02  0.00000000000E+00 0.  1.
         21   -1    0    0  501  503 -0.00000000000E+00 -0.00000000000E+00 -0.87945004855E+03  0.87945004855E+03  0.00000000000E+00 0.  1.
          6    1    1    2  501    0 -0.16364547063E+02  0.89014208681E+02 -0.53158919547E+03  0.56631033938E+03  0.17300000000E+03 0.  1.
         -6    1    1    2    0  502  0.16364547063E+02 -0.89014208681E+02 -0.30166495939E+03  0.35933560285E+03  0.17300000000E+03 0.  1.
<mgrwt>
<rscale>  2 0.19524428E+03</rscale>
<asrwt>0</asrwt>
<pdfrwt beam="1">  1       21 0.71070601E-02 0.19524428E+03</pdfrwt>
<pdfrwt beam="2">  1       21 0.13530002E+00 0.19524428E+03</pdfrwt>
<totfact> 0.57480551E+04</totfact>
</mgrwt>
</event>
<event>
 4    1  0.4365842E+000  0.1993427E+03  0.7546771E-02  0.1150295E+00
         21   -1    0    0  503  502  0.00000000000E+00  0.00000000000E+00  0.11304315263E+03  0.11304315263E+03  0.00000000000E+00 0. -1.
         21   -1    0    0  501  503 -0.00000000000E+00 -0.00000000000E+00 -0.35296951993E+03  0.35296951993E+03  0.00000000000E+00 0.  1.
          6    1    1    2  501    0  0.70490282185E+02  0.69567461783E+02 -0.10505798509E+03  0.22533240302E+03  0.17300000000E+03 0.  1.
         -6    1    1    2    0  502 -0.70490282185E+02 -0.69567461783E+02 -0.13486838222E+03  0.24068026954E+03  0.17300000000E+03 0. -1.
<mgrwt>
<rscale>  2 0.19934270E+03</rscale>
<asrwt>0</asrwt>
<pdfrwt beam="1">  1       21 0.17391254E-01 0.19934270E+03</pdfrwt>
<pdfrwt beam="2">  1       21 0.54303004E-01 0.19934270E+03</pdfrwt>
<totfact> 0.95601860E+04</totfact>
</mgrwt>
</event>
<event>
 4    1  0.4365842E+000  0.1875091E+03  0.7546771E-02  0.1160727E+00
         21   -1    0    0  501  502  0.00000000000E+00  0.00000000000E+00  0.13729053109E+03  0.13729053109E+03  0.00000000000E+00 0. -1.
         21   -1    0    0  502  503 -0.00000000000E+00 -0.00000000000E+00 -0.37955023777E+03  0.37955023777E+03  0.00000000000E+00 0. -1.
          6    1    1    2  501    0  0.63765098395E+02 -0.34127348486E+02  0.26251911899E+02  0.18933786353E+03  0.17300000000E+03 0. -1.
         -6    1    1    2    0  503 -0.63765098395E+02  0.34127348486E+02 -0.26851161858E+03  0.32750290533E+03  0.17300000000E+03 0. -1.
<mgrwt>
<rscale>  2 0.18750910E+03</rscale>
<asrwt>0</asrwt>
<pdfrwt beam="1">  1       21 0.21121620E-01 0.18750910E+03</pdfrwt>
<pdfrwt beam="2">  1       21 0.58392344E-01 0.18750910E+03</pdfrwt>
<totfact> 0.57372243E+04</totfact>
</mgrwt>
</event>
<event>
 4    1  0.4365842E+000  0.1740523E+03  0.7546771E-02  0.1173687E+00
         21   -1    0    0  501  502  0.00000000000E+00  0.00000000000E+00  0.22507161559E+03  0.22507161559E+03  0.00000000000E+00 0.  1.
         21   -1    0    0  502  503 -0.00000000000E+00 -0.00000000000E+00 -0.13567161767E+03  0.13567161767E+03  0.00000000000E+00 0.  1.
          6    1    1    2  501    0  0.99514818832E+01 -0.16315006682E+02  0.60744589658E+02  0.18434781422E+03  0.17300000000E+03 0.  1.
         -6    1    1    2    0  503 -0.99514818832E+01  0.16315006682E+02  0.28655408262E+02  0.17639541904E+03  0.17300000000E+03 0.  1.
<mgrwt>
<rscale>  2 0.17405232E+03</rscale>
<asrwt>0</asrwt>
<pdfrwt beam="1">  1       21 0.34626402E-01 0.17405232E+03</pdfrwt>
<pdfrwt beam="2">  1       21 0.20872557E-01 0.17405232E+03</pdfrwt>
<totfact> 0.17228255E+05</totfact>
</mgrwt>
</event>
<event>
 4    1  0.4365842E+000  0.1791313E+03  0.7546771E-02  0.1168646E+00
         21   -1    0    0  503  502  0.00000000000E+00  0.00000000000E+00  0.11523546528E+03  0.11523546528E+03  0.00000000000E+00 0.  1.
         21   -1    0    0  501  503 -0.00000000000E+00 -0.00000000000E+00 -0.28295498304E+03  0.28295498304E+03  0.00000000000E+00 0.  1.
          6    1    1    2  501    0  0.42091530678E+02 -0.19680587647E+02 -0.10896432637E+03  0.20966937522E+03  0.17300000000E+03 0.  1.
         -6    1    1    2    0  502 -0.42091530678E+02  0.19680587647E+02 -0.58755191390E+02  0.18852107309E+03  0.17300000000E+03 0.  1.
<mgrwt>
<rscale>  2 0.17913130E+03</rscale>
<asrwt>0</asrwt>
<pdfrwt beam="1">  1       21 0.17728534E-01 0.17913130E+03</pdfrwt>
<pdfrwt beam="2">  1       21 0.43531535E-01 0.17913130E+03</pdfrwt>
<totfact> 0.14710123E+05</totfact>
</mgrwt>
</event>
<event>
 4    1  0.4365842E+000  0.3035138E+03  0.7546771E-02  0.1083497E+00
         21   -1    0    0  501  502  0.00000000000E+00  0.00000000000E+00  0.23105746099E+03  0.23105746099E+03  0.00000000000E+00 0. -1.
         21   -1    0    0  502  503 -0.00000000000E+00 -0.00000000000E+00 -0.65732813757E+03  0.65732813757E+03  0.00000000000E+00 0. -1.
          6    1    1    2  501    0 -0.90023232677E+02  0.23256709534E+03  0.65493112092E+02  0.31049957164E+03  0.17300000000E+03 0. -1.
         -6    1    1    2    0  503  0.90023232677E+02 -0.23256709534E+03 -0.49176378868E+03  0.57788602692E+03  0.17300000000E+03 0. -1.
<mgrwt>
<rscale>  2 0.30351382E+03</rscale>
<asrwt>0</asrwt>
<pdfrwt beam="1">  1       21 0.35547302E-01 0.30351382E+03</pdfrwt>
<pdfrwt beam="2">  1       21 0.10112740E+00 0.30351382E+03</pdfrwt>
<totfact> 0.56898687E+03</totfact>
</mgrwt>
</event>
<event>
 4    1  0.4365842E+000  0.1809331E+03  0.7546771E-02  0.1166903E+00
         21   -1    0    0  501  502  0.00000000000E+00  0.00000000000E+00  0.33666488719E+03  0.33666488719E+03  0.00000000000E+00 0.  1.
         21   -1    0    0  502  503 -0.00000000000E+00 -0.00000000000E+00 -0.97778038040E+02  0.97778038040E+02  0.00000000000E+00 0.  1.
          6    1    1    2  501    0 -0.45544431738E+02  0.27082874322E+02  0.10330702630E+03  0.20834855177E+03  0.17300000000E+03 0.  1.
         -6    1    1    2    0  503  0.45544431738E+02 -0.27082874322E+02  0.13557982286E+03  0.22609437346E+03  0.17300000000E+03 0.  1.
<mgrwt>
<rscale>  2 0.18093307E+03</rscale>
<asrwt>0</asrwt>
<pdfrwt beam="1">  1       21 0.51794598E-01 0.18093307E+03</pdfrwt>
<pdfrwt beam="2">  1       21 0.15042775E-01 0.18093307E+03</pdfrwt>
<totfact> 0.13868029E+05</totfact>
</mgrwt>
</event>
<event>
 4    1  0.4365842E+000  0.3072697E+03  0.7546771E-02  0.1081662E+00
         21   -1    0    0  501  502  0.00000000000E+00  0.00000000000E+00  0.93711212882E+02  0.93711212882E+02  0.00000000000E+00 0. -1.
         21   -1    0    0  502  503 -0.00000000000E+00 -0.00000000000E+00 -0.10185755920E+04  0.10185755920E+04  0.00000000000E+00 0.  1.
          6    1    1    2  501    0  0.24330970569E+03 -0.72705305686E+02 -0.40445697919E+03  0.50793712443E+03  0.17300000000E+03 0. -1.
         -6    1    1    2    0  503 -0.24330970569E+03  0.72705305686E+02 -0.52040739993E+03  0.60434968045E+03  0.17300000000E+03 0.  1.
<mgrwt>
<rscale>  2 0.30726971E+03</rscale>
<asrwt>0</asrwt>
<pdfrwt beam="1">  1       21 0.14417109E-01 0.30726971E+03</pdfrwt>
<pdfrwt beam="2">  1       21 0.15670394E+00 0.30726971E+03</pdfrwt>
<totfact> 0.10461844E+04</totfact>
</mgrwt>
</event>
<event>
 4    1  0.4365842E+000  0.2131300E+03  0.7546771E-02  0.1139111E+00
         21   -1    0    0  503  502  0.00000000000E+00  0.00000000000E+00  0.18489988823E+03  0.18489988823E+03  0.00000000000E+00 0.  1.
         21   -1    0    0  501  503 -0.00000000000E+00 -0.00000000000E+00 -0.28317292844E+03  0.28317292844E+03  0.00000000000E+00 0.  1.
          6    1    1    2  501    0 -0.74431292986E+02 -0.99776629754E+02 -0.13430697547E+03  0.25191815512E+03  0.17300000000E+03 0.  1.
         -6    1    1    2    0  502  0.74431292986E+02  0.99776629754E+02  0.36033935253E+02  0.21615466155E+03  0.17300000000E+03 0.  1.
<mgrwt>
<rscale>  2 0.21312999E+03</rscale>
<asrwt>0</asrwt>
<pdfrwt beam="1">  1       21 0.28446137E-01 0.21312999E+03</pdfrwt>
<pdfrwt beam="2">  1       21 0.43565066E-01 0.21312999E+03</pdfrwt>
<totfact> 0.59277159E+04</totfact>
</mgrwt>
</event>
<event>
 4    1  0.4365842E+000  0.1803500E+03  0.7546771E-02  0.1167465E+00
         21   -1    0    0  501  502  0.00000000000E+00  0.00000000000E+00  0.37069511026E+02  0.37069511026E+02  0.00000000000E+00 0.  1.
         21   -1    0    0  502  503 -0.00000000000E+00 -0.00000000000E+00 -0.11495794025E+04  0.11495794025E+04  0.00000000000E+00 0.  1.
          6    1    1    2  501    0  0.50944980152E+02  0.13217205612E+01 -0.26757184788E+03  0.32267759719E+03  0.17300000000E+03 0.  1.
         -6    1    1    2    0  503 -0.50944980152E+02 -0.13217205612E+01 -0.84493804363E+03  0.86397131638E+03  0.17300000000E+03 0.  1.
<mgrwt>
<rscale>  2 0.18035004E+03</rscale>
<asrwt>0</asrwt>
<pdfrwt beam="1">  1       21 0.57030018E-02 0.18035004E+03</pdfrwt>
<pdfrwt beam="2">  1       21 0.17685837E+00 0.18035004E+03</pdfrwt>
<totfact> 0.41438269E+04</totfact>
</mgrwt>
</event>
<event>
 4    1  0.4365842E+000  0.3653961E+03  0.7546771E-02  0.1056467E+00
         21   -1    0    0  503  502  0.00000000000E+00  0.00000000000E+00  0.50692381234E+03  0.50692381234E+03  0.00000000000E+00 0.  1.
         21   -1    0    0  501  503 -0.00000000000E+00 -0.00000000000E+00 -0.14665452886E+04  0.14665452886E+04  0.00000000000E+00 0. -1.
          6    1    1    2  501    0 -0.26024660281E+03  0.18935948671E+03 -0.13735585425E+04  0.14213294408E+04  0.17300000000E+03 0. -1.
         -6    1    1    2    0  502  0.26024660281E+03 -0.18935948671E+03  0.41393706627E+03  0.55213966015E+03  0.17300000000E+03 0.  1.
<mgrwt>
<rscale>  2 0.36539610E+03</rscale>
<asrwt>0</asrwt>
<pdfrwt beam="1">  1       21 0.77988279E-01 0.36539610E+03</pdfrwt>
<pdfrwt beam="2">  1       21 0.22562235E+00 0.36539610E+03</pdfrwt>
<totfact> 0.11338664E+02</totfact>
</mgrwt>
</event>
<event>
 4    1  0.4365842E+000  0.1961224E+03  0.7546771E-02  0.1153052E+00
         21   -1    0    0  503  502  0.00000000000E+00  0.00000000000E+00  0.61836817862E+03  0.61836817862E+03  0.00000000000E+00 0. -1.
         21   -1    0    0  501  503 -0.00000000000E+00 -0.00000000000E+00 -0.98922500366E+02  0.98922500366E+02  0.00000000000E+00 0.  1.
          6    1    1    2  501    0  0.92017223334E+02 -0.82367767708E+01  0.41213853593E+02  0.20040607678E+03  0.17300000000E+03 0.  1.
         -6    1    1    2    0  502 -0.92017223334E+02  0.82367767708E+01  0.47823182466E+03  0.51688460221E+03  0.17300000000E+03 0. -1.
<mgrwt>
<rscale>  2 0.19612245E+03</rscale>
<asrwt>0</asrwt>
<pdfrwt beam="1">  1       21 0.95133564E-01 0.19612245E+03</pdfrwt>
<pdfrwt beam="2">  1       21 0.15218847E-01 0.19612245E+03</pdfrwt>
<totfact> 0.35209756E+04</totfact>
</mgrwt>
</event>
<event>
 4    1  0.4365842E+000  0.1789739E+03  0.7546771E-02  0.1168800E+00
         21   -1    0    0  501  502  0.00000000000E+00  0.00000000000E+00  0.14489560926E+03  0.14489560926E+03  0.00000000000E+00 0. -1.
         21   -1    0    0  502  503 -0.00000000000E+00 -0.00000000000E+00 -0.22701413158E+03  0.22701413158E+03  0.00000000000E+00 0. -1.
          6    1    1    2  501    0 -0.15307270573E+02 -0.43224405798E+02 -0.71156648870E+02  0.19260044254E+03  0.17300000000E+03 0. -1.
         -6    1    1    2    0  503  0.15307270573E+02  0.43224405798E+02 -0.10961873448E+02  0.17930929830E+03  0.17300000000E+03 0. -1.
<mgrwt>
<rscale>  2 0.17897391E+03</rscale>
<asrwt>0</asrwt>
<pdfrwt beam="1">  1       21 0.22291632E-01 0.17897391E+03</pdfrwt>
<pdfrwt beam="2">  1       21 0.34925251E-01 0.17897391E+03</pdfrwt>
<totfact> 0.14946459E+05</totfact>
</mgrwt>
</event>
<event>
 4    1  0.4365842E+000  0.1903050E+03  0.7546771E-02  0.1158187E+00
         21   -1    0    0  503  502  0.00000000000E+00  0.00000000000E+00  0.51889542299E+02  0.51889542299E+02  0.00000000000E+00 0.  1.
         21   -1    0    0  501  503 -0.00000000000E+00 -0.00000000000E+00 -0.71747600206E+03  0.71747600206E+03  0.00000000000E+00 0.  1.
          6    1    1    2  501    0  0.60364059482E+02 -0.51411819433E+02 -0.26932266009E+03  0.32977369527E+03  0.17300000000E+03 0.  1.
         -6    1    1    2    0  502 -0.60364059482E+02  0.51411819433E+02 -0.39626379967E+03  0.43959184909E+03  0.17300000000E+03 0.  1.
<mgrwt>
<rscale>  2 0.19030500E+03</rscale>
<asrwt>0</asrwt>
<pdfrwt beam="1">  1       21 0.79830078E-02 0.19030500E+03</pdfrwt>
<pdfrwt beam="2">  1       21 0.11038091E+00 0.19030500E+03</pdfrwt>
<totfact> 0.78093425E+04</totfact>
</mgrwt>
</event>
<event>
 4    1  0.4365842E+000  0.1823626E+03  0.7546771E-02  0.1165536E+00
         21   -1    0    0  501  502  0.00000000000E+00  0.00000000000E+00  0.37699987793E+02  0.37699987793E+02  0.00000000000E+00 0. -1.
         21   -1    0    0  502  503 -0.00000000000E+00 -0.00000000000E+00 -0.88267786790E+03  0.88267786790E+03  0.00000000000E+00 0.  1.
          6    1    1    2  501    0  0.42658909374E+02 -0.38824433654E+02 -0.43400128239E+03  0.47075814631E+03  0.17300000000E+03 0.  1.
         -6    1    1    2    0  503 -0.42658909374E+02  0.38824433654E+02 -0.41097659771E+03  0.44961970938E+03  0.17300000000E+03 0. -1.
<mgrwt>
<rscale>  2 0.18236260E+03</rscale>
<asrwt>0</asrwt>
<pdfrwt beam="1">  1       21 0.57999978E-02 0.18236260E+03</pdfrwt>
<pdfrwt beam="2">  1       21 0.13579660E+00 0.18236260E+03</pdfrwt>
<totfact> 0.81260680E+04</totfact>
</mgrwt>
</event>
<event>
 4    1  0.4365842E+000  0.1914974E+03  0.7546771E-02  0.1157118E+00
         21   -1    0    0  503  502  0.00000000000E+00  0.00000000000E+00  0.29739870062E+02  0.29739870062E+02  0.00000000000E+00 0. -1.
         21   -1    0    0  501  503 -0.00000000000E+00 -0.00000000000E+00 -0.12335149205E+04  0.12335149205E+04  0.00000000000E+00 0.  1.
          6    1    1    2  501    0  0.79406340321E+02  0.20902112819E+02 -0.61391791580E+03  0.64309134075E+03  0.17300000000E+03 0. -1.
         -6    1    1    2    0  502 -0.79406340321E+02 -0.20902112819E+02 -0.58985713465E+03  0.62016344983E+03  0.17300000000E+03 0. -1.
<mgrwt>
<rscale>  2 0.19149743E+03</rscale>
<asrwt>0</asrwt>
<pdfrwt beam="1">  1       21 0.45753642E-02 0.19149743E+03</pdfrwt>
<pdfrwt beam="2">  1       21 0.18977154E+00 0.19149743E+03</pdfrwt>
<totfact> 0.48956559E+04</totfact>
</mgrwt>
</event>
<event>
 4    1  0.4365842E+000  0.2604250E+03  0.7546771E-02  0.1106888E+00
         21   -1    0    0  503  502  0.00000000000E+00  0.00000000000E+00  0.27442414709E+03  0.27442414709E+03  0.00000000000E+00 0.  1.
         21   -1    0    0  501  503 -0.00000000000E+00 -0.00000000000E+00 -0.37385776963E+03  0.37385776963E+03  0.00000000000E+00 0. -1.
          6    1    1    2  501    0 -0.15992192580E+03  0.11098264528E+03 -0.23842882667E+03  0.35308564866E+03  0.17300000000E+03 0. -1.
         -6    1    1    2    0  502  0.15992192580E+03 -0.11098264528E+03  0.13899520413E+03  0.29519626805E+03  0.17300000000E+03 0.  1.
<mgrwt>
<rscale>  2 0.26042498E+03</rscale>
<asrwt>0</asrwt>
<pdfrwt beam="1">  1       21 0.42219100E-01 0.26042498E+03</pdfrwt>
<pdfrwt beam="2">  1       21 0.57516580E-01 0.26042498E+03</pdfrwt>
<totfact> 0.14736900E+04</totfact>
</mgrwt>
</event>
<event>
 4    1  0.4365842E+000  0.1813983E+03  0.7546771E-02  0.1166457E+00
         21   -1    0    0  501  502  0.00000000000E+00  0.00000000000E+00  0.12613423034E+03  0.12613423034E+03  0.00000000000E+00 0.  1.
         21   -1    0    0  502  503 -0.00000000000E+00 -0.00000000000E+00 -0.30341053615E+03  0.30341053615E+03  0.00000000000E+00 0.  1.
          6    1    1    2  501    0  0.42002995078E+02  0.34815010115E+02 -0.82233016578E+01  0.18158457868E+03  0.17300000000E+03 0.  1.
         -6    1    1    2    0  503 -0.42002995078E+02 -0.34815010115E+02 -0.16905300415E+03  0.24796018781E+03  0.17300000000E+03 0.  1.
<mgrwt>
<rscale>  2 0.18139828E+03</rscale>
<asrwt>0</asrwt>
<pdfrwt beam="1">  1       21 0.19405267E-01 0.18139828E+03</pdfrwt>
<pdfrwt beam="2">  1       21 0.46678543E-01 0.18139828E+03</pdfrwt>
<totfact> 0.10775817E+05</totfact>
</mgrwt>
</event>
<event>
 4    1  0.4365842E+000  0.1754412E+03  0.7546771E-02  0.1172289E+00
         21   -1    0    0  501  502  0.00000000000E+00  0.00000000000E+00  0.36549613785E+03  0.36549613785E+03  0.00000000000E+00 0. -1.
         21   -1    0    0  502  503 -0.00000000000E+00 -0.00000000000E+00 -0.95694143148E+02  0.95694143148E+02  0.00000000000E+00 0. -1.
          6    1    1    2  501    0 -0.28727438597E+02  0.50334421040E+01  0.21477329101E+03  0.27732141605E+03  0.17300000000E+03 0. -1.
         -6    1    1    2    0  503  0.28727438597E+02 -0.50334421040E+01  0.55028703689E+02  0.18386886495E+03  0.17300000000E+03 0. -1.
<mgrwt>
<rscale>  2 0.17544116E+03</rscale>
<asrwt>0</asrwt>
<pdfrwt beam="1">  1       21 0.56230174E-01 0.17544116E+03</pdfrwt>
<pdfrwt beam="2">  1       21 0.14722176E-01 0.17544116E+03</pdfrwt>
<totfact> 0.12154441E+05</totfact>
</mgrwt>
</event>
<event>
 4    1  0.4365842E+000  0.1978263E+03  0.7546771E-02  0.1151586E+00
         21   -1    0    0  503  502  0.00000000000E+00  0.00000000000E+00  0.57896792467E+03  0.57896792467E+03  0.00000000000E+00 0. -1.
         21   -1    0    0  501  503 -0.00000000000E+00 -0.00000000000E+00 -0.14291427021E+03  0.14291427021E+03  0.00000000000E+00 0.  1.
          6    1    1    2  501    0 -0.92894373597E+02 -0.24018150369E+02 -0.44003819954E+02  0.20266122561E+03  0.17300000000E+03 0.  1.
         -6    1    1    2    0  502  0.92894373597E+02  0.24018150369E+02  0.48005747441E+03  0.51922096927E+03  0.17300000000E+03 0. -1.
<mgrwt>
<rscale>  2 0.19782628E+03</rscale>
<asrwt>0</asrwt>
<pdfrwt beam="1">  1       21 0.89071987E-01 0.19782628E+03</pdfrwt>
<pdfrwt beam="2">  1       21 0.21986811E-01 0.19782628E+03</pdfrwt>
<totfact> 0.20729384E+04</totfact>
</mgrwt>
</event>
<event>
 4    1  0.4365842E+000  0.1755755E+03  0.7546771E-02  0.1172155E+00
         21   -1    0    0  503  502  0.00000000000E+00  0.00000000000E+00  0.11020798577E+03  0.11020798577E+03  0.00000000000E+00 0. -1.
         21   -1    0    0  501  503 -0.00000000000E+00 -0.00000000000E+00 -0.28603048252E+03  0.28603048252E+03  0.00000000000E+00 0. -1.
          6    1    1    2  501    0 -0.20971751939E+02 -0.21399610790E+02 -0.11735175515E+03  0.21118284059E+03  0.17300000000E+03 0.  1.
         -6    1    1    2    0  502  0.20971751939E+02  0.21399610790E+02 -0.58470741597E+02  0.18505562770E+03  0.17300000000E+03 0.  1.
<mgrwt>
<rscale>  2 0.17557550E+03</rscale>
<asrwt>0</asrwt>
<pdfrwt beam="1">  1       21 0.16955075E-01 0.17557550E+03</pdfrwt>
<pdfrwt beam="2">  1       21 0.44004690E-01 0.17557550E+03</pdfrwt>
<totfact> 0.15637800E+05</totfact>
</mgrwt>
</event>
<event>
 4    1  0.4365842E+000  0.1763068E+03  0.7546771E-02  0.1171426E+00
         21   -1    0    0  501  502  0.00000000000E+00  0.00000000000E+00  0.95210920821E+02  0.95210920821E+02  0.00000000000E+00 0.  1.
         21   -1    0    0  502  503 -0.00000000000E+00 -0.00000000000E+00 -0.36167476754E+03  0.36167476754E+03  0.00000000000E+00 0.  1.
          6    1    1    2  501    0  0.32246471816E+01  0.33833500132E+02 -0.61966206278E+02  0.18687941246E+03  0.17300000000E+03 0.  1.
         -6    1    1    2    0  503 -0.32246471816E+01 -0.33833500132E+02 -0.20449764045E+03  0.27000627591E+03  0.17300000000E+03 0.  1.
<mgrwt>
<rscale>  2 0.17630685E+03</rscale>
<asrwt>0</asrwt>
<pdfrwt beam="1">  1       21 0.14647834E-01 0.17630685E+03</pdfrwt>
<pdfrwt beam="2">  1       21 0.55642273E-01 0.17630685E+03</pdfrwt>
<totfact> 0.12538447E+05</totfact>
</mgrwt>
</event>
<event>
 4    1  0.4365842E+000  0.2072978E+03  0.7546771E-02  0.1143724E+00
         21   -1    0    0  501  502  0.00000000000E+00  0.00000000000E+00  0.13877019972E+04  0.13877019972E+04  0.00000000000E+00 0. -1.
         21   -1    0    0  502  503 -0.00000000000E+00 -0.00000000000E+00 -0.62079138498E+02  0.62079138498E+02  0.00000000000E+00 0.  1.
          6    1    1    2  501    0  0.23048702076E+01 -0.11418429053E+03  0.11759888898E+04  0.11941198573E+04  0.17300000000E+03 0. -1.
         -6    1    1    2    0  503 -0.23048702076E+01  0.11418429053E+03  0.14963396890E+03  0.25566127841E+03  0.17300000000E+03 0.  1.
<mgrwt>
<rscale>  2 0.20729777E+03</rscale>
<asrwt>0</asrwt>
<pdfrwt beam="1">  1       21 0.21349259E+00 0.20729777E+03</pdfrwt>
<pdfrwt beam="2">  1       21 0.95506377E-02 0.20729777E+03</pdfrwt>
<totfact> 0.95897509E+03</totfact>
</mgrwt>
</event>
<event>
 4    1  0.4365842E+000  0.1944729E+03  0.7546771E-02  0.1154488E+00
         21   -1    0    0  503  502  0.00000000000E+00  0.00000000000E+00  0.10690739265E+04  0.10690739265E+04  0.00000000000E+00 0. -1.
         21   -1    0    0  501  503 -0.00000000000E+00 -0.00000000000E+00 -0.38732834362E+02  0.38732834362E+02  0.00000000000E+00 0. -1.
          6    1    1    2  501    0 -0.83650917587E+02 -0.29887320963E+02  0.35210991390E+03  0.40224509870E+03  0.17300000000E+03 0. -1.
         -6    1    1    2    0  502  0.83650917587E+02  0.29887320963E+02  0.67823117827E+03  0.70556166218E+03  0.17300000000E+03 0. -1.
<mgrwt>
<rscale>  2 0.19447295E+03</rscale>
<asrwt>0</asrwt>
<pdfrwt beam="1">  1       21 0.16447289E+00 0.19447295E+03</pdfrwt>
<pdfrwt beam="2">  1       21 0.59588984E-02 0.19447295E+03</pdfrwt>
<totfact> 0.46552080E+04</totfact>
</mgrwt>
</event>
<event>
 4    1  0.4365842E+000  0.1979707E+03  0.7546771E-02  0.1151463E+00
         21   -1    0    0  503  502  0.00000000000E+00  0.00000000000E+00  0.24919801408E+03  0.24919801408E+03  0.00000000000E+00 0. -1.
         21   -1    0    0  501  503 -0.00000000000E+00 -0.00000000000E+00 -0.36471553269E+03  0.36471553269E+03  0.00000000000E+00 0. -1.
          6    1    1    2  501    0 -0.91662144677E+02  0.29350372013E+02 -0.28925707950E+03  0.35051683433E+03  0.17300000000E+03 0. -1.
         -6    1    1    2    0  502  0.91662144677E+02 -0.29350372013E+02  0.17373956089E+03  0.26339671244E+03  0.17300000000E+03 0. -1.
<mgrwt>
<rscale>  2 0.19797069E+03</rscale>
<asrwt>0</asrwt>
<pdfrwt beam="1">  1       21 0.38338156E-01 0.19797069E+03</pdfrwt>
<pdfrwt beam="2">  1       21 0.56110082E-01 0.19797069E+03</pdfrwt>
<totfact> 0.19553342E+04</totfact>
</mgrwt>
</event>
<event>
 4    1  0.4365842E+000  0.1949736E+03  0.7546771E-02  0.1154050E+00
         21   -1    0    0  503  502  0.00000000000E+00  0.00000000000E+00  0.36523468388E+03  0.36523468388E+03  0.00000000000E+00 0. -1.
         21   -1    0    0  501  503 -0.00000000000E+00 -0.00000000000E+00 -0.10792210990E+03  0.10792210990E+03  0.00000000000E+00 0. -1.
          6    1    1    2  501    0 -0.36693263973E+00  0.89919789284E+02  0.84035420266E+02  0.21231263505E+03  0.17300000000E+03 0. -1.
         -6    1    1    2    0  502  0.36693263973E+00 -0.89919789284E+02  0.17327715371E+03  0.26084415873E+03  0.17300000000E+03 0. -1.
<mgrwt>
<rscale>  2 0.19497360E+03</rscale>
<asrwt>0</asrwt>
<pdfrwt beam="1">  1       21 0.56189951E-01 0.19497360E+03</pdfrwt>
<pdfrwt beam="2">  1       21 0.16603402E-01 0.19497360E+03</pdfrwt>
<totfact> 0.97029310E+04</totfact>
</mgrwt>
</event>
<event>
 4    1  0.4365842E+000  0.2206914E+03  0.7546771E-02  0.1133369E+00
         21   -1    0    0  503  502  0.00000000000E+00  0.00000000000E+00  0.42953097230E+03  0.42953097230E+03  0.00000000000E+00 0. -1.
         21   -1    0    0  501  503 -0.00000000000E+00 -0.00000000000E+00 -0.12706889099E+03  0.12706889099E+03  0.00000000000E+00 0.  1.
          6    1    1    2  501    0  0.25589212551E+02  0.13461379102E+03  0.59922189550E+02  0.22868176432E+03  0.17300000000E+03 0.  1.
         -6    1    1    2    0  502 -0.25589212551E+02 -0.13461379102E+03  0.24253989176E+03  0.32791809896E+03  0.17300000000E+03 0.  1.
<mgrwt>
<rscale>  2 0.22069137E+03</rscale>
<asrwt>0</asrwt>
<pdfrwt beam="1">  1       21 0.66081687E-01 0.22069137E+03</pdfrwt>
<pdfrwt beam="2">  1       21 0.19549060E-01 0.22069137E+03</pdfrwt>
<totfact> 0.49966729E+04</totfact>
</mgrwt>
</event>
<event>
 4    1  0.4365842E+000  0.1933698E+03  0.7546771E-02  0.1155457E+00
         21   -1    0    0  503  502  0.00000000000E+00  0.00000000000E+00  0.34320301467E+03  0.34320301467E+03  0.00000000000E+00 0.  1.
         21   -1    0    0  501  503 -0.00000000000E+00 -0.00000000000E+00 -0.21634386214E+03  0.21634386214E+03  0.00000000000E+00 0.  1.
          6    1    1    2  501    0  0.40844968218E+02  0.76121989138E+02 -0.13368761829E+03  0.23508349143E+03  0.17300000000E+03 0.  1.
         -6    1    1    2    0  502 -0.40844968218E+02 -0.76121989138E+02  0.26054677083E+03  0.32446338537E+03  0.17300000000E+03 0.  1.
<mgrwt>
<rscale>  2 0.19336977E+03</rscale>
<asrwt>0</asrwt>
<pdfrwt beam="1">  1       21 0.52800464E-01 0.19336977E+03</pdfrwt>
<pdfrwt beam="2">  1       21 0.33283671E-01 0.19336977E+03</pdfrwt>
<totfact> 0.29541472E+04</totfact>
</mgrwt>
</event>
<event>
 4    1  0.4365842E+000  0.1848370E+03  0.7546771E-02  0.1163202E+00
         21   -1    0    0  503  502  0.00000000000E+00  0.00000000000E+00  0.95550800789E+03  0.95550800789E+03  0.00000000000E+00 0. -1.
         21   -1    0    0  501  503 -0.00000000000E+00 -0.00000000000E+00 -0.46939537311E+02  0.46939537311E+02  0.00000000000E+00 0. -1.
          6    1    1    2  501    0 -0.29754900793E+02  0.57882417716E+02  0.20962573676E+03  0.27947750878E+03  0.17300000000E+03 0. -1.
         -6    1    1    2    0  502  0.29754900793E+02 -0.57882417716E+02  0.69894273382E+03  0.72297003642E+03  0.17300000000E+03 0. -1.
<mgrwt>
<rscale>  2 0.18483703E+03</rscale>
<asrwt>0</asrwt>
<pdfrwt beam="1">  1       21 0.14700122E+00 0.18483703E+03</pdfrwt>
<pdfrwt beam="2">  1       21 0.72214680E-02 0.18483703E+03</pdfrwt>
<totfact> 0.45375848E+04</totfact>
</mgrwt>
</event>
<event>
 4    1  0.4365842E+000  0.2035811E+03  0.7546771E-02  0.1146752E+00
         21   -1    0    0  501  502  0.00000000000E+00  0.00000000000E+00  0.16793705240E+03  0.16793705240E+03  0.00000000000E+00 0. -1.
         21   -1    0    0  502  503 -0.00000000000E+00 -0.00000000000E+00 -0.30748692632E+03  0.30748692632E+03  0.00000000000E+00 0.  1.
          6    1    1    2  501    0 -0.68981241725E+02  0.82206098984E+02  0.35838611143E+02  0.20671153927E+03  0.17300000000E+03 0. -1.
         -6    1    1    2    0  503  0.68981241725E+02 -0.82206098984E+02 -0.17538848506E+03  0.26871243945E+03  0.17300000000E+03 0.  1.
<mgrwt>
<rscale>  2 0.20358108E+03</rscale>
<asrwt>0</asrwt>
<pdfrwt beam="1">  1       21 0.25836470E-01 0.20358108E+03</pdfrwt>
<pdfrwt beam="2">  1       21 0.47305681E-01 0.20358108E+03</pdfrwt>
<totfact> 0.60493583E+04</totfact>
</mgrwt>
</event>
<event>
 4    1  0.4365842E+000  0.1842426E+03  0.7546771E-02  0.1163759E+00
         21   -1    0    0  501  502  0.00000000000E+00  0.00000000000E+00  0.53469866564E+02  0.53469866564E+02  0.00000000000E+00 0.  1.
         21   -1    0    0  502  503 -0.00000000000E+00 -0.00000000000E+00 -0.65452709644E+03  0.65452709644E+03  0.00000000000E+00 0.  1.
          6    1    1    2  501    0  0.63273894447E+01  0.63057833416E+02 -0.23914931585E+03  0.30189024742E+03  0.17300000000E+03 0. -1.
         -6    1    1    2    0  503 -0.63273894447E+01 -0.63057833416E+02 -0.36190791402E+03  0.40610671558E+03  0.17300000000E+03 0. -1.
<mgrwt>
<rscale>  2 0.18424257E+03</rscale>
<asrwt>0</asrwt>
<pdfrwt beam="1">  1       21 0.82261331E-02 0.18424257E+03</pdfrwt>
<pdfrwt beam="2">  1       21 0.10069648E+00 0.18424257E+03</pdfrwt>
<totfact> 0.92636989E+04</totfact>
</mgrwt>
</event>
<event>
 4    1  0.4365842E+000  0.3482137E+03  0.7546771E-02  0.1063351E+00
         21   -1    0    0  503  502  0.00000000000E+00  0.00000000000E+00  0.51247512669E+02  0.51247512669E+02  0.00000000000E+00 0. -1.
         21   -1    0    0  501  503 -0.00000000000E+00 -0.00000000000E+00 -0.23672596015E+04  0.23672596015E+04  0.00000000000E+00 0. -1.
          6    1    1    2  501    0 -0.10702018917E+02 -0.30200869081E+03 -0.11303654444E+04  0.11827843507E+04  0.17300000000E+03 0. -1.
         -6    1    1    2    0  502  0.10702018917E+02  0.30200869081E+03 -0.11856466444E+04  0.12357227634E+04  0.17300000000E+03 0. -1.
<mgrwt>
<rscale>  2 0.34821370E+03</rscale>
<asrwt>0</asrwt>
<pdfrwt beam="1">  1       21 0.78842328E-02 0.34821370E+03</pdfrwt>
<pdfrwt beam="2">  1       21 0.36419378E+00 0.34821370E+03</pdfrwt>
<totfact> 0.15093163E+03</totfact>
</mgrwt>
</event>
<event>
 4    1  0.4365842E+000  0.1744513E+03  0.7546771E-02  0.1173284E+00
         21   -1    0    0  503  502  0.00000000000E+00  0.00000000000E+00  0.25507452492E+03  0.25507452492E+03  0.00000000000E+00 0.  1.
         21   -1    0    0  501  503 -0.00000000000E+00 -0.00000000000E+00 -0.15396615118E+03  0.15396615118E+03  0.00000000000E+00 0.  1.
          6    1    1    2  501    0 -0.22443329265E+02  0.75494599130E+00 -0.46475783545E+02  0.18053606683E+03  0.17300000000E+03 0.  1.
         -6    1    1    2    0  502  0.22443329265E+02 -0.75494599130E+00  0.14758415728E+03  0.22850460926E+03  0.17300000000E+03 0.  1.
<mgrwt>
<rscale>  2 0.17445135E+03</rscale>
<asrwt>0</asrwt>
<pdfrwt beam="1">  1       21 0.39242234E-01 0.17445135E+03</pdfrwt>
<pdfrwt beam="2">  1       21 0.23687100E-01 0.17445135E+03</pdfrwt>
<totfact> 0.10579832E+05</totfact>
</mgrwt>
</event>
<event>
 4    1  0.4365842E+000  0.1899657E+03  0.7546771E-02  0.1158492E+00
         21   -1    0    0  501  502  0.00000000000E+00  0.00000000000E+00  0.63118319133E+03  0.63118319133E+03  0.00000000000E+00 0. -1.
         21   -1    0    0  502  503 -0.00000000000E+00 -0.00000000000E+00 -0.31078457886E+03  0.31078457886E+03  0.00000000000E+00 0. -1.
          6    1    1    2  501    0 -0.25763697509E+02  0.74122880835E+02  0.58566094107E+03  0.61569936451E+03  0.17300000000E+03 0. -1.
         -6    1    1    2    0  503  0.25763697509E+02 -0.74122880835E+02 -0.26526232859E+03  0.32626840568E+03  0.17300000000E+03 0. -1.
<mgrwt>
<rscale>  2 0.18996571E+03</rscale>
<asrwt>0</asrwt>
<pdfrwt beam="1">  1       21 0.97105106E-01 0.18996571E+03</pdfrwt>
<pdfrwt beam="2">  1       21 0.47813012E-01 0.18996571E+03</pdfrwt>
<totfact> 0.36877576E+03</totfact>
</mgrwt>
</event>
<event>
 4    1  0.4365842E+000  0.1804645E+03  0.7546771E-02  0.1167354E+00
         21   -1    0    0  503  502  0.00000000000E+00  0.00000000000E+00  0.81954452493E+02  0.81954452493E+02  0.00000000000E+00 0.  1.
         21   -1    0    0  501  503 -0.00000000000E+00 -0.00000000000E+00 -0.78038085282E+03  0.78038085282E+03  0.00000000000E+00 0.  1.
          6    1    1    2  501    0 -0.40187911105E+02 -0.31990144261E+02 -0.65127105232E+03  0.67581167578E+03  0.17300000000E+03 0.  1.
         -6    1    1    2    0  502  0.40187911105E+02  0.31990144261E+02 -0.47155348005E+02  0.18652362953E+03  0.17300000000E+03 0.  1.
<mgrwt>
<rscale>  2 0.18046450E+03</rscale>
<asrwt>0</asrwt>
<pdfrwt beam="1">  1       21 0.12608378E-01 0.18046450E+03</pdfrwt>
<pdfrwt beam="2">  1       21 0.12005859E+00 0.18046450E+03</pdfrwt>
<totfact> 0.28531898E+04</totfact>
</mgrwt>
</event>
<event>
 4    1  0.4365842E+000  0.2155632E+03  0.7546771E-02  0.1137235E+00
         21   -1    0    0  501  502  0.00000000000E+00  0.00000000000E+00  0.28794465761E+03  0.28794465761E+03  0.00000000000E+00 0.  1.
         21   -1    0    0  502  503 -0.00000000000E+00 -0.00000000000E+00 -0.16944847466E+03  0.16944847466E+03  0.00000000000E+00 0.  1.
          6    1    1    2  501    0  0.11276734579E+03  0.61822458164E+02  0.10916316107E+03  0.24162799164E+03  0.17300000000E+03 0.  1.
         -6    1    1    2    0  503 -0.11276734579E+03 -0.61822458164E+02  0.93330218869E+01  0.21576514062E+03  0.17300000000E+03 0.  1.
<mgrwt>
<rscale>  2 0.21556319E+03</rscale>
<asrwt>0</asrwt>
<pdfrwt beam="1">  1       21 0.44299178E-01 0.21556319E+03</pdfrwt>
<pdfrwt beam="2">  1       21 0.26068996E-01 0.21556319E+03</pdfrwt>
<totfact> 0.67727930E+04</totfact>
</mgrwt>
</event>
<event>
 4    1  0.4365842E+000  0.1837272E+03  0.7546771E-02  0.1164244E+00
         21   -1    0    0  501  502  0.00000000000E+00  0.00000000000E+00  0.52051280957E+03  0.52051280957E+03  0.00000000000E+00 0.  1.
         21   -1    0    0  502  503 -0.00000000000E+00 -0.00000000000E+00 -0.75806339654E+02  0.75806339654E+02  0.00000000000E+00 0. -1.
          6    1    1    2  501    0 -0.46802431324E+02 -0.40449966193E+02  0.33570102727E+03  0.38268896907E+03  0.17300000000E+03 0.  1.
         -6    1    1    2    0  503  0.46802431324E+02  0.40449966193E+02  0.10900544265E+03  0.21363018015E+03  0.17300000000E+03 0. -1.
<mgrwt>
<rscale>  2 0.18372715E+03</rscale>
<asrwt>0</asrwt>
<pdfrwt beam="1">  1       21 0.80078892E-01 0.18372715E+03</pdfrwt>
<pdfrwt beam="2">  1       21 0.11662514E-01 0.18372715E+03</pdfrwt>
<totfact> 0.85054072E+04</totfact>
</mgrwt>
</event>
<event>
 4    1  0.4365842E+000  0.1766291E+03  0.7546771E-02  0.1171106E+00
         21   -1    0    0  501  502  0.00000000000E+00  0.00000000000E+00  0.23288522085E+03  0.23288522085E+03  0.00000000000E+00 0.  1.
         21   -1    0    0  502  503 -0.00000000000E+00 -0.00000000000E+00 -0.17401452565E+03  0.17401452565E+03  0.00000000000E+00 0.  1.
          6    1    1    2  501    0 -0.22400914456E+02 -0.27695177021E+02  0.12704176506E+03  0.21757167524E+03  0.17300000000E+03 0.  1.
         -6    1    1    2    0  503  0.22400914456E+02  0.27695177021E+02 -0.68171069862E+02  0.18932807125E+03  0.17300000000E+03 0.  1.
<mgrwt>
<rscale>  2 0.17662906E+03</rscale>
<asrwt>0</asrwt>
<pdfrwt beam="1">  1       21 0.35828496E-01 0.17662906E+03</pdfrwt>
<pdfrwt beam="2">  1       21 0.26771465E-01 0.17662906E+03</pdfrwt>
<totfact> 0.10039780E+05</totfact>
</mgrwt>
</event>
<event>
 4    1  0.4365842E+000  0.1795651E+03  0.7546771E-02  0.1168225E+00
         21   -1    0    0  501  502  0.00000000000E+00  0.00000000000E+00  0.82249402684E+03  0.82249402684E+03  0.00000000000E+00 0. -1.
         21   -1    0    0  502  503 -0.00000000000E+00 -0.00000000000E+00 -0.44268362476E+02  0.44268362476E+02  0.00000000000E+00 0. -1.
          6    1    1    2  501    0  0.45674277844E+02 -0.15115883952E+02  0.53572164019E+03  0.56501442935E+03  0.17300000000E+03 0.  1.
         -6    1    1    2    0  503 -0.45674277844E+02  0.15115883952E+02  0.24250402418E+03  0.30174795997E+03  0.17300000000E+03 0.  1.
<mgrwt>
<rscale>  2 0.17956511E+03</rscale>
<asrwt>0</asrwt>
<pdfrwt beam="1">  1       21 0.12653753E+00 0.17956511E+03</pdfrwt>
<pdfrwt beam="2">  1       21 0.68105179E-02 0.17956511E+03</pdfrwt>
<totfact> 0.73836555E+04</totfact>
</mgrwt>
</event>
<event>
 4    1  0.4365842E+000  0.2092150E+03  0.7546771E-02  0.1142189E+00
         21   -1    0    0  501  502  0.00000000000E+00  0.00000000000E+00  0.11949363714E+03  0.11949363714E+03  0.00000000000E+00 0. -1.
         21   -1    0    0  502  503 -0.00000000000E+00 -0.00000000000E+00 -0.80395784497E+03  0.80395784497E+03  0.00000000000E+00 0. -1.
          6    1    1    2  501    0 -0.40878659386E+02 -0.11032158112E+03 -0.15626772363E+01  0.20922083552E+03  0.17300000000E+03 0. -1.
         -6    1    1    2    0  503  0.40878659386E+02  0.11032158112E+03 -0.68290153059E+03  0.71423064659E+03  0.17300000000E+03 0. -1.
<mgrwt>
<rscale>  2 0.20921500E+03</rscale>
<asrwt>0</asrwt>
<pdfrwt beam="1">  1       21 0.18383636E-01 0.20921500E+03</pdfrwt>
<pdfrwt beam="2">  1       21 0.12368582E+00 0.20921500E+03</pdfrwt>
<totfact> 0.13075799E+04</totfact>
</mgrwt>
</event>
<event>
 4    1  0.4365842E+000  0.2379788E+03  0.7546771E-02  0.1121147E+00
         21   -1    0    0  501  502  0.00000000000E+00  0.00000000000E+00  0.12139838924E+03  0.12139838924E+03  0.00000000000E+00 0. -1.
         21   -1    0    0  502  503 -0.00000000000E+00 -0.00000000000E+00 -0.66377099163E+03  0.66377099163E+03  0.00000000000E+00 0. -1.
          6    1    1    2  501    0 -0.11365365712E+03 -0.11742121293E+03 -0.57172482436E+02  0.24475005162E+03  0.17300000000E+03 0. -1.
         -6    1    1    2    0  503  0.11365365712E+03  0.11742121293E+03 -0.48520011995E+03  0.54041932924E+03  0.17300000000E+03 0. -1.
<mgrwt>
<rscale>  2 0.23797877E+03</rscale>
<asrwt>0</asrwt>
<pdfrwt beam="1">  1       21 0.18676675E-01 0.23797877E+03</pdfrwt>
<pdfrwt beam="2">  1       21 0.10211861E+00 0.23797877E+03</pdfrwt>
<totfact> 0.19945107E+04</totfact>
</mgrwt>
</event>
<event>
 4    1  0.4365842E+000  0.2218123E+03  0.7546771E-02  0.1132539E+00
         21   -1    0    0  501  502  0.00000000000E+00  0.00000000000E+00  0.88158696615E+03  0.88158696615E+03  0.00000000000E+00 0.  1.
         21   -1    0    0  502  503 -0.00000000000E+00 -0.00000000000E+00 -0.75754928422E+02  0.75754928422E+02  0.00000000000E+00 0.  1.
          6    1    1    2  501    0  0.12431587734E+03 -0.61784125794E+02  0.64853160831E+03  0.68541517530E+03  0.17300000000E+03 0.  1.
         -6    1    1    2    0  503 -0.12431587734E+03  0.61784125794E+02  0.15730042942E+03  0.27192671927E+03  0.17300000000E+03 0.  1.
<mgrwt>
<rscale>  2 0.22181234E+03</rscale>
<asrwt>0</asrwt>
<pdfrwt beam="1">  1       21 0.13562876E+00 0.22181234E+03</pdfrwt>
<pdfrwt beam="2">  1       21 0.11654605E-01 0.22181234E+03</pdfrwt>
<totfact> 0.23575870E+04</totfact>
</mgrwt>
</event>
<event>
 4    1  0.4365842E+000  0.2305001E+03  0.7546771E-02  0.1126288E+00
         21   -1    0    0  503  502  0.00000000000E+00  0.00000000000E+00  0.60564998100E+03  0.60564998100E+03  0.00000000000E+00 0. -1.
         21   -1    0    0  501  503 -0.00000000000E+00 -0.00000000000E+00 -0.20098666251E+03  0.20098666251E+03  0.00000000000E+00 0.  1.
          6    1    1    2  501    0  0.15030127624E+03  0.24714419866E+02 -0.10043424395E+03  0.25143053424E+03  0.17300000000E+03 0.  1.
         -6    1    1    2    0  502 -0.15030127624E+03 -0.24714419866E+02  0.50509756245E+03  0.55520610928E+03  0.17300000000E+03 0. -1.
<mgrwt>
<rscale>  2 0.23050006E+03</rscale>
<asrwt>0</asrwt>
<pdfrwt beam="1">  1       21 0.93176920E-01 0.23050006E+03</pdfrwt>
<pdfrwt beam="2">  1       21 0.30921025E-01 0.23050006E+03</pdfrwt>
<totfact> 0.94927879E+03</totfact>
</mgrwt>
</event>
<event>
 4    1  0.4365842E+000  0.2138198E+03  0.7546771E-02  0.1138576E+00
         21   -1    0    0  501  502  0.00000000000E+00  0.00000000000E+00  0.65868138080E+03  0.65868138080E+03  0.00000000000E+00 0.  1.
         21   -1    0    0  502  503 -0.00000000000E+00 -0.00000000000E+00 -0.15347037885E+03  0.15347037885E+03  0.00000000000E+00 0.  1.
          6    1    1    2  501    0 -0.18790621974E+02 -0.12424493235E+03  0.55313790423E+03  0.59302650176E+03  0.17300000000E+03 0.  1.
         -6    1    1    2    0  503  0.18790621974E+02  0.12424493235E+03 -0.47926902281E+02  0.21912525790E+03  0.17300000000E+03 0.  1.
<mgrwt>
<rscale>  2 0.21381976E+03</rscale>
<asrwt>0</asrwt>
<pdfrwt beam="1">  1       21 0.10133560E+00 0.21381976E+03</pdfrwt>
<pdfrwt beam="2">  1       21 0.23610828E-01 0.21381976E+03</pdfrwt>
<totfact> 0.13247376E+04</totfact>
</mgrwt>
</event>
<event>
 4    1  0.4365842E+000  0.1837998E+03  0.7546771E-02  0.1164175E+00
         21   -1    0    0  503  502  0.00000000000E+00  0.00000000000E+00  0.55445565282E+02  0.55445565282E+02  0.00000000000E+00 0.  1.
         21   -1    0    0  501  503 -0.00000000000E+00 -0.00000000000E+00 -0.71008673023E+03  0.71008673023E+03  0.00000000000E+00 0. -1.
          6    1    1    2  501    0 -0.21106263940E+02 -0.58377070046E+02 -0.47153339081E+03  0.50608901918E+03  0.17300000000E+03 0. -1.
         -6    1    1    2    0  502  0.21106263940E+02  0.58377070046E+02 -0.18310777414E+03  0.25944327633E+03  0.17300000000E+03 0.  1.
<mgrwt>
<rscale>  2 0.18379977E+03</rscale>
<asrwt>0</asrwt>
<pdfrwt beam="1">  1       21 0.85300884E-02 0.18379977E+03</pdfrwt>
<pdfrwt beam="2">  1       21 0.10924409E+00 0.18379977E+03</pdfrwt>
<totfact> 0.71546257E+04</totfact>
</mgrwt>
</event>
<event>
 4    1  0.4365842E+000  0.2201498E+03  0.7546771E-02  0.1133771E+00
         21   -1    0    0  501  502  0.00000000000E+00  0.00000000000E+00  0.15363790066E+03  0.15363790066E+03  0.00000000000E+00 0.  1.
         21   -1    0    0  502  503 -0.00000000000E+00 -0.00000000000E+00 -0.34140819697E+03  0.34140819697E+03  0.00000000000E+00 0.  1.
          6    1    1    2  501    0  0.77600000189E+02  0.11187122599E+03 -0.25640381707E+02  0.22163790382E+03  0.17300000000E+03 0.  1.
         -6    1    1    2    0  503 -0.77600000189E+02 -0.11187122599E+03 -0.16212991461E+03  0.27340819381E+03  0.17300000000E+03 0.  1.
<mgrwt>
<rscale>  2 0.22014979E+03</rscale>
<asrwt>0</asrwt>
<pdfrwt beam="1">  1       21 0.23636600E-01 0.22014979E+03</pdfrwt>
<pdfrwt beam="2">  1       21 0.52524338E-01 0.22014979E+03</pdfrwt>
<totfact> 0.57201152E+04</totfact>
</mgrwt>
</event>
<event>
 4    1  0.4365842E+000  0.3720808E+03  0.7546771E-02  0.1053900E+00
         21   -1    0    0  501  502  0.00000000000E+00  0.00000000000E+00  0.69028797750E+03  0.69028797750E+03  0.00000000000E+00 0. -1.
         21   -1    0    0  502  503 -0.00000000000E+00 -0.00000000000E+00 -0.43308521081E+03  0.43308521081E+03  0.00000000000E+00 0.  1.
          6    1    1    2  501    0 -0.32783067616E+03  0.32282366047E+02  0.54017021455E+03  0.65591765038E+03  0.17300000000E+03 0. -1.
         -6    1    1    2    0  503  0.32783067616E+03 -0.32282366047E+02 -0.28296744786E+03  0.46745553793E+03  0.17300000000E+03 0.  1.
<mgrwt>
<rscale>  2 0.37208078E+03</rscale>
<asrwt>0</asrwt>
<pdfrwt beam="1">  1       21 0.10619815E+00 0.37208078E+03</pdfrwt>
<pdfrwt beam="2">  1       21 0.66628494E-01 0.37208078E+03</pdfrwt>
<totfact> 0.12977426E+03</totfact>
</mgrwt>
</event>
<event>
 4    1  0.4365842E+000  0.1994550E+03  0.7546771E-02  0.1150200E+00
         21   -1    0    0  503  502  0.00000000000E+00  0.00000000000E+00  0.74670340629E+03  0.74670340629E+03  0.00000000000E+00 0. -1.
         21   -1    0    0  501  503 -0.00000000000E+00 -0.00000000000E+00 -0.53355508557E+02  0.53355508557E+02  0.00000000000E+00 0.  1.
          6    1    1    2  501    0 -0.20739236838E+02  0.97073063642E+02  0.33135250979E+03  0.38675157579E+03  0.17300000000E+03 0. -1.
         -6    1    1    2    0  502  0.20739236838E+02 -0.97073063642E+02  0.36199538794E+03  0.41330733906E+03  0.17300000000E+03 0. -1.
<mgrwt>
<rscale>  2 0.19945500E+03</rscale>
<asrwt>0</asrwt>
<pdfrwt beam="1">  1       21 0.11487744E+00 0.19945500E+03</pdfrwt>
<pdfrwt beam="2">  1       21 0.82085403E-02 0.19945500E+03</pdfrwt>
<totfact> 0.67217614E+04</totfact>
</mgrwt>
</event>
<event>
 4    1  0.4365842E+000  0.2630240E+03  0.7546771E-02  0.1105340E+00
         21   -1    0    0  501  502  0.00000000000E+00  0.00000000000E+00  0.15923229240E+03  0.15923229240E+03  0.00000000000E+00 0.  1.
         21   -1    0    0  502  503 -0.00000000000E+00 -0.00000000000E+00 -0.47614069993E+03  0.47614069993E+03  0.00000000000E+00 0.  1.
          6    1    1    2  501    0  0.12353170905E+03 -0.15489533916E+03 -0.25243663120E+03  0.36456261740E+03  0.17300000000E+03 0.  1.
         -6    1    1    2    0  503 -0.12353170905E+03  0.15489533916E+03 -0.64471776328E+02  0.27081037494E+03  0.17300000000E+03 0.  1.
<mgrwt>
<rscale>  2 0.26302405E+03</rscale>
<asrwt>0</asrwt>
<pdfrwt beam="1">  1       21 0.24497276E-01 0.26302405E+03</pdfrwt>
<pdfrwt beam="2">  1       21 0.73252415E-01 0.26302405E+03</pdfrwt>
<totfact> 0.25453570E+04</totfact>
</mgrwt>
</event>
<event>
 4    1  0.4365842E+000  0.2318022E+03  0.7546771E-02  0.1125378E+00
         21   -1    0    0  501  502  0.00000000000E+00  0.00000000000E+00  0.84617410931E+02  0.84617410931E+02  0.00000000000E+00 0.  1.
         21   -1    0    0  502  503 -0.00000000000E+00 -0.00000000000E+00 -0.67644578393E+03  0.67644578393E+03  0.00000000000E+00 0.  1.
          6    1    1    2  501    0  0.15240895518E+03 -0.23974437493E+02 -0.20172488667E+03  0.30728682558E+03  0.17300000000E+03 0.  1.
         -6    1    1    2    0  503 -0.15240895518E+03  0.23974437493E+02 -0.39010348632E+03  0.45377636928E+03  0.17300000000E+03 0.  1.
<mgrwt>
<rscale>  2 0.23180221E+03</rscale>
<asrwt>0</asrwt>
<pdfrwt beam="1">  1       21 0.13018063E-01 0.23180221E+03</pdfrwt>
<pdfrwt beam="2">  1       21 0.10406858E+00 0.23180221E+03</pdfrwt>
<totfact> 0.37078641E+04</totfact>
</mgrwt>
</event>
<event>
 4    1  0.4365842E+000  0.1890887E+03  0.7546771E-02  0.1159286E+00
         21   -1    0    0  503  502  0.00000000000E+00  0.00000000000E+00  0.49052875125E+02  0.49052875125E+02  0.00000000000E+00 0.  1.
         21   -1    0    0  501  503 -0.00000000000E+00 -0.00000000000E+00 -0.12510191209E+04  0.12510191209E+04  0.00000000000E+00 0.  1.
          6    1    1    2  501    0  0.19373702605E+02 -0.73825536708E+02 -0.10209267549E+04  0.10382899350E+04  0.17300000000E+03 0.  1.
         -6    1    1    2    0  502 -0.19373702605E+02  0.73825536708E+02 -0.18103949086E+03  0.26178206102E+03  0.17300000000E+03 0.  1.
<mgrwt>
<rscale>  2 0.18908874E+03</rscale>
<asrwt>0</asrwt>
<pdfrwt beam="1">  1       21 0.75465960E-02 0.18908874E+03</pdfrwt>
<pdfrwt beam="2">  1       21 0.19246448E+00 0.18908874E+03</pdfrwt>
<totfact> 0.20009370E+04</totfact>
</mgrwt>
</event>
<event>
 4    1  0.4365842E+000  0.1806019E+03  0.7546771E-02  0.1167222E+00
         21   -1    0    0  503  502  0.00000000000E+00  0.00000000000E+00  0.76175872421E+03  0.76175872421E+03  0.00000000000E+00 0. -1.
         21   -1    0    0  501  503 -0.00000000000E+00 -0.00000000000E+00 -0.43649646759E+02  0.43649646759E+02  0.00000000000E+00 0. -1.
          6    1    1    2  501    0  0.11724967813E+02  0.50503093083E+02  0.30347085523E+03  0.35314529199E+03  0.17300000000E+03 0. -1.
         -6    1    1    2    0  502 -0.11724967813E+02 -0.50503093083E+02  0.41463822221E+03  0.45226307897E+03  0.17300000000E+03 0. -1.
<mgrwt>
<rscale>  2 0.18060188E+03</rscale>
<asrwt>0</asrwt>
<pdfrwt beam="1">  1       21 0.11719364E+00 0.18060188E+03</pdfrwt>
<pdfrwt beam="2">  1       21 0.67153308E-02 0.18060188E+03</pdfrwt>
<totfact> 0.91453326E+04</totfact>
</mgrwt>
</event>
<event>
 4    1  0.4365842E+000  0.1870683E+03  0.7546771E-02  0.1161132E+00
         21   -1    0    0  501  502  0.00000000000E+00  0.00000000000E+00  0.52020723052E+03  0.52020723052E+03  0.00000000000E+00 0.  1.
         21   -1    0    0  502  503 -0.00000000000E+00 -0.00000000000E+00 -0.72125034342E+02  0.72125034342E+02  0.00000000000E+00 0. -1.
          6    1    1    2  501    0  0.25836440628E+02 -0.66317717826E+02  0.30087794447E+03  0.35429098045E+03  0.17300000000E+03 0.  1.
         -6    1    1    2    0  503 -0.25836440628E+02  0.66317717826E+02  0.14720425171E+03  0.23804128441E+03  0.17300000000E+03 0. -1.
<mgrwt>
<rscale>  2 0.18706833E+03</rscale>
<asrwt>0</asrwt>
<pdfrwt beam="1">  1       21 0.80031879E-01 0.18706833E+03</pdfrwt>
<pdfrwt beam="2">  1       21 0.11096159E-01 0.18706833E+03</pdfrwt>
<totfact> 0.92934676E+04</totfact>
</mgrwt>
</event>
<event>
 4    1  0.4365842E+000  0.2288842E+03  0.7546771E-02  0.1127428E+00
         21   -1    0    0  501  502  0.00000000000E+00  0.00000000000E+00  0.27331971567E+03  0.27331971567E+03  0.00000000000E+00 0.  1.
         21   -1    0    0  502  503 -0.00000000000E+00 -0.00000000000E+00 -0.33876266511E+03  0.33876266511E+03  0.00000000000E+00 0.  1.
          6    1    1    2  501    0 -0.65877489903E+02  0.13460734410E+03  0.16894019041E+03  0.28447982125E+03  0.17300000000E+03 0.  1.
         -6    1    1    2    0  503  0.65877489903E+02 -0.13460734410E+03 -0.23438313986E+03  0.32760255953E+03  0.17300000000E+03 0.  1.
<mgrwt>
<rscale>  2 0.22888421E+03</rscale>
<asrwt>0</asrwt>
<pdfrwt beam="1">  1       21 0.42049187E-01 0.22888421E+03</pdfrwt>
<pdfrwt beam="2">  1       21 0.52117333E-01 0.22888421E+03</pdfrwt>
<totfact> 0.18622219E+04</totfact>
</mgrwt>
</event>
<event>
 4    1  0.4365842E+000  0.3076996E+03  0.7546771E-02  0.1081454E+00
         21   -1    0    0  501  502  0.00000000000E+00  0.00000000000E+00  0.99831082159E+03  0.99831082159E+03  0.00000000000E+00 0.  1.
         21   -1    0    0  502  503 -0.00000000000E+00 -0.00000000000E+00 -0.10044258185E+03  0.10044258185E+03  0.00000000000E+00 0. -1.
          6    1    1    2  501    0 -0.21338356466E+03 -0.13862711909E+03  0.57869251822E+03  0.65541136278E+03  0.17300000000E+03 0.  1.
         -6    1    1    2    0  503  0.21338356466E+03  0.13862711909E+03  0.31917572151E+03  0.44334204066E+03  0.17300000000E+03 0. -1.
<mgrwt>
<rscale>  2 0.30769957E+03</rscale>
<asrwt>0</asrwt>
<pdfrwt beam="1">  1       21 0.15358627E+00 0.30769957E+03</pdfrwt>
<pdfrwt beam="2">  1       21 0.15452706E-01 0.30769957E+03</pdfrwt>
<totfact> 0.97224348E+03</totfact>
</mgrwt>
</event>
<event>
 4    1  0.4365842E+000  0.3201770E+03  0.7546771E-02  0.1075568E+00
         21   -1    0    0  501  502  0.00000000000E+00  0.00000000000E+00  0.47443699447E+03  0.47443699447E+03  0.00000000000E+00 0.  1.
         21   -1    0    0  502  503 -0.00000000000E+00 -0.00000000000E+00 -0.59021762388E+03  0.59021762388E+03  0.00000000000E+00 0. -1.
          6    1    1    2  501    0  0.26070663023E+03  0.67943596832E+02  0.36594008430E+03  0.48623597635E+03  0.17300000000E+03 0.  1.
         -6    1    1    2    0  503 -0.26070663023E+03 -0.67943596832E+02 -0.48172071372E+03  0.57841864200E+03  0.17300000000E+03 0. -1.
<mgrwt>
<rscale>  2 0.32017695E+03</rscale>
<asrwt>0</asrwt>
<pdfrwt beam="1">  1       21 0.72990308E-01 0.32017695E+03</pdfrwt>
<pdfrwt beam="2">  1       21 0.90802711E-01 0.32017695E+03</pdfrwt>
<totfact> 0.15843371E+03</totfact>
</mgrwt>
</event>
<event>
 4    1  0.4365842E+000  0.1981824E+03  0.7546771E-02  0.1151282E+00
         21   -1    0    0  503  502  0.00000000000E+00  0.00000000000E+00  0.24861834275E+03  0.24861834275E+03  0.00000000000E+00 0. -1.
         21   -1    0    0  501  503 -0.00000000000E+00 -0.00000000000E+00 -0.18902003700E+03  0.18902003700E+03  0.00000000000E+00 0. -1.
          6    1    1    2  501    0  0.92675524948E+02  0.27541152805E+02 -0.58876721490E+02  0.20674316520E+03  0.17300000000E+03 0. -1.
         -6    1    1    2    0  502 -0.92675524948E+02 -0.27541152805E+02  0.11847502724E+03  0.23089521455E+03  0.17300000000E+03 0. -1.
<mgrwt>
<rscale>  2 0.19818241E+03</rscale>
<asrwt>0</asrwt>
<pdfrwt beam="1">  1       21 0.38248976E-01 0.19818241E+03</pdfrwt>
<pdfrwt beam="2">  1       21 0.29080006E-01 0.19818241E+03</pdfrwt>
<totfact> 0.74450219E+04</totfact>
</mgrwt>
</event>
<event>
 4    1  0.4365842E+000  0.1928939E+03  0.7546771E-02  0.1155877E+00
         21   -1    0    0  503  502  0.00000000000E+00  0.00000000000E+00  0.17331648485E+03  0.17331648485E+03  0.00000000000E+00 0. -1.
         21   -1    0    0  501  503 -0.00000000000E+00 -0.00000000000E+00 -0.22866079659E+03  0.22866079659E+03  0.00000000000E+00 0. -1.
          6    1    1    2  501    0 -0.49074396361E+02 -0.69790713069E+02 -0.77365778048E+02  0.20783046846E+03  0.17300000000E+03 0. -1.
         -6    1    1    2    0  502  0.49074396361E+02  0.69790713069E+02  0.22021466313E+02  0.19414681297E+03  0.17300000000E+03 0. -1.
<mgrwt>
<rscale>  2 0.19289386E+03</rscale>
<asrwt>0</asrwt>
<pdfrwt beam="1">  1       21 0.26664075E-01 0.19289386E+03</pdfrwt>
<pdfrwt beam="2">  1       21 0.35178584E-01 0.19289386E+03</pdfrwt>
<totfact> 0.10429254E+05</totfact>
</mgrwt>
</event>
<event>
 4    1  0.4365842E+000  0.2165619E+03  0.7546771E-02  0.1136473E+00
         21   -1    0    0  503  502  0.00000000000E+00  0.00000000000E+00  0.90539963881E+02  0.90539963881E+02  0.00000000000E+00 0.  1.
         21   -1    0    0  501  503 -0.00000000000E+00 -0.00000000000E+00 -0.76374212654E+03  0.76374212654E+03  0.00000000000E+00 0. -1.
          6    1    1    2  501    0  0.91855494847E+02 -0.92372271834E+02 -0.57889578134E+03  0.61807717495E+03  0.17300000000E+03 0. -1.
         -6    1    1    2    0  502 -0.91855494847E+02  0.92372271834E+02 -0.94306381322E+02  0.23620491548E+03  0.17300000000E+03 0.  1.
<mgrwt>
<rscale>  2 0.21656193E+03</rscale>
<asrwt>0</asrwt>
<pdfrwt beam="1">  1       21 0.13929225E-01 0.21656193E+03</pdfrwt>
<pdfrwt beam="2">  1       21 0.11749879E+00 0.21656193E+03</pdfrwt>
<totfact> 0.24608291E+04</totfact>
</mgrwt>
</event>
<event>
 4    1  0.4365842E+000  0.2551701E+03  0.7546771E-02  0.1110080E+00
         21   -1    0    0  503  502  0.00000000000E+00  0.00000000000E+00  0.29342509911E+03  0.29342509911E+03  0.00000000000E+00 0.  1.
         21   -1    0    0  501  503 -0.00000000000E+00 -0.00000000000E+00 -0.24274134147E+03  0.24274134147E+03  0.00000000000E+00 0. -1.
          6    1    1    2  501    0 -0.18751661093E+03 -0.45079485173E+01 -0.53205771241E+02  0.26065811913E+03  0.17300000000E+03 0. -1.
         -6    1    1    2    0  502  0.18751661093E+03  0.45079485173E+01  0.10388952888E+03  0.27550832145E+03  0.17300000000E+03 0.  1.
<mgrwt>
<rscale>  2 0.25517014E+03</rscale>
<asrwt>0</asrwt>
<pdfrwt beam="1">  1       21 0.45142323E-01 0.25517014E+03</pdfrwt>
<pdfrwt beam="2">  1       21 0.37344822E-01 0.25517014E+03</pdfrwt>
<totfact> 0.31577827E+04</totfact>
</mgrwt>
</event>
<event>
 4    1  0.4365842E+000  0.2055669E+03  0.7546771E-02  0.1145125E+00
         21   -1    0    0  501  502  0.00000000000E+00  0.00000000000E+00  0.95603458829E+02  0.95603458829E+02  0.00000000000E+00 0. -1.
         21   -1    0    0  502  503 -0.00000000000E+00 -0.00000000000E+00 -0.44824695505E+03  0.44824695505E+03  0.00000000000E+00 0. -1.
          6    1    1    2  501    0 -0.75770784927E+02  0.81163676360E+02 -0.14424784331E+03  0.25112784495E+03  0.17300000000E+03 0. -1.
         -6    1    1    2    0  503  0.75770784927E+02 -0.81163676360E+02 -0.20839565291E+03  0.29272256893E+03  0.17300000000E+03 0. -1.
<mgrwt>
<rscale>  2 0.20556691E+03</rscale>
<asrwt>0</asrwt>
<pdfrwt beam="1">  1       21 0.14708224E-01 0.20556691E+03</pdfrwt>
<pdfrwt beam="2">  1       21 0.68961071E-01 0.20556691E+03</pdfrwt>
<totfact> 0.77410086E+04</totfact>
</mgrwt>
</event>
<event>
 4    1  0.4365842E+000  0.2370092E+03  0.7546771E-02  0.1121801E+00
         21   -1    0    0  501  502  0.00000000000E+00  0.00000000000E+00  0.80352432125E+02  0.80352432125E+02  0.00000000000E+00 0.  1.
         21   -1    0    0  502  503 -0.00000000000E+00 -0.00000000000E+00 -0.71942580263E+03  0.71942580263E+03  0.00000000000E+00 0. -1.
          6    1    1    2  501    0 -0.34281811496E+02 -0.15833227921E+03 -0.25229979677E+03  0.34616259285E+03  0.17300000000E+03 0.  1.
         -6    1    1    2    0  503  0.34281811496E+02  0.15833227921E+03 -0.38677357374E+03  0.45361564191E+03  0.17300000000E+03 0. -1.
<mgrwt>
<rscale>  2 0.23700918E+03</rscale>
<asrwt>0</asrwt>
<pdfrwt beam="1">  1       21 0.12361913E-01 0.23700918E+03</pdfrwt>
<pdfrwt beam="2">  1       21 0.11068089E+00 0.23700918E+03</pdfrwt>
<totfact> 0.34971108E+04</totfact>
</mgrwt>
</event>
<event>
 4    1  0.4365842E+000  0.2228384E+03  0.7546771E-02  0.1131784E+00
         21   -1    0    0  503  502  0.00000000000E+00  0.00000000000E+00  0.62505626751E+02  0.62505626751E+02  0.00000000000E+00 0. -1.
         21   -1    0    0  501  503 -0.00000000000E+00 -0.00000000000E+00 -0.96999520505E+03  0.96999520505E+03  0.00000000000E+00 0. -1.
          6    1    1    2  501    0  0.72871764907E+02  0.12007350087E+03 -0.67337044799E+03  0.70928463959E+03  0.17300000000E+03 0. -1.
         -6    1    1    2    0  502 -0.72871764907E+02 -0.12007350087E+03 -0.23411913031E+03  0.32321619222E+03  0.17300000000E+03 0. -1.
<mgrwt>
<rscale>  2 0.22283837E+03</rscale>
<asrwt>0</asrwt>
<pdfrwt beam="1">  1       21 0.96162506E-02 0.22283837E+03</pdfrwt>
<pdfrwt beam="2">  1       21 0.14923003E+00 0.22283837E+03</pdfrwt>
<totfact> 0.25853804E+04</totfact>
</mgrwt>
</event>
<event>
 4    1  0.4365842E+000  0.1980736E+03  0.7546771E-02  0.1151375E+00
         21   -1    0    0  503  502  0.00000000000E+00  0.00000000000E+00  0.10397178079E+03  0.10397178079E+03  0.00000000000E+00 0.  1.
         21   -1    0    0  501  503 -0.00000000000E+00 -0.00000000000E+00 -0.40592712034E+03  0.40592712034E+03  0.00000000000E+00 0.  1.
          6    1    1    2  501    0 -0.29643556663E+02 -0.91790004802E+02 -0.21863012552E+03  0.29501233401E+03  0.17300000000E+03 0.  1.
         -6    1    1    2    0  502  0.29643556663E+02  0.91790004802E+02 -0.83325214036E+02  0.21488656712E+03  0.17300000000E+03 0.  1.
<mgrwt>
<rscale>  2 0.19807359E+03</rscale>
<asrwt>0</asrwt>
<pdfrwt beam="1">  1       21 0.15995659E-01 0.19807359E+03</pdfrwt>
<pdfrwt beam="2">  1       21 0.62450325E-01 0.19807359E+03</pdfrwt>
<totfact> 0.82733698E+04</totfact>
</mgrwt>
</event>
<event>
 4    1  0.4365842E+000  0.2115313E+03  0.7546771E-02  0.1140359E+00
         21   -1    0    0  501  502  0.00000000000E+00  0.00000000000E+00  0.71149331435E+03  0.71149331435E+03  0.00000000000E+00 0.  1.
         21   -1    0    0  502  503 -0.00000000000E+00 -0.00000000000E+00 -0.63055449480E+02  0.63055449480E+02  0.00000000000E+00 0.  1.
          6    1    1    2  501    0 -0.40472634338E+02 -0.11479748424E+03  0.30435450683E+03  0.37064425309E+03  0.17300000000E+03 0.  1.
         -6    1    1    2    0  503  0.40472634338E+02  0.11479748424E+03  0.34408335803E+03  0.40390451074E+03  0.17300000000E+03 0.  1.
<mgrwt>
<rscale>  2 0.21153131E+03</rscale>
<asrwt>0</asrwt>
<pdfrwt beam="1">  1       21 0.10946050E+00 0.21153131E+03</pdfrwt>
<pdfrwt beam="2">  1       21 0.97008389E-02 0.21153131E+03</pdfrwt>
<totfact> 0.56049853E+04</totfact>
</mgrwt>
</event>
<event>
 4    1  0.4365842E+000  0.3372671E+03  0.7546771E-02  0.1067966E+00
         21   -1    0    0  503  502  0.00000000000E+00  0.00000000000E+00  0.66526019267E+03  0.66526019267E+03  0.00000000000E+00 0. -1.
         21   -1    0    0  501  503 -0.00000000000E+00 -0.00000000000E+00 -0.21996500890E+03  0.21996500890E+03  0.00000000000E+00 0.  1.
          6    1    1    2  501    0 -0.24623592703E+03  0.15227605040E+03  0.13785809116E+02  0.33754877547E+03  0.17300000000E+03 0.  1.
         -6    1    1    2    0  502  0.24623592703E+03 -0.15227605040E+03  0.43150937465E+03  0.54767642610E+03  0.17300000000E+03 0. -1.
<mgrwt>
<rscale>  2 0.33726715E+03</rscale>
<asrwt>0</asrwt>
<pdfrwt beam="1">  1       21 0.10234772E+00 0.33726715E+03</pdfrwt>
<pdfrwt beam="2">  1       21 0.33840771E-01 0.33726715E+03</pdfrwt>
<totfact> 0.60037571E+03</totfact>
</mgrwt>
</event>
<event>
 4    1  0.4365842E+000  0.1961543E+03  0.7546771E-02  0.1153025E+00
         21   -1    0    0  503  502  0.00000000000E+00  0.00000000000E+00  0.39271806799E+03  0.39271806799E+03  0.00000000000E+00 0. -1.
         21   -1    0    0  501  503 -0.00000000000E+00 -0.00000000000E+00 -0.15590058335E+03  0.15590058335E+03  0.00000000000E+00 0. -1.
          6    1    1    2  501    0 -0.39753020644E+02  0.83469828612E+02 -0.48797416879E+02  0.20213288410E+03  0.17300000000E+03 0. -1.
         -6    1    1    2    0  502  0.39753020644E+02 -0.83469828612E+02  0.28561490151E+03  0.34648576725E+03  0.17300000000E+03 0. -1.
<mgrwt>
<rscale>  2 0.19615431E+03</rscale>
<asrwt>0</asrwt>
<pdfrwt beam="1">  1       21 0.60418164E-01 0.19615431E+03</pdfrwt>
<pdfrwt beam="2">  1       21 0.23984705E-01 0.19615431E+03</pdfrwt>
<totfact> 0.41770893E+04</totfact>
</mgrwt>
</event>
<event>
 4    1  0.4365842E+000  0.1747250E+03  0.7546771E-02  0.1173008E+00
         21   -1    0    0  501  502  0.00000000000E+00  0.00000000000E+00  0.65329477849E+03  0.65329477849E+03  0.00000000000E+00 0.  1.
         21   -1    0    0  502  503 -0.00000000000E+00 -0.00000000000E+00 -0.48165273698E+02  0.48165273698E+02  0.00000000000E+00 0.  1.
          6    1    1    2  501    0 -0.20494771563E+02 -0.13409091543E+02  0.24203253655E+03  0.29851061647E+03  0.17300000000E+03 0. -1.
         -6    1    1    2    0  503  0.20494771563E+02  0.13409091543E+02  0.36309696824E+03  0.40294943572E+03  0.17300000000E+03 0. -1.
<mgrwt>
<rscale>  2 0.17472504E+03</rscale>
<asrwt>0</asrwt>
<pdfrwt beam="1">  1       21 0.10050688E+00 0.17472504E+03</pdfrwt>
<pdfrwt beam="2">  1       21 0.74100426E-02 0.17472504E+03</pdfrwt>
<totfact> 0.11199545E+05</totfact>
</mgrwt>
</event>
<event>
 4    1  0.4365842E+000  0.1924034E+03  0.7546771E-02  0.1156311E+00
         21   -1    0    0  503  502  0.00000000000E+00  0.00000000000E+00  0.28799954860E+02  0.28799954860E+02  0.00000000000E+00 0.  1.
         21   -1    0    0  501  503 -0.00000000000E+00 -0.00000000000E+00 -0.12862765056E+04  0.12862765056E+04  0.00000000000E+00 0. -1.
          6    1    1    2  501    0 -0.16710429384E+02  0.82527678223E+02 -0.64604020930E+03  0.67408234524E+03  0.17300000000E+03 0.  1.
         -6    1    1    2    0  502  0.16710429384E+02 -0.82527678223E+02 -0.61143634148E+03  0.64099411527E+03  0.17300000000E+03 0. -1.
<mgrwt>
<rscale>  2 0.19240337E+03</rscale>
<asrwt>0</asrwt>
<pdfrwt beam="1">  1       21 0.44307611E-02 0.19240337E+03</pdfrwt>
<pdfrwt beam="2">  1       21 0.19788875E+00 0.19240337E+03</pdfrwt>
<totfact> 0.45720633E+04</totfact>
</mgrwt>
</event>
<event>
 4    1  0.4365842E+000  0.1910173E+03  0.7546771E-02  0.1157547E+00
         21   -1    0    0  501  502  0.00000000000E+00  0.00000000000E+00  0.38242106981E+03  0.38242106981E+03  0.00000000000E+00 0.  1.
         21   -1    0    0  502  503 -0.00000000000E+00 -0.00000000000E+00 -0.96307416235E+02  0.96307416235E+02  0.00000000000E+00 0.  1.
          6    1    1    2  501    0 -0.80797568192E+02 -0.55084939940E+01  0.16613609135E+03  0.25315764136E+03  0.17300000000E+03 0.  1.
         -6    1    1    2    0  503  0.80797568192E+02  0.55084939940E+01  0.11997756223E+03  0.22557084468E+03  0.17300000000E+03 0.  1.
<mgrwt>
<rscale>  2 0.19101725E+03</rscale>
<asrwt>0</asrwt>
<pdfrwt beam="1">  1       21 0.58834010E-01 0.19101725E+03</pdfrwt>
<pdfrwt beam="2">  1       21 0.14816526E-01 0.19101725E+03</pdfrwt>
<totfact> 0.10848734E+05</totfact>
</mgrwt>
</event>
<event>
 4    1  0.4365842E+000  0.2343096E+03  0.7546771E-02  0.1123643E+00
         21   -1    0    0  503  502  0.00000000000E+00  0.00000000000E+00  0.10937132514E+04  0.10937132514E+04  0.00000000000E+00 0.  1.
         21   -1    0    0  501  503 -0.00000000000E+00 -0.00000000000E+00 -0.50322779453E+02  0.50322779453E+02  0.00000000000E+00 0.  1.
          6    1    1    2  501    0 -0.11644295007E+03  0.10683168369E+03  0.55030909871E+03  0.59811459887E+03  0.17300000000E+03 0.  1.
         -6    1    1    2    0  502  0.11644295007E+03 -0.10683168369E+03  0.49308137323E+03  0.54592143197E+03  0.17300000000E+03 0.  1.
<mgrwt>
<rscale>  2 0.23430956E+03</rscale>
<asrwt>0</asrwt>
<pdfrwt beam="1">  1       21 0.16826356E+00 0.23430956E+03</pdfrwt>
<pdfrwt beam="2">  1       21 0.77419669E-02 0.23430956E+03</pdfrwt>
<totfact> 0.27164206E+04</totfact>
</mgrwt>
</event>
<event>
 4    1  0.4365842E+000  0.1975892E+03  0.7546771E-02  0.1151789E+00
         21   -1    0    0  503  502  0.00000000000E+00  0.00000000000E+00  0.16042148823E+04  0.16042148823E+04  0.00000000000E+00 0. -1.
         21   -1    0    0  501  503 -0.00000000000E+00 -0.00000000000E+00 -0.27034272025E+02  0.27034272025E+02  0.00000000000E+00 0. -1.
          6    1    1    2  501    0  0.21379000069E+02 -0.93034479343E+02  0.53095197644E+03  0.56652579578E+03  0.17300000000E+03 0. -1.
         -6    1    1    2    0  502 -0.21379000069E+02  0.93034479343E+02  0.10462286338E+04  0.10647233585E+04  0.17300000000E+03 0. -1.
<mgrwt>
<rscale>  2 0.19758916E+03</rscale>
<asrwt>0</asrwt>
<pdfrwt beam="1">  1       21 0.24680222E+00 0.19758916E+03</pdfrwt>
<pdfrwt beam="2">  1       21 0.41591200E-02 0.19758916E+03</pdfrwt>
<totfact> 0.25381813E+04</totfact>
</mgrwt>
</event>
<event>
 4    1  0.4365842E+000  0.1967858E+03  0.7546771E-02  0.1152480E+00
         21   -1    0    0  501  502  0.00000000000E+00  0.00000000000E+00  0.34793962129E+03  0.34793962129E+03  0.00000000000E+00 0. -1.
         21   -1    0    0  502  503 -0.00000000000E+00 -0.00000000000E+00 -0.12194509300E+03  0.12194509300E+03  0.00000000000E+00 0. -1.
          6    1    1    2  501    0  0.26751113559E+02  0.89888963697E+02  0.18242202316E+03  0.26833270842E+03  0.17300000000E+03 0. -1.
         -6    1    1    2    0  503 -0.26751113559E+02 -0.89888963697E+02  0.43572505129E+02  0.20155200588E+03  0.17300000000E+03 0. -1.
<mgrwt>
<rscale>  2 0.19678579E+03</rscale>
<asrwt>0</asrwt>
<pdfrwt beam="1">  1       21 0.53529172E-01 0.19678579E+03</pdfrwt>
<pdfrwt beam="2">  1       21 0.18760784E-01 0.19678579E+03</pdfrwt>
<totfact> 0.85737473E+04</totfact>
</mgrwt>
</event>
<event>
 4    1  0.4365842E+000  0.2475423E+03  0.7546771E-02  0.1114868E+00
         21   -1    0    0  501  502  0.00000000000E+00  0.00000000000E+00  0.13331254868E+03  0.13331254868E+03  0.00000000000E+00 0. -1.
         21   -1    0    0  502  503 -0.00000000000E+00 -0.00000000000E+00 -0.47880597013E+03  0.47880597013E+03  0.00000000000E+00 0. -1.
          6    1    1    2  501    0  0.16347659191E+03 -0.67996999265E+02 -0.11152979543E+03  0.27150705936E+03  0.17300000000E+03 0. -1.
         -6    1    1    2    0  503 -0.16347659191E+03  0.67996999265E+02 -0.23396362602E+03  0.34061145945E+03  0.17300000000E+03 0. -1.
<mgrwt>
<rscale>  2 0.24754230E+03</rscale>
<asrwt>0</asrwt>
<pdfrwt beam="1">  1       21 0.20509623E-01 0.24754230E+03</pdfrwt>
<pdfrwt beam="2">  1       21 0.73662456E-01 0.24754230E+03</pdfrwt>
<totfact> 0.35476617E+04</totfact>
</mgrwt>
</event>
<event>
 4    1  0.4365842E+000  0.2166280E+03  0.7546771E-02  0.1136422E+00
         21   -1    0    0  501  502  0.00000000000E+00  0.00000000000E+00  0.47905411992E+03  0.47905411992E+03  0.00000000000E+00 0. -1.
         21   -1    0    0  502  503 -0.00000000000E+00 -0.00000000000E+00 -0.10026713814E+03  0.10026713814E+03  0.00000000000E+00 0.  1.
          6    1    1    2  501    0  0.93228202724E+02 -0.91143872962E+02  0.14544610570E+03  0.26092579984E+03  0.17300000000E+03 0.  1.
         -6    1    1    2    0  503 -0.93228202724E+02  0.91143872962E+02  0.23334087608E+03  0.31839545821E+03  0.17300000000E+03 0. -1.
<mgrwt>
<rscale>  2 0.21662803E+03</rscale>
<asrwt>0</asrwt>
<pdfrwt beam="1">  1       21 0.73700633E-01 0.21662803E+03</pdfrwt>
<pdfrwt beam="2">  1       21 0.15425714E-01 0.21662803E+03</pdfrwt>
<totfact> 0.60942338E+04</totfact>
</mgrwt>
</event>
<event>
 4    1  0.4365842E+000  0.2281389E+03  0.7546771E-02  0.1127957E+00
         21   -1    0    0  503  502  0.00000000000E+00  0.00000000000E+00  0.50105037342E+03  0.50105037342E+03  0.00000000000E+00 0. -1.
         21   -1    0    0  501  503 -0.00000000000E+00 -0.00000000000E+00 -0.13244290995E+03  0.13244290995E+03  0.00000000000E+00 0.  1.
          6    1    1    2  501    0 -0.67525219630E+02  0.13250926799E+03  0.37199400646E+02  0.23115180466E+03  0.17300000000E+03 0.  1.
         -6    1    1    2    0  502  0.67525219630E+02 -0.13250926799E+03  0.33140806282E+03  0.40234147871E+03  0.17300000000E+03 0. -1.
<mgrwt>
<rscale>  2 0.22813891E+03</rscale>
<asrwt>0</asrwt>
<pdfrwt beam="1">  1       21 0.77084672E-01 0.22813891E+03</pdfrwt>
<pdfrwt beam="2">  1       21 0.20375833E-01 0.22813891E+03</pdfrwt>
<totfact> 0.32721658E+04</totfact>
</mgrwt>
</event>
<event>
 4    1  0.4365842E+000  0.2060497E+03  0.7546771E-02  0.1144733E+00
         21   -1    0    0  503  502  0.00000000000E+00  0.00000000000E+00  0.93047391994E+02  0.93047391994E+02  0.00000000000E+00 0. -1.
         21   -1    0    0  501  503 -0.00000000000E+00 -0.00000000000E+00 -0.46189964618E+03  0.46189964618E+03  0.00000000000E+00 0. -1.
          6    1    1    2  501    0 -0.60875975975E+02 -0.93923320951E+02 -0.15384416783E+03  0.25714685035E+03  0.17300000000E+03 0. -1.
         -6    1    1    2    0  502  0.60875975975E+02  0.93923320951E+02 -0.21500808635E+03  0.29780018782E+03  0.17300000000E+03 0. -1.
<mgrwt>
<rscale>  2 0.20604969E+03</rscale>
<asrwt>0</asrwt>
<pdfrwt beam="1">  1       21 0.14314983E-01 0.20604969E+03</pdfrwt>
<pdfrwt beam="2">  1       21 0.71061484E-01 0.20604969E+03</pdfrwt>
<totfact> 0.76090981E+04</totfact>
</mgrwt>
</event>
<event>
 4    1  0.4365842E+000  0.2018303E+03  0.7546771E-02  0.1148204E+00
         21   -1    0    0  501  502  0.00000000000E+00  0.00000000000E+00  0.10927654233E+04  0.10927654233E+04  0.00000000000E+00 0.  1.
         21   -1    0    0  502  503 -0.00000000000E+00 -0.00000000000E+00 -0.37521463787E+02  0.37521463787E+02  0.00000000000E+00 0.  1.
          6    1    1    2  501    0 -0.10371700742E+03  0.70188198052E+01  0.48204474727E+03  0.52259221179E+03  0.17300000000E+03 0.  1.
         -6    1    1    2    0  503  0.10371700742E+03 -0.70188198052E+01  0.57319921222E+03  0.60769467527E+03  0.17300000000E+03 0.  1.
<mgrwt>
<rscale>  2 0.20183033E+03</rscale>
<asrwt>0</asrwt>
<pdfrwt beam="1">  1       21 0.16811773E+00 0.20183033E+03</pdfrwt>
<pdfrwt beam="2">  1       21 0.57725337E-02 0.20183033E+03</pdfrwt>
<totfact> 0.46086667E+04</totfact>
</mgrwt>
</event>
<event>
 4    1  0.4365842E+000  0.3024685E+03  0.7546771E-02  0.1084013E+00
         21   -1    0    0  501  502  0.00000000000E+00  0.00000000000E+00  0.43679429962E+03  0.43679429962E+03  0.00000000000E+00 0.  1.
         21   -1    0    0  502  503 -0.00000000000E+00 -0.00000000000E+00 -0.25391811675E+03  0.25391811675E+03  0.00000000000E+00 0.  1.
          6    1    1    2  501    0 -0.24606554902E+03  0.31779295340E+02  0.23596141824E+03  0.38362086612E+03  0.17300000000E+03 0.  1.
         -6    1    1    2    0  503  0.24606554902E+03 -0.31779295340E+02 -0.53085235365E+02  0.30709155026E+03  0.17300000000E+03 0.  1.
<mgrwt>
<rscale>  2 0.30246847E+03</rscale>
<asrwt>0</asrwt>
<pdfrwt beam="1">  1       21 0.67199123E-01 0.30246847E+03</pdfrwt>
<pdfrwt beam="2">  1       21 0.39064326E-01 0.30246847E+03</pdfrwt>
<totfact> 0.12065437E+04</totfact>
</mgrwt>
</event>
<event>
 4    1  0.4365842E+000  0.2159865E+03  0.7546771E-02  0.1136911E+00
         21   -1    0    0  501  502  0.00000000000E+00  0.00000000000E+00  0.10577868446E+03  0.10577868446E+03  0.00000000000E+00 0. -1.
         21   -1    0    0  502  503 -0.00000000000E+00 -0.00000000000E+00 -0.44714903036E+03  0.44714903036E+03  0.00000000000E+00 0. -1.
          6    1    1    2  501    0 -0.12635943263E+03  0.27467340951E+02 -0.13830890636E+03  0.25647517348E+03  0.17300000000E+03 0. -1.
         -6    1    1    2    0  503  0.12635943263E+03 -0.27467340951E+02 -0.20306143955E+03  0.29645254134E+03  0.17300000000E+03 0. -1.
<mgrwt>
<rscale>  2 0.21598648E+03</rscale>
<asrwt>0</asrwt>
<pdfrwt beam="1">  1       21 0.16273643E-01 0.21598648E+03</pdfrwt>
<pdfrwt beam="2">  1       21 0.68792160E-01 0.21598648E+03</pdfrwt>
<totfact> 0.64390748E+04</totfact>
</mgrwt>
</event>
<event>
 4    1  0.4365842E+000  0.2202935E+03  0.7546771E-02  0.1133664E+00
         21   -1    0    0  503  502  0.00000000000E+00  0.00000000000E+00  0.36797584574E+03  0.36797584574E+03  0.00000000000E+00 0.  1.
         21   -1    0    0  501  503 -0.00000000000E+00 -0.00000000000E+00 -0.21667219881E+03  0.21667219881E+03  0.00000000000E+00 0.  1.
          6    1    1    2  501    0  0.13981806595E+02 -0.13566402422E+03 -0.10721584809E+03  0.24499889074E+03  0.17300000000E+03 0.  1.
         -6    1    1    2    0  502 -0.13981806595E+02  0.13566402422E+03  0.25851949502E+03  0.33964915382E+03  0.17300000000E+03 0.  1.
<mgrwt>
<rscale>  2 0.22029348E+03</rscale>
<asrwt>0</asrwt>
<pdfrwt beam="1">  1       21 0.56611668E-01 0.22029348E+03</pdfrwt>
<pdfrwt beam="2">  1       21 0.33334185E-01 0.22029348E+03</pdfrwt>
<totfact> 0.25039085E+04</totfact>
</mgrwt>
</event>
<event>
 4    1  0.4365842E+000  0.2119438E+03  0.7546771E-02  0.1140036E+00
         21   -1    0    0  503  502  0.00000000000E+00  0.00000000000E+00  0.37594951242E+03  0.37594951242E+03  0.00000000000E+00 0. -1.
         21   -1    0    0  501  503 -0.00000000000E+00 -0.00000000000E+00 -0.18562456728E+03  0.18562456728E+03  0.00000000000E+00 0. -1.
          6    1    1    2  501    0  0.12936128192E+02  0.12175313528E+03 -0.72444231839E+02  0.22398289241E+03  0.17300000000E+03 0. -1.
         -6    1    1    2    0  502 -0.12936128192E+02 -0.12175313528E+03  0.26276917698E+03  0.33759118729E+03  0.17300000000E+03 0. -1.
<mgrwt>
<rscale>  2 0.21194379E+03</rscale>
<asrwt>0</asrwt>
<pdfrwt beam="1">  1       21 0.57838386E-01 0.21194379E+03</pdfrwt>
<pdfrwt beam="2">  1       21 0.28557626E-01 0.21194379E+03</pdfrwt>
<totfact> 0.32533166E+04</totfact>
</mgrwt>
</event>
<event>
 4    1  0.4365842E+000  0.2560970E+03  0.7546771E-02  0.1109511E+00
         21   -1    0    0  501  502  0.00000000000E+00  0.00000000000E+00  0.88085891363E+03  0.88085891363E+03  0.00000000000E+00 0. -1.
         21   -1    0    0  502  503 -0.00000000000E+00 -0.00000000000E+00 -0.29588599052E+03  0.29588599052E+03  0.00000000000E+00 0.  1.
          6    1    1    2  501    0 -0.12709688871E+03  0.13965327869E+03  0.80147485078E+03  0.84139621689E+03  0.17300000000E+03 0. -1.
         -6    1    1    2    0  503  0.12709688871E+03 -0.13965327869E+03 -0.21650192766E+03  0.33534868726E+03  0.17300000000E+03 0.  1.
<mgrwt>
<rscale>  2 0.25609697E+03</rscale>
<asrwt>0</asrwt>
<pdfrwt beam="1">  1       21 0.13551675E+00 0.25609697E+03</pdfrwt>
<pdfrwt beam="2">  1       21 0.45520922E-01 0.25609697E+03</pdfrwt>
<totfact> 0.17062268E+03</totfact>
</mgrwt>
</event>
<event>
 4    1  0.4365842E+000  0.1971560E+03  0.7546771E-02  0.1152161E+00
         21   -1    0    0  501  502  0.00000000000E+00  0.00000000000E+00  0.13094260544E+03  0.13094260544E+03  0.00000000000E+00 0.  1.
         21   -1    0    0  502  503 -0.00000000000E+00 -0.00000000000E+00 -0.63052377104E+03  0.63052377104E+03  0.00000000000E+00 0. -1.
          6    1    1    2  501    0  0.15939343950E+02 -0.93206442014E+02  0.27177731959E+02  0.19902043270E+03  0.17300000000E+03 0.  1.
         -6    1    1    2    0  503 -0.15939343950E+02  0.93206442014E+02 -0.52675889756E+03  0.56244594378E+03  0.17300000000E+03 0. -1.
<mgrwt>
<rscale>  2 0.19715604E+03</rscale>
<asrwt>0</asrwt>
<pdfrwt beam="1">  1       21 0.20145017E-01 0.19715604E+03</pdfrwt>
<pdfrwt beam="2">  1       21 0.97003655E-01 0.19715604E+03</pdfrwt>
<totfact> 0.20032123E+04</totfact>
</mgrwt>
</event>
<event>
 4    1  0.4365842E+000  0.1876783E+03  0.7546771E-02  0.1160572E+00
         21   -1    0    0  503  502  0.00000000000E+00  0.00000000000E+00  0.31295130942E+02  0.31295130942E+02  0.00000000000E+00 0. -1.
         21   -1    0    0  501  503 -0.00000000000E+00 -0.00000000000E+00 -0.13247100298E+04  0.13247100298E+04  0.00000000000E+00 0. -1.
          6    1    1    2  501    0  0.48635970754E+02  0.54117338723E+02 -0.90961921387E+03  0.92877890708E+03  0.17300000000E+03 0. -1.
         -6    1    1    2    0  502 -0.48635970754E+02 -0.54117338723E+02 -0.38379568501E+03  0.42722625368E+03  0.17300000000E+03 0. -1.
<mgrwt>
<rscale>  2 0.18767830E+03</rscale>
<asrwt>0</asrwt>
<pdfrwt beam="1">  1       21 0.48146363E-02 0.18767830E+03</pdfrwt>
<pdfrwt beam="2">  1       21 0.20380151E+00 0.18767830E+03</pdfrwt>
<totfact> 0.36536757E+04</totfact>
</mgrwt>
</event>
<event>
 4    1  0.4365842E+000  0.1870659E+03  0.7546771E-02  0.1161135E+00
         21   -1    0    0  503  502  0.00000000000E+00  0.00000000000E+00  0.34538820059E+02  0.34538820059E+02  0.00000000000E+00 0.  1.
         21   -1    0    0  501  503 -0.00000000000E+00 -0.00000000000E+00 -0.10754278032E+04  0.10754278032E+04  0.00000000000E+00 0.  1.
          6    1    1    2  501    0 -0.27271797271E+02 -0.65733682918E+02 -0.65397762815E+03  0.68020614972E+03  0.17300000000E+03 0.  1.
         -6    1    1    2    0  502  0.27271797271E+02  0.65733682918E+02 -0.38691135501E+03  0.42976047356E+03  0.17300000000E+03 0.  1.
<mgrwt>
<rscale>  2 0.18706595E+03</rscale>
<asrwt>0</asrwt>
<pdfrwt beam="1">  1       21 0.53136643E-02 0.18706595E+03</pdfrwt>
<pdfrwt beam="2">  1       21 0.16545044E+00 0.18706595E+03</pdfrwt>
<totfact> 0.55933546E+04</totfact>
</mgrwt>
</event>
<event>
 4    1  0.4365842E+000  0.2570486E+03  0.7546771E-02  0.1108930E+00
         21   -1    0    0  503  502  0.00000000000E+00  0.00000000000E+00  0.49108595616E+03  0.49108595616E+03  0.00000000000E+00 0. -1.
         21   -1    0    0  501  503 -0.00000000000E+00 -0.00000000000E+00 -0.13723353920E+03  0.13723353920E+03  0.00000000000E+00 0.  1.
          6    1    1    2  501    0  0.53957152617E+00  0.19011752570E+03  0.13296737093E+03  0.28940332833E+03  0.17300000000E+03 0. -1.
         -6    1    1    2    0  502 -0.53957152617E+00 -0.19011752570E+03  0.22088504603E+03  0.33891616703E+03  0.17300000000E+03 0. -1.
<mgrwt>
<rscale>  2 0.25704856E+03</rscale>
<asrwt>0</asrwt>
<pdfrwt beam="1">  1       21 0.75551684E-01 0.25704856E+03</pdfrwt>
<pdfrwt beam="2">  1       21 0.21112852E-01 0.25704856E+03</pdfrwt>
<totfact> 0.31600425E+04</totfact>
</mgrwt>
</event>
