<event>
 4    1  0.4394643E+000  0.1878502E+03  0.7818608E-02  0.1160415E+00
         21   -1    0    0  501  502  0.00000000000E+00  0.00000000000E+00  0.61513578690E+03  0.61513578690E+03  0.00000000000E+00 0.  1.
         21   -1    0    0  502  503 -0.00000000000E+00 -0.00000000000E+00 -0.94173930157E+02  0.94173930157E+02  0.00000000000E+00 0.  1.
          6    1    1    2  501    0 -0.38179142014E+02  0.65161723843E+02  0.48220508604E+03  0.51750308418E+03  0.17200000000E+03 0.  1.
         -6    1    1    2    0  503  0.38179142014E+02 -0.65161723843E+02  0.38756770708E+02  0.19180663287E+03  0.17200000000E+03 0.  1.
</event>
<event>
 4    1  0.4394643E+000  0.2179072E+03  0.7818608E-02  0.1135453E+00
         21   -1    0    0  501  502  0.00000000000E+00  0.00000000000E+00  0.11962375884E+03  0.11962375884E+03  0.00000000000E+00 0. -1.
         21   -1    0    0  502  503 -0.00000000000E+00 -0.00000000000E+00 -0.40845018053E+03  0.40845018053E+03  0.00000000000E+00 0.  1.
          6    1    1    2  501    0 -0.11142788333E+03 -0.74049867284E+02 -0.10009111366E+03  0.23979530242E+03  0.17200000000E+03 0. -1.
         -6    1    1    2    0  503  0.11142788333E+03  0.74049867284E+02 -0.18873530803E+03  0.28827863695E+03  0.17200000000E+03 0.  1.
</event>
<event>
 4    1  0.4394643E+000  0.1938331E+03  0.7818608E-02  0.1155049E+00
         21   -1    0    0  503  502  0.00000000000E+00  0.00000000000E+00  0.39292172183E+03  0.39292172183E+03  0.00000000000E+00 0.  1.
         21   -1    0    0  501  503 -0.00000000000E+00 -0.00000000000E+00 -0.11263264674E+03  0.11263264674E+03  0.00000000000E+00 0.  1.
          6    1    1    2  501    0  0.88938946847E+02  0.87831781278E+01  0.41904562419E+02  0.19831105072E+03  0.17200000000E+03 0.  1.
         -6    1    1    2    0  502 -0.88938946847E+02 -0.87831781278E+01  0.23838451268E+03  0.30724331786E+03  0.17200000000E+03 0.  1.
</event>
<event>
 4    1  0.4394643E+000  0.3441579E+03  0.7818608E-02  0.1065039E+00
         21   -1    0    0  501  502  0.00000000000E+00  0.00000000000E+00  0.64897013009E+02  0.64897013009E+02  0.00000000000E+00 0. -1.
         21   -1    0    0  502  503 -0.00000000000E+00 -0.00000000000E+00 -0.18321500845E+04  0.18321500845E+04  0.00000000000E+00 0. -1.
          6    1    1    2  501    0 -0.24540448023E+02 -0.29708322131E+03 -0.94239240332E+03  0.10032687157E+04  0.17200000000E+03 0. -1.
         -6    1    1    2    0  503  0.24540448023E+02  0.29708322131E+03 -0.82486066813E+03  0.89377838182E+03  0.17200000000E+03 0. -1.
</event>
<event>
 4    1  0.4394643E+000  0.1801377E+03  0.7818608E-02  0.1167670E+00
         21   -1    0    0  501  502  0.00000000000E+00  0.00000000000E+00  0.17997753074E+03  0.17997753074E+03  0.00000000000E+00 0. -1.
         21   -1    0    0  502  503 -0.00000000000E+00 -0.00000000000E+00 -0.28065900460E+03  0.28065900460E+03  0.00000000000E+00 0. -1.
          6    1    1    2  501    0 -0.31688702713E+02  0.43144313610E+02  0.87386930589E+02  0.20021508763E+03  0.17200000000E+03 0. -1.
         -6    1    1    2    0  503  0.31688702713E+02 -0.43144313610E+02 -0.18806840445E+03  0.26042144771E+03  0.17200000000E+03 0. -1.
</event>
<event>
 4    1  0.4394643E+000  0.2064999E+03  0.7818608E-02  0.1144368E+00
         21   -1    0    0  503  502  0.00000000000E+00  0.00000000000E+00  0.18747474926E+04  0.18747474926E+04  0.00000000000E+00 0.  1.
         21   -1    0    0  501  503 -0.00000000000E+00 -0.00000000000E+00 -0.74843269764E+02  0.74843269764E+02  0.00000000000E+00 0. -1.
          6    1    1    2  501    0  0.34304445690E+02  0.10900197289E+03  0.86660476157E+02  0.22394700984E+03  0.17200000000E+03 0. -1.
         -6    1    1    2    0  502 -0.34304445690E+02 -0.10900197289E+03  0.17132437467E+04  0.17256437525E+04  0.17200000000E+03 0.  1.
</event>
<event>
 4    1  0.4394643E+000  0.2222870E+03  0.7818608E-02  0.1132189E+00
         21   -1    0    0  503  502  0.00000000000E+00  0.00000000000E+00  0.13053446709E+04  0.13053446709E+04  0.00000000000E+00 0.  1.
         21   -1    0    0  501  503 -0.00000000000E+00 -0.00000000000E+00 -0.42327640178E+02  0.42327640178E+02  0.00000000000E+00 0. -1.
          6    1    1    2  501    0  0.11288238401E+03  0.84172788269E+02  0.41242436229E+03  0.46851397579E+03  0.17200000000E+03 0.  1.
         -6    1    1    2    0  502 -0.11288238401E+03 -0.84172788269E+02  0.85059266840E+03  0.87915833525E+03  0.17200000000E+03 0.  1.
</event>
<event>
 4    1  0.4394643E+000  0.2395456E+03  0.7818608E-02  0.1120096E+00
         21   -1    0    0  503  502  0.00000000000E+00  0.00000000000E+00  0.72236772836E+02  0.72236772836E+02  0.00000000000E+00 0.  1.
         21   -1    0    0  501  503 -0.00000000000E+00 -0.00000000000E+00 -0.81666109409E+03  0.81666109409E+03  0.00000000000E+00 0. -1.
          6    1    1    2  501    0  0.55528623583E+02  0.15720892990E+03 -0.44565580281E+03  0.50595569989E+03  0.17200000000E+03 0.  1.
         -6    1    1    2    0  502 -0.55528623583E+02 -0.15720892990E+03 -0.29876851845E+03  0.38294216704E+03  0.17200000000E+03 0. -1.
</event>
<event>
 4    1  0.4394643E+000  0.2121023E+03  0.7818608E-02  0.1139912E+00
         21   -1    0    0  503  502  0.00000000000E+00  0.00000000000E+00  0.30177541290E+03  0.30177541290E+03  0.00000000000E+00 0.  1.
         21   -1    0    0  501  503 -0.00000000000E+00 -0.00000000000E+00 -0.33646499476E+03  0.33646499476E+03  0.00000000000E+00 0.  1.
          6    1    1    2  501    0 -0.97165717751E+02 -0.77215472401E+02 -0.25549811596E+03  0.33206429068E+03  0.17200000000E+03 0.  1.
         -6    1    1    2    0  502  0.97165717751E+02  0.77215472401E+02  0.22080853409E+03  0.30617611698E+03  0.17200000000E+03 0.  1.
</event>
<event>
 4    1  0.4394643E+000  0.2262879E+03  0.7818608E-02  0.1129280E+00
         21   -1    0    0  503  502  0.00000000000E+00  0.00000000000E+00  0.38425273412E+03  0.38425273412E+03  0.00000000000E+00 0. -1.
         21   -1    0    0  501  503 -0.00000000000E+00 -0.00000000000E+00 -0.13328376790E+03  0.13328376790E+03  0.00000000000E+00 0.  1.
          6    1    1    2  501    0 -0.74587584032E+02  0.12672368382E+03  0.12216013618E+03  0.25715617551E+03  0.17200000000E+03 0. -1.
         -6    1    1    2    0  502  0.74587584032E+02 -0.12672368382E+03  0.12880883004E+03  0.26038032650E+03  0.17200000000E+03 0.  1.
</event>
<event>
 4    1  0.4394643E+000  0.2474265E+03  0.7818608E-02  0.1114942E+00
         21   -1    0    0  501  502  0.00000000000E+00  0.00000000000E+00  0.46601500013E+03  0.46601500013E+03  0.00000000000E+00 0. -1.
         21   -1    0    0  502  503 -0.00000000000E+00 -0.00000000000E+00 -0.13649771206E+03  0.13649771206E+03  0.00000000000E+00 0.  1.
          6    1    1    2  501    0 -0.65280379587E+02  0.16545196455E+03  0.10636283354E+03  0.26931938825E+03  0.17200000000E+03 0.  1.
         -6    1    1    2    0  503  0.65280379587E+02 -0.16545196455E+03  0.22315445453E+03  0.33319332393E+03  0.17200000000E+03 0. -1.
</event>
<event>
 4    1  0.4394643E+000  0.1847155E+03  0.7818608E-02  0.1163316E+00
         21   -1    0    0  501  502  0.00000000000E+00  0.00000000000E+00  0.65570841304E+03  0.65570841304E+03  0.00000000000E+00 0.  1.
         21   -1    0    0  502  503 -0.00000000000E+00 -0.00000000000E+00 -0.74928682742E+02  0.74928682742E+02  0.00000000000E+00 0.  1.
          6    1    1    2  501    0  0.48210560380E+02  0.47027230961E+02  0.49232182065E+03  0.52583323751E+03  0.17200000000E+03 0.  1.
         -6    1    1    2    0  503 -0.48210560380E+02 -0.47027230961E+02  0.88457909653E+02  0.20480385827E+03  0.17200000000E+03 0.  1.
</event>
<event>
 4    1  0.4394643E+000  0.3102216E+03  0.7818608E-02  0.1080240E+00
         21   -1    0    0  503  502  0.00000000000E+00  0.00000000000E+00  0.11039510356E+04  0.11039510356E+04  0.00000000000E+00 0.  1.
         21   -1    0    0  501  503 -0.00000000000E+00 -0.00000000000E+00 -0.94362758250E+02  0.94362758250E+02  0.00000000000E+00 0. -1.
          6    1    1    2  501    0 -0.82958277042E+02  0.24448188216E+03  0.33943723118E+03  0.45984247341E+03  0.17200000000E+03 0. -1.
         -6    1    1    2    0  502  0.82958277042E+02 -0.24448188216E+03  0.67015104614E+03  0.73847132042E+03  0.17200000000E+03 0.  1.
</event>
<event>
 4    1  0.4394643E+000  0.2080096E+03  0.7818608E-02  0.1143152E+00
         21   -1    0    0  501  502  0.00000000000E+00  0.00000000000E+00  0.38253874202E+02  0.38253874202E+02  0.00000000000E+00 0.  1.
         21   -1    0    0  502  503 -0.00000000000E+00 -0.00000000000E+00 -0.12139208995E+04  0.12139208995E+04  0.00000000000E+00 0. -1.
          6    1    1    2  501    0  0.55857763841E+02 -0.10278078606E+03 -0.42427366104E+03  0.47252102516E+03  0.17200000000E+03 0.  1.
         -6    1    1    2    0  503 -0.55857763841E+02  0.10278078606E+03 -0.75139336425E+03  0.77965374854E+03  0.17200000000E+03 0. -1.
</event>
<event>
 4    1  0.4394643E+000  0.1803164E+03  0.7818608E-02  0.1167497E+00
         21   -1    0    0  501  502  0.00000000000E+00  0.00000000000E+00  0.36604918284E+03  0.36604918284E+03  0.00000000000E+00 0.  1.
         21   -1    0    0  502  503 -0.00000000000E+00 -0.00000000000E+00 -0.24442979554E+03  0.24442979554E+03  0.00000000000E+00 0.  1.
          6    1    1    2  501    0 -0.52537233866E+02  0.13032497140E+02  0.30435307022E+03  0.35375810701E+03  0.17200000000E+03 0.  1.
         -6    1    1    2    0  503  0.52537233866E+02 -0.13032497140E+02 -0.18273368292E+03  0.25672087137E+03  0.17200000000E+03 0.  1.
</event>
<event>
 4    1  0.4394643E+000  0.2054390E+03  0.7818608E-02  0.1145230E+00
         21   -1    0    0  503  502  0.00000000000E+00  0.00000000000E+00  0.80763934933E+02  0.80763934933E+02  0.00000000000E+00 0.  1.
         21   -1    0    0  501  503 -0.00000000000E+00 -0.00000000000E+00 -0.57926462395E+03  0.57926462395E+03  0.00000000000E+00 0.  1.
          6    1    1    2  501    0 -0.10395259088E+03  0.42603213269E+02 -0.14601038249E+03  0.25204008952E+03  0.17200000000E+03 0.  1.
         -6    1    1    2    0  502  0.10395259088E+03 -0.42603213269E+02 -0.35249030653E+03  0.40798846936E+03  0.17200000000E+03 0.  1.
</event>
<event>
 4    1  0.4394643E+000  0.2032614E+03  0.7818608E-02  0.1147016E+00
         21   -1    0    0  501  502  0.00000000000E+00  0.00000000000E+00  0.34948069866E+03  0.34948069866E+03  0.00000000000E+00 0.  1.
         21   -1    0    0  502  503 -0.00000000000E+00 -0.00000000000E+00 -0.14514882544E+03  0.14514882544E+03  0.00000000000E+00 0.  1.
          6    1    1    2  501    0 -0.56364526896E+02 -0.92489024081E+02  0.20869347082E+03  0.29132137620E+03  0.17200000000E+03 0.  1.
         -6    1    1    2    0  503  0.56364526896E+02  0.92489024081E+02 -0.43615976018E+01  0.20330814790E+03  0.17200000000E+03 0.  1.
</event>
<event>
 4    1  0.4394643E+000  0.2288407E+03  0.7818608E-02  0.1127458E+00
         21   -1    0    0  501  502  0.00000000000E+00  0.00000000000E+00  0.24871462667E+03  0.24871462667E+03  0.00000000000E+00 0. -1.
         21   -1    0    0  502  503 -0.00000000000E+00 -0.00000000000E+00 -0.28181186124E+03  0.28181186124E+03  0.00000000000E+00 0.  1.
          6    1    1    2  501    0  0.97820354427E+02 -0.11495760488E+03  0.11683768158E+03  0.25694185431E+03  0.17200000000E+03 0.  1.
         -6    1    1    2    0  503 -0.97820354427E+02  0.11495760488E+03 -0.14993491615E+03  0.27358463360E+03  0.17200000000E+03 0.  1.
</event>
<event>
 4    1  0.4394643E+000  0.2449792E+03  0.7818608E-02  0.1116520E+00
         21   -1    0    0  503  502  0.00000000000E+00  0.00000000000E+00  0.12101320700E+03  0.12101320700E+03  0.00000000000E+00 0.  1.
         21   -1    0    0  501  503 -0.00000000000E+00 -0.00000000000E+00 -0.54182328438E+03  0.54182328438E+03  0.00000000000E+00 0. -1.
          6    1    1    2  501    0  0.81737593510E+02  0.15410966903E+03 -0.30685299701E+03  0.39264944423E+03  0.17200000000E+03 0. -1.
         -6    1    1    2    0  502 -0.81737593510E+02 -0.15410966903E+03 -0.11395708037E+03  0.27018704715E+03  0.17200000000E+03 0.  1.
</event>
<event>
 4    1  0.4394643E+000  0.1760618E+03  0.7818608E-02  0.1171670E+00
         21   -1    0    0  501  502  0.00000000000E+00  0.00000000000E+00  0.16693714896E+04  0.16693714896E+04  0.00000000000E+00 0. -1.
         21   -1    0    0  502  503 -0.00000000000E+00 -0.00000000000E+00 -0.18673165557E+02  0.18673165557E+02  0.00000000000E+00 0.  1.
          6    1    1    2  501    0 -0.10524163472E+02 -0.36097262088E+02  0.76216766998E+03  0.78223866404E+03  0.17200000000E+03 0. -1.
         -6    1    1    2    0  503  0.10524163472E+02  0.36097262088E+02  0.88853065408E+03  0.90580599114E+03  0.17200000000E+03 0.  1.
</event>
<event>
 4    1  0.4394643E+000  0.1797672E+03  0.7818608E-02  0.1168029E+00
         21   -1    0    0  501  502  0.00000000000E+00  0.00000000000E+00  0.10670496779E+04  0.10670496779E+04  0.00000000000E+00 0. -1.
         21   -1    0    0  502  503 -0.00000000000E+00 -0.00000000000E+00 -0.86990834303E+02  0.86990834303E+02  0.00000000000E+00 0. -1.
          6    1    1    2  501    0 -0.27683914187E+02  0.44338015497E+02  0.95590057278E+03  0.97265726942E+03  0.17200000000E+03 0. -1.
         -6    1    1    2    0  503  0.27683914187E+02 -0.44338015497E+02  0.24158270852E+02  0.18138324281E+03  0.17200000000E+03 0. -1.
</event>
<event>
 4    1  0.4394643E+000  0.2517823E+03  0.7818608E-02  0.1112184E+00
         21   -1    0    0  503  502  0.00000000000E+00  0.00000000000E+00  0.27635527162E+03  0.27635527162E+03  0.00000000000E+00 0. -1.
         21   -1    0    0  501  503 -0.00000000000E+00 -0.00000000000E+00 -0.38438350273E+03  0.38438350273E+03  0.00000000000E+00 0.  1.
          6    1    1    2  501    0  0.37785994112E+02  0.17995151665E+03 -0.26379606719E+03  0.36466792396E+03  0.17200000000E+03 0.  1.
         -6    1    1    2    0  502 -0.37785994112E+02 -0.17995151665E+03  0.15576783608E+03  0.29607085040E+03  0.17200000000E+03 0. -1.
</event>
<event>
 4    1  0.4394643E+000  0.1943484E+03  0.7818608E-02  0.1154597E+00
         21   -1    0    0  501  502  0.00000000000E+00  0.00000000000E+00  0.47959853797E+02  0.47959853797E+02  0.00000000000E+00 0. -1.
         21   -1    0    0  502  503 -0.00000000000E+00 -0.00000000000E+00 -0.13243146056E+04  0.13243146056E+04  0.00000000000E+00 0. -1.
          6    1    1    2  501    0  0.82136831585E+02 -0.37958164490E+02 -0.20135675615E+03  0.27984964642E+03  0.17200000000E+03 0. -1.
         -6    1    1    2    0  503 -0.82136831585E+02  0.37958164490E+02 -0.10749979956E+04  0.10924248130E+04  0.17200000000E+03 0. -1.
</event>
<event>
 4    1  0.4394643E+000  0.2001467E+03  0.7818608E-02  0.1149615E+00
         21   -1    0    0  501  502  0.00000000000E+00  0.00000000000E+00  0.42472034288E+03  0.42472034288E+03  0.00000000000E+00 0. -1.
         21   -1    0    0  502  503 -0.00000000000E+00 -0.00000000000E+00 -0.10484130259E+03  0.10484130259E+03  0.00000000000E+00 0. -1.
          6    1    1    2  501    0  0.23918722815E+02  0.99511833902E+02  0.24382743681E+03  0.31545289558E+03  0.17200000000E+03 0. -1.
         -6    1    1    2    0  503 -0.23918722815E+02 -0.99511833902E+02  0.76051603487E+02  0.21410874989E+03  0.17200000000E+03 0. -1.
</event>
<event>
 4    1  0.4394643E+000  0.3931331E+03  0.7818608E-02  0.1046184E+00
         21   -1    0    0  503  502  0.00000000000E+00  0.00000000000E+00  0.11588885461E+04  0.11588885461E+04  0.00000000000E+00 0. -1.
         21   -1    0    0  501  503 -0.00000000000E+00 -0.00000000000E+00 -0.37855701169E+03  0.37855701169E+03  0.00000000000E+00 0. -1.
          6    1    1    2  501    0  0.13746738645E+02  0.35324302254E+03 -0.22850337864E+03  0.45471683479E+03  0.17200000000E+03 0. -1.
         -6    1    1    2    0  502 -0.13746738645E+02 -0.35324302254E+03  0.10088349131E+04  0.10827287230E+04  0.17200000000E+03 0. -1.
</event>
<event>
 4    1  0.4394643E+000  0.1753180E+03  0.7818608E-02  0.1172413E+00
         21   -1    0    0  503  502  0.00000000000E+00  0.00000000000E+00  0.12208404242E+04  0.12208404242E+04  0.00000000000E+00 0.  1.
         21   -1    0    0  501  503 -0.00000000000E+00 -0.00000000000E+00 -0.31853886516E+02  0.31853886516E+02  0.00000000000E+00 0.  1.
          6    1    1    2  501    0  0.33829106447E+02  0.28255667381E+01  0.30771929922E+03  0.35415753470E+03  0.17200000000E+03 0.  1.
         -6    1    1    2    0  502 -0.33829106447E+02 -0.28255667381E+01  0.88126723848E+03  0.89853677603E+03  0.17200000000E+03 0.  1.
</event>
<event>
 4    1  0.4394643E+000  0.1944502E+03  0.7818608E-02  0.1154508E+00
         21   -1    0    0  503  502  0.00000000000E+00  0.00000000000E+00  0.53237921798E+03  0.53237921798E+03  0.00000000000E+00 0.  1.
         21   -1    0    0  501  503 -0.00000000000E+00 -0.00000000000E+00 -0.94678431775E+02  0.94678431775E+02  0.00000000000E+00 0.  1.
          6    1    1    2  501    0 -0.69912764101E+02 -0.57784816526E+02  0.62131130394E+02  0.20413514389E+03  0.17200000000E+03 0.  1.
         -6    1    1    2    0  502  0.69912764101E+02  0.57784816526E+02  0.37556965582E+03  0.42292250587E+03  0.17200000000E+03 0.  1.
</event>
<event>
 4    1  0.4394643E+000  0.2012679E+03  0.7818608E-02  0.1148674E+00
         21   -1    0    0  503  502  0.00000000000E+00  0.00000000000E+00  0.14770540098E+03  0.14770540098E+03  0.00000000000E+00 0.  1.
         21   -1    0    0  501  503 -0.00000000000E+00 -0.00000000000E+00 -0.30116631817E+03  0.30116631817E+03  0.00000000000E+00 0. -1.
          6    1    1    2  501    0 -0.27040731430E+02  0.10096323192E+03 -0.14382169373E+03  0.24737310877E+03  0.17200000000E+03 0.  1.
         -6    1    1    2    0  502  0.27040731430E+02 -0.10096323192E+03 -0.96392234675E+01  0.20149861038E+03  0.17200000000E+03 0.  1.
</event>
<event>
 4    1  0.4394643E+000  0.1959138E+03  0.7818608E-02  0.1153233E+00
         21   -1    0    0  503  502  0.00000000000E+00  0.00000000000E+00  0.69981631941E+03  0.69981631941E+03  0.00000000000E+00 0.  1.
         21   -1    0    0  501  503 -0.00000000000E+00 -0.00000000000E+00 -0.10860921025E+03  0.10860921025E+03  0.00000000000E+00 0.  1.
          6    1    1    2  501    0 -0.88957461393E+02  0.29745369755E+02  0.11210643360E+02  0.19623428723E+03  0.17200000000E+03 0.  1.
         -6    1    1    2    0  502  0.88957461393E+02 -0.29745369755E+02  0.57999646580E+03  0.61219124242E+03  0.17200000000E+03 0.  1.
</event>
<event>
 4    1  0.4394643E+000  0.1953243E+03  0.7818608E-02  0.1153745E+00
         21   -1    0    0  501  502  0.00000000000E+00  0.00000000000E+00  0.18304262822E+03  0.18304262822E+03  0.00000000000E+00 0.  1.
         21   -1    0    0  502  503 -0.00000000000E+00 -0.00000000000E+00 -0.20846968653E+03  0.20846968653E+03  0.00000000000E+00 0. -1.
          6    1    1    2  501    0  0.52196159872E+02  0.76440550882E+02 -0.10016664584E+02  0.19558100750E+03  0.17200000000E+03 0.  1.
         -6    1    1    2    0  503 -0.52196159872E+02 -0.76440550882E+02 -0.15410393726E+02  0.19593130725E+03  0.17200000000E+03 0. -1.
</event>
<event>
 4    1  0.4394643E+000  0.4171914E+03  0.7818608E-02  0.1037984E+00
         21   -1    0    0  501  502  0.00000000000E+00  0.00000000000E+00  0.82319571948E+03  0.82319571948E+03  0.00000000000E+00 0.  1.
         21   -1    0    0  502  503 -0.00000000000E+00 -0.00000000000E+00 -0.31453200596E+03  0.31453200596E+03  0.00000000000E+00 0.  1.
          6    1    1    2  501    0  0.21165411330E+03 -0.31570108536E+03 -0.71361229496E+02  0.42325059250E+03  0.17200000000E+03 0.  1.
         -6    1    1    2    0  503 -0.21165411330E+03  0.31570108536E+03  0.58002494301E+03  0.71447713294E+03  0.17200000000E+03 0.  1.
</event>
<event>
 4    1  0.4394643E+000  0.1905104E+03  0.7818608E-02  0.1158002E+00
         21   -1    0    0  501  502  0.00000000000E+00  0.00000000000E+00  0.29596911760E+03  0.29596911760E+03  0.00000000000E+00 0. -1.
         21   -1    0    0  502  503 -0.00000000000E+00 -0.00000000000E+00 -0.13072312808E+03  0.13072312808E+03  0.00000000000E+00 0.  1.
          6    1    1    2  501    0 -0.66652763676E+02  0.47619425438E+02  0.13571282924E+03  0.23390633297E+03  0.17200000000E+03 0. -1.
         -6    1    1    2    0  503  0.66652763676E+02 -0.47619425438E+02  0.29533160281E+02  0.19278591271E+03  0.17200000000E+03 0.  1.
</event>
<event>
 4    1  0.4394643E+000  0.1938312E+03  0.7818608E-02  0.1155051E+00
         21   -1    0    0  503  502  0.00000000000E+00  0.00000000000E+00  0.32776908705E+02  0.32776908705E+02  0.00000000000E+00 0.  1.
         21   -1    0    0  501  503 -0.00000000000E+00 -0.00000000000E+00 -0.13377122260E+04  0.13377122260E+04  0.00000000000E+00 0.  1.
          6    1    1    2  501    0  0.88874342136E+02 -0.93738825398E+01 -0.91171019575E+03  0.93208690549E+03  0.17200000000E+03 0.  1.
         -6    1    1    2    0  502 -0.88874342136E+02  0.93738825398E+01 -0.39322512158E+03  0.43840222924E+03  0.17200000000E+03 0.  1.
</event>
<event>
 4    1  0.4394643E+000  0.2397144E+03  0.7818608E-02  0.1119983E+00
         21   -1    0    0  503  502  0.00000000000E+00  0.00000000000E+00  0.26605517959E+03  0.26605517959E+03  0.00000000000E+00 0. -1.
         21   -1    0    0  501  503 -0.00000000000E+00 -0.00000000000E+00 -0.56453879876E+03  0.56453879876E+03  0.00000000000E+00 0.  1.
          6    1    1    2  501    0  0.16687071494E+03  0.57580621535E+01 -0.47556579004E+03  0.53256531191E+03  0.17200000000E+03 0.  1.
         -6    1    1    2    0  502 -0.16687071494E+03 -0.57580621535E+01  0.17708217087E+03  0.29802866645E+03  0.17200000000E+03 0. -1.
</event>
<event>
 4    1  0.4394643E+000  0.1796972E+03  0.7818608E-02  0.1168096E+00
         21   -1    0    0  503  502  0.00000000000E+00  0.00000000000E+00  0.40782709777E+03  0.40782709777E+03  0.00000000000E+00 0.  1.
         21   -1    0    0  501  503 -0.00000000000E+00 -0.00000000000E+00 -0.86220303479E+02  0.86220303479E+02  0.00000000000E+00 0. -1.
          6    1    1    2  501    0  0.46090587623E+02  0.24139970237E+02  0.90207389301E+02  0.20106828073E+03  0.17200000000E+03 0. -1.
         -6    1    1    2    0  502 -0.46090587623E+02 -0.24139970237E+02  0.23139940499E+03  0.29297912052E+03  0.17200000000E+03 0.  1.
</event>
<event>
 4    1  0.4394643E+000  0.1893564E+03  0.7818608E-02  0.1159043E+00
         21   -1    0    0  503  502  0.00000000000E+00  0.00000000000E+00  0.95748918250E+02  0.95748918250E+02  0.00000000000E+00 0.  1.
         21   -1    0    0  501  503 -0.00000000000E+00 -0.00000000000E+00 -0.49893954719E+03  0.49893954719E+03  0.00000000000E+00 0. -1.
          6    1    1    2  501    0 -0.46365034271E+02 -0.64203948017E+02 -0.35010444449E+03  0.39803138745E+03  0.17200000000E+03 0. -1.
         -6    1    1    2    0  502  0.46365034271E+02  0.64203948017E+02 -0.53086184448E+02  0.19665707799E+03  0.17200000000E+03 0.  1.
</event>
<event>
 4    1  0.4394643E+000  0.1758516E+03  0.7818608E-02  0.1171879E+00
         21   -1    0    0  503  502  0.00000000000E+00  0.00000000000E+00  0.37682382343E+02  0.37682382343E+02  0.00000000000E+00 0. -1.
         21   -1    0    0  501  503 -0.00000000000E+00 -0.00000000000E+00 -0.90925864571E+03  0.90925864571E+03  0.00000000000E+00 0. -1.
          6    1    1    2  501    0 -0.66697894785E+01 -0.35990108289E+02 -0.58359854340E+03  0.60951704967E+03  0.17200000000E+03 0. -1.
         -6    1    1    2    0  502  0.66697894785E+01  0.35990108289E+02 -0.28797771997E+03  0.33742397838E+03  0.17200000000E+03 0. -1.
</event>
<event>
 4    1  0.4394643E+000  0.1815444E+03  0.7818608E-02  0.1166317E+00
         21   -1    0    0  503  502  0.00000000000E+00  0.00000000000E+00  0.70034874031E+02  0.70034874031E+02  0.00000000000E+00 0.  1.
         21   -1    0    0  501  503 -0.00000000000E+00 -0.00000000000E+00 -0.47060996463E+03  0.47060996463E+03  0.00000000000E+00 0.  1.
          6    1    1    2  501    0  0.42820176015E+02 -0.39252883145E+02 -0.19899521639E+03  0.26936490576E+03  0.17200000000E+03 0. -1.
         -6    1    1    2    0  502 -0.42820176015E+02  0.39252883145E+02 -0.20157987421E+03  0.27127993290E+03  0.17200000000E+03 0. -1.
</event>
<event>
 4    1  0.4394643E+000  0.2289703E+03  0.7818608E-02  0.1127367E+00
         21   -1    0    0  503  502  0.00000000000E+00  0.00000000000E+00  0.10945388056E+03  0.10945388056E+03  0.00000000000E+00 0. -1.
         21   -1    0    0  501  503 -0.00000000000E+00 -0.00000000000E+00 -0.47934560958E+03  0.47934560958E+03  0.00000000000E+00 0. -1.
          6    1    1    2  501    0  0.12141220527E+03 -0.90013765414E+02 -0.17693623952E+03  0.28936799133E+03  0.17200000000E+03 0. -1.
         -6    1    1    2    0  502 -0.12141220527E+03  0.90013765414E+02 -0.19295548950E+03  0.29943149881E+03  0.17200000000E+03 0. -1.
</event>
<event>
 4    1  0.4394643E+000  0.1739078E+03  0.7818608E-02  0.1173833E+00
         21   -1    0    0  503  502  0.00000000000E+00  0.00000000000E+00  0.26363879657E+03  0.26363879657E+03  0.00000000000E+00 0. -1.
         21   -1    0    0  501  503 -0.00000000000E+00 -0.00000000000E+00 -0.16691475023E+03  0.16691475023E+03  0.00000000000E+00 0. -1.
          6    1    1    2  501    0 -0.21384867819E+02  0.14234355197E+02 -0.72023561092E+02  0.18823209820E+03  0.17200000000E+03 0. -1.
         -6    1    1    2    0  502  0.21384867819E+02 -0.14234355197E+02  0.16874760743E+03  0.24232144860E+03  0.17200000000E+03 0. -1.
</event>
<event>
 4    1  0.4394643E+000  0.2955102E+03  0.7818608E-02  0.1087507E+00
         21   -1    0    0  503  502  0.00000000000E+00  0.00000000000E+00  0.23679545771E+03  0.23679545771E+03  0.00000000000E+00 0.  1.
         21   -1    0    0  501  503 -0.00000000000E+00 -0.00000000000E+00 -0.37266391116E+03  0.37266391116E+03  0.00000000000E+00 0.  1.
          6    1    1    2  501    0 -0.10015862726E+03  0.21842746436E+03 -0.36839759541E+02  0.29779770934E+03  0.17200000000E+03 0.  1.
         -6    1    1    2    0  502  0.10015862726E+03 -0.21842746436E+03 -0.99028693918E+02  0.31166165953E+03  0.17200000000E+03 0.  1.
</event>
<event>
 4    1  0.4394643E+000  0.1779227E+03  0.7818608E-02  0.1169829E+00
         21   -1    0    0  503  502  0.00000000000E+00  0.00000000000E+00  0.19405124281E+03  0.19405124281E+03  0.00000000000E+00 0.  1.
         21   -1    0    0  501  503 -0.00000000000E+00 -0.00000000000E+00 -0.22463092320E+03  0.22463092320E+03  0.00000000000E+00 0.  1.
          6    1    1    2  501    0 -0.43563206664E+01  0.45315600707E+02 -0.12482261788E+03  0.21734113079E+03  0.17200000000E+03 0.  1.
         -6    1    1    2    0  502  0.43563206664E+01 -0.45315600707E+02  0.94242937488E+02  0.20134103522E+03  0.17200000000E+03 0.  1.
</event>
<event>
 4    1  0.4394643E+000  0.1819587E+03  0.7818608E-02  0.1165921E+00
         21   -1    0    0  503  502  0.00000000000E+00  0.00000000000E+00  0.21870004996E+02  0.21870004996E+02  0.00000000000E+00 0.  1.
         21   -1    0    0  501  503 -0.00000000000E+00 -0.00000000000E+00 -0.20052824279E+04  0.20052824279E+04  0.00000000000E+00 0.  1.
          6    1    1    2  501    0 -0.57970403973E+02  0.12822557497E+02 -0.14934462376E+04  0.15044901629E+04  0.17200000000E+03 0.  1.
         -6    1    1    2    0  502  0.57970403973E+02 -0.12822557497E+02 -0.48996618533E+03  0.52266227001E+03  0.17200000000E+03 0.  1.
</event>
<event>
 4    1  0.4394643E+000  0.2029340E+03  0.7818608E-02  0.1147287E+00
         21   -1    0    0  503  502  0.00000000000E+00  0.00000000000E+00  0.48345951574E+03  0.48345951574E+03  0.00000000000E+00 0. -1.
         21   -1    0    0  501  503 -0.00000000000E+00 -0.00000000000E+00 -0.12578284975E+03  0.12578284975E+03  0.00000000000E+00 0.  1.
          6    1    1    2  501    0  0.11019560596E+02 -0.10712979620E+03  0.57710381707E+01  0.20301608023E+03  0.17200000000E+03 0.  1.
         -6    1    1    2    0  502 -0.11019560596E+02  0.10712979620E+03  0.35190562782E+03  0.40622628526E+03  0.17200000000E+03 0.  1.
</event>
<event>
 4    1  0.4394643E+000  0.2287587E+03  0.7818608E-02  0.1127517E+00
         21   -1    0    0  503  502  0.00000000000E+00  0.00000000000E+00  0.25135529476E+03  0.25135529476E+03  0.00000000000E+00 0. -1.
         21   -1    0    0  501  503 -0.00000000000E+00 -0.00000000000E+00 -0.34641792714E+03  0.34641792714E+03  0.00000000000E+00 0.  1.
          6    1    1    2  501    0  0.74466784209E+01  0.15063554725E+03 -0.23632992495E+03  0.32891086109E+03  0.17200000000E+03 0.  1.
         -6    1    1    2    0  502 -0.74466784209E+01 -0.15063554725E+03  0.14126729257E+03  0.26886236082E+03  0.17200000000E+03 0. -1.
</event>
<event>
 4    1  0.4394643E+000  0.2240993E+03  0.7818608E-02  0.1130863E+00
         21   -1    0    0  501  502  0.00000000000E+00  0.00000000000E+00  0.12986706674E+03  0.12986706674E+03  0.00000000000E+00 0.  1.
         21   -1    0    0  502  503 -0.00000000000E+00 -0.00000000000E+00 -0.39130918896E+03  0.39130918896E+03  0.00000000000E+00 0.  1.
          6    1    1    2  501    0  0.13322656861E+03  0.53732353109E+02 -0.10246029817E+03  0.24641143857E+03  0.17200000000E+03 0. -1.
         -6    1    1    2    0  503 -0.13322656861E+03 -0.53732353109E+02 -0.15898182405E+03  0.27476481713E+03  0.17200000000E+03 0. -1.
</event>
<event>
 4    1  0.4394643E+000  0.1756638E+03  0.7818608E-02  0.1172067E+00
         21   -1    0    0  503  502  0.00000000000E+00  0.00000000000E+00  0.26658889480E+04  0.26658889480E+04  0.00000000000E+00 0.  1.
         21   -1    0    0  501  503 -0.00000000000E+00 -0.00000000000E+00 -0.15279734776E+02  0.15279734776E+02  0.00000000000E+00 0.  1.
          6    1    1    2  501    0 -0.23112060799E+02  0.27195667617E+02  0.66520049134E+03  0.68800397192E+03  0.17200000000E+03 0.  1.
         -6    1    1    2    0  502  0.23112060799E+02 -0.27195667617E+02  0.19854087219E+04  0.19931647109E+04  0.17200000000E+03 0.  1.
</event>
<event>
 4    1  0.4394643E+000  0.2389891E+03  0.7818608E-02  0.1120468E+00
         21   -1    0    0  503  502  0.00000000000E+00  0.00000000000E+00  0.16724941106E+03  0.16724941106E+03  0.00000000000E+00 0. -1.
         21   -1    0    0  501  503 -0.00000000000E+00 -0.00000000000E+00 -0.35981053555E+03  0.35981053555E+03  0.00000000000E+00 0.  1.
          6    1    1    2  501    0  0.45812721279E+02  0.15947719488E+03 -0.15572839127E+03  0.28524921203E+03  0.17200000000E+03 0.  1.
         -6    1    1    2    0  502 -0.45812721279E+02 -0.15947719488E+03 -0.36832733226E+02  0.24181073458E+03  0.17200000000E+03 0. -1.
</event>
<event>
 4    1  0.4394643E+000  0.2101021E+03  0.7818608E-02  0.1141485E+00
         21   -1    0    0  503  502  0.00000000000E+00  0.00000000000E+00  0.16595319792E+03  0.16595319792E+03  0.00000000000E+00 0. -1.
         21   -1    0    0  501  503 -0.00000000000E+00 -0.00000000000E+00 -0.26600551212E+03  0.26600551212E+03  0.00000000000E+00 0.  1.
          6    1    1    2  501    0 -0.20020657792E+02  0.11898766261E+03 -0.51316151761E+02  0.21627814967E+03  0.17200000000E+03 0. -1.
         -6    1    1    2    0  502  0.20020657792E+02 -0.11898766261E+03 -0.48736162436E+02  0.21568056037E+03  0.17200000000E+03 0. -1.
</event>
<event>
 4    1  0.4394643E+000  0.1850837E+03  0.7818608E-02  0.1162972E+00
         21   -1    0    0  503  502  0.00000000000E+00  0.00000000000E+00  0.10001743951E+03  0.10001743951E+03  0.00000000000E+00 0. -1.
         21   -1    0    0  501  503 -0.00000000000E+00 -0.00000000000E+00 -0.40543626802E+03  0.40543626802E+03  0.00000000000E+00 0. -1.
          6    1    1    2  501    0  0.94212849608E+01  0.67699346753E+02 -0.25228226965E+03  0.31289344151E+03  0.17200000000E+03 0. -1.
         -6    1    1    2    0  502 -0.94212849608E+01 -0.67699346753E+02 -0.53136558857E+02  0.19256026602E+03  0.17200000000E+03 0. -1.
</event>
<event>
 4    1  0.4394643E+000  0.2531514E+03  0.7818608E-02  0.1111329E+00
         21   -1    0    0  501  502  0.00000000000E+00  0.00000000000E+00  0.11435810739E+04  0.11435810739E+04  0.00000000000E+00 0.  1.
         21   -1    0    0  502  503 -0.00000000000E+00 -0.00000000000E+00 -0.56173993883E+02  0.56173993883E+02  0.00000000000E+00 0. -1.
          6    1    1    2  501    0  0.17870524124E+03 -0.50656557145E+02  0.57306198939E+03  0.62648678654E+03  0.17200000000E+03 0.  1.
         -6    1    1    2    0  503 -0.17870524124E+03  0.50656557145E+02  0.51434509065E+03  0.57326828127E+03  0.17200000000E+03 0. -1.
</event>
<event>
 4    1  0.4394643E+000  0.2121957E+03  0.7818608E-02  0.1139839E+00
         21   -1    0    0  503  502  0.00000000000E+00  0.00000000000E+00  0.27641355271E+03  0.27641355271E+03  0.00000000000E+00 0. -1.
         21   -1    0    0  501  503 -0.00000000000E+00 -0.00000000000E+00 -0.24456241471E+03  0.24456241471E+03  0.00000000000E+00 0. -1.
          6    1    1    2  501    0 -0.10584136094E+03 -0.65120113729E+02 -0.13460028895E+03  0.25128521780E+03  0.17200000000E+03 0. -1.
         -6    1    1    2    0  502  0.10584136094E+03  0.65120113729E+02  0.16645142695E+03  0.26969074962E+03  0.17200000000E+03 0. -1.
</event>
<event>
 4    1  0.4394643E+000  0.1873655E+03  0.7818608E-02  0.1160859E+00
         21   -1    0    0  501  502  0.00000000000E+00  0.00000000000E+00  0.69083399271E+02  0.69083399271E+02  0.00000000000E+00 0. -1.
         21   -1    0    0  502  503 -0.00000000000E+00 -0.00000000000E+00 -0.51147259804E+03  0.51147259804E+03  0.00000000000E+00 0. -1.
          6    1    1    2  501    0  0.21068367389E+02  0.71259713638E+02 -0.19785438525E+03  0.27249253321E+03  0.17200000000E+03 0. -1.
         -6    1    1    2    0  503 -0.21068367389E+02 -0.71259713638E+02 -0.24453481352E+03  0.30806346410E+03  0.17200000000E+03 0. -1.
</event>
<event>
 4    1  0.4394643E+000  0.2636549E+03  0.7818608E-02  0.1104967E+00
         21   -1    0    0  501  502  0.00000000000E+00  0.00000000000E+00  0.28494126855E+02  0.28494126855E+02  0.00000000000E+00 0. -1.
         21   -1    0    0  502  503 -0.00000000000E+00 -0.00000000000E+00 -0.24554373047E+04  0.24554373047E+04  0.00000000000E+00 0.  1.
          6    1    1    2  501    0  0.47425542779E+02 -0.19411517483E+03 -0.11136848657E+04  0.11444683758E+04  0.17200000000E+03 0. -1.
         -6    1    1    2    0  503 -0.47425542779E+02  0.19411517483E+03 -0.13132583122E+04  0.13394630558E+04  0.17200000000E+03 0.  1.
</event>
<event>
 4    1  0.4394643E+000  0.2349765E+03  0.7818608E-02  0.1123185E+00
         21   -1    0    0  501  502  0.00000000000E+00  0.00000000000E+00  0.20954848882E+03  0.20954848882E+03  0.00000000000E+00 0.  1.
         21   -1    0    0  502  503 -0.00000000000E+00 -0.00000000000E+00 -0.51541349645E+03  0.51541349645E+03  0.00000000000E+00 0.  1.
          6    1    1    2  501    0 -0.69024872930E+02  0.14444896111E+03  0.10048795086E+03  0.25556166324E+03  0.17200000000E+03 0.  1.
         -6    1    1    2    0  503  0.69024872930E+02 -0.14444896111E+03 -0.40635295849E+03  0.46940032203E+03  0.17200000000E+03 0.  1.
</event>
<event>
 4    1  0.4394643E+000  0.2561597E+03  0.7818608E-02  0.1109473E+00
         21   -1    0    0  501  502  0.00000000000E+00  0.00000000000E+00  0.68494673829E+02  0.68494673829E+02  0.00000000000E+00 0. -1.
         21   -1    0    0  502  503 -0.00000000000E+00 -0.00000000000E+00 -0.10540309582E+04  0.10540309582E+04  0.00000000000E+00 0.  1.
          6    1    1    2  501    0 -0.15562775223E+03 -0.10869134557E+03 -0.32335455252E+03  0.41252390537E+03  0.17200000000E+03 0.  1.
         -6    1    1    2    0  503  0.15562775223E+03  0.10869134557E+03 -0.66218173190E+03  0.71000172671E+03  0.17200000000E+03 0. -1.
</event>
<event>
 4    1  0.4394643E+000  0.2014235E+03  0.7818608E-02  0.1148544E+00
         21   -1    0    0  503  502  0.00000000000E+00  0.00000000000E+00  0.29394534036E+03  0.29394534036E+03  0.00000000000E+00 0.  1.
         21   -1    0    0  501  503 -0.00000000000E+00 -0.00000000000E+00 -0.45482571097E+03  0.45482571097E+03  0.00000000000E+00 0. -1.
          6    1    1    2  501    0 -0.99853585900E+02 -0.31885389352E+02 -0.39289737842E+03  0.44151983720E+03  0.17200000000E+03 0. -1.
         -6    1    1    2    0  502  0.99853585900E+02  0.31885389352E+02  0.23201700781E+03  0.30725121413E+03  0.17200000000E+03 0.  1.
</event>
<event>
 4    1  0.4394643E+000  0.2373284E+03  0.7818608E-02  0.1121585E+00
         21   -1    0    0  501  502  0.00000000000E+00  0.00000000000E+00  0.57235770717E+03  0.57235770717E+03  0.00000000000E+00 0.  1.
         21   -1    0    0  502  503 -0.00000000000E+00 -0.00000000000E+00 -0.12380346759E+03  0.12380346759E+03  0.00000000000E+00 0.  1.
          6    1    1    2  501    0  0.36903206788E+02  0.15930765838E+03  0.38192514175E+03  0.44965719231E+03  0.17200000000E+03 0.  1.
         -6    1    1    2    0  503 -0.36903206788E+02 -0.15930765838E+03  0.66629097829E+02  0.24650398246E+03  0.17200000000E+03 0.  1.
</event>
<event>
 4    1  0.4394643E+000  0.1816895E+03  0.7818608E-02  0.1166178E+00
         21   -1    0    0  503  502  0.00000000000E+00  0.00000000000E+00  0.34663294630E+03  0.34663294630E+03  0.00000000000E+00 0.  1.
         21   -1    0    0  501  503 -0.00000000000E+00 -0.00000000000E+00 -0.98901978878E+02  0.98901978878E+02  0.00000000000E+00 0.  1.
          6    1    1    2  501    0  0.58398121530E+02 -0.40909420193E+01  0.80962157678E+02  0.19891190859E+03  0.17200000000E+03 0.  1.
         -6    1    1    2    0  502 -0.58398121530E+02  0.40909420193E+01  0.16676880974E+03  0.24662301658E+03  0.17200000000E+03 0.  1.
</event>
<event>
 4    1  0.4394643E+000  0.1982623E+03  0.7818608E-02  0.1151213E+00
         21   -1    0    0  503  502  0.00000000000E+00  0.00000000000E+00  0.12199965814E+04  0.12199965814E+04  0.00000000000E+00 0.  1.
         21   -1    0    0  501  503 -0.00000000000E+00 -0.00000000000E+00 -0.36364881637E+02  0.36364881637E+02  0.00000000000E+00 0. -1.
          6    1    1    2  501    0 -0.11020858793E+02  0.97992149077E+02  0.37972816871E+03  0.42837063709E+03  0.17200000000E+03 0. -1.
         -6    1    1    2    0  502  0.11020858793E+02 -0.97992149077E+02  0.80390353103E+03  0.82799082592E+03  0.17200000000E+03 0. -1.
</event>
<event>
 4    1  0.4394643E+000  0.2357240E+03  0.7818608E-02  0.1122675E+00
         21   -1    0    0  501  502  0.00000000000E+00  0.00000000000E+00  0.59204442534E+03  0.59204442534E+03  0.00000000000E+00 0.  1.
         21   -1    0    0  502  503 -0.00000000000E+00 -0.00000000000E+00 -0.11904135538E+03  0.11904135538E+03  0.00000000000E+00 0. -1.
          6    1    1    2  501    0 -0.14005252317E+03  0.79793994489E+02  0.40004514344E+03  0.46432952479E+03  0.17200000000E+03 0.  1.
         -6    1    1    2    0  503  0.14005252317E+03 -0.79793994489E+02  0.72957926523E+02  0.24675625594E+03  0.17200000000E+03 0. -1.
</event>
<event>
 4    1  0.4394643E+000  0.2095637E+03  0.7818608E-02  0.1141912E+00
         21   -1    0    0  501  502  0.00000000000E+00  0.00000000000E+00  0.76645602760E+03  0.76645602760E+03  0.00000000000E+00 0. -1.
         21   -1    0    0  502  503 -0.00000000000E+00 -0.00000000000E+00 -0.71228548723E+02  0.71228548723E+02  0.00000000000E+00 0. -1.
          6    1    1    2  501    0  0.58006685359E+02  0.10472911700E+03  0.53283723482E+03  0.57256657456E+03  0.17200000000E+03 0. -1.
         -6    1    1    2    0  503 -0.58006685359E+02 -0.10472911700E+03  0.16239024406E+03  0.26511800177E+03  0.17200000000E+03 0. -1.
</event>
<event>
 4    1  0.4394643E+000  0.2091066E+03  0.7818608E-02  0.1142275E+00
         21   -1    0    0  503  502  0.00000000000E+00  0.00000000000E+00  0.73432133678E+02  0.73432133678E+02  0.00000000000E+00 0.  1.
         21   -1    0    0  501  503 -0.00000000000E+00 -0.00000000000E+00 -0.10289897726E+04  0.10289897726E+04  0.00000000000E+00 0.  1.
          6    1    1    2  501    0 -0.11729941839E+03 -0.19555239961E+02 -0.83556542247E+03  0.86133334789E+03  0.17200000000E+03 0.  1.
         -6    1    1    2    0  502  0.11729941839E+03  0.19555239961E+02 -0.11999221641E+03  0.24108855834E+03  0.17200000000E+03 0.  1.
</event>
<event>
 4    1  0.4394643E+000  0.1861053E+03  0.7818608E-02  0.1162022E+00
         21   -1    0    0  503  502  0.00000000000E+00  0.00000000000E+00  0.16819383177E+04  0.16819383177E+04  0.00000000000E+00 0.  1.
         21   -1    0    0  501  503 -0.00000000000E+00 -0.00000000000E+00 -0.20680146801E+02  0.20680146801E+02  0.00000000000E+00 0.  1.
          6    1    1    2  501    0 -0.44819784976E+02  0.55157650174E+02  0.88607605211E+03  0.90540927189E+03  0.17200000000E+03 0.  1.
         -6    1    1    2    0  502  0.44819784976E+02 -0.55157650174E+02  0.77518211883E+03  0.79720919265E+03  0.17200000000E+03 0.  1.
</event>
<event>
 4    1  0.4394643E+000  0.2793576E+03  0.7818608E-02  0.1096040E+00
         21   -1    0    0  501  502  0.00000000000E+00  0.00000000000E+00  0.10761295490E+03  0.10761295490E+03  0.00000000000E+00 0. -1.
         21   -1    0    0  502  503 -0.00000000000E+00 -0.00000000000E+00 -0.76118439149E+03  0.76118439149E+03  0.00000000000E+00 0. -1.
          6    1    1    2  501    0 -0.21599296263E+03 -0.42470031914E+02 -0.42123849512E+03  0.50545280026E+03  0.17200000000E+03 0. -1.
         -6    1    1    2    0  503  0.21599296263E+03  0.42470031914E+02 -0.23233294146E+03  0.36334454613E+03  0.17200000000E+03 0. -1.
</event>
<event>
 4    1  0.4394643E+000  0.1738905E+03  0.7818608E-02  0.1173850E+00
         21   -1    0    0  503  502  0.00000000000E+00  0.00000000000E+00  0.65807530071E+03  0.65807530071E+03  0.00000000000E+00 0. -1.
         21   -1    0    0  501  503 -0.00000000000E+00 -0.00000000000E+00 -0.79973818282E+02  0.79973818282E+02  0.00000000000E+00 0. -1.
          6    1    1    2  501    0  0.25479110238E+02 -0.21720987274E+01  0.48348989171E+02  0.18048691871E+03  0.17200000000E+03 0. -1.
         -6    1    1    2    0  502 -0.25479110238E+02  0.21720987274E+01  0.52975249325E+03  0.55756220028E+03  0.17200000000E+03 0. -1.
</event>
<event>
 4    1  0.4394643E+000  0.2006472E+03  0.7818608E-02  0.1149194E+00
         21   -1    0    0  501  502  0.00000000000E+00  0.00000000000E+00  0.26305874586E+03  0.26305874586E+03  0.00000000000E+00 0.  1.
         21   -1    0    0  502  503 -0.00000000000E+00 -0.00000000000E+00 -0.16576208706E+03  0.16576208706E+03  0.00000000000E+00 0.  1.
          6    1    1    2  501    0 -0.53131182612E+02 -0.88613624210E+02  0.10804080410E+03  0.22788618280E+03  0.17200000000E+03 0.  1.
         -6    1    1    2    0  503  0.53131182612E+02  0.88613624210E+02 -0.10744145291E+02  0.20093465012E+03  0.17200000000E+03 0.  1.
</event>
<event>
 4    1  0.4394643E+000  0.2138077E+03  0.7818608E-02  0.1138586E+00
         21   -1    0    0  503  502  0.00000000000E+00  0.00000000000E+00  0.41768302241E+03  0.41768302241E+03  0.00000000000E+00 0.  1.
         21   -1    0    0  501  503 -0.00000000000E+00 -0.00000000000E+00 -0.13888597193E+03  0.13888597193E+03  0.00000000000E+00 0.  1.
          6    1    1    2  501    0  0.12081229304E+03  0.39167718395E+02  0.11275024645E+02  0.21410475589E+03  0.17200000000E+03 0.  1.
         -6    1    1    2    0  502 -0.12081229304E+03 -0.39167718395E+02  0.26752202583E+03  0.34246423845E+03  0.17200000000E+03 0.  1.
</event>
<event>
 4    1  0.4394643E+000  0.2241088E+03  0.7818608E-02  0.1130856E+00
         21   -1    0    0  503  502  0.00000000000E+00  0.00000000000E+00  0.22481645109E+03  0.22481645109E+03  0.00000000000E+00 0. -1.
         21   -1    0    0  501  503 -0.00000000000E+00 -0.00000000000E+00 -0.24834724098E+03  0.24834724098E+03  0.00000000000E+00 0. -1.
          6    1    1    2  501    0  0.77126262219E+02  0.12121177964E+03  0.63212553727E+02  0.23285313568E+03  0.17200000000E+03 0. -1.
         -6    1    1    2    0  502 -0.77126262219E+02 -0.12121177964E+03 -0.86743343617E+02  0.24031055638E+03  0.17200000000E+03 0. -1.
</event>
<event>
 4    1  0.4394643E+000  0.3066574E+03  0.7818608E-02  0.1081959E+00
         21   -1    0    0  501  502  0.00000000000E+00  0.00000000000E+00  0.37306937751E+03  0.37306937751E+03  0.00000000000E+00 0. -1.
         21   -1    0    0  502  503 -0.00000000000E+00 -0.00000000000E+00 -0.32930571746E+03  0.32930571746E+03  0.00000000000E+00 0.  1.
          6    1    1    2  501    0 -0.65605452433E+01 -0.25379462810E+03  0.19196248728E+03  0.36178495067E+03  0.17200000000E+03 0. -1.
         -6    1    1    2    0  503  0.65605452433E+01  0.25379462810E+03 -0.14819882723E+03  0.34059014431E+03  0.17200000000E+03 0.  1.
</event>
<event>
 4    1  0.4394643E+000  0.2185760E+03  0.7818608E-02  0.1134949E+00
         21   -1    0    0  503  502  0.00000000000E+00  0.00000000000E+00  0.69865382007E+02  0.69865382007E+02  0.00000000000E+00 0.  1.
         21   -1    0    0  501  503 -0.00000000000E+00 -0.00000000000E+00 -0.11818831585E+04  0.11818831585E+04  0.00000000000E+00 0.  1.
          6    1    1    2  501    0 -0.76047827367E+01 -0.13466113628E+03 -0.96230377441E+03  0.98681508328E+03  0.17200000000E+03 0.  1.
         -6    1    1    2    0  502  0.76047827367E+01  0.13466113628E+03 -0.14971400210E+03  0.26493345725E+03  0.17200000000E+03 0.  1.
</event>
<event>
 4    1  0.4394643E+000  0.1913102E+03  0.7818608E-02  0.1157285E+00
         21   -1    0    0  503  502  0.00000000000E+00  0.00000000000E+00  0.58448901245E+03  0.58448901245E+03  0.00000000000E+00 0.  1.
         21   -1    0    0  501  503 -0.00000000000E+00 -0.00000000000E+00 -0.15894909888E+03  0.15894909888E+03  0.00000000000E+00 0.  1.
          6    1    1    2  501    0 -0.57533556203E+02 -0.60872793276E+02 -0.76610209373E+02  0.20607942942E+03  0.17200000000E+03 0.  1.
         -6    1    1    2    0  502  0.57533556203E+02  0.60872793276E+02  0.50215012295E+03  0.53735868191E+03  0.17200000000E+03 0.  1.
</event>
<event>
 4    1  0.4394643E+000  0.2361456E+03  0.7818608E-02  0.1122387E+00
         21   -1    0    0  501  502  0.00000000000E+00  0.00000000000E+00  0.93668524496E+03  0.93668524496E+03  0.00000000000E+00 0.  1.
         21   -1    0    0  502  503 -0.00000000000E+00 -0.00000000000E+00 -0.64426223595E+02  0.64426223595E+02  0.00000000000E+00 0.  1.
          6    1    1    2  501    0 -0.12069248326E+03 -0.10776853762E+03  0.57406272518E+03  0.62073564877E+03  0.17200000000E+03 0.  1.
         -6    1    1    2    0  503  0.12069248326E+03  0.10776853762E+03  0.29819629618E+03  0.38037581978E+03  0.17200000000E+03 0.  1.
</event>
<event>
 4    1  0.4394643E+000  0.1870899E+03  0.7818608E-02  0.1161113E+00
         21   -1    0    0  501  502  0.00000000000E+00  0.00000000000E+00  0.18092005618E+02  0.18092005618E+02  0.00000000000E+00 0.  1.
         21   -1    0    0  502  503 -0.00000000000E+00 -0.00000000000E+00 -0.19438055272E+04  0.19438055272E+04  0.00000000000E+00 0.  1.
          6    1    1    2  501    0  0.54553166103E+02  0.49422646909E+02 -0.89572683183E+03  0.91505693987E+03  0.17200000000E+03 0. -1.
         -6    1    1    2    0  503 -0.54553166103E+02 -0.49422646909E+02 -0.10299866898E+04  0.10468405929E+04  0.17200000000E+03 0. -1.
</event>
<event>
 4    1  0.4394643E+000  0.2346012E+03  0.7818608E-02  0.1123442E+00
         21   -1    0    0  503  502  0.00000000000E+00  0.00000000000E+00  0.10353337527E+03  0.10353337527E+03  0.00000000000E+00 0. -1.
         21   -1    0    0  501  503 -0.00000000000E+00 -0.00000000000E+00 -0.73103699484E+03  0.73103699484E+03  0.00000000000E+00 0. -1.
          6    1    1    2  501    0  0.15113513357E+03  0.51106861901E+02 -0.53170964400E+03  0.58116511032E+03  0.17200000000E+03 0. -1.
         -6    1    1    2    0  502 -0.15113513357E+03 -0.51106861901E+02 -0.95793975568E+02  0.25340525978E+03  0.17200000000E+03 0. -1.
</event>
<event>
 4    1  0.4394643E+000  0.1751755E+03  0.7818608E-02  0.1172556E+00
         21   -1    0    0  503  502  0.00000000000E+00  0.00000000000E+00  0.21536864232E+03  0.21536864232E+03  0.00000000000E+00 0. -1.
         21   -1    0    0  501  503 -0.00000000000E+00 -0.00000000000E+00 -0.15704347418E+03  0.15704347418E+03  0.00000000000E+00 0. -1.
          6    1    1    2  501    0 -0.18997311298E+02  0.27231255737E+02 -0.27535299829E+02  0.17732634283E+03  0.17200000000E+03 0. -1.
         -6    1    1    2    0  502  0.18997311298E+02 -0.27231255737E+02  0.85860467969E+02  0.19508577366E+03  0.17200000000E+03 0. -1.
</event>
<event>
 4    1  0.4394643E+000  0.1722912E+03  0.7818608E-02  0.1175479E+00
         21   -1    0    0  503  502  0.00000000000E+00  0.00000000000E+00  0.74003131301E+02  0.74003131301E+02  0.00000000000E+00 0.  1.
         21   -1    0    0  501  503 -0.00000000000E+00 -0.00000000000E+00 -0.48144835910E+03  0.48144835910E+03  0.00000000000E+00 0.  1.
          6    1    1    2  501    0  0.81044545168E+01  0.58789855700E+01 -0.90281164930E+02  0.19451203920E+03  0.17200000000E+03 0.  1.
         -6    1    1    2    0  502 -0.81044545168E+01 -0.58789855700E+01 -0.31716406287E+03  0.36093945120E+03  0.17200000000E+03 0.  1.
</event>
<event>
 4    1  0.4394643E+000  0.3154692E+03  0.7818608E-02  0.1077754E+00
         21   -1    0    0  501  502  0.00000000000E+00  0.00000000000E+00  0.28601836968E+03  0.28601836968E+03  0.00000000000E+00 0. -1.
         21   -1    0    0  502  503 -0.00000000000E+00 -0.00000000000E+00 -0.38060837839E+03  0.38060837839E+03  0.00000000000E+00 0.  1.
          6    1    1    2  501    0 -0.82946133436E+02  0.25111107809E+03 -0.14492732359E+03  0.34716676643E+03  0.17200000000E+03 0.  1.
         -6    1    1    2    0  503  0.82946133436E+02 -0.25111107809E+03  0.50337314883E+02  0.31945998163E+03  0.17200000000E+03 0. -1.
</event>
<event>
 4    1  0.4394643E+000  0.4047390E+03  0.7818608E-02  0.1042151E+00
         21   -1    0    0  501  502  0.00000000000E+00  0.00000000000E+00  0.36009803630E+03  0.36009803630E+03  0.00000000000E+00 0. -1.
         21   -1    0    0  502  503 -0.00000000000E+00 -0.00000000000E+00 -0.12912093455E+04  0.12912093455E+04  0.00000000000E+00 0.  1.
          6    1    1    2  501    0  0.14869637646E+03  0.33484176271E+03  0.19892057626E+03  0.45098005952E+03  0.17200000000E+03 0. -1.
         -6    1    1    2    0  503 -0.14869637646E+03 -0.33484176271E+03 -0.11300318854E+04  0.12003273222E+04  0.17200000000E+03 0.  1.
</event>
<event>
 4    1  0.4394643E+000  0.1759907E+03  0.7818608E-02  0.1171741E+00
         21   -1    0    0  503  502  0.00000000000E+00  0.00000000000E+00  0.20719049178E+03  0.20719049178E+03  0.00000000000E+00 0.  1.
         21   -1    0    0  501  503 -0.00000000000E+00 -0.00000000000E+00 -0.22023941966E+03  0.22023941966E+03  0.00000000000E+00 0.  1.
          6    1    1    2  501    0  0.11076683869E+02 -0.35581332345E+02 -0.12765441231E+03  0.21741290928E+03  0.17200000000E+03 0.  1.
         -6    1    1    2    0  502 -0.11076683869E+02  0.35581332345E+02  0.11460548444E+03  0.21001700217E+03  0.17200000000E+03 0.  1.
</event>
<event>
 4    1  0.4394643E+000  0.2159483E+03  0.7818608E-02  0.1136940E+00
         21   -1    0    0  503  502  0.00000000000E+00  0.00000000000E+00  0.48231099742E+03  0.48231099742E+03  0.00000000000E+00 0. -1.
         21   -1    0    0  501  503 -0.00000000000E+00 -0.00000000000E+00 -0.10379489356E+03  0.10379489356E+03  0.00000000000E+00 0.  1.
          6    1    1    2  501    0  0.12647282313E+03  0.32469580866E+02  0.11257483045E+03  0.24352975408E+03  0.17200000000E+03 0. -1.
         -6    1    1    2    0  502 -0.12647282313E+03 -0.32469580866E+02  0.26594127341E+03  0.34257613690E+03  0.17200000000E+03 0. -1.
</event>
<event>
 4    1  0.4394643E+000  0.1824365E+03  0.7818608E-02  0.1165466E+00
         21   -1    0    0  503  502  0.00000000000E+00  0.00000000000E+00  0.25458785844E+03  0.25458785844E+03  0.00000000000E+00 0.  1.
         21   -1    0    0  501  503 -0.00000000000E+00 -0.00000000000E+00 -0.22490034330E+03  0.22490034330E+03  0.00000000000E+00 0.  1.
          6    1    1    2  501    0  0.42137429292E+02 -0.43857769513E+02 -0.14028872273E+03  0.23013907234E+03  0.17200000000E+03 0.  1.
         -6    1    1    2    0  502 -0.42137429292E+02  0.43857769513E+02  0.16997623787E+03  0.24934912940E+03  0.17200000000E+03 0.  1.
</event>
<event>
 4    1  0.4394643E+000  0.1751330E+03  0.7818608E-02  0.1172598E+00
         21   -1    0    0  503  502  0.00000000000E+00  0.00000000000E+00  0.11102537266E+03  0.11102537266E+03  0.00000000000E+00 0.  1.
         21   -1    0    0  501  503 -0.00000000000E+00 -0.00000000000E+00 -0.32682950045E+03  0.32682950045E+03  0.00000000000E+00 0.  1.
          6    1    1    2  501    0  0.26867294794E+02 -0.19123402606E+02 -0.19402047712E+03  0.26137234283E+03  0.17200000000E+03 0.  1.
         -6    1    1    2    0  502 -0.26867294794E+02  0.19123402606E+02 -0.21783650672E+02  0.17648253028E+03  0.17200000000E+03 0.  1.
</event>
<event>
 4    1  0.4394643E+000  0.2128648E+03  0.7818608E-02  0.1139317E+00
         21   -1    0    0  501  502  0.00000000000E+00  0.00000000000E+00  0.10386077850E+03  0.10386077850E+03  0.00000000000E+00 0.  1.
         21   -1    0    0  502  503 -0.00000000000E+00 -0.00000000000E+00 -0.48930945736E+03  0.48930945736E+03  0.00000000000E+00 0. -1.
          6    1    1    2  501    0 -0.12494944993E+03  0.10727219344E+02 -0.95078603065E+02  0.23313382215E+03  0.17200000000E+03 0.  1.
         -6    1    1    2    0  503  0.12494944993E+03 -0.10727219344E+02 -0.29037007580E+03  0.36003641370E+03  0.17200000000E+03 0.  1.
</event>
<event>
 4    1  0.4394643E+000  0.3410179E+03  0.7818608E-02  0.1066363E+00
         21   -1    0    0  503  502  0.00000000000E+00  0.00000000000E+00  0.11475065665E+04  0.11475065665E+04  0.00000000000E+00 0. -1.
         21   -1    0    0  501  503 -0.00000000000E+00 -0.00000000000E+00 -0.10660812482E+03  0.10660812482E+03  0.00000000000E+00 0.  1.
          6    1    1    2  501    0  0.62482223966E+02 -0.28775893500E+03  0.38111319377E+03  0.51141030440E+03  0.17200000000E+03 0.  1.
         -6    1    1    2    0  502 -0.62482223966E+02  0.28775893500E+03  0.65978524792E+03  0.74270438692E+03  0.17200000000E+03 0. -1.
</event>
<event>
 4    1  0.4394643E+000  0.2109320E+03  0.7818608E-02  0.1140830E+00
         21   -1    0    0  503  502  0.00000000000E+00  0.00000000000E+00  0.13632490483E+03  0.13632490483E+03  0.00000000000E+00 0. -1.
         21   -1    0    0  501  503 -0.00000000000E+00 -0.00000000000E+00 -0.32653947102E+03  0.32653947102E+03  0.00000000000E+00 0. -1.
          6    1    1    2  501    0 -0.67058199562E+01  0.12191535573E+03 -0.10038386955E+03  0.23360060627E+03  0.17200000000E+03 0. -1.
         -6    1    1    2    0  502  0.67058199562E+01 -0.12191535573E+03 -0.89830696638E+02  0.22926376958E+03  0.17200000000E+03 0. -1.
</event>
<event>
 4    1  0.4394643E+000  0.1800024E+03  0.7818608E-02  0.1167801E+00
         21   -1    0    0  501  502  0.00000000000E+00  0.00000000000E+00  0.63616747031E+03  0.63616747031E+03  0.00000000000E+00 0. -1.
         21   -1    0    0  502  503 -0.00000000000E+00 -0.00000000000E+00 -0.64830983477E+02  0.64830983477E+02  0.00000000000E+00 0. -1.
          6    1    1    2  501    0 -0.52937631240E+02 -0.38052296649E+01  0.44796032233E+03  0.48277253750E+03  0.17200000000E+03 0. -1.
         -6    1    1    2    0  503  0.52937631240E+02  0.38052296649E+01  0.12337616450E+03  0.21822591629E+03  0.17200000000E+03 0. -1.
</event>
<event>
 4    1  0.4394643E+000  0.1918343E+03  0.7818608E-02  0.1156817E+00
         21   -1    0    0  501  502  0.00000000000E+00  0.00000000000E+00  0.13116427504E+03  0.13116427504E+03  0.00000000000E+00 0. -1.
         21   -1    0    0  502  503 -0.00000000000E+00 -0.00000000000E+00 -0.28105086396E+03  0.28105086396E+03  0.00000000000E+00 0. -1.
          6    1    1    2  501    0 -0.27823683738E+02  0.80263460727E+02 -0.66392284054E+02  0.20299831498E+03  0.17200000000E+03 0. -1.
         -6    1    1    2    0  503  0.27823683738E+02 -0.80263460727E+02 -0.83494304873E+02  0.20921682401E+03  0.17200000000E+03 0. -1.
</event>
<event>
 4    1  0.4394643E+000  0.1841252E+03  0.7818608E-02  0.1163869E+00
         21   -1    0    0  503  502  0.00000000000E+00  0.00000000000E+00  0.50808290224E+02  0.50808290224E+02  0.00000000000E+00 0.  1.
         21   -1    0    0  501  503 -0.00000000000E+00 -0.00000000000E+00 -0.66851688568E+03  0.66851688568E+03  0.00000000000E+00 0.  1.
          6    1    1    2  501    0  0.41798641042E+02  0.50704799129E+02 -0.29323036738E+03  0.34624579622E+03  0.17200000000E+03 0.  1.
         -6    1    1    2    0  502 -0.41798641042E+02 -0.50704799129E+02 -0.32447822808E+03  0.37307937968E+03  0.17200000000E+03 0.  1.
</event>
<event>
 4    1  0.4394643E+000  0.1977615E+03  0.7818608E-02  0.1151641E+00
         21   -1    0    0  503  502  0.00000000000E+00  0.00000000000E+00  0.65897550710E+02  0.65897550710E+02  0.00000000000E+00 0.  1.
         21   -1    0    0  501  503 -0.00000000000E+00 -0.00000000000E+00 -0.67926741666E+03  0.67926741666E+03  0.00000000000E+00 0.  1.
          6    1    1    2  501    0 -0.12606135025E+02  0.96781704412E+02 -0.17428565402E+03  0.26360026963E+03  0.17200000000E+03 0.  1.
         -6    1    1    2    0  502  0.12606135025E+02 -0.96781704412E+02 -0.43908421193E+03  0.48156469775E+03  0.17200000000E+03 0.  1.
</event>
<event>
 4    1  0.4394643E+000  0.2531100E+03  0.7818608E-02  0.1111355E+00
         21   -1    0    0  503  502  0.00000000000E+00  0.00000000000E+00  0.88327712758E+03  0.88327712758E+03  0.00000000000E+00 0. -1.
         21   -1    0    0  501  503 -0.00000000000E+00 -0.00000000000E+00 -0.87514859401E+02  0.87514859401E+02  0.00000000000E+00 0.  1.
          6    1    1    2  501    0 -0.12121286125E+03  0.14067019074E+03  0.19703093418E+03  0.32075824123E+03  0.17200000000E+03 0.  1.
         -6    1    1    2    0  502  0.12121286125E+03 -0.14067019074E+03  0.59873133400E+03  0.65003374574E+03  0.17200000000E+03 0. -1.
</event>
<event>
 4    1  0.4394643E+000  0.2199208E+03  0.7818608E-02  0.1133942E+00
         21   -1    0    0  503  502  0.00000000000E+00  0.00000000000E+00  0.27339421070E+04  0.27339421070E+04  0.00000000000E+00 0. -1.
         21   -1    0    0  501  503 -0.00000000000E+00 -0.00000000000E+00 -0.19818802311E+02  0.19818802311E+02  0.00000000000E+00 0. -1.
          6    1    1    2  501    0  0.82558914472E+02 -0.10938549585E+03  0.90587024344E+03  0.93218348999E+03  0.17200000000E+03 0. -1.
         -6    1    1    2    0  502 -0.82558914472E+02  0.10938549585E+03  0.18082530613E+04  0.18215774193E+04  0.17200000000E+03 0. -1.
</event>
<event>
 4    1  0.4394643E+000  0.1771584E+03  0.7818608E-02  0.1170582E+00
         21   -1    0    0  501  502  0.00000000000E+00  0.00000000000E+00  0.32030905215E+03  0.32030905215E+03  0.00000000000E+00 0.  1.
         21   -1    0    0  502  503 -0.00000000000E+00 -0.00000000000E+00 -0.10255222685E+03  0.10255222685E+03  0.00000000000E+00 0.  1.
          6    1    1    2  501    0  0.16827368983E+02  0.38960954733E+02  0.15350318434E+03  0.23441063104E+03  0.17200000000E+03 0.  1.
         -6    1    1    2    0  503 -0.16827368983E+02 -0.38960954733E+02  0.64253640956E+02  0.18845064796E+03  0.17200000000E+03 0.  1.
</event>
<event>
 4    1  0.4394643E+000  0.1798963E+03  0.7818608E-02  0.1167903E+00
         21   -1    0    0  503  502  0.00000000000E+00  0.00000000000E+00  0.19683759838E+03  0.19683759838E+03  0.00000000000E+00 0. -1.
         21   -1    0    0  501  503 -0.00000000000E+00 -0.00000000000E+00 -0.51886670484E+03  0.51886670484E+03  0.00000000000E+00 0. -1.
          6    1    1    2  501    0  0.44688246065E+02  0.27957855852E+02 -0.45678544166E+03  0.49093341784E+03  0.17200000000E+03 0. -1.
         -6    1    1    2    0  502 -0.44688246065E+02 -0.27957855852E+02  0.13475633520E+03  0.22477088539E+03  0.17200000000E+03 0. -1.
</event>
<event>
 4    1  0.4394643E+000  0.2154654E+03  0.7818608E-02  0.1137310E+00
         21   -1    0    0  503  502  0.00000000000E+00  0.00000000000E+00  0.11597785073E+03  0.11597785073E+03  0.00000000000E+00 0. -1.
         21   -1    0    0  501  503 -0.00000000000E+00 -0.00000000000E+00 -0.43295895992E+03  0.43295895992E+03  0.00000000000E+00 0. -1.
          6    1    1    2  501    0  0.93183339425E+02  0.90322881308E+02 -0.23387872232E+03  0.31800096602E+03  0.17200000000E+03 0. -1.
         -6    1    1    2    0  502 -0.93183339425E+02 -0.90322881308E+02 -0.83102386864E+02  0.23093584463E+03  0.17200000000E+03 0. -1.
</event>
<event>
 4    1  0.4394643E+000  0.2070374E+03  0.7818608E-02  0.1143934E+00
         21   -1    0    0  503  502  0.00000000000E+00  0.00000000000E+00  0.42378747669E+03  0.42378747669E+03  0.00000000000E+00 0. -1.
         21   -1    0    0  501  503 -0.00000000000E+00 -0.00000000000E+00 -0.13381418676E+03  0.13381418676E+03  0.00000000000E+00 0.  1.
          6    1    1    2  501    0  0.10946023478E+03 -0.36040991376E+02  0.72326758576E+01  0.20716372186E+03  0.17200000000E+03 0.  1.
         -6    1    1    2    0  502 -0.10946023478E+03  0.36040991376E+02  0.28274061407E+03  0.35043794159E+03  0.17200000000E+03 0. -1.
</event>
<event>
 4    1  0.4394643E+000  0.2097948E+03  0.7818608E-02  0.1141729E+00
         21   -1    0    0  501  502  0.00000000000E+00  0.00000000000E+00  0.50904769739E+02  0.50904769739E+02  0.00000000000E+00 0. -1.
         21   -1    0    0  502  503 -0.00000000000E+00 -0.00000000000E+00 -0.18530966596E+04  0.18530966596E+04  0.00000000000E+00 0. -1.
          6    1    1    2  501    0  0.80901632607E+02  0.88796232608E+02 -0.20580108732E+03  0.29388421636E+03  0.17200000000E+03 0. -1.
         -6    1    1    2    0  503 -0.80901632607E+02 -0.88796232608E+02 -0.15963908025E+04  0.16101172129E+04  0.17200000000E+03 0. -1.
</event>
<event>
 4    1  0.4394643E+000  0.2260434E+03  0.7818608E-02  0.1129456E+00
         21   -1    0    0  501  502  0.00000000000E+00  0.00000000000E+00  0.74145798235E+02  0.74145798235E+02  0.00000000000E+00 0.  1.
         21   -1    0    0  502  503 -0.00000000000E+00 -0.00000000000E+00 -0.76400851859E+03  0.76400851859E+03  0.00000000000E+00 0.  1.
          6    1    1    2  501    0 -0.62919348451E+02 -0.13248694270E+03 -0.21372904918E+03  0.31108799536E+03  0.17200000000E+03 0.  1.
         -6    1    1    2    0  503  0.62919348451E+02  0.13248694270E+03 -0.47613367117E+03  0.52706632146E+03  0.17200000000E+03 0.  1.
</event>
<event>
 4    1  0.4394643E+000  0.1818053E+03  0.7818608E-02  0.1166067E+00
         21   -1    0    0  501  502  0.00000000000E+00  0.00000000000E+00  0.31406984392E+03  0.31406984392E+03  0.00000000000E+00 0. -1.
         21   -1    0    0  502  503 -0.00000000000E+00 -0.00000000000E+00 -0.11007473788E+03  0.11007473788E+03  0.00000000000E+00 0.  1.
          6    1    1    2  501    0  0.11388541320E+02 -0.57788099666E+02  0.14643629732E+03  0.23344539514E+03  0.17200000000E+03 0. -1.
         -6    1    1    2    0  503 -0.11388541320E+02  0.57788099666E+02  0.57558808717E+02  0.19069918667E+03  0.17200000000E+03 0. -1.
</event>
<event>
 4    1  0.4394643E+000  0.2198261E+03  0.7818608E-02  0.1134013E+00
         21   -1    0    0  501  502  0.00000000000E+00  0.00000000000E+00  0.61643725261E+03  0.61643725261E+03  0.00000000000E+00 0. -1.
         21   -1    0    0  502  503 -0.00000000000E+00 -0.00000000000E+00 -0.37433650998E+03  0.37433650998E+03  0.00000000000E+00 0. -1.
          6    1    1    2  501    0 -0.12855958446E+03  0.47031190855E+02  0.56152292157E+03  0.60301864906E+03  0.17200000000E+03 0. -1.
         -6    1    1    2    0  503  0.12855958446E+03 -0.47031190855E+02 -0.31942217894E+03  0.38775511353E+03  0.17200000000E+03 0. -1.
</event>
<event>
 4    1  0.4394643E+000  0.3019891E+03  0.7818608E-02  0.1084250E+00
         21   -1    0    0  503  502  0.00000000000E+00  0.00000000000E+00  0.45719537118E+03  0.45719537118E+03  0.00000000000E+00 0.  1.
         21   -1    0    0  501  503 -0.00000000000E+00 -0.00000000000E+00 -0.69281698035E+03  0.69281698035E+03  0.00000000000E+00 0. -1.
          6    1    1    2  501    0  0.11503507027E+03 -0.21995529950E+03 -0.60303099966E+03  0.67442107597E+03  0.17200000000E+03 0. -1.
         -6    1    1    2    0  502 -0.11503507027E+03  0.21995529950E+03  0.36740939049E+03  0.47559127556E+03  0.17200000000E+03 0.  1.
</event>
<event>
 4    1  0.4394643E+000  0.2143931E+03  0.7818608E-02  0.1138134E+00
         21   -1    0    0  503  502  0.00000000000E+00  0.00000000000E+00  0.83101842649E+03  0.83101842649E+03  0.00000000000E+00 0.  1.
         21   -1    0    0  501  503 -0.00000000000E+00 -0.00000000000E+00 -0.77752021841E+02  0.77752021841E+02  0.00000000000E+00 0.  1.
          6    1    1    2  501    0  0.12158225951E+03 -0.39976827581E+02  0.13252045616E+03  0.25204377372E+03  0.17200000000E+03 0.  1.
         -6    1    1    2    0  502 -0.12158225951E+03  0.39976827581E+02  0.62074594850E+03  0.65672667461E+03  0.17200000000E+03 0.  1.
</event>
<event>
 4    1  0.4394643E+000  0.2139964E+03  0.7818608E-02  0.1138440E+00
         21   -1    0    0  503  502  0.00000000000E+00  0.00000000000E+00  0.21745940632E+03  0.21745940632E+03  0.00000000000E+00 0.  1.
         21   -1    0    0  501  503 -0.00000000000E+00 -0.00000000000E+00 -0.37314016912E+03  0.37314016912E+03  0.00000000000E+00 0. -1.
          6    1    1    2  501    0 -0.12513695011E+03  0.23478064666E+02 -0.27274525197E+03  0.34667628745E+03  0.17200000000E+03 0. -1.
         -6    1    1    2    0  502  0.12513695011E+03 -0.23478064666E+02  0.11706448917E+03  0.24392328800E+03  0.17200000000E+03 0.  1.
</event>
<event>
 4    1  0.4394643E+000  0.1993953E+03  0.7818608E-02  0.1150250E+00
         21   -1    0    0  503  502  0.00000000000E+00  0.00000000000E+00  0.18291230574E+03  0.18291230574E+03  0.00000000000E+00 0. -1.
         21   -1    0    0  501  503 -0.00000000000E+00 -0.00000000000E+00 -0.38381357192E+03  0.38381357192E+03  0.00000000000E+00 0. -1.
          6    1    1    2  501    0 -0.52401145055E+02  0.86189348402E+02 -0.28705624518E+03  0.34951362159E+03  0.17200000000E+03 0. -1.
         -6    1    1    2    0  502  0.52401145055E+02 -0.86189348402E+02  0.86154979000E+02  0.21721225607E+03  0.17200000000E+03 0. -1.
</event>
<event>
 4    1  0.4394643E+000  0.1864025E+03  0.7818608E-02  0.1161747E+00
         21   -1    0    0  501  502  0.00000000000E+00  0.00000000000E+00  0.39320370014E+03  0.39320370014E+03  0.00000000000E+00 0. -1.
         21   -1    0    0  502  503 -0.00000000000E+00 -0.00000000000E+00 -0.11119195282E+03  0.11119195282E+03  0.00000000000E+00 0. -1.
          6    1    1    2  501    0 -0.34639921928E+02 -0.62944118097E+02  0.25527211873E+03  0.31608502147E+03  0.17200000000E+03 0. -1.
         -6    1    1    2    0  503  0.34639921928E+02  0.62944118097E+02  0.26739628592E+02  0.18831063149E+03  0.17200000000E+03 0. -1.
</event>
<event>
 4    1  0.4394643E+000  0.3865557E+03  0.7818608E-02  0.1048537E+00
         21   -1    0    0  501  502  0.00000000000E+00  0.00000000000E+00  0.11367146274E+04  0.11367146274E+04  0.00000000000E+00 0. -1.
         21   -1    0    0  502  503 -0.00000000000E+00 -0.00000000000E+00 -0.14538991383E+03  0.14538991383E+03  0.00000000000E+00 0.  1.
          6    1    1    2  501    0  0.28777702821E+03  0.19242067878E+03  0.69413415937E+03  0.79451089784E+03  0.17200000000E+03 0. -1.
         -6    1    1    2    0  503 -0.28777702821E+03 -0.19242067878E+03  0.29719055424E+03  0.48759364343E+03  0.17200000000E+03 0.  1.
</event>
<event>
 4    1  0.4394643E+000  0.1724205E+03  0.7818608E-02  0.1175347E+00
         21   -1    0    0  503  502  0.00000000000E+00  0.00000000000E+00  0.12246369064E+03  0.12246369064E+03  0.00000000000E+00 0.  1.
         21   -1    0    0  501  503 -0.00000000000E+00 -0.00000000000E+00 -0.40706613740E+03  0.40706613740E+03  0.00000000000E+00 0.  1.
          6    1    1    2  501    0 -0.10933301057E+02 -0.50283189545E+01  0.25911890513E+02  0.17435666644E+03  0.17200000000E+03 0.  1.
         -6    1    1    2    0  502  0.10933301057E+02  0.50283189545E+01 -0.31051433727E+03  0.35517316159E+03  0.17200000000E+03 0.  1.
</event>
<event>
 4    1  0.4394643E+000  0.1948114E+03  0.7818608E-02  0.1154192E+00
         21   -1    0    0  501  502  0.00000000000E+00  0.00000000000E+00  0.22658780588E+03  0.22658780588E+03  0.00000000000E+00 0. -1.
         21   -1    0    0  502  503 -0.00000000000E+00 -0.00000000000E+00 -0.29449334913E+03  0.29449334913E+03  0.00000000000E+00 0. -1.
          6    1    1    2  501    0 -0.58477016192E+02 -0.70341337911E+02  0.13714452511E+03  0.23824375335E+03  0.17200000000E+03 0. -1.
         -6    1    1    2    0  503  0.58477016192E+02  0.70341337911E+02 -0.20505006837E+03  0.28283740166E+03  0.17200000000E+03 0. -1.
</event>
<event>
 4    1  0.4394643E+000  0.2141967E+03  0.7818608E-02  0.1138285E+00
         21   -1    0    0  503  502  0.00000000000E+00  0.00000000000E+00  0.46257453433E+03  0.46257453433E+03  0.00000000000E+00 0.  1.
         21   -1    0    0  501  503 -0.00000000000E+00 -0.00000000000E+00 -0.99220684421E+02  0.99220684421E+02  0.00000000000E+00 0.  1.
          6    1    1    2  501    0 -0.12337405726E+02  0.12705913134E+03  0.18703947066E+03  0.28436595792E+03  0.17200000000E+03 0.  1.
         -6    1    1    2    0  502  0.12337405726E+02 -0.12705913134E+03  0.17631437926E+03  0.27742926084E+03  0.17200000000E+03 0.  1.
</event>
<event>
 4    1  0.4394643E+000  0.2426397E+03  0.7818608E-02  0.1118047E+00
         21   -1    0    0  501  502  0.00000000000E+00  0.00000000000E+00  0.34402309738E+03  0.34402309738E+03  0.00000000000E+00 0. -1.
         21   -1    0    0  502  503 -0.00000000000E+00 -0.00000000000E+00 -0.23067459568E+03  0.23067459568E+03  0.00000000000E+00 0. -1.
          6    1    1    2  501    0 -0.12727282719E+03 -0.11441868615E+03  0.20266205986E+03  0.31614224455E+03  0.17200000000E+03 0. -1.
         -6    1    1    2    0  503  0.12727282719E+03  0.11441868615E+03 -0.89313558161E+02  0.25855544851E+03  0.17200000000E+03 0. -1.
</event>
<event>
 4    1  0.4394643E+000  0.1778787E+03  0.7818608E-02  0.1169872E+00
         21   -1    0    0  501  502  0.00000000000E+00  0.00000000000E+00  0.44200597295E+03  0.44200597295E+03  0.00000000000E+00 0.  1.
         21   -1    0    0  502  503 -0.00000000000E+00 -0.00000000000E+00 -0.19957546027E+03  0.19957546027E+03  0.00000000000E+00 0.  1.
          6    1    1    2  501    0  0.19685617399E+02 -0.40857116896E+02  0.37811145326E+03  0.41786253556E+03  0.17200000000E+03 0.  1.
         -6    1    1    2    0  503 -0.19685617399E+02  0.40857116896E+02 -0.13568094058E+03  0.22371889766E+03  0.17200000000E+03 0.  1.
</event>
<event>
 4    1  0.4394643E+000  0.2184291E+03  0.7818608E-02  0.1135060E+00
         21   -1    0    0  501  502  0.00000000000E+00  0.00000000000E+00  0.19046969325E+03  0.19046969325E+03  0.00000000000E+00 0.  1.
         21   -1    0    0  502  503 -0.00000000000E+00 -0.00000000000E+00 -0.33516365947E+03  0.33516365947E+03  0.00000000000E+00 0. -1.
          6    1    1    2  501    0 -0.66064870095E+02  0.11731459759E+03  0.59749576633E+02  0.22645373429E+03  0.17200000000E+03 0.  1.
         -6    1    1    2    0  503  0.66064870095E+02 -0.11731459759E+03 -0.20444354285E+03  0.29917961842E+03  0.17200000000E+03 0.  1.
</event>
<event>
 4    1  0.4394643E+000  0.2035309E+03  0.7818608E-02  0.1146794E+00
         21   -1    0    0  501  502  0.00000000000E+00  0.00000000000E+00  0.45735701454E+03  0.45735701454E+03  0.00000000000E+00 0. -1.
         21   -1    0    0  502  503 -0.00000000000E+00 -0.00000000000E+00 -0.16150593539E+03  0.16150593539E+03  0.00000000000E+00 0. -1.
          6    1    1    2  501    0  0.96792929496E+02  0.49718819697E+02  0.35298979112E+03  0.40746364852E+03  0.17200000000E+03 0. -1.
         -6    1    1    2    0  503 -0.96792929496E+02 -0.49718819697E+02 -0.57138711968E+02  0.21139930141E+03  0.17200000000E+03 0. -1.
</event>
<event>
 4    1  0.4394643E+000  0.2576767E+03  0.7818608E-02  0.1108547E+00
         21   -1    0    0  501  502  0.00000000000E+00  0.00000000000E+00  0.38934604919E+03  0.38934604919E+03  0.00000000000E+00 0. -1.
         21   -1    0    0  502  503 -0.00000000000E+00 -0.00000000000E+00 -0.14288132887E+04  0.14288132887E+04  0.00000000000E+00 0.  1.
          6    1    1    2  501    0 -0.37680268205E+02 -0.18813148738E+03  0.33337140188E+03  0.42134754152E+03  0.17200000000E+03 0. -1.
         -6    1    1    2    0  503  0.37680268205E+02  0.18813148738E+03 -0.13728386414E+04  0.13968117964E+04  0.17200000000E+03 0.  1.
</event>
<event>
 4    1  0.4394643E+000  0.2927061E+03  0.7818608E-02  0.1088945E+00
         21   -1    0    0  501  502  0.00000000000E+00  0.00000000000E+00  0.47305424782E+03  0.47305424782E+03  0.00000000000E+00 0.  1.
         21   -1    0    0  502  503 -0.00000000000E+00 -0.00000000000E+00 -0.85029901671E+03  0.85029901671E+03  0.00000000000E+00 0. -1.
          6    1    1    2  501    0 -0.93679673262E+02 -0.21752461589E+03  0.39837072012E+03  0.49434408093E+03  0.17200000000E+03 0.  1.
         -6    1    1    2    0  503  0.93679673262E+02  0.21752461589E+03 -0.77561548901E+03  0.82900918360E+03  0.17200000000E+03 0. -1.
</event>
<event>
 4    1  0.4394643E+000  0.2066024E+03  0.7818608E-02  0.1144285E+00
         21   -1    0    0  503  502  0.00000000000E+00  0.00000000000E+00  0.30148086812E+04  0.30148086812E+04  0.00000000000E+00 0.  1.
         21   -1    0    0  501  503 -0.00000000000E+00 -0.00000000000E+00 -0.14616009910E+02  0.14616009910E+02  0.00000000000E+00 0.  1.
          6    1    1    2  501    0  0.11443903719E+03 -0.20652376659E+01  0.17681440195E+04  0.17801735399E+04  0.17200000000E+03 0.  1.
         -6    1    1    2    0  502 -0.11443903719E+03  0.20652376659E+01  0.12320486517E+04  0.12492511512E+04  0.17200000000E+03 0.  1.
</event>
<event>
 4    1  0.4394643E+000  0.1845610E+03  0.7818608E-02  0.1163460E+00
         21   -1    0    0  501  502  0.00000000000E+00  0.00000000000E+00  0.28083702279E+03  0.28083702279E+03  0.00000000000E+00 0. -1.
         21   -1    0    0  502  503 -0.00000000000E+00 -0.00000000000E+00 -0.12737746366E+03  0.12737746366E+03  0.00000000000E+00 0. -1.
          6    1    1    2  501    0 -0.27565700325E+02 -0.60982707258E+02  0.12134938711E+03  0.22088103624E+03  0.17200000000E+03 0. -1.
         -6    1    1    2    0  503  0.27565700325E+02  0.60982707258E+02  0.32110172018E+02  0.18733345021E+03  0.17200000000E+03 0. -1.
</event>
<event>
 4    1  0.4394643E+000  0.1962388E+03  0.7818608E-02  0.1152952E+00
         21   -1    0    0  501  502  0.00000000000E+00  0.00000000000E+00  0.11829650184E+04  0.11829650184E+04  0.00000000000E+00 0. -1.
         21   -1    0    0  502  503 -0.00000000000E+00 -0.00000000000E+00 -0.36243267029E+02  0.36243267029E+02  0.00000000000E+00 0. -1.
          6    1    1    2  501    0 -0.94475407593E+02  0.23072743944E+00  0.76786710152E+03  0.79254623932E+03  0.17200000000E+03 0. -1.
         -6    1    1    2    0  503  0.94475407593E+02 -0.23072743944E+00  0.37885464989E+03  0.42666204615E+03  0.17200000000E+03 0. -1.
</event>
<event>
 4    1  0.4394643E+000  0.1965595E+03  0.7818608E-02  0.1152675E+00
         21   -1    0    0  503  502  0.00000000000E+00  0.00000000000E+00  0.82175031965E+02  0.82175031965E+02  0.00000000000E+00 0.  1.
         21   -1    0    0  501  503 -0.00000000000E+00 -0.00000000000E+00 -0.10708184007E+04  0.10708184007E+04  0.00000000000E+00 0. -1.
          6    1    1    2  501    0  0.25180918644E+02  0.91747329287E+02 -0.92609088108E+03  0.94672064048E+03  0.17200000000E+03 0. -1.
         -6    1    1    2    0  502 -0.25180918644E+02 -0.91747329287E+02 -0.62552487696E+02  0.20627279222E+03  0.17200000000E+03 0.  1.
</event>
<event>
 4    1  0.4394643E+000  0.2411314E+03  0.7818608E-02  0.1119041E+00
         21   -1    0    0  501  502  0.00000000000E+00  0.00000000000E+00  0.25795374815E+04  0.25795374815E+04  0.00000000000E+00 0.  1.
         21   -1    0    0  502  503 -0.00000000000E+00 -0.00000000000E+00 -0.25442073306E+02  0.25442073306E+02  0.00000000000E+00 0. -1.
          6    1    1    2  501    0  0.89680421448E+02 -0.14324033747E+03  0.17168990456E+04  0.17337493201E+04  0.17200000000E+03 0. -1.
         -6    1    1    2    0  503 -0.89680421448E+02  0.14324033747E+03  0.83719636257E+03  0.87123023465E+03  0.17200000000E+03 0. -1.
</event>
<event>
 4    1  0.4394643E+000  0.2265972E+03  0.7818608E-02  0.1129058E+00
         21   -1    0    0  503  502  0.00000000000E+00  0.00000000000E+00  0.30726083737E+02  0.30726083737E+02  0.00000000000E+00 0. -1.
         21   -1    0    0  501  503 -0.00000000000E+00 -0.00000000000E+00 -0.16829253185E+04  0.16829253185E+04  0.00000000000E+00 0. -1.
          6    1    1    2  501    0  0.14752033234E+03  0.23348007737E+00 -0.75427063849E+03  0.78757253574E+03  0.17200000000E+03 0. -1.
         -6    1    1    2    0  502 -0.14752033234E+03 -0.23348007737E+00 -0.89792859626E+03  0.92607886649E+03  0.17200000000E+03 0. -1.
</event>
<event>
 4    1  0.4394643E+000  0.1837428E+03  0.7818608E-02  0.1164229E+00
         21   -1    0    0  503  502  0.00000000000E+00  0.00000000000E+00  0.14859308902E+03  0.14859308902E+03  0.00000000000E+00 0.  1.
         21   -1    0    0  501  503 -0.00000000000E+00 -0.00000000000E+00 -0.24713913208E+03  0.24713913208E+03  0.00000000000E+00 0. -1.
          6    1    1    2  501    0  0.13073510339E+02 -0.63296840232E+02 -0.10546525751E+03  0.21185921551E+03  0.17200000000E+03 0.  1.
         -6    1    1    2    0  502 -0.13073510339E+02  0.63296840232E+02  0.69192144563E+01  0.18387300559E+03  0.17200000000E+03 0.  1.
</event>
<event>
 4    1  0.4394643E+000  0.1936060E+03  0.7818608E-02  0.1155249E+00
         21   -1    0    0  501  502  0.00000000000E+00  0.00000000000E+00  0.50117924368E+02  0.50117924368E+02  0.00000000000E+00 0.  1.
         21   -1    0    0  502  503 -0.00000000000E+00 -0.00000000000E+00 -0.74960492961E+03  0.74960492961E+03  0.00000000000E+00 0.  1.
          6    1    1    2  501    0 -0.64395116556E+02 -0.61258220987E+02 -0.33068541054E+03  0.38319204248E+03  0.17200000000E+03 0.  1.
         -6    1    1    2    0  503  0.64395116556E+02  0.61258220987E+02 -0.36880159471E+03  0.41653081151E+03  0.17200000000E+03 0.  1.
</event>
<event>
 4    1  0.4394643E+000  0.1936851E+03  0.7818608E-02  0.1155179E+00
         21   -1    0    0  501  502  0.00000000000E+00  0.00000000000E+00  0.10064232921E+03  0.10064232921E+03  0.00000000000E+00 0.  1.
         21   -1    0    0  502  503 -0.00000000000E+00 -0.00000000000E+00 -0.45331695304E+03  0.45331695304E+03  0.00000000000E+00 0.  1.
          6    1    1    2  501    0  0.76202670801E+02 -0.46076653324E+02 -0.59565142587E+02  0.20263738853E+03  0.17200000000E+03 0.  1.
         -6    1    1    2    0  503 -0.76202670801E+02  0.46076653324E+02 -0.29310948124E+03  0.35132189373E+03  0.17200000000E+03 0.  1.
</event>
<event>
 4    1  0.4394643E+000  0.2868597E+03  0.7818608E-02  0.1092000E+00
         21   -1    0    0  501  502  0.00000000000E+00  0.00000000000E+00  0.33370396591E+03  0.33370396591E+03  0.00000000000E+00 0. -1.
         21   -1    0    0  502  503 -0.00000000000E+00 -0.00000000000E+00 -0.26140371579E+03  0.26140371579E+03  0.00000000000E+00 0.  1.
          6    1    1    2  501    0 -0.63744446463E+02 -0.22054739793E+03  0.10698090043E+03  0.30615914529E+03  0.17200000000E+03 0. -1.
         -6    1    1    2    0  503  0.63744446463E+02  0.22054739793E+03 -0.34680650307E+02  0.28894853641E+03  0.17200000000E+03 0.  1.
</event>
<event>
 4    1  0.4394643E+000  0.1809103E+03  0.7818608E-02  0.1166925E+00
         21   -1    0    0  501  502  0.00000000000E+00  0.00000000000E+00  0.24332174359E+03  0.24332174359E+03  0.00000000000E+00 0. -1.
         21   -1    0    0  502  503 -0.00000000000E+00 -0.00000000000E+00 -0.14473572603E+03  0.14473572603E+03  0.00000000000E+00 0. -1.
          6    1    1    2  501    0  0.37974093172E+01  0.55947439665E+02  0.10087330643E+03  0.20713271174E+03  0.17200000000E+03 0. -1.
         -6    1    1    2    0  503 -0.37974093172E+01 -0.55947439665E+02 -0.22872888720E+01  0.18092475788E+03  0.17200000000E+03 0. -1.
</event>
<event>
 4    1  0.4394643E+000  0.2418682E+03  0.7818608E-02  0.1118554E+00
         21   -1    0    0  503  502  0.00000000000E+00  0.00000000000E+00  0.48533999825E+03  0.48533999825E+03  0.00000000000E+00 0.  1.
         21   -1    0    0  501  503 -0.00000000000E+00 -0.00000000000E+00 -0.12603564889E+03  0.12603564889E+03  0.00000000000E+00 0.  1.
          6    1    1    2  501    0 -0.15853934360E+03 -0.61494026778E+02  0.11578817365E+03  0.26815506700E+03  0.17200000000E+03 0.  1.
         -6    1    1    2    0  502  0.15853934360E+03  0.61494026778E+02  0.24351617572E+03  0.34322058014E+03  0.17200000000E+03 0.  1.
</event>
<event>
 4    1  0.4394643E+000  0.1720473E+03  0.7818608E-02  0.1175730E+00
         21   -1    0    0  501  502  0.00000000000E+00  0.00000000000E+00  0.67798739239E+02  0.67798739239E+02  0.00000000000E+00 0.  1.
         21   -1    0    0  502  503 -0.00000000000E+00 -0.00000000000E+00 -0.49765649781E+03  0.49765649781E+03  0.00000000000E+00 0.  1.
          6    1    1    2  501    0  0.10809314713E+01 -0.38848778256E+01 -0.11589029495E+03  0.20743871662E+03  0.17200000000E+03 0.  1.
         -6    1    1    2    0  503 -0.10809314713E+01  0.38848778256E+01 -0.31396746363E+03  0.35801652044E+03  0.17200000000E+03 0.  1.
</event>
<event>
 4    1  0.4394643E+000  0.2015878E+03  0.7818608E-02  0.1148406E+00
         21   -1    0    0  503  502  0.00000000000E+00  0.00000000000E+00  0.50332113740E+02  0.50332113740E+02  0.00000000000E+00 0. -1.
         21   -1    0    0  501  503 -0.00000000000E+00 -0.00000000000E+00 -0.11443385899E+04  0.11443385899E+04  0.00000000000E+00 0.  1.
          6    1    1    2  501    0  0.28659542851E+02  0.10115462354E+03 -0.87113605168E+03  0.89415638889E+03  0.17200000000E+03 0.  1.
         -6    1    1    2    0  502 -0.28659542851E+02 -0.10115462354E+03 -0.22287042448E+03  0.30051431475E+03  0.17200000000E+03 0. -1.
</event>
<event>
 4    1  0.4394643E+000  0.1781433E+03  0.7818608E-02  0.1169612E+00
         21   -1    0    0  503  502  0.00000000000E+00  0.00000000000E+00  0.59353249190E+03  0.59353249190E+03  0.00000000000E+00 0.  1.
         21   -1    0    0  501  503 -0.00000000000E+00 -0.00000000000E+00 -0.54208090001E+02  0.54208090001E+02  0.00000000000E+00 0.  1.
          6    1    1    2  501    0 -0.25923061723E+02  0.38458050851E+02  0.23182092764E+03  0.29236273582E+03  0.17200000000E+03 0.  1.
         -6    1    1    2    0  502  0.25923061723E+02 -0.38458050851E+02  0.30750347426E+03  0.35537784608E+03  0.17200000000E+03 0.  1.
</event>
<event>
 4    1  0.4394643E+000  0.1974019E+03  0.7818608E-02  0.1151950E+00
         21   -1    0    0  503  502  0.00000000000E+00  0.00000000000E+00  0.23434381581E+03  0.23434381581E+03  0.00000000000E+00 0.  1.
         21   -1    0    0  501  503 -0.00000000000E+00 -0.00000000000E+00 -0.21469269070E+03  0.21469269070E+03  0.00000000000E+00 0.  1.
          6    1    1    2  501    0  0.25364988409E+02  0.93488748725E+02 -0.96786556356E+02  0.21985260123E+03  0.17200000000E+03 0.  1.
         -6    1    1    2    0  502 -0.25364988409E+02 -0.93488748725E+02  0.11643768146E+03  0.22918390528E+03  0.17200000000E+03 0.  1.
</event>
<event>
 4    1  0.4394643E+000  0.1723895E+03  0.7818608E-02  0.1175379E+00
         21   -1    0    0  503  502  0.00000000000E+00  0.00000000000E+00  0.17135933104E+03  0.17135933104E+03  0.00000000000E+00 0.  1.
         21   -1    0    0  501  503 -0.00000000000E+00 -0.00000000000E+00 -0.18315526776E+03  0.18315526776E+03  0.00000000000E+00 0.  1.
          6    1    1    2  501    0 -0.95724622110E+01 -0.65190353431E+01  0.34956433958E+02  0.17589793100E+03  0.17200000000E+03 0.  1.
         -6    1    1    2    0  502  0.95724622110E+01  0.65190353431E+01 -0.46752370679E+02  0.17861666781E+03  0.17200000000E+03 0.  1.
</event>
<event>
 4    1  0.4394643E+000  0.1783997E+03  0.7818608E-02  0.1169361E+00
         21   -1    0    0  501  502  0.00000000000E+00  0.00000000000E+00  0.35253876718E+03  0.35253876718E+03  0.00000000000E+00 0. -1.
         21   -1    0    0  502  503 -0.00000000000E+00 -0.00000000000E+00 -0.10693062558E+03  0.10693062558E+03  0.00000000000E+00 0. -1.
          6    1    1    2  501    0 -0.37355331022E+02  0.29104024180E+02  0.21346454777E+03  0.27819701317E+03  0.17200000000E+03 0. -1.
         -6    1    1    2    0  503  0.37355331022E+02 -0.29104024180E+02  0.32143593822E+02  0.18127237959E+03  0.17200000000E+03 0. -1.
</event>
<event>
 4    1  0.4394643E+000  0.1750123E+03  0.7818608E-02  0.1172719E+00
         21   -1    0    0  501  502  0.00000000000E+00  0.00000000000E+00  0.36653051858E+02  0.36653051858E+02  0.00000000000E+00 0.  1.
         21   -1    0    0  502  503 -0.00000000000E+00 -0.00000000000E+00 -0.93207938098E+03  0.93207938098E+03  0.00000000000E+00 0.  1.
          6    1    1    2  501    0 -0.26621472394E+02  0.18347044323E+02 -0.29192295501E+03  0.34036499304E+03  0.17200000000E+03 0.  1.
         -6    1    1    2    0  503  0.26621472394E+02 -0.18347044323E+02 -0.60350337412E+03  0.62836743980E+03  0.17200000000E+03 0.  1.
</event>
<event>
 4    1  0.4394643E+000  0.2388344E+03  0.7818608E-02  0.1120572E+00
         21   -1    0    0  503  502  0.00000000000E+00  0.00000000000E+00  0.73628715151E+03  0.73628715151E+03  0.00000000000E+00 0. -1.
         21   -1    0    0  501  503 -0.00000000000E+00 -0.00000000000E+00 -0.78231742439E+02  0.78231742439E+02  0.00000000000E+00 0. -1.
          6    1    1    2  501    0  0.24898859055E+02  0.16382276118E+03  0.28890127442E+03  0.37484102847E+03  0.17200000000E+03 0. -1.
         -6    1    1    2    0  502 -0.24898859055E+02 -0.16382276118E+03  0.36915413465E+03  0.43967786548E+03  0.17200000000E+03 0. -1.
</event>
<event>
 4    1  0.4394643E+000  0.1842614E+03  0.7818608E-02  0.1163741E+00
         21   -1    0    0  501  502  0.00000000000E+00  0.00000000000E+00  0.22207645818E+03  0.22207645818E+03  0.00000000000E+00 0.  1.
         21   -1    0    0  502  503 -0.00000000000E+00 -0.00000000000E+00 -0.15314244416E+03  0.15314244416E+03  0.00000000000E+00 0.  1.
          6    1    1    2  501    0 -0.61913658920E+02  0.23129396430E+02  0.42151709973E+02  0.18902126016E+03  0.17200000000E+03 0.  1.
         -6    1    1    2    0  503  0.61913658920E+02 -0.23129396430E+02  0.26782304048E+02  0.18619764217E+03  0.17200000000E+03 0.  1.
</event>
<event>
 4    1  0.4394643E+000  0.1988279E+03  0.7818608E-02  0.1150732E+00
         21   -1    0    0  503  502  0.00000000000E+00  0.00000000000E+00  0.71686368827E+02  0.71686368827E+02  0.00000000000E+00 0.  1.
         21   -1    0    0  501  503 -0.00000000000E+00 -0.00000000000E+00 -0.88502243549E+03  0.88502243549E+03  0.00000000000E+00 0. -1.
          6    1    1    2  501    0 -0.82711262981E+02 -0.55743910593E+02 -0.70033684646E+03  0.72801389760E+03  0.17200000000E+03 0.  1.
         -6    1    1    2    0  502  0.82711262981E+02  0.55743910593E+02 -0.11299922021E+03  0.22869490672E+03  0.17200000000E+03 0.  1.
</event>
<event>
 4    1  0.4394643E+000  0.2573798E+03  0.7818608E-02  0.1108728E+00
         21   -1    0    0  501  502  0.00000000000E+00  0.00000000000E+00  0.51943840214E+02  0.51943840214E+02  0.00000000000E+00 0. -1.
         21   -1    0    0  502  503 -0.00000000000E+00 -0.00000000000E+00 -0.13087240634E+04  0.13087240634E+04  0.00000000000E+00 0. -1.
          6    1    1    2  501    0  0.10769967231E+03  0.15830706003E+03 -0.51967697232E+03  0.57992111552E+03  0.17200000000E+03 0. -1.
         -6    1    1    2    0  503 -0.10769967231E+03 -0.15830706003E+03 -0.73710325084E+03  0.78074678806E+03  0.17200000000E+03 0. -1.
</event>
<event>
 4    1  0.4394643E+000  0.3121562E+03  0.7818608E-02  0.1079317E+00
         21   -1    0    0  501  502  0.00000000000E+00  0.00000000000E+00  0.13737701041E+03  0.13737701041E+03  0.00000000000E+00 0.  1.
         21   -1    0    0  502  503 -0.00000000000E+00 -0.00000000000E+00 -0.75900533124E+03  0.75900533124E+03  0.00000000000E+00 0. -1.
          6    1    1    2  501    0 -0.39227817860E+02  0.25752410117E+03 -0.42550884608E+03  0.52773029330E+03  0.17200000000E+03 0.  1.
         -6    1    1    2    0  503  0.39227817860E+02 -0.25752410117E+03 -0.19611947475E+03  0.36865204835E+03  0.17200000000E+03 0. -1.
</event>
<event>
 4    1  0.4394643E+000  0.1918797E+03  0.7818608E-02  0.1156777E+00
         21   -1    0    0  503  502  0.00000000000E+00  0.00000000000E+00  0.10135730066E+03  0.10135730066E+03  0.00000000000E+00 0.  1.
         21   -1    0    0  501  503 -0.00000000000E+00 -0.00000000000E+00 -0.99051107057E+03  0.99051107057E+03  0.00000000000E+00 0.  1.
          6    1    1    2  501    0  0.40259156211E+02 -0.74920020110E+02 -0.87902265941E+03  0.89972142623E+03  0.17200000000E+03 0.  1.
         -6    1    1    2    0  502 -0.40259156211E+02  0.74920020110E+02 -0.10131110504E+02  0.19214694500E+03  0.17200000000E+03 0.  1.
</event>
<event>
 4    1  0.4394643E+000  0.2335517E+03  0.7818608E-02  0.1124165E+00
         21   -1    0    0  501  502  0.00000000000E+00  0.00000000000E+00  0.26759418600E+03  0.26759418600E+03  0.00000000000E+00 0.  1.
         21   -1    0    0  502  503 -0.00000000000E+00 -0.00000000000E+00 -0.20586521530E+03  0.20586521530E+03  0.00000000000E+00 0.  1.
          6    1    1    2  501    0 -0.14806555430E+03  0.55127127417E+02  0.73847613722E+01  0.23366844727E+03  0.17200000000E+03 0.  1.
         -6    1    1    2    0  503  0.14806555430E+03 -0.55127127417E+02  0.54344209327E+02  0.23979095403E+03  0.17200000000E+03 0.  1.
</event>
<event>
 4    1  0.4394643E+000  0.4789188E+03  0.7818608E-02  0.1019433E+00
         21   -1    0    0  503  502  0.00000000000E+00  0.00000000000E+00  0.71195936479E+03  0.71195936479E+03  0.00000000000E+00 0. -1.
         21   -1    0    0  501  503 -0.00000000000E+00 -0.00000000000E+00 -0.33192966070E+03  0.33192966070E+03  0.00000000000E+00 0.  1.
          6    1    1    2  501    0  0.42993262905E+03 -0.12221776716E+03  0.10045973781E+03  0.48934181004E+03  0.17200000000E+03 0.  1.
         -6    1    1    2    0  502 -0.42993262905E+03  0.12221776716E+03  0.27956996628E+03  0.55454721546E+03  0.17200000000E+03 0. -1.
</event>
<event>
 4    1  0.4394643E+000  0.2622467E+03  0.7818608E-02  0.1105801E+00
         21   -1    0    0  501  502  0.00000000000E+00  0.00000000000E+00  0.14524925824E+03  0.14524925824E+03  0.00000000000E+00 0. -1.
         21   -1    0    0  502  503 -0.00000000000E+00 -0.00000000000E+00 -0.47693115097E+03  0.47693115097E+03  0.00000000000E+00 0. -1.
          6    1    1    2  501    0 -0.19679138736E+03 -0.21505755854E+02 -0.19228478503E+03  0.32518730945E+03  0.17200000000E+03 0. -1.
         -6    1    1    2    0  503  0.19679138736E+03  0.21505755854E+02 -0.13939710770E+03  0.29699309977E+03  0.17200000000E+03 0. -1.
</event>
<event>
 4    1  0.4394643E+000  0.1978434E+03  0.7818608E-02  0.1151571E+00
         21   -1    0    0  503  502  0.00000000000E+00  0.00000000000E+00  0.87885182645E+03  0.87885182645E+03  0.00000000000E+00 0. -1.
         21   -1    0    0  501  503 -0.00000000000E+00 -0.00000000000E+00 -0.74085087884E+02  0.74085087884E+02  0.00000000000E+00 0.  1.
          6    1    1    2  501    0 -0.97339768948E+02  0.91095716741E+01  0.10147899381E+03  0.22235107623E+03  0.17200000000E+03 0.  1.
         -6    1    1    2    0  502  0.97339768948E+02 -0.91095716741E+01  0.70328774476E+03  0.73058583811E+03  0.17200000000E+03 0. -1.
</event>
<event>
 4    1  0.4394643E+000  0.3849288E+03  0.7818608E-02  0.1049127E+00
         21   -1    0    0  503  502  0.00000000000E+00  0.00000000000E+00  0.26008936374E+03  0.26008936374E+03  0.00000000000E+00 0.  1.
         21   -1    0    0  501  503 -0.00000000000E+00 -0.00000000000E+00 -0.58054555712E+03  0.58054555712E+03  0.00000000000E+00 0. -1.
          6    1    1    2  501    0  0.12840455876E+03 -0.31952843251E+03 -0.10275062954E+03  0.39840662866E+03  0.17200000000E+03 0.  1.
         -6    1    1    2    0  502 -0.12840455876E+03  0.31952843251E+03 -0.21770556384E+03  0.44222829220E+03  0.17200000000E+03 0. -1.
</event>
<event>
 4    1  0.4394643E+000  0.2058109E+03  0.7818608E-02  0.1144927E+00
         21   -1    0    0  501  502  0.00000000000E+00  0.00000000000E+00  0.16208133682E+03  0.16208133682E+03  0.00000000000E+00 0.  1.
         21   -1    0    0  502  503 -0.00000000000E+00 -0.00000000000E+00 -0.26270047354E+03  0.26270047354E+03  0.00000000000E+00 0.  1.
          6    1    1    2  501    0  0.11210433262E+03 -0.14378269691E+02 -0.35017451746E+02  0.20876862302E+03  0.17200000000E+03 0.  1.
         -6    1    1    2    0  503 -0.11210433262E+03  0.14378269691E+02 -0.65601684974E+02  0.21601318734E+03  0.17200000000E+03 0.  1.
</event>
<event>
 4    1  0.4394643E+000  0.1951515E+03  0.7818608E-02  0.1153895E+00
         21   -1    0    0  501  502  0.00000000000E+00  0.00000000000E+00  0.52987658814E+03  0.52987658814E+03  0.00000000000E+00 0.  1.
         21   -1    0    0  502  503 -0.00000000000E+00 -0.00000000000E+00 -0.80226165980E+02  0.80226165980E+02  0.00000000000E+00 0.  1.
          6    1    1    2  501    0  0.90299639316E+02 -0.18603297507E+02  0.32325496976E+03  0.37759486624E+03  0.17200000000E+03 0.  1.
         -6    1    1    2    0  503 -0.90299639316E+02  0.18603297507E+02  0.12639545240E+03  0.23250788788E+03  0.17200000000E+03 0.  1.
</event>
<event>
 4    1  0.4394643E+000  0.1816480E+03  0.7818608E-02  0.1166218E+00
         21   -1    0    0  501  502  0.00000000000E+00  0.00000000000E+00  0.18330354372E+03  0.18330354372E+03  0.00000000000E+00 0.  1.
         21   -1    0    0  502  503 -0.00000000000E+00 -0.00000000000E+00 -0.18856330255E+03  0.18856330255E+03  0.00000000000E+00 0.  1.
          6    1    1    2  501    0 -0.46578588731E+02  0.35248275582E+02 -0.42235807400E+02  0.18649361728E+03  0.17200000000E+03 0. -1.
         -6    1    1    2    0  503  0.46578588731E+02 -0.35248275582E+02  0.36976048571E+02  0.18537322899E+03  0.17200000000E+03 0. -1.
</event>
<event>
 4    1  0.4394643E+000  0.1981218E+03  0.7818608E-02  0.1151333E+00
         21   -1    0    0  503  502  0.00000000000E+00  0.00000000000E+00  0.95910295824E+03  0.95910295824E+03  0.00000000000E+00 0. -1.
         21   -1    0    0  501  503 -0.00000000000E+00 -0.00000000000E+00 -0.10126702481E+03  0.10126702481E+03  0.00000000000E+00 0.  1.
          6    1    1    2  501    0  0.44479696021E+02  0.87691520405E+02  0.19657541693E+02  0.19909461332E+03  0.17200000000E+03 0.  1.
         -6    1    1    2    0  502 -0.44479696021E+02 -0.87691520405E+02  0.83817839174E+03  0.86127536972E+03  0.17200000000E+03 0. -1.
</event>
<event>
 4    1  0.4394643E+000  0.1897607E+03  0.7818608E-02  0.1158677E+00
         21   -1    0    0  501  502  0.00000000000E+00  0.00000000000E+00  0.13433943867E+04  0.13433943867E+04  0.00000000000E+00 0. -1.
         21   -1    0    0  502  503 -0.00000000000E+00 -0.00000000000E+00 -0.27267213522E+02  0.27267213522E+02  0.00000000000E+00 0. -1.
          6    1    1    2  501    0 -0.56811633179E+02  0.56547055771E+02  0.56879568625E+03  0.59961459612E+03  0.17200000000E+03 0. -1.
         -6    1    1    2    0  503  0.56811633179E+02 -0.56547055771E+02  0.74733148688E+03  0.77104700406E+03  0.17200000000E+03 0. -1.
</event>
<event>
 4    1  0.4394643E+000  0.1870111E+03  0.7818608E-02  0.1161185E+00
         21   -1    0    0  501  502  0.00000000000E+00  0.00000000000E+00  0.28905418817E+03  0.28905418817E+03  0.00000000000E+00 0.  1.
         21   -1    0    0  502  503 -0.00000000000E+00 -0.00000000000E+00 -0.12329951265E+03  0.12329951265E+03  0.00000000000E+00 0.  1.
          6    1    1    2  501    0 -0.22408810805E+02 -0.69906981358E+02  0.11108486109E+03  0.21751548728E+03  0.17200000000E+03 0.  1.
         -6    1    1    2    0  503  0.22408810805E+02  0.69906981358E+02  0.54669814436E+02  0.19483821354E+03  0.17200000000E+03 0.  1.
</event>
<event>
 4    1  0.4394643E+000  0.1741984E+03  0.7818608E-02  0.1173539E+00
         21   -1    0    0  503  502  0.00000000000E+00  0.00000000000E+00  0.80953983804E+02  0.80953983804E+02  0.00000000000E+00 0.  1.
         21   -1    0    0  501  503 -0.00000000000E+00 -0.00000000000E+00 -0.43956108411E+03  0.43956108411E+03  0.00000000000E+00 0.  1.
          6    1    1    2  501    0  0.21398559143E+01  0.27504924578E+02 -0.27916636308E+03  0.32905768208E+03  0.17200000000E+03 0.  1.
         -6    1    1    2    0  502 -0.21398559143E+01 -0.27504924578E+02 -0.79440737222E+02  0.19145738583E+03  0.17200000000E+03 0.  1.
</event>
<event>
 4    1  0.4394643E+000  0.2418223E+03  0.7818608E-02  0.1118585E+00
         21   -1    0    0  501  502  0.00000000000E+00  0.00000000000E+00  0.36537536299E+03  0.36537536299E+03  0.00000000000E+00 0.  1.
         21   -1    0    0  502  503 -0.00000000000E+00 -0.00000000000E+00 -0.42404907129E+03  0.42404907129E+03  0.00000000000E+00 0.  1.
          6    1    1    2  501    0  0.47340397611E+02 -0.16325723181E+03  0.28210312582E+03  0.37156454430E+03  0.17200000000E+03 0.  1.
         -6    1    1    2    0  503 -0.47340397611E+02  0.16325723181E+03 -0.34077683412E+03  0.41785988999E+03  0.17200000000E+03 0.  1.
</event>
<event>
 4    1  0.4394643E+000  0.2291239E+03  0.7818608E-02  0.1127258E+00
         21   -1    0    0  501  502  0.00000000000E+00  0.00000000000E+00  0.28286077645E+03  0.28286077645E+03  0.00000000000E+00 0. -1.
         21   -1    0    0  502  503 -0.00000000000E+00 -0.00000000000E+00 -0.21449291184E+03  0.21449291184E+03  0.00000000000E+00 0. -1.
          6    1    1    2  501    0  0.75723244892E+02 -0.13107153224E+03  0.12545991379E+03  0.26122393908E+03  0.17200000000E+03 0. -1.
         -6    1    1    2    0  503 -0.75723244892E+02  0.13107153224E+03 -0.57092049173E+02  0.23612974921E+03  0.17200000000E+03 0. -1.
</event>
<event>
 4    1  0.4394643E+000  0.1898773E+03  0.7818608E-02  0.1158572E+00
         21   -1    0    0  501  502  0.00000000000E+00  0.00000000000E+00  0.16919723516E+02  0.16919723516E+02  0.00000000000E+00 0. -1.
         21   -1    0    0  502  503 -0.00000000000E+00 -0.00000000000E+00 -0.25077773212E+04  0.25077773212E+04  0.00000000000E+00 0.  1.
          6    1    1    2  501    0  0.73975839912E+02  0.31574461255E+02 -0.17348292068E+04  0.17451893158E+04  0.17200000000E+03 0.  1.
         -6    1    1    2    0  503 -0.73975839912E+02 -0.31574461255E+02 -0.75602839094E+03  0.77950772889E+03  0.17200000000E+03 0. -1.
</event>
<event>
 4    1  0.4394643E+000  0.2652801E+03  0.7818608E-02  0.1104012E+00
         21   -1    0    0  501  502  0.00000000000E+00  0.00000000000E+00  0.29360175471E+03  0.29360175471E+03  0.00000000000E+00 0. -1.
         21   -1    0    0  502  503 -0.00000000000E+00 -0.00000000000E+00 -0.27733960584E+03  0.27733960584E+03  0.00000000000E+00 0.  1.
          6    1    1    2  501    0 -0.19856244653E+03  0.36911971523E+02  0.11331106878E+03  0.28846652686E+03  0.17200000000E+03 0. -1.
         -6    1    1    2    0  503  0.19856244653E+03 -0.36911971523E+02 -0.97048919913E+02  0.28247483369E+03  0.17200000000E+03 0.  1.
</event>
<event>
 4    1  0.4394643E+000  0.2087974E+03  0.7818608E-02  0.1142522E+00
         21   -1    0    0  503  502  0.00000000000E+00  0.00000000000E+00  0.42689645805E+03  0.42689645805E+03  0.00000000000E+00 0. -1.
         21   -1    0    0  501  503 -0.00000000000E+00 -0.00000000000E+00 -0.17055650808E+03  0.17055650808E+03  0.00000000000E+00 0.  1.
          6    1    1    2  501    0 -0.63320281093E+02 -0.10001444994E+03 -0.61051750154E+02  0.21754002940E+03  0.17200000000E+03 0.  1.
         -6    1    1    2    0  502  0.63320281093E+02  0.10001444994E+03  0.31739170012E+03  0.37991293674E+03  0.17200000000E+03 0. -1.
</event>
<event>
 4    1  0.4394643E+000  0.1734036E+03  0.7818608E-02  0.1174344E+00
         21   -1    0    0  501  502  0.00000000000E+00  0.00000000000E+00  0.24517865987E+03  0.24517865987E+03  0.00000000000E+00 0.  1.
         21   -1    0    0  502  503 -0.00000000000E+00 -0.00000000000E+00 -0.12862622750E+03  0.12862622750E+03  0.00000000000E+00 0.  1.
          6    1    1    2  501    0 -0.18815416679E+02  0.11436826615E+02  0.98595289133E+02  0.19947393801E+03  0.17200000000E+03 0.  1.
         -6    1    1    2    0  503  0.18815416679E+02 -0.11436826615E+02  0.17957143235E+02  0.17433094935E+03  0.17200000000E+03 0.  1.
</event>
<event>
 4    1  0.4394643E+000  0.3223904E+03  0.7818608E-02  0.1074554E+00
         21   -1    0    0  503  502  0.00000000000E+00  0.00000000000E+00  0.86270176799E+03  0.86270176799E+03  0.00000000000E+00 0. -1.
         21   -1    0    0  501  503 -0.00000000000E+00 -0.00000000000E+00 -0.12104427746E+03  0.12104427746E+03  0.00000000000E+00 0.  1.
          6    1    1    2  501    0  0.23745522998E+03 -0.13403949586E+03  0.40450659754E+03  0.51726314401E+03  0.17200000000E+03 0. -1.
         -6    1    1    2    0  502 -0.23745522998E+03  0.13403949586E+03  0.33715089299E+03  0.46648290144E+03  0.17200000000E+03 0.  1.
</event>
<event>
 4    1  0.4394643E+000  0.2067877E+03  0.7818608E-02  0.1144135E+00
         21   -1    0    0  501  502  0.00000000000E+00  0.00000000000E+00  0.36219375468E+03  0.36219375468E+03  0.00000000000E+00 0. -1.
         21   -1    0    0  502  503 -0.00000000000E+00 -0.00000000000E+00 -0.22588206398E+03  0.22588206398E+03  0.00000000000E+00 0. -1.
          6    1    1    2  501    0 -0.44727529642E+02  0.10571940980E+03  0.27130415362E+03  0.34112620728E+03  0.17200000000E+03 0. -1.
         -6    1    1    2    0  503  0.44727529642E+02 -0.10571940980E+03 -0.13499246293E+03  0.24694961139E+03  0.17200000000E+03 0. -1.
</event>
<event>
 4    1  0.4394643E+000  0.3237019E+03  0.7818608E-02  0.1073958E+00
         21   -1    0    0  501  502  0.00000000000E+00  0.00000000000E+00  0.10601573935E+04  0.10601573935E+04  0.00000000000E+00 0. -1.
         21   -1    0    0  502  503 -0.00000000000E+00 -0.00000000000E+00 -0.15247671879E+03  0.15247671879E+03  0.00000000000E+00 0.  1.
          6    1    1    2  501    0  0.14980290479E+03  0.22969111198E+03  0.81345776049E+03  0.87549782713E+03  0.17200000000E+03 0. -1.
         -6    1    1    2    0  503 -0.14980290479E+03 -0.22969111198E+03  0.94222914205E+02  0.33713628515E+03  0.17200000000E+03 0.  1.
</event>
<event>
 4    1  0.4394643E+000  0.1914631E+03  0.7818608E-02  0.1157148E+00
         21   -1    0    0  501  502  0.00000000000E+00  0.00000000000E+00  0.70294856821E+02  0.70294856821E+02  0.00000000000E+00 0. -1.
         21   -1    0    0  502  503 -0.00000000000E+00 -0.00000000000E+00 -0.53385819559E+03  0.53385819559E+03  0.00000000000E+00 0. -1.
          6    1    1    2  501    0  0.83791823544E+02 -0.72837232039E+01 -0.18580443453E+03  0.26679844491E+03  0.17200000000E+03 0. -1.
         -6    1    1    2    0  503 -0.83791823544E+02  0.72837232039E+01 -0.27775890424E+03  0.33735460750E+03  0.17200000000E+03 0. -1.
</event>
<event>
 4    1  0.4394643E+000  0.2642060E+03  0.7818608E-02  0.1104642E+00
         21   -1    0    0  501  502  0.00000000000E+00  0.00000000000E+00  0.57495657263E+03  0.57495657263E+03  0.00000000000E+00 0.  1.
         21   -1    0    0  502  503 -0.00000000000E+00 -0.00000000000E+00 -0.12190814736E+03  0.12190814736E+03  0.00000000000E+00 0.  1.
          6    1    1    2  501    0 -0.14094228687E+03  0.14267469666E+03  0.24882376333E+03  0.36292983136E+03  0.17200000000E+03 0.  1.
         -6    1    1    2    0  503  0.14094228687E+03 -0.14267469666E+03  0.20422466194E+03  0.33393488862E+03  0.17200000000E+03 0.  1.
</event>
<event>
 4    1  0.4394643E+000  0.2903340E+03  0.7818608E-02  0.1090175E+00
         21   -1    0    0  503  502  0.00000000000E+00  0.00000000000E+00  0.12348621594E+04  0.12348621594E+04  0.00000000000E+00 0.  1.
         21   -1    0    0  501  503 -0.00000000000E+00 -0.00000000000E+00 -0.86862216909E+02  0.86862216909E+02  0.00000000000E+00 0. -1.
          6    1    1    2  501    0 -0.11611664528E+03  0.20304369683E+03  0.26818573933E+03  0.39524348054E+03  0.17200000000E+03 0. -1.
         -6    1    1    2    0  502  0.11611664528E+03 -0.20304369683E+03  0.87981420317E+03  0.92648089577E+03  0.17200000000E+03 0.  1.
</event>
<event>
 4    1  0.4394643E+000  0.2362825E+03  0.7818608E-02  0.1122294E+00
         21   -1    0    0  501  502  0.00000000000E+00  0.00000000000E+00  0.47953024684E+03  0.47953024684E+03  0.00000000000E+00 0.  1.
         21   -1    0    0  502  503 -0.00000000000E+00 -0.00000000000E+00 -0.25416008260E+03  0.25416008260E+03  0.00000000000E+00 0.  1.
          6    1    1    2  501    0  0.68017943096E+02 -0.14703398339E+03  0.38273932646E+03  0.44979864926E+03  0.17200000000E+03 0.  1.
         -6    1    1    2    0  503 -0.68017943096E+02  0.14703398339E+03 -0.15736916222E+03  0.28389168018E+03  0.17200000000E+03 0.  1.
</event>
<event>
 4    1  0.4394643E+000  0.1959177E+03  0.7818608E-02  0.1153230E+00
         21   -1    0    0  503  502  0.00000000000E+00  0.00000000000E+00  0.87698982151E+02  0.87698982151E+02  0.00000000000E+00 0. -1.
         21   -1    0    0  501  503 -0.00000000000E+00 -0.00000000000E+00 -0.12354545044E+04  0.12354545044E+04  0.00000000000E+00 0. -1.
          6    1    1    2  501    0 -0.83066547506E+02  0.43585256860E+02 -0.11055060216E+04  0.11227320650E+04  0.17200000000E+03 0. -1.
         -6    1    1    2    0  502  0.83066547506E+02 -0.43585256860E+02 -0.42249500677E+02  0.20042142160E+03  0.17200000000E+03 0. -1.
</event>
<event>
 4    1  0.4394643E+000  0.2523891E+03  0.7818608E-02  0.1111804E+00
         21   -1    0    0  501  502  0.00000000000E+00  0.00000000000E+00  0.30226311290E+03  0.30226311290E+03  0.00000000000E+00 0. -1.
         21   -1    0    0  502  503 -0.00000000000E+00 -0.00000000000E+00 -0.25324222308E+03  0.25324222308E+03  0.00000000000E+00 0.  1.
          6    1    1    2  501    0 -0.13639551039E+03  0.12454930018E+03  0.13829241188E+03  0.28779342351E+03  0.17200000000E+03 0. -1.
         -6    1    1    2    0  503  0.13639551039E+03 -0.12454930018E+03 -0.89271522058E+02  0.26771191247E+03  0.17200000000E+03 0.  1.
</event>
<event>
 4    1  0.4394643E+000  0.1978186E+03  0.7818608E-02  0.1151593E+00
         21   -1    0    0  503  502  0.00000000000E+00  0.00000000000E+00  0.26663635934E+03  0.26663635934E+03  0.00000000000E+00 0.  1.
         21   -1    0    0  501  503 -0.00000000000E+00 -0.00000000000E+00 -0.14757985730E+03  0.14757985730E+03  0.00000000000E+00 0.  1.
          6    1    1    2  501    0  0.70759104562E+02  0.67389619390E+02  0.44114919745E+02  0.20267791647E+03  0.17200000000E+03 0.  1.
         -6    1    1    2    0  502 -0.70759104562E+02 -0.67389619390E+02  0.74941582297E+02  0.21153830017E+03  0.17200000000E+03 0.  1.
</event>
<event>
 4    1  0.4394643E+000  0.2971834E+03  0.7818608E-02  0.1086657E+00
         21   -1    0    0  501  502  0.00000000000E+00  0.00000000000E+00  0.44617250788E+03  0.44617250788E+03  0.00000000000E+00 0.  1.
         21   -1    0    0  502  503 -0.00000000000E+00 -0.00000000000E+00 -0.27718816287E+03  0.27718816287E+03  0.00000000000E+00 0.  1.
          6    1    1    2  501    0 -0.76986207870E+01  0.24222858072E+03 -0.10888997892E+03  0.31650431528E+03  0.17200000000E+03 0.  1.
         -6    1    1    2    0  503  0.76986207870E+01 -0.24222858072E+03  0.27787432393E+03  0.40685635546E+03  0.17200000000E+03 0.  1.
</event>
<event>
 4    1  0.4394643E+000  0.1831915E+03  0.7818608E-02  0.1164750E+00
         21   -1    0    0  501  502  0.00000000000E+00  0.00000000000E+00  0.11088225266E+04  0.11088225266E+04  0.00000000000E+00 0.  1.
         21   -1    0    0  502  503 -0.00000000000E+00 -0.00000000000E+00 -0.90618753656E+02  0.90618753656E+02  0.00000000000E+00 0.  1.
          6    1    1    2  501    0 -0.52503398532E+02  0.34907066347E+02  0.99853140765E+03  0.10151965732E+04  0.17200000000E+03 0.  1.
         -6    1    1    2    0  503  0.52503398532E+02 -0.34907066347E+02  0.19672365324E+02  0.18424470710E+03  0.17200000000E+03 0.  1.
</event>
<event>
 4    1  0.4394643E+000  0.1821128E+03  0.7818608E-02  0.1165774E+00
         21   -1    0    0  501  502  0.00000000000E+00  0.00000000000E+00  0.25611693889E+03  0.25611693889E+03  0.00000000000E+00 0.  1.
         21   -1    0    0  502  503 -0.00000000000E+00 -0.00000000000E+00 -0.20204798651E+03  0.20204798651E+03  0.00000000000E+00 0.  1.
          6    1    1    2  501    0  0.56786825446E+02  0.18876989494E+02  0.16431259738E+03  0.24528292630E+03  0.17200000000E+03 0.  1.
         -6    1    1    2    0  503 -0.56786825446E+02 -0.18876989494E+02 -0.11024364501E+03  0.21288199910E+03  0.17200000000E+03 0.  1.
</event>
<event>
 4    1  0.4394643E+000  0.2327881E+03  0.7818608E-02  0.1124693E+00
         21   -1    0    0  503  502  0.00000000000E+00  0.00000000000E+00  0.12471898616E+04  0.12471898616E+04  0.00000000000E+00 0.  1.
         21   -1    0    0  501  503 -0.00000000000E+00 -0.00000000000E+00 -0.14358644648E+03  0.14358644648E+03  0.00000000000E+00 0. -1.
          6    1    1    2  501    0 -0.56751127949E+02 -0.14623821762E+03 -0.28918332474E+02  0.23457744301E+03  0.17200000000E+03 0. -1.
         -6    1    1    2    0  502  0.56751127949E+02  0.14623821762E+03  0.11325217476E+04  0.11561988651E+04  0.17200000000E+03 0.  1.
</event>
<event>
 4    1  0.4394643E+000  0.1955952E+03  0.7818608E-02  0.1153509E+00
         21   -1    0    0  503  502  0.00000000000E+00  0.00000000000E+00  0.33106546090E+03  0.33106546090E+03  0.00000000000E+00 0. -1.
         21   -1    0    0  501  503 -0.00000000000E+00 -0.00000000000E+00 -0.13618651501E+03  0.13618651501E+03  0.00000000000E+00 0. -1.
          6    1    1    2  501    0  0.81465311217E+02 -0.45131913238E+02  0.65149652802E+01  0.19570368238E+03  0.17200000000E+03 0. -1.
         -6    1    1    2    0  502 -0.81465311217E+02  0.45131913238E+02  0.18836398061E+03  0.27154829352E+03  0.17200000000E+03 0. -1.
</event>
<event>
 4    1  0.4394643E+000  0.2592491E+03  0.7818608E-02  0.1107595E+00
         21   -1    0    0  501  502  0.00000000000E+00  0.00000000000E+00  0.37153513075E+03  0.37153513075E+03  0.00000000000E+00 0.  1.
         21   -1    0    0  502  503 -0.00000000000E+00 -0.00000000000E+00 -0.20211928170E+03  0.20211928170E+03  0.00000000000E+00 0.  1.
          6    1    1    2  501    0  0.75076759099E+02 -0.17885635022E+03  0.17764694634E+03  0.31427464313E+03  0.17200000000E+03 0.  1.
         -6    1    1    2    0  503 -0.75076759099E+02  0.17885635022E+03 -0.82310972976E+01  0.25937976932E+03  0.17200000000E+03 0.  1.
</event>
<event>
 4    1  0.4394643E+000  0.2056979E+03  0.7818608E-02  0.1145019E+00
         21   -1    0    0  503  502  0.00000000000E+00  0.00000000000E+00  0.43042903358E+02  0.43042903358E+02  0.00000000000E+00 0.  1.
         21   -1    0    0  501  503 -0.00000000000E+00 -0.00000000000E+00 -0.11202277233E+04  0.11202277233E+04  0.00000000000E+00 0.  1.
          6    1    1    2  501    0  0.11233274917E+03 -0.10440189323E+02 -0.74215654061E+03  0.77013503677E+03  0.17200000000E+03 0.  1.
         -6    1    1    2    0  502 -0.11233274917E+03  0.10440189323E+02 -0.33502827938E+03  0.39313558994E+03  0.17200000000E+03 0.  1.
</event>
<event>
 4    1  0.4394643E+000  0.2043745E+03  0.7818608E-02  0.1146100E+00
         21   -1    0    0  501  502  0.00000000000E+00  0.00000000000E+00  0.29605271220E+02  0.29605271220E+02  0.00000000000E+00 0. -1.
         21   -1    0    0  502  503 -0.00000000000E+00 -0.00000000000E+00 -0.29732371640E+04  0.29732371640E+04  0.00000000000E+00 0.  1.
          6    1    1    2  501    0  0.11028366312E+03  0.47395524684E+01 -0.38343621002E+03  0.43450233240E+03  0.17200000000E+03 0. -1.
         -6    1    1    2    0  503 -0.11028366312E+03 -0.47395524684E+01 -0.25601956828E+04  0.25683401028E+04  0.17200000000E+03 0.  1.
</event>
<event>
 4    1  0.4394643E+000  0.1758810E+03  0.7818608E-02  0.1171850E+00
         21   -1    0    0  503  502  0.00000000000E+00  0.00000000000E+00  0.49092434484E+03  0.49092434484E+03  0.00000000000E+00 0. -1.
         21   -1    0    0  501  503 -0.00000000000E+00 -0.00000000000E+00 -0.11497145918E+03  0.11497145918E+03  0.00000000000E+00 0. -1.
          6    1    1    2  501    0 -0.32376095548E+02 -0.17375464800E+02 -0.15683348179E+02  0.17657883721E+03  0.17200000000E+03 0. -1.
         -6    1    1    2    0  502  0.32376095548E+02  0.17375464800E+02  0.39163623383E+03  0.42931696681E+03  0.17200000000E+03 0. -1.
</event>
<event>
 4    1  0.4394643E+000  0.2144172E+03  0.7818608E-02  0.1138115E+00
         21   -1    0    0  503  502  0.00000000000E+00  0.00000000000E+00  0.93779610624E+02  0.93779610624E+02  0.00000000000E+00 0. -1.
         21   -1    0    0  501  503 -0.00000000000E+00 -0.00000000000E+00 -0.64390632748E+03  0.64390632748E+03  0.00000000000E+00 0.  1.
          6    1    1    2  501    0 -0.85588701029E+02 -0.95211823193E+02 -0.45524747075E+03  0.50321464272E+03  0.17200000000E+03 0.  1.
         -6    1    1    2    0  502  0.85588701029E+02  0.95211823193E+02 -0.94879246107E+02  0.23447129539E+03  0.17200000000E+03 0. -1.
</event>
<event>
 4    1  0.4394643E+000  0.1809825E+03  0.7818608E-02  0.1166856E+00
         21   -1    0    0  501  502  0.00000000000E+00  0.00000000000E+00  0.24850335017E+04  0.24850335017E+04  0.00000000000E+00 0. -1.
         21   -1    0    0  502  503 -0.00000000000E+00 -0.00000000000E+00 -0.27476597383E+02  0.27476597383E+02  0.00000000000E+00 0. -1.
          6    1    1    2  501    0  0.16755012728E+02  0.53758138319E+02  0.21349301627E+04  0.21425875635E+04  0.17200000000E+03 0. -1.
         -6    1    1    2    0  503 -0.16755012728E+02 -0.53758138319E+02  0.32262674162E+03  0.36992253554E+03  0.17200000000E+03 0. -1.
</event>
<event>
 4    1  0.4394643E+000  0.2030507E+03  0.7818608E-02  0.1147190E+00
         21   -1    0    0  501  502  0.00000000000E+00  0.00000000000E+00  0.87465551347E+02  0.87465551347E+02  0.00000000000E+00 0. -1.
         21   -1    0    0  502  503 -0.00000000000E+00 -0.00000000000E+00 -0.49951587668E+03  0.49951587668E+03  0.00000000000E+00 0. -1.
          6    1    1    2  501    0 -0.10756721907E+03  0.86526738279E+01 -0.13637144299E+03  0.24459506505E+03  0.17200000000E+03 0. -1.
         -6    1    1    2    0  503  0.10756721907E+03 -0.86526738279E+01 -0.27567888235E+03  0.34238636298E+03  0.17200000000E+03 0. -1.
</event>
<event>
 4    1  0.4394643E+000  0.2225496E+03  0.7818608E-02  0.1131996E+00
         21   -1    0    0  503  502  0.00000000000E+00  0.00000000000E+00  0.45908568380E+03  0.45908568380E+03  0.00000000000E+00 0.  1.
         21   -1    0    0  501  503 -0.00000000000E+00 -0.00000000000E+00 -0.13149958780E+03  0.13149958780E+03  0.00000000000E+00 0.  1.
          6    1    1    2  501    0  0.45276459424E+02 -0.13376982924E+03  0.38656753863E+02  0.22588198160E+03  0.17200000000E+03 0.  1.
         -6    1    1    2    0  502 -0.45276459424E+02  0.13376982924E+03  0.28892934213E+03  0.36470329000E+03  0.17200000000E+03 0.  1.
</event>
<event>
 4    1  0.4394643E+000  0.2361229E+03  0.7818608E-02  0.1122403E+00
         21   -1    0    0  501  502  0.00000000000E+00  0.00000000000E+00  0.11079835945E+03  0.11079835945E+03  0.00000000000E+00 0.  1.
         21   -1    0    0  502  503 -0.00000000000E+00 -0.00000000000E+00 -0.97133369632E+03  0.97133369632E+03  0.00000000000E+00 0.  1.
          6    1    1    2  501    0  0.14863579226E+03 -0.63854903431E+02 -0.54646827808E+02  0.24236403038E+03  0.17200000000E+03 0.  1.
         -6    1    1    2    0  503 -0.14863579226E+03  0.63854903431E+02 -0.80588850906E+03  0.83976802539E+03  0.17200000000E+03 0.  1.
</event>
<event>
 4    1  0.4394643E+000  0.2385604E+03  0.7818608E-02  0.1120756E+00
         21   -1    0    0  501  502  0.00000000000E+00  0.00000000000E+00  0.64851500594E+03  0.64851500594E+03  0.00000000000E+00 0.  1.
         21   -1    0    0  502  503 -0.00000000000E+00 -0.00000000000E+00 -0.96596559541E+02  0.96596559541E+02  0.00000000000E+00 0.  1.
          6    1    1    2  501    0  0.15285577120E+03  0.62945766867E+02  0.38866634522E+03  0.45604011256E+03  0.17200000000E+03 0.  1.
         -6    1    1    2    0  503 -0.15285577120E+03 -0.62945766867E+02  0.16325210117E+03  0.28907145292E+03  0.17200000000E+03 0.  1.
</event>
<event>
 4    1  0.4394643E+000  0.2449983E+03  0.7818608E-02  0.1116507E+00
         21   -1    0    0  501  502  0.00000000000E+00  0.00000000000E+00  0.43196501539E+02  0.43196501539E+02  0.00000000000E+00 0.  1.
         21   -1    0    0  502  503 -0.00000000000E+00 -0.00000000000E+00 -0.18059940345E+04  0.18059940345E+04  0.00000000000E+00 0.  1.
          6    1    1    2  501    0 -0.11837339708E+03  0.12817129884E+03 -0.43741563457E+03  0.50135474502E+03  0.17200000000E+03 0.  1.
         -6    1    1    2    0  503  0.11837339708E+03 -0.12817129884E+03 -0.13253818984E+04  0.13478357911E+04  0.17200000000E+03 0.  1.
</event>
<event>
 4    1  0.4394643E+000  0.1728155E+03  0.7818608E-02  0.1174943E+00
         21   -1    0    0  501  502  0.00000000000E+00  0.00000000000E+00  0.78732007979E+02  0.78732007979E+02  0.00000000000E+00 0. -1.
         21   -1    0    0  502  503 -0.00000000000E+00 -0.00000000000E+00 -0.47926727461E+03  0.47926727461E+03  0.00000000000E+00 0. -1.
          6    1    1    2  501    0 -0.60141889709E+00 -0.16758539010E+02 -0.72863332258E+02  0.18754806190E+03  0.17200000000E+03 0. -1.
         -6    1    1    2    0  503  0.60141889709E+00  0.16758539010E+02 -0.32767193438E+03  0.37045122069E+03  0.17200000000E+03 0. -1.
</event>
<event>
 4    1  0.4394643E+000  0.1936739E+03  0.7818608E-02  0.1155189E+00
         21   -1    0    0  501  502  0.00000000000E+00  0.00000000000E+00  0.97091489738E+02  0.97091489738E+02  0.00000000000E+00 0. -1.
         21   -1    0    0  502  503 -0.00000000000E+00 -0.00000000000E+00 -0.39015375743E+03  0.39015375743E+03  0.00000000000E+00 0.  1.
          6    1    1    2  501    0  0.40944580105E+02  0.79051397227E+02 -0.12242030268E+03  0.22912073794E+03  0.17200000000E+03 0. -1.
         -6    1    1    2    0  503 -0.40944580105E+02 -0.79051397227E+02 -0.17064196501E+03  0.25812450923E+03  0.17200000000E+03 0.  1.
</event>
<event>
 4    1  0.4394643E+000  0.2019368E+03  0.7818608E-02  0.1148115E+00
         21   -1    0    0  503  502  0.00000000000E+00  0.00000000000E+00  0.56778145115E+03  0.56778145115E+03  0.00000000000E+00 0. -1.
         21   -1    0    0  501  503 -0.00000000000E+00 -0.00000000000E+00 -0.89175525265E+02  0.89175525265E+02  0.00000000000E+00 0. -1.
          6    1    1    2  501    0  0.15339208987E+02  0.10468606159E+03  0.94394355280E+02  0.22290975109E+03  0.17200000000E+03 0. -1.
         -6    1    1    2    0  502 -0.15339208987E+02 -0.10468606159E+03  0.38421157061E+03  0.43404722532E+03  0.17200000000E+03 0. -1.
</event>
<event>
 4    1  0.4394643E+000  0.2640733E+03  0.7818608E-02  0.1104720E+00
         21   -1    0    0  503  502  0.00000000000E+00  0.00000000000E+00  0.75734961991E+02  0.75734961991E+02  0.00000000000E+00 0.  1.
         21   -1    0    0  501  503 -0.00000000000E+00 -0.00000000000E+00 -0.96360228778E+03  0.96360228778E+03  0.00000000000E+00 0. -1.
          6    1    1    2  501    0  0.60988452284E+02  0.19086941509E+03 -0.55349236765E+03  0.61326056940E+03  0.17200000000E+03 0. -1.
         -6    1    1    2    0  502 -0.60988452284E+02 -0.19086941509E+03 -0.33437495814E+03  0.42607668038E+03  0.17200000000E+03 0.  1.
</event>
<event>
 4    1  0.4394643E+000  0.2132366E+03  0.7818608E-02  0.1139028E+00
         21   -1    0    0  503  502  0.00000000000E+00  0.00000000000E+00  0.16533661243E+03  0.16533661243E+03  0.00000000000E+00 0.  1.
         21   -1    0    0  501  503 -0.00000000000E+00 -0.00000000000E+00 -0.28001828546E+03  0.28001828546E+03  0.00000000000E+00 0.  1.
          6    1    1    2  501    0 -0.43714639605E+02 -0.11821546947E+03 -0.87109430893E+02  0.23034304828E+03  0.17200000000E+03 0.  1.
         -6    1    1    2    0  502  0.43714639605E+02  0.11821546947E+03 -0.27572242142E+02  0.21501184962E+03  0.17200000000E+03 0.  1.
</event>
<event>
 4    1  0.4394643E+000  0.1814018E+03  0.7818608E-02  0.1166453E+00
         21   -1    0    0  503  502  0.00000000000E+00  0.00000000000E+00  0.41583061367E+02  0.41583061367E+02  0.00000000000E+00 0. -1.
         21   -1    0    0  501  503 -0.00000000000E+00 -0.00000000000E+00 -0.90580060292E+03  0.90580060292E+03  0.00000000000E+00 0. -1.
          6    1    1    2  501    0 -0.11645758252E+02 -0.56453383553E+02 -0.60049065376E+03  0.62729230304E+03  0.17200000000E+03 0. -1.
         -6    1    1    2    0  502  0.11645758252E+02  0.56453383553E+02 -0.26372688779E+03  0.32009136124E+03  0.17200000000E+03 0. -1.
</event>
<event>
 4    1  0.4394643E+000  0.2522105E+03  0.7818608E-02  0.1111916E+00
         21   -1    0    0  501  502  0.00000000000E+00  0.00000000000E+00  0.93370316321E+03  0.93370316321E+03  0.00000000000E+00 0. -1.
         21   -1    0    0  502  503 -0.00000000000E+00 -0.00000000000E+00 -0.74483009998E+02  0.74483009998E+02  0.00000000000E+00 0. -1.
          6    1    1    2  501    0 -0.15102547458E+03  0.10591234230E+03  0.57686999630E+03  0.62959440186E+03  0.17200000000E+03 0. -1.
         -6    1    1    2    0  503  0.15102547458E+03 -0.10591234230E+03  0.28235015691E+03  0.37859177134E+03  0.17200000000E+03 0. -1.
</event>
<event>
 4    1  0.4394643E+000  0.1724420E+03  0.7818608E-02  0.1175325E+00
         21   -1    0    0  501  502  0.00000000000E+00  0.00000000000E+00  0.57713129768E+03  0.57713129768E+03  0.00000000000E+00 0. -1.
         21   -1    0    0  502  503 -0.00000000000E+00 -0.00000000000E+00 -0.75535466984E+02  0.75535466984E+02  0.00000000000E+00 0. -1.
          6    1    1    2  501    0  0.12252781336E+02 -0.14534214060E+01  0.43478754763E+03  0.46773545371E+03  0.17200000000E+03 0. -1.
         -6    1    1    2    0  503 -0.12252781336E+02  0.14534214060E+01  0.66808283066E+02  0.18493131095E+03  0.17200000000E+03 0. -1.
</event>
<event>
 4    1  0.4394643E+000  0.2204929E+03  0.7818608E-02  0.1133516E+00
         21   -1    0    0  503  502  0.00000000000E+00  0.00000000000E+00  0.41950013154E+02  0.41950013154E+02  0.00000000000E+00 0.  1.
         21   -1    0    0  501  503 -0.00000000000E+00 -0.00000000000E+00 -0.12633685213E+04  0.12633685213E+04  0.00000000000E+00 0.  1.
          6    1    1    2  501    0 -0.10306766156E+03  0.91707093280E+02 -0.79836055906E+03  0.82824918719E+03  0.17200000000E+03 0.  1.
         -6    1    1    2    0  502  0.10306766156E+03 -0.91707093280E+02 -0.42305794913E+03  0.47706934730E+03  0.17200000000E+03 0.  1.
</event>
<event>
 4    1  0.4394643E+000  0.1786288E+03  0.7818608E-02  0.1169137E+00
         21   -1    0    0  503  502  0.00000000000E+00  0.00000000000E+00  0.16878680936E+03  0.16878680936E+03  0.00000000000E+00 0. -1.
         21   -1    0    0  501  503 -0.00000000000E+00 -0.00000000000E+00 -0.26126035023E+03  0.26126035023E+03  0.00000000000E+00 0. -1.
          6    1    1    2  501    0 -0.46346114436E+02 -0.13277263602E+02 -0.15928533812E+03  0.23933254478E+03  0.17200000000E+03 0. -1.
         -6    1    1    2    0  502  0.46346114436E+02  0.13277263602E+02  0.66811797238E+02  0.19071461481E+03  0.17200000000E+03 0. -1.
</event>
<event>
 4    1  0.4394643E+000  0.2347884E+03  0.7818608E-02  0.1123314E+00
         21   -1    0    0  503  502  0.00000000000E+00  0.00000000000E+00  0.17426346934E+03  0.17426346934E+03  0.00000000000E+00 0. -1.
         21   -1    0    0  501  503 -0.00000000000E+00 -0.00000000000E+00 -0.39541569547E+03  0.39541569547E+03  0.00000000000E+00 0. -1.
          6    1    1    2  501    0 -0.13090911381E+03  0.91675462102E+02 -0.23795850131E+03  0.33429004588E+03  0.17200000000E+03 0. -1.
         -6    1    1    2    0  502  0.13090911381E+03 -0.91675462102E+02  0.16806275173E+02  0.23538911894E+03  0.17200000000E+03 0. -1.
</event>
<event>
 4    1  0.4394643E+000  0.2275993E+03  0.7818608E-02  0.1128341E+00
         21   -1    0    0  501  502  0.00000000000E+00  0.00000000000E+00  0.15472444464E+04  0.15472444464E+04  0.00000000000E+00 0.  1.
         21   -1    0    0  502  503 -0.00000000000E+00 -0.00000000000E+00 -0.35116658776E+02  0.35116658776E+02  0.00000000000E+00 0.  1.
          6    1    1    2  501    0 -0.82320083188E+02 -0.12426119460E+03  0.92687814602E+03  0.95441319047E+03  0.17200000000E+03 0.  1.
         -6    1    1    2    0  503  0.82320083188E+02  0.12426119460E+03  0.58524964156E+03  0.62794791466E+03  0.17200000000E+03 0.  1.
</event>
<event>
 4    1  0.4394643E+000  0.1758112E+03  0.7818608E-02  0.1171920E+00
         21   -1    0    0  503  502  0.00000000000E+00  0.00000000000E+00  0.11144117183E+03  0.11144117183E+03  0.00000000000E+00 0. -1.
         21   -1    0    0  501  503 -0.00000000000E+00 -0.00000000000E+00 -0.50508704689E+03  0.50508704689E+03  0.00000000000E+00 0. -1.
          6    1    1    2  501    0  0.25023614544E+02 -0.26446225799E+02 -0.40381082127E+03  0.44042339120E+03  0.17200000000E+03 0. -1.
         -6    1    1    2    0  502 -0.25023614544E+02  0.26446225799E+02  0.10164946214E+02  0.17610482752E+03  0.17200000000E+03 0. -1.
</event>
<event>
 4    1  0.4394643E+000  0.1900384E+03  0.7818608E-02  0.1158427E+00
         21   -1    0    0  501  502  0.00000000000E+00  0.00000000000E+00  0.55728580950E+02  0.55728580950E+02  0.00000000000E+00 0.  1.
         21   -1    0    0  502  503 -0.00000000000E+00 -0.00000000000E+00 -0.13686205625E+04  0.13686205625E+04  0.00000000000E+00 0. -1.
          6    1    1    2  501    0  0.80811422021E+02 -0.29942894301E+00 -0.13969064006E+03  0.23585599528E+03  0.17200000000E+03 0.  1.
         -6    1    1    2    0  503 -0.80811422021E+02  0.29942894301E+00 -0.11732013414E+04  0.11884931481E+04  0.17200000000E+03 0. -1.
</event>
<event>
 4    1  0.4394643E+000  0.2419534E+03  0.7818608E-02  0.1118498E+00
         21   -1    0    0  503  502  0.00000000000E+00  0.00000000000E+00  0.24186787479E+03  0.24186787479E+03  0.00000000000E+00 0.  1.
         21   -1    0    0  501  503 -0.00000000000E+00 -0.00000000000E+00 -0.31001465529E+03  0.31001465529E+03  0.00000000000E+00 0. -1.
          6    1    1    2  501    0 -0.47483244894E+02  0.16340981616E+03 -0.16328533485E+03  0.29189643222E+03  0.17200000000E+03 0. -1.
         -6    1    1    2    0  502  0.47483244894E+02 -0.16340981616E+03  0.95138554346E+02  0.25998609787E+03  0.17200000000E+03 0.  1.
</event>
<event>
 4    1  0.4394643E+000  0.1787111E+03  0.7818608E-02  0.1169056E+00
         21   -1    0    0  501  502  0.00000000000E+00  0.00000000000E+00  0.36941096104E+03  0.36941096104E+03  0.00000000000E+00 0.  1.
         21   -1    0    0  502  503 -0.00000000000E+00 -0.00000000000E+00 -0.11322778701E+03  0.11322778701E+03  0.00000000000E+00 0.  1.
          6    1    1    2  501    0 -0.29622765219E+02  0.38420510427E+02  0.24543471451E+03  0.30360474786E+03  0.17200000000E+03 0.  1.
         -6    1    1    2    0  503  0.29622765219E+02 -0.38420510427E+02  0.10748459516E+02  0.17903400019E+03  0.17200000000E+03 0.  1.
</event>
<event>
 4    1  0.4394643E+000  0.1943986E+03  0.7818608E-02  0.1154553E+00
         21   -1    0    0  503  502  0.00000000000E+00  0.00000000000E+00  0.25964245592E+03  0.25964245592E+03  0.00000000000E+00 0.  1.
         21   -1    0    0  501  503 -0.00000000000E+00 -0.00000000000E+00 -0.50243252756E+03  0.50243252756E+03  0.00000000000E+00 0.  1.
          6    1    1    2  501    0 -0.57648499872E+01  0.90407959693E+02 -0.44253309316E+03  0.48334911939E+03  0.17200000000E+03 0.  1.
         -6    1    1    2    0  502  0.57648499872E+01 -0.90407959693E+02  0.19974302152E+03  0.27872586410E+03  0.17200000000E+03 0.  1.
</event>
<event>
 4    1  0.4394643E+000  0.1805351E+03  0.7818608E-02  0.1167286E+00
         21   -1    0    0  501  502  0.00000000000E+00  0.00000000000E+00  0.12712023105E+03  0.12712023105E+03  0.00000000000E+00 0.  1.
         21   -1    0    0  502  503 -0.00000000000E+00 -0.00000000000E+00 -0.29883477201E+03  0.29883477201E+03  0.00000000000E+00 0.  1.
          6    1    1    2  501    0 -0.54708924104E+02 -0.39842151606E+01 -0.55958672146E+01  0.18062185382E+03  0.17200000000E+03 0.  1.
         -6    1    1    2    0  503  0.54708924104E+02  0.39842151606E+01 -0.16611867375E+03  0.24533314924E+03  0.17200000000E+03 0.  1.
</event>
<event>
 4    1  0.4394643E+000  0.2749607E+03  0.7818608E-02  0.1098474E+00
         21   -1    0    0  501  502  0.00000000000E+00  0.00000000000E+00  0.18318695752E+04  0.18318695752E+04  0.00000000000E+00 0. -1.
         21   -1    0    0  502  503 -0.00000000000E+00 -0.00000000000E+00 -0.11628820902E+03  0.11628820902E+03  0.00000000000E+00 0.  1.
          6    1    1    2  501    0  0.18792498552E+03 -0.10345814874E+03  0.16401500192E+04  0.16630380255E+04  0.17200000000E+03 0. -1.
         -6    1    1    2    0  503 -0.18792498552E+03  0.10345814874E+03  0.75431347009E+02  0.28511975876E+03  0.17200000000E+03 0.  1.
</event>
<event>
 4    1  0.4394643E+000  0.2187842E+03  0.7818608E-02  0.1134793E+00
         21   -1    0    0  501  502  0.00000000000E+00  0.00000000000E+00  0.12785290994E+03  0.12785290994E+03  0.00000000000E+00 0. -1.
         21   -1    0    0  502  503 -0.00000000000E+00 -0.00000000000E+00 -0.40372181101E+03  0.40372181101E+03  0.00000000000E+00 0. -1.
          6    1    1    2  501    0 -0.23410647430E+02  0.13317077456E+03 -0.20957884052E+03  0.30296832179E+03  0.17200000000E+03 0. -1.
         -6    1    1    2    0  503  0.23410647430E+02 -0.13317077456E+03 -0.66290060538E+02  0.22860639916E+03  0.17200000000E+03 0. -1.
</event>
<event>
 4    1  0.4394643E+000  0.1820516E+03  0.7818608E-02  0.1165832E+00
         21   -1    0    0  503  502  0.00000000000E+00  0.00000000000E+00  0.54805700647E+03  0.54805700647E+03  0.00000000000E+00 0. -1.
         21   -1    0    0  501  503 -0.00000000000E+00 -0.00000000000E+00 -0.84249868769E+02  0.84249868769E+02  0.00000000000E+00 0. -1.
          6    1    1    2  501    0  0.18805540188E+02 -0.56613926933E+02  0.63950325831E+02  0.19295706579E+03  0.17200000000E+03 0. -1.
         -6    1    1    2    0  502 -0.18805540188E+02  0.56613926933E+02  0.39985681187E+03  0.43934980945E+03  0.17200000000E+03 0. -1.
</event>
<event>
 4    1  0.4394643E+000  0.2145272E+03  0.7818608E-02  0.1138030E+00
         21   -1    0    0  503  502  0.00000000000E+00  0.00000000000E+00  0.34446097520E+03  0.34446097520E+03  0.00000000000E+00 0. -1.
         21   -1    0    0  501  503 -0.00000000000E+00 -0.00000000000E+00 -0.28530989552E+03  0.28530989552E+03  0.00000000000E+00 0. -1.
          6    1    1    2  501    0 -0.24754442728E+02  0.12579808041E+03 -0.20003562110E+03  0.29331926152E+03  0.17200000000E+03 0. -1.
         -6    1    1    2    0  502  0.24754442728E+02 -0.12579808041E+03  0.25918670078E+03  0.33645160920E+03  0.17200000000E+03 0. -1.
</event>
<event>
 4    1  0.4394643E+000  0.1728374E+03  0.7818608E-02  0.1174921E+00
         21   -1    0    0  503  502  0.00000000000E+00  0.00000000000E+00  0.36684098105E+02  0.36684098105E+02  0.00000000000E+00 0. -1.
         21   -1    0    0  501  503 -0.00000000000E+00 -0.00000000000E+00 -0.10397978050E+04  0.10397978050E+04  0.00000000000E+00 0. -1.
          6    1    1    2  501    0 -0.14549544679E+02 -0.87800354748E+01 -0.75219627009E+03  0.77179790555E+03  0.17200000000E+03 0. -1.
         -6    1    1    2    0  502  0.14549544679E+02  0.87800354748E+01 -0.25091743680E+03  0.30468399755E+03  0.17200000000E+03 0. -1.
</event>
<event>
 4    1  0.4394643E+000  0.2057885E+03  0.7818608E-02  0.1144945E+00
         21   -1    0    0  501  502  0.00000000000E+00  0.00000000000E+00  0.38006619045E+03  0.38006619045E+03  0.00000000000E+00 0.  1.
         21   -1    0    0  502  503 -0.00000000000E+00 -0.00000000000E+00 -0.20409864630E+03  0.20409864630E+03  0.00000000000E+00 0.  1.
          6    1    1    2  501    0  0.23194675175E+02  0.11057545814E+03  0.28480102833E+03  0.35136953573E+03  0.17200000000E+03 0.  1.
         -6    1    1    2    0  503 -0.23194675175E+02 -0.11057545814E+03 -0.10883348418E+03  0.23279530103E+03  0.17200000000E+03 0.  1.
</event>
<event>
 4    1  0.4394643E+000  0.2245654E+03  0.7818608E-02  0.1130524E+00
         21   -1    0    0  503  502  0.00000000000E+00  0.00000000000E+00  0.49299531013E+03  0.49299531013E+03  0.00000000000E+00 0. -1.
         21   -1    0    0  501  503 -0.00000000000E+00 -0.00000000000E+00 -0.10456539270E+03  0.10456539270E+03  0.00000000000E+00 0.  1.
          6    1    1    2  501    0 -0.14232691084E+03  0.24262906817E+02  0.15016313413E+03  0.27014552569E+03  0.17200000000E+03 0. -1.
         -6    1    1    2    0  502  0.14232691084E+03 -0.24262906817E+02  0.23826678330E+03  0.32741517714E+03  0.17200000000E+03 0.  1.
</event>
<event>
 4    1  0.4394643E+000  0.1967309E+03  0.7818608E-02  0.1152527E+00
         21   -1    0    0  501  502  0.00000000000E+00  0.00000000000E+00  0.68444880008E+03  0.68444880008E+03  0.00000000000E+00 0. -1.
         21   -1    0    0  502  503 -0.00000000000E+00 -0.00000000000E+00 -0.66018194223E+02  0.66018194223E+02  0.00000000000E+00 0. -1.
          6    1    1    2  501    0  0.39828897813E+02 -0.86791234346E+02  0.45134596825E+03  0.49235783991E+03  0.17200000000E+03 0. -1.
         -6    1    1    2    0  503 -0.39828897813E+02  0.86791234346E+02  0.16708463761E+03  0.25810915440E+03  0.17200000000E+03 0. -1.
</event>
<event>
 4    1  0.4394643E+000  0.1942013E+03  0.7818608E-02  0.1154726E+00
         21   -1    0    0  501  502  0.00000000000E+00  0.00000000000E+00  0.59644994141E+03  0.59644994141E+03  0.00000000000E+00 0. -1.
         21   -1    0    0  502  503 -0.00000000000E+00 -0.00000000000E+00 -0.65037275034E+02  0.65037275034E+02  0.00000000000E+00 0. -1.
          6    1    1    2  501    0  0.33241924129E+02 -0.83815911754E+02  0.32082528549E+03  0.37502399442E+03  0.17200000000E+03 0. -1.
         -6    1    1    2    0  503 -0.33241924129E+02  0.83815911754E+02  0.21058738089E+03  0.28646322203E+03  0.17200000000E+03 0. -1.
</event>
<event>
 4    1  0.4394643E+000  0.1844994E+03  0.7818608E-02  0.1163518E+00
         21   -1    0    0  503  502  0.00000000000E+00  0.00000000000E+00  0.83312738180E+02  0.83312738180E+02  0.00000000000E+00 0. -1.
         21   -1    0    0  501  503 -0.00000000000E+00 -0.00000000000E+00 -0.61711271114E+03  0.61711271114E+03  0.00000000000E+00 0. -1.
          6    1    1    2  501    0 -0.44388193727E+02  0.49856879840E+02 -0.47048016931E+03  0.50536284976E+03  0.17200000000E+03 0. -1.
         -6    1    1    2    0  502  0.44388193727E+02 -0.49856879840E+02 -0.63319803646E+02  0.19506259955E+03  0.17200000000E+03 0. -1.
</event>
<event>
 4    1  0.4394643E+000  0.2108288E+03  0.7818608E-02  0.1140911E+00
         21   -1    0    0  503  502  0.00000000000E+00  0.00000000000E+00  0.18358224129E+03  0.18358224129E+03  0.00000000000E+00 0. -1.
         21   -1    0    0  501  503 -0.00000000000E+00 -0.00000000000E+00 -0.24850639820E+03  0.24850639820E+03  0.00000000000E+00 0. -1.
          6    1    1    2  501    0 -0.47400264715E+02 -0.11232977619E+03  0.21743638434E+01  0.21083996673E+03  0.17200000000E+03 0. -1.
         -6    1    1    2    0  502  0.47400264715E+02  0.11232977619E+03 -0.67098520753E+02  0.22124867277E+03  0.17200000000E+03 0. -1.
</event>
<event>
 4    1  0.4394643E+000  0.2228389E+03  0.7818608E-02  0.1131784E+00
         21   -1    0    0  501  502  0.00000000000E+00  0.00000000000E+00  0.11930931518E+04  0.11930931518E+04  0.00000000000E+00 0. -1.
         21   -1    0    0  502  503 -0.00000000000E+00 -0.00000000000E+00 -0.62335684207E+02  0.62335684207E+02  0.00000000000E+00 0. -1.
          6    1    1    2  501    0 -0.85732724108E+02  0.11279664155E+03  0.92723634322E+03  0.95363746702E+03  0.17200000000E+03 0. -1.
         -6    1    1    2    0  503  0.85732724108E+02 -0.11279664155E+03  0.20352112439E+03  0.30179136899E+03  0.17200000000E+03 0. -1.
</event>
<event>
 4    1  0.4394643E+000  0.1768346E+03  0.7818608E-02  0.1170902E+00
         21   -1    0    0  501  502  0.00000000000E+00  0.00000000000E+00  0.10872499451E+03  0.10872499451E+03  0.00000000000E+00 0. -1.
         21   -1    0    0  502  503 -0.00000000000E+00 -0.00000000000E+00 -0.28766067354E+03  0.28766067354E+03  0.00000000000E+00 0. -1.
          6    1    1    2  501    0 -0.36626704652E+02  0.18572779220E+02 -0.86853610954E+02  0.19701272385E+03  0.17200000000E+03 0. -1.
         -6    1    1    2    0  503  0.36626704652E+02 -0.18572779220E+02 -0.92082068069E+02  0.19937294421E+03  0.17200000000E+03 0. -1.
</event>
<event>
 4    1  0.4394643E+000  0.1825187E+03  0.7818608E-02  0.1165387E+00
         21   -1    0    0  503  502  0.00000000000E+00  0.00000000000E+00  0.11578064954E+03  0.11578064954E+03  0.00000000000E+00 0. -1.
         21   -1    0    0  501  503 -0.00000000000E+00 -0.00000000000E+00 -0.64431321720E+03  0.64431321720E+03  0.00000000000E+00 0.  1.
          6    1    1    2  501    0  0.54903608250E+02 -0.26733600166E+02 -0.54699613115E+03  0.57664361530E+03  0.17200000000E+03 0.  1.
         -6    1    1    2    0  502 -0.54903608250E+02  0.26733600166E+02  0.18463563479E+02  0.18345025144E+03  0.17200000000E+03 0. -1.
</event>
<event>
 4    1  0.4394643E+000  0.1782979E+03  0.7818608E-02  0.1169461E+00
         21   -1    0    0  501  502  0.00000000000E+00  0.00000000000E+00  0.35307416900E+03  0.35307416900E+03  0.00000000000E+00 0.  1.
         21   -1    0    0  502  503 -0.00000000000E+00 -0.00000000000E+00 -0.21772669576E+03  0.21772669576E+03  0.00000000000E+00 0.  1.
          6    1    1    2  501    0  0.82539364708E+01 -0.46238706881E+02  0.28623578583E+03  0.33722554852E+03  0.17200000000E+03 0.  1.
         -6    1    1    2    0  503 -0.82539364708E+01  0.46238706881E+02 -0.15088831260E+03  0.23357531625E+03  0.17200000000E+03 0.  1.
</event>
<event>
 4    1  0.4394643E+000  0.1810126E+03  0.7818608E-02  0.1166827E+00
         21   -1    0    0  501  502  0.00000000000E+00  0.00000000000E+00  0.20542294495E+03  0.20542294495E+03  0.00000000000E+00 0. -1.
         21   -1    0    0  502  503 -0.00000000000E+00 -0.00000000000E+00 -0.27448512595E+03  0.27448512595E+03  0.00000000000E+00 0. -1.
          6    1    1    2  501    0  0.53736732563E+02  0.17143734091E+02  0.12077343504E+03  0.21760461084E+03  0.17200000000E+03 0. -1.
         -6    1    1    2    0  503 -0.53736732563E+02 -0.17143734091E+02 -0.18983561604E+03  0.26230346007E+03  0.17200000000E+03 0. -1.
</event>
<event>
 4    1  0.4394643E+000  0.2417233E+03  0.7818608E-02  0.1118650E+00
         21   -1    0    0  501  502  0.00000000000E+00  0.00000000000E+00  0.59558240924E+02  0.59558240924E+02  0.00000000000E+00 0.  1.
         21   -1    0    0  502  503 -0.00000000000E+00 -0.00000000000E+00 -0.19808707873E+04  0.19808707873E+04  0.00000000000E+00 0.  1.
          6    1    1    2  501    0 -0.15514268830E+03 -0.69115067067E+02 -0.23584897468E+03  0.33772012834E+03  0.17200000000E+03 0.  1.
         -6    1    1    2    0  503  0.15514268830E+03  0.69115067067E+02 -0.16854635717E+04  0.17027088999E+04  0.17200000000E+03 0.  1.
</event>
<event>
 4    1  0.4394643E+000  0.2211283E+03  0.7818608E-02  0.1133045E+00
         21   -1    0    0  501  502  0.00000000000E+00  0.00000000000E+00  0.92612082378E+03  0.92612082378E+03  0.00000000000E+00 0.  1.
         21   -1    0    0  502  503 -0.00000000000E+00 -0.00000000000E+00 -0.56813832561E+02  0.56813832561E+02  0.00000000000E+00 0.  1.
          6    1    1    2  501    0 -0.13664981949E+03 -0.25309245092E+02  0.30399675219E+03  0.37591455997E+03  0.17200000000E+03 0.  1.
         -6    1    1    2    0  503  0.13664981949E+03  0.25309245092E+02  0.56531023903E+03  0.60702009638E+03  0.17200000000E+03 0.  1.
</event>
<event>
 4    1  0.4394643E+000  0.1866783E+03  0.7818608E-02  0.1161492E+00
         21   -1    0    0  503  502  0.00000000000E+00  0.00000000000E+00  0.50923492639E+02  0.50923492639E+02  0.00000000000E+00 0.  1.
         21   -1    0    0  501  503 -0.00000000000E+00 -0.00000000000E+00 -0.95838705590E+03  0.95838705590E+03  0.00000000000E+00 0.  1.
          6    1    1    2  501    0 -0.69023011761E+02 -0.22374434112E+02 -0.72359263967E+03  0.74728515283E+03  0.17200000000E+03 0.  1.
         -6    1    1    2    0  502  0.69023011761E+02  0.22374434112E+02 -0.18387092359E+03  0.26202539571E+03  0.17200000000E+03 0.  1.
</event>
<event>
 4    1  0.4394643E+000  0.2064941E+03  0.7818608E-02  0.1144373E+00
         21   -1    0    0  503  502  0.00000000000E+00  0.00000000000E+00  0.18707887403E+03  0.18707887403E+03  0.00000000000E+00 0. -1.
         21   -1    0    0  501  503 -0.00000000000E+00 -0.00000000000E+00 -0.42295223185E+03  0.42295223185E+03  0.00000000000E+00 0.  1.
          6    1    1    2  501    0  0.11122065675E+03 -0.26187010512E+02 -0.32505804178E+03  0.38510066805E+03  0.17200000000E+03 0.  1.
         -6    1    1    2    0  502 -0.11122065675E+03  0.26187010512E+02  0.89184683957E+02  0.22493043783E+03  0.17200000000E+03 0. -1.
</event>
<event>
 4    1  0.4394643E+000  0.1884184E+03  0.7818608E-02  0.1159896E+00
         21   -1    0    0  501  502  0.00000000000E+00  0.00000000000E+00  0.36819282362E+03  0.36819282362E+03  0.00000000000E+00 0.  1.
         21   -1    0    0  502  503 -0.00000000000E+00 -0.00000000000E+00 -0.30544899893E+03  0.30544899893E+03  0.00000000000E+00 0.  1.
          6    1    1    2  501    0  0.23102279705E+02 -0.73374349661E+02  0.31000452833E+03  0.36277309451E+03  0.17200000000E+03 0.  1.
         -6    1    1    2    0  503 -0.23102279705E+02  0.73374349661E+02 -0.24726070363E+03  0.31086872804E+03  0.17200000000E+03 0.  1.
</event>
<event>
 4    1  0.4394643E+000  0.1844139E+03  0.7818608E-02  0.1163598E+00
         21   -1    0    0  501  502  0.00000000000E+00  0.00000000000E+00  0.13340946472E+03  0.13340946472E+03  0.00000000000E+00 0. -1.
         21   -1    0    0  502  503 -0.00000000000E+00 -0.00000000000E+00 -0.39942707764E+03  0.39942707764E+03  0.00000000000E+00 0. -1.
          6    1    1    2  501    0  0.12137177281E+02 -0.65400040742E+02  0.27239257398E+02  0.18641473532E+03  0.17200000000E+03 0. -1.
         -6    1    1    2    0  503 -0.12137177281E+02  0.65400040742E+02 -0.29325687032E+03  0.34642180704E+03  0.17200000000E+03 0. -1.
</event>
<event>
 4    1  0.4394643E+000  0.1925701E+03  0.7818608E-02  0.1156164E+00
         21   -1    0    0  501  502  0.00000000000E+00  0.00000000000E+00  0.31644181882E+02  0.31644181882E+02  0.00000000000E+00 0.  1.
         21   -1    0    0  502  503 -0.00000000000E+00 -0.00000000000E+00 -0.13753242397E+04  0.13753242397E+04  0.00000000000E+00 0.  1.
          6    1    1    2  501    0  0.86318806043E+02 -0.69489756364E+01 -0.40127408404E+03  0.44508888445E+03  0.17200000000E+03 0.  1.
         -6    1    1    2    0  503 -0.86318806043E+02  0.69489756364E+01 -0.94240597377E+03  0.96187953712E+03  0.17200000000E+03 0.  1.
</event>
<event>
 4    1  0.4394643E+000  0.1722872E+03  0.7818608E-02  0.1175483E+00
         21   -1    0    0  501  502  0.00000000000E+00  0.00000000000E+00  0.36973234156E+03  0.36973234156E+03  0.00000000000E+00 0.  1.
         21   -1    0    0  502  503 -0.00000000000E+00 -0.00000000000E+00 -0.19996631476E+03  0.19996631476E+03  0.00000000000E+00 0.  1.
          6    1    1    2  501    0 -0.98602963622E+01  0.12800506179E+01  0.30525446749E+03  0.35051840736E+03  0.17200000000E+03 0.  1.
         -6    1    1    2    0  503  0.98602963622E+01 -0.12800506179E+01 -0.13548844069E+03  0.21918024896E+03  0.17200000000E+03 0.  1.
</event>
<event>
 4    1  0.4394643E+000  0.2533338E+03  0.7818608E-02  0.1111216E+00
         21   -1    0    0  501  502  0.00000000000E+00  0.00000000000E+00  0.40009139635E+02  0.40009139635E+02  0.00000000000E+00 0. -1.
         21   -1    0    0  502  503 -0.00000000000E+00 -0.00000000000E+00 -0.18736127767E+04  0.18736127767E+04  0.00000000000E+00 0.  1.
          6    1    1    2  501    0 -0.72345400908E+02 -0.17134810695E+03 -0.12797031726E+04  0.13045375582E+04  0.17200000000E+03 0. -1.
         -6    1    1    2    0  503  0.72345400908E+02  0.17134810695E+03 -0.55390046440E+03  0.60908435807E+03  0.17200000000E+03 0. -1.
</event>
<event>
 4    1  0.4394643E+000  0.2212397E+03  0.7818608E-02  0.1132962E+00
         21   -1    0    0  501  502  0.00000000000E+00  0.00000000000E+00  0.11489824400E+03  0.11489824400E+03  0.00000000000E+00 0.  1.
         21   -1    0    0  502  503 -0.00000000000E+00 -0.00000000000E+00 -0.50990856428E+03  0.50990856428E+03  0.00000000000E+00 0. -1.
          6    1    1    2  501    0  0.70025544639E+02 -0.12024731632E+03 -0.70779359002E+02  0.23228584039E+03  0.17200000000E+03 0.  1.
         -6    1    1    2    0  503 -0.70025544639E+02  0.12024731632E+03 -0.32423096127E+03  0.39252096789E+03  0.17200000000E+03 0. -1.
</event>
<event>
 4    1  0.4394643E+000  0.1789549E+03  0.7818608E-02  0.1168818E+00
         21   -1    0    0  503  502  0.00000000000E+00  0.00000000000E+00  0.20115601249E+03  0.20115601249E+03  0.00000000000E+00 0.  1.
         21   -1    0    0  501  503 -0.00000000000E+00 -0.00000000000E+00 -0.15961961034E+03  0.15961961034E+03  0.00000000000E+00 0. -1.
          6    1    1    2  501    0 -0.48825431104E+02  0.75447945560E+01  0.11563818160E+02  0.17932810303E+03  0.17200000000E+03 0. -1.
         -6    1    1    2    0  502  0.48825431104E+02 -0.75447945560E+01  0.29972583989E+02  0.18144751979E+03  0.17200000000E+03 0. -1.
</event>
<event>
 4    1  0.4394643E+000  0.1976231E+03  0.7818608E-02  0.1151760E+00
         21   -1    0    0  503  502  0.00000000000E+00  0.00000000000E+00  0.17982853324E+03  0.17982853324E+03  0.00000000000E+00 0. -1.
         21   -1    0    0  501  503 -0.00000000000E+00 -0.00000000000E+00 -0.22561347707E+03  0.22561347707E+03  0.00000000000E+00 0. -1.
          6    1    1    2  501    0 -0.12182605341E+02  0.96553053526E+02 -0.62089736798E+02  0.20714739543E+03  0.17200000000E+03 0. -1.
         -6    1    1    2    0  502  0.12182605341E+02 -0.96553053526E+02  0.16304792972E+02  0.19829461488E+03  0.17200000000E+03 0. -1.
</event>
<event>
 4    1  0.4394643E+000  0.2933875E+03  0.7818608E-02  0.1088594E+00
         21   -1    0    0  501  502  0.00000000000E+00  0.00000000000E+00  0.14663396625E+03  0.14663396625E+03  0.00000000000E+00 0. -1.
         21   -1    0    0  502  503 -0.00000000000E+00 -0.00000000000E+00 -0.59621326707E+03  0.59621326707E+03  0.00000000000E+00 0.  1.
          6    1    1    2  501    0  0.56414493737E+02 -0.23088878534E+03 -0.17865368232E+03  0.34350162228E+03  0.17200000000E+03 0. -1.
         -6    1    1    2    0  503 -0.56414493737E+02  0.23088878534E+03 -0.27092561849E+03  0.39934561104E+03  0.17200000000E+03 0.  1.
</event>
<event>
 4    1  0.4394643E+000  0.1991314E+03  0.7818608E-02  0.1150474E+00
         21   -1    0    0  501  502  0.00000000000E+00  0.00000000000E+00  0.40795273495E+03  0.40795273495E+03  0.00000000000E+00 0.  1.
         21   -1    0    0  502  503 -0.00000000000E+00 -0.00000000000E+00 -0.35853772384E+03  0.35853772384E+03  0.00000000000E+00 0.  1.
          6    1    1    2  501    0 -0.97372485687E+02 -0.24247189061E+02  0.35190481715E+03  0.40433937166E+03  0.17200000000E+03 0.  1.
         -6    1    1    2    0  503  0.97372485687E+02  0.24247189061E+02 -0.30248980604E+03  0.36215108712E+03  0.17200000000E+03 0.  1.
</event>
<event>
 4    1  0.4394643E+000  0.2347444E+03  0.7818608E-02  0.1123344E+00
         21   -1    0    0  501  502  0.00000000000E+00  0.00000000000E+00  0.39958946896E+03  0.39958946896E+03  0.00000000000E+00 0. -1.
         21   -1    0    0  502  503 -0.00000000000E+00 -0.00000000000E+00 -0.21338846288E+03  0.21338846288E+03  0.00000000000E+00 0. -1.
          6    1    1    2  501    0 -0.12431736414E+03  0.10033013753E+03  0.27538866571E+03  0.36186165965E+03  0.17200000000E+03 0. -1.
         -6    1    1    2    0  503  0.12431736414E+03 -0.10033013753E+03 -0.89187659632E+02  0.25111627218E+03  0.17200000000E+03 0. -1.
</event>
<event>
 4    1  0.4394643E+000  0.1992408E+03  0.7818608E-02  0.1150381E+00
         21   -1    0    0  501  502  0.00000000000E+00  0.00000000000E+00  0.57875534564E+03  0.57875534564E+03  0.00000000000E+00 0.  1.
         21   -1    0    0  502  503 -0.00000000000E+00 -0.00000000000E+00 -0.85770994650E+02  0.85770994650E+02  0.00000000000E+00 0. -1.
          6    1    1    2  501    0 -0.86036384055E+02 -0.52063587926E+02  0.39520043722E+03  0.44258362164E+03  0.17200000000E+03 0.  1.
         -6    1    1    2    0  503  0.86036384055E+02  0.52063587926E+02  0.97783913775E+02  0.22194271865E+03  0.17200000000E+03 0.  1.
</event>
<event>
 4    1  0.4394643E+000  0.1873812E+03  0.7818608E-02  0.1160845E+00
         21   -1    0    0  503  502  0.00000000000E+00  0.00000000000E+00  0.51939283433E+03  0.51939283433E+03  0.00000000000E+00 0. -1.
         21   -1    0    0  501  503 -0.00000000000E+00 -0.00000000000E+00 -0.13457837977E+03  0.13457837977E+03  0.00000000000E+00 0. -1.
          6    1    1    2  501    0  0.21704478482E+02 -0.71110000647E+02 -0.38269381292E+02  0.19124921470E+03  0.17200000000E+03 0. -1.
         -6    1    1    2    0  502 -0.21704478482E+02  0.71110000647E+02  0.42308383584E+03  0.46272199940E+03  0.17200000000E+03 0. -1.
</event>
<event>
 4    1  0.4394643E+000  0.2817163E+03  0.7818608E-02  0.1094755E+00
         21   -1    0    0  503  502  0.00000000000E+00  0.00000000000E+00  0.41415173447E+03  0.41415173447E+03  0.00000000000E+00 0.  1.
         21   -1    0    0  501  503 -0.00000000000E+00 -0.00000000000E+00 -0.22274269990E+03  0.22274269990E+03  0.00000000000E+00 0. -1.
          6    1    1    2  501    0 -0.14167570271E+03  0.17236032717E+03  0.21471942447E+03  0.35421535591E+03  0.17200000000E+03 0.  1.
         -6    1    1    2    0  502  0.14167570271E+03 -0.17236032717E+03 -0.23310389909E+02  0.28267907845E+03  0.17200000000E+03 0. -1.
</event>
<event>
 4    1  0.4394643E+000  0.1784504E+03  0.7818608E-02  0.1169311E+00
         21   -1    0    0  501  502  0.00000000000E+00  0.00000000000E+00  0.58250306293E+03  0.58250306293E+03  0.00000000000E+00 0.  1.
         21   -1    0    0  502  503 -0.00000000000E+00 -0.00000000000E+00 -0.73052414962E+02  0.73052414962E+02  0.00000000000E+00 0. -1.
          6    1    1    2  501    0  0.27142464937E+02 -0.39036240506E+02  0.41915557492E+03  0.45556112374E+03  0.17200000000E+03 0.  1.
         -6    1    1    2    0  503 -0.27142464937E+02  0.39036240506E+02  0.90295073047E+02  0.19999435415E+03  0.17200000000E+03 0. -1.
</event>
<event>
 4    1  0.4394643E+000  0.1864776E+03  0.7818608E-02  0.1161677E+00
         21   -1    0    0  501  502  0.00000000000E+00  0.00000000000E+00  0.14083249131E+03  0.14083249131E+03  0.00000000000E+00 0.  1.
         21   -1    0    0  502  503 -0.00000000000E+00 -0.00000000000E+00 -0.37768737210E+03  0.37768737210E+03  0.00000000000E+00 0.  1.
          6    1    1    2  501    0  0.53497168083E+02  0.48248658085E+02  0.34126880549E+02  0.18957458684E+03  0.17200000000E+03 0.  1.
         -6    1    1    2    0  503 -0.53497168083E+02 -0.48248658085E+02 -0.27098176134E+03  0.32894527657E+03  0.17200000000E+03 0.  1.
</event>
<event>
 4    1  0.4394643E+000  0.1784263E+03  0.7818608E-02  0.1169335E+00
         21   -1    0    0  503  502  0.00000000000E+00  0.00000000000E+00  0.19902373568E+04  0.19902373568E+04  0.00000000000E+00 0. -1.
         21   -1    0    0  501  503 -0.00000000000E+00 -0.00000000000E+00 -0.18073026685E+02  0.18073026685E+02  0.00000000000E+00 0. -1.
          6    1    1    2  501    0  0.35962692109E+02  0.30961517809E+02  0.64567280691E+03  0.66987260310E+03  0.17200000000E+03 0. -1.
         -6    1    1    2    0  502 -0.35962692109E+02 -0.30961517809E+02  0.13264915232E+04  0.13384377804E+04  0.17200000000E+03 0. -1.
</event>
<event>
 4    1  0.4394643E+000  0.1731544E+03  0.7818608E-02  0.1174598E+00
         21   -1    0    0  501  502  0.00000000000E+00  0.00000000000E+00  0.29760548812E+04  0.29760548812E+04  0.00000000000E+00 0. -1.
         21   -1    0    0  502  503 -0.00000000000E+00 -0.00000000000E+00 -0.18793363024E+02  0.18793363024E+02  0.00000000000E+00 0. -1.
          6    1    1    2  501    0  0.92857573321E+01 -0.17669657082E+02  0.24985622902E+04  0.25045550424E+04  0.17200000000E+03 0. -1.
         -6    1    1    2    0  503 -0.92857573321E+01  0.17669657082E+02  0.45869922793E+03  0.49029320185E+03  0.17200000000E+03 0. -1.
</event>
<event>
 4    1  0.4394643E+000  0.1754798E+03  0.7818608E-02  0.1172251E+00
         21   -1    0    0  503  502  0.00000000000E+00  0.00000000000E+00  0.80754814427E+03  0.80754814427E+03  0.00000000000E+00 0.  1.
         21   -1    0    0  501  503 -0.00000000000E+00 -0.00000000000E+00 -0.39907100494E+02  0.39907100494E+02  0.00000000000E+00 0.  1.
          6    1    1    2  501    0 -0.29595582472E+02 -0.18255196406E+02  0.29444577269E+03  0.34277027840E+03  0.17200000000E+03 0.  1.
         -6    1    1    2    0  502  0.29595582472E+02  0.18255196406E+02  0.47319527108E+03  0.50468496636E+03  0.17200000000E+03 0.  1.
</event>
<event>
 4    1  0.4394643E+000  0.2183574E+03  0.7818608E-02  0.1135114E+00
         21   -1    0    0  503  502  0.00000000000E+00  0.00000000000E+00  0.20411597603E+03  0.20411597603E+03  0.00000000000E+00 0.  1.
         21   -1    0    0  501  503 -0.00000000000E+00 -0.00000000000E+00 -0.25045660667E+03  0.25045660667E+03  0.00000000000E+00 0. -1.
          6    1    1    2  501    0 -0.11605136000E+02 -0.13401961309E+03 -0.82148345006E+02  0.23329870651E+03  0.17200000000E+03 0. -1.
         -6    1    1    2    0  502  0.11605136000E+02  0.13401961309E+03  0.35807714371E+02  0.22127387619E+03  0.17200000000E+03 0.  1.
</event>
<event>
 4    1  0.4394643E+000  0.1781940E+03  0.7818608E-02  0.1169562E+00
         21   -1    0    0  501  502  0.00000000000E+00  0.00000000000E+00  0.12342568002E+04  0.12342568002E+04  0.00000000000E+00 0.  1.
         21   -1    0    0  502  503 -0.00000000000E+00 -0.00000000000E+00 -0.45962546316E+02  0.45962546316E+02  0.00000000000E+00 0.  1.
          6    1    1    2  501    0 -0.40198386994E+02  0.23520265715E+02  0.16941497965E+03  0.24587506695E+03  0.17200000000E+03 0.  1.
         -6    1    1    2    0  503  0.40198386994E+02 -0.23520265715E+02  0.10188792742E+04  0.10343442796E+04  0.17200000000E+03 0.  1.
</event>
<event>
 4    1  0.4394643E+000  0.1735534E+03  0.7818608E-02  0.1174192E+00
         21   -1    0    0  501  502  0.00000000000E+00  0.00000000000E+00  0.28193478674E+03  0.28193478674E+03  0.00000000000E+00 0. -1.
         21   -1    0    0  502  503 -0.00000000000E+00 -0.00000000000E+00 -0.21377217245E+03  0.21377217245E+03  0.00000000000E+00 0. -1.
          6    1    1    2  501    0  0.18668798025E+02  0.13721005461E+02  0.20938122624E+03  0.27195824664E+03  0.17200000000E+03 0. -1.
         -6    1    1    2    0  503 -0.18668798025E+02 -0.13721005461E+02 -0.14121861195E+03  0.22374871256E+03  0.17200000000E+03 0. -1.
</event>
<event>
 4    1  0.4394643E+000  0.2456992E+03  0.7818608E-02  0.1116053E+00
         21   -1    0    0  501  502  0.00000000000E+00  0.00000000000E+00  0.77574772267E+02  0.77574772267E+02  0.00000000000E+00 0. -1.
         21   -1    0    0  502  503 -0.00000000000E+00 -0.00000000000E+00 -0.11217715983E+04  0.11217715983E+04  0.00000000000E+00 0. -1.
          6    1    1    2  501    0 -0.65442287129E+02  0.16279257349E+03 -0.19022252209E+03  0.31072934016E+03  0.17200000000E+03 0. -1.
         -6    1    1    2    0  503  0.65442287129E+02 -0.16279257349E+03 -0.85397430390E+03  0.88861703036E+03  0.17200000000E+03 0. -1.
</event>
<event>
 4    1  0.4394643E+000  0.2262532E+03  0.7818608E-02  0.1129305E+00
         21   -1    0    0  501  502  0.00000000000E+00  0.00000000000E+00  0.17603803557E+03  0.17603803557E+03  0.00000000000E+00 0. -1.
         21   -1    0    0  502  503 -0.00000000000E+00 -0.00000000000E+00 -0.29505239398E+03  0.29505239398E+03  0.00000000000E+00 0.  1.
          6    1    1    2  501    0  0.14436330347E+03  0.27672485420E+02 -0.31204523734E+02  0.22839494771E+03  0.17200000000E+03 0. -1.
         -6    1    1    2    0  503 -0.14436330347E+03 -0.27672485420E+02 -0.87809834676E+02  0.24269548184E+03  0.17200000000E+03 0. -1.
</event>
<event>
 4    1  0.4394643E+000  0.1752528E+03  0.7818608E-02  0.1172478E+00
         21   -1    0    0  501  502  0.00000000000E+00  0.00000000000E+00  0.76915035586E+03  0.76915035586E+03  0.00000000000E+00 0.  1.
         21   -1    0    0  502  503 -0.00000000000E+00 -0.00000000000E+00 -0.84403545914E+02  0.84403545914E+02  0.00000000000E+00 0.  1.
          6    1    1    2  501    0  0.10041884958E+02 -0.32073241292E+02  0.65216017355E+03  0.67529728582E+03  0.17200000000E+03 0.  1.
         -6    1    1    2    0  503 -0.10041884958E+02  0.32073241292E+02  0.32586636388E+02  0.17825661595E+03  0.17200000000E+03 0.  1.
</event>
<event>
 4    1  0.4394643E+000  0.2191562E+03  0.7818608E-02  0.1134514E+00
         21   -1    0    0  501  502  0.00000000000E+00  0.00000000000E+00  0.13006445110E+03  0.13006445110E+03  0.00000000000E+00 0. -1.
         21   -1    0    0  502  503 -0.00000000000E+00 -0.00000000000E+00 -0.39415837399E+03  0.39415837399E+03  0.00000000000E+00 0. -1.
          6    1    1    2  501    0  0.81471244190E+02  0.10866413749E+03 -0.66188536051E+02  0.22893313589E+03  0.17200000000E+03 0.  1.
         -6    1    1    2    0  503 -0.81471244190E+02 -0.10866413749E+03 -0.19790538684E+03  0.29528968920E+03  0.17200000000E+03 0.  1.
</event>
<event>
 4    1  0.4394643E+000  0.2000585E+03  0.7818608E-02  0.1149690E+00
         21   -1    0    0  503  502  0.00000000000E+00  0.00000000000E+00  0.13912014123E+03  0.13912014123E+03  0.00000000000E+00 0.  1.
         21   -1    0    0  501  503 -0.00000000000E+00 -0.00000000000E+00 -0.40058530048E+03  0.40058530048E+03  0.00000000000E+00 0.  1.
          6    1    1    2  501    0 -0.10019148785E+03  0.20026309808E+02 -0.27399042642E+03  0.33925527423E+03  0.17200000000E+03 0.  1.
         -6    1    1    2    0  502  0.10019148785E+03 -0.20026309808E+02  0.12525267170E+02  0.20045016747E+03  0.17200000000E+03 0.  1.
</event>
<event>
 4    1  0.4394643E+000  0.2262903E+03  0.7818608E-02  0.1129278E+00
         21   -1    0    0  503  502  0.00000000000E+00  0.00000000000E+00  0.15842609457E+03  0.15842609457E+03  0.00000000000E+00 0.  1.
         21   -1    0    0  501  503 -0.00000000000E+00 -0.00000000000E+00 -0.53391071123E+03  0.53391071123E+03  0.00000000000E+00 0. -1.
          6    1    1    2  501    0  0.12043722675E+03  0.84369149699E+02  0.29713303056E+02  0.22823268694E+03  0.17200000000E+03 0.  1.
         -6    1    1    2    0  502 -0.12043722675E+03 -0.84369149699E+02 -0.40519791971E+03  0.46410411886E+03  0.17200000000E+03 0. -1.
</event>
<event>
 4    1  0.4394643E+000  0.1931161E+03  0.7818608E-02  0.1155680E+00
         21   -1    0    0  503  502  0.00000000000E+00  0.00000000000E+00  0.28991542179E+02  0.28991542179E+02  0.00000000000E+00 0.  1.
         21   -1    0    0  501  503 -0.00000000000E+00 -0.00000000000E+00 -0.13156587233E+04  0.13156587233E+04  0.00000000000E+00 0.  1.
          6    1    1    2  501    0  0.23164093830E+02  0.84695119141E+02 -0.74364744665E+03  0.76831332369E+03  0.17200000000E+03 0.  1.
         -6    1    1    2    0  502 -0.23164093830E+02 -0.84695119141E+02 -0.54301973450E+03  0.57633694182E+03  0.17200000000E+03 0.  1.
</event>
<event>
 4    1  0.4394643E+000  0.2065955E+03  0.7818608E-02  0.1144291E+00
         21   -1    0    0  501  502  0.00000000000E+00  0.00000000000E+00  0.25308144975E+04  0.25308144975E+04  0.00000000000E+00 0.  1.
         21   -1    0    0  502  503 -0.00000000000E+00 -0.00000000000E+00 -0.19984215749E+02  0.19984215749E+02  0.00000000000E+00 0.  1.
          6    1    1    2  501    0 -0.97268189878E+02 -0.60304099171E+02  0.17593090826E+04  0.17713977908E+04  0.17200000000E+03 0.  1.
         -6    1    1    2    0  503  0.97268189878E+02  0.60304099171E+02  0.75152119916E+03  0.77940092246E+03  0.17200000000E+03 0.  1.
</event>
<event>
 4    1  0.4394643E+000  0.1794166E+03  0.7818608E-02  0.1168369E+00
         21   -1    0    0  503  502  0.00000000000E+00  0.00000000000E+00  0.50486076441E+03  0.50486076441E+03  0.00000000000E+00 0. -1.
         21   -1    0    0  501  503 -0.00000000000E+00 -0.00000000000E+00 -0.90323216375E+02  0.90323216375E+02  0.00000000000E+00 0. -1.
          6    1    1    2  501    0 -0.18729135733E+02 -0.47492525300E+02  0.45886651136E+02  0.18519153662E+03  0.17200000000E+03 0. -1.
         -6    1    1    2    0  502  0.18729135733E+02  0.47492525300E+02  0.36865089689E+03  0.40999244416E+03  0.17200000000E+03 0. -1.
</event>
<event>
 4    1  0.4394643E+000  0.1841724E+03  0.7818608E-02  0.1163825E+00
         21   -1    0    0  503  502  0.00000000000E+00  0.00000000000E+00  0.27560949921E+03  0.27560949921E+03  0.00000000000E+00 0.  1.
         21   -1    0    0  501  503 -0.00000000000E+00 -0.00000000000E+00 -0.22929209579E+03  0.22929209579E+03  0.00000000000E+00 0.  1.
          6    1    1    2  501    0 -0.13464708708E+02 -0.64452749823E+02 -0.14866702803E+03  0.23668827720E+03  0.17200000000E+03 0.  1.
         -6    1    1    2    0  502  0.13464708708E+02  0.64452749823E+02  0.19498443145E+03  0.26821331780E+03  0.17200000000E+03 0.  1.
</event>
<event>
 4    1  0.4394643E+000  0.1778667E+03  0.7818608E-02  0.1169884E+00
         21   -1    0    0  501  502  0.00000000000E+00  0.00000000000E+00  0.86594623433E+02  0.86594623433E+02  0.00000000000E+00 0.  1.
         21   -1    0    0  502  503 -0.00000000000E+00 -0.00000000000E+00 -0.60343191306E+03  0.60343191306E+03  0.00000000000E+00 0.  1.
          6    1    1    2  501    0 -0.30499781720E+02 -0.33501150372E+02 -0.41701586462E+02  0.18268986309E+03  0.17200000000E+03 0.  1.
         -6    1    1    2    0  503  0.30499781720E+02  0.33501150372E+02 -0.47513570317E+03  0.50733667341E+03  0.17200000000E+03 0.  1.
</event>
<event>
 4    1  0.4394643E+000  0.2828295E+03  0.7818608E-02  0.1094154E+00
         21   -1    0    0  503  502  0.00000000000E+00  0.00000000000E+00  0.73171808774E+03  0.73171808774E+03  0.00000000000E+00 0.  1.
         21   -1    0    0  501  503 -0.00000000000E+00 -0.00000000000E+00 -0.11841859207E+03  0.11841859207E+03  0.00000000000E+00 0.  1.
          6    1    1    2  501    0 -0.14480938641E+03 -0.17157721913E+03  0.42446478050E+03  0.51006161432E+03  0.17200000000E+03 0.  1.
         -6    1    1    2    0  502  0.14480938641E+03  0.17157721913E+03  0.18883471517E+03  0.34007506549E+03  0.17200000000E+03 0.  1.
</event>
<event>
 4    1  0.4394643E+000  0.2144173E+03  0.7818608E-02  0.1138115E+00
         21   -1    0    0  503  502  0.00000000000E+00  0.00000000000E+00  0.35915004448E+03  0.35915004448E+03  0.00000000000E+00 0.  1.
         21   -1    0    0  501  503 -0.00000000000E+00 -0.00000000000E+00 -0.15717672487E+03  0.15717672487E+03  0.00000000000E+00 0. -1.
          6    1    1    2  501    0  0.69250312080E+02 -0.10768087842E+03 -0.10223579069E+02  0.21466089274E+03  0.17200000000E+03 0.  1.
         -6    1    1    2    0  502 -0.69250312080E+02  0.10768087842E+03  0.21219689868E+03  0.30166587661E+03  0.17200000000E+03 0. -1.
</event>
<event>
 4    1  0.4394643E+000  0.1902595E+03  0.7818608E-02  0.1158227E+00
         21   -1    0    0  501  502  0.00000000000E+00  0.00000000000E+00  0.43496954109E+03  0.43496954109E+03  0.00000000000E+00 0.  1.
         21   -1    0    0  502  503 -0.00000000000E+00 -0.00000000000E+00 -0.11118745558E+03  0.11118745558E+03  0.00000000000E+00 0.  1.
          6    1    1    2  501    0 -0.42373589401E+02  0.69420278557E+02  0.29884563867E+03  0.35427025264E+03  0.17200000000E+03 0.  1.
         -6    1    1    2    0  503  0.42373589401E+02 -0.69420278557E+02  0.24936446847E+02  0.19188674403E+03  0.17200000000E+03 0.  1.
</event>
<event>
 4    1  0.4394643E+000  0.1953847E+03  0.7818608E-02  0.1153692E+00
         21   -1    0    0  501  502  0.00000000000E+00  0.00000000000E+00  0.47007559118E+03  0.47007559118E+03  0.00000000000E+00 0.  1.
         21   -1    0    0  502  503 -0.00000000000E+00 -0.00000000000E+00 -0.90130934702E+02  0.90130934702E+02  0.00000000000E+00 0.  1.
          6    1    1    2  501    0 -0.92428409857E+02 -0.69397974088E+01  0.10185340778E+03  0.22033903062E+03  0.17200000000E+03 0.  1.
         -6    1    1    2    0  503  0.92428409857E+02  0.69397974088E+01  0.27809124870E+03  0.33986749527E+03  0.17200000000E+03 0.  1.
</event>
<event>
 4    1  0.4394643E+000  0.2108888E+03  0.7818608E-02  0.1140864E+00
         21   -1    0    0  501  502  0.00000000000E+00  0.00000000000E+00  0.87971339141E+03  0.87971339141E+03  0.00000000000E+00 0. -1.
         21   -1    0    0  502  503 -0.00000000000E+00 -0.00000000000E+00 -0.54307517072E+02  0.54307517072E+02  0.00000000000E+00 0.  1.
          6    1    1    2  501    0 -0.61571425320E+02 -0.10535193457E+03  0.53546026897E+03  0.57549263260E+03  0.17200000000E+03 0. -1.
         -6    1    1    2    0  503  0.61571425320E+02  0.10535193457E+03  0.28994560537E+03  0.35852827588E+03  0.17200000000E+03 0.  1.
</event>
<event>
 4    1  0.4394643E+000  0.1915757E+03  0.7818608E-02  0.1157048E+00
         21   -1    0    0  501  502  0.00000000000E+00  0.00000000000E+00  0.41729966623E+03  0.41729966623E+03  0.00000000000E+00 0.  1.
         21   -1    0    0  502  503 -0.00000000000E+00 -0.00000000000E+00 -0.22351917062E+03  0.22351917062E+03  0.00000000000E+00 0.  1.
          6    1    1    2  501    0  0.67238504217E+02  0.50953385209E+02  0.34642399160E+03  0.39586720737E+03  0.17200000000E+03 0.  1.
         -6    1    1    2    0  503 -0.67238504217E+02 -0.50953385209E+02 -0.15264349599E+03  0.24495162948E+03  0.17200000000E+03 0.  1.
</event>
<event>
 4    1  0.4394643E+000  0.1757608E+03  0.7818608E-02  0.1171970E+00
         21   -1    0    0  503  502  0.00000000000E+00  0.00000000000E+00  0.26269177588E+03  0.26269177588E+03  0.00000000000E+00 0. -1.
         21   -1    0    0  501  503 -0.00000000000E+00 -0.00000000000E+00 -0.13764675549E+03  0.13764675549E+03  0.00000000000E+00 0. -1.
          6    1    1    2  501    0 -0.29669840320E+02  0.20677580000E+02 -0.13872492203E+02  0.17630742406E+03  0.17200000000E+03 0. -1.
         -6    1    1    2    0  502  0.29669840320E+02 -0.20677580000E+02  0.13891751259E+03  0.22403110731E+03  0.17200000000E+03 0. -1.
</event>
<event>
 4    1  0.4394643E+000  0.1834430E+03  0.7818608E-02  0.1164512E+00
         21   -1    0    0  503  502  0.00000000000E+00  0.00000000000E+00  0.14779395104E+03  0.14779395104E+03  0.00000000000E+00 0. -1.
         21   -1    0    0  501  503 -0.00000000000E+00 -0.00000000000E+00 -0.79588077924E+03  0.79588077924E+03  0.00000000000E+00 0. -1.
          6    1    1    2  501    0 -0.61314782214E+02 -0.17544749033E+02 -0.72271484283E+03  0.74563266075E+03  0.17200000000E+03 0. -1.
         -6    1    1    2    0  502  0.61314782214E+02  0.17544749033E+02  0.74628014623E+02  0.19804206953E+03  0.17200000000E+03 0. -1.
</event>
<event>
 4    1  0.4394643E+000  0.1881575E+03  0.7818608E-02  0.1160134E+00
         21   -1    0    0  501  502  0.00000000000E+00  0.00000000000E+00  0.22530736963E+03  0.22530736963E+03  0.00000000000E+00 0. -1.
         21   -1    0    0  502  503 -0.00000000000E+00 -0.00000000000E+00 -0.17233267442E+03  0.17233267442E+03  0.00000000000E+00 0. -1.
          6    1    1    2  501    0 -0.69674936076E+02  0.31058503853E+02 -0.32559016896E+02  0.19095370371E+03  0.17200000000E+03 0. -1.
         -6    1    1    2    0  503  0.69674936076E+02 -0.31058503853E+02  0.85533712106E+02  0.20668634035E+03  0.17200000000E+03 0. -1.
</event>
<event>
 4    1  0.4394643E+000  0.1814340E+03  0.7818608E-02  0.1166422E+00
         21   -1    0    0  503  502  0.00000000000E+00  0.00000000000E+00  0.45850439766E+02  0.45850439766E+02  0.00000000000E+00 0.  1.
         21   -1    0    0  501  503 -0.00000000000E+00 -0.00000000000E+00 -0.88503880095E+03  0.88503880095E+03  0.00000000000E+00 0. -1.
          6    1    1    2  501    0 -0.69318771427E+01 -0.57325744897E+02 -0.62183155459E+03  0.64775981214E+03  0.17200000000E+03 0. -1.
         -6    1    1    2    0  502  0.69318771427E+01  0.57325744897E+02 -0.21735680659E+03  0.28312942857E+03  0.17200000000E+03 0.  1.
</event>
<event>
 4    1  0.4394643E+000  0.2145922E+03  0.7818608E-02  0.1137980E+00
         21   -1    0    0  501  502  0.00000000000E+00  0.00000000000E+00  0.84365356312E+02  0.84365356312E+02  0.00000000000E+00 0.  1.
         21   -1    0    0  502  503 -0.00000000000E+00 -0.00000000000E+00 -0.86250596049E+03  0.86250596049E+03  0.00000000000E+00 0.  1.
          6    1    1    2  501    0 -0.12193528121E+03  0.39970019861E+02 -0.67593822704E+03  0.70918425114E+03  0.17200000000E+03 0.  1.
         -6    1    1    2    0  503  0.12193528121E+03 -0.39970019861E+02 -0.10220237714E+03  0.23768706567E+03  0.17200000000E+03 0.  1.
</event>
<event>
 4    1  0.4394643E+000  0.2027565E+03  0.7818608E-02  0.1147434E+00
         21   -1    0    0  503  502  0.00000000000E+00  0.00000000000E+00  0.10449739635E+03  0.10449739635E+03  0.00000000000E+00 0. -1.
         21   -1    0    0  501  503 -0.00000000000E+00 -0.00000000000E+00 -0.45580887771E+03  0.45580887771E+03  0.00000000000E+00 0.  1.
          6    1    1    2  501    0  0.50196822519E+02  0.94902389229E+02 -0.27931235652E+03  0.34514573295E+03  0.17200000000E+03 0.  1.
         -6    1    1    2    0  502 -0.50196822519E+02 -0.94902389229E+02 -0.71999124835E+02  0.21516054111E+03  0.17200000000E+03 0.  1.
</event>
<event>
 4    1  0.4394643E+000  0.2913330E+03  0.7818608E-02  0.1089655E+00
         21   -1    0    0  503  502  0.00000000000E+00  0.00000000000E+00  0.21939636719E+04  0.21939636719E+04  0.00000000000E+00 0.  1.
         21   -1    0    0  501  503 -0.00000000000E+00 -0.00000000000E+00 -0.41748584893E+03  0.41748584893E+03  0.00000000000E+00 0. -1.
          6    1    1    2  501    0  0.10583325473E+03 -0.20997679103E+03 -0.35551899370E+03  0.45963973442E+03  0.17200000000E+03 0. -1.
         -6    1    1    2    0  502 -0.10583325473E+03  0.20997679103E+03  0.21319968166E+04  0.21518097864E+04  0.17200000000E+03 0.  1.
</event>
<event>
 4    1  0.4394643E+000  0.1813280E+03  0.7818608E-02  0.1166524E+00
         21   -1    0    0  503  502  0.00000000000E+00  0.00000000000E+00  0.38105312875E+03  0.38105312875E+03  0.00000000000E+00 0. -1.
         21   -1    0    0  501  503 -0.00000000000E+00 -0.00000000000E+00 -0.33575051663E+03  0.33575051663E+03  0.00000000000E+00 0. -1.
          6    1    1    2  501    0  0.50427293060E+02  0.27439611289E+02 -0.28628260607E+03  0.33887693149E+03  0.17200000000E+03 0. -1.
         -6    1    1    2    0  502 -0.50427293060E+02 -0.27439611289E+02  0.33158521819E+03  0.37792671390E+03  0.17200000000E+03 0. -1.
</event>
<event>
 4    1  0.4394643E+000  0.2375472E+03  0.7818608E-02  0.1121438E+00
         21   -1    0    0  503  502  0.00000000000E+00  0.00000000000E+00  0.27204346622E+03  0.27204346622E+03  0.00000000000E+00 0.  1.
         21   -1    0    0  501  503 -0.00000000000E+00 -0.00000000000E+00 -0.21449284330E+03  0.21449284330E+03  0.00000000000E+00 0. -1.
          6    1    1    2  501    0 -0.16199016496E+03 -0.24573123455E+02 -0.15383589176E+02  0.23804475789E+03  0.17200000000E+03 0. -1.
         -6    1    1    2    0  502  0.16199016496E+03  0.24573123455E+02  0.72934212089E+02  0.24849155164E+03  0.17200000000E+03 0. -1.
</event>
<event>
 4    1  0.4394643E+000  0.1872913E+03  0.7818608E-02  0.1160927E+00
         21   -1    0    0  503  502  0.00000000000E+00  0.00000000000E+00  0.28282828436E+02  0.28282828436E+02  0.00000000000E+00 0. -1.
         21   -1    0    0  501  503 -0.00000000000E+00 -0.00000000000E+00 -0.12798273957E+04  0.12798273957E+04  0.00000000000E+00 0. -1.
          6    1    1    2  501    0 -0.36918909533E+02 -0.64273151756E+02 -0.74077567605E+03  0.76408549662E+03  0.17200000000E+03 0.  1.
         -6    1    1    2    0  502  0.36918909533E+02  0.64273151756E+02 -0.51076889122E+03  0.54402472752E+03  0.17200000000E+03 0.  1.
</event>
<event>
 4    1  0.4394643E+000  0.2425535E+03  0.7818608E-02  0.1118103E+00
         21   -1    0    0  503  502  0.00000000000E+00  0.00000000000E+00  0.39430553503E+03  0.39430553503E+03  0.00000000000E+00 0. -1.
         21   -1    0    0  501  503 -0.00000000000E+00 -0.00000000000E+00 -0.15398465596E+03  0.15398465596E+03  0.00000000000E+00 0.  1.
          6    1    1    2  501    0  0.11834421851E+03  0.12346194629E+03  0.71859287801E+02  0.25297423482E+03  0.17200000000E+03 0. -1.
         -6    1    1    2    0  502 -0.11834421851E+03 -0.12346194629E+03  0.16846159127E+03  0.29531595617E+03  0.17200000000E+03 0.  1.
</event>
<event>
 4    1  0.4394643E+000  0.2344999E+03  0.7818608E-02  0.1123512E+00
         21   -1    0    0  501  502  0.00000000000E+00  0.00000000000E+00  0.14100261426E+03  0.14100261426E+03  0.00000000000E+00 0. -1.
         21   -1    0    0  502  503 -0.00000000000E+00 -0.00000000000E+00 -0.59940215349E+03  0.59940215349E+03  0.00000000000E+00 0. -1.
          6    1    1    2  501    0 -0.37360678290E+02  0.15495279327E+03 -0.10384943050E+02  0.23472970725E+03  0.17200000000E+03 0. -1.
         -6    1    1    2    0  503  0.37360678290E+02 -0.15495279327E+03 -0.44801459618E+03  0.50567506050E+03  0.17200000000E+03 0. -1.
</event>
<event>
 4    1  0.4394643E+000  0.2330501E+03  0.7818608E-02  0.1124511E+00
         21   -1    0    0  501  502  0.00000000000E+00  0.00000000000E+00  0.11436029748E+03  0.11436029748E+03  0.00000000000E+00 0. -1.
         21   -1    0    0  502  503 -0.00000000000E+00 -0.00000000000E+00 -0.60404587128E+03  0.60404587128E+03  0.00000000000E+00 0.  1.
          6    1    1    2  501    0 -0.10119448735E+03 -0.12036626956E+03 -0.78767015154E+02  0.24600123128E+03  0.17200000000E+03 0. -1.
         -6    1    1    2    0  503  0.10119448735E+03  0.12036626956E+03 -0.41091855865E+03  0.47240493748E+03  0.17200000000E+03 0.  1.
</event>
<event>
 4    1  0.4394643E+000  0.1807416E+03  0.7818608E-02  0.1167087E+00
         21   -1    0    0  503  502  0.00000000000E+00  0.00000000000E+00  0.19969153774E+03  0.19969153774E+03  0.00000000000E+00 0. -1.
         21   -1    0    0  501  503 -0.00000000000E+00 -0.00000000000E+00 -0.30692204064E+03  0.30692204064E+03  0.00000000000E+00 0.  1.
          6    1    1    2  501    0  0.47390129120E+02  0.28943139256E+02 -0.22671821449E+03  0.28994599227E+03  0.17200000000E+03 0.  1.
         -6    1    1    2    0  502 -0.47390129120E+02 -0.28943139256E+02  0.11948771159E+03  0.21666758611E+03  0.17200000000E+03 0. -1.
</event>
<event>
 4    1  0.4394643E+000  0.1763214E+03  0.7818608E-02  0.1171411E+00
         21   -1    0    0  503  502  0.00000000000E+00  0.00000000000E+00  0.46695570745E+03  0.46695570745E+03  0.00000000000E+00 0.  1.
         21   -1    0    0  501  503 -0.00000000000E+00 -0.00000000000E+00 -0.25752259571E+03  0.25752259571E+03  0.00000000000E+00 0.  1.
          6    1    1    2  501    0 -0.27167422475E+02  0.27697558695E+02 -0.20720170632E+03  0.27206942258E+03  0.17200000000E+03 0.  1.
         -6    1    1    2    0  502  0.27167422475E+02 -0.27697558695E+02  0.41663481806E+03  0.45240888057E+03  0.17200000000E+03 0.  1.
</event>
<event>
 4    1  0.4394643E+000  0.3226324E+03  0.7818608E-02  0.1074444E+00
         21   -1    0    0  501  502  0.00000000000E+00  0.00000000000E+00  0.46375183691E+03  0.46375183691E+03  0.00000000000E+00 0.  1.
         21   -1    0    0  502  503 -0.00000000000E+00 -0.00000000000E+00 -0.22930172567E+03  0.22930172567E+03  0.00000000000E+00 0.  1.
          6    1    1    2  501    0  0.26397236830E+03  0.69471370067E+02  0.16760200475E+03  0.36356858292E+03  0.17200000000E+03 0.  1.
         -6    1    1    2    0  503 -0.26397236830E+03 -0.69471370067E+02  0.66848106485E+02  0.32948497967E+03  0.17200000000E+03 0.  1.
</event>
<event>
 4    1  0.4394643E+000  0.3579911E+03  0.7818608E-02  0.1059382E+00
         21   -1    0    0  501  502  0.00000000000E+00  0.00000000000E+00  0.66073356258E+02  0.66073356258E+02  0.00000000000E+00 0. -1.
         21   -1    0    0  502  503 -0.00000000000E+00 -0.00000000000E+00 -0.21349856896E+04  0.21349856896E+04  0.00000000000E+00 0.  1.
          6    1    1    2  501    0 -0.20534214135E+03  0.23750424586E+03 -0.70155091472E+03  0.78761116533E+03  0.17200000000E+03 0. -1.
         -6    1    1    2    0  503  0.20534214135E+03 -0.23750424586E+03 -0.13673614186E+04  0.14134478805E+04  0.17200000000E+03 0.  1.
</event>
<event>
 4    1  0.4394643E+000  0.2462433E+03  0.7818608E-02  0.1115702E+00
         21   -1    0    0  501  502  0.00000000000E+00  0.00000000000E+00  0.96947006574E+03  0.96947006574E+03  0.00000000000E+00 0.  1.
         21   -1    0    0  502  503 -0.00000000000E+00 -0.00000000000E+00 -0.80561265915E+02  0.80561265915E+02  0.00000000000E+00 0.  1.
          6    1    1    2  501    0 -0.11446590245E+03  0.13397498643E+03  0.69273260501E+03  0.73519670963E+03  0.17200000000E+03 0.  1.
         -6    1    1    2    0  503  0.11446590245E+03 -0.13397498643E+03  0.19617619482E+03  0.31483462202E+03  0.17200000000E+03 0.  1.
</event>
<event>
 4    1  0.4394643E+000  0.2099436E+03  0.7818608E-02  0.1141611E+00
         21   -1    0    0  503  502  0.00000000000E+00  0.00000000000E+00  0.19498745465E+03  0.19498745465E+03  0.00000000000E+00 0.  1.
         21   -1    0    0  501  503 -0.00000000000E+00 -0.00000000000E+00 -0.24260688286E+03  0.24260688286E+03  0.00000000000E+00 0.  1.
          6    1    1    2  501    0 -0.50005061640E+02 -0.10950703168E+03 -0.80973500450E+02  0.22501778586E+03  0.17200000000E+03 0. -1.
         -6    1    1    2    0  502  0.50005061640E+02  0.10950703168E+03  0.33354072240E+02  0.21257655165E+03  0.17200000000E+03 0. -1.
</event>
<event>
 4    1  0.4394643E+000  0.1976942E+03  0.7818608E-02  0.1151699E+00
         21   -1    0    0  503  502  0.00000000000E+00  0.00000000000E+00  0.21866634323E+03  0.21866634323E+03  0.00000000000E+00 0. -1.
         21   -1    0    0  501  503 -0.00000000000E+00 -0.00000000000E+00 -0.27000277102E+03  0.27000277102E+03  0.00000000000E+00 0. -1.
          6    1    1    2  501    0 -0.74988637928E+02 -0.62255173830E+02 -0.16772535088E+03  0.25925816441E+03  0.17200000000E+03 0.  1.
         -6    1    1    2    0  502  0.74988637928E+02  0.62255173830E+02  0.11638892309E+03  0.22941094984E+03  0.17200000000E+03 0.  1.
</event>
<event>
 4    1  0.4394643E+000  0.2019721E+03  0.7818608E-02  0.1148086E+00
         21   -1    0    0  503  502  0.00000000000E+00  0.00000000000E+00  0.27117100531E+03  0.27117100531E+03  0.00000000000E+00 0. -1.
         21   -1    0    0  501  503 -0.00000000000E+00 -0.00000000000E+00 -0.86444662247E+03  0.86444662247E+03  0.00000000000E+00 0. -1.
          6    1    1    2  501    0 -0.32352419214E+02 -0.10080708679E+03 -0.81268170593E+03  0.83740330960E+03  0.17200000000E+03 0. -1.
         -6    1    1    2    0  502  0.32352419214E+02  0.10080708679E+03  0.21940608877E+03  0.29821431818E+03  0.17200000000E+03 0. -1.
</event>
<event>
 4    1  0.4394643E+000  0.2011027E+03  0.7818608E-02  0.1148812E+00
         21   -1    0    0  503  502  0.00000000000E+00  0.00000000000E+00  0.34685109841E+03  0.34685109841E+03  0.00000000000E+00 0.  1.
         21   -1    0    0  501  503 -0.00000000000E+00 -0.00000000000E+00 -0.11714248110E+03  0.11714248110E+03  0.00000000000E+00 0.  1.
          6    1    1    2  501    0  0.48183712940E+02 -0.92393920658E+02  0.99044399724E+02  0.22416980145E+03  0.17200000000E+03 0.  1.
         -6    1    1    2    0  502 -0.48183712940E+02  0.92393920658E+02  0.13066421759E+03  0.23982377806E+03  0.17200000000E+03 0.  1.
</event>
<event>
 4    1  0.4394643E+000  0.1974241E+03  0.7818608E-02  0.1151931E+00
         21   -1    0    0  501  502  0.00000000000E+00  0.00000000000E+00  0.12508844507E+03  0.12508844507E+03  0.00000000000E+00 0.  1.
         21   -1    0    0  502  503 -0.00000000000E+00 -0.00000000000E+00 -0.39139415022E+03  0.39139415022E+03  0.00000000000E+00 0. -1.
          6    1    1    2  501    0  0.36752770480E+02 -0.89674554796E+02 -0.16543970504E+02  0.19811611463E+03  0.17200000000E+03 0.  1.
         -6    1    1    2    0  503 -0.36752770480E+02  0.89674554796E+02 -0.24976173465E+03  0.31836648066E+03  0.17200000000E+03 0.  1.
</event>
<event>
 4    1  0.4394643E+000  0.2017753E+03  0.7818608E-02  0.1148250E+00
         21   -1    0    0  503  502  0.00000000000E+00  0.00000000000E+00  0.64775217248E+03  0.64775217248E+03  0.00000000000E+00 0. -1.
         21   -1    0    0  501  503 -0.00000000000E+00 -0.00000000000E+00 -0.62859124975E+02  0.62859124975E+02  0.00000000000E+00 0. -1.
          6    1    1    2  501    0 -0.58580067044E+02 -0.87736316369E+02  0.29590117550E+03  0.35814911856E+03  0.17200000000E+03 0.  1.
         -6    1    1    2    0  502  0.58580067044E+02  0.87736316369E+02  0.28899187200E+03  0.35246217889E+03  0.17200000000E+03 0.  1.
</event>
<event>
 4    1  0.4394643E+000  0.2094284E+03  0.7818608E-02  0.1142019E+00
         21   -1    0    0  501  502  0.00000000000E+00  0.00000000000E+00  0.32560533919E+03  0.32560533919E+03  0.00000000000E+00 0.  1.
         21   -1    0    0  502  503 -0.00000000000E+00 -0.00000000000E+00 -0.15405946566E+03  0.15405946566E+03  0.00000000000E+00 0. -1.
          6    1    1    2  501    0 -0.12612320098E+02  0.11881572320E+03  0.17078268824E+03  0.27023503344E+03  0.17200000000E+03 0.  1.
         -6    1    1    2    0  503  0.12612320098E+02 -0.11881572320E+03  0.76318528971E+00  0.20942977140E+03  0.17200000000E+03 0. -1.
</event>
<event>
 4    1  0.4394643E+000  0.4844625E+03  0.7818608E-02  0.1017916E+00
         21   -1    0    0  503  502  0.00000000000E+00  0.00000000000E+00  0.34016112681E+03  0.34016112681E+03  0.00000000000E+00 0.  1.
         21   -1    0    0  501  503 -0.00000000000E+00 -0.00000000000E+00 -0.10291101154E+04  0.10291101154E+04  0.00000000000E+00 0. -1.
          6    1    1    2  501    0  0.44126028982E+03  0.10202569526E+03 -0.73749269776E+03  0.88238277698E+03  0.17200000000E+03 0. -1.
         -6    1    1    2    0  502 -0.44126028982E+03 -0.10202569526E+03  0.48543709171E+02  0.48688846522E+03  0.17200000000E+03 0. -1.
</event>
<event>
 4    1  0.4394643E+000  0.2767009E+03  0.7818608E-02  0.1097505E+00
         21   -1    0    0  501  502  0.00000000000E+00  0.00000000000E+00  0.16597260390E+03  0.16597260390E+03  0.00000000000E+00 0.  1.
         21   -1    0    0  502  503 -0.00000000000E+00 -0.00000000000E+00 -0.84384145945E+03  0.84384145945E+03  0.00000000000E+00 0. -1.
          6    1    1    2  501    0 -0.14486894630E+03 -0.16122146982E+03  0.10190750047E+01  0.27670275107E+03  0.17200000000E+03 0.  1.
         -6    1    1    2    0  503  0.14486894630E+03  0.16122146982E+03 -0.67888793055E+03  0.73311131228E+03  0.17200000000E+03 0. -1.
</event>
<event>
 4    1  0.4394643E+000  0.1914929E+03  0.7818608E-02  0.1157122E+00
         21   -1    0    0  503  502  0.00000000000E+00  0.00000000000E+00  0.18563323268E+03  0.18563323268E+03  0.00000000000E+00 0.  1.
         21   -1    0    0  501  503 -0.00000000000E+00 -0.00000000000E+00 -0.19993477271E+03  0.19993477271E+03  0.00000000000E+00 0.  1.
          6    1    1    2  501    0  0.40267495917E+02 -0.73919368852E+02 -0.28260174158E+02  0.19356699554E+03  0.17200000000E+03 0. -1.
         -6    1    1    2    0  502 -0.40267495917E+02  0.73919368852E+02  0.13958634129E+02  0.19200100986E+03  0.17200000000E+03 0. -1.
</event>
<event>
 4    1  0.4394643E+000  0.1992425E+03  0.7818608E-02  0.1150380E+00
         21   -1    0    0  503  502  0.00000000000E+00  0.00000000000E+00  0.15344338582E+03  0.15344338582E+03  0.00000000000E+00 0.  1.
         21   -1    0    0  501  503 -0.00000000000E+00 -0.00000000000E+00 -0.26746307923E+03  0.26746307923E+03  0.00000000000E+00 0. -1.
          6    1    1    2  501    0 -0.94220480671E+02 -0.35157653067E+02 -0.95078572832E+02  0.22076570059E+03  0.17200000000E+03 0.  1.
         -6    1    1    2    0  502  0.94220480671E+02  0.35157653067E+02 -0.18941120585E+02  0.20014076445E+03  0.17200000000E+03 0.  1.
</event>
<event>
 4    1  0.4394643E+000  0.2060279E+03  0.7818608E-02  0.1144751E+00
         21   -1    0    0  503  502  0.00000000000E+00  0.00000000000E+00  0.42015518238E+02  0.42015518238E+02  0.00000000000E+00 0.  1.
         21   -1    0    0  501  503 -0.00000000000E+00 -0.00000000000E+00 -0.10470944422E+04  0.10470944422E+04  0.00000000000E+00 0.  1.
          6    1    1    2  501    0 -0.76834456581E+02 -0.83426436266E+02 -0.60464484122E+03  0.63878234790E+03  0.17200000000E+03 0.  1.
         -6    1    1    2    0  502  0.76834456581E+02  0.83426436266E+02 -0.40043408276E+03  0.45032761254E+03  0.17200000000E+03 0.  1.
</event>
<event>
 4    1  0.4394643E+000  0.1779580E+03  0.7818608E-02  0.1169794E+00
         21   -1    0    0  501  502  0.00000000000E+00  0.00000000000E+00  0.31906300181E+03  0.31906300181E+03  0.00000000000E+00 0.  1.
         21   -1    0    0  502  503 -0.00000000000E+00 -0.00000000000E+00 -0.11178089891E+03  0.11178089891E+03  0.00000000000E+00 0.  1.
          6    1    1    2  501    0  0.39530208864E+01 -0.45490726534E+02  0.17574964183E+03  0.25011391240E+03  0.17200000000E+03 0.  1.
         -6    1    1    2    0  503 -0.39530208864E+01  0.45490726534E+02  0.31532461079E+02  0.18072998832E+03  0.17200000000E+03 0.  1.
</event>
<event>
 4    1  0.4394643E+000  0.2460122E+03  0.7818608E-02  0.1115851E+00
         21   -1    0    0  501  502  0.00000000000E+00  0.00000000000E+00  0.10082225782E+04  0.10082225782E+04  0.00000000000E+00 0. -1.
         21   -1    0    0  502  503 -0.00000000000E+00 -0.00000000000E+00 -0.42567446670E+03  0.42567446670E+03  0.00000000000E+00 0.  1.
          6    1    1    2  501    0  0.16477986808E+03 -0.61527296588E+02  0.95575053408E+03  0.98690480622E+03  0.17200000000E+03 0. -1.
         -6    1    1    2    0  503 -0.16477986808E+03  0.61527296588E+02 -0.37320242262E+03  0.44699223864E+03  0.17200000000E+03 0.  1.
</event>
<event>
 4    1  0.4394643E+000  0.3048906E+03  0.7818608E-02  0.1082821E+00
         21   -1    0    0  503  502  0.00000000000E+00  0.00000000000E+00  0.23559158437E+03  0.23559158437E+03  0.00000000000E+00 0.  1.
         21   -1    0    0  501  503 -0.00000000000E+00 -0.00000000000E+00 -0.57113046829E+03  0.57113046829E+03  0.00000000000E+00 0. -1.
          6    1    1    2  501    0 -0.19376155102E+03  0.16071945117E+03 -0.39203793168E+03  0.49664073586E+03  0.17200000000E+03 0. -1.
         -6    1    1    2    0  502  0.19376155102E+03 -0.16071945117E+03  0.56499047760E+02  0.31008131681E+03  0.17200000000E+03 0.  1.
</event>
<event>
 4    1  0.4394643E+000  0.1744137E+03  0.7818608E-02  0.1173322E+00
         21   -1    0    0  503  502  0.00000000000E+00  0.00000000000E+00  0.22760055340E+03  0.22760055340E+03  0.00000000000E+00 0. -1.
         21   -1    0    0  501  503 -0.00000000000E+00 -0.00000000000E+00 -0.14849787177E+03  0.14849787177E+03  0.00000000000E+00 0. -1.
          6    1    1    2  501    0 -0.24467848660E+02 -0.15409987066E+02 -0.19899509685E+02  0.17554524717E+03  0.17200000000E+03 0.  1.
         -6    1    1    2    0  502  0.24467848660E+02  0.15409987066E+02  0.99002191316E+02  0.20055317800E+03  0.17200000000E+03 0.  1.
</event>
<event>
 4    1  0.4394643E+000  0.1930983E+03  0.7818608E-02  0.1155696E+00
         21   -1    0    0  501  502  0.00000000000E+00  0.00000000000E+00  0.43420761956E+02  0.43420761956E+02  0.00000000000E+00 0. -1.
         21   -1    0    0  502  503 -0.00000000000E+00 -0.00000000000E+00 -0.86144266946E+03  0.86144266946E+03  0.00000000000E+00 0. -1.
          6    1    1    2  501    0 -0.36513796550E+02  0.79810378475E+02 -0.43437333100E+03  0.47536001571E+03  0.17200000000E+03 0. -1.
         -6    1    1    2    0  503  0.36513796550E+02 -0.79810378475E+02 -0.38364857651E+03  0.42950341571E+03  0.17200000000E+03 0. -1.
</event>
<event>
 4    1  0.4394643E+000  0.3019379E+03  0.7818608E-02  0.1084276E+00
         21   -1    0    0  503  502  0.00000000000E+00  0.00000000000E+00  0.84597701998E+03  0.84597701998E+03  0.00000000000E+00 0. -1.
         21   -1    0    0  501  503 -0.00000000000E+00 -0.00000000000E+00 -0.11768803511E+03  0.11768803511E+03  0.00000000000E+00 0. -1.
          6    1    1    2  501    0  0.47645715598E+02  0.24354137079E+03  0.22423170859E+03  0.37609356899E+03  0.17200000000E+03 0. -1.
         -6    1    1    2    0  502 -0.47645715598E+02 -0.24354137079E+03  0.50405727628E+03  0.58757148610E+03  0.17200000000E+03 0. -1.
</event>
<event>
 4    1  0.4394643E+000  0.2736575E+03  0.7818608E-02  0.1099204E+00
         21   -1    0    0  501  502  0.00000000000E+00  0.00000000000E+00  0.25373282077E+03  0.25373282077E+03  0.00000000000E+00 0. -1.
         21   -1    0    0  502  503 -0.00000000000E+00 -0.00000000000E+00 -0.39588024591E+03  0.39588024591E+03  0.00000000000E+00 0.  1.
          6    1    1    2  501    0  0.18376885546E+03 -0.10739381384E+03  0.92769985656E+02  0.28895448383E+03  0.17200000000E+03 0. -1.
         -6    1    1    2    0  503 -0.18376885546E+03  0.10739381384E+03 -0.23491741080E+03  0.36065858285E+03  0.17200000000E+03 0.  1.
</event>
<event>
 4    1  0.4394643E+000  0.1843878E+03  0.7818608E-02  0.1163623E+00
         21   -1    0    0  501  502  0.00000000000E+00  0.00000000000E+00  0.15929769021E+03  0.15929769021E+03  0.00000000000E+00 0. -1.
         21   -1    0    0  502  503 -0.00000000000E+00 -0.00000000000E+00 -0.21546701648E+03  0.21546701648E+03  0.00000000000E+00 0. -1.
          6    1    1    2  501    0 -0.34447806128E+01  0.66355061121E+02 -0.98639269021E+01  0.18465144923E+03  0.17200000000E+03 0.  1.
         -6    1    1    2    0  503  0.34447806128E+01 -0.66355061121E+02 -0.46305399366E+02  0.19011325746E+03  0.17200000000E+03 0.  1.
</event>
<event>
 4    1  0.4394643E+000  0.1756439E+03  0.7818608E-02  0.1172087E+00
         21   -1    0    0  501  502  0.00000000000E+00  0.00000000000E+00  0.83182532644E+03  0.83182532644E+03  0.00000000000E+00 0. -1.
         21   -1    0    0  502  503 -0.00000000000E+00 -0.00000000000E+00 -0.37088058455E+02  0.37088058455E+02  0.00000000000E+00 0. -1.
          6    1    1    2  501    0  0.35194755863E+02  0.53023553605E+01  0.39742497504E+03  0.43450822386E+03  0.17200000000E+03 0. -1.
         -6    1    1    2    0  503 -0.35194755863E+02 -0.53023553605E+01  0.39731229294E+03  0.43440516103E+03  0.17200000000E+03 0. -1.
</event>
<event>
 4    1  0.4394643E+000  0.2171142E+03  0.7818608E-02  0.1136053E+00
         21   -1    0    0  503  502  0.00000000000E+00  0.00000000000E+00  0.20476353211E+04  0.20476353211E+04  0.00000000000E+00 0. -1.
         21   -1    0    0  501  503 -0.00000000000E+00 -0.00000000000E+00 -0.10146060642E+03  0.10146060642E+03  0.00000000000E+00 0.  1.
          6    1    1    2  501    0 -0.10427771102E+03 -0.81735846414E+02  0.28276635953E+02  0.21894784253E+03  0.17200000000E+03 0.  1.
         -6    1    1    2    0  502  0.10427771102E+03  0.81735846414E+02  0.19178980788E+04  0.19301480850E+04  0.17200000000E+03 0. -1.
</event>
<event>
 4    1  0.4394643E+000  0.2336425E+03  0.7818608E-02  0.1124102E+00
         21   -1    0    0  503  502  0.00000000000E+00  0.00000000000E+00  0.41159790210E+03  0.41159790210E+03  0.00000000000E+00 0.  1.
         21   -1    0    0  501  503 -0.00000000000E+00 -0.00000000000E+00 -0.13262762800E+03  0.13262762800E+03  0.00000000000E+00 0. -1.
          6    1    1    2  501    0  0.91869719797E+02 -0.12870426220E+03  0.13872952933E+03  0.27172544017E+03  0.17200000000E+03 0.  1.
         -6    1    1    2    0  502 -0.91869719797E+02  0.12870426220E+03  0.14024074476E+03  0.27250008994E+03  0.17200000000E+03 0. -1.
</event>
<event>
 4    1  0.4394643E+000  0.2395508E+03  0.7818608E-02  0.1120092E+00
         21   -1    0    0  503  502  0.00000000000E+00  0.00000000000E+00  0.47051507946E+02  0.47051507946E+02  0.00000000000E+00 0.  1.
         21   -1    0    0  501  503 -0.00000000000E+00 -0.00000000000E+00 -0.12373338247E+04  0.12373338247E+04  0.00000000000E+00 0.  1.
          6    1    1    2  501    0 -0.31607720999E+02  0.16371168338E+03 -0.67199780502E+03  0.71341825968E+03  0.17200000000E+03 0.  1.
         -6    1    1    2    0  502  0.31607720999E+02 -0.16371168338E+03 -0.51828451177E+03  0.57096707299E+03  0.17200000000E+03 0.  1.
</event>
<event>
 4    1  0.4394643E+000  0.2844235E+03  0.7818608E-02  0.1093297E+00
         21   -1    0    0  501  502  0.00000000000E+00  0.00000000000E+00  0.51298305720E+03  0.51298305720E+03  0.00000000000E+00 0.  1.
         21   -1    0    0  502  503 -0.00000000000E+00 -0.00000000000E+00 -0.16077960170E+03  0.16077960170E+03  0.00000000000E+00 0.  1.
          6    1    1    2  501    0 -0.20235779128E+03  0.10180385537E+03  0.12946707872E+03  0.31250348019E+03  0.17200000000E+03 0.  1.
         -6    1    1    2    0  503  0.20235779128E+03 -0.10180385537E+03  0.22273637678E+03  0.36125917871E+03  0.17200000000E+03 0.  1.
</event>
<event>
 4    1  0.4394643E+000  0.3203814E+03  0.7818608E-02  0.1075474E+00
         21   -1    0    0  501  502  0.00000000000E+00  0.00000000000E+00  0.25712840645E+03  0.25712840645E+03  0.00000000000E+00 0. -1.
         21   -1    0    0  502  503 -0.00000000000E+00 -0.00000000000E+00 -0.11719834043E+04  0.11719834043E+04  0.00000000000E+00 0.  1.
          6    1    1    2  501    0  0.16994010166E+03 -0.21019181231E+03  0.12281018526E+03  0.34311306842E+03  0.17200000000E+03 0. -1.
         -6    1    1    2    0  503 -0.16994010166E+03  0.21019181231E+03 -0.10376651831E+04  0.10859987423E+04  0.17200000000E+03 0.  1.
</event>
<event>
 4    1  0.4394643E+000  0.1812890E+03  0.7818608E-02  0.1166561E+00
         21   -1    0    0  503  502  0.00000000000E+00  0.00000000000E+00  0.10617206423E+04  0.10617206423E+04  0.00000000000E+00 0.  1.
         21   -1    0    0  501  503 -0.00000000000E+00 -0.00000000000E+00 -0.31926871017E+02  0.31926871017E+02  0.00000000000E+00 0.  1.
          6    1    1    2  501    0 -0.15198699589E+02 -0.55233204624E+02  0.61029570928E+03  0.63665262124E+03  0.17200000000E+03 0.  1.
         -6    1    1    2    0  502  0.15198699589E+02  0.55233204624E+02  0.41949806200E+03  0.45699489207E+03  0.17200000000E+03 0.  1.
</event>
<event>
 4    1  0.4394643E+000  0.1929459E+03  0.7818608E-02  0.1155831E+00
         21   -1    0    0  501  502  0.00000000000E+00  0.00000000000E+00  0.19060713100E+03  0.19060713100E+03  0.00000000000E+00 0. -1.
         21   -1    0    0  502  503 -0.00000000000E+00 -0.00000000000E+00 -0.21040898363E+03  0.21040898363E+03  0.00000000000E+00 0. -1.
          6    1    1    2  501    0 -0.81383425621E+02 -0.31950947890E+02  0.43805317449E+02  0.19785608627E+03  0.17200000000E+03 0. -1.
         -6    1    1    2    0  503  0.81383425621E+02  0.31950947890E+02 -0.63607170086E+02  0.20316002836E+03  0.17200000000E+03 0. -1.
</event>
<event>
 4    1  0.4394643E+000  0.3100749E+03  0.7818608E-02  0.1080310E+00
         21   -1    0    0  501  502  0.00000000000E+00  0.00000000000E+00  0.30146497121E+03  0.30146497121E+03  0.00000000000E+00 0. -1.
         21   -1    0    0  502  503 -0.00000000000E+00 -0.00000000000E+00 -0.31963096375E+03  0.31963096375E+03  0.00000000000E+00 0.  1.
          6    1    1    2  501    0 -0.31611964332E+02  0.25605300960E+03 -0.23617782021E+02  0.31097308507E+03  0.17200000000E+03 0.  1.
         -6    1    1    2    0  503  0.31611964332E+02 -0.25605300960E+03  0.54517894869E+01  0.31012284989E+03  0.17200000000E+03 0. -1.
</event>
<event>
 4    1  0.4394643E+000  0.2256983E+03  0.7818608E-02  0.1129705E+00
         21   -1    0    0  503  502  0.00000000000E+00  0.00000000000E+00  0.15001387003E+04  0.15001387003E+04  0.00000000000E+00 0. -1.
         21   -1    0    0  501  503 -0.00000000000E+00 -0.00000000000E+00 -0.53048007342E+02  0.53048007342E+02  0.00000000000E+00 0.  1.
          6    1    1    2  501    0 -0.66224401660E+02 -0.13026918731E+03  0.25766201402E+03  0.34253386110E+03  0.17200000000E+03 0.  1.
         -6    1    1    2    0  502  0.66224401660E+02  0.13026918731E+03  0.11894286790E+04  0.12106528466E+04  0.17200000000E+03 0. -1.
</event>
<event>
 4    1  0.4394643E+000  0.2348819E+03  0.7818608E-02  0.1123250E+00
         21   -1    0    0  501  502  0.00000000000E+00  0.00000000000E+00  0.50593792265E+03  0.50593792265E+03  0.00000000000E+00 0.  1.
         21   -1    0    0  502  503 -0.00000000000E+00 -0.00000000000E+00 -0.10905787754E+03  0.10905787754E+03  0.00000000000E+00 0.  1.
          6    1    1    2  501    0 -0.15821286132E+03 -0.23541315443E+02  0.20190672559E+03  0.30973509465E+03  0.17200000000E+03 0.  1.
         -6    1    1    2    0  503  0.15821286132E+03  0.23541315443E+02  0.19497331952E+03  0.30526070554E+03  0.17200000000E+03 0.  1.
</event>
<event>
 4    1  0.4394643E+000  0.2913274E+03  0.7818608E-02  0.1089658E+00
         21   -1    0    0  503  502  0.00000000000E+00  0.00000000000E+00  0.42768174556E+02  0.42768174556E+02  0.00000000000E+00 0. -1.
         21   -1    0    0  501  503 -0.00000000000E+00 -0.00000000000E+00 -0.20935110576E+04  0.20935110576E+04  0.00000000000E+00 0. -1.
          6    1    1    2  501    0  0.98049472911E+02  0.21371468277E+03 -0.12691572664E+04  0.13021642875E+04  0.17200000000E+03 0. -1.
         -6    1    1    2    0  502 -0.98049472911E+02 -0.21371468277E+03 -0.78158561669E+03  0.83411494471E+03  0.17200000000E+03 0. -1.
</event>
<event>
 4    1  0.4394643E+000  0.2484805E+03  0.7818608E-02  0.1114269E+00
         21   -1    0    0  501  502  0.00000000000E+00  0.00000000000E+00  0.51834430268E+03  0.51834430268E+03  0.00000000000E+00 0. -1.
         21   -1    0    0  502  503 -0.00000000000E+00 -0.00000000000E+00 -0.17311163551E+03  0.17311163551E+03  0.00000000000E+00 0.  1.
          6    1    1    2  501    0  0.16961412100E+03 -0.58220533866E+02  0.36570409304E+03  0.44213353670E+03  0.17200000000E+03 0.  1.
         -6    1    1    2    0  503 -0.16961412100E+03  0.58220533866E+02 -0.20471425876E+02  0.24932240149E+03  0.17200000000E+03 0.  1.
</event>
<event>
 4    1  0.4394643E+000  0.1775167E+03  0.7818608E-02  0.1170228E+00
         21   -1    0    0  503  502  0.00000000000E+00  0.00000000000E+00  0.48771889789E+03  0.48771889789E+03  0.00000000000E+00 0. -1.
         21   -1    0    0  501  503 -0.00000000000E+00 -0.00000000000E+00 -0.85101967996E+02  0.85101967996E+02  0.00000000000E+00 0. -1.
          6    1    1    2  501    0  0.86176573450E+01  0.43057307278E+02  0.60769697337E+02  0.18763035960E+03  0.17200000000E+03 0. -1.
         -6    1    1    2    0  502 -0.86176573450E+01 -0.43057307278E+02  0.34184723256E+03  0.38519050629E+03  0.17200000000E+03 0. -1.
</event>
<event>
 4    1  0.4394643E+000  0.2345447E+03  0.7818608E-02  0.1123481E+00
         21   -1    0    0  503  502  0.00000000000E+00  0.00000000000E+00  0.31299276032E+04  0.31299276032E+04  0.00000000000E+00 0. -1.
         21   -1    0    0  501  503 -0.00000000000E+00 -0.00000000000E+00 -0.24217138934E+02  0.24217138934E+02  0.00000000000E+00 0.  1.
          6    1    1    2  501    0  0.10327269275E+03  0.12149891837E+03  0.72697823766E+03  0.76387734242E+03  0.17200000000E+03 0.  1.
         -6    1    1    2    0  502 -0.10327269275E+03 -0.12149891837E+03  0.23787322266E+04  0.23902673997E+04  0.17200000000E+03 0. -1.
</event>
<event>
 4    1  0.4394643E+000  0.2823174E+03  0.7818608E-02  0.1094430E+00
         21   -1    0    0  503  502  0.00000000000E+00  0.00000000000E+00  0.13383241073E+03  0.13383241073E+03  0.00000000000E+00 0. -1.
         21   -1    0    0  501  503 -0.00000000000E+00 -0.00000000000E+00 -0.61912682468E+03  0.61912682468E+03  0.00000000000E+00 0. -1.
          6    1    1    2  501    0  0.21704532774E+03 -0.54867222079E+02 -0.31612392788E+03  0.42383655356E+03  0.17200000000E+03 0. -1.
         -6    1    1    2    0  502 -0.21704532774E+03  0.54867222079E+02 -0.16917048607E+03  0.32912268185E+03  0.17200000000E+03 0. -1.
</event>
<event>
 4    1  0.4394643E+000  0.1940809E+03  0.7818608E-02  0.1154831E+00
         21   -1    0    0  501  502  0.00000000000E+00  0.00000000000E+00  0.41546030821E+03  0.41546030821E+03  0.00000000000E+00 0. -1.
         21   -1    0    0  502  503 -0.00000000000E+00 -0.00000000000E+00 -0.92193456520E+02  0.92193456520E+02  0.00000000000E+00 0.  1.
          6    1    1    2  501    0  0.83758986810E+02  0.32677856466E+02  0.19432352360E+03  0.27464348162E+03  0.17200000000E+03 0. -1.
         -6    1    1    2    0  503 -0.83758986810E+02 -0.32677856466E+02  0.12894332809E+03  0.23301028311E+03  0.17200000000E+03 0. -1.
</event>
<event>
 4    1  0.4394643E+000  0.2211130E+03  0.7818608E-02  0.1133056E+00
         21   -1    0    0  501  502  0.00000000000E+00  0.00000000000E+00  0.76904910335E+02  0.76904910335E+02  0.00000000000E+00 0. -1.
         21   -1    0    0  502  503 -0.00000000000E+00 -0.00000000000E+00 -0.96827076683E+03  0.96827076683E+03  0.00000000000E+00 0.  1.
          6    1    1    2  501    0 -0.13023294652E+02  0.13833785904E+03 -0.13942908619E+03  0.26140282998E+03  0.17200000000E+03 0.  1.
         -6    1    1    2    0  503  0.13023294652E+02 -0.13833785904E+03 -0.75193677030E+03  0.78377284718E+03  0.17200000000E+03 0.  1.
</event>
<event>
 4    1  0.4394643E+000  0.2394034E+03  0.7818608E-02  0.1120191E+00
         21   -1    0    0  501  502  0.00000000000E+00  0.00000000000E+00  0.15376333119E+03  0.15376333119E+03  0.00000000000E+00 0. -1.
         21   -1    0    0  502  503 -0.00000000000E+00 -0.00000000000E+00 -0.90879120944E+03  0.90879120944E+03  0.00000000000E+00 0. -1.
          6    1    1    2  501    0 -0.15984865895E+03  0.46673390657E+02  0.30515637906E+02  0.24134043035E+03  0.17200000000E+03 0. -1.
         -6    1    1    2    0  503  0.15984865895E+03 -0.46673390657E+02 -0.78554351615E+03  0.82121411029E+03  0.17200000000E+03 0. -1.
</event>
<event>
 4    1  0.4394643E+000  0.2009982E+03  0.7818608E-02  0.1148900E+00
         21   -1    0    0  503  502  0.00000000000E+00  0.00000000000E+00  0.28535165490E+03  0.28535165490E+03  0.00000000000E+00 0. -1.
         21   -1    0    0  501  503 -0.00000000000E+00 -0.00000000000E+00 -0.23572842363E+03  0.23572842363E+03  0.00000000000E+00 0.  1.
          6    1    1    2  501    0  0.69156798281E+02  0.77676223341E+02 -0.13984289843E+03  0.24485974488E+03  0.17200000000E+03 0.  1.
         -6    1    1    2    0  502 -0.69156798281E+02 -0.77676223341E+02  0.18946612970E+03  0.27622033365E+03  0.17200000000E+03 0. -1.
</event>
<event>
 4    1  0.4394643E+000  0.2409579E+03  0.7818608E-02  0.1119156E+00
         21   -1    0    0  503  502  0.00000000000E+00  0.00000000000E+00  0.22583239377E+03  0.22583239377E+03  0.00000000000E+00 0.  1.
         21   -1    0    0  501  503 -0.00000000000E+00 -0.00000000000E+00 -0.30933301035E+03  0.30933301035E+03  0.00000000000E+00 0.  1.
          6    1    1    2  501    0 -0.15366522946E+03 -0.69740369280E+02 -0.15170959365E+03  0.28473939428E+03  0.17200000000E+03 0.  1.
         -6    1    1    2    0  502  0.15366522946E+03  0.69740369280E+02  0.68208977067E+02  0.25042600984E+03  0.17200000000E+03 0.  1.
</event>
<event>
 4    1  0.4394643E+000  0.1831267E+03  0.7818608E-02  0.1164811E+00
         21   -1    0    0  501  502  0.00000000000E+00  0.00000000000E+00  0.79621875768E+02  0.79621875768E+02  0.00000000000E+00 0.  1.
         21   -1    0    0  502  503 -0.00000000000E+00 -0.00000000000E+00 -0.67502344834E+03  0.67502344834E+03  0.00000000000E+00 0.  1.
          6    1    1    2  501    0  0.75794349935E+01  0.62401439114E+02 -0.66316533669E+02  0.19476465305E+03  0.17200000000E+03 0.  1.
         -6    1    1    2    0  503 -0.75794349935E+01 -0.62401439114E+02 -0.52908503891E+03  0.55988067107E+03  0.17200000000E+03 0.  1.
</event>
<event>
 4    1  0.4394643E+000  0.1860635E+03  0.7818608E-02  0.1162060E+00
         21   -1    0    0  503  502  0.00000000000E+00  0.00000000000E+00  0.12954720510E+03  0.12954720510E+03  0.00000000000E+00 0. -1.
         21   -1    0    0  501  503 -0.00000000000E+00 -0.00000000000E+00 -0.26800675236E+03  0.26800675236E+03  0.00000000000E+00 0. -1.
          6    1    1    2  501    0 -0.70843690820E+02  0.40986058779E+01 -0.79892270903E+02  0.20249049866E+03  0.17200000000E+03 0. -1.
         -6    1    1    2    0  502  0.70843690820E+02 -0.40986058779E+01 -0.58567276356E+02  0.19506345880E+03  0.17200000000E+03 0. -1.
</event>
<event>
 4    1  0.4394643E+000  0.2011333E+03  0.7818608E-02  0.1148786E+00
         21   -1    0    0  503  502  0.00000000000E+00  0.00000000000E+00  0.25924387616E+03  0.25924387616E+03  0.00000000000E+00 0. -1.
         21   -1    0    0  501  503 -0.00000000000E+00 -0.00000000000E+00 -0.21655205051E+03  0.21655205051E+03  0.00000000000E+00 0. -1.
          6    1    1    2  501    0 -0.56948672016E+02 -0.87335268018E+02 -0.10440184492E+03  0.22661497194E+03  0.17200000000E+03 0. -1.
         -6    1    1    2    0  502  0.56948672016E+02  0.87335268018E+02  0.14709367056E+03  0.24918095474E+03  0.17200000000E+03 0. -1.
</event>
<event>
 4    1  0.4394643E+000  0.2169898E+03  0.7818608E-02  0.1136147E+00
         21   -1    0    0  501  502  0.00000000000E+00  0.00000000000E+00  0.10840752079E+04  0.10840752079E+04  0.00000000000E+00 0. -1.
         21   -1    0    0  502  503 -0.00000000000E+00 -0.00000000000E+00 -0.70704826613E+02  0.70704826613E+02  0.00000000000E+00 0. -1.
          6    1    1    2  501    0 -0.48912755737E+02  0.12291500742E+03  0.86527872466E+03  0.89207164963E+03  0.17200000000E+03 0. -1.
         -6    1    1    2    0  503  0.48912755737E+02 -0.12291500742E+03  0.14809165661E+03  0.26270838487E+03  0.17200000000E+03 0. -1.
</event>
<event>
 4    1  0.4394643E+000  0.1811094E+03  0.7818608E-02  0.1166734E+00
         21   -1    0    0  503  502  0.00000000000E+00  0.00000000000E+00  0.47847178819E+02  0.47847178819E+02  0.00000000000E+00 0.  1.
         21   -1    0    0  501  503 -0.00000000000E+00 -0.00000000000E+00 -0.15236233134E+04  0.15236233134E+04  0.00000000000E+00 0.  1.
          6    1    1    2  501    0 -0.29222022108E+02  0.48607344962E+02 -0.13206404117E+04  0.13330010119E+04  0.17200000000E+03 0.  1.
         -6    1    1    2    0  502  0.29222022108E+02 -0.48607344962E+02 -0.15513572290E+03  0.23846948040E+03  0.17200000000E+03 0.  1.
</event>
<event>
 4    1  0.4394643E+000  0.1944344E+03  0.7818608E-02  0.1154521E+00
         21   -1    0    0  503  502  0.00000000000E+00  0.00000000000E+00  0.26078761475E+03  0.26078761475E+03  0.00000000000E+00 0.  1.
         21   -1    0    0  501  503 -0.00000000000E+00 -0.00000000000E+00 -0.20975093706E+03  0.20975093706E+03  0.00000000000E+00 0.  1.
          6    1    1    2  501    0  0.74352731288E+02 -0.51888494608E+02 -0.10523653951E+03  0.22108702759E+03  0.17200000000E+03 0.  1.
         -6    1    1    2    0  502 -0.74352731288E+02  0.51888494608E+02  0.15627321719E+03  0.24945152422E+03  0.17200000000E+03 0.  1.
</event>
<event>
 4    1  0.4394643E+000  0.2279414E+03  0.7818608E-02  0.1128097E+00
         21   -1    0    0  503  502  0.00000000000E+00  0.00000000000E+00  0.24781275198E+04  0.24781275198E+04  0.00000000000E+00 0. -1.
         21   -1    0    0  501  503 -0.00000000000E+00 -0.00000000000E+00 -0.48193485804E+02  0.48193485804E+02  0.00000000000E+00 0.  1.
          6    1    1    2  501    0  0.56910793261E+02 -0.13832738188E+03  0.26553187781E+03  0.34994925504E+03  0.17200000000E+03 0.  1.
         -6    1    1    2    0  502 -0.56910793261E+02  0.13832738188E+03  0.21644021562E+04  0.21763717506E+04  0.17200000000E+03 0. -1.
</event>
<event>
 4    1  0.4394643E+000  0.2463919E+03  0.7818608E-02  0.1115607E+00
         21   -1    0    0  503  502  0.00000000000E+00  0.00000000000E+00  0.48089561568E+02  0.48089561568E+02  0.00000000000E+00 0. -1.
         21   -1    0    0  501  503 -0.00000000000E+00 -0.00000000000E+00 -0.12820743524E+04  0.12820743524E+04  0.00000000000E+00 0. -1.
          6    1    1    2  501    0  0.83534772219E+02 -0.15539277933E+03 -0.69935032517E+03  0.74148489624E+03  0.17200000000E+03 0. -1.
         -6    1    1    2    0  502 -0.83534772219E+02  0.15539277933E+03 -0.53463446566E+03  0.58867901773E+03  0.17200000000E+03 0. -1.
</event>
<event>
 4    1  0.4394643E+000  0.2321037E+03  0.7818608E-02  0.1125168E+00
         21   -1    0    0  501  502  0.00000000000E+00  0.00000000000E+00  0.29295848252E+03  0.29295848252E+03  0.00000000000E+00 0.  1.
         21   -1    0    0  502  503 -0.00000000000E+00 -0.00000000000E+00 -0.18611886006E+03  0.18611886006E+03  0.00000000000E+00 0. -1.
          6    1    1    2  501    0  0.24713293197E+02  0.15387450812E+03  0.79633606711E+02  0.24538464179E+03  0.17200000000E+03 0. -1.
         -6    1    1    2    0  503 -0.24713293197E+02 -0.15387450812E+03  0.27206015752E+02  0.23369270079E+03  0.17200000000E+03 0. -1.
</event>
<event>
 4    1  0.4394643E+000  0.1967262E+03  0.7818608E-02  0.1152531E+00
         21   -1    0    0  501  502  0.00000000000E+00  0.00000000000E+00  0.31011532549E+03  0.31011532549E+03  0.00000000000E+00 0.  1.
         21   -1    0    0  502  503 -0.00000000000E+00 -0.00000000000E+00 -0.15143543486E+03  0.15143543486E+03  0.00000000000E+00 0. -1.
          6    1    1    2  501    0 -0.26977165959E+02  0.91593855641E+02  0.17613137784E+03  0.26405201028E+03  0.17200000000E+03 0.  1.
         -6    1    1    2    0  503  0.26977165959E+02 -0.91593855641E+02 -0.17451487205E+02  0.19749875007E+03  0.17200000000E+03 0. -1.
</event>
<event>
 4    1  0.4394643E+000  0.1798625E+03  0.7818608E-02  0.1167936E+00
         21   -1    0    0  503  502  0.00000000000E+00  0.00000000000E+00  0.37212715418E+02  0.37212715418E+02  0.00000000000E+00 0.  1.
         21   -1    0    0  501  503 -0.00000000000E+00 -0.00000000000E+00 -0.92570346249E+03  0.92570346249E+03  0.00000000000E+00 0.  1.
          6    1    1    2  501    0  0.42930942069E+02  0.30388401579E+02 -0.32544455355E+03  0.37183958662E+03  0.17200000000E+03 0.  1.
         -6    1    1    2    0  502 -0.42930942069E+02 -0.30388401579E+02 -0.56304619352E+03  0.59107659130E+03  0.17200000000E+03 0.  1.
</event>
<event>
 4    1  0.4394643E+000  0.1854647E+03  0.7818608E-02  0.1162617E+00
         21   -1    0    0  503  502  0.00000000000E+00  0.00000000000E+00  0.10669598510E+03  0.10669598510E+03  0.00000000000E+00 0.  1.
         21   -1    0    0  501  503 -0.00000000000E+00 -0.00000000000E+00 -0.41617341455E+03  0.41617341455E+03  0.00000000000E+00 0.  1.
          6    1    1    2  501    0  0.14071926748E+02  0.67934925385E+02 -0.27884704131E+03  0.33489228963E+03  0.17200000000E+03 0.  1.
         -6    1    1    2    0  502 -0.14071926748E+02 -0.67934925385E+02 -0.30630388140E+02  0.18797711001E+03  0.17200000000E+03 0.  1.
</event>
<event>
 4    1  0.4394643E+000  0.1804342E+03  0.7818608E-02  0.1167384E+00
         21   -1    0    0  501  502  0.00000000000E+00  0.00000000000E+00  0.46492349689E+02  0.46492349689E+02  0.00000000000E+00 0.  1.
         21   -1    0    0  502  503 -0.00000000000E+00 -0.00000000000E+00 -0.95993347455E+03  0.95993347455E+03  0.00000000000E+00 0.  1.
          6    1    1    2  501    0 -0.49189895615E+02  0.23512641641E+02 -0.19499305641E+03  0.26566667498E+03  0.17200000000E+03 0.  1.
         -6    1    1    2    0  503  0.49189895615E+02 -0.23512641641E+02 -0.71844806844E+03  0.74075914925E+03  0.17200000000E+03 0.  1.
</event>
<event>
 4    1  0.4394643E+000  0.2340802E+03  0.7818608E-02  0.1123800E+00
         21   -1    0    0  501  502  0.00000000000E+00  0.00000000000E+00  0.84372389438E+03  0.84372389438E+03  0.00000000000E+00 0.  1.
         21   -1    0    0  502  503 -0.00000000000E+00 -0.00000000000E+00 -0.68270076658E+02  0.68270076658E+02  0.00000000000E+00 0.  1.
          6    1    1    2  501    0 -0.63093837612E+02  0.14570067703E+03  0.48839974642E+03  0.54159748147E+03  0.17200000000E+03 0.  1.
         -6    1    1    2    0  503  0.63093837612E+02 -0.14570067703E+03  0.28705407130E+03  0.37039648956E+03  0.17200000000E+03 0.  1.
</event>
<event>
 4    1  0.4394643E+000  0.1978093E+03  0.7818608E-02  0.1151601E+00
         21   -1    0    0  503  502  0.00000000000E+00  0.00000000000E+00  0.12986713372E+04  0.12986713372E+04  0.00000000000E+00 0.  1.
         21   -1    0    0  501  503 -0.00000000000E+00 -0.00000000000E+00 -0.32095297240E+02  0.32095297240E+02  0.00000000000E+00 0.  1.
          6    1    1    2  501    0  0.84305074691E+02  0.49367578533E+02  0.46862169274E+03  0.50865980216E+03  0.17200000000E+03 0.  1.
         -6    1    1    2    0  502 -0.84305074691E+02 -0.49367578533E+02  0.79795434718E+03  0.82210683224E+03  0.17200000000E+03 0.  1.
</event>
<event>
 4    1  0.4394643E+000  0.2144485E+03  0.7818608E-02  0.1138091E+00
         21   -1    0    0  503  502  0.00000000000E+00  0.00000000000E+00  0.12181517561E+03  0.12181517561E+03  0.00000000000E+00 0.  1.
         21   -1    0    0  501  503 -0.00000000000E+00 -0.00000000000E+00 -0.38270890097E+03  0.38270890097E+03  0.00000000000E+00 0.  1.
          6    1    1    2  501    0  0.73490335965E+02  0.10489672867E+03 -0.15980899380E+03  0.26744544801E+03  0.17200000000E+03 0.  1.
         -6    1    1    2    0  502 -0.73490335965E+02 -0.10489672867E+03 -0.10108473157E+03  0.23707862856E+03  0.17200000000E+03 0.  1.
</event>
<event>
 4    1  0.4394643E+000  0.2267798E+03  0.7818608E-02  0.1128927E+00
         21   -1    0    0  501  502  0.00000000000E+00  0.00000000000E+00  0.76497067624E+03  0.76497067624E+03  0.00000000000E+00 0.  1.
         21   -1    0    0  502  503 -0.00000000000E+00 -0.00000000000E+00 -0.10660744629E+03  0.10660744629E+03  0.00000000000E+00 0.  1.
          6    1    1    2  501    0  0.98143878472E+02  0.11051182253E+03  0.59403502564E+03  0.63585115828E+03  0.17200000000E+03 0.  1.
         -6    1    1    2    0  503 -0.98143878472E+02 -0.11051182253E+03  0.64328204309E+02  0.23572696424E+03  0.17200000000E+03 0.  1.
</event>
<event>
 4    1  0.4394643E+000  0.2114427E+03  0.7818608E-02  0.1140429E+00
         21   -1    0    0  501  502  0.00000000000E+00  0.00000000000E+00  0.43153002759E+03  0.43153002759E+03  0.00000000000E+00 0. -1.
         21   -1    0    0  502  503 -0.00000000000E+00 -0.00000000000E+00 -0.17953035775E+03  0.17953035775E+03  0.00000000000E+00 0. -1.
          6    1    1    2  501    0 -0.22629297323E+02 -0.12087977644E+03  0.32469303467E+03  0.38747073724E+03  0.17200000000E+03 0. -1.
         -6    1    1    2    0  503  0.22629297323E+02  0.12087977644E+03 -0.72693364836E+02  0.22358964811E+03  0.17200000000E+03 0. -1.
</event>
<event>
 4    1  0.4394643E+000  0.1774769E+03  0.7818608E-02  0.1170267E+00
         21   -1    0    0  503  502  0.00000000000E+00  0.00000000000E+00  0.69698923348E+02  0.69698923348E+02  0.00000000000E+00 0.  1.
         21   -1    0    0  501  503 -0.00000000000E+00 -0.00000000000E+00 -0.46382945402E+03  0.46382945402E+03  0.00000000000E+00 0.  1.
          6    1    1    2  501    0  0.43501935541E+02  0.46515414082E+01 -0.23981841396E+03  0.29834699078E+03  0.17200000000E+03 0.  1.
         -6    1    1    2    0  502 -0.43501935541E+02 -0.46515414082E+01 -0.15431211671E+03  0.23518138659E+03  0.17200000000E+03 0.  1.
</event>
<event>
 4    1  0.4394643E+000  0.1754274E+03  0.7818608E-02  0.1172303E+00
         21   -1    0    0  503  502  0.00000000000E+00  0.00000000000E+00  0.64231456918E+02  0.64231456918E+02  0.00000000000E+00 0.  1.
         21   -1    0    0  501  503 -0.00000000000E+00 -0.00000000000E+00 -0.48850885602E+03  0.48850885602E+03  0.00000000000E+00 0.  1.
          6    1    1    2  501    0  0.31686047158E+02  0.13666837013E+02 -0.17383111427E+03  0.24696567435E+03  0.17200000000E+03 0.  1.
         -6    1    1    2    0  502 -0.31686047158E+02 -0.13666837013E+02 -0.25044628483E+03  0.30577463859E+03  0.17200000000E+03 0.  1.
</event>
<event>
 4    1  0.4394643E+000  0.1786377E+03  0.7818608E-02  0.1169128E+00
         21   -1    0    0  501  502  0.00000000000E+00  0.00000000000E+00  0.33255188473E+03  0.33255188473E+03  0.00000000000E+00 0. -1.
         21   -1    0    0  502  503 -0.00000000000E+00 -0.00000000000E+00 -0.97000678191E+02  0.97000678191E+02  0.00000000000E+00 0. -1.
          6    1    1    2  501    0 -0.30005973943E+02  0.37776718678E+02  0.14002958060E+03  0.22697956381E+03  0.17200000000E+03 0. -1.
         -6    1    1    2    0  503  0.30005973943E+02 -0.37776718678E+02  0.95521625947E+02  0.20257299911E+03  0.17200000000E+03 0. -1.
</event>
<event>
 4    1  0.4394643E+000  0.1781866E+03  0.7818608E-02  0.1169570E+00
         21   -1    0    0  503  502  0.00000000000E+00  0.00000000000E+00  0.18924722114E+03  0.18924722114E+03  0.00000000000E+00 0.  1.
         21   -1    0    0  501  503 -0.00000000000E+00 -0.00000000000E+00 -0.27093496396E+03  0.27093496396E+03  0.00000000000E+00 0.  1.
          6    1    1    2  501    0 -0.46115919414E+02  0.63068421090E+01 -0.18282427683E+03  0.25529428211E+03  0.17200000000E+03 0.  1.
         -6    1    1    2    0  502  0.46115919414E+02 -0.63068421090E+01  0.10113653401E+03  0.20488790299E+03  0.17200000000E+03 0.  1.
</event>
<event>
 4    1  0.4394643E+000  0.2706177E+03  0.7818608E-02  0.1100927E+00
         21   -1    0    0  501  502  0.00000000000E+00  0.00000000000E+00  0.43378071784E+03  0.43378071784E+03  0.00000000000E+00 0. -1.
         21   -1    0    0  502  503 -0.00000000000E+00 -0.00000000000E+00 -0.28842917064E+03  0.28842917064E+03  0.00000000000E+00 0.  1.
          6    1    1    2  501    0 -0.15557357097E+03 -0.13945183488E+03  0.30520800185E+03  0.40790424689E+03  0.17200000000E+03 0. -1.
         -6    1    1    2    0  503  0.15557357097E+03  0.13945183488E+03 -0.15985645465E+03  0.31430564158E+03  0.17200000000E+03 0.  1.
</event>
<event>
 4    1  0.4394643E+000  0.1934512E+03  0.7818608E-02  0.1155385E+00
         21   -1    0    0  503  502  0.00000000000E+00  0.00000000000E+00  0.11453900156E+03  0.11453900156E+03  0.00000000000E+00 0. -1.
         21   -1    0    0  501  503 -0.00000000000E+00 -0.00000000000E+00 -0.83553273369E+03  0.83553273369E+03  0.00000000000E+00 0.  1.
          6    1    1    2  501    0 -0.11955151604E+02 -0.87729395079E+02 -0.73119399319E+03  0.75635178858E+03  0.17200000000E+03 0.  1.
         -6    1    1    2    0  502  0.11955151604E+02  0.87729395079E+02  0.10200261068E+02  0.19371994667E+03  0.17200000000E+03 0. -1.
</event>
<event>
 4    1  0.4394643E+000  0.1866440E+03  0.7818608E-02  0.1161524E+00
         21   -1    0    0  503  502  0.00000000000E+00  0.00000000000E+00  0.15327631413E+03  0.15327631413E+03  0.00000000000E+00 0. -1.
         21   -1    0    0  501  503 -0.00000000000E+00 -0.00000000000E+00 -0.41343433071E+03  0.41343433071E+03  0.00000000000E+00 0.  1.
          6    1    1    2  501    0  0.67018673381E+02  0.27576878320E+02 -0.32021732928E+03  0.37064150438E+03  0.17200000000E+03 0.  1.
         -6    1    1    2    0  502 -0.67018673381E+02 -0.27576878320E+02  0.60059312694E+02  0.19606914046E+03  0.17200000000E+03 0. -1.
</event>
<event>
 4    1  0.4394643E+000  0.1989290E+03  0.7818608E-02  0.1150646E+00
         21   -1    0    0  503  502  0.00000000000E+00  0.00000000000E+00  0.41137857518E+03  0.41137857518E+03  0.00000000000E+00 0.  1.
         21   -1    0    0  501  503 -0.00000000000E+00 -0.00000000000E+00 -0.26525262016E+03  0.26525262016E+03  0.00000000000E+00 0.  1.
          6    1    1    2  501    0 -0.99426602385E+02 -0.10153505060E+02 -0.19702732445E+03  0.27998662380E+03  0.17200000000E+03 0.  1.
         -6    1    1    2    0  502  0.99426602385E+02  0.10153505060E+02  0.34315327947E+03  0.39664457154E+03  0.17200000000E+03 0.  1.
</event>
<event>
 4    1  0.4394643E+000  0.2224349E+03  0.7818608E-02  0.1132081E+00
         21   -1    0    0  501  502  0.00000000000E+00  0.00000000000E+00  0.14199264858E+04  0.14199264858E+04  0.00000000000E+00 0. -1.
         21   -1    0    0  502  503 -0.00000000000E+00 -0.00000000000E+00 -0.65154330488E+02  0.65154330488E+02  0.00000000000E+00 0. -1.
          6    1    1    2  501    0  0.48194112401E+02 -0.13255423118E+03  0.11838363760E+04  0.12045521416E+04  0.17200000000E+03 0. -1.
         -6    1    1    2    0  503 -0.48194112401E+02  0.13255423118E+03  0.17093577930E+03  0.28052867468E+03  0.17200000000E+03 0. -1.
</event>
<event>
 4    1  0.4394643E+000  0.2566256E+03  0.7818608E-02  0.1109188E+00
         21   -1    0    0  501  502  0.00000000000E+00  0.00000000000E+00  0.64733218769E+02  0.64733218769E+02  0.00000000000E+00 0. -1.
         21   -1    0    0  502  503 -0.00000000000E+00 -0.00000000000E+00 -0.18775359836E+04  0.18775359836E+04  0.00000000000E+00 0.  1.
          6    1    1    2  501    0 -0.17270754486E+03 -0.80279432632E+02 -0.24907640398E+03  0.35762513666E+03  0.17200000000E+03 0. -1.
         -6    1    1    2    0  503  0.17270754486E+03  0.80279432632E+02 -0.15637263609E+04  0.15846440657E+04  0.17200000000E+03 0.  1.
</event>
<event>
 4    1  0.4394643E+000  0.2657228E+03  0.7818608E-02  0.1103753E+00
         21   -1    0    0  503  502  0.00000000000E+00  0.00000000000E+00  0.59567256893E+02  0.59567256893E+02  0.00000000000E+00 0. -1.
         21   -1    0    0  501  503 -0.00000000000E+00 -0.00000000000E+00 -0.13006210484E+04  0.13006210484E+04  0.00000000000E+00 0. -1.
          6    1    1    2  501    0  0.60937243006E+02 -0.19316128178E+03 -0.82298511718E+03  0.86481971039E+03  0.17200000000E+03 0. -1.
         -6    1    1    2    0  502 -0.60937243006E+02  0.19316128178E+03 -0.41806867430E+03  0.49536859488E+03  0.17200000000E+03 0. -1.
</event>
<event>
 4    1  0.4394643E+000  0.1723202E+03  0.7818608E-02  0.1175450E+00
         21   -1    0    0  501  502  0.00000000000E+00  0.00000000000E+00  0.53242256604E+03  0.53242256604E+03  0.00000000000E+00 0.  1.
         21   -1    0    0  502  503 -0.00000000000E+00 -0.00000000000E+00 -0.56031397440E+02  0.56031397440E+02  0.00000000000E+00 0.  1.
          6    1    1    2  501    0 -0.10342856786E+02  0.18096746576E+01  0.21817467501E+03  0.27801877351E+03  0.17200000000E+03 0.  1.
         -6    1    1    2    0  503  0.10342856786E+02 -0.18096746576E+01  0.25821649359E+03  0.31043518997E+03  0.17200000000E+03 0.  1.
</event>
<event>
 4    1  0.4394643E+000  0.2013271E+03  0.7818608E-02  0.1148624E+00
         21   -1    0    0  503  502  0.00000000000E+00  0.00000000000E+00  0.31647483613E+03  0.31647483613E+03  0.00000000000E+00 0. -1.
         21   -1    0    0  501  503 -0.00000000000E+00 -0.00000000000E+00 -0.19946149632E+03  0.19946149632E+03  0.00000000000E+00 0.  1.
          6    1    1    2  501    0 -0.37595366030E+02 -0.97648317106E+02 -0.95820979535E+02  0.22296696056E+03  0.17200000000E+03 0.  1.
         -6    1    1    2    0  502  0.37595366030E+02  0.97648317106E+02  0.21283431934E+03  0.29296937190E+03  0.17200000000E+03 0. -1.
</event>
<event>
 4    1  0.4394643E+000  0.4485812E+03  0.7818608E-02  0.1028146E+00
         21   -1    0    0  501  502  0.00000000000E+00  0.00000000000E+00  0.23299967265E+03  0.23299967265E+03  0.00000000000E+00 0.  1.
         21   -1    0    0  502  503 -0.00000000000E+00 -0.00000000000E+00 -0.10930935916E+04  0.10930935916E+04  0.00000000000E+00 0.  1.
          6    1    1    2  501    0  0.78428826749E+02  0.40680465702E+03 -0.12625665648E+03  0.46601057192E+03  0.17200000000E+03 0.  1.
         -6    1    1    2    0  503 -0.78428826749E+02 -0.40680465702E+03 -0.73383726242E+03  0.86008269228E+03  0.17200000000E+03 0.  1.
</event>
<event>
 4    1  0.4394643E+000  0.1988486E+03  0.7818608E-02  0.1150714E+00
         21   -1    0    0  501  502  0.00000000000E+00  0.00000000000E+00  0.83444006563E+03  0.83444006563E+03  0.00000000000E+00 0.  1.
         21   -1    0    0  502  503 -0.00000000000E+00 -0.00000000000E+00 -0.61465755070E+02  0.61465755070E+02  0.00000000000E+00 0.  1.
          6    1    1    2  501    0  0.84566111128E+02 -0.52965278364E+02  0.60088175384E+03  0.63292940362E+03  0.17200000000E+03 0.  1.
         -6    1    1    2    0  503 -0.84566111128E+02  0.52965278364E+02  0.17209255672E+03  0.26297641708E+03  0.17200000000E+03 0.  1.
</event>
<event>
 4    1  0.4394643E+000  0.2105694E+03  0.7818608E-02  0.1141116E+00
         21   -1    0    0  503  502  0.00000000000E+00  0.00000000000E+00  0.12037330845E+04  0.12037330845E+04  0.00000000000E+00 0. -1.
         21   -1    0    0  501  503 -0.00000000000E+00 -0.00000000000E+00 -0.12522207723E+03  0.12522207723E+03  0.00000000000E+00 0.  1.
          6    1    1    2  501    0  0.10433846096E+03 -0.62200840064E+02 -0.19001741007E+02  0.21142498694E+03  0.17200000000E+03 0.  1.
         -6    1    1    2    0  502 -0.10433846096E+03  0.62200840064E+02  0.10975127483E+04  0.11175301748E+04  0.17200000000E+03 0. -1.
</event>
<event>
 4    1  0.4394643E+000  0.4474673E+03  0.7818608E-02  0.1028480E+00
         21   -1    0    0  503  502  0.00000000000E+00  0.00000000000E+00  0.37776082112E+03  0.37776082112E+03  0.00000000000E+00 0. -1.
         21   -1    0    0  501  503 -0.00000000000E+00 -0.00000000000E+00 -0.70810653280E+03  0.70810653280E+03  0.00000000000E+00 0.  1.
          6    1    1    2  501    0 -0.26798309813E+03 -0.31436923035E+03 -0.43743867610E+03  0.62576317343E+03  0.17200000000E+03 0.  1.
         -6    1    1    2    0  502  0.26798309813E+03  0.31436923035E+03  0.10709296443E+03  0.46010418049E+03  0.17200000000E+03 0. -1.
</event>
<event>
 4    1  0.4394643E+000  0.2107628E+03  0.7818608E-02  0.1140963E+00
         21   -1    0    0  501  502  0.00000000000E+00  0.00000000000E+00  0.83123039753E+02  0.83123039753E+02  0.00000000000E+00 0.  1.
         21   -1    0    0  502  503 -0.00000000000E+00 -0.00000000000E+00 -0.58285145243E+03  0.58285145243E+03  0.00000000000E+00 0.  1.
          6    1    1    2  501    0  0.11300097011E+03 -0.45472326054E+02 -0.15385738312E+03  0.26094644283E+03  0.17200000000E+03 0.  1.
         -6    1    1    2    0  503 -0.11300097011E+03  0.45472326054E+02 -0.34587102955E+03  0.40502804935E+03  0.17200000000E+03 0.  1.
</event>
<event>
 4    1  0.4394643E+000  0.1804486E+03  0.7818608E-02  0.1167370E+00
         21   -1    0    0  503  502  0.00000000000E+00  0.00000000000E+00  0.53637698885E+03  0.53637698885E+03  0.00000000000E+00 0.  1.
         21   -1    0    0  501  503 -0.00000000000E+00 -0.00000000000E+00 -0.11109054086E+03  0.11109054086E+03  0.00000000000E+00 0. -1.
          6    1    1    2  501    0  0.52173154845E+02  0.15989325696E+02 -0.53760730346E+01  0.18052866472E+03  0.17200000000E+03 0. -1.
         -6    1    1    2    0  502 -0.52173154845E+02 -0.15989325696E+02  0.43066252103E+03  0.46693886499E+03  0.17200000000E+03 0.  1.
</event>
<event>
 4    1  0.4394643E+000  0.1860853E+03  0.7818608E-02  0.1162040E+00
         21   -1    0    0  501  502  0.00000000000E+00  0.00000000000E+00  0.21210473899E+03  0.21210473899E+03  0.00000000000E+00 0.  1.
         21   -1    0    0  502  503 -0.00000000000E+00 -0.00000000000E+00 -0.29091577449E+03  0.29091577449E+03  0.00000000000E+00 0.  1.
          6    1    1    2  501    0 -0.69177993661E+02  0.16066645716E+02  0.12720261971E+03  0.22540682858E+03  0.17200000000E+03 0.  1.
         -6    1    1    2    0  503  0.69177993661E+02 -0.16066645716E+02 -0.20601365521E+03  0.27761368490E+03  0.17200000000E+03 0.  1.
</event>
<event>
 4    1  0.4394643E+000  0.2150690E+03  0.7818608E-02  0.1137614E+00
         21   -1    0    0  501  502  0.00000000000E+00  0.00000000000E+00  0.28974029657E+03  0.28974029657E+03  0.00000000000E+00 0.  1.
         21   -1    0    0  502  503 -0.00000000000E+00 -0.00000000000E+00 -0.26163511945E+03  0.26163511945E+03  0.00000000000E+00 0.  1.
          6    1    1    2  501    0 -0.96563216384E+02 -0.85710006735E+02  0.18618207164E+03  0.28446163856E+03  0.17200000000E+03 0.  1.
         -6    1    1    2    0  503  0.96563216384E+02  0.85710006735E+02 -0.15807689453E+03  0.26691377746E+03  0.17200000000E+03 0.  1.
</event>
<event>
 4    1  0.4394643E+000  0.2171747E+03  0.7818608E-02  0.1136007E+00
         21   -1    0    0  501  502  0.00000000000E+00  0.00000000000E+00  0.20899873089E+03  0.20899873089E+03  0.00000000000E+00 0. -1.
         21   -1    0    0  502  503 -0.00000000000E+00 -0.00000000000E+00 -0.29296944054E+03  0.29296944054E+03  0.00000000000E+00 0.  1.
          6    1    1    2  501    0  0.12989389235E+03  0.26616572763E+02  0.78307234537E+02  0.23086118815E+03  0.17200000000E+03 0. -1.
         -6    1    1    2    0  503 -0.12989389235E+03 -0.26616572763E+02 -0.16227794418E+03  0.27110698328E+03  0.17200000000E+03 0.  1.
</event>
<event>
 4    1  0.4394643E+000  0.2004842E+03  0.7818608E-02  0.1149331E+00
         21   -1    0    0  501  502  0.00000000000E+00  0.00000000000E+00  0.37893506277E+03  0.37893506277E+03  0.00000000000E+00 0. -1.
         21   -1    0    0  502  503 -0.00000000000E+00 -0.00000000000E+00 -0.10770053804E+03  0.10770053804E+03  0.00000000000E+00 0.  1.
          6    1    1    2  501    0  0.10225101658E+03 -0.12436333585E+02  0.16554874512E+03  0.26000061499E+03  0.17200000000E+03 0.  1.
         -6    1    1    2    0  503 -0.10225101658E+03  0.12436333585E+02  0.10568577962E+03  0.22663498582E+03  0.17200000000E+03 0.  1.
</event>
<event>
 4    1  0.4394643E+000  0.2882513E+03  0.7818608E-02  0.1091266E+00
         21   -1    0    0  503  502  0.00000000000E+00  0.00000000000E+00  0.62774227861E+03  0.62774227861E+03  0.00000000000E+00 0.  1.
         21   -1    0    0  501  503 -0.00000000000E+00 -0.00000000000E+00 -0.13853386405E+03  0.13853386405E+03  0.00000000000E+00 0. -1.
          6    1    1    2  501    0 -0.22861905275E+03 -0.35187326631E+02  0.16373034835E+03  0.33150632906E+03  0.17200000000E+03 0. -1.
         -6    1    1    2    0  502  0.22861905275E+03  0.35187326631E+02  0.32547806621E+03  0.43476981360E+03  0.17200000000E+03 0.  1.
</event>
<event>
 4    1  0.4394643E+000  0.1886817E+03  0.7818608E-02  0.1159656E+00
         21   -1    0    0  501  502  0.00000000000E+00  0.00000000000E+00  0.35691244415E+03  0.35691244415E+03  0.00000000000E+00 0. -1.
         21   -1    0    0  502  503 -0.00000000000E+00 -0.00000000000E+00 -0.19081440977E+03  0.19081440977E+03  0.00000000000E+00 0. -1.
          6    1    1    2  501    0  0.72228348761E+02 -0.28281876705E+02  0.27224457099E+03  0.33123693234E+03  0.17200000000E+03 0. -1.
         -6    1    1    2    0  503 -0.72228348761E+02  0.28281876705E+02 -0.10614653660E+03  0.21648992158E+03  0.17200000000E+03 0. -1.
</event>
<event>
 4    1  0.4394643E+000  0.1959872E+03  0.7818608E-02  0.1153169E+00
         21   -1    0    0  501  502  0.00000000000E+00  0.00000000000E+00  0.10506912038E+03  0.10506912038E+03  0.00000000000E+00 0.  1.
         21   -1    0    0  502  503 -0.00000000000E+00 -0.00000000000E+00 -0.36611284031E+03  0.36611284031E+03  0.00000000000E+00 0.  1.
          6    1    1    2  501    0 -0.89393683103E+02  0.28909063746E+02 -0.12151773752E+03  0.23060252617E+03  0.17200000000E+03 0.  1.
         -6    1    1    2    0  503  0.89393683103E+02 -0.28909063746E+02 -0.13952598241E+03  0.24057943452E+03  0.17200000000E+03 0.  1.
</event>
<event>
 4    1  0.4394643E+000  0.1735623E+03  0.7818608E-02  0.1174183E+00
         21   -1    0    0  501  502  0.00000000000E+00  0.00000000000E+00  0.59921830323E+03  0.59921830323E+03  0.00000000000E+00 0.  1.
         21   -1    0    0  502  503 -0.00000000000E+00 -0.00000000000E+00 -0.98431388058E+02  0.98431388058E+02  0.00000000000E+00 0.  1.
          6    1    1    2  501    0  0.10727352809E+02 -0.20610270936E+02  0.63981856497E+01  0.17368015473E+03  0.17200000000E+03 0.  1.
         -6    1    1    2    0  503 -0.10727352809E+02  0.20610270936E+02  0.49438872952E+03  0.52396953656E+03  0.17200000000E+03 0.  1.
</event>
<event>
 4    1  0.4394643E+000  0.2933412E+03  0.7818608E-02  0.1088617E+00
         21   -1    0    0  501  502  0.00000000000E+00  0.00000000000E+00  0.37002033180E+03  0.37002033180E+03  0.00000000000E+00 0. -1.
         21   -1    0    0  502  503 -0.00000000000E+00 -0.00000000000E+00 -0.23259609443E+03  0.23259609443E+03  0.00000000000E+00 0. -1.
          6    1    1    2  501    0  0.61479873376E+02  0.22953271618E+03  0.72851246299E+02  0.30225212442E+03  0.17200000000E+03 0. -1.
         -6    1    1    2    0  503 -0.61479873376E+02 -0.22953271618E+03  0.64572991067E+02  0.30036430181E+03  0.17200000000E+03 0. -1.
</event>
<event>
 4    1  0.4394643E+000  0.1929116E+03  0.7818608E-02  0.1155861E+00
         21   -1    0    0  503  502  0.00000000000E+00  0.00000000000E+00  0.45334728024E+03  0.45334728024E+03  0.00000000000E+00 0.  1.
         21   -1    0    0  501  503 -0.00000000000E+00 -0.00000000000E+00 -0.82190348741E+02  0.82190348741E+02  0.00000000000E+00 0.  1.
          6    1    1    2  501    0 -0.45275409625E+02  0.74706175370E+02  0.17618079734E+03  0.26125571516E+03  0.17200000000E+03 0.  1.
         -6    1    1    2    0  502  0.45275409625E+02 -0.74706175370E+02  0.19497613416E+03  0.27428191382E+03  0.17200000000E+03 0.  1.
</event>
<event>
 4    1  0.4394643E+000  0.1934617E+03  0.7818608E-02  0.1155376E+00
         21   -1    0    0  501  502  0.00000000000E+00  0.00000000000E+00  0.40478380259E+03  0.40478380259E+03  0.00000000000E+00 0.  1.
         21   -1    0    0  502  503 -0.00000000000E+00 -0.00000000000E+00 -0.10600703150E+03  0.10600703150E+03  0.00000000000E+00 0.  1.
          6    1    1    2  501    0  0.88462345377E+02 -0.42250720815E+01  0.24067838088E+03  0.30879365409E+03  0.17200000000E+03 0.  1.
         -6    1    1    2    0  503 -0.88462345377E+02  0.42250720815E+01  0.58098390204E+02  0.20199718000E+03  0.17200000000E+03 0.  1.
</event>
<event>
 4    1  0.4394643E+000  0.2288746E+03  0.7818608E-02  0.1127434E+00
         21   -1    0    0  503  502  0.00000000000E+00  0.00000000000E+00  0.14874041408E+03  0.14874041408E+03  0.00000000000E+00 0.  1.
         21   -1    0    0  501  503 -0.00000000000E+00 -0.00000000000E+00 -0.40792084581E+03  0.40792084581E+03  0.00000000000E+00 0. -1.
          6    1    1    2  501    0  0.84929425324E+02  0.12484617380E+03 -0.26704463709E+02  0.23042721797E+03  0.17200000000E+03 0.  1.
         -6    1    1    2    0  502 -0.84929425324E+02 -0.12484617380E+03 -0.23247596802E+03  0.32623404192E+03  0.17200000000E+03 0. -1.
</event>
<event>
 4    1  0.4394643E+000  0.2494419E+03  0.7818608E-02  0.1113658E+00
         21   -1    0    0  503  502  0.00000000000E+00  0.00000000000E+00  0.16223224026E+03  0.16223224026E+03  0.00000000000E+00 0. -1.
         21   -1    0    0  501  503 -0.00000000000E+00 -0.00000000000E+00 -0.76006566888E+03  0.76006566888E+03  0.00000000000E+00 0. -1.
          6    1    1    2  501    0  0.15827708123E+03  0.87095505311E+02 -0.62349357628E+03  0.67153964972E+03  0.17200000000E+03 0. -1.
         -6    1    1    2    0  502 -0.15827708123E+03 -0.87095505311E+02  0.25660147662E+02  0.25075825941E+03  0.17200000000E+03 0. -1.
</event>
<event>
 4    1  0.4394643E+000  0.2538354E+03  0.7818608E-02  0.1110905E+00
         21   -1    0    0  503  502  0.00000000000E+00  0.00000000000E+00  0.91713284007E+03  0.91713284007E+03  0.00000000000E+00 0. -1.
         21   -1    0    0  501  503 -0.00000000000E+00 -0.00000000000E+00 -0.11767723050E+03  0.11767723050E+03  0.00000000000E+00 0. -1.
          6    1    1    2  501    0 -0.18990505717E+02  0.18570882574E+03  0.71270279425E+02  0.26365101933E+03  0.17200000000E+03 0. -1.
         -6    1    1    2    0  502  0.18990505717E+02 -0.18570882574E+03  0.72818533015E+03  0.77115905124E+03  0.17200000000E+03 0. -1.
</event>
<event>
 4    1  0.4394643E+000  0.2038159E+03  0.7818608E-02  0.1146559E+00
         21   -1    0    0  501  502  0.00000000000E+00  0.00000000000E+00  0.48291109013E+03  0.48291109013E+03  0.00000000000E+00 0. -1.
         21   -1    0    0  502  503 -0.00000000000E+00 -0.00000000000E+00 -0.11126951018E+03  0.11126951018E+03  0.00000000000E+00 0. -1.
          6    1    1    2  501    0  0.97704845852E+02 -0.49098830178E+02  0.44303182548E+02  0.20857541565E+03  0.17200000000E+03 0. -1.
         -6    1    1    2    0  503 -0.97704845852E+02  0.49098830178E+02  0.32733839740E+03  0.38560518467E+03  0.17200000000E+03 0. -1.
</event>
<event>
 4    1  0.4394643E+000  0.2233250E+03  0.7818608E-02  0.1131428E+00
         21   -1    0    0  501  502  0.00000000000E+00  0.00000000000E+00  0.26195828343E+03  0.26195828343E+03  0.00000000000E+00 0.  1.
         21   -1    0    0  502  503 -0.00000000000E+00 -0.00000000000E+00 -0.19256333355E+03  0.19256333355E+03  0.00000000000E+00 0. -1.
          6    1    1    2  501    0  0.11455124660E+03  0.84664375528E+02  0.10549843288E+02  0.22357402303E+03  0.17200000000E+03 0. -1.
         -6    1    1    2    0  503 -0.11455124660E+03 -0.84664375528E+02  0.58845106597E+02  0.23094759395E+03  0.17200000000E+03 0.  1.
</event>
<event>
 4    1  0.4394643E+000  0.2335004E+03  0.7818608E-02  0.1124200E+00
         21   -1    0    0  501  502  0.00000000000E+00  0.00000000000E+00  0.10245938335E+04  0.10245938335E+04  0.00000000000E+00 0. -1.
         21   -1    0    0  502  503 -0.00000000000E+00 -0.00000000000E+00 -0.10942378807E+03  0.10942378807E+03  0.00000000000E+00 0. -1.
          6    1    1    2  501    0  0.52536760700E+02  0.14892396058E+03  0.86397310250E+03  0.89497037889E+03  0.17200000000E+03 0. -1.
         -6    1    1    2    0  503 -0.52536760700E+02 -0.14892396058E+03  0.51196942921E+02  0.23904724266E+03  0.17200000000E+03 0. -1.
</event>
<event>
 4    1  0.4394643E+000  0.2604354E+03  0.7818608E-02  0.1106882E+00
         21   -1    0    0  503  502  0.00000000000E+00  0.00000000000E+00  0.70593940359E+03  0.70593940359E+03  0.00000000000E+00 0.  1.
         21   -1    0    0  501  503 -0.00000000000E+00 -0.00000000000E+00 -0.16682035648E+03  0.16682035648E+03  0.00000000000E+00 0. -1.
          6    1    1    2  501    0  0.18158557457E+03 -0.72589755075E+02 -0.14607774844E+02  0.26084474409E+03  0.17200000000E+03 0. -1.
         -6    1    1    2    0  502 -0.18158557457E+03  0.72589755075E+02  0.55372682195E+03  0.61191501598E+03  0.17200000000E+03 0.  1.
</event>
<event>
 4    1  0.4394643E+000  0.2946447E+03  0.7818608E-02  0.1087949E+00
         21   -1    0    0  503  502  0.00000000000E+00  0.00000000000E+00  0.30413765139E+02  0.30413765139E+02  0.00000000000E+00 0. -1.
         21   -1    0    0  501  503 -0.00000000000E+00 -0.00000000000E+00 -0.28554910405E+04  0.28554910405E+04  0.00000000000E+00 0. -1.
          6    1    1    2  501    0 -0.96459183574E+02 -0.21892269980E+03 -0.14396733657E+04  0.14695151998E+04  0.17200000000E+03 0. -1.
         -6    1    1    2    0  502  0.96459183574E+02  0.21892269980E+03 -0.13854039096E+04  0.14163896058E+04  0.17200000000E+03 0. -1.
</event>
<event>
 4    1  0.4394643E+000  0.1784609E+03  0.7818608E-02  0.1169301E+00
         21   -1    0    0  501  502  0.00000000000E+00  0.00000000000E+00  0.14793566047E+03  0.14793566047E+03  0.00000000000E+00 0.  1.
         21   -1    0    0  502  503 -0.00000000000E+00 -0.00000000000E+00 -0.21553778175E+03  0.21553778175E+03  0.00000000000E+00 0.  1.
          6    1    1    2  501    0 -0.47355144020E+02  0.46657188608E+01 -0.27573121208E+02  0.18057839187E+03  0.17200000000E+03 0.  1.
         -6    1    1    2    0  503  0.47355144020E+02 -0.46657188608E+01 -0.40029000073E+02  0.18289505036E+03  0.17200000000E+03 0.  1.
</event>
<event>
 4    1  0.4394643E+000  0.1906190E+03  0.7818608E-02  0.1157904E+00
         21   -1    0    0  503  502  0.00000000000E+00  0.00000000000E+00  0.20970177130E+03  0.20970177130E+03  0.00000000000E+00 0. -1.
         21   -1    0    0  501  503 -0.00000000000E+00 -0.00000000000E+00 -0.32688242375E+03  0.32688242375E+03  0.00000000000E+00 0. -1.
          6    1    1    2  501    0 -0.79495769274E+02  0.20784792921E+02 -0.24250716707E+03  0.30845633570E+03  0.17200000000E+03 0. -1.
         -6    1    1    2    0  502  0.79495769274E+02 -0.20784792921E+02  0.12532651462E+03  0.22812785936E+03  0.17200000000E+03 0. -1.
</event>
<event>
 4    1  0.4394643E+000  0.2904049E+03  0.7818608E-02  0.1090138E+00
         21   -1    0    0  503  502  0.00000000000E+00  0.00000000000E+00  0.25108675352E+03  0.25108675352E+03  0.00000000000E+00 0. -1.
         21   -1    0    0  501  503 -0.00000000000E+00 -0.00000000000E+00 -0.59086705597E+03  0.59086705597E+03  0.00000000000E+00 0.  1.
          6    1    1    2  501    0 -0.11749590983E+03  0.20235041816E+03 -0.44643946133E+03  0.53258161177E+03  0.17200000000E+03 0.  1.
         -6    1    1    2    0  502  0.11749590983E+03 -0.20235041816E+03  0.10665915888E+03  0.30937219773E+03  0.17200000000E+03 0. -1.
</event>
<event>
 4    1  0.4394643E+000  0.1738705E+03  0.7818608E-02  0.1173871E+00
         21   -1    0    0  501  502  0.00000000000E+00  0.00000000000E+00  0.17356162943E+03  0.17356162943E+03  0.00000000000E+00 0.  1.
         21   -1    0    0  502  503 -0.00000000000E+00 -0.00000000000E+00 -0.23473776215E+03  0.23473776215E+03  0.00000000000E+00 0.  1.
          6    1    1    2  501    0 -0.23829375853E+02 -0.88945142871E+01  0.73103261537E+02  0.18861346290E+03  0.17200000000E+03 0.  1.
         -6    1    1    2    0  503  0.23829375853E+02  0.88945142871E+01 -0.13427939426E+03  0.21968592868E+03  0.17200000000E+03 0.  1.
</event>
<event>
 4    1  0.4394643E+000  0.1830967E+03  0.7818608E-02  0.1164839E+00
         21   -1    0    0  501  502  0.00000000000E+00  0.00000000000E+00  0.75448932998E+02  0.75448932998E+02  0.00000000000E+00 0.  1.
         21   -1    0    0  502  503 -0.00000000000E+00 -0.00000000000E+00 -0.72334156067E+03  0.72334156067E+03  0.00000000000E+00 0.  1.
          6    1    1    2  501    0 -0.47145796624E+02 -0.41444920440E+02 -0.75895650723E+02  0.19820332330E+03  0.17200000000E+03 0.  1.
         -6    1    1    2    0  503  0.47145796624E+02  0.41444920440E+02 -0.57199697695E+03  0.60058717037E+03  0.17200000000E+03 0.  1.
</event>
<event>
 4    1  0.4394643E+000  0.2324805E+03  0.7818608E-02  0.1124906E+00
         21   -1    0    0  503  502  0.00000000000E+00  0.00000000000E+00  0.82110109320E+03  0.82110109320E+03  0.00000000000E+00 0. -1.
         21   -1    0    0  501  503 -0.00000000000E+00 -0.00000000000E+00 -0.11574180209E+03  0.11574180209E+03  0.00000000000E+00 0.  1.
          6    1    1    2  501    0  0.70933870947E+02 -0.13939710868E+03  0.45052520820E+02  0.23680561140E+03  0.17200000000E+03 0.  1.
         -6    1    1    2    0  502 -0.70933870947E+02  0.13939710868E+03  0.66030677029E+03  0.70003728390E+03  0.17200000000E+03 0. -1.
</event>
<event>
 4    1  0.4394643E+000  0.1953443E+03  0.7818608E-02  0.1153728E+00
         21   -1    0    0  503  502  0.00000000000E+00  0.00000000000E+00  0.22069442816E+03  0.22069442816E+03  0.00000000000E+00 0.  1.
         21   -1    0    0  501  503 -0.00000000000E+00 -0.00000000000E+00 -0.20312584064E+03  0.20312584064E+03  0.00000000000E+00 0.  1.
          6    1    1    2  501    0  0.56809412324E+02 -0.73130679047E+02 -0.72951962834E+02  0.20852192793E+03  0.17200000000E+03 0.  1.
         -6    1    1    2    0  502 -0.56809412324E+02  0.73130679047E+02  0.90520550353E+02  0.21529834087E+03  0.17200000000E+03 0.  1.
</event>
<event>
 4    1  0.4394643E+000  0.2219847E+03  0.7818608E-02  0.1132412E+00
         21   -1    0    0  501  502  0.00000000000E+00  0.00000000000E+00  0.19895061183E+03  0.19895061183E+03  0.00000000000E+00 0.  1.
         21   -1    0    0  502  503 -0.00000000000E+00 -0.00000000000E+00 -0.24870484276E+03  0.24870484276E+03  0.00000000000E+00 0.  1.
          6    1    1    2  501    0 -0.10833982385E+03  0.89194687072E+02 -0.10548571974E+02  0.22223519524E+03  0.17200000000E+03 0.  1.
         -6    1    1    2    0  503  0.10833982385E+03 -0.89194687072E+02 -0.39205658950E+02  0.22542025935E+03  0.17200000000E+03 0.  1.
</event>
<event>
 4    1  0.4394643E+000  0.2315284E+03  0.7818608E-02  0.1125569E+00
         21   -1    0    0  501  502  0.00000000000E+00  0.00000000000E+00  0.59201172607E+03  0.59201172607E+03  0.00000000000E+00 0. -1.
         21   -1    0    0  502  503 -0.00000000000E+00 -0.00000000000E+00 -0.10386200776E+03  0.10386200776E+03  0.00000000000E+00 0.  1.
          6    1    1    2  501    0  0.54242784193E+02 -0.14518649424E+03  0.36864922904E+03  0.43532476591E+03  0.17200000000E+03 0. -1.
         -6    1    1    2    0  503 -0.54242784193E+02  0.14518649424E+03  0.11950048927E+03  0.26054896791E+03  0.17200000000E+03 0.  1.
</event>
<event>
 4    1  0.4394643E+000  0.1970769E+03  0.7818608E-02  0.1152229E+00
         21   -1    0    0  501  502  0.00000000000E+00  0.00000000000E+00  0.85162097279E+03  0.85162097279E+03  0.00000000000E+00 0.  1.
         21   -1    0    0  502  503 -0.00000000000E+00 -0.00000000000E+00 -0.47082538441E+02  0.47082538441E+02  0.00000000000E+00 0.  1.
          6    1    1    2  501    0 -0.87796393039E+02 -0.39332914676E+02  0.48183644075E+03  0.52058202086E+03  0.17200000000E+03 0.  1.
         -6    1    1    2    0  503  0.87796393039E+02  0.39332914676E+02  0.32270199359E+03  0.37812149036E+03  0.17200000000E+03 0.  1.
</event>
<event>
 4    1  0.4394643E+000  0.1930162E+03  0.7818608E-02  0.1155769E+00
         21   -1    0    0  501  502  0.00000000000E+00  0.00000000000E+00  0.54010760850E+02  0.54010760850E+02  0.00000000000E+00 0. -1.
         21   -1    0    0  502  503 -0.00000000000E+00 -0.00000000000E+00 -0.69167029663E+03  0.69167029663E+03  0.00000000000E+00 0. -1.
          6    1    1    2  501    0  0.54594015785E+02  0.68489137029E+02 -0.33834711903E+03  0.38953053976E+03  0.17200000000E+03 0. -1.
         -6    1    1    2    0  503 -0.54594015785E+02 -0.68489137029E+02 -0.29931241675E+03  0.35615051772E+03  0.17200000000E+03 0. -1.
</event>
<event>
 4    1  0.4394643E+000  0.2662512E+03  0.7818608E-02  0.1103444E+00
         21   -1    0    0  501  502  0.00000000000E+00  0.00000000000E+00  0.85956745036E+02  0.85956745036E+02  0.00000000000E+00 0. -1.
         21   -1    0    0  502  503 -0.00000000000E+00 -0.00000000000E+00 -0.12580820786E+04  0.12580820786E+04  0.00000000000E+00 0.  1.
          6    1    1    2  501    0 -0.44559996337E+02 -0.19829304020E+03 -0.19164547566E+03  0.32805138532E+03  0.17200000000E+03 0. -1.
         -6    1    1    2    0  503  0.44559996337E+02  0.19829304020E+03 -0.98047985787E+03  0.10159874383E+04  0.17200000000E+03 0.  1.
</event>
<event>
 4    1  0.4394643E+000  0.2055227E+03  0.7818608E-02  0.1145161E+00
         21   -1    0    0  501  502  0.00000000000E+00  0.00000000000E+00  0.50762883888E+02  0.50762883888E+02  0.00000000000E+00 0.  1.
         21   -1    0    0  502  503 -0.00000000000E+00 -0.00000000000E+00 -0.90415066902E+03  0.90415066902E+03  0.00000000000E+00 0.  1.
          6    1    1    2  501    0  0.59540725096E+02  0.95448743964E+02 -0.29190732343E+03  0.35700062484E+03  0.17200000000E+03 0.  1.
         -6    1    1    2    0  503 -0.59540725096E+02 -0.95448743964E+02 -0.56148046171E+03  0.59791292807E+03  0.17200000000E+03 0.  1.
</event>
<event>
 4    1  0.4394643E+000  0.2338304E+03  0.7818608E-02  0.1123972E+00
         21   -1    0    0  501  502  0.00000000000E+00  0.00000000000E+00  0.42854531245E+02  0.42854531245E+02  0.00000000000E+00 0. -1.
         21   -1    0    0  502  503 -0.00000000000E+00 -0.00000000000E+00 -0.12802409409E+04  0.12802409409E+04  0.00000000000E+00 0. -1.
          6    1    1    2  501    0 -0.47626861051E+02 -0.15107726438E+03 -0.65736373966E+03  0.69771322470E+03  0.17200000000E+03 0. -1.
         -6    1    1    2    0  503  0.47626861051E+02  0.15107726438E+03 -0.58002266996E+03  0.62538224740E+03  0.17200000000E+03 0. -1.
</event>
<event>
 4    1  0.4394643E+000  0.2107005E+03  0.7818608E-02  0.1141012E+00
         21   -1    0    0  503  502  0.00000000000E+00  0.00000000000E+00  0.16997554829E+03  0.16997554829E+03  0.00000000000E+00 0. -1.
         21   -1    0    0  501  503 -0.00000000000E+00 -0.00000000000E+00 -0.70922565895E+03  0.70922565895E+03  0.00000000000E+00 0. -1.
          6    1    1    2  501    0  0.12022063732E+03  0.18913309011E+02 -0.61902736236E+03  0.65390334932E+03  0.17200000000E+03 0. -1.
         -6    1    1    2    0  502 -0.12022063732E+03 -0.18913309011E+02  0.79777251705E+02  0.22529785793E+03  0.17200000000E+03 0. -1.
</event>
<event>
 4    1  0.4394643E+000  0.2107777E+03  0.7818608E-02  0.1140952E+00
         21   -1    0    0  501  502  0.00000000000E+00  0.00000000000E+00  0.50754331475E+03  0.50754331475E+03  0.00000000000E+00 0. -1.
         21   -1    0    0  502  503 -0.00000000000E+00 -0.00000000000E+00 -0.90910304294E+02  0.90910304294E+02  0.00000000000E+00 0. -1.
          6    1    1    2  501    0  0.95513209423E+02  0.75633666096E+02  0.26598303888E+03  0.33937324820E+03  0.17200000000E+03 0. -1.
         -6    1    1    2    0  503 -0.95513209423E+02 -0.75633666096E+02  0.15064997158E+03  0.25908037085E+03  0.17200000000E+03 0. -1.
</event>
<event>
 4    1  0.4394643E+000  0.2288064E+03  0.7818608E-02  0.1127483E+00
         21   -1    0    0  501  502  0.00000000000E+00  0.00000000000E+00  0.24927582049E+04  0.24927582049E+04  0.00000000000E+00 0.  1.
         21   -1    0    0  502  503 -0.00000000000E+00 -0.00000000000E+00 -0.21005470755E+02  0.21005470755E+02  0.00000000000E+00 0.  1.
          6    1    1    2  501    0  0.12365937084E+02  0.15038438708E+03  0.12525178814E+04  0.12732452331E+04  0.17200000000E+03 0.  1.
         -6    1    1    2    0  503 -0.12365937084E+02 -0.15038438708E+03  0.12192348528E+04  0.12405184426E+04  0.17200000000E+03 0.  1.
</event>
<event>
 4    1  0.4394643E+000  0.1748807E+03  0.7818608E-02  0.1172852E+00
         21   -1    0    0  501  502  0.00000000000E+00  0.00000000000E+00  0.10013307369E+03  0.10013307369E+03  0.00000000000E+00 0.  1.
         21   -1    0    0  502  503 -0.00000000000E+00 -0.00000000000E+00 -0.40593055477E+03  0.40593055477E+03  0.00000000000E+00 0.  1.
          6    1    1    2  501    0  0.29726943768E+02 -0.10749522869E+02 -0.26993981513E+02  0.17695174050E+03  0.17200000000E+03 0.  1.
         -6    1    1    2    0  503 -0.29726943768E+02  0.10749522869E+02 -0.27880349957E+03  0.32911188797E+03  0.17200000000E+03 0.  1.
</event>
<event>
 4    1  0.4394643E+000  0.2270767E+03  0.7818608E-02  0.1128714E+00
         21   -1    0    0  503  502  0.00000000000E+00  0.00000000000E+00  0.18072409636E+03  0.18072409636E+03  0.00000000000E+00 0.  1.
         21   -1    0    0  501  503 -0.00000000000E+00 -0.00000000000E+00 -0.41815236689E+03  0.41815236689E+03  0.00000000000E+00 0.  1.
          6    1    1    2  501    0  0.65294356255E+02 -0.13310318514E+03 -0.28748420810E+03  0.36634816876E+03  0.17200000000E+03 0.  1.
         -6    1    1    2    0  502 -0.65294356255E+02  0.13310318514E+03  0.50055937561E+02  0.23252829449E+03  0.17200000000E+03 0.  1.
</event>
<event>
 4    1  0.4394643E+000  0.1768509E+03  0.7818608E-02  0.1170886E+00
         21   -1    0    0  503  502  0.00000000000E+00  0.00000000000E+00  0.28002666496E+03  0.28002666496E+03  0.00000000000E+00 0.  1.
         21   -1    0    0  501  503 -0.00000000000E+00 -0.00000000000E+00 -0.26069293062E+03  0.26069293062E+03  0.00000000000E+00 0.  1.
          6    1    1    2  501    0  0.13680015905E+02 -0.38795766573E+02 -0.19473012225E+03  0.26305146807E+03  0.17200000000E+03 0.  1.
         -6    1    1    2    0  502 -0.13680015905E+02  0.38795766573E+02  0.21406385659E+03  0.27766812752E+03  0.17200000000E+03 0.  1.
</event>
<event>
 4    1  0.4394643E+000  0.1720067E+03  0.7818608E-02  0.1175771E+00
         21   -1    0    0  503  502  0.00000000000E+00  0.00000000000E+00  0.25153929397E+03  0.25153929397E+03  0.00000000000E+00 0. -1.
         21   -1    0    0  501  503 -0.00000000000E+00 -0.00000000000E+00 -0.19955579316E+03  0.19955579316E+03  0.00000000000E+00 0. -1.
          6    1    1    2  501    0  0.12153244237E+01  0.90158845653E+00 -0.11853234303E+03  0.20889281036E+03  0.17200000000E+03 0. -1.
         -6    1    1    2    0  502 -0.12153244237E+01 -0.90158845653E+00  0.17051584384E+03  0.24220227678E+03  0.17200000000E+03 0. -1.
</event>
<event>
 4    1  0.4394643E+000  0.2161920E+03  0.7818608E-02  0.1136754E+00
         21   -1    0    0  503  502  0.00000000000E+00  0.00000000000E+00  0.10198915371E+03  0.10198915371E+03  0.00000000000E+00 0. -1.
         21   -1    0    0  501  503 -0.00000000000E+00 -0.00000000000E+00 -0.46066425744E+03  0.46066425744E+03  0.00000000000E+00 0.  1.
          6    1    1    2  501    0  0.79618990549E+02  0.10399907202E+03 -0.19960174299E+03  0.29424453511E+03  0.17200000000E+03 0. -1.
         -6    1    1    2    0  502 -0.79618990549E+02 -0.10399907202E+03 -0.15907336074E+03  0.26840887604E+03  0.17200000000E+03 0.  1.
</event>
<event>
 4    1  0.4394643E+000  0.1734394E+03  0.7818608E-02  0.1174308E+00
         21   -1    0    0  501  502  0.00000000000E+00  0.00000000000E+00  0.26382075804E+03  0.26382075804E+03  0.00000000000E+00 0. -1.
         21   -1    0    0  502  503 -0.00000000000E+00 -0.00000000000E+00 -0.15530977062E+03  0.15530977062E+03  0.00000000000E+00 0. -1.
          6    1    1    2  501    0 -0.58339999312E+01  0.21521568952E+02 -0.53796741813E+02  0.18159103203E+03  0.17200000000E+03 0. -1.
         -6    1    1    2    0  503  0.58339999312E+01 -0.21521568952E+02  0.16230772924E+03  0.23753949662E+03  0.17200000000E+03 0. -1.
</event>
<event>
 4    1  0.4394643E+000  0.1832648E+03  0.7818608E-02  0.1164680E+00
         21   -1    0    0  501  502  0.00000000000E+00  0.00000000000E+00  0.18489092543E+04  0.18489092543E+04  0.00000000000E+00 0. -1.
         21   -1    0    0  502  503 -0.00000000000E+00 -0.00000000000E+00 -0.52720674746E+02  0.52720674746E+02  0.00000000000E+00 0. -1.
          6    1    1    2  501    0 -0.63243381720E+02 -0.15001390672E+01  0.16678685494E+04  0.16779068729E+04  0.17200000000E+03 0. -1.
         -6    1    1    2    0  503  0.63243381720E+02  0.15001390672E+01  0.12832003013E+03  0.22372305622E+03  0.17200000000E+03 0. -1.
</event>
<event>
 4    1  0.4394643E+000  0.2117539E+03  0.7818608E-02  0.1140185E+00
         21   -1    0    0  501  502  0.00000000000E+00  0.00000000000E+00  0.22501563526E+03  0.22501563526E+03  0.00000000000E+00 0.  1.
         21   -1    0    0  502  503 -0.00000000000E+00 -0.00000000000E+00 -0.20359529192E+03  0.20359529192E+03  0.00000000000E+00 0.  1.
          6    1    1    2  501    0  0.11353823817E+03  0.48629215225E+02 -0.20512041479E+02  0.21274509617E+03  0.17200000000E+03 0.  1.
         -6    1    1    2    0  503 -0.11353823817E+03 -0.48629215225E+02  0.41932384810E+02  0.21586583101E+03  0.17200000000E+03 0.  1.
</event>
<event>
 4    1  0.4394643E+000  0.1749062E+03  0.7818608E-02  0.1172826E+00
         21   -1    0    0  503  502  0.00000000000E+00  0.00000000000E+00  0.35076489490E+03  0.35076489490E+03  0.00000000000E+00 0.  1.
         21   -1    0    0  501  503 -0.00000000000E+00 -0.00000000000E+00 -0.89246243907E+02  0.89246243907E+02  0.00000000000E+00 0.  1.
          6    1    1    2  501    0 -0.31268867815E+02  0.55160213501E+01  0.16394542820E+03  0.23972958101E+03  0.17200000000E+03 0.  1.
         -6    1    1    2    0  502  0.31268867815E+02 -0.55160213501E+01  0.97573222796E+02  0.20028155779E+03  0.17200000000E+03 0.  1.
</event>
<event>
 4    1  0.4394643E+000  0.2940520E+03  0.7818608E-02  0.1088252E+00
         21   -1    0    0  501  502  0.00000000000E+00  0.00000000000E+00  0.17099517068E+03  0.17099517068E+03  0.00000000000E+00 0.  1.
         21   -1    0    0  502  503 -0.00000000000E+00 -0.00000000000E+00 -0.77534390114E+03  0.77534390114E+03  0.00000000000E+00 0. -1.
          6    1    1    2  501    0 -0.23373269608E+03 -0.47451340904E+02 -0.23118266010E+02  0.29495941618E+03  0.17200000000E+03 0.  1.
         -6    1    1    2    0  503  0.23373269608E+03  0.47451340904E+02 -0.58123046445E+03  0.65137965564E+03  0.17200000000E+03 0. -1.
</event>
<event>
 4    1  0.4394643E+000  0.1963987E+03  0.7818608E-02  0.1152813E+00
         21   -1    0    0  503  502  0.00000000000E+00  0.00000000000E+00  0.83009953344E+02  0.83009953344E+02  0.00000000000E+00 0.  1.
         21   -1    0    0  501  503 -0.00000000000E+00 -0.00000000000E+00 -0.47323910719E+03  0.47323910719E+03  0.00000000000E+00 0.  1.
          6    1    1    2  501    0 -0.34944575844E+02 -0.88132539293E+02 -0.15769527536E+03  0.25187351535E+03  0.17200000000E+03 0.  1.
         -6    1    1    2    0  502  0.34944575844E+02  0.88132539293E+02 -0.23253387848E+03  0.30437554518E+03  0.17200000000E+03 0.  1.
</event>
<event>
 4    1  0.4394643E+000  0.1799799E+03  0.7818608E-02  0.1167823E+00
         21   -1    0    0  503  502  0.00000000000E+00  0.00000000000E+00  0.48064397184E+02  0.48064397184E+02  0.00000000000E+00 0. -1.
         21   -1    0    0  501  503 -0.00000000000E+00 -0.00000000000E+00 -0.71381576569E+03  0.71381576569E+03  0.00000000000E+00 0. -1.
          6    1    1    2  501    0  0.22515727574E+02  0.47976984228E+02 -0.42290670097E+03  0.45961160421E+03  0.17200000000E+03 0. -1.
         -6    1    1    2    0  502 -0.22515727574E+02 -0.47976984228E+02 -0.24284466754E+03  0.30226855866E+03  0.17200000000E+03 0. -1.
</event>
<event>
 4    1  0.4394643E+000  0.1774290E+03  0.7818608E-02  0.1170315E+00
         21   -1    0    0  501  502  0.00000000000E+00  0.00000000000E+00  0.27978692323E+02  0.27978692323E+02  0.00000000000E+00 0. -1.
         21   -1    0    0  502  503 -0.00000000000E+00 -0.00000000000E+00 -0.13210089637E+04  0.13210089637E+04  0.00000000000E+00 0. -1.
          6    1    1    2  501    0  0.43265833663E+02 -0.50132708044E+01 -0.90621011409E+03  0.92341639369E+03  0.17200000000E+03 0. -1.
         -6    1    1    2    0  503 -0.43265833663E+02  0.50132708044E+01 -0.38682015732E+03  0.42557126237E+03  0.17200000000E+03 0. -1.
</event>
<event>
 4    1  0.4394643E+000  0.1757021E+03  0.7818608E-02  0.1172029E+00
         21   -1    0    0  501  502  0.00000000000E+00  0.00000000000E+00  0.23091516979E+03  0.23091516979E+03  0.00000000000E+00 0. -1.
         21   -1    0    0  502  503 -0.00000000000E+00 -0.00000000000E+00 -0.30811745003E+03  0.30811745003E+03  0.00000000000E+00 0. -1.
          6    1    1    2  501    0  0.11203899093E+02 -0.34083599164E+02  0.16418272826E+03  0.24047284118E+03  0.17200000000E+03 0. -1.
         -6    1    1    2    0  503 -0.11203899093E+02  0.34083599164E+02 -0.24138500850E+03  0.29855977863E+03  0.17200000000E+03 0. -1.
</event>
<event>
 4    1  0.4394643E+000  0.1943432E+03  0.7818608E-02  0.1154601E+00
         21   -1    0    0  503  502  0.00000000000E+00  0.00000000000E+00  0.12054401848E+03  0.12054401848E+03  0.00000000000E+00 0. -1.
         21   -1    0    0  501  503 -0.00000000000E+00 -0.00000000000E+00 -0.37620643545E+03  0.37620643545E+03  0.00000000000E+00 0. -1.
          6    1    1    2  501    0  0.17331303229E+01  0.90455836589E+02 -0.22937699418E+03  0.30063776804E+03  0.17200000000E+03 0. -1.
         -6    1    1    2    0  502 -0.17331303229E+01 -0.90455836589E+02 -0.26285422791E+02  0.19611268588E+03  0.17200000000E+03 0. -1.
</event>
<event>
 4    1  0.4394643E+000  0.2814134E+03  0.7818608E-02  0.1094919E+00
         21   -1    0    0  501  502  0.00000000000E+00  0.00000000000E+00  0.81922246103E+02  0.81922246103E+02  0.00000000000E+00 0.  1.
         21   -1    0    0  502  503 -0.00000000000E+00 -0.00000000000E+00 -0.16061032487E+04  0.16061032487E+04  0.00000000000E+00 0.  1.
          6    1    1    2  501    0  0.21132994254E+03  0.70350412748E+02 -0.22955000494E+03  0.36316212627E+03  0.17200000000E+03 0.  1.
         -6    1    1    2    0  503 -0.21132994254E+03 -0.70350412748E+02 -0.12946309976E+04  0.13248633685E+04  0.17200000000E+03 0.  1.
</event>
<event>
 4    1  0.4394643E+000  0.1982250E+03  0.7818608E-02  0.1151245E+00
         21   -1    0    0  503  502  0.00000000000E+00  0.00000000000E+00  0.57604650309E+02  0.57604650309E+02  0.00000000000E+00 0.  1.
         21   -1    0    0  501  503 -0.00000000000E+00 -0.00000000000E+00 -0.71387016430E+03  0.71387016430E+03  0.00000000000E+00 0.  1.
          6    1    1    2  501    0  0.41102338163E+02  0.89553077677E+02 -0.40948515213E+03  0.45494092555E+03  0.17200000000E+03 0.  1.
         -6    1    1    2    0  502 -0.41102338163E+02 -0.89553077677E+02 -0.24678036186E+03  0.31653388906E+03  0.17200000000E+03 0.  1.
</event>
<event>
 4    1  0.4394643E+000  0.2106884E+03  0.7818608E-02  0.1141022E+00
         21   -1    0    0  501  502  0.00000000000E+00  0.00000000000E+00  0.54720577370E+02  0.54720577370E+02  0.00000000000E+00 0.  1.
         21   -1    0    0  502  503 -0.00000000000E+00 -0.00000000000E+00 -0.88304631872E+03  0.88304631872E+03  0.00000000000E+00 0.  1.
          6    1    1    2  501    0  0.78453105558E+02 -0.93009253037E+02 -0.28042326638E+03  0.35075179151E+03  0.17200000000E+03 0.  1.
         -6    1    1    2    0  503 -0.78453105558E+02  0.93009253037E+02 -0.54790247497E+03  0.58701510458E+03  0.17200000000E+03 0.  1.
</event>
<event>
 4    1  0.4394643E+000  0.2061419E+03  0.7818608E-02  0.1144658E+00
         21   -1    0    0  501  502  0.00000000000E+00  0.00000000000E+00  0.36957005344E+03  0.36957005344E+03  0.00000000000E+00 0. -1.
         21   -1    0    0  502  503 -0.00000000000E+00 -0.00000000000E+00 -0.30357269443E+03  0.30357269443E+03  0.00000000000E+00 0. -1.
          6    1    1    2  501    0 -0.41709488332E+02  0.10569201266E+03  0.29827845946E+03  0.36258036672E+03  0.17200000000E+03 0. -1.
         -6    1    1    2    0  503  0.41709488332E+02 -0.10569201266E+03 -0.23228110044E+03  0.31056238114E+03  0.17200000000E+03 0. -1.
</event>
<event>
 4    1  0.4394643E+000  0.2523552E+03  0.7818608E-02  0.1111825E+00
         21   -1    0    0  503  502  0.00000000000E+00  0.00000000000E+00  0.29874626532E+03  0.29874626532E+03  0.00000000000E+00 0. -1.
         21   -1    0    0  501  503 -0.00000000000E+00 -0.00000000000E+00 -0.23671511467E+03  0.23671511467E+03  0.00000000000E+00 0.  1.
          6    1    1    2  501    0 -0.15346410810E+03  0.10270293464E+03  0.11545681238E+03  0.27751288400E+03  0.17200000000E+03 0. -1.
         -6    1    1    2    0  502  0.15346410810E+03 -0.10270293464E+03 -0.53425661736E+02  0.25794849600E+03  0.17200000000E+03 0.  1.
</event>
<event>
 4    1  0.4394643E+000  0.2314108E+03  0.7818608E-02  0.1125651E+00
         21   -1    0    0  501  502  0.00000000000E+00  0.00000000000E+00  0.39567598146E+03  0.39567598146E+03  0.00000000000E+00 0.  1.
         21   -1    0    0  502  503 -0.00000000000E+00 -0.00000000000E+00 -0.20397749509E+03  0.20397749509E+03  0.00000000000E+00 0. -1.
          6    1    1    2  501    0  0.21779546263E+02  0.15327297655E+03  0.26977288215E+03  0.35542701349E+03  0.17200000000E+03 0.  1.
         -6    1    1    2    0  503 -0.21779546263E+02 -0.15327297655E+03 -0.78074395783E+02  0.24422646305E+03  0.17200000000E+03 0. -1.
</event>
<event>
 4    1  0.4394643E+000  0.2286773E+03  0.7818608E-02  0.1127574E+00
         21   -1    0    0  503  502  0.00000000000E+00  0.00000000000E+00  0.12846530436E+03  0.12846530436E+03  0.00000000000E+00 0. -1.
         21   -1    0    0  501  503 -0.00000000000E+00 -0.00000000000E+00 -0.64625093007E+03  0.64625093007E+03  0.00000000000E+00 0. -1.
          6    1    1    2  501    0 -0.14410388166E+03 -0.44083746544E+02 -0.49455118826E+03  0.54486161842E+03  0.17200000000E+03 0. -1.
         -6    1    1    2    0  502  0.14410388166E+03  0.44083746544E+02 -0.23234437442E+02  0.22985461601E+03  0.17200000000E+03 0. -1.
</event>
<event>
 4    1  0.4394643E+000  0.2126657E+03  0.7818608E-02  0.1139472E+00
         21   -1    0    0  501  502  0.00000000000E+00  0.00000000000E+00  0.43804220785E+03  0.43804220785E+03  0.00000000000E+00 0. -1.
         21   -1    0    0  502  503 -0.00000000000E+00 -0.00000000000E+00 -0.10461128090E+03  0.10461128090E+03  0.00000000000E+00 0. -1.
          6    1    1    2  501    0 -0.47402009581E+01 -0.12498088494E+03  0.19769691240E+03  0.29036315241E+03  0.17200000000E+03 0. -1.
         -6    1    1    2    0  503  0.47402009581E+01  0.12498088494E+03  0.13573401455E+03  0.25229033634E+03  0.17200000000E+03 0. -1.
</event>
<event>
 4    1  0.4394643E+000  0.1765029E+03  0.7818608E-02  0.1171231E+00
         21   -1    0    0  501  502  0.00000000000E+00  0.00000000000E+00  0.19624114761E+02  0.19624114761E+02  0.00000000000E+00 0. -1.
         21   -1    0    0  502  503 -0.00000000000E+00 -0.00000000000E+00 -0.17959860329E+04  0.17959860329E+04  0.00000000000E+00 0. -1.
          6    1    1    2  501    0  0.32919544577E+02  0.22035499061E+02 -0.57888032675E+03  0.60519062479E+03  0.17200000000E+03 0. -1.
         -6    1    1    2    0  503 -0.32919544577E+02 -0.22035499061E+02 -0.11974815914E+04  0.12104195228E+04  0.17200000000E+03 0. -1.
</event>
<event>
 4    1  0.4394643E+000  0.1946741E+03  0.7818608E-02  0.1154312E+00
         21   -1    0    0  503  502  0.00000000000E+00  0.00000000000E+00  0.46038040417E+02  0.46038040417E+02  0.00000000000E+00 0.  1.
         21   -1    0    0  501  503 -0.00000000000E+00 -0.00000000000E+00 -0.11363665255E+04  0.11363665255E+04  0.00000000000E+00 0.  1.
          6    1    1    2  501    0 -0.91811519051E+00  0.91176568100E+02 -0.85552883156E+03  0.87739819417E+03  0.17200000000E+03 0.  1.
         -6    1    1    2    0  502  0.91811519051E+00 -0.91176568100E+02 -0.23479965349E+03  0.30500637172E+03  0.17200000000E+03 0.  1.
</event>
<event>
 4    1  0.4394643E+000  0.1749594E+03  0.7818608E-02  0.1172773E+00
         21   -1    0    0  503  502  0.00000000000E+00  0.00000000000E+00  0.13565828417E+03  0.13565828417E+03  0.00000000000E+00 0. -1.
         21   -1    0    0  501  503 -0.00000000000E+00 -0.00000000000E+00 -0.27652331509E+03  0.27652331509E+03  0.00000000000E+00 0. -1.
          6    1    1    2  501    0 -0.62820746395E+01  0.31421485962E+02 -0.15883287492E+03  0.23630204485E+03  0.17200000000E+03 0.  1.
         -6    1    1    2    0  502  0.62820746395E+01 -0.31421485962E+02  0.17967843999E+02  0.17587955441E+03  0.17200000000E+03 0.  1.
</event>
<event>
 4    1  0.4394643E+000  0.2179677E+03  0.7818608E-02  0.1135407E+00
         21   -1    0    0  501  502  0.00000000000E+00  0.00000000000E+00  0.36600707466E+03  0.36600707466E+03  0.00000000000E+00 0. -1.
         21   -1    0    0  502  503 -0.00000000000E+00 -0.00000000000E+00 -0.15634980926E+03  0.15634980926E+03  0.00000000000E+00 0.  1.
          6    1    1    2  501    0  0.13386608263E+03 -0.24076329057E+01  0.21244294619E+03  0.30437136882E+03  0.17200000000E+03 0. -1.
         -6    1    1    2    0  503 -0.13386608263E+03  0.24076329057E+01 -0.27856807929E+01  0.21798551510E+03  0.17200000000E+03 0. -1.
</event>
<event>
 4    1  0.4394643E+000  0.2662249E+03  0.7818608E-02  0.1103460E+00
         21   -1    0    0  501  502  0.00000000000E+00  0.00000000000E+00  0.28394265888E+03  0.28394265888E+03  0.00000000000E+00 0.  1.
         21   -1    0    0  502  503 -0.00000000000E+00 -0.00000000000E+00 -0.25236500575E+03  0.25236500575E+03  0.00000000000E+00 0. -1.
          6    1    1    2  501    0 -0.72570727082E+02  0.18980299592E+03  0.43792787173E+02  0.26980269809E+03  0.17200000000E+03 0. -1.
         -6    1    1    2    0  503  0.72570727082E+02 -0.18980299592E+03 -0.12215134038E+02  0.26650496654E+03  0.17200000000E+03 0.  1.
</event>
<event>
 4    1  0.4394643E+000  0.2148743E+03  0.7818608E-02  0.1137763E+00
         21   -1    0    0  503  502  0.00000000000E+00  0.00000000000E+00  0.58690570512E+02  0.58690570512E+02  0.00000000000E+00 0. -1.
         21   -1    0    0  501  503 -0.00000000000E+00 -0.00000000000E+00 -0.80552540165E+03  0.80552540165E+03  0.00000000000E+00 0. -1.
          6    1    1    2  501    0  0.46768392532E+02 -0.11999867165E+03 -0.43950246146E+03  0.48921710658E+03  0.17200000000E+03 0. -1.
         -6    1    1    2    0  502 -0.46768392532E+02  0.11999867165E+03 -0.30733236968E+03  0.37499886559E+03  0.17200000000E+03 0. -1.
</event>
<event>
 4    1  0.4394643E+000  0.2576755E+03  0.7818608E-02  0.1108548E+00
         21   -1    0    0  501  502  0.00000000000E+00  0.00000000000E+00  0.32830781514E+02  0.32830781514E+02  0.00000000000E+00 0.  1.
         21   -1    0    0  502  503 -0.00000000000E+00 -0.00000000000E+00 -0.29565922682E+04  0.29565922682E+04  0.00000000000E+00 0.  1.
          6    1    1    2  501    0  0.14918983203E+03  0.12064437748E+03 -0.62168219238E+03  0.67296762189E+03  0.17200000000E+03 0.  1.
         -6    1    1    2    0  503 -0.14918983203E+03 -0.12064437748E+03 -0.23020792943E+04  0.23164554278E+04  0.17200000000E+03 0.  1.
</event>
<event>
 4    1  0.4394643E+000  0.2180325E+03  0.7818608E-02  0.1135358E+00
         21   -1    0    0  503  502  0.00000000000E+00  0.00000000000E+00  0.11239178618E+04  0.11239178618E+04  0.00000000000E+00 0. -1.
         21   -1    0    0  501  503 -0.00000000000E+00 -0.00000000000E+00 -0.15964747936E+03  0.15964747936E+03  0.00000000000E+00 0. -1.
          6    1    1    2  501    0 -0.23603026231E+02  0.13189801878E+03 -0.68101638778E+02  0.22842071581E+03  0.17200000000E+03 0. -1.
         -6    1    1    2    0  502  0.23603026231E+02 -0.13189801878E+03  0.10323720212E+04  0.10551446253E+04  0.17200000000E+03 0. -1.
</event>
<event>
 4    1  0.4394643E+000  0.2084219E+03  0.7818608E-02  0.1142822E+00
         21   -1    0    0  503  502  0.00000000000E+00  0.00000000000E+00  0.10985478019E+03  0.10985478019E+03  0.00000000000E+00 0.  1.
         21   -1    0    0  501  503 -0.00000000000E+00 -0.00000000000E+00 -0.67074138705E+03  0.67074138705E+03  0.00000000000E+00 0.  1.
          6    1    1    2  501    0 -0.70631570157E+02 -0.94164140400E+02 -0.53049637088E+03  0.56997026550E+03  0.17200000000E+03 0.  1.
         -6    1    1    2    0  502  0.70631570157E+02  0.94164140400E+02 -0.30390235970E+02  0.21062590174E+03  0.17200000000E+03 0.  1.
</event>
<event>
 4    1  0.4394643E+000  0.1927106E+03  0.7818608E-02  0.1156039E+00
         21   -1    0    0  501  502  0.00000000000E+00  0.00000000000E+00  0.25902475373E+04  0.25902475373E+04  0.00000000000E+00 0. -1.
         21   -1    0    0  502  503 -0.00000000000E+00 -0.00000000000E+00 -0.14474398774E+02  0.14474398774E+02  0.00000000000E+00 0.  1.
          6    1    1    2  501    0  0.59383683325E+02  0.63458249019E+02  0.14145981365E+04  0.14276642669E+04  0.17200000000E+03 0.  1.
         -6    1    1    2    0  503 -0.59383683325E+02 -0.63458249019E+02  0.11611750020E+04  0.11770576692E+04  0.17200000000E+03 0. -1.
</event>
<event>
 4    1  0.4394643E+000  0.2182623E+03  0.7818608E-02  0.1135185E+00
         21   -1    0    0  501  502  0.00000000000E+00  0.00000000000E+00  0.18333659467E+02  0.18333659467E+02  0.00000000000E+00 0.  1.
         21   -1    0    0  502  503 -0.00000000000E+00 -0.00000000000E+00 -0.28567706537E+04  0.28567706537E+04  0.00000000000E+00 0. -1.
          6    1    1    2  501    0  0.11101712744E+03 -0.75694406931E+02 -0.98690841590E+03  0.10107554933E+04  0.17200000000E+03 0.  1.
         -6    1    1    2    0  503 -0.11101712744E+03  0.75694406931E+02 -0.18515285783E+04  0.18643488199E+04  0.17200000000E+03 0.  1.
</event>
<event>
 4    1  0.4394643E+000  0.1860139E+03  0.7818608E-02  0.1162106E+00
         21   -1    0    0  503  502  0.00000000000E+00  0.00000000000E+00  0.73666629175E+02  0.73666629175E+02  0.00000000000E+00 0.  1.
         21   -1    0    0  501  503 -0.00000000000E+00 -0.00000000000E+00 -0.50906544485E+03  0.50906544485E+03  0.00000000000E+00 0.  1.
          6    1    1    2  501    0  0.86292257501E+01 -0.70304437883E+02 -0.13667561672E+03  0.23082764507E+03  0.17200000000E+03 0.  1.
         -6    1    1    2    0  502 -0.86292257501E+01  0.70304437883E+02 -0.29872319896E+03  0.35190442896E+03  0.17200000000E+03 0.  1.
</event>
<event>
 4    1  0.4394643E+000  0.1798715E+03  0.7818608E-02  0.1167927E+00
         21   -1    0    0  501  502  0.00000000000E+00  0.00000000000E+00  0.11105145713E+03  0.11105145713E+03  0.00000000000E+00 0.  1.
         21   -1    0    0  502  503 -0.00000000000E+00 -0.00000000000E+00 -0.49217077410E+03  0.49217077410E+03  0.00000000000E+00 0.  1.
          6    1    1    2  501    0 -0.32527114090E+02  0.41373424490E+02  0.21059311048E+01  0.17988387463E+03  0.17200000000E+03 0.  1.
         -6    1    1    2    0  503  0.32527114090E+02 -0.41373424490E+02 -0.38322524808E+03  0.42333835660E+03  0.17200000000E+03 0.  1.
</event>
<event>
 4    1  0.4394643E+000  0.2083011E+03  0.7818608E-02  0.1142918E+00
         21   -1    0    0  501  502  0.00000000000E+00  0.00000000000E+00  0.94890324786E+03  0.94890324786E+03  0.00000000000E+00 0. -1.
         21   -1    0    0  502  503 -0.00000000000E+00 -0.00000000000E+00 -0.54977769432E+02  0.54977769432E+02  0.00000000000E+00 0. -1.
          6    1    1    2  501    0 -0.41442294208E+02  0.10994487869E+03  0.65287218927E+03  0.68529660413E+03  0.17200000000E+03 0. -1.
         -6    1    1    2    0  503  0.41442294208E+02 -0.10994487869E+03  0.24105328915E+03  0.31858441316E+03  0.17200000000E+03 0. -1.
</event>
<event>
 4    1  0.4394643E+000  0.1946546E+03  0.7818608E-02  0.1154329E+00
         21   -1    0    0  503  502  0.00000000000E+00  0.00000000000E+00  0.43355150025E+02  0.43355150025E+02  0.00000000000E+00 0. -1.
         21   -1    0    0  501  503 -0.00000000000E+00 -0.00000000000E+00 -0.87663695309E+03  0.87663695309E+03  0.00000000000E+00 0.  1.
          6    1    1    2  501    0 -0.42533101351E+02  0.80606215099E+02 -0.39119524159E+03  0.43694867394E+03  0.17200000000E+03 0. -1.
         -6    1    1    2    0  502  0.42533101351E+02 -0.80606215099E+02 -0.44208656148E+03  0.48304342917E+03  0.17200000000E+03 0. -1.
</event>
<event>
 4    1  0.4394643E+000  0.1739506E+03  0.7818608E-02  0.1173790E+00
         21   -1    0    0  501  502  0.00000000000E+00  0.00000000000E+00  0.97082456904E+03  0.97082456904E+03  0.00000000000E+00 0.  1.
         21   -1    0    0  502  503 -0.00000000000E+00 -0.00000000000E+00 -0.55614353264E+02  0.55614353264E+02  0.00000000000E+00 0.  1.
          6    1    1    2  501    0  0.20975744100E+01  0.25892299962E+02  0.79786858226E+03  0.81661073074E+03  0.17200000000E+03 0.  1.
         -6    1    1    2    0  503 -0.20975744100E+01 -0.25892299962E+02  0.11734163352E+03  0.20982819156E+03  0.17200000000E+03 0.  1.
</event>
<event>
 4    1  0.4394643E+000  0.2554430E+03  0.7818608E-02  0.1109912E+00
         21   -1    0    0  503  502  0.00000000000E+00  0.00000000000E+00  0.22100298938E+03  0.22100298938E+03  0.00000000000E+00 0. -1.
         21   -1    0    0  501  503 -0.00000000000E+00 -0.00000000000E+00 -0.40561766979E+03  0.40561766979E+03  0.00000000000E+00 0. -1.
          6    1    1    2  501    0 -0.18407759579E+03 -0.42220401473E+02  0.71124735930E+02  0.26516004909E+03  0.17200000000E+03 0. -1.
         -6    1    1    2    0  502  0.18407759579E+03  0.42220401473E+02 -0.25573941634E+03  0.36146061008E+03  0.17200000000E+03 0. -1.
</event>
<event>
 4    1  0.4394643E+000  0.1766056E+03  0.7818608E-02  0.1171129E+00
         21   -1    0    0  501  502  0.00000000000E+00  0.00000000000E+00  0.62928674875E+02  0.62928674875E+02  0.00000000000E+00 0.  1.
         21   -1    0    0  502  503 -0.00000000000E+00 -0.00000000000E+00 -0.71940248453E+03  0.71940248453E+03  0.00000000000E+00 0.  1.
          6    1    1    2  501    0  0.30002146330E+02 -0.26559353740E+02 -0.11007692023E+03  0.20810203368E+03  0.17200000000E+03 0.  1.
         -6    1    1    2    0  503 -0.30002146330E+02  0.26559353740E+02 -0.54639688942E+03  0.57422912572E+03  0.17200000000E+03 0.  1.
</event>
<event>
 4    1  0.4394643E+000  0.2462023E+03  0.7818608E-02  0.1115729E+00
         21   -1    0    0  501  502  0.00000000000E+00  0.00000000000E+00  0.58103429356E+03  0.58103429356E+03  0.00000000000E+00 0.  1.
         21   -1    0    0  502  503 -0.00000000000E+00 -0.00000000000E+00 -0.12277695597E+03  0.12277695597E+03  0.00000000000E+00 0.  1.
          6    1    1    2  501    0  0.42217770555E+02  0.17102411408E+03  0.36555728920E+03  0.44073543020E+03  0.17200000000E+03 0.  1.
         -6    1    1    2    0  503 -0.42217770555E+02 -0.17102411408E+03  0.92700048385E+02  0.26307581933E+03  0.17200000000E+03 0.  1.
</event>
<event>
 4    1  0.4394643E+000  0.1745463E+03  0.7818608E-02  0.1173188E+00
         21   -1    0    0  503  502  0.00000000000E+00  0.00000000000E+00  0.15060255845E+03  0.15060255845E+03  0.00000000000E+00 0.  1.
         21   -1    0    0  501  503 -0.00000000000E+00 -0.00000000000E+00 -0.21240878095E+03  0.21240878095E+03  0.00000000000E+00 0. -1.
          6    1    1    2  501    0 -0.17550509490E+00  0.29704720559E+02 -0.70505751433E+02  0.18824840560E+03  0.17200000000E+03 0. -1.
         -6    1    1    2    0  502  0.17550509490E+00 -0.29704720559E+02  0.86995289384E+01  0.17476293380E+03  0.17200000000E+03 0.  1.
</event>
<event>
 4    1  0.4394643E+000  0.2695792E+03  0.7818608E-02  0.1101521E+00
         21   -1    0    0  503  502  0.00000000000E+00  0.00000000000E+00  0.48871955616E+03  0.48871955616E+03  0.00000000000E+00 0.  1.
         21   -1    0    0  501  503 -0.00000000000E+00 -0.00000000000E+00 -0.22801363806E+03  0.22801363806E+03  0.00000000000E+00 0. -1.
          6    1    1    2  501    0 -0.15451532895E+03 -0.13861444351E+03 -0.81005225444E+02  0.28148676235E+03  0.17200000000E+03 0. -1.
         -6    1    1    2    0  502  0.15451532895E+03  0.13861444351E+03  0.34171114355E+03  0.43524643187E+03  0.17200000000E+03 0.  1.
</event>
<event>
 4    1  0.4394643E+000  0.4664828E+03  0.7818608E-02  0.1022918E+00
         21   -1    0    0  503  502  0.00000000000E+00  0.00000000000E+00  0.29555738085E+03  0.29555738085E+03  0.00000000000E+00 0.  1.
         21   -1    0    0  501  503 -0.00000000000E+00 -0.00000000000E+00 -0.22152140972E+04  0.22152140972E+04  0.00000000000E+00 0. -1.
          6    1    1    2  501    0 -0.36435540821E+03 -0.23509009010E+03 -0.19855915569E+04  0.20396519421E+04  0.17200000000E+03 0. -1.
         -6    1    1    2    0  502  0.36435540821E+03  0.23509009010E+03  0.65934840579E+02  0.47111953595E+03  0.17200000000E+03 0.  1.
</event>
<event>
 4    1  0.4394643E+000  0.2141881E+03  0.7818608E-02  0.1138292E+00
         21   -1    0    0  501  502  0.00000000000E+00  0.00000000000E+00  0.16792609901E+03  0.16792609901E+03  0.00000000000E+00 0.  1.
         21   -1    0    0  502  503 -0.00000000000E+00 -0.00000000000E+00 -0.38946116833E+03  0.38946116833E+03  0.00000000000E+00 0.  1.
          6    1    1    2  501    0 -0.12407783569E+03  0.29953995783E+02  0.41505100389E+02  0.21817246511E+03  0.17200000000E+03 0. -1.
         -6    1    1    2    0  503  0.12407783569E+03 -0.29953995783E+02 -0.26304016970E+03  0.33921480223E+03  0.17200000000E+03 0. -1.
</event>
<event>
 4    1  0.4394643E+000  0.1818350E+03  0.7818608E-02  0.1166039E+00
         21   -1    0    0  501  502  0.00000000000E+00  0.00000000000E+00  0.17942440491E+03  0.17942440491E+03  0.00000000000E+00 0. -1.
         21   -1    0    0  502  503 -0.00000000000E+00 -0.00000000000E+00 -0.26269581006E+03  0.26269581006E+03  0.00000000000E+00 0. -1.
          6    1    1    2  501    0 -0.49622147718E+02  0.31899824990E+02  0.79143282687E+02  0.19831191485E+03  0.17200000000E+03 0. -1.
         -6    1    1    2    0  503  0.49622147718E+02 -0.31899824990E+02 -0.16241468784E+03  0.24380830011E+03  0.17200000000E+03 0. -1.
</event>
<event>
 4    1  0.4394643E+000  0.2278002E+03  0.7818608E-02  0.1128198E+00
         21   -1    0    0  503  502  0.00000000000E+00  0.00000000000E+00  0.46440606102E+03  0.46440606102E+03  0.00000000000E+00 0.  1.
         21   -1    0    0  501  503 -0.00000000000E+00 -0.00000000000E+00 -0.11222273274E+03  0.11222273274E+03  0.00000000000E+00 0.  1.
          6    1    1    2  501    0 -0.13308330365E+03 -0.67806728600E+02  0.15718999668E+03  0.27676996443E+03  0.17200000000E+03 0.  1.
         -6    1    1    2    0  502  0.13308330365E+03  0.67806728600E+02  0.19499333160E+03  0.29985882933E+03  0.17200000000E+03 0.  1.
</event>
<event>
 4    1  0.4394643E+000  0.1861709E+03  0.7818608E-02  0.1161961E+00
         21   -1    0    0  501  502  0.00000000000E+00  0.00000000000E+00  0.91156151537E+02  0.91156151537E+02  0.00000000000E+00 0.  1.
         21   -1    0    0  502  503 -0.00000000000E+00 -0.00000000000E+00 -0.53733443551E+03  0.53733443551E+03  0.00000000000E+00 0.  1.
          6    1    1    2  501    0  0.28598850047E+02  0.65251067000E+02 -0.53166443500E+02  0.19361370479E+03  0.17200000000E+03 0.  1.
         -6    1    1    2    0  503 -0.28598850047E+02 -0.65251067000E+02 -0.39301184047E+03  0.43487688225E+03  0.17200000000E+03 0.  1.
</event>
<event>
 4    1  0.4394643E+000  0.1913010E+03  0.7818608E-02  0.1157293E+00
         21   -1    0    0  503  502  0.00000000000E+00  0.00000000000E+00  0.37464733107E+03  0.37464733107E+03  0.00000000000E+00 0. -1.
         21   -1    0    0  501  503 -0.00000000000E+00 -0.00000000000E+00 -0.11629430933E+03  0.11629430933E+03  0.00000000000E+00 0. -1.
          6    1    1    2  501    0 -0.34942841821E+02  0.76099134522E+02  0.30972861401E+02  0.19379215312E+03  0.17200000000E+03 0. -1.
         -6    1    1    2    0  502  0.34942841821E+02 -0.76099134522E+02  0.22738016034E+03  0.29714948727E+03  0.17200000000E+03 0. -1.
</event>
<event>
 4    1  0.4394643E+000  0.2130276E+03  0.7818608E-02  0.1139191E+00
         21   -1    0    0  503  502  0.00000000000E+00  0.00000000000E+00  0.24155462352E+03  0.24155462352E+03  0.00000000000E+00 0. -1.
         21   -1    0    0  501  503 -0.00000000000E+00 -0.00000000000E+00 -0.19290376846E+03  0.19290376846E+03  0.00000000000E+00 0. -1.
          6    1    1    2  501    0  0.83037751637E+02 -0.94347651393E+02 -0.10767194128E+02  0.21329950771E+03  0.17200000000E+03 0. -1.
         -6    1    1    2    0  502 -0.83037751637E+02  0.94347651393E+02  0.59418049190E+02  0.22115888427E+03  0.17200000000E+03 0. -1.
</event>
<event>
 4    1  0.4394643E+000  0.2550746E+03  0.7818608E-02  0.1110139E+00
         21   -1    0    0  503  502  0.00000000000E+00  0.00000000000E+00  0.26252492461E+03  0.26252492461E+03  0.00000000000E+00 0.  1.
         21   -1    0    0  501  503 -0.00000000000E+00 -0.00000000000E+00 -0.28675744274E+03  0.28675744274E+03  0.00000000000E+00 0.  1.
          6    1    1    2  501    0 -0.18787213796E+03  0.13531152266E+02  0.89066098658E+02  0.27017735330E+03  0.17200000000E+03 0.  1.
         -6    1    1    2    0  502  0.18787213796E+03 -0.13531152266E+02 -0.11329861679E+03  0.27910501406E+03  0.17200000000E+03 0.  1.
</event>
<event>
 4    1  0.4394643E+000  0.2387034E+03  0.7818608E-02  0.1120660E+00
         21   -1    0    0  501  502  0.00000000000E+00  0.00000000000E+00  0.57300841986E+03  0.57300841986E+03  0.00000000000E+00 0.  1.
         21   -1    0    0  502  503 -0.00000000000E+00 -0.00000000000E+00 -0.19520374495E+03  0.19520374495E+03  0.00000000000E+00 0. -1.
          6    1    1    2  501    0 -0.95924006035E+02 -0.13488483848E+03  0.45793817588E+03  0.51641718360E+03  0.17200000000E+03 0.  1.
         -6    1    1    2    0  503  0.95924006035E+02  0.13488483848E+03 -0.80133500975E+02  0.25179498121E+03  0.17200000000E+03 0. -1.
</event>
<event>
 4    1  0.4394643E+000  0.2047656E+03  0.7818608E-02  0.1145779E+00
         21   -1    0    0  503  502  0.00000000000E+00  0.00000000000E+00  0.16158416112E+03  0.16158416112E+03  0.00000000000E+00 0.  1.
         21   -1    0    0  501  503 -0.00000000000E+00 -0.00000000000E+00 -0.12339329645E+04  0.12339329645E+04  0.00000000000E+00 0.  1.
          6    1    1    2  501    0 -0.84961380991E+02 -0.71599633579E+02 -0.11562409964E+04  0.11742325943E+04  0.17200000000E+03 0.  1.
         -6    1    1    2    0  502  0.84961380991E+02  0.71599633579E+02  0.83892192952E+02  0.22128453138E+03  0.17200000000E+03 0.  1.
</event>
<event>
 4    1  0.4394643E+000  0.2024554E+03  0.7818608E-02  0.1147684E+00
         21   -1    0    0  503  502  0.00000000000E+00  0.00000000000E+00  0.14406849422E+03  0.14406849422E+03  0.00000000000E+00 0.  1.
         21   -1    0    0  501  503 -0.00000000000E+00 -0.00000000000E+00 -0.37594468621E+03  0.37594468621E+03  0.00000000000E+00 0.  1.
          6    1    1    2  501    0  0.10253745405E+03 -0.29837436881E+02 -0.24416814954E+03  0.31718494191E+03  0.17200000000E+03 0.  1.
         -6    1    1    2    0  502 -0.10253745405E+03  0.29837436881E+02  0.12291957544E+02  0.20282823852E+03  0.17200000000E+03 0.  1.
</event>
<event>
 4    1  0.4394643E+000  0.1739040E+03  0.7818608E-02  0.1173837E+00
         21   -1    0    0  503  502  0.00000000000E+00  0.00000000000E+00  0.37826469634E+03  0.37826469634E+03  0.00000000000E+00 0. -1.
         21   -1    0    0  501  503 -0.00000000000E+00 -0.00000000000E+00 -0.90236273272E+02  0.90236273272E+02  0.00000000000E+00 0. -1.
          6    1    1    2  501    0  0.64933512991E+01  0.24828077372E+02  0.64928089678E+02  0.18562934538E+03  0.17200000000E+03 0. -1.
         -6    1    1    2    0  502 -0.64933512991E+01 -0.24828077372E+02  0.22310033339E+03  0.28287162424E+03  0.17200000000E+03 0. -1.
</event>
<event>
 4    1  0.4394643E+000  0.2255122E+03  0.7818608E-02  0.1129839E+00
         21   -1    0    0  503  502  0.00000000000E+00  0.00000000000E+00  0.20263844958E+04  0.20263844958E+04  0.00000000000E+00 0. -1.
         21   -1    0    0  501  503 -0.00000000000E+00 -0.00000000000E+00 -0.34450822360E+02  0.34450822360E+02  0.00000000000E+00 0. -1.
          6    1    1    2  501    0 -0.78388561073E+02 -0.12299181682E+03  0.45904280082E+03  0.51144505716E+03  0.17200000000E+03 0. -1.
         -6    1    1    2    0  502  0.78388561073E+02  0.12299181682E+03  0.15328908727E+04  0.15493902610E+04  0.17200000000E+03 0. -1.
</event>
<event>
 4    1  0.4394643E+000  0.2290966E+03  0.7818608E-02  0.1127277E+00
         21   -1    0    0  503  502  0.00000000000E+00  0.00000000000E+00  0.61125210339E+03  0.61125210339E+03  0.00000000000E+00 0.  1.
         21   -1    0    0  501  503 -0.00000000000E+00 -0.00000000000E+00 -0.16087340493E+03  0.16087340493E+03  0.00000000000E+00 0.  1.
          6    1    1    2  501    0 -0.98485402752E+02 -0.11489940471E+03 -0.38425782747E+02  0.23229676825E+03  0.17200000000E+03 0.  1.
         -6    1    1    2    0  502  0.98485402752E+02  0.11489940471E+03  0.48880448121E+03  0.53982874007E+03  0.17200000000E+03 0.  1.
</event>
<event>
 4    1  0.4394643E+000  0.2661338E+03  0.7818608E-02  0.1103513E+00
         21   -1    0    0  503  502  0.00000000000E+00  0.00000000000E+00  0.55782663444E+03  0.55782663444E+03  0.00000000000E+00 0. -1.
         21   -1    0    0  501  503 -0.00000000000E+00 -0.00000000000E+00 -0.23462776343E+03  0.23462776343E+03  0.00000000000E+00 0. -1.
          6    1    1    2  501    0 -0.19761224076E+03 -0.46825407991E+02 -0.10679738915E+03  0.28676279197E+03  0.17200000000E+03 0. -1.
         -6    1    1    2    0  502  0.19761224076E+03  0.46825407991E+02  0.42999626015E+03  0.50569160590E+03  0.17200000000E+03 0. -1.
</event>
<event>
 4    1  0.4394643E+000  0.2121118E+03  0.7818608E-02  0.1139905E+00
         21   -1    0    0  503  502  0.00000000000E+00  0.00000000000E+00  0.19788318760E+03  0.19788318760E+03  0.00000000000E+00 0.  1.
         21   -1    0    0  501  503 -0.00000000000E+00 -0.00000000000E+00 -0.55470879584E+03  0.55470879584E+03  0.00000000000E+00 0.  1.
          6    1    1    2  501    0  0.48067277148E+02 -0.11444183576E+03 -0.46748090944E+03  0.51335153413E+03  0.17200000000E+03 0.  1.
         -6    1    1    2    0  502 -0.48067277148E+02  0.11444183576E+03  0.11065530120E+03  0.23924044931E+03  0.17200000000E+03 0.  1.
</event>
<event>
 4    1  0.4394643E+000  0.2082824E+03  0.7818608E-02  0.1142933E+00
         21   -1    0    0  503  502  0.00000000000E+00  0.00000000000E+00  0.20666113622E+03  0.20666113622E+03  0.00000000000E+00 0.  1.
         21   -1    0    0  501  503 -0.00000000000E+00 -0.00000000000E+00 -0.42991107313E+03  0.42991107313E+03  0.00000000000E+00 0. -1.
          6    1    1    2  501    0  0.10501957504E+03 -0.52616168356E+02 -0.33930995561E+03  0.39813668293E+03  0.17200000000E+03 0. -1.
         -6    1    1    2    0  502 -0.10501957504E+03  0.52616168356E+02  0.11606001871E+03  0.23843552641E+03  0.17200000000E+03 0.  1.
</event>
<event>
 4    1  0.4394643E+000  0.3289111E+03  0.7818608E-02  0.1071620E+00
         21   -1    0    0  501  502  0.00000000000E+00  0.00000000000E+00  0.21984702582E+04  0.21984702582E+04  0.00000000000E+00 0. -1.
         21   -1    0    0  502  503 -0.00000000000E+00 -0.00000000000E+00 -0.55109169959E+02  0.55109169959E+02  0.00000000000E+00 0.  1.
          6    1    1    2  501    0 -0.34053801522E+02 -0.27827841528E+03  0.14404003186E+04  0.14774760965E+04  0.17200000000E+03 0. -1.
         -6    1    1    2    0  503  0.34053801522E+02  0.27827841528E+03  0.70296076960E+03  0.77610333166E+03  0.17200000000E+03 0.  1.
</event>
<event>
 4    1  0.4394643E+000  0.1763874E+03  0.7818608E-02  0.1171346E+00
         21   -1    0    0  503  502  0.00000000000E+00  0.00000000000E+00  0.79874075005E+02  0.79874075005E+02  0.00000000000E+00 0.  1.
         21   -1    0    0  501  503 -0.00000000000E+00 -0.00000000000E+00 -0.38952441793E+03  0.38952441793E+03  0.00000000000E+00 0.  1.
          6    1    1    2  501    0 -0.33786043346E+02 -0.19672690470E+02 -0.15399305402E+03  0.23415031958E+03  0.17200000000E+03 0.  1.
         -6    1    1    2    0  502  0.33786043346E+02  0.19672690470E+02 -0.15565728891E+03  0.23524817335E+03  0.17200000000E+03 0.  1.
</event>
<event>
 4    1  0.4394643E+000  0.1902294E+03  0.7818608E-02  0.1158255E+00
         21   -1    0    0  501  502  0.00000000000E+00  0.00000000000E+00  0.47868536288E+03  0.47868536288E+03  0.00000000000E+00 0.  1.
         21   -1    0    0  502  503 -0.00000000000E+00 -0.00000000000E+00 -0.69632429939E+03  0.69632429939E+03  0.00000000000E+00 0.  1.
          6    1    1    2  501    0 -0.62090737643E+02 -0.52421202317E+02  0.44587781958E+03  0.48476207788E+03  0.17200000000E+03 0.  1.
         -6    1    1    2    0  503  0.62090737643E+02  0.52421202317E+02 -0.66351675609E+03  0.69024758439E+03  0.17200000000E+03 0.  1.
</event>
<event>
 4    1  0.4394643E+000  0.2540513E+03  0.7818608E-02  0.1110771E+00
         21   -1    0    0  503  502  0.00000000000E+00  0.00000000000E+00  0.88122941486E+03  0.88122941486E+03  0.00000000000E+00 0. -1.
         21   -1    0    0  501  503 -0.00000000000E+00 -0.00000000000E+00 -0.77294493241E+02  0.77294493241E+02  0.00000000000E+00 0. -1.
          6    1    1    2  501    0 -0.22434508878E+02 -0.18561986002E+03  0.29221392835E+03  0.38720927099E+03  0.17200000000E+03 0. -1.
         -6    1    1    2    0  502  0.22434508878E+02  0.18561986002E+03  0.51172099327E+03  0.57131463711E+03  0.17200000000E+03 0. -1.
</event>
<event>
 4    1  0.4394643E+000  0.1800123E+03  0.7818608E-02  0.1167791E+00
         21   -1    0    0  503  502  0.00000000000E+00  0.00000000000E+00  0.48516141558E+02  0.48516141558E+02  0.00000000000E+00 0. -1.
         21   -1    0    0  501  503 -0.00000000000E+00 -0.00000000000E+00 -0.67138353700E+03  0.67138353700E+03  0.00000000000E+00 0. -1.
          6    1    1    2  501    0  0.43055118939E+02  0.31091645343E+02 -0.33732297730E+03  0.38234961055E+03  0.17200000000E+03 0. -1.
         -6    1    1    2    0  502 -0.43055118939E+02 -0.31091645343E+02 -0.28554441814E+03  0.33755006800E+03  0.17200000000E+03 0. -1.
</event>
<event>
 4    1  0.4394643E+000  0.1896206E+03  0.7818608E-02  0.1158804E+00
         21   -1    0    0  503  502  0.00000000000E+00  0.00000000000E+00  0.18541257472E+04  0.18541257472E+04  0.00000000000E+00 0.  1.
         21   -1    0    0  501  503 -0.00000000000E+00 -0.00000000000E+00 -0.22824175905E+02  0.22824175905E+02  0.00000000000E+00 0.  1.
          6    1    1    2  501    0 -0.78638296752E+02 -0.13710678957E+02  0.55174912156E+03  0.58342356618E+03  0.17200000000E+03 0.  1.
         -6    1    1    2    0  502  0.78638296752E+02  0.13710678957E+02  0.12795524498E+04  0.12935263570E+04  0.17200000000E+03 0.  1.
</event>
<event>
 4    1  0.4394643E+000  0.2042977E+03  0.7818608E-02  0.1146163E+00
         21   -1    0    0  501  502  0.00000000000E+00  0.00000000000E+00  0.34624219127E+03  0.34624219127E+03  0.00000000000E+00 0. -1.
         21   -1    0    0  502  503 -0.00000000000E+00 -0.00000000000E+00 -0.20340022216E+03  0.20340022216E+03  0.00000000000E+00 0. -1.
          6    1    1    2  501    0 -0.10960366963E+03 -0.11857594848E+02  0.24682356269E+03  0.32040511552E+03  0.17200000000E+03 0. -1.
         -6    1    1    2    0  503  0.10960366963E+03  0.11857594848E+02 -0.10398159357E+03  0.22923729791E+03  0.17200000000E+03 0. -1.
</event>
<event>
 4    1  0.4394643E+000  0.1951804E+03  0.7818608E-02  0.1153870E+00
         21   -1    0    0  501  502  0.00000000000E+00  0.00000000000E+00  0.33898092510E+03  0.33898092510E+03  0.00000000000E+00 0.  1.
         21   -1    0    0  502  503 -0.00000000000E+00 -0.00000000000E+00 -0.50980542930E+03  0.50980542930E+03  0.00000000000E+00 0.  1.
          6    1    1    2  501    0 -0.81688230624E+02  0.42876899819E+02  0.28929563279E+03  0.34898045606E+03  0.17200000000E+03 0.  1.
         -6    1    1    2    0  503  0.81688230624E+02 -0.42876899819E+02 -0.46012013698E+03  0.49980589834E+03  0.17200000000E+03 0.  1.
</event>
<event>
 4    1  0.4394643E+000  0.1846829E+03  0.7818608E-02  0.1163346E+00
         21   -1    0    0  503  502  0.00000000000E+00  0.00000000000E+00  0.32382057917E+03  0.32382057917E+03  0.00000000000E+00 0. -1.
         21   -1    0    0  501  503 -0.00000000000E+00 -0.00000000000E+00 -0.13341511781E+03  0.13341511781E+03  0.00000000000E+00 0. -1.
          6    1    1    2  501    0  0.43830239205E+02  0.51016379567E+02 -0.96915869476E+01  0.18493698308E+03  0.17200000000E+03 0. -1.
         -6    1    1    2    0  502 -0.43830239205E+02 -0.51016379567E+02  0.20009704830E+03  0.27229871390E+03  0.17200000000E+03 0. -1.
</event>
<event>
 4    1  0.4394643E+000  0.1800315E+03  0.7818608E-02  0.1167773E+00
         21   -1    0    0  501  502  0.00000000000E+00  0.00000000000E+00  0.89511302670E+03  0.89511302670E+03  0.00000000000E+00 0.  1.
         21   -1    0    0  502  503 -0.00000000000E+00 -0.00000000000E+00 -0.59365101647E+02  0.59365101647E+02  0.00000000000E+00 0.  1.
          6    1    1    2  501    0 -0.63622177848E+01  0.52790586639E+02  0.11981563890E+03  0.21625704885E+03  0.17200000000E+03 0.  1.
         -6    1    1    2    0  503  0.63622177848E+01 -0.52790586639E+02  0.71593228616E+03  0.73822107950E+03  0.17200000000E+03 0.  1.
</event>
<event>
 4    1  0.4394643E+000  0.2774870E+03  0.7818608E-02  0.1097069E+00
         21   -1    0    0  503  502  0.00000000000E+00  0.00000000000E+00  0.76355316906E+03  0.76355316906E+03  0.00000000000E+00 0.  1.
         21   -1    0    0  501  503 -0.00000000000E+00 -0.00000000000E+00 -0.31517684153E+03  0.31517684153E+03  0.00000000000E+00 0.  1.
          6    1    1    2  501    0  0.83136066174E+02  0.20125463077E+03 -0.22059766032E+03  0.35448887097E+03  0.17200000000E+03 0.  1.
         -6    1    1    2    0  502 -0.83136066174E+02 -0.20125463077E+03  0.66897398785E+03  0.72424113962E+03  0.17200000000E+03 0.  1.
</event>
<event>
 4    1  0.4394643E+000  0.1881421E+03  0.7818608E-02  0.1160148E+00
         21   -1    0    0  503  502  0.00000000000E+00  0.00000000000E+00  0.57388415483E+03  0.57388415483E+03  0.00000000000E+00 0.  1.
         21   -1    0    0  501  503 -0.00000000000E+00 -0.00000000000E+00 -0.73274297409E+02  0.73274297409E+02  0.00000000000E+00 0.  1.
          6    1    1    2  501    0 -0.75836016603E+02 -0.78953542132E+01  0.12159311097E+03  0.22401411265E+03  0.17200000000E+03 0.  1.
         -6    1    1    2    0  502  0.75836016603E+02  0.78953542132E+01  0.37901674645E+03  0.42314433959E+03  0.17200000000E+03 0.  1.
</event>
<event>
 4    1  0.4394643E+000  0.2066498E+03  0.7818608E-02  0.1144247E+00
         21   -1    0    0  503  502  0.00000000000E+00  0.00000000000E+00  0.63009057025E+03  0.63009057025E+03  0.00000000000E+00 0.  1.
         21   -1    0    0  501  503 -0.00000000000E+00 -0.00000000000E+00 -0.11056976364E+03  0.11056976364E+03  0.00000000000E+00 0.  1.
          6    1    1    2  501    0  0.23212158727E+02 -0.11216647663E+03  0.29367893764E+02  0.20872612672E+03  0.17200000000E+03 0.  1.
         -6    1    1    2    0  502 -0.23212158727E+02  0.11216647663E+03  0.49015291284E+03  0.53193420717E+03  0.17200000000E+03 0.  1.
</event>
<event>
 4    1  0.4394643E+000  0.1974738E+03  0.7818608E-02  0.1151888E+00
         21   -1    0    0  503  502  0.00000000000E+00  0.00000000000E+00  0.21024718835E+03  0.21024718835E+03  0.00000000000E+00 0. -1.
         21   -1    0    0  501  503 -0.00000000000E+00 -0.00000000000E+00 -0.20389616084E+03  0.20389616084E+03  0.00000000000E+00 0.  1.
          6    1    1    2  501    0 -0.91716649616E+02 -0.31622401862E+02 -0.59062620677E+02  0.20611723188E+03  0.17200000000E+03 0.  1.
         -6    1    1    2    0  502  0.91716649616E+02  0.31622401862E+02  0.65413648185E+02  0.20802611732E+03  0.17200000000E+03 0. -1.
</event>
<event>
 4    1  0.4394643E+000  0.1794817E+03  0.7818608E-02  0.1168306E+00
         21   -1    0    0  501  502  0.00000000000E+00  0.00000000000E+00  0.19981301765E+02  0.19981301765E+02  0.00000000000E+00 0. -1.
         21   -1    0    0  502  503 -0.00000000000E+00 -0.00000000000E+00 -0.17226103460E+04  0.17226103460E+04  0.00000000000E+00 0. -1.
          6    1    1    2  501    0 -0.27856215764E+02  0.43054617645E+02 -0.63071971530E+03  0.65575988603E+03  0.17200000000E+03 0. -1.
         -6    1    1    2    0  503  0.27856215764E+02 -0.43054617645E+02 -0.10719093289E+04  0.10868317617E+04  0.17200000000E+03 0. -1.
</event>
<event>
 4    1  0.4394643E+000  0.1805969E+03  0.7818608E-02  0.1167227E+00
         21   -1    0    0  501  502  0.00000000000E+00  0.00000000000E+00  0.18215043917E+03  0.18215043917E+03  0.00000000000E+00 0.  1.
         21   -1    0    0  502  503 -0.00000000000E+00 -0.00000000000E+00 -0.17934432501E+03  0.17934432501E+03  0.00000000000E+00 0.  1.
          6    1    1    2  501    0  0.18474563482E+02  0.51864662541E+02  0.86417037207E+01  0.18080357231E+03  0.17200000000E+03 0. -1.
         -6    1    1    2    0  503 -0.18474563482E+02 -0.51864662541E+02 -0.58355895648E+01  0.18069119188E+03  0.17200000000E+03 0. -1.
</event>
<event>
 4    1  0.4394643E+000  0.2103755E+03  0.7818608E-02  0.1141269E+00
         21   -1    0    0  501  502  0.00000000000E+00  0.00000000000E+00  0.16168874794E+03  0.16168874794E+03  0.00000000000E+00 0.  1.
         21   -1    0    0  502  503 -0.00000000000E+00 -0.00000000000E+00 -0.33698129883E+03  0.33698129883E+03  0.00000000000E+00 0.  1.
          6    1    1    2  501    0 -0.12043440773E+03 -0.13015867263E+02  0.20382790945E+02  0.21136063383E+03  0.17200000000E+03 0.  1.
         -6    1    1    2    0  503  0.12043440773E+03  0.13015867263E+02 -0.19567534184E+03  0.28730941295E+03  0.17200000000E+03 0.  1.
</event>
<event>
 4    1  0.4394643E+000  0.1771767E+03  0.7818608E-02  0.1170564E+00
         21   -1    0    0  503  502  0.00000000000E+00  0.00000000000E+00  0.78067794179E+03  0.78067794179E+03  0.00000000000E+00 0. -1.
         21   -1    0    0  501  503 -0.00000000000E+00 -0.00000000000E+00 -0.13123345590E+03  0.13123345590E+03  0.00000000000E+00 0. -1.
          6    1    1    2  501    0  0.38486790116E+02 -0.18064741591E+02 -0.55008250469E+02  0.18551947478E+03  0.17200000000E+03 0. -1.
         -6    1    1    2    0  502 -0.38486790116E+02  0.18064741591E+02  0.70445273636E+03  0.72639192291E+03  0.17200000000E+03 0. -1.
</event>
<event>
 4    1  0.4394643E+000  0.1808615E+03  0.7818608E-02  0.1166972E+00
         21   -1    0    0  501  502  0.00000000000E+00  0.00000000000E+00  0.12815278095E+03  0.12815278095E+03  0.00000000000E+00 0. -1.
         21   -1    0    0  502  503 -0.00000000000E+00 -0.00000000000E+00 -0.37442576975E+03  0.37442576975E+03  0.00000000000E+00 0. -1.
          6    1    1    2  501    0 -0.54447972739E+02 -0.12739368601E+02  0.18634320418E+02  0.18181889656E+03  0.17200000000E+03 0. -1.
         -6    1    1    2    0  503  0.54447972739E+02  0.12739368601E+02 -0.26490730922E+03  0.32075965414E+03  0.17200000000E+03 0. -1.
</event>
<event>
 4    1  0.4394643E+000  0.1971510E+03  0.7818608E-02  0.1152165E+00
         21   -1    0    0  501  502  0.00000000000E+00  0.00000000000E+00  0.37969597310E+02  0.37969597310E+02  0.00000000000E+00 0.  1.
         21   -1    0    0  502  503 -0.00000000000E+00 -0.00000000000E+00 -0.10252658478E+04  0.10252658478E+04  0.00000000000E+00 0. -1.
          6    1    1    2  501    0  0.95293692582E+02  0.14270424444E+02 -0.47270814124E+03  0.51217332970E+03  0.17200000000E+03 0.  1.
         -6    1    1    2    0  503 -0.95293692582E+02 -0.14270424444E+02 -0.51458810925E+03  0.55106211541E+03  0.17200000000E+03 0. -1.
</event>
<event>
 4    1  0.4394643E+000  0.1962264E+03  0.7818608E-02  0.1152962E+00
         21   -1    0    0  503  502  0.00000000000E+00  0.00000000000E+00  0.12776507215E+03  0.12776507215E+03  0.00000000000E+00 0. -1.
         21   -1    0    0  501  503 -0.00000000000E+00 -0.00000000000E+00 -0.32691233327E+03  0.32691233327E+03  0.00000000000E+00 0. -1.
          6    1    1    2  501    0 -0.69342437315E+02 -0.64128210148E+02 -0.16311725187E+03  0.25517060725E+03  0.17200000000E+03 0. -1.
         -6    1    1    2    0  502  0.69342437315E+02  0.64128210148E+02 -0.36030009258E+02  0.19950679817E+03  0.17200000000E+03 0. -1.
</event>
<event>
 4    1  0.4394643E+000  0.1833513E+03  0.7818608E-02  0.1164598E+00
         21   -1    0    0  501  502  0.00000000000E+00  0.00000000000E+00  0.21892074349E+04  0.21892074349E+04  0.00000000000E+00 0. -1.
         21   -1    0    0  502  503 -0.00000000000E+00 -0.00000000000E+00 -0.15911340858E+02  0.15911340858E+02  0.00000000000E+00 0. -1.
          6    1    1    2  501    0  0.63155517386E+02  0.67148414462E+01  0.12926093852E+04  0.13055484408E+04  0.17200000000E+03 0. -1.
         -6    1    1    2    0  503 -0.63155517386E+02 -0.67148414462E+01  0.88068670881E+03  0.89957033497E+03  0.17200000000E+03 0. -1.
</event>
<event>
 4    1  0.4394643E+000  0.2142708E+03  0.7818608E-02  0.1138228E+00
         21   -1    0    0  501  502  0.00000000000E+00  0.00000000000E+00  0.11945464550E+04  0.11945464550E+04  0.00000000000E+00 0.  1.
         21   -1    0    0  502  503 -0.00000000000E+00 -0.00000000000E+00 -0.46771526068E+02  0.46771526068E+02  0.00000000000E+00 0. -1.
          6    1    1    2  501    0 -0.85863357237E+02 -0.94633217164E+02  0.31184948815E+03  0.37836763229E+03  0.17200000000E+03 0.  1.
         -6    1    1    2    0  503  0.85863357237E+02  0.94633217164E+02  0.83592544081E+03  0.86295034881E+03  0.17200000000E+03 0.  1.
</event>
<event>
 4    1  0.4394643E+000  0.1756220E+03  0.7818608E-02  0.1172109E+00
         21   -1    0    0  501  502  0.00000000000E+00  0.00000000000E+00  0.34600593162E+03  0.34600593162E+03  0.00000000000E+00 0.  1.
         21   -1    0    0  502  503 -0.00000000000E+00 -0.00000000000E+00 -0.15418168363E+03  0.15418168363E+03  0.00000000000E+00 0.  1.
          6    1    1    2  501    0  0.57396709938E+01  0.35016307659E+02  0.25834775741E+03  0.31238861917E+03  0.17200000000E+03 0. -1.
         -6    1    1    2    0  503 -0.57396709938E+01 -0.35016307659E+02 -0.66523509419E+02  0.18779899609E+03  0.17200000000E+03 0. -1.
</event>
<event>
 4    1  0.4394643E+000  0.2350178E+03  0.7818608E-02  0.1123157E+00
         21   -1    0    0  503  502  0.00000000000E+00  0.00000000000E+00  0.25593455990E+04  0.25593455990E+04  0.00000000000E+00 0. -1.
         21   -1    0    0  501  503 -0.00000000000E+00 -0.00000000000E+00 -0.32093038380E+02  0.32093038380E+02  0.00000000000E+00 0.  1.
          6    1    1    2  501    0  0.15671215400E+03 -0.33025208716E+02  0.52206342810E+03  0.57252387425E+03  0.17200000000E+03 0.  1.
         -6    1    1    2    0  502 -0.15671215400E+03  0.33025208716E+02  0.20051891325E+04  0.20189147631E+04  0.17200000000E+03 0. -1.
</event>
<event>
 4    1  0.4394643E+000  0.1995011E+03  0.7818608E-02  0.1150161E+00
         21   -1    0    0  503  502  0.00000000000E+00  0.00000000000E+00  0.70136015145E+03  0.70136015145E+03  0.00000000000E+00 0. -1.
         21   -1    0    0  501  503 -0.00000000000E+00 -0.00000000000E+00 -0.56847460641E+02  0.56847460641E+02  0.00000000000E+00 0.  1.
          6    1    1    2  501    0  0.73326885426E+01  0.10081125679E+03  0.33812588586E+03  0.39259367354E+03  0.17200000000E+03 0.  1.
         -6    1    1    2    0  502 -0.73326885426E+01 -0.10081125679E+03  0.30638680495E+03  0.36561393856E+03  0.17200000000E+03 0.  1.
</event>
<event>
 4    1  0.4394643E+000  0.1929639E+03  0.7818608E-02  0.1155815E+00
         21   -1    0    0  503  502  0.00000000000E+00  0.00000000000E+00  0.30917766267E+02  0.30917766267E+02  0.00000000000E+00 0.  1.
         21   -1    0    0  501  503 -0.00000000000E+00 -0.00000000000E+00 -0.13244961322E+04  0.13244961322E+04  0.00000000000E+00 0. -1.
          6    1    1    2  501    0 -0.54717974788E+02  0.68242252374E+02 -0.85092317517E+03  0.87252811520E+03  0.17200000000E+03 0.  1.
         -6    1    1    2    0  502  0.54717974788E+02 -0.68242252374E+02 -0.44265519078E+03  0.48288578329E+03  0.17200000000E+03 0.  1.
</event>
<event>
 4    1  0.4394643E+000  0.1992583E+03  0.7818608E-02  0.1150366E+00
         21   -1    0    0  503  502  0.00000000000E+00  0.00000000000E+00  0.18289753107E+03  0.18289753107E+03  0.00000000000E+00 0. -1.
         21   -1    0    0  501  503 -0.00000000000E+00 -0.00000000000E+00 -0.26897874430E+03  0.26897874430E+03  0.00000000000E+00 0. -1.
          6    1    1    2  501    0  0.55658796380E+01 -0.10044345497E+03 -0.14228322694E+03  0.24484358953E+03  0.17200000000E+03 0. -1.
         -6    1    1    2    0  502 -0.55658796380E+01  0.10044345497E+03  0.56202013711E+02  0.20703268584E+03  0.17200000000E+03 0. -1.
</event>
<event>
 4    1  0.4394643E+000  0.2111758E+03  0.7818608E-02  0.1140638E+00
         21   -1    0    0  501  502  0.00000000000E+00  0.00000000000E+00  0.22169844430E+03  0.22169844430E+03  0.00000000000E+00 0. -1.
         21   -1    0    0  502  503 -0.00000000000E+00 -0.00000000000E+00 -0.42533861296E+03  0.42533861296E+03  0.00000000000E+00 0.  1.
          6    1    1    2  501    0 -0.63598720512E+02 -0.10472077980E+03  0.13305444383E+03  0.24959712337E+03  0.17200000000E+03 0. -1.
         -6    1    1    2    0  503  0.63598720512E+02  0.10472077980E+03 -0.33669461249E+03  0.39743993389E+03  0.17200000000E+03 0.  1.
</event>
<event>
 4    1  0.4394643E+000  0.2144606E+03  0.7818608E-02  0.1138082E+00
         21   -1    0    0  501  502  0.00000000000E+00  0.00000000000E+00  0.91915857298E+02  0.91915857298E+02  0.00000000000E+00 0. -1.
         21   -1    0    0  502  503 -0.00000000000E+00 -0.00000000000E+00 -0.51764965460E+03  0.51764965460E+03  0.00000000000E+00 0.  1.
          6    1    1    2  501    0  0.12429348697E+03 -0.30991377190E+02 -0.15720620390E+03  0.26590811741E+03  0.17200000000E+03 0. -1.
         -6    1    1    2    0  503 -0.12429348697E+03  0.30991377190E+02 -0.26852759340E+03  0.34365739448E+03  0.17200000000E+03 0.  1.
</event>
<event>
 4    1  0.4394643E+000  0.1731316E+03  0.7818608E-02  0.1174621E+00
         21   -1    0    0  503  502  0.00000000000E+00  0.00000000000E+00  0.42341204874E+02  0.42341204874E+02  0.00000000000E+00 0.  1.
         21   -1    0    0  501  503 -0.00000000000E+00 -0.00000000000E+00 -0.70906599865E+03  0.70906599865E+03  0.00000000000E+00 0.  1.
          6    1    1    2  501    0  0.24829153489E+01  0.19605776528E+02 -0.31831533080E+03  0.36235231635E+03  0.17200000000E+03 0.  1.
         -6    1    1    2    0  502 -0.24829153489E+01 -0.19605776528E+02 -0.34840946298E+03  0.38905488718E+03  0.17200000000E+03 0.  1.
</event>
<event>
 4    1  0.4394643E+000  0.2075513E+03  0.7818608E-02  0.1143520E+00
         21   -1    0    0  503  502  0.00000000000E+00  0.00000000000E+00  0.32169066059E+03  0.32169066059E+03  0.00000000000E+00 0. -1.
         21   -1    0    0  501  503 -0.00000000000E+00 -0.00000000000E+00 -0.14029133582E+03  0.14029133582E+03  0.00000000000E+00 0. -1.
          6    1    1    2  501    0 -0.10709518096E+03  0.44990545908E+02  0.41434176960E+02  0.21164668206E+03  0.17200000000E+03 0. -1.
         -6    1    1    2    0  502  0.10709518096E+03 -0.44990545908E+02  0.13996514781E+03  0.25033531434E+03  0.17200000000E+03 0. -1.
</event>
<event>
 4    1  0.4394643E+000  0.2013230E+03  0.7818608E-02  0.1148628E+00
         21   -1    0    0  501  502  0.00000000000E+00  0.00000000000E+00  0.49092341344E+03  0.49092341344E+03  0.00000000000E+00 0.  1.
         21   -1    0    0  502  503 -0.00000000000E+00 -0.00000000000E+00 -0.10007650952E+03  0.10007650952E+03  0.00000000000E+00 0.  1.
          6    1    1    2  501    0 -0.60688012446E+02  0.85228590721E+02  0.31904873454E+03  0.37725726307E+03  0.17200000000E+03 0.  1.
         -6    1    1    2    0  503  0.60688012446E+02 -0.85228590721E+02  0.71798169377E+02  0.21374265989E+03  0.17200000000E+03 0.  1.
</event>
<event>
 4    1  0.4394643E+000  0.2279196E+03  0.7818608E-02  0.1128113E+00
         21   -1    0    0  503  502  0.00000000000E+00  0.00000000000E+00  0.29988913147E+03  0.29988913147E+03  0.00000000000E+00 0. -1.
         21   -1    0    0  501  503 -0.00000000000E+00 -0.00000000000E+00 -0.17695753178E+03  0.17695753178E+03  0.00000000000E+00 0.  1.
          6    1    1    2  501    0 -0.28345683170E+02  0.14683276231E+03  0.26823912213E+02  0.22949261450E+03  0.17200000000E+03 0.  1.
         -6    1    1    2    0  502  0.28345683170E+02 -0.14683276231E+03  0.96107687481E+02  0.24735404876E+03  0.17200000000E+03 0. -1.
</event>
<event>
 4    1  0.4394643E+000  0.2353309E+03  0.7818608E-02  0.1122943E+00
         21   -1    0    0  503  502  0.00000000000E+00  0.00000000000E+00  0.34532887419E+03  0.34532887419E+03  0.00000000000E+00 0.  1.
         21   -1    0    0  501  503 -0.00000000000E+00 -0.00000000000E+00 -0.29314022936E+03  0.29314022936E+03  0.00000000000E+00 0. -1.
          6    1    1    2  501    0  0.88395917472E+02 -0.13409988881E+03 -0.18874880072E+03  0.30167321422E+03  0.17200000000E+03 0. -1.
         -6    1    1    2    0  502 -0.88395917472E+02  0.13409988881E+03  0.24093744554E+03  0.33679588933E+03  0.17200000000E+03 0.  1.
</event>
<event>
 4    1  0.4394643E+000  0.2262640E+03  0.7818608E-02  0.1129297E+00
         21   -1    0    0  501  502  0.00000000000E+00  0.00000000000E+00  0.25883853073E+03  0.25883853073E+03  0.00000000000E+00 0.  1.
         21   -1    0    0  502  503 -0.00000000000E+00 -0.00000000000E+00 -0.27970397867E+03  0.27970397867E+03  0.00000000000E+00 0. -1.
          6    1    1    2  501    0 -0.14249191343E+03 -0.36159004178E+02  0.13528832332E+03  0.26362539598E+03  0.17200000000E+03 0.  1.
         -6    1    1    2    0  503  0.14249191343E+03  0.36159004178E+02 -0.15615377126E+03  0.27491711343E+03  0.17200000000E+03 0. -1.
</event>
<event>
 4    1  0.4394643E+000  0.1738712E+03  0.7818608E-02  0.1173870E+00
         21   -1    0    0  503  502  0.00000000000E+00  0.00000000000E+00  0.13420099435E+04  0.13420099435E+04  0.00000000000E+00 0.  1.
         21   -1    0    0  501  503 -0.00000000000E+00 -0.00000000000E+00 -0.23209042906E+02  0.23209042906E+02  0.00000000000E+00 0.  1.
          6    1    1    2  501    0  0.11754456188E+02  0.22561276202E+02  0.54236542000E+03  0.56955370882E+03  0.17200000000E+03 0.  1.
         -6    1    1    2    0  502 -0.11754456188E+02 -0.22561276202E+02  0.77643548061E+03  0.79566527760E+03  0.17200000000E+03 0.  1.
</event>
<event>
 4    1  0.4394643E+000  0.2033496E+03  0.7818608E-02  0.1146943E+00
         21   -1    0    0  503  502  0.00000000000E+00  0.00000000000E+00  0.50092220368E+03  0.50092220368E+03  0.00000000000E+00 0.  1.
         21   -1    0    0  501  503 -0.00000000000E+00 -0.00000000000E+00 -0.93360658603E+02  0.93360658603E+02  0.00000000000E+00 0. -1.
          6    1    1    2  501    0  0.23148046390E+01 -0.10845139311E+03  0.10266708777E+03  0.22779726491E+03  0.17200000000E+03 0. -1.
         -6    1    1    2    0  502 -0.23148046390E+01  0.10845139311E+03  0.30489445731E+03  0.36648559738E+03  0.17200000000E+03 0.  1.
</event>
<event>
 4    1  0.4394643E+000  0.2887786E+03  0.7818608E-02  0.1090989E+00
         21   -1    0    0  503  502  0.00000000000E+00  0.00000000000E+00  0.14685897442E+04  0.14685897442E+04  0.00000000000E+00 0. -1.
         21   -1    0    0  501  503 -0.00000000000E+00 -0.00000000000E+00 -0.12826931515E+03  0.12826931515E+03  0.00000000000E+00 0.  1.
          6    1    1    2  501    0  0.23196245029E+03 -0.15892465067E+01  0.74110938641E+02  0.29813677277E+03  0.17200000000E+03 0.  1.
         -6    1    1    2    0  502 -0.23196245029E+03  0.15892465067E+01  0.12662094904E+04  0.12987222865E+04  0.17200000000E+03 0. -1.
</event>
<event>
 4    1  0.4394643E+000  0.2608546E+03  0.7818608E-02  0.1106631E+00
         21   -1    0    0  501  502  0.00000000000E+00  0.00000000000E+00  0.70010977659E+03  0.70010977659E+03  0.00000000000E+00 0. -1.
         21   -1    0    0  502  503 -0.00000000000E+00 -0.00000000000E+00 -0.14884601209E+03  0.14884601209E+03  0.00000000000E+00 0.  1.
          6    1    1    2  501    0 -0.38970159646E+02  0.19220425071E+03  0.52568831917E+03  0.58685036955E+03  0.17200000000E+03 0. -1.
         -6    1    1    2    0  503  0.38970159646E+02 -0.19220425071E+03  0.25575445335E+02  0.26210541913E+03  0.17200000000E+03 0.  1.
</event>
<event>
 4    1  0.4394643E+000  0.1872835E+03  0.7818608E-02  0.1160935E+00
         21   -1    0    0  501  502  0.00000000000E+00  0.00000000000E+00  0.18274857944E+03  0.18274857944E+03  0.00000000000E+00 0. -1.
         21   -1    0    0  502  503 -0.00000000000E+00 -0.00000000000E+00 -0.21433246294E+03  0.21433246294E+03  0.00000000000E+00 0.  1.
          6    1    1    2  501    0 -0.72353556558E+02  0.16002018027E+02  0.48394634800E+02  0.19343511161E+03  0.17200000000E+03 0. -1.
         -6    1    1    2    0  503  0.72353556558E+02 -0.16002018027E+02 -0.79978518299E+02  0.20364593076E+03  0.17200000000E+03 0.  1.
</event>
<event>
 4    1  0.4394643E+000  0.1897479E+03  0.7818608E-02  0.1158689E+00
         21   -1    0    0  503  502  0.00000000000E+00  0.00000000000E+00  0.38733702275E+03  0.38733702275E+03  0.00000000000E+00 0. -1.
         21   -1    0    0  501  503 -0.00000000000E+00 -0.00000000000E+00 -0.11502639635E+03  0.11502639635E+03  0.00000000000E+00 0. -1.
          6    1    1    2  501    0  0.32881734084E+01  0.80059083638E+02  0.26122930707E+02  0.19153766331E+03  0.17200000000E+03 0. -1.
         -6    1    1    2    0  502 -0.32881734084E+01 -0.80059083638E+02  0.24618769569E+03  0.31082575579E+03  0.17200000000E+03 0. -1.
</event>
<event>
 4    1  0.4394643E+000  0.2911601E+03  0.7818608E-02  0.1089745E+00
         21   -1    0    0  503  502  0.00000000000E+00  0.00000000000E+00  0.18399186180E+03  0.18399186180E+03  0.00000000000E+00 0. -1.
         21   -1    0    0  501  503 -0.00000000000E+00 -0.00000000000E+00 -0.47131504881E+03  0.47131504881E+03  0.00000000000E+00 0.  1.
          6    1    1    2  501    0  0.33956123964E+02  0.23245898118E+03 -0.19271858254E+03  0.34916278201E+03  0.17200000000E+03 0.  1.
         -6    1    1    2    0  502 -0.33956123964E+02 -0.23245898118E+03 -0.94604604477E+02  0.30614412860E+03  0.17200000000E+03 0. -1.
</event>
<event>
 4    1  0.4394643E+000  0.2535432E+03  0.7818608E-02  0.1111086E+00
         21   -1    0    0  503  502  0.00000000000E+00  0.00000000000E+00  0.55144722014E+03  0.55144722014E+03  0.00000000000E+00 0. -1.
         21   -1    0    0  501  503 -0.00000000000E+00 -0.00000000000E+00 -0.15572719301E+03  0.15572719301E+03  0.00000000000E+00 0. -1.
          6    1    1    2  501    0 -0.66963797766E+02  0.17382755304E+03  0.20563449183E+02  0.25437575327E+03  0.17200000000E+03 0. -1.
         -6    1    1    2    0  502  0.66963797766E+02 -0.17382755304E+03  0.37515657795E+03  0.45279865988E+03  0.17200000000E+03 0. -1.
</event>
<event>
 4    1  0.4394643E+000  0.2157903E+03  0.7818608E-02  0.1137061E+00
         21   -1    0    0  503  502  0.00000000000E+00  0.00000000000E+00  0.10255760862E+04  0.10255760862E+04  0.00000000000E+00 0.  1.
         21   -1    0    0  501  503 -0.00000000000E+00 -0.00000000000E+00 -0.45411310373E+02  0.45411310373E+02  0.00000000000E+00 0.  1.
          6    1    1    2  501    0 -0.75360238834E+02  0.10631230598E+03  0.48338643139E+03  0.52936557695E+03  0.17200000000E+03 0.  1.
         -6    1    1    2    0  502  0.75360238834E+02 -0.10631230598E+03  0.49677834448E+03  0.54162181967E+03  0.17200000000E+03 0.  1.
</event>
<event>
 4    1  0.4394643E+000  0.2291029E+03  0.7818608E-02  0.1127273E+00
         21   -1    0    0  503  502  0.00000000000E+00  0.00000000000E+00  0.58791103593E+03  0.58791103593E+03  0.00000000000E+00 0. -1.
         21   -1    0    0  501  503 -0.00000000000E+00 -0.00000000000E+00 -0.10448218007E+03  0.10448218007E+03  0.00000000000E+00 0. -1.
          6    1    1    2  501    0  0.13136748151E+03  0.75144770422E+02  0.10965546376E+03  0.25399305591E+03  0.17200000000E+03 0. -1.
         -6    1    1    2    0  502 -0.13136748151E+03 -0.75144770422E+02  0.37377339210E+03  0.43840016008E+03  0.17200000000E+03 0. -1.
</event>
<event>
 4    1  0.4394643E+000  0.2295119E+03  0.7818608E-02  0.1126984E+00
         21   -1    0    0  501  502  0.00000000000E+00  0.00000000000E+00  0.12005795114E+03  0.12005795114E+03  0.00000000000E+00 0. -1.
         21   -1    0    0  502  503 -0.00000000000E+00 -0.00000000000E+00 -0.69409125383E+03  0.69409125383E+03  0.00000000000E+00 0. -1.
          6    1    1    2  501    0  0.70839548324E+02  0.13443768510E+03 -0.40114972977E+02  0.23299129563E+03  0.17200000000E+03 0. -1.
         -6    1    1    2    0  503 -0.70839548324E+02 -0.13443768510E+03 -0.53391832972E+03  0.58115790934E+03  0.17200000000E+03 0. -1.
</event>
<event>
 4    1  0.4394643E+000  0.2870502E+03  0.7818608E-02  0.1091899E+00
         21   -1    0    0  501  502  0.00000000000E+00  0.00000000000E+00  0.73089806818E+03  0.73089806818E+03  0.00000000000E+00 0. -1.
         21   -1    0    0  502  503 -0.00000000000E+00 -0.00000000000E+00 -0.11394205023E+03  0.11394205023E+03  0.00000000000E+00 0. -1.
          6    1    1    2  501    0  0.21025684765E+03 -0.92767764060E+02  0.35195541602E+03  0.45417002862E+03  0.17200000000E+03 0. -1.
         -6    1    1    2    0  503 -0.21025684765E+03  0.92767764060E+02  0.26500060192E+03  0.39067008979E+03  0.17200000000E+03 0. -1.
</event>
<event>
 4    1  0.4394643E+000  0.2011020E+03  0.7818608E-02  0.1148813E+00
         21   -1    0    0  503  502  0.00000000000E+00  0.00000000000E+00  0.21038648197E+03  0.21038648197E+03  0.00000000000E+00 0.  1.
         21   -1    0    0  501  503 -0.00000000000E+00 -0.00000000000E+00 -0.19239356224E+03  0.19239356224E+03  0.00000000000E+00 0.  1.
          6    1    1    2  501    0 -0.46859270226E+02 -0.93071031494E+02  0.14918164225E+02  0.20165455545E+03  0.17200000000E+03 0.  1.
         -6    1    1    2    0  502  0.46859270226E+02  0.93071031494E+02  0.30747555089E+01  0.20112548876E+03  0.17200000000E+03 0.  1.
</event>
<event>
 4    1  0.4394643E+000  0.1941231E+03  0.7818608E-02  0.1154794E+00
         21   -1    0    0  501  502  0.00000000000E+00  0.00000000000E+00  0.17495241967E+04  0.17495241967E+04  0.00000000000E+00 0.  1.
         21   -1    0    0  502  503 -0.00000000000E+00 -0.00000000000E+00 -0.24590210693E+02  0.24590210693E+02  0.00000000000E+00 0.  1.
          6    1    1    2  501    0  0.89110183150E+02 -0.12615565400E+02  0.11749130514E+04  0.11908419104E+04  0.17200000000E+03 0.  1.
         -6    1    1    2    0  503 -0.89110183150E+02  0.12615565400E+02  0.55002093454E+03  0.58327249692E+03  0.17200000000E+03 0.  1.
</event>
<event>
 4    1  0.4394643E+000  0.2201414E+03  0.7818608E-02  0.1133778E+00
         21   -1    0    0  501  502  0.00000000000E+00  0.00000000000E+00  0.12493667697E+03  0.12493667697E+03  0.00000000000E+00 0. -1.
         21   -1    0    0  502  503 -0.00000000000E+00 -0.00000000000E+00 -0.57705997448E+03  0.57705997448E+03  0.00000000000E+00 0. -1.
          6    1    1    2  501    0  0.95471660438E+02 -0.98810006557E+02 -0.25098949549E+02  0.22156762537E+03  0.17200000000E+03 0. -1.
         -6    1    1    2    0  503 -0.95471660438E+02  0.98810006557E+02 -0.42702434797E+03  0.48042902608E+03  0.17200000000E+03 0. -1.
</event>
<event>
 4    1  0.4394643E+000  0.1934571E+03  0.7818608E-02  0.1155380E+00
         21   -1    0    0  503  502  0.00000000000E+00  0.00000000000E+00  0.46534120531E+02  0.46534120531E+02  0.00000000000E+00 0. -1.
         21   -1    0    0  501  503 -0.00000000000E+00 -0.00000000000E+00 -0.94791756966E+03  0.94791756966E+03  0.00000000000E+00 0. -1.
          6    1    1    2  501    0  0.62260760802E+02 -0.62970159763E+02 -0.64425770923E+03  0.67267647443E+03  0.17200000000E+03 0. -1.
         -6    1    1    2    0  502 -0.62260760802E+02  0.62970159763E+02 -0.25712573990E+03  0.32177521576E+03  0.17200000000E+03 0. -1.
</event>
<event>
 4    1  0.4394643E+000  0.1772652E+03  0.7818608E-02  0.1170476E+00
         21   -1    0    0  503  502  0.00000000000E+00  0.00000000000E+00  0.20062244804E+03  0.20062244804E+03  0.00000000000E+00 0.  1.
         21   -1    0    0  501  503 -0.00000000000E+00 -0.00000000000E+00 -0.17725081791E+03  0.17725081791E+03  0.00000000000E+00 0.  1.
          6    1    1    2  501    0  0.51605843763E+01  0.42571245287E+02 -0.52761367494E+02  0.18495054597E+03  0.17200000000E+03 0.  1.
         -6    1    1    2    0  502 -0.51605843763E+01 -0.42571245287E+02  0.76132997618E+02  0.19292271998E+03  0.17200000000E+03 0.  1.
</event>
<event>
 4    1  0.4394643E+000  0.2835402E+03  0.7818608E-02  0.1093771E+00
         21   -1    0    0  501  502  0.00000000000E+00  0.00000000000E+00  0.43868198348E+03  0.43868198348E+03  0.00000000000E+00 0.  1.
         21   -1    0    0  502  503 -0.00000000000E+00 -0.00000000000E+00 -0.20354325368E+03  0.20354325368E+03  0.00000000000E+00 0. -1.
          6    1    1    2  501    0  0.85513690613E+02  0.20856276803E+03  0.21892435298E+03  0.35822184721E+03  0.17200000000E+03 0.  1.
         -6    1    1    2    0  503 -0.85513690613E+02 -0.20856276803E+03  0.16214376824E+02  0.28400338995E+03  0.17200000000E+03 0.  1.
</event>
<event>
 4    1  0.4394643E+000  0.1766596E+03  0.7818608E-02  0.1171076E+00
         21   -1    0    0  503  502  0.00000000000E+00  0.00000000000E+00  0.13781756381E+03  0.13781756381E+03  0.00000000000E+00 0. -1.
         21   -1    0    0  501  503 -0.00000000000E+00 -0.00000000000E+00 -0.25151279548E+03  0.25151279548E+03  0.00000000000E+00 0. -1.
          6    1    1    2  501    0  0.30032576415E+02  0.26882352451E+02 -0.11829929090E+03  0.21261076818E+03  0.17200000000E+03 0. -1.
         -6    1    1    2    0  502 -0.30032576415E+02 -0.26882352451E+02  0.46040592301E+01  0.17671959111E+03  0.17200000000E+03 0. -1.
</event>
<event>
 4    1  0.4394643E+000  0.1869480E+03  0.7818608E-02  0.1161243E+00
         21   -1    0    0  503  502  0.00000000000E+00  0.00000000000E+00  0.68821273815E+03  0.68821273815E+03  0.00000000000E+00 0.  1.
         21   -1    0    0  501  503 -0.00000000000E+00 -0.00000000000E+00 -0.57061889831E+02  0.57061889831E+02  0.00000000000E+00 0.  1.
          6    1    1    2  501    0 -0.21063004295E+02 -0.70156159628E+02  0.19196553435E+03  0.26795578602E+03  0.17200000000E+03 0.  1.
         -6    1    1    2    0  502  0.21063004295E+02  0.70156159628E+02  0.43918531396E+03  0.47731884195E+03  0.17200000000E+03 0.  1.
</event>
<event>
 4    1  0.4394643E+000  0.1791735E+03  0.7818608E-02  0.1168605E+00
         21   -1    0    0  501  502  0.00000000000E+00  0.00000000000E+00  0.57670033672E+03  0.57670033672E+03  0.00000000000E+00 0.  1.
         21   -1    0    0  502  503 -0.00000000000E+00 -0.00000000000E+00 -0.11664241861E+03  0.11664241861E+03  0.00000000000E+00 0.  1.
          6    1    1    2  501    0 -0.31734473821E+02  0.38885469496E+02  0.48067869627E+03  0.51298651602E+03  0.17200000000E+03 0.  1.
         -6    1    1    2    0  503  0.31734473821E+02 -0.38885469496E+02 -0.20620778169E+02  0.18035623931E+03  0.17200000000E+03 0.  1.
</event>
<event>
 4    1  0.4394643E+000  0.2489172E+03  0.7818608E-02  0.1113991E+00
         21   -1    0    0  503  502  0.00000000000E+00  0.00000000000E+00  0.13882898423E+03  0.13882898423E+03  0.00000000000E+00 0.  1.
         21   -1    0    0  501  503 -0.00000000000E+00 -0.00000000000E+00 -0.66431149594E+03  0.66431149594E+03  0.00000000000E+00 0. -1.
          6    1    1    2  501    0 -0.85718824549E+02  0.15820262667E+03 -0.49278603193E+03  0.55208501268E+03  0.17200000000E+03 0. -1.
         -6    1    1    2    0  502  0.85718824549E+02 -0.15820262667E+03 -0.32696479776E+02  0.25105546749E+03  0.17200000000E+03 0. -1.
</event>
<event>
 4    1  0.4394643E+000  0.1733110E+03  0.7818608E-02  0.1174438E+00
         21   -1    0    0  503  502  0.00000000000E+00  0.00000000000E+00  0.34328071569E+03  0.34328071569E+03  0.00000000000E+00 0. -1.
         21   -1    0    0  501  503 -0.00000000000E+00 -0.00000000000E+00 -0.22257437635E+03  0.22257437635E+03  0.00000000000E+00 0. -1.
          6    1    1    2  501    0  0.19358137274E+02  0.88294591761E+01 -0.16005406651E+03  0.23591100236E+03  0.17200000000E+03 0. -1.
         -6    1    1    2    0  502 -0.19358137274E+02 -0.88294591761E+01  0.28076040585E+03  0.32994408969E+03  0.17200000000E+03 0. -1.
</event>
<event>
 4    1  0.4394643E+000  0.2295992E+03  0.7818608E-02  0.1126922E+00
         21   -1    0    0  503  502  0.00000000000E+00  0.00000000000E+00  0.88654754500E+03  0.88654754500E+03  0.00000000000E+00 0.  1.
         21   -1    0    0  501  503 -0.00000000000E+00 -0.00000000000E+00 -0.76966119733E+02  0.76966119733E+02  0.00000000000E+00 0.  1.
          6    1    1    2  501    0  0.49625496760E+02 -0.14376751615E+03  0.17504382091E+03  0.28871461318E+03  0.17200000000E+03 0.  1.
         -6    1    1    2    0  502 -0.49625496760E+02  0.14376751615E+03  0.63453760436E+03  0.67479905155E+03  0.17200000000E+03 0.  1.
</event>
<event>
 4    1  0.4394643E+000  0.1905455E+03  0.7818608E-02  0.1157970E+00
         21   -1    0    0  503  502  0.00000000000E+00  0.00000000000E+00  0.29812518238E+03  0.29812518238E+03  0.00000000000E+00 0.  1.
         21   -1    0    0  501  503 -0.00000000000E+00 -0.00000000000E+00 -0.35374900621E+03  0.35374900621E+03  0.00000000000E+00 0.  1.
          6    1    1    2  501    0 -0.81993222645E+02  0.83177724711E+00 -0.29174582929E+03  0.34845833226E+03  0.17200000000E+03 0.  1.
         -6    1    1    2    0  502  0.81993222645E+02 -0.83177724711E+00  0.23612200546E+03  0.30341585633E+03  0.17200000000E+03 0.  1.
</event>
<event>
 4    1  0.4394643E+000  0.2484643E+03  0.7818608E-02  0.1114279E+00
         21   -1    0    0  501  502  0.00000000000E+00  0.00000000000E+00  0.12172872092E+03  0.12172872092E+03  0.00000000000E+00 0.  1.
         21   -1    0    0  502  503 -0.00000000000E+00 -0.00000000000E+00 -0.53560464141E+03  0.53560464141E+03  0.00000000000E+00 0.  1.
          6    1    1    2  501    0  0.15379182911E+03 -0.92187871203E+02 -0.13118109154E+03  0.28096798586E+03  0.17200000000E+03 0.  1.
         -6    1    1    2    0  503 -0.15379182911E+03  0.92187871203E+02 -0.28269482895E+03  0.37636537648E+03  0.17200000000E+03 0.  1.
</event>
<event>
 4    1  0.4394643E+000  0.1769270E+03  0.7818608E-02  0.1170811E+00
         21   -1    0    0  501  502  0.00000000000E+00  0.00000000000E+00  0.54670317921E+03  0.54670317921E+03  0.00000000000E+00 0. -1.
         21   -1    0    0  502  503 -0.00000000000E+00 -0.00000000000E+00 -0.35639242013E+03  0.35639242013E+03  0.00000000000E+00 0. -1.
          6    1    1    2  501    0 -0.16233994796E+02  0.38152499763E+02  0.50884313032E+03  0.53872487143E+03  0.17200000000E+03 0. -1.
         -6    1    1    2    0  503  0.16233994796E+02 -0.38152499763E+02 -0.31853237124E+03  0.36437072790E+03  0.17200000000E+03 0. -1.
</event>
<event>
 4    1  0.4394643E+000  0.1758598E+03  0.7818608E-02  0.1171871E+00
         21   -1    0    0  501  502  0.00000000000E+00  0.00000000000E+00  0.15272407444E+04  0.15272407444E+04  0.00000000000E+00 0. -1.
         21   -1    0    0  502  503 -0.00000000000E+00 -0.00000000000E+00 -0.38714834059E+02  0.38714834059E+02  0.00000000000E+00 0. -1.
          6    1    1    2  501    0 -0.11155226874E+02 -0.34903104024E+02  0.12849962766E+04  0.12969742082E+04  0.17200000000E+03 0. -1.
         -6    1    1    2    0  503  0.11155226874E+02  0.34903104024E+02  0.20352963374E+03  0.26898137030E+03  0.17200000000E+03 0. -1.
</event>
<event>
 4    1  0.4394643E+000  0.1759331E+03  0.7818608E-02  0.1171798E+00
         21   -1    0    0  503  502  0.00000000000E+00  0.00000000000E+00  0.34191017113E+02  0.34191017113E+02  0.00000000000E+00 0. -1.
         21   -1    0    0  501  503 -0.00000000000E+00 -0.00000000000E+00 -0.96136148224E+03  0.96136148224E+03  0.00000000000E+00 0. -1.
          6    1    1    2  501    0 -0.18227555223E+02  0.32190311665E+02 -0.58381132903E+03  0.60974431349E+03  0.17200000000E+03 0. -1.
         -6    1    1    2    0  502  0.18227555223E+02 -0.32190311665E+02 -0.34335913610E+03  0.38580818586E+03  0.17200000000E+03 0. -1.
</event>
<event>
 4    1  0.4394643E+000  0.1918494E+03  0.7818608E-02  0.1156804E+00
         21   -1    0    0  501  502  0.00000000000E+00  0.00000000000E+00  0.65844800045E+02  0.65844800045E+02  0.00000000000E+00 0. -1.
         21   -1    0    0  502  503 -0.00000000000E+00 -0.00000000000E+00 -0.70066346091E+03  0.70066346091E+03  0.00000000000E+00 0. -1.
          6    1    1    2  501    0 -0.43969179178E+02 -0.72724763910E+02 -0.48974920912E+03  0.52598523538E+03  0.17200000000E+03 0. -1.
         -6    1    1    2    0  503  0.43969179178E+02  0.72724763910E+02 -0.14506945175E+03  0.24052302558E+03  0.17200000000E+03 0. -1.
</event>
<event>
 4    1  0.4394643E+000  0.1851843E+03  0.7818608E-02  0.1162878E+00
         21   -1    0    0  501  502  0.00000000000E+00  0.00000000000E+00  0.33097481812E+03  0.33097481812E+03  0.00000000000E+00 0.  1.
         21   -1    0    0  502  503 -0.00000000000E+00 -0.00000000000E+00 -0.18854517579E+03  0.18854517579E+03  0.00000000000E+00 0. -1.
          6    1    1    2  501    0  0.61214736276E+00 -0.68621139013E+02 -0.10312682170E+03  0.21196314962E+03  0.17200000000E+03 0. -1.
         -6    1    1    2    0  503 -0.61214736276E+00  0.68621139013E+02  0.24555646403E+03  0.30755684429E+03  0.17200000000E+03 0.  1.
</event>
<event>
 4    1  0.4394643E+000  0.1853032E+03  0.7818608E-02  0.1162767E+00
         21   -1    0    0  501  502  0.00000000000E+00  0.00000000000E+00  0.33820778823E+03  0.33820778823E+03  0.00000000000E+00 0.  1.
         21   -1    0    0  502  503 -0.00000000000E+00 -0.00000000000E+00 -0.12037337588E+04  0.12037337588E+04  0.00000000000E+00 0.  1.
          6    1    1    2  501    0 -0.53257314426E+02  0.43782742764E+02  0.30497849283E+03  0.35686012833E+03  0.17200000000E+03 0.  1.
         -6    1    1    2    0  503  0.53257314426E+02 -0.43782742764E+02 -0.11705044634E+04  0.11850814187E+04  0.17200000000E+03 0.  1.
</event>
<event>
 4    1  0.4394643E+000  0.1740827E+03  0.7818608E-02  0.1173656E+00
         21   -1    0    0  501  502  0.00000000000E+00  0.00000000000E+00  0.30325694177E+03  0.30325694177E+03  0.00000000000E+00 0.  1.
         21   -1    0    0  502  503 -0.00000000000E+00 -0.00000000000E+00 -0.18414973435E+03  0.18414973435E+03  0.00000000000E+00 0.  1.
          6    1    1    2  501    0 -0.26106433687E+02  0.62631755263E+01  0.22436234877E+03  0.28397752868E+03  0.17200000000E+03 0.  1.
         -6    1    1    2    0  503  0.26106433687E+02 -0.62631755263E+01 -0.10525514135E+03  0.20342914744E+03  0.17200000000E+03 0.  1.
</event>
<event>
 4    1  0.4394643E+000  0.1849522E+03  0.7818608E-02  0.1163095E+00
         21   -1    0    0  501  502  0.00000000000E+00  0.00000000000E+00  0.44820707652E+02  0.44820707652E+02  0.00000000000E+00 0.  1.
         21   -1    0    0  502  503 -0.00000000000E+00 -0.00000000000E+00 -0.14382484037E+04  0.14382484037E+04  0.00000000000E+00 0.  1.
          6    1    1    2  501    0  0.73746578311E+01 -0.67593781078E+02 -0.18869375351E+03  0.26422081188E+03  0.17200000000E+03 0.  1.
         -6    1    1    2    0  503 -0.73746578311E+01  0.67593781078E+02 -0.12047339425E+04  0.12188482995E+04  0.17200000000E+03 0.  1.
</event>
<event>
 4    1  0.4394643E+000  0.2422131E+03  0.7818608E-02  0.1118327E+00
         21   -1    0    0  501  502  0.00000000000E+00  0.00000000000E+00  0.62524050348E+03  0.62524050348E+03  0.00000000000E+00 0. -1.
         21   -1    0    0  502  503 -0.00000000000E+00 -0.00000000000E+00 -0.96330790315E+02  0.96330790315E+02  0.00000000000E+00 0.  1.
          6    1    1    2  501    0  0.15480557180E+03  0.71543296328E+02  0.32256894559E+03  0.40338310943E+03  0.17200000000E+03 0.  1.
         -6    1    1    2    0  503 -0.15480557180E+03 -0.71543296328E+02  0.20634076757E+03  0.31818818437E+03  0.17200000000E+03 0.  1.
</event>
<event>
 4    1  0.4394643E+000  0.1740677E+03  0.7818608E-02  0.1173671E+00
         21   -1    0    0  503  502  0.00000000000E+00  0.00000000000E+00  0.63945513013E+02  0.63945513013E+02  0.00000000000E+00 0. -1.
         21   -1    0    0  501  503 -0.00000000000E+00 -0.00000000000E+00 -0.10427377660E+04  0.10427377660E+04  0.00000000000E+00 0. -1.
          6    1    1    2  501    0  0.87836610415E+01 -0.25266901553E+02 -0.89811542173E+03  0.91482833349E+03  0.17200000000E+03 0. -1.
         -6    1    1    2    0  502 -0.87836610415E+01  0.25266901553E+02 -0.80676831245E+02  0.19185494551E+03  0.17200000000E+03 0. -1.
</event>
<event>
 4    1  0.4394643E+000  0.2497586E+03  0.7818608E-02  0.1113457E+00
         21   -1    0    0  503  502  0.00000000000E+00  0.00000000000E+00  0.14521910156E+03  0.14521910156E+03  0.00000000000E+00 0. -1.
         21   -1    0    0  501  503 -0.00000000000E+00 -0.00000000000E+00 -0.46825810693E+03  0.46825810693E+03  0.00000000000E+00 0.  1.
          6    1    1    2  501    0 -0.18047689408E+03 -0.14948445693E+02 -0.24970708266E+03  0.35317558304E+03  0.17200000000E+03 0.  1.
         -6    1    1    2    0  502  0.18047689408E+03  0.14948445693E+02 -0.73331922705E+02  0.26030162545E+03  0.17200000000E+03 0. -1.
</event>
<event>
 4    1  0.4394643E+000  0.2167670E+03  0.7818608E-02  0.1136317E+00
         21   -1    0    0  501  502  0.00000000000E+00  0.00000000000E+00  0.24379122445E+03  0.24379122445E+03  0.00000000000E+00 0. -1.
         21   -1    0    0  502  503 -0.00000000000E+00 -0.00000000000E+00 -0.25168839636E+03  0.25168839636E+03  0.00000000000E+00 0.  1.
          6    1    1    2  501    0  0.12827110542E+03  0.30829567101E+02  0.11594776680E+03  0.24582884965E+03  0.17200000000E+03 0. -1.
         -6    1    1    2    0  503 -0.12827110542E+03 -0.30829567101E+02 -0.12384493871E+03  0.24965077115E+03  0.17200000000E+03 0.  1.
</event>
<event>
 4    1  0.4394643E+000  0.1844393E+03  0.7818608E-02  0.1163575E+00
         21   -1    0    0  501  502  0.00000000000E+00  0.00000000000E+00  0.47204655383E+03  0.47204655383E+03  0.00000000000E+00 0. -1.
         21   -1    0    0  502  503 -0.00000000000E+00 -0.00000000000E+00 -0.94063220368E+02  0.94063220368E+02  0.00000000000E+00 0. -1.
          6    1    1    2  501    0  0.65373399464E+02  0.12655981420E+02  0.32587742543E+03  0.37445153442E+03  0.17200000000E+03 0.  1.
         -6    1    1    2    0  503 -0.65373399464E+02 -0.12655981420E+02  0.52105908029E+02  0.19165823978E+03  0.17200000000E+03 0.  1.
</event>
<event>
 4    1  0.4394643E+000  0.2044746E+03  0.7818608E-02  0.1146018E+00
         21   -1    0    0  503  502  0.00000000000E+00  0.00000000000E+00  0.18151063813E+04  0.18151063813E+04  0.00000000000E+00 0. -1.
         21   -1    0    0  501  503 -0.00000000000E+00 -0.00000000000E+00 -0.29141706427E+02  0.29141706427E+02  0.00000000000E+00 0.  1.
          6    1    1    2  501    0  0.10884958676E+03 -0.19432314463E+02  0.47084139345E+03  0.51332393785E+03  0.17200000000E+03 0.  1.
         -6    1    1    2    0  502 -0.10884958676E+03  0.19432314463E+02  0.13151232814E+04  0.13309241499E+04  0.17200000000E+03 0. -1.
</event>
<event>
 4    1  0.4394643E+000  0.1944449E+03  0.7818608E-02  0.1154512E+00
         21   -1    0    0  501  502  0.00000000000E+00  0.00000000000E+00  0.89609661686E+02  0.89609661686E+02  0.00000000000E+00 0.  1.
         21   -1    0    0  502  503 -0.00000000000E+00 -0.00000000000E+00 -0.43089130418E+03  0.43089130418E+03  0.00000000000E+00 0.  1.
          6    1    1    2  501    0  0.16980810707E+02 -0.89086881359E+02 -0.13310524467E+03  0.23563918715E+03  0.17200000000E+03 0.  1.
         -6    1    1    2    0  503 -0.16980810707E+02  0.89086881359E+02 -0.20817639782E+03  0.28486177871E+03  0.17200000000E+03 0.  1.
</event>
<event>
 4    1  0.4394643E+000  0.2103719E+03  0.7818608E-02  0.1141272E+00
         21   -1    0    0  503  502  0.00000000000E+00  0.00000000000E+00  0.22432746413E+03  0.22432746413E+03  0.00000000000E+00 0.  1.
         21   -1    0    0  501  503 -0.00000000000E+00 -0.00000000000E+00 -0.25333609386E+03  0.25333609386E+03  0.00000000000E+00 0. -1.
          6    1    1    2  501    0 -0.94987824641E+02 -0.75164057752E+02 -0.12684516876E+03  0.24565426771E+03  0.17200000000E+03 0. -1.
         -6    1    1    2    0  502  0.94987824641E+02  0.75164057752E+02  0.97836539020E+02  0.23200929028E+03  0.17200000000E+03 0.  1.
</event>
<event>
 4    1  0.4394643E+000  0.2167743E+03  0.7818608E-02  0.1136311E+00
         21   -1    0    0  503  502  0.00000000000E+00  0.00000000000E+00  0.71487021117E+03  0.71487021117E+03  0.00000000000E+00 0. -1.
         21   -1    0    0  501  503 -0.00000000000E+00 -0.00000000000E+00 -0.65808673545E+02  0.65808673545E+02  0.00000000000E+00 0.  1.
          6    1    1    2  501    0 -0.12762873201E+03  0.33436761274E+02  0.33770021389E+03  0.40128860524E+03  0.17200000000E+03 0. -1.
         -6    1    1    2    0  502  0.12762873201E+03 -0.33436761274E+02  0.31136132373E+03  0.37939027947E+03  0.17200000000E+03 0. -1.
</event>
<event>
 4    1  0.4394643E+000  0.1769919E+03  0.7818608E-02  0.1170746E+00
         21   -1    0    0  501  502  0.00000000000E+00  0.00000000000E+00  0.86639798110E+03  0.86639798110E+03  0.00000000000E+00 0.  1.
         21   -1    0    0  502  503 -0.00000000000E+00 -0.00000000000E+00 -0.36645109802E+02  0.36645109802E+02  0.00000000000E+00 0.  1.
          6    1    1    2  501    0 -0.17737139324E+00  0.41738687969E+02  0.46699987497E+03  0.49941469017E+03  0.17200000000E+03 0. -1.
         -6    1    1    2    0  503  0.17737139324E+00 -0.41738687969E+02  0.36275299633E+03  0.40362840073E+03  0.17200000000E+03 0. -1.
</event>
<event>
 4    1  0.4394643E+000  0.2154904E+03  0.7818608E-02  0.1137290E+00
         21   -1    0    0  503  502  0.00000000000E+00  0.00000000000E+00  0.36760640574E+03  0.36760640574E+03  0.00000000000E+00 0. -1.
         21   -1    0    0  501  503 -0.00000000000E+00 -0.00000000000E+00 -0.16742413228E+03  0.16742413228E+03  0.00000000000E+00 0. -1.
          6    1    1    2  501    0  0.73322345652E+02 -0.10712594253E+03 -0.32459236875E+02  0.21792139866E+03  0.17200000000E+03 0. -1.
         -6    1    1    2    0  502 -0.73322345652E+02  0.10712594253E+03  0.23264151033E+03  0.31710913936E+03  0.17200000000E+03 0. -1.
</event>
<event>
 4    1  0.4394643E+000  0.2764325E+03  0.7818608E-02  0.1097654E+00
         21   -1    0    0  503  502  0.00000000000E+00  0.00000000000E+00  0.23316818398E+03  0.23316818398E+03  0.00000000000E+00 0. -1.
         21   -1    0    0  501  503 -0.00000000000E+00 -0.00000000000E+00 -0.96063834458E+03  0.96063834458E+03  0.00000000000E+00 0.  1.
          6    1    1    2  501    0  0.10755873295E+03  0.18778195255E+03 -0.84823785547E+03  0.89214483252E+03  0.17200000000E+03 0.  1.
         -6    1    1    2    0  502 -0.10755873295E+03 -0.18778195255E+03  0.12076769486E+03  0.30166169604E+03  0.17200000000E+03 0. -1.
</event>
<event>
 4    1  0.4394643E+000  0.2152643E+03  0.7818608E-02  0.1137464E+00
         21   -1    0    0  501  502  0.00000000000E+00  0.00000000000E+00  0.60831472524E+03  0.60831472524E+03  0.00000000000E+00 0. -1.
         21   -1    0    0  502  503 -0.00000000000E+00 -0.00000000000E+00 -0.10581904549E+03  0.10581904549E+03  0.00000000000E+00 0. -1.
          6    1    1    2  501    0 -0.39750504890E+02 -0.12318529194E+03  0.44023497492E+03  0.49004647936E+03  0.17200000000E+03 0. -1.
         -6    1    1    2    0  503  0.39750504890E+02  0.12318529194E+03  0.62260704828E+02  0.22408729137E+03  0.17200000000E+03 0. -1.
</event>
<event>
 4    1  0.4394643E+000  0.1780845E+03  0.7818608E-02  0.1169670E+00
         21   -1    0    0  501  502  0.00000000000E+00  0.00000000000E+00  0.55767391488E+02  0.55767391488E+02  0.00000000000E+00 0. -1.
         21   -1    0    0  502  503 -0.00000000000E+00 -0.00000000000E+00 -0.56959091021E+03  0.56959091021E+03  0.00000000000E+00 0. -1.
          6    1    1    2  501    0  0.15891788585E+02  0.43330653108E+02 -0.26937967087E+03  0.32292336787E+03  0.17200000000E+03 0. -1.
         -6    1    1    2    0  503 -0.15891788585E+02 -0.43330653108E+02 -0.24444384786E+03  0.30243493383E+03  0.17200000000E+03 0. -1.
</event>
<event>
 4    1  0.4394643E+000  0.3559739E+03  0.7818608E-02  0.1060189E+00
         21   -1    0    0  503  502  0.00000000000E+00  0.00000000000E+00  0.54423729544E+03  0.54423729544E+03  0.00000000000E+00 0. -1.
         21   -1    0    0  501  503 -0.00000000000E+00 -0.00000000000E+00 -0.23454454908E+03  0.23454454908E+03  0.00000000000E+00 0. -1.
          6    1    1    2  501    0  0.17903968991E+03  0.25510424275E+03  0.18809230782E+03  0.40261160129E+03  0.17200000000E+03 0. -1.
         -6    1    1    2    0  502 -0.17903968991E+03 -0.25510424275E+03  0.12160043855E+03  0.37617024323E+03  0.17200000000E+03 0. -1.
</event>
<event>
 4    1  0.4394643E+000  0.1722998E+03  0.7818608E-02  0.1175471E+00
         21   -1    0    0  501  502  0.00000000000E+00  0.00000000000E+00  0.20518738959E+02  0.20518738959E+02  0.00000000000E+00 0.  1.
         21   -1    0    0  502  503 -0.00000000000E+00 -0.00000000000E+00 -0.15904961564E+04  0.15904961564E+04  0.00000000000E+00 0.  1.
          6    1    1    2  501    0 -0.81923001025E+01  0.60078279737E+01 -0.54289999615E+03  0.56958547523E+03  0.17200000000E+03 0.  1.
         -6    1    1    2    0  503  0.81923001025E+01 -0.60078279737E+01 -0.10270774213E+04  0.10414294202E+04  0.17200000000E+03 0.  1.
</event>
<event>
 4    1  0.4394643E+000  0.2230778E+03  0.7818608E-02  0.1131609E+00
         21   -1    0    0  503  502  0.00000000000E+00  0.00000000000E+00  0.11041980020E+04  0.11041980020E+04  0.00000000000E+00 0.  1.
         21   -1    0    0  501  503 -0.00000000000E+00 -0.00000000000E+00 -0.50538320210E+02  0.50538320210E+02  0.00000000000E+00 0. -1.
          6    1    1    2  501    0  0.39340006985E+02  0.13649932214E+03  0.33687105308E+03  0.40403688878E+03  0.17200000000E+03 0. -1.
         -6    1    1    2    0  502 -0.39340006985E+02 -0.13649932214E+03  0.71678862868E+03  0.75069943340E+03  0.17200000000E+03 0.  1.
</event>
<event>
 4    1  0.4394643E+000  0.3283771E+03  0.7818608E-02  0.1071857E+00
         21   -1    0    0  501  502  0.00000000000E+00  0.00000000000E+00  0.25055749392E+03  0.25055749392E+03  0.00000000000E+00 0.  1.
         21   -1    0    0  502  503 -0.00000000000E+00 -0.00000000000E+00 -0.43036928675E+03  0.43036928675E+03  0.00000000000E+00 0.  1.
          6    1    1    2  501    0 -0.52467651566E+02 -0.27476296690E+03 -0.89033806083E+02  0.34023309813E+03  0.17200000000E+03 0.  1.
         -6    1    1    2    0  503  0.52467651566E+02  0.27476296690E+03 -0.90777986746E+02  0.34069368253E+03  0.17200000000E+03 0.  1.
</event>
<event>
 4    1  0.4394643E+000  0.2679889E+03  0.7818608E-02  0.1102436E+00
         21   -1    0    0  503  502  0.00000000000E+00  0.00000000000E+00  0.12724933995E+04  0.12724933995E+04  0.00000000000E+00 0. -1.
         21   -1    0    0  501  503 -0.00000000000E+00 -0.00000000000E+00 -0.56824978921E+02  0.56824978921E+02  0.00000000000E+00 0. -1.
          6    1    1    2  501    0  0.20544550312E+03  0.51186112011E+01  0.66262399451E+03  0.71476472565E+03  0.17200000000E+03 0. -1.
         -6    1    1    2    0  502 -0.20544550312E+03 -0.51186112011E+01  0.55304442609E+03  0.61455365280E+03  0.17200000000E+03 0. -1.
</event>
<event>
 4    1  0.4394643E+000  0.2405240E+03  0.7818608E-02  0.1119444E+00
         21   -1    0    0  501  502  0.00000000000E+00  0.00000000000E+00  0.45069897999E+02  0.45069897999E+02  0.00000000000E+00 0.  1.
         21   -1    0    0  502  503 -0.00000000000E+00 -0.00000000000E+00 -0.16923240128E+04  0.16923240128E+04  0.00000000000E+00 0. -1.
          6    1    1    2  501    0 -0.47897008217E+02  0.16116355732E+03 -0.39671295285E+03  0.46393208831E+03  0.17200000000E+03 0.  1.
         -6    1    1    2    0  503  0.47897008217E+02 -0.16116355732E+03 -0.12505411620E+04  0.12734618225E+04  0.17200000000E+03 0. -1.
</event>
<event>
 4    1  0.4394643E+000  0.1845580E+03  0.7818608E-02  0.1163463E+00
         21   -1    0    0  503  502  0.00000000000E+00  0.00000000000E+00  0.25238412006E+04  0.25238412006E+04  0.00000000000E+00 0.  1.
         21   -1    0    0  501  503 -0.00000000000E+00 -0.00000000000E+00 -0.18717212091E+02  0.18717212091E+02  0.00000000000E+00 0.  1.
          6    1    1    2  501    0 -0.41404174086E+02  0.52567665814E+02  0.58112137963E+03  0.60972430080E+03  0.17200000000E+03 0.  1.
         -6    1    1    2    0  502  0.41404174086E+02 -0.52567665814E+02  0.19240026089E+04  0.19328341119E+04  0.17200000000E+03 0.  1.
</event>
<event>
 4    1  0.4394643E+000  0.3453962E+03  0.7818608E-02  0.1064521E+00
         21   -1    0    0  501  502  0.00000000000E+00  0.00000000000E+00  0.59669498383E+03  0.59669498383E+03  0.00000000000E+00 0.  1.
         21   -1    0    0  502  503 -0.00000000000E+00 -0.00000000000E+00 -0.29991356318E+03  0.29991356318E+03  0.00000000000E+00 0.  1.
          6    1    1    2  501    0 -0.89524974464E+02 -0.28583178993E+03  0.40723249187E+03  0.53398205552E+03  0.17200000000E+03 0.  1.
         -6    1    1    2    0  503  0.89524974464E+02  0.28583178993E+03 -0.11045107122E+03  0.36262649148E+03  0.17200000000E+03 0.  1.
</event>
<event>
 4    1  0.4394643E+000  0.1825886E+03  0.7818608E-02  0.1165321E+00
         21   -1    0    0  503  502  0.00000000000E+00  0.00000000000E+00  0.72198735273E+03  0.72198735273E+03  0.00000000000E+00 0. -1.
         21   -1    0    0  501  503 -0.00000000000E+00 -0.00000000000E+00 -0.24310745369E+03  0.24310745369E+03  0.00000000000E+00 0. -1.
          6    1    1    2  501    0 -0.58864014305E+02 -0.17018353945E+02 -0.19486844446E+03  0.26704364287E+03  0.17200000000E+03 0. -1.
         -6    1    1    2    0  502  0.58864014305E+02  0.17018353945E+02  0.67374834350E+03  0.69805116354E+03  0.17200000000E+03 0. -1.
</event>
<event>
 4    1  0.4394643E+000  0.1851507E+03  0.7818608E-02  0.1162909E+00
         21   -1    0    0  503  502  0.00000000000E+00  0.00000000000E+00  0.55140191362E+02  0.55140191362E+02  0.00000000000E+00 0.  1.
         21   -1    0    0  501  503 -0.00000000000E+00 -0.00000000000E+00 -0.62342423030E+03  0.62342423030E+03  0.00000000000E+00 0.  1.
          6    1    1    2  501    0  0.67617762406E+02 -0.11162676267E+02 -0.30197463838E+03  0.35421667007E+03  0.17200000000E+03 0. -1.
         -6    1    1    2    0  502 -0.67617762406E+02  0.11162676267E+02 -0.26630940056E+03  0.32434775159E+03  0.17200000000E+03 0. -1.
</event>
<event>
 4    1  0.4394643E+000  0.2175603E+03  0.7818608E-02  0.1135715E+00
         21   -1    0    0  503  502  0.00000000000E+00  0.00000000000E+00  0.60462549460E+02  0.60462549460E+02  0.00000000000E+00 0. -1.
         21   -1    0    0  501  503 -0.00000000000E+00 -0.00000000000E+00 -0.93237299975E+03  0.93237299975E+03  0.00000000000E+00 0. -1.
          6    1    1    2  501    0 -0.13801605344E+02 -0.13250667257E+03 -0.63475733681E+03  0.67100624380E+03  0.17200000000E+03 0. -1.
         -6    1    1    2    0  502  0.13801605344E+02  0.13250667257E+03 -0.23715311348E+03  0.32182930541E+03  0.17200000000E+03 0. -1.
</event>
<event>
 4    1  0.4394643E+000  0.2020673E+03  0.7818608E-02  0.1148006E+00
         21   -1    0    0  501  502  0.00000000000E+00  0.00000000000E+00  0.23494294237E+02  0.23494294237E+02  0.00000000000E+00 0.  1.
         21   -1    0    0  502  503 -0.00000000000E+00 -0.00000000000E+00 -0.17380597898E+04  0.17380597898E+04  0.00000000000E+00 0.  1.
          6    1    1    2  501    0 -0.71458411693E+02  0.78363889307E+02 -0.84938365117E+03  0.87308864992E+03  0.17200000000E+03 0.  1.
         -6    1    1    2    0  503  0.71458411693E+02 -0.78363889307E+02 -0.86518184442E+03  0.88846543414E+03  0.17200000000E+03 0.  1.
</event>
<event>
 4    1  0.4394643E+000  0.1844325E+03  0.7818608E-02  0.1163581E+00
         21   -1    0    0  503  502  0.00000000000E+00  0.00000000000E+00  0.64836085458E+02  0.64836085458E+02  0.00000000000E+00 0.  1.
         21   -1    0    0  501  503 -0.00000000000E+00 -0.00000000000E+00 -0.53455283844E+03  0.53455283844E+03  0.00000000000E+00 0.  1.
          6    1    1    2  501    0  0.19038434960E+02 -0.63787908764E+02 -0.19403912609E+03  0.26770607346E+03  0.17200000000E+03 0.  1.
         -6    1    1    2    0  502 -0.19038434960E+02  0.63787908764E+02 -0.27567762689E+03  0.33168285044E+03  0.17200000000E+03 0.  1.
</event>
<event>
 4    1  0.4394643E+000  0.2832439E+03  0.7818608E-02  0.1093930E+00
         21   -1    0    0  503  502  0.00000000000E+00  0.00000000000E+00  0.16044985118E+03  0.16044985118E+03  0.00000000000E+00 0.  1.
         21   -1    0    0  501  503 -0.00000000000E+00 -0.00000000000E+00 -0.63793980934E+03  0.63793980934E+03  0.00000000000E+00 0. -1.
          6    1    1    2  501    0  0.18811162166E+02  0.22425259914E+03 -0.42436236385E+03  0.51020633463E+03  0.17200000000E+03 0. -1.
         -6    1    1    2    0  502 -0.18811162166E+02 -0.22425259914E+03 -0.53127594313E+02  0.28818332589E+03  0.17200000000E+03 0.  1.
</event>
<event>
 4    1  0.4394643E+000  0.1883790E+03  0.7818608E-02  0.1159932E+00
         21   -1    0    0  501  502  0.00000000000E+00  0.00000000000E+00  0.87283332011E+02  0.87283332011E+02  0.00000000000E+00 0. -1.
         21   -1    0    0  502  503 -0.00000000000E+00 -0.00000000000E+00 -0.53926860940E+03  0.53926860940E+03  0.00000000000E+00 0.  1.
          6    1    1    2  501    0 -0.32612738609E+02  0.69563357326E+02 -0.70589355007E+02  0.20117034683E+03  0.17200000000E+03 0. -1.
         -6    1    1    2    0  503  0.32612738609E+02 -0.69563357326E+02 -0.38139592238E+03  0.42538159459E+03  0.17200000000E+03 0.  1.
</event>
<event>
 4    1  0.4394643E+000  0.1919433E+03  0.7818608E-02  0.1156720E+00
         21   -1    0    0  503  502  0.00000000000E+00  0.00000000000E+00  0.30505662396E+03  0.30505662396E+03  0.00000000000E+00 0. -1.
         21   -1    0    0  501  503 -0.00000000000E+00 -0.00000000000E+00 -0.13997793065E+03  0.13997793065E+03  0.00000000000E+00 0. -1.
          6    1    1    2  501    0  0.36727352636E+01 -0.85116004152E+02  0.11520615599E+00  0.19194331564E+03  0.17200000000E+03 0. -1.
         -6    1    1    2    0  502 -0.36727352636E+01  0.85116004152E+02  0.16496348716E+03  0.25309123897E+03  0.17200000000E+03 0. -1.
</event>
<event>
 4    1  0.4394643E+000  0.1800251E+03  0.7818608E-02  0.1167779E+00
         21   -1    0    0  501  502  0.00000000000E+00  0.00000000000E+00  0.96741516898E+02  0.96741516898E+02  0.00000000000E+00 0.  1.
         21   -1    0    0  502  503 -0.00000000000E+00 -0.00000000000E+00 -0.38425869824E+03  0.38425869824E+03  0.00000000000E+00 0. -1.
          6    1    1    2  501    0  0.28014880874E+02 -0.45168649601E+02 -0.22986115232E+03  0.29196778898E+03  0.17200000000E+03 0. -1.
         -6    1    1    2    0  503 -0.28014880874E+02  0.45168649601E+02 -0.57656029029E+02  0.18903242616E+03  0.17200000000E+03 0.  1.
</event>
<event>
 4    1  0.4394643E+000  0.2642597E+03  0.7818608E-02  0.1104611E+00
         21   -1    0    0  501  502  0.00000000000E+00  0.00000000000E+00  0.45356086879E+02  0.45356086879E+02  0.00000000000E+00 0.  1.
         21   -1    0    0  502  503 -0.00000000000E+00 -0.00000000000E+00 -0.16318263777E+04  0.16318263777E+04  0.00000000000E+00 0. -1.
          6    1    1    2  501    0  0.10982076249E+03 -0.16789461366E+03 -0.59394459955E+03  0.65007952476E+03  0.17200000000E+03 0. -1.
         -6    1    1    2    0  503 -0.10982076249E+03  0.16789461366E+03 -0.99252569129E+03  0.10271029398E+04  0.17200000000E+03 0.  1.
</event>
<event>
 4    1  0.4394643E+000  0.1750798E+03  0.7818608E-02  0.1172652E+00
         21   -1    0    0  501  502  0.00000000000E+00  0.00000000000E+00  0.10467066130E+03  0.10467066130E+03  0.00000000000E+00 0. -1.
         21   -1    0    0  502  503 -0.00000000000E+00 -0.00000000000E+00 -0.55098930613E+03  0.55098930613E+03  0.00000000000E+00 0. -1.
          6    1    1    2  501    0 -0.32641307526E+02  0.18688052010E+01  0.12304185470E+01  0.17508415496E+03  0.17200000000E+03 0. -1.
         -6    1    1    2    0  503  0.32641307526E+02 -0.18688052010E+01 -0.44754906338E+03  0.48057581246E+03  0.17200000000E+03 0. -1.
</event>
<event>
 4    1  0.4394643E+000  0.1906943E+03  0.7818608E-02  0.1157837E+00
         21   -1    0    0  501  502  0.00000000000E+00  0.00000000000E+00  0.49950896661E+03  0.49950896661E+03  0.00000000000E+00 0. -1.
         21   -1    0    0  502  503 -0.00000000000E+00 -0.00000000000E+00 -0.10319333153E+03  0.10319333153E+03  0.00000000000E+00 0.  1.
          6    1    1    2  501    0  0.73111604175E+02  0.37881649929E+02  0.36170201511E+03  0.40889200751E+03  0.17200000000E+03 0. -1.
         -6    1    1    2    0  503 -0.73111604175E+02 -0.37881649929E+02  0.34613619965E+02  0.19381029063E+03  0.17200000000E+03 0.  1.
</event>
<event>
 4    1  0.4394643E+000  0.2273974E+03  0.7818608E-02  0.1128485E+00
         21   -1    0    0  501  502  0.00000000000E+00  0.00000000000E+00  0.64918245991E+03  0.64918245991E+03  0.00000000000E+00 0.  1.
         21   -1    0    0  502  503 -0.00000000000E+00 -0.00000000000E+00 -0.83959402854E+02  0.83959402854E+02  0.00000000000E+00 0.  1.
          6    1    1    2  501    0  0.37429538603E+02 -0.14396039852E+03  0.36562762924E+03  0.43057302513E+03  0.17200000000E+03 0.  1.
         -6    1    1    2    0  503 -0.37429538603E+02  0.14396039852E+03  0.19959542781E+03  0.30256883763E+03  0.17200000000E+03 0.  1.
</event>
<event>
 4    1  0.4394643E+000  0.3007627E+03  0.7818608E-02  0.1084860E+00
         21   -1    0    0  501  502  0.00000000000E+00  0.00000000000E+00  0.43668365584E+03  0.43668365584E+03  0.00000000000E+00 0.  1.
         21   -1    0    0  502  503 -0.00000000000E+00 -0.00000000000E+00 -0.20744862427E+03  0.20744862427E+03  0.00000000000E+00 0. -1.
          6    1    1    2  501    0  0.14007926748E+03  0.20310593344E+03  0.10236071888E+03  0.31770416766E+03  0.17200000000E+03 0.  1.
         -6    1    1    2    0  503 -0.14007926748E+03 -0.20310593344E+03  0.12687431269E+03  0.32642811245E+03  0.17200000000E+03 0.  1.
</event>
<event>
 4    1  0.4394643E+000  0.1928115E+03  0.7818608E-02  0.1155950E+00
         21   -1    0    0  501  502  0.00000000000E+00  0.00000000000E+00  0.21376750188E+04  0.21376750188E+04  0.00000000000E+00 0.  1.
         21   -1    0    0  502  503 -0.00000000000E+00 -0.00000000000E+00 -0.26102131943E+02  0.26102131943E+02  0.00000000000E+00 0.  1.
          6    1    1    2  501    0 -0.61714376976E+02 -0.61511047626E+02  0.16807896197E+04  0.16918126430E+04  0.17200000000E+03 0.  1.
         -6    1    1    2    0  503  0.61714376976E+02  0.61511047626E+02  0.43078326708E+03  0.47196450767E+03  0.17200000000E+03 0.  1.
</event>
<event>
 4    1  0.4394643E+000  0.1872843E+03  0.7818608E-02  0.1160934E+00
         21   -1    0    0  503  502  0.00000000000E+00  0.00000000000E+00  0.33156086631E+03  0.33156086631E+03  0.00000000000E+00 0.  1.
         21   -1    0    0  501  503 -0.00000000000E+00 -0.00000000000E+00 -0.13921650171E+03  0.13921650171E+03  0.00000000000E+00 0.  1.
          6    1    1    2  501    0 -0.66736801649E+02  0.32211751422E+02 -0.19171560859E+02  0.18826297132E+03  0.17200000000E+03 0.  1.
         -6    1    1    2    0  502  0.66736801649E+02 -0.32211751422E+02  0.21151592546E+03  0.28251439671E+03  0.17200000000E+03 0.  1.
</event>
<event>
 4    1  0.4394643E+000  0.1917630E+03  0.7818608E-02  0.1156881E+00
         21   -1    0    0  501  502  0.00000000000E+00  0.00000000000E+00  0.21361508164E+03  0.21361508164E+03  0.00000000000E+00 0. -1.
         21   -1    0    0  502  503 -0.00000000000E+00 -0.00000000000E+00 -0.22765273245E+03  0.22765273245E+03  0.00000000000E+00 0.  1.
          6    1    1    2  501    0  0.27703708392E+02 -0.80134517946E+02  0.10192626247E+03  0.21716813626E+03  0.17200000000E+03 0. -1.
         -6    1    1    2    0  503 -0.27703708392E+02  0.80134517946E+02 -0.11596391328E+03  0.22409967784E+03  0.17200000000E+03 0.  1.
</event>
<event>
 4    1  0.4394643E+000  0.2384084E+03  0.7818608E-02  0.1120858E+00
         21   -1    0    0  501  502  0.00000000000E+00  0.00000000000E+00  0.29846419534E+03  0.29846419534E+03  0.00000000000E+00 0.  1.
         21   -1    0    0  502  503 -0.00000000000E+00 -0.00000000000E+00 -0.23011340359E+03  0.23011340359E+03  0.00000000000E+00 0. -1.
          6    1    1    2  501    0  0.13403274144E+03  0.96383459215E+02  0.14391803450E+03  0.27847970777E+03  0.17200000000E+03 0.  1.
         -6    1    1    2    0  503 -0.13403274144E+03 -0.96383459215E+02 -0.75567242737E+02  0.25009789116E+03  0.17200000000E+03 0. -1.
</event>
<event>
 4    1  0.4394643E+000  0.2139986E+03  0.7818608E-02  0.1138438E+00
         21   -1    0    0  501  502  0.00000000000E+00  0.00000000000E+00  0.27438665276E+03  0.27438665276E+03  0.00000000000E+00 0.  1.
         21   -1    0    0  502  503 -0.00000000000E+00 -0.00000000000E+00 -0.18463767175E+03  0.18463767175E+03  0.00000000000E+00 0. -1.
          6    1    1    2  501    0  0.95327646562E+01  0.12696671686E+03  0.11600910528E+03  0.24342048661E+03  0.17200000000E+03 0.  1.
         -6    1    1    2    0  503 -0.95327646562E+01 -0.12696671686E+03 -0.26260124268E+02  0.21560383790E+03  0.17200000000E+03 0. -1.
</event>
<event>
 4    1  0.4394643E+000  0.2834915E+03  0.7818608E-02  0.1093797E+00
         21   -1    0    0  501  502  0.00000000000E+00  0.00000000000E+00  0.52970897999E+03  0.52970897999E+03  0.00000000000E+00 0. -1.
         21   -1    0    0  502  503 -0.00000000000E+00 -0.00000000000E+00 -0.26514908066E+03  0.26514908066E+03  0.00000000000E+00 0.  1.
          6    1    1    2  501    0 -0.71099723837E+02  0.21384161492E+03  0.39222219914E+03  0.48394799359E+03  0.17200000000E+03 0. -1.
         -6    1    1    2    0  503  0.71099723837E+02 -0.21384161492E+03 -0.12766229981E+03  0.31091006705E+03  0.17200000000E+03 0.  1.
</event>
<event>
 4    1  0.4394643E+000  0.3466251E+03  0.7818608E-02  0.1064009E+00
         21   -1    0    0  503  502  0.00000000000E+00  0.00000000000E+00  0.39262006197E+03  0.39262006197E+03  0.00000000000E+00 0. -1.
         21   -1    0    0  501  503 -0.00000000000E+00 -0.00000000000E+00 -0.33652448303E+03  0.33652448303E+03  0.00000000000E+00 0.  1.
          6    1    1    2  501    0 -0.22421628875E+03  0.20072868258E+03 -0.81718453291E+02  0.35612758073E+03  0.17200000000E+03 0.  1.
         -6    1    1    2    0  502  0.22421628875E+03 -0.20072868258E+03  0.13781403223E+03  0.37301696427E+03  0.17200000000E+03 0. -1.
</event>
<event>
 4    1  0.4394643E+000  0.2603801E+03  0.7818608E-02  0.1106915E+00
         21   -1    0    0  501  502  0.00000000000E+00  0.00000000000E+00  0.51944554812E+03  0.51944554812E+03  0.00000000000E+00 0. -1.
         21   -1    0    0  502  503 -0.00000000000E+00 -0.00000000000E+00 -0.13052251795E+03  0.13052251795E+03  0.00000000000E+00 0.  1.
          6    1    1    2  501    0 -0.11426816105E+03  0.15860823527E+03  0.19290466247E+03  0.32405245521E+03  0.17200000000E+03 0.  1.
         -6    1    1    2    0  503  0.11426816105E+03 -0.15860823527E+03  0.19601836770E+03  0.32591561086E+03  0.17200000000E+03 0.  1.
</event>
<event>
 4    1  0.4394643E+000  0.3024657E+03  0.7818608E-02  0.1084015E+00
         21   -1    0    0  501  502  0.00000000000E+00  0.00000000000E+00  0.95476950752E+03  0.95476950752E+03  0.00000000000E+00 0. -1.
         21   -1    0    0  502  503 -0.00000000000E+00 -0.00000000000E+00 -0.11085453350E+03  0.11085453350E+03  0.00000000000E+00 0.  1.
          6    1    1    2  501    0  0.96997134471E+02  0.22911359089E+03  0.22573430239E+03  0.37741417157E+03  0.17200000000E+03 0.  1.
         -6    1    1    2    0  503 -0.96997134471E+02 -0.22911359089E+03  0.61818067163E+03  0.68820986945E+03  0.17200000000E+03 0. -1.
</event>
<event>
 4    1  0.4394643E+000  0.2757507E+03  0.7818608E-02  0.1098033E+00
         21   -1    0    0  503  502  0.00000000000E+00  0.00000000000E+00  0.25562846254E+03  0.25562846254E+03  0.00000000000E+00 0. -1.
         21   -1    0    0  501  503 -0.00000000000E+00 -0.00000000000E+00 -0.30360957407E+03  0.30360957407E+03  0.00000000000E+00 0.  1.
          6    1    1    2  501    0 -0.21071237358E+03  0.45329121942E+02  0.15814953694E+02  0.27620381322E+03  0.17200000000E+03 0. -1.
         -6    1    1    2    0  502  0.21071237358E+03 -0.45329121942E+02 -0.63796065231E+02  0.28303422340E+03  0.17200000000E+03 0. -1.
</event>
<event>
 4    1  0.4394643E+000  0.1867775E+03  0.7818608E-02  0.1161400E+00
         21   -1    0    0  501  502  0.00000000000E+00  0.00000000000E+00  0.12900338050E+04  0.12900338050E+04  0.00000000000E+00 0.  1.
         21   -1    0    0  502  503 -0.00000000000E+00 -0.00000000000E+00 -0.41752420485E+02  0.41752420485E+02  0.00000000000E+00 0.  1.
          6    1    1    2  501    0  0.42485488227E+02 -0.59133849076E+02  0.10193870086E+04  0.10363569376E+04  0.17200000000E+03 0.  1.
         -6    1    1    2    0  503 -0.42485488227E+02  0.59133849076E+02  0.22889437594E+03  0.29542928791E+03  0.17200000000E+03 0.  1.
</event>
<event>
 4    1  0.4394643E+000  0.1912796E+03  0.7818608E-02  0.1157312E+00
         21   -1    0    0  501  502  0.00000000000E+00  0.00000000000E+00  0.23572232236E+02  0.23572232236E+02  0.00000000000E+00 0. -1.
         21   -1    0    0  502  503 -0.00000000000E+00 -0.00000000000E+00 -0.15524195157E+04  0.15524195157E+04  0.00000000000E+00 0.  1.
          6    1    1    2  501    0  0.78592456509E+02  0.28759495801E+02 -0.77460623961E+03  0.79787386801E+03  0.17200000000E+03 0.  1.
         -6    1    1    2    0  503 -0.78592456509E+02 -0.28759495801E+02 -0.75424104388E+03  0.77811787994E+03  0.17200000000E+03 0. -1.
</event>
<event>
 4    1  0.4394643E+000  0.1844951E+03  0.7818608E-02  0.1163522E+00
         21   -1    0    0  501  502  0.00000000000E+00  0.00000000000E+00  0.20453800995E+03  0.20453800995E+03  0.00000000000E+00 0.  1.
         21   -1    0    0  502  503 -0.00000000000E+00 -0.00000000000E+00 -0.26529331329E+03  0.26529331329E+03  0.00000000000E+00 0.  1.
          6    1    1    2  501    0  0.59815954925E+02  0.29605636244E+02  0.11303803894E+03  0.21637014676E+03  0.17200000000E+03 0.  1.
         -6    1    1    2    0  503 -0.59815954925E+02 -0.29605636244E+02 -0.17379334229E+03  0.25346117648E+03  0.17200000000E+03 0.  1.
</event>
<event>
 4    1  0.4394643E+000  0.2166477E+03  0.7818608E-02  0.1136407E+00
         21   -1    0    0  501  502  0.00000000000E+00  0.00000000000E+00  0.42096129929E+03  0.42096129929E+03  0.00000000000E+00 0. -1.
         21   -1    0    0  502  503 -0.00000000000E+00 -0.00000000000E+00 -0.36414848245E+03  0.36414848245E+03  0.00000000000E+00 0.  1.
          6    1    1    2  501    0  0.89961472971E+02 -0.96224457387E+02  0.35538662116E+03  0.41621612573E+03  0.17200000000E+03 0. -1.
         -6    1    1    2    0  503 -0.89961472971E+02  0.96224457387E+02 -0.29857380432E+03  0.36889365601E+03  0.17200000000E+03 0.  1.
</event>
<event>
 4    1  0.4394643E+000  0.2503877E+03  0.7818608E-02  0.1113060E+00
         21   -1    0    0  503  502  0.00000000000E+00  0.00000000000E+00  0.52841819932E+02  0.52841819932E+02  0.00000000000E+00 0.  1.
         21   -1    0    0  501  503 -0.00000000000E+00 -0.00000000000E+00 -0.12287049836E+04  0.12287049836E+04  0.00000000000E+00 0. -1.
          6    1    1    2  501    0  0.47799633577E+01  0.18189869980E+03 -0.46909823528E+03  0.53173972899E+03  0.17200000000E+03 0.  1.
         -6    1    1    2    0  502 -0.47799633577E+01 -0.18189869980E+03 -0.70676492838E+03  0.74980707454E+03  0.17200000000E+03 0. -1.
</event>
<event>
 4    1  0.4394643E+000  0.1738537E+03  0.7818608E-02  0.1173888E+00
         21   -1    0    0  501  502  0.00000000000E+00  0.00000000000E+00  0.81447756909E+03  0.81447756909E+03  0.00000000000E+00 0.  1.
         21   -1    0    0  502  503 -0.00000000000E+00 -0.00000000000E+00 -0.40818552736E+02  0.40818552736E+02  0.00000000000E+00 0.  1.
          6    1    1    2  501    0  0.12564121879E+01 -0.25288705254E+02  0.25792389585E+03  0.31104635223E+03  0.17200000000E+03 0.  1.
         -6    1    1    2    0  503 -0.12564121879E+01  0.25288705254E+02  0.51573512050E+03  0.54424976959E+03  0.17200000000E+03 0.  1.
</event>
<event>
 4    1  0.4394643E+000  0.2028396E+03  0.7818608E-02  0.1147365E+00
         21   -1    0    0  501  502  0.00000000000E+00  0.00000000000E+00  0.46567228335E+02  0.46567228335E+02  0.00000000000E+00 0.  1.
         21   -1    0    0  502  503 -0.00000000000E+00 -0.00000000000E+00 -0.92578945089E+03  0.92578945089E+03  0.00000000000E+00 0. -1.
          6    1    1    2  501    0 -0.71406825757E+02  0.80380157428E+02 -0.54347427672E+03  0.58009326313E+03  0.17200000000E+03 0.  1.
         -6    1    1    2    0  503  0.71406825757E+02 -0.80380157428E+02 -0.33574794583E+03  0.39226341608E+03  0.17200000000E+03 0. -1.
</event>
<event>
 4    1  0.4394643E+000  0.2140045E+03  0.7818608E-02  0.1138434E+00
         21   -1    0    0  503  502  0.00000000000E+00  0.00000000000E+00  0.67317089831E+03  0.67317089831E+03  0.00000000000E+00 0. -1.
         21   -1    0    0  501  503 -0.00000000000E+00 -0.00000000000E+00 -0.11971175041E+03  0.11971175041E+03  0.00000000000E+00 0.  1.
          6    1    1    2  501    0  0.12595411048E+03 -0.18694667996E+02  0.16254631807E+02  0.21462092538E+03  0.17200000000E+03 0.  1.
         -6    1    1    2    0  502 -0.12595411048E+03  0.18694667996E+02  0.53720451610E+03  0.57826172333E+03  0.17200000000E+03 0. -1.
</event>
<event>
 4    1  0.4394643E+000  0.1938911E+03  0.7818608E-02  0.1154998E+00
         21   -1    0    0  501  502  0.00000000000E+00  0.00000000000E+00  0.25626319758E+03  0.25626319758E+03  0.00000000000E+00 0.  1.
         21   -1    0    0  502  503 -0.00000000000E+00 -0.00000000000E+00 -0.14680404151E+03  0.14680404151E+03  0.00000000000E+00 0.  1.
          6    1    1    2  501    0  0.83486285759E+02  0.32245778894E+02  0.60100853385E+02  0.20299227262E+03  0.17200000000E+03 0.  1.
         -6    1    1    2    0  503 -0.83486285759E+02 -0.32245778894E+02  0.49358302686E+02  0.20007496648E+03  0.17200000000E+03 0.  1.
</event>
<event>
 4    1  0.4394643E+000  0.2291556E+03  0.7818608E-02  0.1127236E+00
         21   -1    0    0  503  502  0.00000000000E+00  0.00000000000E+00  0.60282941077E+03  0.60282941077E+03  0.00000000000E+00 0.  1.
         21   -1    0    0  501  503 -0.00000000000E+00 -0.00000000000E+00 -0.41042481845E+03  0.41042481845E+03  0.00000000000E+00 0.  1.
          6    1    1    2  501    0  0.14930315858E+03 -0.25235682117E+02 -0.35345810827E+03  0.42124210036E+03  0.17200000000E+03 0.  1.
         -6    1    1    2    0  502 -0.14930315858E+03  0.25235682117E+02  0.54586270059E+03  0.59201212885E+03  0.17200000000E+03 0.  1.
</event>
<event>
 4    1  0.4394643E+000  0.2061148E+03  0.7818608E-02  0.1144680E+00
         21   -1    0    0  503  502  0.00000000000E+00  0.00000000000E+00  0.23961484362E+03  0.23961484362E+03  0.00000000000E+00 0. -1.
         21   -1    0    0  501  503 -0.00000000000E+00 -0.00000000000E+00 -0.66627660139E+03  0.66627660139E+03  0.00000000000E+00 0. -1.
          6    1    1    2  501    0  0.20388489197E+01 -0.11355688245E+03 -0.60135939426E+03  0.63570153651E+03  0.17200000000E+03 0. -1.
         -6    1    1    2    0  502 -0.20388489197E+01  0.11355688245E+03  0.17469763649E+03  0.27018990849E+03  0.17200000000E+03 0. -1.
</event>
<event>
 4    1  0.4394643E+000  0.1787073E+03  0.7818608E-02  0.1169060E+00
         21   -1    0    0  501  502  0.00000000000E+00  0.00000000000E+00  0.97719741355E+02  0.97719741355E+02  0.00000000000E+00 0.  1.
         21   -1    0    0  502  503 -0.00000000000E+00 -0.00000000000E+00 -0.61820621960E+03  0.61820621960E+03  0.00000000000E+00 0. -1.
          6    1    1    2  501    0 -0.78623434687E+01  0.47858926745E+02 -0.14484178310E+02  0.17929329250E+03  0.17200000000E+03 0.  1.
         -6    1    1    2    0  503  0.78623434687E+01 -0.47858926745E+02 -0.50600229994E+03  0.53663266846E+03  0.17200000000E+03 0. -1.
</event>
<event>
 4    1  0.4394643E+000  0.1723307E+03  0.7818608E-02  0.1175439E+00
         21   -1    0    0  503  502  0.00000000000E+00  0.00000000000E+00  0.43889497852E+03  0.43889497852E+03  0.00000000000E+00 0. -1.
         21   -1    0    0  501  503 -0.00000000000E+00 -0.00000000000E+00 -0.72609470538E+02  0.72609470538E+02  0.00000000000E+00 0. -1.
          6    1    1    2  501    0 -0.65697865186E+01  0.84085337541E+01  0.11640386111E+03  0.20796087232E+03  0.17200000000E+03 0.  1.
         -6    1    1    2    0  502  0.65697865186E+01 -0.84085337541E+01  0.24988164688E+03  0.30354357674E+03  0.17200000000E+03 0.  1.
</event>
<event>
 4    1  0.4394643E+000  0.1776901E+03  0.7818608E-02  0.1170057E+00
         21   -1    0    0  501  502  0.00000000000E+00  0.00000000000E+00  0.47045513021E+03  0.47045513021E+03  0.00000000000E+00 0. -1.
         21   -1    0    0  502  503 -0.00000000000E+00 -0.00000000000E+00 -0.67115143479E+02  0.67115143479E+02  0.00000000000E+00 0. -1.
          6    1    1    2  501    0  0.39728007997E+02 -0.20284594863E+02  0.20309232366E+03  0.26985231394E+03  0.17200000000E+03 0. -1.
         -6    1    1    2    0  503 -0.39728007997E+02  0.20284594863E+02  0.20024766307E+03  0.26771795975E+03  0.17200000000E+03 0. -1.
</event>
<event>
 4    1  0.4394643E+000  0.1780940E+03  0.7818608E-02  0.1169660E+00
         21   -1    0    0  501  502  0.00000000000E+00  0.00000000000E+00  0.80443582190E+02  0.80443582190E+02  0.00000000000E+00 0.  1.
         21   -1    0    0  502  503 -0.00000000000E+00 -0.00000000000E+00 -0.66438009526E+03  0.66438009526E+03  0.00000000000E+00 0.  1.
          6    1    1    2  501    0  0.26232306393E+02 -0.38017798711E+02 -0.54516367640E+02  0.18625123156E+03  0.17200000000E+03 0.  1.
         -6    1    1    2    0  503 -0.26232306393E+02  0.38017798711E+02 -0.52942014543E+03  0.55857244588E+03  0.17200000000E+03 0.  1.
</event>
<event>
 4    1  0.4394643E+000  0.2123008E+03  0.7818608E-02  0.1139757E+00
         21   -1    0    0  501  502  0.00000000000E+00  0.00000000000E+00  0.20896335353E+03  0.20896335353E+03  0.00000000000E+00 0.  1.
         21   -1    0    0  502  503 -0.00000000000E+00 -0.00000000000E+00 -0.32449775910E+03  0.32449775910E+03  0.00000000000E+00 0.  1.
          6    1    1    2  501    0 -0.11278252017E+03 -0.52609167527E+02  0.96684904585E+02  0.23328007231E+03  0.17200000000E+03 0.  1.
         -6    1    1    2    0  503  0.11278252017E+03  0.52609167527E+02 -0.21221931015E+03  0.30018104031E+03  0.17200000000E+03 0.  1.
</event>
<event>
 4    1  0.4394643E+000  0.1780041E+03  0.7818608E-02  0.1169749E+00
         21   -1    0    0  503  502  0.00000000000E+00  0.00000000000E+00  0.33155482788E+02  0.33155482788E+02  0.00000000000E+00 0.  1.
         21   -1    0    0  501  503 -0.00000000000E+00 -0.00000000000E+00 -0.10758512852E+04  0.10758512852E+04  0.00000000000E+00 0.  1.
          6    1    1    2  501    0 -0.28909371235E+02 -0.35576751903E+02 -0.70668388814E+03  0.72875755555E+03  0.17200000000E+03 0.  1.
         -6    1    1    2    0  502  0.28909371235E+02  0.35576751903E+02 -0.33601191425E+03  0.38024921241E+03  0.17200000000E+03 0.  1.
</event>
<event>
 4    1  0.4394643E+000  0.2408612E+03  0.7818608E-02  0.1119220E+00
         21   -1    0    0  501  502  0.00000000000E+00  0.00000000000E+00  0.25903073585E+02  0.25903073585E+02  0.00000000000E+00 0.  1.
         21   -1    0    0  502  503 -0.00000000000E+00 -0.00000000000E+00 -0.29068838819E+04  0.29068838819E+04  0.00000000000E+00 0.  1.
          6    1    1    2  501    0  0.10959892256E+02  0.16825579579E+03 -0.73794922093E+03  0.77626231696E+03  0.17200000000E+03 0.  1.
         -6    1    1    2    0  503 -0.10959892256E+02 -0.16825579579E+03 -0.21430315874E+04  0.21565246385E+04  0.17200000000E+03 0.  1.
</event>
<event>
 4    1  0.4394643E+000  0.2683341E+03  0.7818608E-02  0.1102237E+00
         21   -1    0    0  501  502  0.00000000000E+00  0.00000000000E+00  0.89591825979E+03  0.89591825979E+03  0.00000000000E+00 0. -1.
         21   -1    0    0  502  503 -0.00000000000E+00 -0.00000000000E+00 -0.21286518305E+03  0.21286518305E+03  0.00000000000E+00 0. -1.
          6    1    1    2  501    0 -0.51150577989E+02  0.19950642352E+03  0.77891535737E+03  0.82383998968E+03  0.17200000000E+03 0. -1.
         -6    1    1    2    0  503  0.51150577989E+02 -0.19950642352E+03 -0.95862280626E+02  0.28494345316E+03  0.17200000000E+03 0. -1.
</event>
<event>
 4    1  0.4394643E+000  0.2501709E+03  0.7818608E-02  0.1113197E+00
         21   -1    0    0  501  502  0.00000000000E+00  0.00000000000E+00  0.22180817567E+03  0.22180817567E+03  0.00000000000E+00 0.  1.
         21   -1    0    0  502  503 -0.00000000000E+00 -0.00000000000E+00 -0.29330817957E+03  0.29330817957E+03  0.00000000000E+00 0. -1.
          6    1    1    2  501    0  0.12012820966E+03 -0.13627436678E+03  0.14461925844E+02  0.25058858134E+03  0.17200000000E+03 0.  1.
         -6    1    1    2    0  503 -0.12012820966E+03  0.13627436678E+03 -0.85961929738E+02  0.26452777390E+03  0.17200000000E+03 0.  1.
</event>
<event>
 4    1  0.4394643E+000  0.2486311E+03  0.7818608E-02  0.1114173E+00
         21   -1    0    0  501  502  0.00000000000E+00  0.00000000000E+00  0.30159432106E+03  0.30159432106E+03  0.00000000000E+00 0. -1.
         21   -1    0    0  502  503 -0.00000000000E+00 -0.00000000000E+00 -0.20647735047E+03  0.20647735047E+03  0.00000000000E+00 0.  1.
          6    1    1    2  501    0 -0.13702138087E+03 -0.11601099350E+03  0.25844144906E+02  0.24997065679E+03  0.17200000000E+03 0. -1.
         -6    1    1    2    0  503  0.13702138087E+03  0.11601099350E+03  0.69272825683E+02  0.25810101474E+03  0.17200000000E+03 0. -1.
</event>
<event>
 4    1  0.4394643E+000  0.2593505E+03  0.7818608E-02  0.1107534E+00
         21   -1    0    0  503  502  0.00000000000E+00  0.00000000000E+00  0.20763418376E+03  0.20763418376E+03  0.00000000000E+00 0. -1.
         21   -1    0    0  501  503 -0.00000000000E+00 -0.00000000000E+00 -0.43733465754E+03  0.43733465754E+03  0.00000000000E+00 0.  1.
          6    1    1    2  501    0 -0.19040837435E+03 -0.37727067444E+02 -0.27905386483E+03  0.38096422420E+03  0.17200000000E+03 0.  1.
         -6    1    1    2    0  502  0.19040837435E+03  0.37727067444E+02  0.49353391052E+02  0.26400461710E+03  0.17200000000E+03 0. -1.
</event>
<event>
 4    1  0.4394643E+000  0.1974698E+03  0.7818608E-02  0.1151891E+00
         21   -1    0    0  503  502  0.00000000000E+00  0.00000000000E+00  0.92852623467E+03  0.92852623467E+03  0.00000000000E+00 0. -1.
         21   -1    0    0  501  503 -0.00000000000E+00 -0.00000000000E+00 -0.12652361057E+03  0.12652361057E+03  0.00000000000E+00 0.  1.
          6    1    1    2  501    0 -0.88744221601E+02 -0.39176375017E+02 -0.30176757027E+02  0.19976226343E+03  0.17200000000E+03 0.  1.
         -6    1    1    2    0  502  0.88744221601E+02  0.39176375017E+02  0.83217938113E+03  0.85528758181E+03  0.17200000000E+03 0. -1.
</event>
<event>
 4    1  0.4394643E+000  0.1917057E+03  0.7818608E-02  0.1156932E+00
         21   -1    0    0  501  502  0.00000000000E+00  0.00000000000E+00  0.64320676311E+03  0.64320676311E+03  0.00000000000E+00 0.  1.
         21   -1    0    0  502  503 -0.00000000000E+00 -0.00000000000E+00 -0.91592852474E+02  0.91592852474E+02  0.00000000000E+00 0.  1.
          6    1    1    2  501    0  0.65904034313E+02 -0.53138908141E+02  0.50114673424E+03  0.53656233052E+03  0.17200000000E+03 0.  1.
         -6    1    1    2    0  503 -0.65904034313E+02  0.53138908141E+02  0.50467176405E+02  0.19823728507E+03  0.17200000000E+03 0.  1.
</event>
<event>
 4    1  0.4394643E+000  0.1752525E+03  0.7818608E-02  0.1172478E+00
         21   -1    0    0  503  502  0.00000000000E+00  0.00000000000E+00  0.28958689769E+02  0.28958689769E+02  0.00000000000E+00 0.  1.
         21   -1    0    0  501  503 -0.00000000000E+00 -0.00000000000E+00 -0.10628604746E+04  0.10628604746E+04  0.00000000000E+00 0.  1.
          6    1    1    2  501    0  0.27705397627E+02  0.19021921412E+02 -0.49174366129E+03  0.52203951093E+03  0.17200000000E+03 0.  1.
         -6    1    1    2    0  502 -0.27705397627E+02 -0.19021921412E+02 -0.54215812354E+03  0.56977965344E+03  0.17200000000E+03 0.  1.
</event>
<event>
 4    1  0.4394643E+000  0.1757677E+03  0.7818608E-02  0.1171963E+00
         21   -1    0    0  501  502  0.00000000000E+00  0.00000000000E+00  0.50233776267E+02  0.50233776267E+02  0.00000000000E+00 0.  1.
         21   -1    0    0  502  503 -0.00000000000E+00 -0.00000000000E+00 -0.10790663948E+04  0.10790663948E+04  0.00000000000E+00 0.  1.
          6    1    1    2  501    0 -0.28451359178E+02 -0.22379017085E+02 -0.14412761032E+03  0.22730391176E+03  0.17200000000E+03 0.  1.
         -6    1    1    2    0  503  0.28451359178E+02  0.22379017085E+02 -0.88470500818E+03  0.90199625928E+03  0.17200000000E+03 0.  1.
</event>
<event>
 4    1  0.4394643E+000  0.1766784E+03  0.7818608E-02  0.1171057E+00
         21   -1    0    0  501  502  0.00000000000E+00  0.00000000000E+00  0.52674541882E+02  0.52674541882E+02  0.00000000000E+00 0.  1.
         21   -1    0    0  502  503 -0.00000000000E+00 -0.00000000000E+00 -0.93435250694E+03  0.93435250694E+03  0.00000000000E+00 0.  1.
          6    1    1    2  501    0  0.34113278078E+02 -0.21622379278E+02 -0.14237233867E+03  0.22690334031E+03  0.17200000000E+03 0.  1.
         -6    1    1    2    0  503 -0.34113278078E+02  0.21622379278E+02 -0.73930562639E+03  0.76012370851E+03  0.17200000000E+03 0.  1.
</event>
<event>
 4    1  0.4394643E+000  0.1724617E+03  0.7818608E-02  0.1175305E+00
         21   -1    0    0  503  502  0.00000000000E+00  0.00000000000E+00  0.94302916901E+02  0.94302916901E+02  0.00000000000E+00 0. -1.
         21   -1    0    0  501  503 -0.00000000000E+00 -0.00000000000E+00 -0.51818229280E+03  0.51818229280E+03  0.00000000000E+00 0. -1.
          6    1    1    2  501    0  0.10649738278E+02 -0.67538186147E+01 -0.40351545730E+03  0.43882542687E+03  0.17200000000E+03 0. -1.
         -6    1    1    2    0  502 -0.10649738278E+02  0.67538186147E+01 -0.20363918602E+02  0.17365978283E+03  0.17200000000E+03 0. -1.
</event>
<event>
 4    1  0.4394643E+000  0.1763642E+03  0.7818608E-02  0.1171369E+00
         21   -1    0    0  503  502  0.00000000000E+00  0.00000000000E+00  0.40065311241E+03  0.40065311241E+03  0.00000000000E+00 0. -1.
         21   -1    0    0  501  503 -0.00000000000E+00 -0.00000000000E+00 -0.79363072633E+02  0.79363072633E+02  0.00000000000E+00 0. -1.
          6    1    1    2  501    0 -0.14583704308E+02  0.36161628552E+02  0.19606998645E+03  0.26371914492E+03  0.17200000000E+03 0.  1.
         -6    1    1    2    0  502  0.14583704308E+02 -0.36161628552E+02  0.12522005333E+03  0.21629704012E+03  0.17200000000E+03 0.  1.
</event>
<event>
 4    1  0.4394643E+000  0.1928885E+03  0.7818608E-02  0.1155882E+00
         21   -1    0    0  501  502  0.00000000000E+00  0.00000000000E+00  0.45896975370E+02  0.45896975370E+02  0.00000000000E+00 0. -1.
         21   -1    0    0  502  503 -0.00000000000E+00 -0.00000000000E+00 -0.17249636816E+04  0.17249636816E+04  0.00000000000E+00 0. -1.
          6    1    1    2  501    0  0.61739036484E+02  0.61727442895E+02 -0.19489805740E+03  0.27421020880E+03  0.17200000000E+03 0. -1.
         -6    1    1    2    0  503 -0.61739036484E+02 -0.61727442895E+02 -0.14841686488E+04  0.14966504482E+04  0.17200000000E+03 0. -1.
</event>
<event>
 4    1  0.4394643E+000  0.2038508E+03  0.7818608E-02  0.1146530E+00
         21   -1    0    0  503  502  0.00000000000E+00  0.00000000000E+00  0.23333325832E+03  0.23333325832E+03  0.00000000000E+00 0. -1.
         21   -1    0    0  501  503 -0.00000000000E+00 -0.00000000000E+00 -0.19549005406E+03  0.19549005406E+03  0.00000000000E+00 0.  1.
          6    1    1    2  501    0 -0.62231895363E+02  0.89990833929E+02 -0.45039579449E+02  0.20876714950E+03  0.17200000000E+03 0.  1.
         -6    1    1    2    0  502  0.62231895363E+02 -0.89990833929E+02  0.82882783710E+02  0.22005616289E+03  0.17200000000E+03 0. -1.
</event>
<event>
 4    1  0.4394643E+000  0.2668956E+03  0.7818608E-02  0.1103070E+00
         21   -1    0    0  501  502  0.00000000000E+00  0.00000000000E+00  0.85494820210E+02  0.85494820210E+02  0.00000000000E+00 0. -1.
         21   -1    0    0  502  503 -0.00000000000E+00 -0.00000000000E+00 -0.20728613578E+04  0.20728613578E+04  0.00000000000E+00 0. -1.
          6    1    1    2  501    0 -0.45912264846E+02  0.19885000237E+03 -0.15911547210E+03  0.31072655658E+03  0.17200000000E+03 0. -1.
         -6    1    1    2    0  503  0.45912264846E+02 -0.19885000237E+03 -0.18282510654E+04  0.18476296214E+04  0.17200000000E+03 0. -1.
</event>
<event>
 4    1  0.4394643E+000  0.1823575E+03  0.7818608E-02  0.1165541E+00
         21   -1    0    0  503  502  0.00000000000E+00  0.00000000000E+00  0.24103349344E+03  0.24103349344E+03  0.00000000000E+00 0. -1.
         21   -1    0    0  501  503 -0.00000000000E+00 -0.00000000000E+00 -0.14063756406E+03  0.14063756406E+03  0.00000000000E+00 0. -1.
          6    1    1    2  501    0 -0.55324828946E+02 -0.24686236781E+02  0.23892132711E+02  0.18391596176E+03  0.17200000000E+03 0.  1.
         -6    1    1    2    0  502  0.55324828946E+02  0.24686236781E+02  0.76503796670E+02  0.19775509574E+03  0.17200000000E+03 0.  1.
</event>
<event>
 4    1  0.4394643E+000  0.2295871E+03  0.7818608E-02  0.1126931E+00
         21   -1    0    0  501  502  0.00000000000E+00  0.00000000000E+00  0.10551858459E+03  0.10551858459E+03  0.00000000000E+00 0.  1.
         21   -1    0    0  502  503 -0.00000000000E+00 -0.00000000000E+00 -0.53892689020E+03  0.53892689020E+03  0.00000000000E+00 0.  1.
          6    1    1    2  501    0 -0.94131315821E+02 -0.11943846966E+03 -0.30381922121E+03  0.38081015195E+03  0.17200000000E+03 0.  1.
         -6    1    1    2    0  503  0.94131315821E+02  0.11943846966E+03 -0.12958908439E+03  0.26363532283E+03  0.17200000000E+03 0.  1.
</event>
<event>
 4    1  0.4394643E+000  0.1787283E+03  0.7818608E-02  0.1169039E+00
         21   -1    0    0  501  502  0.00000000000E+00  0.00000000000E+00  0.26301234282E+03  0.26301234282E+03  0.00000000000E+00 0.  1.
         21   -1    0    0  502  503 -0.00000000000E+00 -0.00000000000E+00 -0.12365166266E+03  0.12365166266E+03  0.00000000000E+00 0.  1.
          6    1    1    2  501    0 -0.46352261010E+02 -0.14535750046E+02  0.95456290912E+02  0.20262212023E+03  0.17200000000E+03 0.  1.
         -6    1    1    2    0  503  0.46352261010E+02  0.14535750046E+02  0.43904389249E+02  0.18404188525E+03  0.17200000000E+03 0.  1.
</event>
<event>
 4    1  0.4394643E+000  0.2077550E+03  0.7818608E-02  0.1143356E+00
         21   -1    0    0  501  502  0.00000000000E+00  0.00000000000E+00  0.99543814162E+03  0.99543814162E+03  0.00000000000E+00 0.  1.
         21   -1    0    0  502  503 -0.00000000000E+00 -0.00000000000E+00 -0.76125041897E+02  0.76125041897E+02  0.00000000000E+00 0.  1.
          6    1    1    2  501    0  0.81050562349E+02 -0.83719406823E+02  0.81116017872E+03  0.83734280213E+03  0.17200000000E+03 0.  1.
         -6    1    1    2    0  503 -0.81050562349E+02  0.83719406823E+02  0.10815292100E+03  0.23422038139E+03  0.17200000000E+03 0.  1.
</event>
<event>
 4    1  0.4394643E+000  0.1829905E+03  0.7818608E-02  0.1164940E+00
         21   -1    0    0  503  502  0.00000000000E+00  0.00000000000E+00  0.86810257247E+02  0.86810257247E+02  0.00000000000E+00 0.  1.
         21   -1    0    0  501  503 -0.00000000000E+00 -0.00000000000E+00 -0.44119283019E+03  0.44119283019E+03  0.00000000000E+00 0.  1.
          6    1    1    2  501    0  0.25102380664E+02  0.57196038391E+02 -0.27079313515E+03  0.32682478236E+03  0.17200000000E+03 0.  1.
         -6    1    1    2    0  502 -0.25102380664E+02 -0.57196038391E+02 -0.83589437798E+02  0.20117830508E+03  0.17200000000E+03 0.  1.
</event>
<event>
 4    1  0.4394643E+000  0.1979621E+03  0.7818608E-02  0.1151470E+00
         21   -1    0    0  503  502  0.00000000000E+00  0.00000000000E+00  0.29209175436E+03  0.29209175436E+03  0.00000000000E+00 0. -1.
         21   -1    0    0  501  503 -0.00000000000E+00 -0.00000000000E+00 -0.13426943339E+03  0.13426943339E+03  0.00000000000E+00 0. -1.
          6    1    1    2  501    0 -0.96122496866E+02 -0.19116517705E+02  0.84809033229E+02  0.21536375686E+03  0.17200000000E+03 0. -1.
         -6    1    1    2    0  502  0.96122496866E+02  0.19116517705E+02  0.73013287744E+02  0.21099743089E+03  0.17200000000E+03 0. -1.
</event>
<event>
 4    1  0.4394643E+000  0.2969164E+03  0.7818608E-02  0.1086792E+00
         21   -1    0    0  503  502  0.00000000000E+00  0.00000000000E+00  0.21092433994E+03  0.21092433994E+03  0.00000000000E+00 0.  1.
         21   -1    0    0  501  503 -0.00000000000E+00 -0.00000000000E+00 -0.46027443387E+03  0.46027443387E+03  0.00000000000E+00 0.  1.
          6    1    1    2  501    0 -0.22578534731E+03  0.87156874696E+02 -0.22642231835E+03  0.37339846024E+03  0.17200000000E+03 0.  1.
         -6    1    1    2    0  502  0.22578534731E+03 -0.87156874696E+02 -0.22927775578E+02  0.29780031357E+03  0.17200000000E+03 0.  1.
</event>
<event>
 4    1  0.4394643E+000  0.2030912E+03  0.7818608E-02  0.1147157E+00
         21   -1    0    0  503  502  0.00000000000E+00  0.00000000000E+00  0.22816046835E+03  0.22816046835E+03  0.00000000000E+00 0. -1.
         21   -1    0    0  501  503 -0.00000000000E+00 -0.00000000000E+00 -0.39362124397E+03  0.39362124397E+03  0.00000000000E+00 0. -1.
          6    1    1    2  501    0  0.10602473770E+03 -0.20513476356E+02 -0.31134298809E+03  0.37172638318E+03  0.17200000000E+03 0. -1.
         -6    1    1    2    0  502 -0.10602473770E+03  0.20513476356E+02  0.14588221247E+03  0.25005532914E+03  0.17200000000E+03 0. -1.
</event>
<event>
 4    1  0.4394643E+000  0.2034079E+03  0.7818608E-02  0.1146895E+00
         21   -1    0    0  503  502  0.00000000000E+00  0.00000000000E+00  0.83292460897E+02  0.83292460897E+02  0.00000000000E+00 0. -1.
         21   -1    0    0  501  503 -0.00000000000E+00 -0.00000000000E+00 -0.51278282188E+03  0.51278282188E+03  0.00000000000E+00 0. -1.
          6    1    1    2  501    0  0.26932860933E+02  0.10519220757E+03 -0.26745983405E+03  0.33602015172E+03  0.17200000000E+03 0. -1.
         -6    1    1    2    0  502 -0.26932860933E+02 -0.10519220757E+03 -0.16203052694E+03  0.26005513106E+03  0.17200000000E+03 0. -1.
</event>
<event>
 4    1  0.4394643E+000  0.4377169E+03  0.7818608E-02  0.1031450E+00
         21   -1    0    0  503  502  0.00000000000E+00  0.00000000000E+00  0.10269530656E+03  0.10269530656E+03  0.00000000000E+00 0. -1.
         21   -1    0    0  501  503 -0.00000000000E+00 -0.00000000000E+00 -0.18862112944E+04  0.18862112944E+04  0.00000000000E+00 0.  1.
          6    1    1    2  501    0  0.24771315182E+02  0.40174426244E+03 -0.78799325182E+03  0.90140414653E+03  0.17200000000E+03 0. -1.
         -6    1    1    2    0  502 -0.24771315182E+02 -0.40174426244E+03 -0.99552273601E+03  0.10875024544E+04  0.17200000000E+03 0.  1.
</event>
<event>
 4    1  0.4394643E+000  0.2301818E+03  0.7818608E-02  0.1126512E+00
         21   -1    0    0  501  502  0.00000000000E+00  0.00000000000E+00  0.10121880866E+04  0.10121880866E+04  0.00000000000E+00 0. -1.
         21   -1    0    0  502  503 -0.00000000000E+00 -0.00000000000E+00 -0.54757164387E+02  0.54757164387E+02  0.00000000000E+00 0. -1.
          6    1    1    2  501    0 -0.78733882149E+02  0.13115124960E+03  0.36676295477E+03  0.43301124634E+03  0.17200000000E+03 0. -1.
         -6    1    1    2    0  503  0.78733882149E+02 -0.13115124960E+03  0.59066796740E+03  0.63393400460E+03  0.17200000000E+03 0. -1.
</event>
<event>
 4    1  0.4394643E+000  0.2091809E+03  0.7818608E-02  0.1142216E+00
         21   -1    0    0  503  502  0.00000000000E+00  0.00000000000E+00  0.97790219865E+02  0.97790219865E+02  0.00000000000E+00 0.  1.
         21   -1    0    0  501  503 -0.00000000000E+00 -0.00000000000E+00 -0.12766757075E+04  0.12766757075E+04  0.00000000000E+00 0. -1.
          6    1    1    2  501    0  0.96835665529E+02  0.69249505167E+02 -0.11433014365E+04  0.11622800071E+04  0.17200000000E+03 0. -1.
         -6    1    1    2    0  502 -0.96835665529E+02 -0.69249505167E+02 -0.35584051132E+02  0.21218592031E+03  0.17200000000E+03 0.  1.
</event>
<event>
 4    1  0.4394643E+000  0.1827689E+03  0.7818608E-02  0.1165150E+00
         21   -1    0    0  501  502  0.00000000000E+00  0.00000000000E+00  0.38655179090E+03  0.38655179090E+03  0.00000000000E+00 0. -1.
         21   -1    0    0  502  503 -0.00000000000E+00 -0.00000000000E+00 -0.12441830724E+03  0.12441830724E+03  0.00000000000E+00 0. -1.
          6    1    1    2  501    0  0.34298343914E+02  0.51420827671E+02  0.27226362203E+03  0.32792065778E+03  0.17200000000E+03 0. -1.
         -6    1    1    2    0  503 -0.34298343914E+02 -0.51420827671E+02 -0.10130138374E+02  0.18304944036E+03  0.17200000000E+03 0. -1.
</event>
<event>
 4    1  0.4394643E+000  0.1983813E+03  0.7818608E-02  0.1151112E+00
         21   -1    0    0  501  502  0.00000000000E+00  0.00000000000E+00  0.20668397650E+03  0.20668397650E+03  0.00000000000E+00 0.  1.
         21   -1    0    0  502  503 -0.00000000000E+00 -0.00000000000E+00 -0.51200697744E+03  0.51200697744E+03  0.00000000000E+00 0.  1.
          6    1    1    2  501    0  0.21606257319E+02 -0.96458940473E+02  0.13213110860E+03  0.23835642935E+03  0.17200000000E+03 0.  1.
         -6    1    1    2    0  503 -0.21606257319E+02  0.96458940473E+02 -0.43745410954E+03  0.48033452458E+03  0.17200000000E+03 0.  1.
</event>
<event>
 4    1  0.4394643E+000  0.2584332E+03  0.7818608E-02  0.1108088E+00
         21   -1    0    0  503  502  0.00000000000E+00  0.00000000000E+00  0.26171640595E+03  0.26171640595E+03  0.00000000000E+00 0.  1.
         21   -1    0    0  501  503 -0.00000000000E+00 -0.00000000000E+00 -0.26284747646E+03  0.26284747646E+03  0.00000000000E+00 0.  1.
          6    1    1    2  501    0  0.17840265368E+03 -0.73322548255E+02 -0.45329396178E+02  0.26237846154E+03  0.17200000000E+03 0.  1.
         -6    1    1    2    0  502 -0.17840265368E+03  0.73322548255E+02  0.44198325663E+02  0.26218542087E+03  0.17200000000E+03 0.  1.
</event>
<event>
 4    1  0.4394643E+000  0.1958275E+03  0.7818608E-02  0.1153308E+00
         21   -1    0    0  503  502  0.00000000000E+00  0.00000000000E+00  0.44819334886E+02  0.44819334886E+02  0.00000000000E+00 0.  1.
         21   -1    0    0  501  503 -0.00000000000E+00 -0.00000000000E+00 -0.96317984815E+03  0.96317984815E+03  0.00000000000E+00 0.  1.
          6    1    1    2  501    0  0.71305921151E+02  0.60661835827E+02 -0.62760204498E+03  0.65744408095E+03  0.17200000000E+03 0.  1.
         -6    1    1    2    0  502 -0.71305921151E+02 -0.60661835827E+02 -0.29075846828E+03  0.35055510208E+03  0.17200000000E+03 0.  1.
</event>
<event>
 4    1  0.4394643E+000  0.1888924E+03  0.7818608E-02  0.1159464E+00
         21   -1    0    0  503  502  0.00000000000E+00  0.00000000000E+00  0.19972069614E+03  0.19972069614E+03  0.00000000000E+00 0. -1.
         21   -1    0    0  501  503 -0.00000000000E+00 -0.00000000000E+00 -0.29812230308E+03  0.29812230308E+03  0.00000000000E+00 0. -1.
          6    1    1    2  501    0  0.50420328477E+01  0.77916115691E+02 -0.20677917253E+03  0.28006779424E+03  0.17200000000E+03 0. -1.
         -6    1    1    2    0  502 -0.50420328477E+01 -0.77916115691E+02  0.10837756558E+03  0.21777520497E+03  0.17200000000E+03 0. -1.
</event>
<event>
 4    1  0.4394643E+000  0.2468265E+03  0.7818608E-02  0.1115327E+00
         21   -1    0    0  503  502  0.00000000000E+00  0.00000000000E+00  0.49574807859E+03  0.49574807859E+03  0.00000000000E+00 0. -1.
         21   -1    0    0  501  503 -0.00000000000E+00 -0.00000000000E+00 -0.12300701189E+03  0.12300701189E+03  0.00000000000E+00 0.  1.
          6    1    1    2  501    0  0.15279063519E+03  0.89411114685E+02  0.17689823707E+03  0.30367138803E+03  0.17200000000E+03 0.  1.
         -6    1    1    2    0  502 -0.15279063519E+03 -0.89411114685E+02  0.19584282964E+03  0.31508370245E+03  0.17200000000E+03 0. -1.
</event>
<event>
 4    1  0.4394643E+000  0.2015555E+03  0.7818608E-02  0.1148433E+00
         21   -1    0    0  501  502  0.00000000000E+00  0.00000000000E+00  0.10421212873E+04  0.10421212873E+04  0.00000000000E+00 0. -1.
         21   -1    0    0  502  503 -0.00000000000E+00 -0.00000000000E+00 -0.55542821513E+02  0.55542821513E+02  0.00000000000E+00 0. -1.
          6    1    1    2  501    0 -0.10494798714E+03 -0.51530057635E+01  0.79296947796E+03  0.81818410302E+03  0.17200000000E+03 0. -1.
         -6    1    1    2    0  503  0.10494798714E+03  0.51530057635E+01  0.19360898788E+03  0.27948000583E+03  0.17200000000E+03 0. -1.
</event>
<event>
 4    1  0.4394643E+000  0.3023708E+03  0.7818608E-02  0.1084061E+00
         21   -1    0    0  501  502  0.00000000000E+00  0.00000000000E+00  0.59794361159E+03  0.59794361159E+03  0.00000000000E+00 0.  1.
         21   -1    0    0  502  503 -0.00000000000E+00 -0.00000000000E+00 -0.47512225891E+03  0.47512225891E+03  0.00000000000E+00 0.  1.
          6    1    1    2  501    0  0.74392144002E+02 -0.23729705530E+03  0.50325435214E+03  0.58710563487E+03  0.17200000000E+03 0.  1.
         -6    1    1    2    0  503 -0.74392144002E+02  0.23729705530E+03 -0.38043299946E+03  0.48596023563E+03  0.17200000000E+03 0.  1.
</event>
<event>
 4    1  0.4394643E+000  0.2022624E+03  0.7818608E-02  0.1147844E+00
         21   -1    0    0  501  502  0.00000000000E+00  0.00000000000E+00  0.78369241111E+02  0.78369241111E+02  0.00000000000E+00 0. -1.
         21   -1    0    0  502  503 -0.00000000000E+00 -0.00000000000E+00 -0.52257304028E+03  0.52257304028E+03  0.00000000000E+00 0.  1.
          6    1    1    2  501    0 -0.10043921279E+03 -0.35186003356E+02 -0.21230222131E+03  0.29322742619E+03  0.17200000000E+03 0.  1.
         -6    1    1    2    0  503  0.10043921279E+03  0.35186003356E+02 -0.23190157786E+03  0.30771485520E+03  0.17200000000E+03 0.  1.
</event>
<event>
 4    1  0.4394643E+000  0.1875582E+03  0.7818608E-02  0.1160682E+00
         21   -1    0    0  503  502  0.00000000000E+00  0.00000000000E+00  0.10560376335E+04  0.10560376335E+04  0.00000000000E+00 0.  1.
         21   -1    0    0  501  503 -0.00000000000E+00 -0.00000000000E+00 -0.33452771160E+02  0.33452771160E+02  0.00000000000E+00 0.  1.
          6    1    1    2  501    0  0.51949604628E+02  0.53808072405E+02  0.47587723156E+03  0.51150484806E+03  0.17200000000E+03 0.  1.
         -6    1    1    2    0  502 -0.51949604628E+02 -0.53808072405E+02  0.54670763076E+03  0.57798555658E+03  0.17200000000E+03 0.  1.
</event>
<event>
 4    1  0.4394643E+000  0.1947731E+03  0.7818608E-02  0.1154225E+00
         21   -1    0    0  503  502  0.00000000000E+00  0.00000000000E+00  0.78942600667E+03  0.78942600667E+03  0.00000000000E+00 0. -1.
         21   -1    0    0  501  503 -0.00000000000E+00 -0.00000000000E+00 -0.49336519466E+02  0.49336519466E+02  0.00000000000E+00 0. -1.
          6    1    1    2  501    0 -0.87775864712E+02  0.25454896840E+02  0.30247694550E+03  0.35976222253E+03  0.17200000000E+03 0.  1.
         -6    1    1    2    0  502  0.87775864712E+02 -0.25454896840E+02  0.43761254170E+03  0.47900030361E+03  0.17200000000E+03 0.  1.
</event>
<event>
 4    1  0.4394643E+000  0.3095713E+03  0.7818608E-02  0.1080552E+00
         21   -1    0    0  503  502  0.00000000000E+00  0.00000000000E+00  0.15422266538E+04  0.15422266538E+04  0.00000000000E+00 0.  1.
         21   -1    0    0  501  503 -0.00000000000E+00 -0.00000000000E+00 -0.80378150961E+02  0.80378150961E+02  0.00000000000E+00 0. -1.
          6    1    1    2  501    0 -0.17603703868E+03  0.18778004727E+03  0.34446748994E+03  0.46313306593E+03  0.17200000000E+03 0. -1.
         -6    1    1    2    0  502  0.17603703868E+03 -0.18778004727E+03  0.11173810129E+04  0.11594717388E+04  0.17200000000E+03 0.  1.
</event>
<event>
 4    1  0.4394643E+000  0.2788487E+03  0.7818608E-02  0.1096319E+00
         21   -1    0    0  501  502  0.00000000000E+00  0.00000000000E+00  0.14883931203E+03  0.14883931203E+03  0.00000000000E+00 0. -1.
         21   -1    0    0  502  503 -0.00000000000E+00 -0.00000000000E+00 -0.59092179673E+03  0.59092179673E+03  0.00000000000E+00 0.  1.
          6    1    1    2  501    0  0.17864920739E+03  0.12750314468E+03 -0.95105683162E+02  0.29462125207E+03  0.17200000000E+03 0. -1.
         -6    1    1    2    0  503 -0.17864920739E+03 -0.12750314468E+03 -0.34697680154E+03  0.44513985668E+03  0.17200000000E+03 0.  1.
</event>
<event>
 4    1  0.4394643E+000  0.1758914E+03  0.7818608E-02  0.1171840E+00
         21   -1    0    0  501  502  0.00000000000E+00  0.00000000000E+00  0.32066197632E+03  0.32066197632E+03  0.00000000000E+00 0.  1.
         21   -1    0    0  502  503 -0.00000000000E+00 -0.00000000000E+00 -0.12720918950E+03  0.12720918950E+03  0.00000000000E+00 0.  1.
          6    1    1    2  501    0  0.23116706641E+02 -0.28625109092E+02  0.20678716483E+03  0.27147506429E+03  0.17200000000E+03 0.  1.
         -6    1    1    2    0  503 -0.23116706641E+02  0.28625109092E+02 -0.13334378002E+02  0.17639610152E+03  0.17200000000E+03 0.  1.
</event>
<event>
 4    1  0.4394643E+000  0.2505605E+03  0.7818608E-02  0.1112951E+00
         21   -1    0    0  503  502  0.00000000000E+00  0.00000000000E+00  0.24241186432E+03  0.24241186432E+03  0.00000000000E+00 0.  1.
         21   -1    0    0  501  503 -0.00000000000E+00 -0.00000000000E+00 -0.26829682244E+03  0.26829682244E+03  0.00000000000E+00 0.  1.
          6    1    1    2  501    0 -0.17964678039E+03 -0.30390801289E+02 -0.60519588494E+02  0.25776576014E+03  0.17200000000E+03 0. -1.
         -6    1    1    2    0  502  0.17964678039E+03  0.30390801289E+02  0.34634630366E+02  0.25294292662E+03  0.17200000000E+03 0. -1.
</event>
<event>
 4    1  0.4394643E+000  0.1955502E+03  0.7818608E-02  0.1153549E+00
         21   -1    0    0  503  502  0.00000000000E+00  0.00000000000E+00  0.63786926416E+03  0.63786926416E+03  0.00000000000E+00 0.  1.
         21   -1    0    0  501  503 -0.00000000000E+00 -0.00000000000E+00 -0.60042706537E+02  0.60042706537E+02  0.00000000000E+00 0. -1.
          6    1    1    2  501    0  0.93019844580E+02  0.17868307208E+01  0.30266888799E+03  0.36034475160E+03  0.17200000000E+03 0.  1.
         -6    1    1    2    0  502 -0.93019844580E+02 -0.17868307208E+01  0.27515766964E+03  0.33756721910E+03  0.17200000000E+03 0. -1.
</event>
<event>
 4    1  0.4394643E+000  0.1970875E+03  0.7818608E-02  0.1152220E+00
         21   -1    0    0  503  502  0.00000000000E+00  0.00000000000E+00  0.52974611075E+03  0.52974611075E+03  0.00000000000E+00 0. -1.
         21   -1    0    0  501  503 -0.00000000000E+00 -0.00000000000E+00 -0.15810791183E+03  0.15810791183E+03  0.00000000000E+00 0. -1.
          6    1    1    2  501    0 -0.46527882020E+02 -0.84229592155E+02 -0.66032346629E+02  0.20785509087E+03  0.17200000000E+03 0. -1.
         -6    1    1    2    0  502  0.46527882020E+02  0.84229592155E+02  0.43767054555E+03  0.47999893171E+03  0.17200000000E+03 0. -1.
</event>
<event>
 4    1  0.4394643E+000  0.2020948E+03  0.7818608E-02  0.1147984E+00
         21   -1    0    0  503  502  0.00000000000E+00  0.00000000000E+00  0.13410709970E+03  0.13410709970E+03  0.00000000000E+00 0. -1.
         21   -1    0    0  501  503 -0.00000000000E+00 -0.00000000000E+00 -0.32735308815E+03  0.32735308815E+03  0.00000000000E+00 0.  1.
          6    1    1    2  501    0 -0.80322471295E+02  0.69329660756E+02 -0.15751972634E+03  0.25623185876E+03  0.17200000000E+03 0.  1.
         -6    1    1    2    0  502  0.80322471295E+02 -0.69329660756E+02 -0.35726262112E+02  0.20522832909E+03  0.17200000000E+03 0. -1.
</event>
<event>
 4    1  0.4394643E+000  0.2056190E+03  0.7818608E-02  0.1145083E+00
         21   -1    0    0  503  502  0.00000000000E+00  0.00000000000E+00  0.14177504769E+03  0.14177504769E+03  0.00000000000E+00 0. -1.
         21   -1    0    0  501  503 -0.00000000000E+00 -0.00000000000E+00 -0.30476510883E+03  0.30476510883E+03  0.00000000000E+00 0.  1.
          6    1    1    2  501    0 -0.23710815712E+02 -0.11014977678E+03 -0.11423175519E+03  0.23521919565E+03  0.17200000000E+03 0.  1.
         -6    1    1    2    0  502  0.23710815712E+02  0.11014977678E+03 -0.48758305955E+02  0.21132096088E+03  0.17200000000E+03 0.  1.
</event>
<event>
 4    1  0.4394643E+000  0.2371717E+03  0.7818608E-02  0.1121691E+00
         21   -1    0    0  501  502  0.00000000000E+00  0.00000000000E+00  0.34551357672E+03  0.34551357672E+03  0.00000000000E+00 0. -1.
         21   -1    0    0  502  503 -0.00000000000E+00 -0.00000000000E+00 -0.58907975041E+03  0.58907975041E+03  0.00000000000E+00 0. -1.
          6    1    1    2  501    0 -0.49811183402E+02  0.15551612879E+03  0.27573032892E+03  0.36369992383E+03  0.17200000000E+03 0. -1.
         -6    1    1    2    0  503  0.49811183402E+02 -0.15551612879E+03 -0.51929650262E+03  0.57089340330E+03  0.17200000000E+03 0. -1.
</event>
<event>
 4    1  0.4394643E+000  0.2284141E+03  0.7818608E-02  0.1127761E+00
         21   -1    0    0  503  502  0.00000000000E+00  0.00000000000E+00  0.31876275114E+03  0.31876275114E+03  0.00000000000E+00 0.  1.
         21   -1    0    0  501  503 -0.00000000000E+00 -0.00000000000E+00 -0.17733558654E+03  0.17733558654E+03  0.00000000000E+00 0.  1.
          6    1    1    2  501    0 -0.14888977721E+03  0.20514259534E+02  0.13956280946E+03  0.26767663026E+03  0.17200000000E+03 0.  1.
         -6    1    1    2    0  502  0.14888977721E+03 -0.20514259534E+02  0.18643551334E+01  0.22842170742E+03  0.17200000000E+03 0.  1.
</event>
<event>
 4    1  0.4394643E+000  0.2534557E+03  0.7818608E-02  0.1111140E+00
         21   -1    0    0  503  502  0.00000000000E+00  0.00000000000E+00  0.44677472910E+03  0.44677472910E+03  0.00000000000E+00 0.  1.
         21   -1    0    0  501  503 -0.00000000000E+00 -0.00000000000E+00 -0.28495615785E+03  0.28495615785E+03  0.00000000000E+00 0.  1.
          6    1    1    2  501    0 -0.78495017843E+02 -0.16880255787E+03 -0.17660684478E+03  0.30891705843E+03  0.17200000000E+03 0.  1.
         -6    1    1    2    0  502  0.78495017843E+02  0.16880255787E+03  0.33842541603E+03  0.42281382851E+03  0.17200000000E+03 0.  1.
</event>
<event>
 4    1  0.4394643E+000  0.1774453E+03  0.7818608E-02  0.1170299E+00
         21   -1    0    0  503  502  0.00000000000E+00  0.00000000000E+00  0.37091354331E+02  0.37091354331E+02  0.00000000000E+00 0. -1.
         21   -1    0    0  501  503 -0.00000000000E+00 -0.00000000000E+00 -0.89882636548E+03  0.89882636548E+03  0.00000000000E+00 0. -1.
          6    1    1    2  501    0 -0.11918328340E+02  0.41961671320E+02 -0.54115781653E+03  0.56950734043E+03  0.17200000000E+03 0. -1.
         -6    1    1    2    0  502  0.11918328340E+02 -0.41961671320E+02 -0.32057719463E+03  0.36641037939E+03  0.17200000000E+03 0. -1.
</event>
<event>
 4    1  0.4394643E+000  0.1973085E+03  0.7818608E-02  0.1152030E+00
         21   -1    0    0  501  502  0.00000000000E+00  0.00000000000E+00  0.47139562176E+02  0.47139562176E+02  0.00000000000E+00 0. -1.
         21   -1    0    0  502  503 -0.00000000000E+00 -0.00000000000E+00 -0.85354993564E+03  0.85354993564E+03  0.00000000000E+00 0.  1.
          6    1    1    2  501    0  0.80347492913E+02  0.53767347038E+02 -0.48431938224E+03  0.52296836543E+03  0.17200000000E+03 0.  1.
         -6    1    1    2    0  503 -0.80347492913E+02 -0.53767347038E+02 -0.32209099123E+03  0.37772113239E+03  0.17200000000E+03 0. -1.
</event>
<event>
 4    1  0.4394643E+000  0.1948273E+03  0.7818608E-02  0.1154178E+00
         21   -1    0    0  501  502  0.00000000000E+00  0.00000000000E+00  0.84899437459E+02  0.84899437459E+02  0.00000000000E+00 0.  1.
         21   -1    0    0  502  503 -0.00000000000E+00 -0.00000000000E+00 -0.46558153308E+03  0.46558153308E+03  0.00000000000E+00 0.  1.
          6    1    1    2  501    0  0.72493630478E+02  0.55842071291E+02 -0.13548752649E+03  0.23730683349E+03  0.17200000000E+03 0.  1.
         -6    1    1    2    0  503 -0.72493630478E+02 -0.55842071291E+02 -0.24519456913E+03  0.31317413705E+03  0.17200000000E+03 0.  1.
</event>
<event>
 4    1  0.4394643E+000  0.3299910E+03  0.7818608E-02  0.1071141E+00
         21   -1    0    0  503  502  0.00000000000E+00  0.00000000000E+00  0.10439713811E+04  0.10439713811E+04  0.00000000000E+00 0.  1.
         21   -1    0    0  501  503 -0.00000000000E+00 -0.00000000000E+00 -0.10436866887E+03  0.10436866887E+03  0.00000000000E+00 0.  1.
          6    1    1    2  501    0 -0.27395868413E+03 -0.65243325555E+02  0.48370074815E+03  0.58554288135E+03  0.17200000000E+03 0.  1.
         -6    1    1    2    0  502  0.27395868413E+03  0.65243325555E+02  0.45590196407E+03  0.56279716860E+03  0.17200000000E+03 0.  1.
</event>
<event>
 4    1  0.4394643E+000  0.2177582E+03  0.7818608E-02  0.1135566E+00
         21   -1    0    0  501  502  0.00000000000E+00  0.00000000000E+00  0.16283546716E+03  0.16283546716E+03  0.00000000000E+00 0.  1.
         21   -1    0    0  502  503 -0.00000000000E+00 -0.00000000000E+00 -0.31907418348E+03  0.31907418348E+03  0.00000000000E+00 0. -1.
          6    1    1    2  501    0 -0.11840317771E+02 -0.13302043868E+03 -0.69085702051E+01  0.21786775478E+03  0.17200000000E+03 0.  1.
         -6    1    1    2    0  503  0.11840317771E+02  0.13302043868E+03 -0.14933014612E+03  0.26404189586E+03  0.17200000000E+03 0. -1.
</event>
<event>
 4    1  0.4394643E+000  0.1754956E+03  0.7818608E-02  0.1172235E+00
         21   -1    0    0  501  502  0.00000000000E+00  0.00000000000E+00  0.12570967545E+03  0.12570967545E+03  0.00000000000E+00 0. -1.
         21   -1    0    0  502  503 -0.00000000000E+00 -0.00000000000E+00 -0.26532717643E+03  0.26532717643E+03  0.00000000000E+00 0. -1.
          6    1    1    2  501    0 -0.16377268447E+01  0.34813944781E+02 -0.15689665759E+02  0.17619551218E+03  0.17200000000E+03 0. -1.
         -6    1    1    2    0  503  0.16377268447E+01 -0.34813944781E+02 -0.12392783522E+03  0.21484133970E+03  0.17200000000E+03 0. -1.
</event>
<event>
 4    1  0.4394643E+000  0.2921455E+03  0.7818608E-02  0.1089234E+00
         21   -1    0    0  503  502  0.00000000000E+00  0.00000000000E+00  0.19401810899E+03  0.19401810899E+03  0.00000000000E+00 0. -1.
         21   -1    0    0  501  503 -0.00000000000E+00 -0.00000000000E+00 -0.11438563619E+04  0.11438563619E+04  0.00000000000E+00 0.  1.
          6    1    1    2  501    0  0.23047054203E+03  0.51461643357E+02 -0.99969257057E+03  0.10415057403E+04  0.17200000000E+03 0.  1.
         -6    1    1    2    0  502 -0.23047054203E+03 -0.51461643357E+02  0.49854317627E+02  0.29636873059E+03  0.17200000000E+03 0. -1.
</event>
<event>
 4    1  0.4394643E+000  0.2528637E+03  0.7818608E-02  0.1111508E+00
         21   -1    0    0  501  502  0.00000000000E+00  0.00000000000E+00  0.10899282537E+04  0.10899282537E+04  0.00000000000E+00 0. -1.
         21   -1    0    0  502  503 -0.00000000000E+00 -0.00000000000E+00 -0.15914349732E+03  0.15914349732E+03  0.00000000000E+00 0.  1.
          6    1    1    2  501    0 -0.14921061029E+03 -0.10996485487E+03  0.96164250286E+03  0.99433212703E+03  0.17200000000E+03 0. -1.
         -6    1    1    2    0  503  0.14921061029E+03  0.10996485487E+03 -0.30857746446E+02  0.25473962402E+03  0.17200000000E+03 0.  1.
</event>
<event>
 4    1  0.4394643E+000  0.2146366E+03  0.7818608E-02  0.1137946E+00
         21   -1    0    0  501  502  0.00000000000E+00  0.00000000000E+00  0.17541229700E+03  0.17541229700E+03  0.00000000000E+00 0.  1.
         21   -1    0    0  502  503 -0.00000000000E+00 -0.00000000000E+00 -0.31447260144E+03  0.31447260144E+03  0.00000000000E+00 0.  1.
          6    1    1    2  501    0  0.70242034142E+02  0.10747532749E+03  0.29920468515E+02  0.21671207584E+03  0.17200000000E+03 0. -1.
         -6    1    1    2    0  503 -0.70242034142E+02 -0.10747532749E+03 -0.16898077296E+03  0.27317282260E+03  0.17200000000E+03 0. -1.
</event>
<event>
 4    1  0.4394643E+000  0.1865333E+03  0.7818608E-02  0.1161626E+00
         21   -1    0    0  503  502  0.00000000000E+00  0.00000000000E+00  0.17441273603E+04  0.17441273603E+04  0.00000000000E+00 0.  1.
         21   -1    0    0  501  503 -0.00000000000E+00 -0.00000000000E+00 -0.21462683924E+02  0.21462683924E+02  0.00000000000E+00 0. -1.
          6    1    1    2  501    0  0.25281481615E+02  0.67612998834E+02  0.10957266601E+04  0.11114907037E+04  0.17200000000E+03 0.  1.
         -6    1    1    2    0  502 -0.25281481615E+02 -0.67612998834E+02  0.62693801631E+03  0.65409934048E+03  0.17200000000E+03 0. -1.
</event>
<event>
 4    1  0.4394643E+000  0.1941020E+03  0.7818608E-02  0.1154813E+00
         21   -1    0    0  503  502  0.00000000000E+00  0.00000000000E+00  0.15465376823E+04  0.15465376823E+04  0.00000000000E+00 0.  1.
         21   -1    0    0  501  503 -0.00000000000E+00 -0.00000000000E+00 -0.34015164020E+02  0.34015164020E+02  0.00000000000E+00 0.  1.
          6    1    1    2  501    0  0.46391771433E+02  0.77067409553E+02  0.33524915154E+03  0.38738556462E+03  0.17200000000E+03 0.  1.
         -6    1    1    2    0  502 -0.46391771433E+02 -0.77067409553E+02  0.11772733667E+04  0.11931672817E+04  0.17200000000E+03 0.  1.
</event>
<event>
 4    1  0.4394643E+000  0.2448704E+03  0.7818608E-02  0.1116590E+00
         21   -1    0    0  501  502  0.00000000000E+00  0.00000000000E+00  0.10216177876E+03  0.10216177876E+03  0.00000000000E+00 0. -1.
         21   -1    0    0  502  503 -0.00000000000E+00 -0.00000000000E+00 -0.60855740135E+03  0.60855740135E+03  0.00000000000E+00 0.  1.
          6    1    1    2  501    0  0.11161594847E+03 -0.13386335477E+03 -0.18620187876E+03  0.30762421452E+03  0.17200000000E+03 0.  1.
         -6    1    1    2    0  503 -0.11161594847E+03  0.13386335477E+03 -0.32019374382E+03  0.40309496559E+03  0.17200000000E+03 0. -1.
</event>
<event>
 4    1  0.4394643E+000  0.2223709E+03  0.7818608E-02  0.1132128E+00
         21   -1    0    0  501  502  0.00000000000E+00  0.00000000000E+00  0.21390281825E+04  0.21390281825E+04  0.00000000000E+00 0. -1.
         21   -1    0    0  502  503 -0.00000000000E+00 -0.00000000000E+00 -0.11372936177E+03  0.11372936177E+03  0.00000000000E+00 0. -1.
          6    1    1    2  501    0  0.13970629734E+03 -0.18627019772E+02  0.20180540197E+04  0.20302686625E+04  0.17200000000E+03 0. -1.
         -6    1    1    2    0  503 -0.13970629734E+03  0.18627019772E+02  0.72448010287E+01  0.22248888180E+03  0.17200000000E+03 0. -1.
</event>
<event>
 4    1  0.4394643E+000  0.2373379E+03  0.7818608E-02  0.1121579E+00
         21   -1    0    0  501  502  0.00000000000E+00  0.00000000000E+00  0.64377050231E+03  0.64377050231E+03  0.00000000000E+00 0.  1.
         21   -1    0    0  502  503 -0.00000000000E+00 -0.00000000000E+00 -0.10251177645E+03  0.10251177645E+03  0.00000000000E+00 0.  1.
          6    1    1    2  501    0  0.10487708935E+03  0.12548331459E+03  0.41342566676E+03  0.47670750786E+03  0.17200000000E+03 0.  1.
         -6    1    1    2    0  503 -0.10487708935E+03 -0.12548331459E+03  0.12783305909E+03  0.26957477090E+03  0.17200000000E+03 0.  1.
</event>
<event>
 4    1  0.4394643E+000  0.1915958E+03  0.7818608E-02  0.1157030E+00
         21   -1    0    0  503  502  0.00000000000E+00  0.00000000000E+00  0.29556231775E+03  0.29556231775E+03  0.00000000000E+00 0. -1.
         21   -1    0    0  501  503 -0.00000000000E+00 -0.00000000000E+00 -0.13507357286E+03  0.13507357286E+03  0.00000000000E+00 0. -1.
          6    1    1    2  501    0 -0.80050972790E+02 -0.26772981499E+02  0.19153873388E+02  0.19255082874E+03  0.17200000000E+03 0. -1.
         -6    1    1    2    0  502  0.80050972790E+02  0.26772981499E+02  0.14133487150E+03  0.23808506187E+03  0.17200000000E+03 0. -1.
</event>
<event>
 4    1  0.4394643E+000  0.3876036E+03  0.7818608E-02  0.1048159E+00
         21   -1    0    0  503  502  0.00000000000E+00  0.00000000000E+00  0.36881109554E+03  0.36881109554E+03  0.00000000000E+00 0. -1.
         21   -1    0    0  501  503 -0.00000000000E+00 -0.00000000000E+00 -0.55852005662E+03  0.55852005662E+03  0.00000000000E+00 0. -1.
          6    1    1    2  501    0  0.51757927901E+00  0.34735039240E+03 -0.33607433185E+03  0.51301317675E+03  0.17200000000E+03 0. -1.
         -6    1    1    2    0  502 -0.51757927901E+00 -0.34735039240E+03  0.14636537076E+03  0.41431797541E+03  0.17200000000E+03 0. -1.
</event>
<event>
 4    1  0.4394643E+000  0.1777327E+03  0.7818608E-02  0.1170016E+00
         21   -1    0    0  501  502  0.00000000000E+00  0.00000000000E+00  0.51912875889E+03  0.51912875889E+03  0.00000000000E+00 0. -1.
         21   -1    0    0  502  503 -0.00000000000E+00 -0.00000000000E+00 -0.67161764459E+02  0.67161764459E+02  0.00000000000E+00 0. -1.
          6    1    1    2  501    0 -0.27359018663E+02 -0.35445477243E+02  0.31585106791E+03  0.36242350208E+03  0.17200000000E+03 0. -1.
         -6    1    1    2    0  503  0.27359018663E+02  0.35445477243E+02  0.13611592652E+03  0.22386702127E+03  0.17200000000E+03 0. -1.
</event>
<event>
 4    1  0.4394643E+000  0.1735159E+03  0.7818608E-02  0.1174230E+00
         21   -1    0    0  503  502  0.00000000000E+00  0.00000000000E+00  0.85518763367E+02  0.85518763367E+02  0.00000000000E+00 0. -1.
         21   -1    0    0  501  503 -0.00000000000E+00 -0.00000000000E+00 -0.79689506490E+03  0.79689506490E+03  0.00000000000E+00 0. -1.
          6    1    1    2  501    0 -0.20881104180E+02  0.93674600946E+01 -0.26047279044E+02  0.17546005405E+03  0.17200000000E+03 0. -1.
         -6    1    1    2    0  502  0.20881104180E+02 -0.93674600946E+01 -0.68532902249E+03  0.70695377422E+03  0.17200000000E+03 0. -1.
</event>
<event>
 4    1  0.4394643E+000  0.1779281E+03  0.7818608E-02  0.1169823E+00
         21   -1    0    0  503  502  0.00000000000E+00  0.00000000000E+00  0.26177871395E+03  0.26177871395E+03  0.00000000000E+00 0. -1.
         21   -1    0    0  501  503 -0.00000000000E+00 -0.00000000000E+00 -0.14631648476E+03  0.14631648476E+03  0.00000000000E+00 0. -1.
          6    1    1    2  501    0 -0.20032645653E+02 -0.40903653658E+02 -0.27252775507E+02  0.18000313760E+03  0.17200000000E+03 0. -1.
         -6    1    1    2    0  502  0.20032645653E+02  0.40903653658E+02  0.14271500470E+03  0.22809206111E+03  0.17200000000E+03 0. -1.
</event>
<event>
 4    1  0.4394643E+000  0.1769284E+03  0.7818608E-02  0.1170809E+00
         21   -1    0    0  503  502  0.00000000000E+00  0.00000000000E+00  0.11898508386E+04  0.11898508386E+04  0.00000000000E+00 0. -1.
         21   -1    0    0  501  503 -0.00000000000E+00 -0.00000000000E+00 -0.73722414787E+02  0.73722414787E+02  0.00000000000E+00 0. -1.
          6    1    1    2  501    0  0.16336825799E+02 -0.38115326566E+02  0.51398265794E+02  0.18424291499E+03  0.17200000000E+03 0. -1.
         -6    1    1    2    0  502 -0.16336825799E+02  0.38115326566E+02  0.10647301580E+04  0.10793303384E+04  0.17200000000E+03 0. -1.
</event>
<event>
 4    1  0.4394643E+000  0.1920885E+03  0.7818608E-02  0.1156591E+00
         21   -1    0    0  501  502  0.00000000000E+00  0.00000000000E+00  0.47177408257E+03  0.47177408257E+03  0.00000000000E+00 0.  1.
         21   -1    0    0  502  503 -0.00000000000E+00 -0.00000000000E+00 -0.18081099485E+03  0.18081099485E+03  0.00000000000E+00 0.  1.
          6    1    1    2  501    0 -0.58790406501E+02  0.62110316146E+02  0.39127370799E+03  0.43588199990E+03  0.17200000000E+03 0.  1.
         -6    1    1    2    0  503  0.58790406501E+02 -0.62110316146E+02 -0.10031062027E+03  0.21670307752E+03  0.17200000000E+03 0.  1.
</event>
<event>
 4    1  0.4394643E+000  0.1754501E+03  0.7818608E-02  0.1172281E+00
         21   -1    0    0  503  502  0.00000000000E+00  0.00000000000E+00  0.15476851083E+04  0.15476851083E+04  0.00000000000E+00 0.  1.
         21   -1    0    0  501  503 -0.00000000000E+00 -0.00000000000E+00 -0.42248391205E+02  0.42248391205E+02  0.00000000000E+00 0.  1.
          6    1    1    2  501    0  0.33670667305E+02  0.80637152357E+01  0.17439775306E+03  0.24738090794E+03  0.17200000000E+03 0.  1.
         -6    1    1    2    0  502 -0.33670667305E+02 -0.80637152357E+01  0.13310389640E+04  0.13425525915E+04  0.17200000000E+03 0.  1.
</event>
<event>
 4    1  0.4394643E+000  0.2885895E+03  0.7818608E-02  0.1091088E+00
         21   -1    0    0  503  502  0.00000000000E+00  0.00000000000E+00  0.22202711487E+03  0.22202711487E+03  0.00000000000E+00 0.  1.
         21   -1    0    0  501  503 -0.00000000000E+00 -0.00000000000E+00 -0.37934865672E+03  0.37934865672E+03  0.00000000000E+00 0.  1.
          6    1    1    2  501    0  0.21887570664E+03  0.76113733199E+02 -0.11045701785E+03  0.30900587070E+03  0.17200000000E+03 0.  1.
         -6    1    1    2    0  502 -0.21887570664E+03 -0.76113733199E+02 -0.46864524002E+02  0.29236990089E+03  0.17200000000E+03 0.  1.
</event>
<event>
 4    1  0.4394643E+000  0.1903373E+03  0.7818608E-02  0.1158157E+00
         21   -1    0    0  501  502  0.00000000000E+00  0.00000000000E+00  0.10739261382E+04  0.10739261382E+04  0.00000000000E+00 0.  1.
         21   -1    0    0  502  503 -0.00000000000E+00 -0.00000000000E+00 -0.48043761594E+02  0.48043761594E+02  0.00000000000E+00 0.  1.
          6    1    1    2  501    0  0.39435833740E+02  0.71337847434E+02  0.81909703772E+03  0.84092106090E+03  0.17200000000E+03 0.  1.
         -6    1    1    2    0  503 -0.39435833740E+02 -0.71337847434E+02  0.20678533884E+03  0.28104883885E+03  0.17200000000E+03 0.  1.
</event>
<event>
 4    1  0.4394643E+000  0.2253412E+03  0.7818608E-02  0.1129963E+00
         21   -1    0    0  501  502  0.00000000000E+00  0.00000000000E+00  0.10126316845E+04  0.10126316845E+04  0.00000000000E+00 0.  1.
         21   -1    0    0  502  503 -0.00000000000E+00 -0.00000000000E+00 -0.51103343597E+02  0.51103343597E+02  0.00000000000E+00 0.  1.
          6    1    1    2  501    0  0.99718675350E+02 -0.10606989306E+03  0.55359077484E+03  0.59769673114E+03  0.17200000000E+03 0.  1.
         -6    1    1    2    0  503 -0.99718675350E+02  0.10606989306E+03  0.40793756608E+03  0.46603829697E+03  0.17200000000E+03 0.  1.
</event>
<event>
 4    1  0.4394643E+000  0.2649527E+03  0.7818608E-02  0.1104204E+00
         21   -1    0    0  501  502  0.00000000000E+00  0.00000000000E+00  0.21796154042E+04  0.21796154042E+04  0.00000000000E+00 0.  1.
         21   -1    0    0  502  503 -0.00000000000E+00 -0.00000000000E+00 -0.62528073931E+02  0.62528073931E+02  0.00000000000E+00 0. -1.
          6    1    1    2  501    0  0.72628435373E+02 -0.18799220090E+03  0.18392084826E+04  0.18581947690E+04  0.17200000000E+03 0.  1.
         -6    1    1    2    0  503 -0.72628435373E+02  0.18799220090E+03  0.27787884765E+03  0.38394870907E+03  0.17200000000E+03 0. -1.
</event>
<event>
 4    1  0.4394643E+000  0.1894441E+03  0.7818608E-02  0.1158964E+00
         21   -1    0    0  501  502  0.00000000000E+00  0.00000000000E+00  0.14693941809E+04  0.14693941809E+04  0.00000000000E+00 0. -1.
         21   -1    0    0  502  503 -0.00000000000E+00 -0.00000000000E+00 -0.33739520545E+02  0.33739520545E+02  0.00000000000E+00 0.  1.
          6    1    1    2  501    0 -0.67890059430E+02 -0.41182469394E+02  0.11127323417E+04  0.11287436911E+04  0.17200000000E+03 0. -1.
         -6    1    1    2    0  503  0.67890059430E+02  0.41182469394E+02  0.32292231867E+03  0.37439001035E+03  0.17200000000E+03 0.  1.
</event>
<event>
 4    1  0.4394643E+000  0.1747222E+03  0.7818608E-02  0.1173011E+00
         21   -1    0    0  501  502  0.00000000000E+00  0.00000000000E+00  0.17385923813E+03  0.17385923813E+03  0.00000000000E+00 0.  1.
         21   -1    0    0  502  503 -0.00000000000E+00 -0.00000000000E+00 -0.17576050428E+03  0.17576050428E+03  0.00000000000E+00 0.  1.
          6    1    1    2  501    0 -0.17995421020E+02 -0.24899987304E+02  0.45031455987E+01  0.17478021303E+03  0.17200000000E+03 0.  1.
         -6    1    1    2    0  503  0.17995421020E+02  0.24899987304E+02 -0.64044117447E+01  0.17483952938E+03  0.17200000000E+03 0.  1.
</event>
<event>
 4    1  0.4394643E+000  0.1865510E+03  0.7818608E-02  0.1161609E+00
         21   -1    0    0  501  502  0.00000000000E+00  0.00000000000E+00  0.57225108223E+02  0.57225108223E+02  0.00000000000E+00 0.  1.
         21   -1    0    0  502  503 -0.00000000000E+00 -0.00000000000E+00 -0.87153927594E+03  0.87153927594E+03  0.00000000000E+00 0.  1.
          6    1    1    2  501    0  0.11140822542E+02  0.71366305666E+02 -0.15186711956E+03  0.24055122015E+03  0.17200000000E+03 0.  1.
         -6    1    1    2    0  503 -0.11140822542E+02 -0.71366305666E+02 -0.66244704816E+03  0.68821316402E+03  0.17200000000E+03 0.  1.
</event>
<event>
 4    1  0.4394643E+000  0.2216756E+03  0.7818608E-02  0.1132640E+00
         21   -1    0    0  501  502  0.00000000000E+00  0.00000000000E+00  0.44633812651E+02  0.44633812651E+02  0.00000000000E+00 0.  1.
         21   -1    0    0  502  503 -0.00000000000E+00 -0.00000000000E+00 -0.11145620716E+04  0.11145620716E+04  0.00000000000E+00 0.  1.
          6    1    1    2  501    0 -0.14846990799E+02 -0.13905270128E+03 -0.47093739986E+03  0.52050179774E+03  0.17200000000E+03 0.  1.
         -6    1    1    2    0  503  0.14846990799E+02  0.13905270128E+03 -0.59899085911E+03  0.63869408653E+03  0.17200000000E+03 0.  1.
</event>
<event>
 4    1  0.4394643E+000  0.1918745E+03  0.7818608E-02  0.1156781E+00
         21   -1    0    0  501  502  0.00000000000E+00  0.00000000000E+00  0.34987581048E+03  0.34987581048E+03  0.00000000000E+00 0. -1.
         21   -1    0    0  502  503 -0.00000000000E+00 -0.00000000000E+00 -0.11043983637E+03  0.11043983637E+03  0.00000000000E+00 0. -1.
          6    1    1    2  501    0  0.51740671064E+02  0.67488816007E+02  0.16972889499E+03  0.25617130035E+03  0.17200000000E+03 0. -1.
         -6    1    1    2    0  503 -0.51740671064E+02 -0.67488816007E+02  0.69707079120E+02  0.20414434650E+03  0.17200000000E+03 0. -1.
</event>
<event>
 4    1  0.4394643E+000  0.2177723E+03  0.7818608E-02  0.1135555E+00
         21   -1    0    0  503  502  0.00000000000E+00  0.00000000000E+00  0.81203125008E+02  0.81203125008E+02  0.00000000000E+00 0. -1.
         21   -1    0    0  501  503 -0.00000000000E+00 -0.00000000000E+00 -0.73491693025E+03  0.73491693025E+03  0.00000000000E+00 0.  1.
          6    1    1    2  501    0 -0.12628752434E+03  0.43499707820E+02 -0.51175652160E+03  0.55616499421E+03  0.17200000000E+03 0.  1.
         -6    1    1    2    0  502  0.12628752434E+03 -0.43499707820E+02 -0.14195728364E+03  0.25995506104E+03  0.17200000000E+03 0. -1.
</event>
<event>
 4    1  0.4394643E+000  0.1992412E+03  0.7818608E-02  0.1150381E+00
         21   -1    0    0  501  502  0.00000000000E+00  0.00000000000E+00  0.22079432401E+03  0.22079432401E+03  0.00000000000E+00 0. -1.
         21   -1    0    0  502  503 -0.00000000000E+00 -0.00000000000E+00 -0.23623139930E+03  0.23623139930E+03  0.00000000000E+00 0. -1.
          6    1    1    2  501    0  0.27715508695E+02  0.96668968738E+02  0.10397634494E+03  0.22474011490E+03  0.17200000000E+03 0. -1.
         -6    1    1    2    0  503 -0.27715508695E+02 -0.96668968738E+02 -0.11941342024E+03  0.23228560841E+03  0.17200000000E+03 0. -1.
</event>
<event>
 4    1  0.4394643E+000  0.2094101E+03  0.7818608E-02  0.1142034E+00
         21   -1    0    0  501  502  0.00000000000E+00  0.00000000000E+00  0.53294704871E+03  0.53294704871E+03  0.00000000000E+00 0. -1.
         21   -1    0    0  502  503 -0.00000000000E+00 -0.00000000000E+00 -0.20610994755E+03  0.20610994755E+03  0.00000000000E+00 0.  1.
          6    1    1    2  501    0 -0.21236538280E+02 -0.11754831522E+03  0.44984008426E+03  0.49619421437E+03  0.17200000000E+03 0. -1.
         -6    1    1    2    0  503  0.21236538280E+02  0.11754831522E+03 -0.12300298310E+03  0.24286278188E+03  0.17200000000E+03 0.  1.
</event>
<event>
 4    1  0.4394643E+000  0.2176173E+03  0.7818608E-02  0.1135672E+00
         21   -1    0    0  501  502  0.00000000000E+00  0.00000000000E+00  0.91566864828E+02  0.91566864828E+02  0.00000000000E+00 0. -1.
         21   -1    0    0  502  503 -0.00000000000E+00 -0.00000000000E+00 -0.54453911495E+03  0.54453911495E+03  0.00000000000E+00 0.  1.
          6    1    1    2  501    0  0.11982464243E+03 -0.58440906370E+02 -0.15520535361E+03  0.26729382010E+03  0.17200000000E+03 0. -1.
         -6    1    1    2    0  503 -0.11982464243E+03  0.58440906370E+02 -0.29776689651E+03  0.36881215968E+03  0.17200000000E+03 0.  1.
</event>
<event>
 4    1  0.4394643E+000  0.1767926E+03  0.7818608E-02  0.1170944E+00
         21   -1    0    0  503  502  0.00000000000E+00  0.00000000000E+00  0.34282668470E+03  0.34282668470E+03  0.00000000000E+00 0.  1.
         21   -1    0    0  501  503 -0.00000000000E+00 -0.00000000000E+00 -0.21086083503E+03  0.21086083503E+03  0.00000000000E+00 0.  1.
          6    1    1    2  501    0 -0.34441787664E+02 -0.22031621395E+02 -0.14259415842E+03  0.22713151057E+03  0.17200000000E+03 0.  1.
         -6    1    1    2    0  502  0.34441787664E+02  0.22031621395E+02  0.27456000809E+03  0.32655600917E+03  0.17200000000E+03 0.  1.
</event>
<event>
 4    1  0.4394643E+000  0.1906787E+03  0.7818608E-02  0.1157851E+00
         21   -1    0    0  501  502  0.00000000000E+00  0.00000000000E+00  0.10298929089E+03  0.10298929089E+03  0.00000000000E+00 0.  1.
         21   -1    0    0  502  503 -0.00000000000E+00 -0.00000000000E+00 -0.53753377916E+03  0.53753377916E+03  0.00000000000E+00 0.  1.
          6    1    1    2  501    0 -0.79388262702E+02 -0.21722767920E+02 -0.29641593493E+02  0.19296890673E+03  0.17200000000E+03 0.  1.
         -6    1    1    2    0  503  0.79388262702E+02  0.21722767920E+02 -0.40490289478E+03  0.44755416332E+03  0.17200000000E+03 0.  1.
</event>
<event>
 4    1  0.4394643E+000  0.2361582E+03  0.7818608E-02  0.1122379E+00
         21   -1    0    0  501  502  0.00000000000E+00  0.00000000000E+00  0.88082304262E+03  0.88082304262E+03  0.00000000000E+00 0.  1.
         21   -1    0    0  502  503 -0.00000000000E+00 -0.00000000000E+00 -0.68596933259E+02  0.68596933259E+02  0.00000000000E+00 0.  1.
          6    1    1    2  501    0  0.51955004844E+02 -0.15325589357E+03  0.53781980408E+03  0.58738474027E+03  0.17200000000E+03 0.  1.
         -6    1    1    2    0  503 -0.51955004844E+02  0.15325589357E+03  0.27440630528E+03  0.36203523560E+03  0.17200000000E+03 0.  1.
</event>
<event>
 4    1  0.4394643E+000  0.2336597E+03  0.7818608E-02  0.1124090E+00
         21   -1    0    0  503  502  0.00000000000E+00  0.00000000000E+00  0.11142525184E+03  0.11142525184E+03  0.00000000000E+00 0. -1.
         21   -1    0    0  501  503 -0.00000000000E+00 -0.00000000000E+00 -0.11562623011E+04  0.11562623011E+04  0.00000000000E+00 0. -1.
          6    1    1    2  501    0  0.53603476689E+02 -0.14879352402E+03 -0.10035692409E+04  0.10304116007E+04  0.17200000000E+03 0. -1.
         -6    1    1    2    0  502 -0.53603476689E+02  0.14879352402E+03 -0.41267808314E+02  0.23727595223E+03  0.17200000000E+03 0. -1.
</event>
<event>
 4    1  0.4394643E+000  0.2727285E+03  0.7818608E-02  0.1099728E+00
         21   -1    0    0  501  502  0.00000000000E+00  0.00000000000E+00  0.15700750137E+03  0.15700750137E+03  0.00000000000E+00 0.  1.
         21   -1    0    0  502  503 -0.00000000000E+00 -0.00000000000E+00 -0.48864458192E+03  0.48864458192E+03  0.00000000000E+00 0.  1.
          6    1    1    2  501    0 -0.15757474753E+03  0.14130476674E+03 -0.10943891009E+03  0.29386682903E+03  0.17200000000E+03 0.  1.
         -6    1    1    2    0  503  0.15757474753E+03 -0.14130476674E+03 -0.22219817046E+03  0.35178525427E+03  0.17200000000E+03 0.  1.
</event>
<event>
 4    1  0.4394643E+000  0.1876071E+03  0.7818608E-02  0.1160637E+00
         21   -1    0    0  501  502  0.00000000000E+00  0.00000000000E+00  0.29827241454E+03  0.29827241454E+03  0.00000000000E+00 0. -1.
         21   -1    0    0  502  503 -0.00000000000E+00 -0.00000000000E+00 -0.14485295717E+03  0.14485295717E+03  0.00000000000E+00 0. -1.
          6    1    1    2  501    0 -0.32899170773E+01 -0.74843892704E+02 -0.18684306330E+02  0.18853523578E+03  0.17200000000E+03 0. -1.
         -6    1    1    2    0  503  0.32899170773E+01  0.74843892704E+02  0.17210376371E+03  0.25459013593E+03  0.17200000000E+03 0. -1.
</event>
<event>
 4    1  0.4394643E+000  0.2761324E+03  0.7818608E-02  0.1097820E+00
         21   -1    0    0  501  502  0.00000000000E+00  0.00000000000E+00  0.19906060392E+03  0.19906060392E+03  0.00000000000E+00 0. -1.
         21   -1    0    0  502  503 -0.00000000000E+00 -0.00000000000E+00 -0.38328096991E+03  0.38328096991E+03  0.00000000000E+00 0. -1.
          6    1    1    2  501    0  0.15964423626E+03 -0.14552942777E+03 -0.99340418181E+02  0.29345802971E+03  0.17200000000E+03 0. -1.
         -6    1    1    2    0  503 -0.15964423626E+03  0.14552942777E+03 -0.84879947810E+02  0.28888354411E+03  0.17200000000E+03 0. -1.
</event>
<event>
 4    1  0.4394643E+000  0.2190472E+03  0.7818608E-02  0.1134595E+00
         21   -1    0    0  503  502  0.00000000000E+00  0.00000000000E+00  0.20132076764E+03  0.20132076764E+03  0.00000000000E+00 0. -1.
         21   -1    0    0  501  503 -0.00000000000E+00 -0.00000000000E+00 -0.30102512414E+03  0.30102512414E+03  0.00000000000E+00 0. -1.
          6    1    1    2  501    0 -0.74587626152E+02  0.11328874914E+03 -0.16447558111E+03  0.27392311228E+03  0.17200000000E+03 0. -1.
         -6    1    1    2    0  502  0.74587626152E+02 -0.11328874914E+03  0.64771224615E+02  0.22842277950E+03  0.17200000000E+03 0. -1.
</event>
<event>
 4    1  0.4394643E+000  0.1969966E+03  0.7818608E-02  0.1152298E+00
         21   -1    0    0  501  502  0.00000000000E+00  0.00000000000E+00  0.35286421310E+02  0.35286421310E+02  0.00000000000E+00 0.  1.
         21   -1    0    0  502  503 -0.00000000000E+00 -0.00000000000E+00 -0.11088392485E+04  0.11088392485E+04  0.00000000000E+00 0.  1.
          6    1    1    2  501    0  0.63390961026E+02 -0.72147416118E+02 -0.48509805719E+03  0.52357214276E+03  0.17200000000E+03 0.  1.
         -6    1    1    2    0  503 -0.63390961026E+02  0.72147416118E+02 -0.58845477005E+03  0.62055352710E+03  0.17200000000E+03 0.  1.
</event>
<event>
 4    1  0.4394643E+000  0.1907428E+03  0.7818608E-02  0.1157793E+00
         21   -1    0    0  503  502  0.00000000000E+00  0.00000000000E+00  0.30941602422E+03  0.30941602422E+03  0.00000000000E+00 0. -1.
         21   -1    0    0  501  503 -0.00000000000E+00 -0.00000000000E+00 -0.11996921022E+03  0.11996921022E+03  0.00000000000E+00 0. -1.
          6    1    1    2  501    0 -0.40207796497E+02  0.71987088560E+02  0.12498681274E+03  0.22804497622E+03  0.17200000000E+03 0. -1.
         -6    1    1    2    0  502  0.40207796497E+02 -0.71987088560E+02  0.64460001266E+02  0.20134025822E+03  0.17200000000E+03 0. -1.
</event>
<event>
 4    1  0.4394643E+000  0.2374904E+03  0.7818608E-02  0.1121476E+00
         21   -1    0    0  501  502  0.00000000000E+00  0.00000000000E+00  0.64746883723E+03  0.64746883723E+03  0.00000000000E+00 0.  1.
         21   -1    0    0  502  503 -0.00000000000E+00 -0.00000000000E+00 -0.15353580752E+03  0.15353580752E+03  0.00000000000E+00 0. -1.
          6    1    1    2  501    0 -0.14562529743E+02 -0.16311232407E+03  0.51039646646E+03  0.56294426946E+03  0.17200000000E+03 0.  1.
         -6    1    1    2    0  503  0.14562529743E+02  0.16311232407E+03 -0.16463436748E+02  0.23806037529E+03  0.17200000000E+03 0. -1.
</event>
<event>
 4    1  0.4394643E+000  0.1753828E+03  0.7818608E-02  0.1172348E+00
         21   -1    0    0  501  502  0.00000000000E+00  0.00000000000E+00  0.84381672336E+02  0.84381672336E+02  0.00000000000E+00 0. -1.
         21   -1    0    0  502  503 -0.00000000000E+00 -0.00000000000E+00 -0.44899990626E+03  0.44899990626E+03  0.00000000000E+00 0. -1.
          6    1    1    2  501    0  0.22475864888E+02 -0.25883471571E+02 -0.66630758493E+02  0.18761336994E+03  0.17200000000E+03 0. -1.
         -6    1    1    2    0  503 -0.22475864888E+02  0.25883471571E+02 -0.29798747543E+03  0.34576820865E+03  0.17200000000E+03 0. -1.
</event>
<event>
 4    1  0.4394643E+000  0.2113950E+03  0.7818608E-02  0.1140466E+00
         21   -1    0    0  501  502  0.00000000000E+00  0.00000000000E+00  0.36644531973E+03  0.36644531973E+03  0.00000000000E+00 0. -1.
         21   -1    0    0  502  503 -0.00000000000E+00 -0.00000000000E+00 -0.12375199286E+03  0.12375199286E+03  0.00000000000E+00 0. -1.
          6    1    1    2  501    0 -0.62368718809E+02 -0.10589613898E+03  0.15092631936E+03  0.25974334103E+03  0.17200000000E+03 0. -1.
         -6    1    1    2    0  503  0.62368718809E+02  0.10589613898E+03  0.91767007511E+02  0.23045397155E+03  0.17200000000E+03 0. -1.
</event>
<event>
 4    1  0.4394643E+000  0.1818995E+03  0.7818608E-02  0.1165977E+00
         21   -1    0    0  501  502  0.00000000000E+00  0.00000000000E+00  0.10874769168E+04  0.10874769168E+04  0.00000000000E+00 0.  1.
         21   -1    0    0  502  503 -0.00000000000E+00 -0.00000000000E+00 -0.30476065558E+02  0.30476065558E+02  0.00000000000E+00 0.  1.
          6    1    1    2  501    0 -0.50609683137E+02  0.30693538874E+02  0.50581543771E+03  0.53752831589E+03  0.17200000000E+03 0.  1.
         -6    1    1    2    0  503  0.50609683137E+02 -0.30693538874E+02  0.55118541352E+03  0.58042466646E+03  0.17200000000E+03 0.  1.
</event>
<event>
 4    1  0.4394643E+000  0.1993267E+03  0.7818608E-02  0.1150308E+00
         21   -1    0    0  501  502  0.00000000000E+00  0.00000000000E+00  0.10467234038E+03  0.10467234038E+03  0.00000000000E+00 0.  1.
         21   -1    0    0  502  503 -0.00000000000E+00 -0.00000000000E+00 -0.48063729339E+03  0.48063729339E+03  0.00000000000E+00 0.  1.
          6    1    1    2  501    0  0.10060692478E+03 -0.50364099908E+01 -0.53786604988E+02  0.20645609125E+03  0.17200000000E+03 0.  1.
         -6    1    1    2    0  503 -0.10060692478E+03  0.50364099908E+01 -0.32217834803E+03  0.37885354252E+03  0.17200000000E+03 0.  1.
</event>
<event>
 4    1  0.4394643E+000  0.2096804E+03  0.7818608E-02  0.1141819E+00
         21   -1    0    0  503  502  0.00000000000E+00  0.00000000000E+00  0.11373762852E+04  0.11373762852E+04  0.00000000000E+00 0.  1.
         21   -1    0    0  501  503 -0.00000000000E+00 -0.00000000000E+00 -0.45233334114E+02  0.45233334114E+02  0.00000000000E+00 0. -1.
          6    1    1    2  501    0  0.11779505300E+03  0.22498730003E+02  0.77155926887E+03  0.79954335263E+03  0.17200000000E+03 0.  1.
         -6    1    1    2    0  502 -0.11779505300E+03 -0.22498730003E+02  0.32058368222E+03  0.38306626668E+03  0.17200000000E+03 0. -1.
</event>
<event>
 4    1  0.4394643E+000  0.3200849E+03  0.7818608E-02  0.1075610E+00
         21   -1    0    0  501  502  0.00000000000E+00  0.00000000000E+00  0.76309120323E+03  0.76309120323E+03  0.00000000000E+00 0.  1.
         21   -1    0    0  502  503 -0.00000000000E+00 -0.00000000000E+00 -0.32220406216E+03  0.32220406216E+03  0.00000000000E+00 0. -1.
          6    1    1    2  501    0 -0.11207067423E+03 -0.24558203496E+03  0.63488586232E+03  0.71100944444E+03  0.17200000000E+03 0.  1.
         -6    1    1    2    0  503  0.11207067423E+03  0.24558203496E+03 -0.19399872125E+03  0.37428582095E+03  0.17200000000E+03 0. -1.
</event>
<event>
 4    1  0.4394643E+000  0.1968870E+03  0.7818608E-02  0.1152392E+00
         21   -1    0    0  503  502  0.00000000000E+00  0.00000000000E+00  0.72449800705E+03  0.72449800705E+03  0.00000000000E+00 0.  1.
         21   -1    0    0  501  503 -0.00000000000E+00 -0.00000000000E+00 -0.12717678697E+03  0.12717678697E+03  0.00000000000E+00 0.  1.
          6    1    1    2  501    0  0.56040201833E+02 -0.77717445595E+02 -0.25447203491E+02  0.19852472324E+03  0.17200000000E+03 0.  1.
         -6    1    1    2    0  502 -0.56040201833E+02  0.77717445595E+02  0.62276842357E+03  0.65315007079E+03  0.17200000000E+03 0.  1.
</event>
<event>
 4    1  0.4394643E+000  0.1920160E+03  0.7818608E-02  0.1156656E+00
         21   -1    0    0  501  502  0.00000000000E+00  0.00000000000E+00  0.38831462847E+03  0.38831462847E+03  0.00000000000E+00 0.  1.
         21   -1    0    0  502  503 -0.00000000000E+00 -0.00000000000E+00 -0.16538146215E+03  0.16538146215E+03  0.00000000000E+00 0.  1.
          6    1    1    2  501    0 -0.63285736705E+02 -0.57280389357E+02  0.29213579549E+03  0.34959040388E+03  0.17200000000E+03 0.  1.
         -6    1    1    2    0  503  0.63285736705E+02  0.57280389357E+02 -0.69202629176E+02  0.20410568674E+03  0.17200000000E+03 0.  1.
</event>
<event>
 4    1  0.4394643E+000  0.2595101E+03  0.7818608E-02  0.1107438E+00
         21   -1    0    0  501  502  0.00000000000E+00  0.00000000000E+00  0.15453011372E+03  0.15453011372E+03  0.00000000000E+00 0. -1.
         21   -1    0    0  502  503 -0.00000000000E+00 -0.00000000000E+00 -0.21079053341E+04  0.21079053341E+04  0.00000000000E+00 0.  1.
          6    1    1    2  501    0 -0.68899588008E+02  0.18169843942E+03  0.30827140279E+02  0.26133462972E+03  0.17200000000E+03 0. -1.
         -6    1    1    2    0  503  0.68899588008E+02 -0.18169843942E+03 -0.19842023607E+04  0.20011008181E+04  0.17200000000E+03 0.  1.
</event>
<event>
 4    1  0.4394643E+000  0.1742854E+03  0.7818608E-02  0.1173451E+00
         21   -1    0    0  501  502  0.00000000000E+00  0.00000000000E+00  0.13733692207E+03  0.13733692207E+03  0.00000000000E+00 0. -1.
         21   -1    0    0  502  503 -0.00000000000E+00 -0.00000000000E+00 -0.25391261295E+03  0.25391261295E+03  0.00000000000E+00 0. -1.
          6    1    1    2  501    0 -0.36297239267E+00  0.28129217945E+02  0.11956355228E+02  0.17469498871E+03  0.17200000000E+03 0. -1.
         -6    1    1    2    0  503  0.36297239267E+00 -0.28129217945E+02 -0.12853204611E+03  0.21655454631E+03  0.17200000000E+03 0. -1.
</event>
<event>
 4    1  0.4394643E+000  0.2296313E+03  0.7818608E-02  0.1126900E+00
         21   -1    0    0  501  502  0.00000000000E+00  0.00000000000E+00  0.15269333758E+03  0.15269333758E+03  0.00000000000E+00 0. -1.
         21   -1    0    0  502  503 -0.00000000000E+00 -0.00000000000E+00 -0.76960435122E+03  0.76960435122E+03  0.00000000000E+00 0.  1.
          6    1    1    2  501    0  0.11338791747E+03  0.10143816917E+03  0.33939666127E+02  0.23212587734E+03  0.17200000000E+03 0. -1.
         -6    1    1    2    0  503 -0.11338791747E+03 -0.10143816917E+03 -0.65085067976E+03  0.69017181146E+03  0.17200000000E+03 0.  1.
</event>
<event>
 4    1  0.4394643E+000  0.1898193E+03  0.7818608E-02  0.1158624E+00
         21   -1    0    0  501  502  0.00000000000E+00  0.00000000000E+00  0.21321103983E+03  0.21321103983E+03  0.00000000000E+00 0.  1.
         21   -1    0    0  502  503 -0.00000000000E+00 -0.00000000000E+00 -0.21818490779E+03  0.21818490779E+03  0.00000000000E+00 0.  1.
          6    1    1    2  501    0  0.10957315748E+02 -0.79544317710E+02  0.99931151458E+02  0.21451712351E+03  0.17200000000E+03 0.  1.
         -6    1    1    2    0  503 -0.10957315748E+02  0.79544317710E+02 -0.10490501941E+03  0.21687882411E+03  0.17200000000E+03 0.  1.
</event>
<event>
 4    1  0.4394643E+000  0.1823264E+03  0.7818608E-02  0.1165570E+00
         21   -1    0    0  501  502  0.00000000000E+00  0.00000000000E+00  0.26315431300E+03  0.26315431300E+03  0.00000000000E+00 0. -1.
         21   -1    0    0  502  503 -0.00000000000E+00 -0.00000000000E+00 -0.14562886444E+03  0.14562886444E+03  0.00000000000E+00 0. -1.
          6    1    1    2  501    0 -0.56811507188E+02  0.20769747326E+02  0.13317816833E+03  0.22578608078E+03  0.17200000000E+03 0. -1.
         -6    1    1    2    0  503  0.56811507188E+02 -0.20769747326E+02 -0.15652719767E+02  0.18299709667E+03  0.17200000000E+03 0. -1.
</event>
<event>
 4    1  0.4394643E+000  0.1868909E+03  0.7818608E-02  0.1161296E+00
         21   -1    0    0  501  502  0.00000000000E+00  0.00000000000E+00  0.15443250718E+03  0.15443250718E+03  0.00000000000E+00 0.  1.
         21   -1    0    0  502  503 -0.00000000000E+00 -0.00000000000E+00 -0.72692964510E+03  0.72692964510E+03  0.00000000000E+00 0.  1.
          6    1    1    2  501    0 -0.35408273174E+02 -0.63956723160E+02  0.79508129327E+02  0.20310034681E+03  0.17200000000E+03 0.  1.
         -6    1    1    2    0  503  0.35408273174E+02  0.63956723160E+02 -0.65200526724E+03  0.67826180547E+03  0.17200000000E+03 0.  1.
</event>
<event>
 4    1  0.4394643E+000  0.1721055E+03  0.7818608E-02  0.1175670E+00
         21   -1    0    0  503  502  0.00000000000E+00  0.00000000000E+00  0.66859349791E+03  0.66859349791E+03  0.00000000000E+00 0. -1.
         21   -1    0    0  501  503 -0.00000000000E+00 -0.00000000000E+00 -0.11894287410E+03  0.11894287410E+03  0.00000000000E+00 0. -1.
          6    1    1    2  501    0  0.52597778051E+01 -0.29380547743E+01 -0.37105734204E+02  0.17606002652E+03  0.17200000000E+03 0. -1.
         -6    1    1    2    0  502 -0.52597778051E+01  0.29380547743E+01  0.58675635801E+03  0.61147634549E+03  0.17200000000E+03 0. -1.
</event>
<event>
 4    1  0.4394643E+000  0.1960654E+03  0.7818608E-02  0.1153102E+00
         21   -1    0    0  503  502  0.00000000000E+00  0.00000000000E+00  0.18925888092E+03  0.18925888092E+03  0.00000000000E+00 0. -1.
         21   -1    0    0  501  503 -0.00000000000E+00 -0.00000000000E+00 -0.68044298539E+03  0.68044298539E+03  0.00000000000E+00 0. -1.
          6    1    1    2  501    0 -0.44528947581E+01 -0.94009556020E+02 -0.60980237081E+03  0.64054707582E+03  0.17200000000E+03 0. -1.
         -6    1    1    2    0  502  0.44528947581E+01  0.94009556020E+02  0.11861826635E+03  0.22915479049E+03  0.17200000000E+03 0. -1.
</event>
<event>
 4    1  0.4394643E+000  0.1746696E+03  0.7818608E-02  0.1173064E+00
         21   -1    0    0  501  502  0.00000000000E+00  0.00000000000E+00  0.76065559632E+03  0.76065559632E+03  0.00000000000E+00 0. -1.
         21   -1    0    0  502  503 -0.00000000000E+00 -0.00000000000E+00 -0.40313048880E+02  0.40313048880E+02  0.00000000000E+00 0. -1.
          6    1    1    2  501    0 -0.18474764579E+02  0.24169289299E+02  0.38863285289E+03  0.42608093811E+03  0.17200000000E+03 0. -1.
         -6    1    1    2    0  503  0.18474764579E+02 -0.24169289299E+02  0.33170969455E+03  0.37488770709E+03  0.17200000000E+03 0. -1.
</event>
<event>
 4    1  0.4394643E+000  0.2055262E+03  0.7818608E-02  0.1145159E+00
         21   -1    0    0  503  502  0.00000000000E+00  0.00000000000E+00  0.32869547401E+03  0.32869547401E+03  0.00000000000E+00 0.  1.
         21   -1    0    0  501  503 -0.00000000000E+00 -0.00000000000E+00 -0.25207003445E+03  0.25207003445E+03  0.00000000000E+00 0.  1.
          6    1    1    2  501    0 -0.62506037818E+02  0.93541513507E+02 -0.16499191204E+03  0.26355900772E+03  0.17200000000E+03 0.  1.
         -6    1    1    2    0  502  0.62506037818E+02 -0.93541513507E+02  0.24161735160E+03  0.31720650073E+03  0.17200000000E+03 0.  1.
</event>
<event>
 4    1  0.4394643E+000  0.1995492E+03  0.7818608E-02  0.1150120E+00
         21   -1    0    0  503  502  0.00000000000E+00  0.00000000000E+00  0.56589699187E+03  0.56589699187E+03  0.00000000000E+00 0. -1.
         21   -1    0    0  501  503 -0.00000000000E+00 -0.00000000000E+00 -0.73597758084E+02  0.73597758084E+02  0.00000000000E+00 0. -1.
          6    1    1    2  501    0  0.98079476284E+02 -0.24825317319E+02  0.17914613005E+03  0.26816639603E+03  0.17200000000E+03 0. -1.
         -6    1    1    2    0  502 -0.98079476284E+02  0.24825317319E+02  0.31315310374E+03  0.37132835393E+03  0.17200000000E+03 0. -1.
</event>
<event>
 4    1  0.4394643E+000  0.2282213E+03  0.7818608E-02  0.1127898E+00
         21   -1    0    0  501  502  0.00000000000E+00  0.00000000000E+00  0.76368683092E+03  0.76368683092E+03  0.00000000000E+00 0.  1.
         21   -1    0    0  502  503 -0.00000000000E+00 -0.00000000000E+00 -0.71336227919E+02  0.71336227919E+02  0.00000000000E+00 0.  1.
          6    1    1    2  501    0 -0.13980770550E+03  0.54357807106E+02  0.43368959886E+03  0.49007309033E+03  0.17200000000E+03 0.  1.
         -6    1    1    2    0  503  0.13980770550E+03 -0.54357807106E+02  0.25866100414E+03  0.34494996851E+03  0.17200000000E+03 0.  1.
</event>
<event>
 4    1  0.4394643E+000  0.1861588E+03  0.7818608E-02  0.1161972E+00
         21   -1    0    0  503  502  0.00000000000E+00  0.00000000000E+00  0.15238254771E+04  0.15238254771E+04  0.00000000000E+00 0. -1.
         21   -1    0    0  501  503 -0.00000000000E+00 -0.00000000000E+00 -0.33041520510E+02  0.33041520510E+02  0.00000000000E+00 0.  1.
          6    1    1    2  501    0  0.22795528579E+02  0.67464396343E+02  0.31078503415E+03  0.36227395483E+03  0.17200000000E+03 0.  1.
         -6    1    1    2    0  502 -0.22795528579E+02 -0.67464396343E+02  0.11799989225E+04  0.11945930428E+04  0.17200000000E+03 0. -1.
</event>
<event>
 4    1  0.4394643E+000  0.1999856E+03  0.7818608E-02  0.1149751E+00
         21   -1    0    0  501  502  0.00000000000E+00  0.00000000000E+00  0.16737128268E+03  0.16737128268E+03  0.00000000000E+00 0.  1.
         21   -1    0    0  502  503 -0.00000000000E+00 -0.00000000000E+00 -0.26589728544E+03  0.26589728544E+03  0.00000000000E+00 0.  1.
          6    1    1    2  501    0  0.10115060194E+03  0.13372084304E+02 -0.11822104727E+03  0.23231545994E+03  0.17200000000E+03 0.  1.
         -6    1    1    2    0  503 -0.10115060194E+03 -0.13372084304E+02  0.19695044511E+02  0.20095310819E+03  0.17200000000E+03 0.  1.
</event>
<event>
 4    1  0.4394643E+000  0.1769458E+03  0.7818608E-02  0.1170792E+00
         21   -1    0    0  501  502  0.00000000000E+00  0.00000000000E+00  0.13218094960E+03  0.13218094960E+03  0.00000000000E+00 0.  1.
         21   -1    0    0  502  503 -0.00000000000E+00 -0.00000000000E+00 -0.25105583270E+03  0.25105583270E+03  0.00000000000E+00 0.  1.
          6    1    1    2  501    0 -0.74669044233E+01 -0.40866212830E+02 -0.10498528421E+03  0.20574671787E+03  0.17200000000E+03 0.  1.
         -6    1    1    2    0  503  0.74669044233E+01  0.40866212830E+02 -0.13889598888E+02  0.17749006443E+03  0.17200000000E+03 0.  1.
</event>
<event>
 4    1  0.4394643E+000  0.2070368E+03  0.7818608E-02  0.1143934E+00
         21   -1    0    0  503  502  0.00000000000E+00  0.00000000000E+00  0.10911299261E+04  0.10911299261E+04  0.00000000000E+00 0.  1.
         21   -1    0    0  501  503 -0.00000000000E+00 -0.00000000000E+00 -0.44386637502E+02  0.44386637502E+02  0.00000000000E+00 0. -1.
          6    1    1    2  501    0  0.10020958252E+03  0.56905867135E+02  0.71586839242E+03  0.74520587317E+03  0.17200000000E+03 0.  1.
         -6    1    1    2    0  502 -0.10020958252E+03 -0.56905867135E+02  0.33087489616E+03  0.39031069041E+03  0.17200000000E+03 0. -1.
</event>
<event>
 4    1  0.4394643E+000  0.2028176E+03  0.7818608E-02  0.1147383E+00
         21   -1    0    0  501  502  0.00000000000E+00  0.00000000000E+00  0.41830310556E+03  0.41830310556E+03  0.00000000000E+00 0.  1.
         21   -1    0    0  502  503 -0.00000000000E+00 -0.00000000000E+00 -0.11894187721E+03  0.11894187721E+03  0.00000000000E+00 0. -1.
          6    1    1    2  501    0 -0.82480501540E+02  0.68905386136E+02  0.37877960689E+02  0.20632432062E+03  0.17200000000E+03 0.  1.
         -6    1    1    2    0  503  0.82480501540E+02 -0.68905386136E+02  0.26148326765E+03  0.33092066215E+03  0.17200000000E+03 0.  1.
</event>
<event>
 4    1  0.4394643E+000  0.1932816E+03  0.7818608E-02  0.1155534E+00
         21   -1    0    0  503  502  0.00000000000E+00  0.00000000000E+00  0.52568645303E+03  0.52568645303E+03  0.00000000000E+00 0.  1.
         21   -1    0    0  501  503 -0.00000000000E+00 -0.00000000000E+00 -0.73038405335E+02  0.73038405335E+02  0.00000000000E+00 0. -1.
          6    1    1    2  501    0  0.56350225475E+01  0.87988848128E+02  0.17711392105E+03  0.26215860067E+03  0.17200000000E+03 0.  1.
         -6    1    1    2    0  502 -0.56350225475E+01 -0.87988848128E+02  0.27553412664E+03  0.33656625769E+03  0.17200000000E+03 0. -1.
</event>
<event>
 4    1  0.4394643E+000  0.2285881E+03  0.7818608E-02  0.1127637E+00
         21   -1    0    0  501  502  0.00000000000E+00  0.00000000000E+00  0.36002612907E+02  0.36002612907E+02  0.00000000000E+00 0. -1.
         21   -1    0    0  502  503 -0.00000000000E+00 -0.00000000000E+00 -0.22206604494E+04  0.22206604494E+04  0.00000000000E+00 0.  1.
          6    1    1    2  501    0 -0.13211945997E+03  0.72201024307E+02 -0.42821083453E+03  0.48540401567E+03  0.17200000000E+03 0. -1.
         -6    1    1    2    0  503  0.13211945997E+03 -0.72201024307E+02 -0.17564470019E+04  0.17712590466E+04  0.17200000000E+03 0.  1.
</event>
<event>
 4    1  0.4394643E+000  0.3197273E+03  0.7818608E-02  0.1075775E+00
         21   -1    0    0  503  502  0.00000000000E+00  0.00000000000E+00  0.35320396830E+02  0.35320396830E+02  0.00000000000E+00 0.  1.
         21   -1    0    0  501  503 -0.00000000000E+00 -0.00000000000E+00 -0.29214864479E+04  0.29214864479E+04  0.00000000000E+00 0. -1.
          6    1    1    2  501    0  0.24481285879E+03 -0.11273079759E+03 -0.15858661315E+04  0.16177753106E+04  0.17200000000E+03 0. -1.
         -6    1    1    2    0  502 -0.24481285879E+03  0.11273079759E+03 -0.13002999196E+04  0.13390315341E+04  0.17200000000E+03 0.  1.
</event>
<event>
 4    1  0.4394643E+000  0.2024832E+03  0.7818608E-02  0.1147661E+00
         21   -1    0    0  501  502  0.00000000000E+00  0.00000000000E+00  0.18013506148E+02  0.18013506148E+02  0.00000000000E+00 0.  1.
         21   -1    0    0  502  503 -0.00000000000E+00 -0.00000000000E+00 -0.23603369712E+04  0.23603369712E+04  0.00000000000E+00 0. -1.
          6    1    1    2  501    0  0.95046049791E+02  0.48802485628E+02 -0.94642782335E+03  0.96784557601E+03  0.17200000000E+03 0.  1.
         -6    1    1    2    0  503 -0.95046049791E+02 -0.48802485628E+02 -0.13958956417E+04  0.14105049013E+04  0.17200000000E+03 0.  1.
</event>
<event>
 4    1  0.4394643E+000  0.1785942E+03  0.7818608E-02  0.1169171E+00
         21   -1    0    0  501  502  0.00000000000E+00  0.00000000000E+00  0.54848905333E+03  0.54848905333E+03  0.00000000000E+00 0. -1.
         21   -1    0    0  502  503 -0.00000000000E+00 -0.00000000000E+00 -0.10244135001E+03  0.10244135001E+03  0.00000000000E+00 0.  1.
          6    1    1    2  501    0  0.21574953071E+02 -0.42970010076E+02  0.43702450219E+03  0.47210837303E+03  0.17200000000E+03 0. -1.
         -6    1    1    2    0  503 -0.21574953071E+02  0.42970010076E+02  0.90232011347E+01  0.17882203031E+03  0.17200000000E+03 0.  1.
</event>
<event>
 4    1  0.4394643E+000  0.1910676E+03  0.7818608E-02  0.1157502E+00
         21   -1    0    0  501  502  0.00000000000E+00  0.00000000000E+00  0.50349671466E+02  0.50349671466E+02  0.00000000000E+00 0.  1.
         21   -1    0    0  502  503 -0.00000000000E+00 -0.00000000000E+00 -0.14437175332E+04  0.14437175332E+04  0.00000000000E+00 0.  1.
          6    1    1    2  501    0  0.69498560987E+02 -0.45747023784E+02 -0.16962622364E+03  0.25549930707E+03  0.17200000000E+03 0.  1.
         -6    1    1    2    0  503 -0.69498560987E+02  0.45747023784E+02 -0.12237416381E+04  0.12385678976E+04  0.17200000000E+03 0.  1.
</event>
<event>
 4    1  0.4394643E+000  0.1973902E+03  0.7818608E-02  0.1151960E+00
         21   -1    0    0  503  502  0.00000000000E+00  0.00000000000E+00  0.11425074827E+04  0.11425074827E+04  0.00000000000E+00 0. -1.
         21   -1    0    0  501  503 -0.00000000000E+00 -0.00000000000E+00 -0.14787705279E+03  0.14787705279E+03  0.00000000000E+00 0.  1.
          6    1    1    2  501    0  0.47281860165E+02  0.84518051870E+02 -0.68611858537E+02  0.20897478921E+03  0.17200000000E+03 0.  1.
         -6    1    1    2    0  502 -0.47281860165E+02 -0.84518051870E+02  0.10632422884E+04  0.10814097463E+04  0.17200000000E+03 0. -1.
</event>
<event>
 4    1  0.4394643E+000  0.1816943E+03  0.7818608E-02  0.1166173E+00
         21   -1    0    0  501  502  0.00000000000E+00  0.00000000000E+00  0.66825058957E+02  0.66825058957E+02  0.00000000000E+00 0.  1.
         21   -1    0    0  502  503 -0.00000000000E+00 -0.00000000000E+00 -0.17880492370E+04  0.17880492370E+04  0.00000000000E+00 0.  1.
          6    1    1    2  501    0 -0.34561106482E+02  0.47268962437E+02 -0.71630220723E+02  0.19530415616E+03  0.17200000000E+03 0.  1.
         -6    1    1    2    0  503  0.34561106482E+02 -0.47268962437E+02 -0.16495939573E+04  0.16595701398E+04  0.17200000000E+03 0.  1.
</event>
<event>
 4    1  0.4394643E+000  0.1789569E+03  0.7818608E-02  0.1168816E+00
         21   -1    0    0  503  502  0.00000000000E+00  0.00000000000E+00  0.98635975183E+02  0.98635975183E+02  0.00000000000E+00 0.  1.
         21   -1    0    0  501  503 -0.00000000000E+00 -0.00000000000E+00 -0.34801279604E+03  0.34801279604E+03  0.00000000000E+00 0.  1.
          6    1    1    2  501    0  0.19579027257E+02  0.45367684205E+02 -0.66868058528E+02  0.19104162460E+03  0.17200000000E+03 0.  1.
         -6    1    1    2    0  502 -0.19579027257E+02 -0.45367684205E+02 -0.18250876233E+03  0.25560714663E+03  0.17200000000E+03 0.  1.
</event>
<event>
 4    1  0.4394643E+000  0.2087025E+03  0.7818608E-02  0.1142598E+00
         21   -1    0    0  501  502  0.00000000000E+00  0.00000000000E+00  0.30939151575E+03  0.30939151575E+03  0.00000000000E+00 0.  1.
         21   -1    0    0  502  503 -0.00000000000E+00 -0.00000000000E+00 -0.14451253385E+03  0.14451253385E+03  0.00000000000E+00 0. -1.
          6    1    1    2  501    0 -0.11281665090E+03 -0.35286320281E+02  0.11890425669E+03  0.24019771726E+03  0.17200000000E+03 0. -1.
         -6    1    1    2    0  503  0.11281665090E+03  0.35286320281E+02  0.45974725209E+02  0.21370633233E+03  0.17200000000E+03 0.  1.
</event>
<event>
 4    1  0.4394643E+000  0.1887370E+03  0.7818608E-02  0.1159605E+00
         21   -1    0    0  503  502  0.00000000000E+00  0.00000000000E+00  0.19712059219E+03  0.19712059219E+03  0.00000000000E+00 0.  1.
         21   -1    0    0  501  503 -0.00000000000E+00 -0.00000000000E+00 -0.26416478613E+03  0.26416478613E+03  0.00000000000E+00 0. -1.
          6    1    1    2  501    0  0.40602670199E+02  0.66250099917E+02 -0.16315880150E+03  0.24948436238E+03  0.17200000000E+03 0. -1.
         -6    1    1    2    0  502 -0.40602670199E+02 -0.66250099917E+02  0.96114607554E+02  0.21180101594E+03  0.17200000000E+03 0.  1.
</event>
<event>
 4    1  0.4394643E+000  0.1915540E+03  0.7818608E-02  0.1157067E+00
         21   -1    0    0  503  502  0.00000000000E+00  0.00000000000E+00  0.97589824704E+02  0.97589824704E+02  0.00000000000E+00 0. -1.
         21   -1    0    0  501  503 -0.00000000000E+00 -0.00000000000E+00 -0.70074793692E+03  0.70074793692E+03  0.00000000000E+00 0. -1.
          6    1    1    2  501    0 -0.28202659544E+02  0.79457767914E+02 -0.57331980477E+03  0.60447375909E+03  0.17200000000E+03 0. -1.
         -6    1    1    2    0  502  0.28202659544E+02 -0.79457767914E+02 -0.29838307445E+02  0.19386400253E+03  0.17200000000E+03 0. -1.
</event>
<event>
 4    1  0.4394643E+000  0.1911993E+03  0.7818608E-02  0.1157384E+00
         21   -1    0    0  503  502  0.00000000000E+00  0.00000000000E+00  0.40857903518E+03  0.40857903518E+03  0.00000000000E+00 0. -1.
         21   -1    0    0  501  503 -0.00000000000E+00 -0.00000000000E+00 -0.89487073917E+02  0.89487073917E+02  0.00000000000E+00 0. -1.
          6    1    1    2  501    0 -0.83257637856E+02 -0.64294167667E+01  0.15652774840E+03  0.24709938826E+03  0.17200000000E+03 0. -1.
         -6    1    1    2    0  502  0.83257637856E+02  0.64294167667E+01  0.16256421286E+03  0.25096672083E+03  0.17200000000E+03 0. -1.
</event>
<event>
 4    1  0.4394643E+000  0.1995110E+03  0.7818608E-02  0.1150152E+00
         21   -1    0    0  501  502  0.00000000000E+00  0.00000000000E+00  0.24320958550E+04  0.24320958550E+04  0.00000000000E+00 0.  1.
         21   -1    0    0  502  503 -0.00000000000E+00 -0.00000000000E+00 -0.16803627994E+02  0.16803627994E+02  0.00000000000E+00 0.  1.
          6    1    1    2  501    0 -0.10099155082E+03 -0.46195903625E+01  0.14051599057E+04  0.14192529706E+04  0.17200000000E+03 0.  1.
         -6    1    1    2    0  503  0.10099155082E+03  0.46195903625E+01  0.10101323214E+04  0.10296465125E+04  0.17200000000E+03 0.  1.
</event>
<event>
 4    1  0.4394643E+000  0.2676551E+03  0.7818608E-02  0.1102629E+00
         21   -1    0    0  503  502  0.00000000000E+00  0.00000000000E+00  0.10810967731E+04  0.10810967731E+04  0.00000000000E+00 0.  1.
         21   -1    0    0  501  503 -0.00000000000E+00 -0.00000000000E+00 -0.76110377667E+02  0.76110377667E+02  0.00000000000E+00 0. -1.
          6    1    1    2  501    0  0.28044906130E+02 -0.20314714207E+03  0.29439553838E+03  0.39787939267E+03  0.17200000000E+03 0. -1.
         -6    1    1    2    0  502 -0.28044906130E+02  0.20314714207E+03  0.71059085707E+03  0.75932775812E+03  0.17200000000E+03 0.  1.
</event>
<event>
 4    1  0.4394643E+000  0.1876777E+03  0.7818608E-02  0.1160573E+00
         21   -1    0    0  501  502  0.00000000000E+00  0.00000000000E+00  0.22837028058E+02  0.22837028058E+02  0.00000000000E+00 0. -1.
         21   -1    0    0  502  503 -0.00000000000E+00 -0.00000000000E+00 -0.25798030175E+04  0.25798030175E+04  0.00000000000E+00 0. -1.
          6    1    1    2  501    0  0.35106691327E+02 -0.66380876028E+02 -0.45325656082E+03  0.49057559091E+03  0.17200000000E+03 0. -1.
         -6    1    1    2    0  503 -0.35106691327E+02  0.66380876028E+02 -0.21037094286E+04  0.21120644546E+04  0.17200000000E+03 0. -1.
</event>
<event>
 4    1  0.4394643E+000  0.1748902E+03  0.7818608E-02  0.1172842E+00
         21   -1    0    0  501  502  0.00000000000E+00  0.00000000000E+00  0.40335029957E+03  0.40335029957E+03  0.00000000000E+00 0.  1.
         21   -1    0    0  502  503 -0.00000000000E+00 -0.00000000000E+00 -0.90156424675E+02  0.90156424675E+02  0.00000000000E+00 0.  1.
          6    1    1    2  501    0  0.19192570262E+02  0.25184204512E+02  0.58238155518E+02  0.18433198764E+03  0.17200000000E+03 0.  1.
         -6    1    1    2    0  503 -0.19192570262E+02 -0.25184204512E+02  0.25495571938E+03  0.30917473660E+03  0.17200000000E+03 0.  1.
</event>
<event>
 4    1  0.4394643E+000  0.1802361E+03  0.7818608E-02  0.1167575E+00
         21   -1    0    0  501  502  0.00000000000E+00  0.00000000000E+00  0.79998998644E+02  0.79998998644E+02  0.00000000000E+00 0.  1.
         21   -1    0    0  502  503 -0.00000000000E+00 -0.00000000000E+00 -0.95103960197E+03  0.95103960197E+03  0.00000000000E+00 0.  1.
          6    1    1    2  501    0 -0.16296007842E+02  0.51337015569E+02 -0.45279669457E+02  0.18583674961E+03  0.17200000000E+03 0.  1.
         -6    1    1    2    0  503  0.16296007842E+02 -0.51337015569E+02 -0.82576093387E+03  0.84520185100E+03  0.17200000000E+03 0.  1.
</event>
<event>
 4    1  0.4394643E+000  0.2209759E+03  0.7818608E-02  0.1133158E+00
         21   -1    0    0  503  502  0.00000000000E+00  0.00000000000E+00  0.42560166616E+03  0.42560166616E+03  0.00000000000E+00 0. -1.
         21   -1    0    0  501  503 -0.00000000000E+00 -0.00000000000E+00 -0.17983559148E+03  0.17983559148E+03  0.00000000000E+00 0. -1.
          6    1    1    2  501    0 -0.10948340067E+02  0.13829851743E+03 -0.59255609978E+02  0.22878280833E+03  0.17200000000E+03 0. -1.
         -6    1    1    2    0  502  0.10948340067E+02 -0.13829851743E+03  0.30502168466E+03  0.37665444931E+03  0.17200000000E+03 0. -1.
</event>
<event>
 4    1  0.4394643E+000  0.1974250E+03  0.7818608E-02  0.1151930E+00
         21   -1    0    0  501  502  0.00000000000E+00  0.00000000000E+00  0.48670281159E+02  0.48670281159E+02  0.00000000000E+00 0.  1.
         21   -1    0    0  502  503 -0.00000000000E+00 -0.00000000000E+00 -0.81410641902E+03  0.81410641902E+03  0.00000000000E+00 0. -1.
          6    1    1    2  501    0  0.93409877117E+02  0.25830913024E+02 -0.43780665100E+03  0.48026170456E+03  0.17200000000E+03 0. -1.
         -6    1    1    2    0  503 -0.93409877117E+02 -0.25830913024E+02 -0.32762948687E+03  0.38251499562E+03  0.17200000000E+03 0.  1.
</event>
<event>
 4    1  0.4394643E+000  0.2597422E+03  0.7818608E-02  0.1107298E+00
         21   -1    0    0  501  502  0.00000000000E+00  0.00000000000E+00  0.23542909835E+03  0.23542909835E+03  0.00000000000E+00 0.  1.
         21   -1    0    0  502  503 -0.00000000000E+00 -0.00000000000E+00 -0.30933640796E+03  0.30933640796E+03  0.00000000000E+00 0. -1.
          6    1    1    2  501    0 -0.19462265019E+03 -0.20021567649E+01  0.36947138955E+02  0.26235677174E+03  0.17200000000E+03 0.  1.
         -6    1    1    2    0  503  0.19462265019E+03  0.20021567649E+01 -0.11085444856E+03  0.28240873458E+03  0.17200000000E+03 0.  1.
</event>
<event>
 4    1  0.4394643E+000  0.1763044E+03  0.7818608E-02  0.1171428E+00
         21   -1    0    0  503  502  0.00000000000E+00  0.00000000000E+00  0.73665889204E+02  0.73665889204E+02  0.00000000000E+00 0. -1.
         21   -1    0    0  501  503 -0.00000000000E+00 -0.00000000000E+00 -0.42585390216E+03  0.42585390216E+03  0.00000000000E+00 0. -1.
          6    1    1    2  501    0  0.38480174852E+02  0.43043242773E+01 -0.20001038223E+03  0.26662221225E+03  0.17200000000E+03 0. -1.
         -6    1    1    2    0  502 -0.38480174852E+02 -0.43043242773E+01 -0.15217763072E+03  0.23289757911E+03  0.17200000000E+03 0. -1.
</event>
<event>
 4    1  0.4394643E+000  0.1742691E+03  0.7818608E-02  0.1173468E+00
         21   -1    0    0  503  502  0.00000000000E+00  0.00000000000E+00  0.53748886828E+03  0.53748886828E+03  0.00000000000E+00 0.  1.
         21   -1    0    0  501  503 -0.00000000000E+00 -0.00000000000E+00 -0.91471726076E+02  0.91471726076E+02  0.00000000000E+00 0.  1.
          6    1    1    2  501    0 -0.24254755205E+02 -0.14050647912E+02  0.28566545445E+02  0.17659490756E+03  0.17200000000E+03 0.  1.
         -6    1    1    2    0  502  0.24254755205E+02  0.14050647912E+02  0.41745059676E+03  0.45236568680E+03  0.17200000000E+03 0.  1.
</event>
<event>
 4    1  0.4394643E+000  0.1782590E+03  0.7818608E-02  0.1169499E+00
         21   -1    0    0  503  502  0.00000000000E+00  0.00000000000E+00  0.95475024588E+02  0.95475024588E+02  0.00000000000E+00 0.  1.
         21   -1    0    0  501  503 -0.00000000000E+00 -0.00000000000E+00 -0.35419489274E+03  0.35419489274E+03  0.00000000000E+00 0.  1.
          6    1    1    2  501    0  0.45904272956E+02 -0.92236934343E+01 -0.18458862505E+03  0.25661106620E+03  0.17200000000E+03 0.  1.
         -6    1    1    2    0  502 -0.45904272956E+02  0.92236934343E+01 -0.74131243099E+02  0.19305885113E+03  0.17200000000E+03 0.  1.
</event>
<event>
 4    1  0.4394643E+000  0.2339971E+03  0.7818608E-02  0.1123858E+00
         21   -1    0    0  501  502  0.00000000000E+00  0.00000000000E+00  0.19585982967E+03  0.19585982967E+03  0.00000000000E+00 0. -1.
         21   -1    0    0  502  503 -0.00000000000E+00 -0.00000000000E+00 -0.27975346721E+03  0.27975346721E+03  0.00000000000E+00 0. -1.
          6    1    1    2  501    0 -0.47124564146E+02  0.15149226944E+03 -0.35697886827E+02  0.23670439660E+03  0.17200000000E+03 0. -1.
         -6    1    1    2    0  503  0.47124564146E+02 -0.15149226944E+03 -0.48195750704E+02  0.23890890028E+03  0.17200000000E+03 0. -1.
</event>
<event>
 4    1  0.4394643E+000  0.1817699E+03  0.7818608E-02  0.1166101E+00
         21   -1    0    0  501  502  0.00000000000E+00  0.00000000000E+00  0.64079049594E+03  0.64079049594E+03  0.00000000000E+00 0.  1.
         21   -1    0    0  502  503 -0.00000000000E+00 -0.00000000000E+00 -0.73540054854E+02  0.73540054854E+02  0.00000000000E+00 0. -1.
          6    1    1    2  501    0 -0.22017368106E+02 -0.54511597969E+02  0.47888120749E+03  0.51221820516E+03  0.17200000000E+03 0.  1.
         -6    1    1    2    0  503  0.22017368106E+02  0.54511597969E+02  0.88369233599E+02  0.20211234564E+03  0.17200000000E+03 0. -1.
</event>
<event>
 4    1  0.4394643E+000  0.2276433E+03  0.7818608E-02  0.1128310E+00
         21   -1    0    0  501  502  0.00000000000E+00  0.00000000000E+00  0.13966796401E+03  0.13966796401E+03  0.00000000000E+00 0.  1.
         21   -1    0    0  502  503 -0.00000000000E+00 -0.00000000000E+00 -0.42762070443E+03  0.42762070443E+03  0.00000000000E+00 0.  1.
          6    1    1    2  501    0 -0.13392738907E+03  0.65581417345E+02 -0.40794219539E+02  0.23126961796E+03  0.17200000000E+03 0.  1.
         -6    1    1    2    0  503  0.13392738907E+03 -0.65581417345E+02 -0.24715852088E+03  0.33601905048E+03  0.17200000000E+03 0.  1.
</event>
<event>
 4    1  0.4394643E+000  0.3005961E+03  0.7818608E-02  0.1084943E+00
         21   -1    0    0  503  502  0.00000000000E+00  0.00000000000E+00  0.35779474581E+03  0.35779474581E+03  0.00000000000E+00 0. -1.
         21   -1    0    0  501  503 -0.00000000000E+00 -0.00000000000E+00 -0.57514348132E+03  0.57514348132E+03  0.00000000000E+00 0.  1.
          6    1    1    2  501    0  0.10455210456E+03  0.22325518260E+03 -0.45803045289E+03  0.54785939337E+03  0.17200000000E+03 0.  1.
         -6    1    1    2    0  502 -0.10455210456E+03 -0.22325518260E+03  0.24068171739E+03  0.38507883376E+03  0.17200000000E+03 0. -1.
</event>
<event>
 4    1  0.4394643E+000  0.1725767E+03  0.7818608E-02  0.1175187E+00
         21   -1    0    0  501  502  0.00000000000E+00  0.00000000000E+00  0.49268246221E+03  0.49268246221E+03  0.00000000000E+00 0.  1.
         21   -1    0    0  502  503 -0.00000000000E+00 -0.00000000000E+00 -0.71382251083E+02  0.71382251083E+02  0.00000000000E+00 0.  1.
          6    1    1    2  501    0 -0.97483206681E+00  0.14063432599E+02  0.32102125558E+03  0.36446862275E+03  0.17200000000E+03 0.  1.
         -6    1    1    2    0  503  0.97483206681E+00 -0.14063432599E+02  0.10027895554E+03  0.19959609054E+03  0.17200000000E+03 0.  1.
</event>
<event>
 4    1  0.4394643E+000  0.2443949E+03  0.7818608E-02  0.1116899E+00
         21   -1    0    0  501  502  0.00000000000E+00  0.00000000000E+00  0.50854490288E+03  0.50854490288E+03  0.00000000000E+00 0. -1.
         21   -1    0    0  502  503 -0.00000000000E+00 -0.00000000000E+00 -0.14994317223E+03  0.14994317223E+03  0.00000000000E+00 0.  1.
          6    1    1    2  501    0 -0.13424548324E+03  0.11010455165E+03  0.26034390447E+02  0.24577764656E+03  0.17200000000E+03 0.  1.
         -6    1    1    2    0  503  0.13424548324E+03 -0.11010455165E+03  0.33256734021E+03  0.41271042855E+03  0.17200000000E+03 0. -1.
</event>
<event>
 4    1  0.4394643E+000  0.2299171E+03  0.7818608E-02  0.1126698E+00
         21   -1    0    0  501  502  0.00000000000E+00  0.00000000000E+00  0.32044216077E+03  0.32044216077E+03  0.00000000000E+00 0.  1.
         21   -1    0    0  502  503 -0.00000000000E+00 -0.00000000000E+00 -0.25150594762E+03  0.25150594762E+03  0.00000000000E+00 0. -1.
          6    1    1    2  501    0 -0.25214864648E+02  0.15047290587E+03  0.20221797957E+03  0.30619274332E+03  0.17200000000E+03 0.  1.
         -6    1    1    2    0  503  0.25214864648E+02 -0.15047290587E+03 -0.13328176642E+03  0.26575536507E+03  0.17200000000E+03 0. -1.
</event>
<event>
 4    1  0.4394643E+000  0.1741507E+03  0.7818608E-02  0.1173587E+00
         21   -1    0    0  503  502  0.00000000000E+00  0.00000000000E+00  0.29855927824E+03  0.29855927824E+03  0.00000000000E+00 0.  1.
         21   -1    0    0  501  503 -0.00000000000E+00 -0.00000000000E+00 -0.10473740484E+03  0.10473740484E+03  0.00000000000E+00 0.  1.
          6    1    1    2  501    0  0.25881855479E+02  0.86361572698E+01  0.13190738928E+03  0.21846741863E+03  0.17200000000E+03 0. -1.
         -6    1    1    2    0  502 -0.25881855479E+02 -0.86361572698E+01  0.61914484111E+02  0.18482926445E+03  0.17200000000E+03 0. -1.
</event>
<event>
 4    1  0.4394643E+000  0.1916814E+03  0.7818608E-02  0.1156954E+00
         21   -1    0    0  503  502  0.00000000000E+00  0.00000000000E+00  0.18471262014E+03  0.18471262014E+03  0.00000000000E+00 0. -1.
         21   -1    0    0  501  503 -0.00000000000E+00 -0.00000000000E+00 -0.21719931733E+03  0.21719931733E+03  0.00000000000E+00 0. -1.
          6    1    1    2  501    0 -0.11368871908E+02 -0.83836150614E+02 -0.74552156947E+02  0.20566909224E+03  0.17200000000E+03 0. -1.
         -6    1    1    2    0  502  0.11368871908E+02  0.83836150614E+02  0.42065459750E+02  0.19624284523E+03  0.17200000000E+03 0. -1.
</event>
<event>
 4    1  0.4394643E+000  0.1903620E+03  0.7818608E-02  0.1158135E+00
         21   -1    0    0  501  502  0.00000000000E+00  0.00000000000E+00  0.24670256319E+03  0.24670256319E+03  0.00000000000E+00 0. -1.
         21   -1    0    0  502  503 -0.00000000000E+00 -0.00000000000E+00 -0.14689025726E+03  0.14689025726E+03  0.00000000000E+00 0. -1.
          6    1    1    2  501    0  0.76399665047E+02  0.28579503651E+02  0.50641619609E+02  0.19698291927E+03  0.17200000000E+03 0. -1.
         -6    1    1    2    0  503 -0.76399665047E+02 -0.28579503651E+02  0.49170686325E+02  0.19660990118E+03  0.17200000000E+03 0. -1.
</event>
<event>
 4    1  0.4394643E+000  0.1952999E+03  0.7818608E-02  0.1153766E+00
         21   -1    0    0  503  502  0.00000000000E+00  0.00000000000E+00  0.83659349049E+02  0.83659349049E+02  0.00000000000E+00 0. -1.
         21   -1    0    0  501  503 -0.00000000000E+00 -0.00000000000E+00 -0.47603202750E+03  0.47603202750E+03  0.00000000000E+00 0. -1.
          6    1    1    2  501    0  0.81471607429E+02 -0.43822825827E+02 -0.25370602795E+03  0.32016997283E+03  0.17200000000E+03 0. -1.
         -6    1    1    2    0  502 -0.81471607429E+02  0.43822825827E+02 -0.13866665050E+03  0.23952140372E+03  0.17200000000E+03 0. -1.
</event>
<event>
 4    1  0.4394643E+000  0.2604862E+03  0.7818608E-02  0.1106851E+00
         21   -1    0    0  503  502  0.00000000000E+00  0.00000000000E+00  0.65071705360E+03  0.65071705360E+03  0.00000000000E+00 0.  1.
         21   -1    0    0  501  503 -0.00000000000E+00 -0.00000000000E+00 -0.18764466120E+03  0.18764466120E+03  0.00000000000E+00 0.  1.
          6    1    1    2  501    0  0.48921600406E+02  0.18940889894E+03 -0.47872051755E+02  0.26484861208E+03  0.17200000000E+03 0.  1.
         -6    1    1    2    0  502 -0.48921600406E+02 -0.18940889894E+03  0.51094444415E+03  0.57351310272E+03  0.17200000000E+03 0.  1.
</event>
<event>
 4    1  0.4394643E+000  0.1771368E+03  0.7818608E-02  0.1170603E+00
         21   -1    0    0  501  502  0.00000000000E+00  0.00000000000E+00  0.57785138582E+03  0.57785138582E+03  0.00000000000E+00 0. -1.
         21   -1    0    0  502  503 -0.00000000000E+00 -0.00000000000E+00 -0.11351831856E+03  0.11351831856E+03  0.00000000000E+00 0. -1.
          6    1    1    2  501    0 -0.56292748179E+01  0.41973179598E+02  0.48184134815E+03  0.51336977056E+03  0.17200000000E+03 0. -1.
         -6    1    1    2    0  503  0.56292748179E+01 -0.41973179598E+02 -0.17508280884E+02  0.17799993382E+03  0.17200000000E+03 0. -1.
</event>
<event>
 4    1  0.4394643E+000  0.1743117E+03  0.7818608E-02  0.1173425E+00
         21   -1    0    0  501  502  0.00000000000E+00  0.00000000000E+00  0.53512243707E+02  0.53512243707E+02  0.00000000000E+00 0.  1.
         21   -1    0    0  502  503 -0.00000000000E+00 -0.00000000000E+00 -0.72490018726E+03  0.72490018726E+03  0.00000000000E+00 0.  1.
          6    1    1    2  501    0 -0.19090381946E+02  0.20883768752E+02 -0.15450962184E+03  0.23293303270E+03  0.17200000000E+03 0.  1.
         -6    1    1    2    0  503  0.19090381946E+02 -0.20883768752E+02 -0.51687832171E+03  0.54547939827E+03  0.17200000000E+03 0.  1.
</event>
<event>
 4    1  0.4394643E+000  0.1922692E+03  0.7818608E-02  0.1156430E+00
         21   -1    0    0  501  502  0.00000000000E+00  0.00000000000E+00  0.43260540468E+03  0.43260540468E+03  0.00000000000E+00 0.  1.
         21   -1    0    0  502  503 -0.00000000000E+00 -0.00000000000E+00 -0.87037423889E+02  0.87037423889E+02  0.00000000000E+00 0.  1.
          6    1    1    2  501    0  0.81580840145E+02 -0.26981558407E+02  0.13772858602E+03  0.23650919935E+03  0.17200000000E+03 0.  1.
         -6    1    1    2    0  503 -0.81580840145E+02  0.26981558407E+02  0.20783939477E+03  0.28313362922E+03  0.17200000000E+03 0.  1.
</event>
<event>
 4    1  0.4394643E+000  0.1848427E+03  0.7818608E-02  0.1163197E+00
         21   -1    0    0  503  502  0.00000000000E+00  0.00000000000E+00  0.63083244170E+03  0.63083244170E+03  0.00000000000E+00 0. -1.
         21   -1    0    0  501  503 -0.00000000000E+00 -0.00000000000E+00 -0.57802893284E+02  0.57802893284E+02  0.00000000000E+00 0.  1.
          6    1    1    2  501    0  0.13827354140E+02 -0.66269233396E+02  0.20009351159E+03  0.27240451611E+03  0.17200000000E+03 0.  1.
         -6    1    1    2    0  502 -0.13827354140E+02  0.66269233396E+02  0.37293603683E+03  0.41623081887E+03  0.17200000000E+03 0. -1.
</event>
<event>
 4    1  0.4394643E+000  0.2175430E+03  0.7818608E-02  0.1135728E+00
         21   -1    0    0  501  502  0.00000000000E+00  0.00000000000E+00  0.23820789732E+03  0.23820789732E+03  0.00000000000E+00 0. -1.
         21   -1    0    0  502  503 -0.00000000000E+00 -0.00000000000E+00 -0.19916575575E+03  0.19916575575E+03  0.00000000000E+00 0.  1.
          6    1    1    2  501    0 -0.43186526705E+02 -0.12599952223E+03  0.30422777395E+02  0.21965996694E+03  0.17200000000E+03 0. -1.
         -6    1    1    2    0  503  0.43186526705E+02  0.12599952223E+03  0.86193641731E+01  0.21771368614E+03  0.17200000000E+03 0.  1.
</event>
<event>
 4    1  0.4394643E+000  0.2062691E+03  0.7818608E-02  0.1144555E+00
         21   -1    0    0  501  502  0.00000000000E+00  0.00000000000E+00  0.39823554313E+03  0.39823554313E+03  0.00000000000E+00 0. -1.
         21   -1    0    0  502  503 -0.00000000000E+00 -0.00000000000E+00 -0.11712943407E+03  0.11712943407E+03  0.00000000000E+00 0. -1.
          6    1    1    2  501    0 -0.10793318521E+03 -0.36240181800E+02  0.21693266126E+03  0.29934378692E+03  0.17200000000E+03 0. -1.
         -6    1    1    2    0  503  0.10793318521E+03  0.36240181800E+02  0.64173447797E+02  0.21602119028E+03  0.17200000000E+03 0. -1.
</event>
<event>
 4    1  0.4394643E+000  0.1729904E+03  0.7818608E-02  0.1174765E+00
         21   -1    0    0  501  502  0.00000000000E+00  0.00000000000E+00  0.21612128310E+03  0.21612128310E+03  0.00000000000E+00 0.  1.
         21   -1    0    0  502  503 -0.00000000000E+00 -0.00000000000E+00 -0.14495969191E+03  0.14495969191E+03  0.00000000000E+00 0.  1.
          6    1    1    2  501    0 -0.15328284156E+02 -0.10331005043E+02  0.73789318206E+02  0.18807059696E+03  0.17200000000E+03 0. -1.
         -6    1    1    2    0  503  0.15328284156E+02  0.10331005043E+02 -0.26277270142E+01  0.17301037804E+03  0.17200000000E+03 0. -1.
</event>
<event>
 4    1  0.4394643E+000  0.2796335E+03  0.7818608E-02  0.1095889E+00
         21   -1    0    0  501  502  0.00000000000E+00  0.00000000000E+00  0.31374919169E+03  0.31374919169E+03  0.00000000000E+00 0.  1.
         21   -1    0    0  502  503 -0.00000000000E+00 -0.00000000000E+00 -0.26222484814E+03  0.26222484814E+03  0.00000000000E+00 0.  1.
          6    1    1    2  501    0 -0.46319422498E+02 -0.21555835263E+03  0.89877991528E+02  0.29372256578E+03  0.17200000000E+03 0.  1.
         -6    1    1    2    0  503  0.46319422498E+02  0.21555835263E+03 -0.38353647982E+02  0.28225147405E+03  0.17200000000E+03 0.  1.
</event>
<event>
 4    1  0.4394643E+000  0.1723012E+03  0.7818608E-02  0.1175469E+00
         21   -1    0    0  503  502  0.00000000000E+00  0.00000000000E+00  0.22721104220E+02  0.22721104220E+02  0.00000000000E+00 0. -1.
         21   -1    0    0  501  503 -0.00000000000E+00 -0.00000000000E+00 -0.13310053615E+04  0.13310053615E+04  0.00000000000E+00 0. -1.
          6    1    1    2  501    0  0.74800700905E+01 -0.69114033568E+01 -0.56251445462E+03  0.58831133815E+03  0.17200000000E+03 0.  1.
         -6    1    1    2    0  502 -0.74800700905E+01  0.69114033568E+01 -0.74576980261E+03  0.76541512752E+03  0.17200000000E+03 0.  1.
</event>
<event>
 4    1  0.4394643E+000  0.1752905E+03  0.7818608E-02  0.1172440E+00
         21   -1    0    0  501  502  0.00000000000E+00  0.00000000000E+00  0.76899076923E+02  0.76899076923E+02  0.00000000000E+00 0. -1.
         21   -1    0    0  502  503 -0.00000000000E+00 -0.00000000000E+00 -0.42027501954E+03  0.42027501954E+03  0.00000000000E+00 0. -1.
          6    1    1    2  501    0  0.10371594549E+02  0.32174240070E+02 -0.11651530736E+03  0.21048175348E+03  0.17200000000E+03 0. -1.
         -6    1    1    2    0  503 -0.10371594549E+02 -0.32174240070E+02 -0.22686063525E+03  0.28669234298E+03  0.17200000000E+03 0. -1.
</event>
<event>
 4    1  0.4394643E+000  0.2352610E+03  0.7818608E-02  0.1122991E+00
         21   -1    0    0  501  502  0.00000000000E+00  0.00000000000E+00  0.81084665376E+03  0.81084665376E+03  0.00000000000E+00 0.  1.
         21   -1    0    0  502  503 -0.00000000000E+00 -0.00000000000E+00 -0.15006342676E+03  0.15006342676E+03  0.00000000000E+00 0.  1.
          6    1    1    2  501    0 -0.75113843546E+02 -0.14185086685E+03  0.68512588633E+03  0.72439301352E+03  0.17200000000E+03 0.  1.
         -6    1    1    2    0  503  0.75113843546E+02  0.14185086685E+03 -0.24342659341E+02  0.23651706700E+03  0.17200000000E+03 0.  1.
</event>
<event>
 4    1  0.4394643E+000  0.2847455E+03  0.7818608E-02  0.1093125E+00
         21   -1    0    0  501  502  0.00000000000E+00  0.00000000000E+00  0.79838177629E+03  0.79838177629E+03  0.00000000000E+00 0. -1.
         21   -1    0    0  502  503 -0.00000000000E+00 -0.00000000000E+00 -0.12114819928E+03  0.12114819928E+03  0.00000000000E+00 0.  1.
          6    1    1    2  501    0  0.46011536904E+02  0.22221377014E+03  0.52351175835E+03  0.59594008281E+03  0.17200000000E+03 0. -1.
         -6    1    1    2    0  503 -0.46011536904E+02 -0.22221377014E+03  0.15372181865E+03  0.32358989276E+03  0.17200000000E+03 0.  1.
</event>
<event>
 4    1  0.4394643E+000  0.2301401E+03  0.7818608E-02  0.1126541E+00
         21   -1    0    0  503  502  0.00000000000E+00  0.00000000000E+00  0.62514127957E+03  0.62514127957E+03  0.00000000000E+00 0. -1.
         21   -1    0    0  501  503 -0.00000000000E+00 -0.00000000000E+00 -0.24328429466E+03  0.24328429466E+03  0.00000000000E+00 0.  1.
          6    1    1    2  501    0 -0.13526834306E+03 -0.71294778575E+02 -0.15961571365E+03  0.28007435822E+03  0.17200000000E+03 0.  1.
         -6    1    1    2    0  502  0.13526834306E+03  0.71294778575E+02  0.54147269857E+03  0.58835121601E+03  0.17200000000E+03 0. -1.
</event>
<event>
 4    1  0.4394643E+000  0.1987150E+03  0.7818608E-02  0.1150828E+00
         21   -1    0    0  501  502  0.00000000000E+00  0.00000000000E+00  0.10512912977E+03  0.10512912977E+03  0.00000000000E+00 0.  1.
         21   -1    0    0  502  503 -0.00000000000E+00 -0.00000000000E+00 -0.47282411385E+03  0.47282411385E+03  0.00000000000E+00 0.  1.
          6    1    1    2  501    0  0.38431580608E+02 -0.91796883129E+02 -0.52816086078E+02  0.20561418504E+03  0.17200000000E+03 0.  1.
         -6    1    1    2    0  503 -0.38431580608E+02  0.91796883129E+02 -0.31487889800E+03  0.37233905858E+03  0.17200000000E+03 0.  1.
</event>
<event>
 4    1  0.4394643E+000  0.1799710E+03  0.7818608E-02  0.1167831E+00
         21   -1    0    0  503  502  0.00000000000E+00  0.00000000000E+00  0.11673566720E+03  0.11673566720E+03  0.00000000000E+00 0. -1.
         21   -1    0    0  501  503 -0.00000000000E+00 -0.00000000000E+00 -0.28754859365E+03  0.28754859365E+03  0.00000000000E+00 0. -1.
          6    1    1    2  501    0  0.50150282707E+02 -0.17044619811E+02 -0.12326812063E+03  0.21813894536E+03  0.17200000000E+03 0. -1.
         -6    1    1    2    0  502 -0.50150282707E+02  0.17044619811E+02 -0.47544805827E+02  0.18614531550E+03  0.17200000000E+03 0. -1.
</event>
<event>
 4    1  0.4394643E+000  0.1903637E+03  0.7818608E-02  0.1158134E+00
         21   -1    0    0  501  502  0.00000000000E+00  0.00000000000E+00  0.35596978410E+03  0.35596978410E+03  0.00000000000E+00 0.  1.
         21   -1    0    0  502  503 -0.00000000000E+00 -0.00000000000E+00 -0.14283171975E+03  0.14283171975E+03  0.00000000000E+00 0. -1.
          6    1    1    2  501    0 -0.28205065141E+02  0.76542867990E+02  0.24023971984E+03  0.30651828547E+03  0.17200000000E+03 0.  1.
         -6    1    1    2    0  503  0.28205065141E+02 -0.76542867990E+02 -0.27101655494E+02  0.19228321838E+03  0.17200000000E+03 0. -1.
</event>
<event>
 4    1  0.4394643E+000  0.1754685E+03  0.7818608E-02  0.1172262E+00
         21   -1    0    0  503  502  0.00000000000E+00  0.00000000000E+00  0.25894058148E+03  0.25894058148E+03  0.00000000000E+00 0.  1.
         21   -1    0    0  501  503 -0.00000000000E+00 -0.00000000000E+00 -0.12616194334E+03  0.12616194334E+03  0.00000000000E+00 0. -1.
          6    1    1    2  501    0 -0.28893457548E+02  0.19245223514E+02  0.20207308129E+02  0.17662827016E+03  0.17200000000E+03 0. -1.
         -6    1    1    2    0  502  0.28893457548E+02 -0.19245223514E+02  0.11257133001E+03  0.20847425466E+03  0.17200000000E+03 0.  1.
</event>
<event>
 4    1  0.4394643E+000  0.1810611E+03  0.7818608E-02  0.1166780E+00
         21   -1    0    0  501  502  0.00000000000E+00  0.00000000000E+00  0.10687977878E+03  0.10687977878E+03  0.00000000000E+00 0. -1.
         21   -1    0    0  502  503 -0.00000000000E+00 -0.00000000000E+00 -0.59447622801E+03  0.59447622801E+03  0.00000000000E+00 0. -1.
          6    1    1    2  501    0 -0.29382368559E+02  0.48329926983E+02  0.17772114164E+00  0.18106114163E+03  0.17200000000E+03 0. -1.
         -6    1    1    2    0  503  0.29382368559E+02 -0.48329926983E+02 -0.48777417037E+03  0.52029486516E+03  0.17200000000E+03 0. -1.
</event>
<event>
 4    1  0.4394643E+000  0.2036493E+03  0.7818608E-02  0.1146696E+00
         21   -1    0    0  503  502  0.00000000000E+00  0.00000000000E+00  0.14229903774E+03  0.14229903774E+03  0.00000000000E+00 0. -1.
         21   -1    0    0  501  503 -0.00000000000E+00 -0.00000000000E+00 -0.41876104076E+03  0.41876104076E+03  0.00000000000E+00 0. -1.
          6    1    1    2  501    0  0.10503663028E+03 -0.29263245865E+02 -0.29290935862E+03  0.35674770304E+03  0.17200000000E+03 0. -1.
         -6    1    1    2    0  502 -0.10503663028E+03  0.29263245865E+02  0.16447355610E+02  0.20431237546E+03  0.17200000000E+03 0. -1.
</event>
<event>
 4    1  0.4394643E+000  0.1771408E+03  0.7818608E-02  0.1170599E+00
         21   -1    0    0  501  502  0.00000000000E+00  0.00000000000E+00  0.68938445905E+03  0.68938445905E+03  0.00000000000E+00 0. -1.
         21   -1    0    0  502  503 -0.00000000000E+00 -0.00000000000E+00 -0.52661147923E+02  0.52661147923E+02  0.00000000000E+00 0. -1.
          6    1    1    2  501    0 -0.15154464022E+02  0.39562715495E+02  0.45501613719E+03  0.48828122158E+03  0.17200000000E+03 0. -1.
         -6    1    1    2    0  503  0.15154464022E+02 -0.39562715495E+02  0.18170717393E+03  0.25376438540E+03  0.17200000000E+03 0. -1.
</event>
<event>
 4    1  0.4394643E+000  0.2631504E+03  0.7818608E-02  0.1105265E+00
         21   -1    0    0  501  502  0.00000000000E+00  0.00000000000E+00  0.78066810527E+02  0.78066810527E+02  0.00000000000E+00 0. -1.
         21   -1    0    0  502  503 -0.00000000000E+00 -0.00000000000E+00 -0.20965241979E+04  0.20965241979E+04  0.00000000000E+00 0. -1.
          6    1    1    2  501    0  0.88543252287E+02 -0.17839345613E+03 -0.18338410216E+03  0.32074578975E+03  0.17200000000E+03 0. -1.
         -6    1    1    2    0  503 -0.88543252287E+02  0.17839345613E+03 -0.18350732853E+04  0.18538452187E+04  0.17200000000E+03 0. -1.
</event>
<event>
 4    1  0.4394643E+000  0.2335430E+03  0.7818608E-02  0.1124171E+00
         21   -1    0    0  501  502  0.00000000000E+00  0.00000000000E+00  0.42458083472E+03  0.42458083472E+03  0.00000000000E+00 0.  1.
         21   -1    0    0  502  503 -0.00000000000E+00 -0.00000000000E+00 -0.14234561114E+03  0.14234561114E+03  0.00000000000E+00 0.  1.
          6    1    1    2  501    0  0.14767469200E+03  0.56129366006E+02  0.52589207835E+02  0.23939077920E+03  0.17200000000E+03 0.  1.
         -6    1    1    2    0  503 -0.14767469200E+03 -0.56129366006E+02  0.22964601574E+03  0.32753566666E+03  0.17200000000E+03 0.  1.
</event>
<event>
 4    1  0.4394643E+000  0.2552018E+03  0.7818608E-02  0.1110061E+00
         21   -1    0    0  501  502  0.00000000000E+00  0.00000000000E+00  0.11977072928E+04  0.11977072928E+04  0.00000000000E+00 0. -1.
         21   -1    0    0  502  503 -0.00000000000E+00 -0.00000000000E+00 -0.68354821472E+02  0.68354821472E+02  0.00000000000E+00 0. -1.
          6    1    1    2  501    0  0.78614248296E+02 -0.17135856999E+03  0.85093395119E+03  0.88837860669E+03  0.17200000000E+03 0. -1.
         -6    1    1    2    0  503 -0.78614248296E+02  0.17135856999E+03  0.27841852015E+03  0.37768350759E+03  0.17200000000E+03 0. -1.
</event>
<event>
 4    1  0.4394643E+000  0.2633128E+03  0.7818608E-02  0.1105169E+00
         21   -1    0    0  503  502  0.00000000000E+00  0.00000000000E+00  0.90913416985E+03  0.90913416985E+03  0.00000000000E+00 0. -1.
         21   -1    0    0  501  503 -0.00000000000E+00 -0.00000000000E+00 -0.93846631163E+02  0.93846631163E+02  0.00000000000E+00 0. -1.
          6    1    1    2  501    0  0.15844523215E+03  0.12101539059E+03  0.19057204554E+03  0.32504049115E+03  0.17200000000E+03 0. -1.
         -6    1    1    2    0  502 -0.15844523215E+03 -0.12101539059E+03  0.62471549315E+03  0.67794030986E+03  0.17200000000E+03 0. -1.
</event>
<event>
 4    1  0.4394643E+000  0.1832938E+03  0.7818608E-02  0.1164653E+00
         21   -1    0    0  501  502  0.00000000000E+00  0.00000000000E+00  0.36375239097E+03  0.36375239097E+03  0.00000000000E+00 0.  1.
         21   -1    0    0  502  503 -0.00000000000E+00 -0.00000000000E+00 -0.93421474946E+02  0.93421474946E+02  0.00000000000E+00 0.  1.
          6    1    1    2  501    0 -0.90285183565E+01  0.62698461862E+02  0.15951748280E+03  0.24298649876E+03  0.17200000000E+03 0.  1.
         -6    1    1    2    0  503  0.90285183565E+01 -0.62698461862E+02  0.11081343323E+03  0.21418736715E+03  0.17200000000E+03 0.  1.
</event>
<event>
 4    1  0.4394643E+000  0.1726980E+03  0.7818608E-02  0.1175063E+00
         21   -1    0    0  503  502  0.00000000000E+00  0.00000000000E+00  0.54198819342E+03  0.54198819342E+03  0.00000000000E+00 0.  1.
         21   -1    0    0  501  503 -0.00000000000E+00 -0.00000000000E+00 -0.59298808828E+02  0.59298808828E+02  0.00000000000E+00 0.  1.
          6    1    1    2  501    0 -0.11739808444E+02  0.10137501554E+02  0.16066249171E+03  0.23587502683E+03  0.17200000000E+03 0.  1.
         -6    1    1    2    0  502  0.11739808444E+02 -0.10137501554E+02  0.32202689288E+03  0.36541197542E+03  0.17200000000E+03 0.  1.
</event>
<event>
 4    1  0.4394643E+000  0.3577811E+03  0.7818608E-02  0.1059466E+00
         21   -1    0    0  501  502  0.00000000000E+00  0.00000000000E+00  0.15681367024E+03  0.15681367024E+03  0.00000000000E+00 0. -1.
         21   -1    0    0  502  503 -0.00000000000E+00 -0.00000000000E+00 -0.10608173005E+04  0.10608173005E+04  0.00000000000E+00 0.  1.
          6    1    1    2  501    0 -0.47307975532E+02 -0.31013749111E+03 -0.15970879808E+03  0.39180889235E+03  0.17200000000E+03 0. -1.
         -6    1    1    2    0  503  0.47307975532E+02  0.31013749111E+03 -0.74429483221E+03  0.82582207841E+03  0.17200000000E+03 0. -1.
</event>
<event>
 4    1  0.4394643E+000  0.1935031E+03  0.7818608E-02  0.1155339E+00
         21   -1    0    0  503  502  0.00000000000E+00  0.00000000000E+00  0.67229870446E+03  0.67229870446E+03  0.00000000000E+00 0. -1.
         21   -1    0    0  501  503 -0.00000000000E+00 -0.00000000000E+00 -0.13043949832E+03  0.13043949832E+03  0.00000000000E+00 0. -1.
          6    1    1    2  501    0 -0.69985389413E+02  0.54419600678E+02 -0.32899925685E+02  0.19628003663E+03  0.17200000000E+03 0. -1.
         -6    1    1    2    0  502  0.69985389413E+02 -0.54419600678E+02  0.57475913183E+03  0.60645816615E+03  0.17200000000E+03 0. -1.
</event>
<event>
 4    1  0.4394643E+000  0.1759269E+03  0.7818608E-02  0.1171804E+00
         21   -1    0    0  503  502  0.00000000000E+00  0.00000000000E+00  0.55536475226E+03  0.55536475226E+03  0.00000000000E+00 0. -1.
         21   -1    0    0  501  503 -0.00000000000E+00 -0.00000000000E+00 -0.12514146925E+03  0.12514146925E+03  0.00000000000E+00 0. -1.
          6    1    1    2  501    0  0.86539987403E+01  0.35935677665E+02 -0.38295178066E+02  0.18004661976E+03  0.17200000000E+03 0. -1.
         -6    1    1    2    0  502 -0.86539987403E+01 -0.35935677665E+02  0.46851846107E+03  0.50045960175E+03  0.17200000000E+03 0. -1.
</event>
<event>
 4    1  0.4394643E+000  0.1924340E+03  0.7818608E-02  0.1156284E+00
         21   -1    0    0  501  502  0.00000000000E+00  0.00000000000E+00  0.43264549332E+02  0.43264549332E+02  0.00000000000E+00 0.  1.
         21   -1    0    0  502  503 -0.00000000000E+00 -0.00000000000E+00 -0.89328985806E+03  0.89328985806E+03  0.00000000000E+00 0.  1.
          6    1    1    2  501    0 -0.78752658717E+02 -0.35282590578E+02 -0.32922980197E+03  0.38134381463E+03  0.17200000000E+03 0.  1.
         -6    1    1    2    0  503  0.78752658717E+02  0.35282590578E+02 -0.52079550676E+03  0.55521059276E+03  0.17200000000E+03 0.  1.
</event>
<event>
 4    1  0.4394643E+000  0.1761840E+03  0.7818608E-02  0.1171548E+00
         21   -1    0    0  503  502  0.00000000000E+00  0.00000000000E+00  0.10144835894E+03  0.10144835894E+03  0.00000000000E+00 0.  1.
         21   -1    0    0  501  503 -0.00000000000E+00 -0.00000000000E+00 -0.37547463810E+03  0.37547463810E+03  0.00000000000E+00 0.  1.
          6    1    1    2  501    0 -0.75296706876E+01  0.37418108052E+02 -0.23960541066E+03  0.29740807583E+03  0.17200000000E+03 0.  1.
         -6    1    1    2    0  502  0.75296706876E+01 -0.37418108052E+02 -0.34420868501E+02  0.17951492122E+03  0.17200000000E+03 0.  1.
</event>
<event>
 4    1  0.4394643E+000  0.2028864E+03  0.7818608E-02  0.1147326E+00
         21   -1    0    0  503  502  0.00000000000E+00  0.00000000000E+00  0.13237583882E+03  0.13237583882E+03  0.00000000000E+00 0.  1.
         21   -1    0    0  501  503 -0.00000000000E+00 -0.00000000000E+00 -0.81610324849E+03  0.81610324849E+03  0.00000000000E+00 0.  1.
          6    1    1    2  501    0  0.96363019494E+02 -0.47885965453E+02 -0.71497185823E+03  0.74320095215E+03  0.17200000000E+03 0.  1.
         -6    1    1    2    0  502 -0.96363019494E+02  0.47885965453E+02  0.31244448555E+02  0.20527813517E+03  0.17200000000E+03 0.  1.
</event>
<event>
 4    1  0.4394643E+000  0.1941626E+03  0.7818608E-02  0.1154760E+00
         21   -1    0    0  503  502  0.00000000000E+00  0.00000000000E+00  0.62558216493E+03  0.62558216493E+03  0.00000000000E+00 0.  1.
         21   -1    0    0  501  503 -0.00000000000E+00 -0.00000000000E+00 -0.80583970255E+02  0.80583970255E+02  0.00000000000E+00 0.  1.
          6    1    1    2  501    0  0.63585401930E+02  0.63812222130E+02  0.95190071296E+02  0.21624119105E+03  0.17200000000E+03 0.  1.
         -6    1    1    2    0  502 -0.63585401930E+02 -0.63812222130E+02  0.44980812338E+03  0.48992494414E+03  0.17200000000E+03 0.  1.
</event>
<event>
 4    1  0.4394643E+000  0.2345542E+03  0.7818608E-02  0.1123475E+00
         21   -1    0    0  501  502  0.00000000000E+00  0.00000000000E+00  0.41377534936E+02  0.41377534936E+02  0.00000000000E+00 0.  1.
         21   -1    0    0  502  503 -0.00000000000E+00 -0.00000000000E+00 -0.13748177689E+04  0.13748177689E+04  0.00000000000E+00 0.  1.
          6    1    1    2  501    0  0.15944847435E+03 -0.28000758837E+01 -0.53830528849E+03  0.58718671648E+03  0.17200000000E+03 0.  1.
         -6    1    1    2    0  503 -0.15944847435E+03  0.28000758837E+01 -0.79513494552E+03  0.82900858740E+03  0.17200000000E+03 0.  1.
</event>
<event>
 4    1  0.4394643E+000  0.2043197E+03  0.7818608E-02  0.1146145E+00
         21   -1    0    0  503  502  0.00000000000E+00  0.00000000000E+00  0.32197900690E+03  0.32197900690E+03  0.00000000000E+00 0. -1.
         21   -1    0    0  501  503 -0.00000000000E+00 -0.00000000000E+00 -0.12992592688E+03  0.12992592688E+03  0.00000000000E+00 0. -1.
          6    1    1    2  501    0 -0.64231149052E+02 -0.89648793765E+02  0.85729776355E+02  0.22157649082E+03  0.17200000000E+03 0. -1.
         -6    1    1    2    0  502  0.64231149052E+02  0.89648793765E+02  0.10632330366E+03  0.23032844295E+03  0.17200000000E+03 0. -1.
</event>
<event>
 4    1  0.4394643E+000  0.1823965E+03  0.7818608E-02  0.1165504E+00
         21   -1    0    0  503  502  0.00000000000E+00  0.00000000000E+00  0.14521516135E+03  0.14521516135E+03  0.00000000000E+00 0.  1.
         21   -1    0    0  501  503 -0.00000000000E+00 -0.00000000000E+00 -0.23390235252E+03  0.23390235252E+03  0.00000000000E+00 0.  1.
          6    1    1    2  501    0 -0.24842766387E+02 -0.55383245067E+02 -0.71511443955E+02  0.19591414827E+03  0.17200000000E+03 0.  1.
         -6    1    1    2    0  502  0.24842766387E+02  0.55383245067E+02 -0.17175747218E+02  0.18320336560E+03  0.17200000000E+03 0.  1.
</event>
<event>
 4    1  0.4394643E+000  0.2168238E+03  0.7818608E-02  0.1136273E+00
         21   -1    0    0  501  502  0.00000000000E+00  0.00000000000E+00  0.56936912770E+03  0.56936912770E+03  0.00000000000E+00 0. -1.
         21   -1    0    0  502  503 -0.00000000000E+00 -0.00000000000E+00 -0.99997659625E+02  0.99997659625E+02  0.00000000000E+00 0. -1.
          6    1    1    2  501    0  0.43631326980E+01 -0.13194516452E+03  0.37440752805E+03  0.43265871126E+03  0.17200000000E+03 0. -1.
         -6    1    1    2    0  503 -0.43631326980E+01  0.13194516452E+03  0.94963940020E+02  0.23670807606E+03  0.17200000000E+03 0. -1.
</event>
<event>
 4    1  0.4394643E+000  0.1728709E+03  0.7818608E-02  0.1174887E+00
         21   -1    0    0  501  502  0.00000000000E+00  0.00000000000E+00  0.66430466611E+02  0.66430466611E+02  0.00000000000E+00 0.  1.
         21   -1    0    0  502  503 -0.00000000000E+00 -0.00000000000E+00 -0.50152028236E+03  0.50152028236E+03  0.00000000000E+00 0.  1.
          6    1    1    2  501    0 -0.17141065594E+02  0.25567566845E+01 -0.12640294075E+03  0.21415428215E+03  0.17200000000E+03 0.  1.
         -6    1    1    2    0  503  0.17141065594E+02 -0.25567566845E+01 -0.30868687500E+03  0.35379646682E+03  0.17200000000E+03 0.  1.
</event>
<event>
 4    1  0.4394643E+000  0.1855057E+03  0.7818608E-02  0.1162579E+00
         21   -1    0    0  501  502  0.00000000000E+00  0.00000000000E+00  0.37568638050E+03  0.37568638050E+03  0.00000000000E+00 0. -1.
         21   -1    0    0  502  503 -0.00000000000E+00 -0.00000000000E+00 -0.10571844066E+03  0.10571844066E+03  0.00000000000E+00 0.  1.
          6    1    1    2  501    0  0.32579615426E+02  0.61375252904E+02  0.22295095275E+03  0.29003358485E+03  0.17200000000E+03 0. -1.
         -6    1    1    2    0  503 -0.32579615426E+02 -0.61375252904E+02  0.47016987102E+02  0.19137123631E+03  0.17200000000E+03 0.  1.
</event>
<event>
 4    1  0.4394643E+000  0.2091384E+03  0.7818608E-02  0.1142250E+00
         21   -1    0    0  501  502  0.00000000000E+00  0.00000000000E+00  0.13560027687E+03  0.13560027687E+03  0.00000000000E+00 0.  1.
         21   -1    0    0  502  503 -0.00000000000E+00 -0.00000000000E+00 -0.38214089348E+03  0.38214089348E+03  0.00000000000E+00 0.  1.
          6    1    1    2  501    0 -0.71762681086E+02  0.94894719408E+02 -0.21050876795E+02  0.21019521779E+03  0.17200000000E+03 0.  1.
         -6    1    1    2    0  503  0.71762681086E+02 -0.94894719408E+02 -0.22548973982E+03  0.30754595255E+03  0.17200000000E+03 0.  1.
</event>
<event>
 4    1  0.4394643E+000  0.2172730E+03  0.7818608E-02  0.1135933E+00
         21   -1    0    0  501  502  0.00000000000E+00  0.00000000000E+00  0.17094379242E+03  0.17094379242E+03  0.00000000000E+00 0. -1.
         21   -1    0    0  502  503 -0.00000000000E+00 -0.00000000000E+00 -0.59360120434E+03  0.59360120434E+03  0.00000000000E+00 0. -1.
          6    1    1    2  501    0 -0.13076953811E+03 -0.22867071103E+02 -0.49087797978E+03  0.53681353007E+03  0.17200000000E+03 0. -1.
         -6    1    1    2    0  503  0.13076953811E+03  0.22867071103E+02  0.68220567856E+02  0.22773146668E+03  0.17200000000E+03 0. -1.
</event>
<event>
 4    1  0.4394643E+000  0.2262192E+03  0.7818608E-02  0.1129329E+00
         21   -1    0    0  503  502  0.00000000000E+00  0.00000000000E+00  0.29595831634E+03  0.29595831634E+03  0.00000000000E+00 0. -1.
         21   -1    0    0  501  503 -0.00000000000E+00 -0.00000000000E+00 -0.38931786881E+03  0.38931786881E+03  0.00000000000E+00 0.  1.
          6    1    1    2  501    0 -0.10745973326E+03 -0.10021746570E+03 -0.30213610645E+03  0.37744054038E+03  0.17200000000E+03 0.  1.
         -6    1    1    2    0  502  0.10745973326E+03  0.10021746570E+03  0.20877655397E+03  0.30783564477E+03  0.17200000000E+03 0. -1.
</event>
<event>
 4    1  0.4394643E+000  0.2037054E+03  0.7818608E-02  0.1146650E+00
         21   -1    0    0  501  502  0.00000000000E+00  0.00000000000E+00  0.12998902613E+03  0.12998902613E+03  0.00000000000E+00 0. -1.
         21   -1    0    0  502  503 -0.00000000000E+00 -0.00000000000E+00 -0.77038636335E+03  0.77038636335E+03  0.00000000000E+00 0.  1.
          6    1    1    2  501    0  0.72418204671E+02 -0.81654667105E+02  0.24313669525E+02  0.20515125043E+03  0.17200000000E+03 0. -1.
         -6    1    1    2    0  503 -0.72418204671E+02  0.81654667105E+02 -0.66471100674E+03  0.69522413905E+03  0.17200000000E+03 0.  1.
</event>
<event>
 4    1  0.4394643E+000  0.2455952E+03  0.7818608E-02  0.1116121E+00
         21   -1    0    0  501  502  0.00000000000E+00  0.00000000000E+00  0.88746535592E+02  0.88746535592E+02  0.00000000000E+00 0.  1.
         21   -1    0    0  502  503 -0.00000000000E+00 -0.00000000000E+00 -0.12667858948E+04  0.12667858948E+04  0.00000000000E+00 0. -1.
          6    1    1    2  501    0  0.15518294278E+03  0.81555220717E+02 -0.12760024153E+03  0.27676492082E+03  0.17200000000E+03 0.  1.
         -6    1    1    2    0  503 -0.15518294278E+03 -0.81555220717E+02 -0.10504391177E+04  0.10787675095E+04  0.17200000000E+03 0. -1.
</event>
<event>
 4    1  0.4394643E+000  0.1776811E+03  0.7818608E-02  0.1170066E+00
         21   -1    0    0  501  502  0.00000000000E+00  0.00000000000E+00  0.15183108332E+03  0.15183108332E+03  0.00000000000E+00 0. -1.
         21   -1    0    0  502  503 -0.00000000000E+00 -0.00000000000E+00 -0.31299354912E+03  0.31299354912E+03  0.00000000000E+00 0. -1.
          6    1    1    2  501    0  0.35660945406E+02 -0.26736861720E+02  0.54070840862E+02  0.18572619264E+03  0.17200000000E+03 0. -1.
         -6    1    1    2    0  503 -0.35660945406E+02  0.26736861720E+02 -0.21523330666E+03  0.27909843980E+03  0.17200000000E+03 0. -1.
</event>
<event>
 4    1  0.4394643E+000  0.3259398E+03  0.7818608E-02  0.1072948E+00
         21   -1    0    0  503  502  0.00000000000E+00  0.00000000000E+00  0.40378126656E+03  0.40378126656E+03  0.00000000000E+00 0.  1.
         21   -1    0    0  501  503 -0.00000000000E+00 -0.00000000000E+00 -0.32680873946E+03  0.32680873946E+03  0.00000000000E+00 0. -1.
          6    1    1    2  501    0 -0.23481650443E+03 -0.14667635246E+03 -0.12279370720E+03  0.34830308303E+03  0.17200000000E+03 0.  1.
         -6    1    1    2    0  502  0.23481650443E+03  0.14667635246E+03  0.19976623429E+03  0.38228692299E+03  0.17200000000E+03 0.  1.
</event>
<event>
 4    1  0.4394643E+000  0.1943386E+03  0.7818608E-02  0.1154605E+00
         21   -1    0    0  501  502  0.00000000000E+00  0.00000000000E+00  0.19542077692E+03  0.19542077692E+03  0.00000000000E+00 0. -1.
         21   -1    0    0  502  503 -0.00000000000E+00 -0.00000000000E+00 -0.19635579760E+03  0.19635579760E+03  0.00000000000E+00 0.  1.
          6    1    1    2  501    0 -0.82459598805E+02 -0.37200680341E+02 -0.25054700297E+02  0.19594696747E+03  0.17200000000E+03 0. -1.
         -6    1    1    2    0  503  0.82459598805E+02  0.37200680341E+02  0.24119679625E+02  0.19582960705E+03  0.17200000000E+03 0. -1.
</event>
<event>
 4    1  0.4394643E+000  0.1740951E+03  0.7818608E-02  0.1173643E+00
         21   -1    0    0  501  502  0.00000000000E+00  0.00000000000E+00  0.11312160329E+03  0.11312160329E+03  0.00000000000E+00 0. -1.
         21   -1    0    0  502  503 -0.00000000000E+00 -0.00000000000E+00 -0.39420042898E+03  0.39420042898E+03  0.00000000000E+00 0. -1.
          6    1    1    2  501    0 -0.29563881061E+01 -0.26765277583E+02  0.30224818418E+01  0.17412138212E+03  0.17200000000E+03 0. -1.
         -6    1    1    2    0  503  0.29563881061E+01  0.26765277583E+02 -0.28410130754E+03  0.33320065015E+03  0.17200000000E+03 0. -1.
</event>
<event>
 4    1  0.4394643E+000  0.2132968E+03  0.7818608E-02  0.1138982E+00
         21   -1    0    0  503  502  0.00000000000E+00  0.00000000000E+00  0.30492400781E+03  0.30492400781E+03  0.00000000000E+00 0. -1.
         21   -1    0    0  501  503 -0.00000000000E+00 -0.00000000000E+00 -0.33370270783E+03  0.33370270783E+03  0.00000000000E+00 0. -1.
          6    1    1    2  501    0 -0.10638783710E+03  0.67772764077E+02 -0.25181918130E+03  0.33001275658E+03  0.17200000000E+03 0. -1.
         -6    1    1    2    0  502  0.10638783710E+03 -0.67772764077E+02  0.22304048129E+03  0.30861395906E+03  0.17200000000E+03 0. -1.
</event>
<event>
 4    1  0.4394643E+000  0.1723075E+03  0.7818608E-02  0.1175463E+00
         21   -1    0    0  503  502  0.00000000000E+00  0.00000000000E+00  0.30513588397E+03  0.30513588397E+03  0.00000000000E+00 0.  1.
         21   -1    0    0  501  503 -0.00000000000E+00 -0.00000000000E+00 -0.38789220654E+03  0.38789220654E+03  0.00000000000E+00 0.  1.
          6    1    1    2  501    0 -0.61590861903E+01 -0.82416017287E+01 -0.34129922096E+03  0.38232841454E+03  0.17200000000E+03 0.  1.
         -6    1    1    2    0  502  0.61590861903E+01  0.82416017287E+01  0.25854289838E+03  0.31069967596E+03  0.17200000000E+03 0.  1.
</event>
<event>
 4    1  0.4394643E+000  0.1891540E+03  0.7818608E-02  0.1159227E+00
         21   -1    0    0  503  502  0.00000000000E+00  0.00000000000E+00  0.97560688539E+02  0.97560688539E+02  0.00000000000E+00 0.  1.
         21   -1    0    0  501  503 -0.00000000000E+00 -0.00000000000E+00 -0.39688453088E+03  0.39688453088E+03  0.00000000000E+00 0.  1.
          6    1    1    2  501    0 -0.19802134014E+02  0.76178245731E+02 -0.21779719068E+03  0.28846987001E+03  0.17200000000E+03 0.  1.
         -6    1    1    2    0  502  0.19802134014E+02 -0.76178245731E+02 -0.81526651659E+02  0.20597534941E+03  0.17200000000E+03 0.  1.
</event>
<event>
 4    1  0.4394643E+000  0.3404879E+03  0.7818608E-02  0.1066588E+00
         21   -1    0    0  503  502  0.00000000000E+00  0.00000000000E+00  0.31638262393E+04  0.31638262393E+04  0.00000000000E+00 0.  1.
         21   -1    0    0  501  503 -0.00000000000E+00 -0.00000000000E+00 -0.15319997698E+03  0.15319997698E+03  0.00000000000E+00 0.  1.
          6    1    1    2  501    0 -0.18478304752E+03  0.22848027256E+03  0.58678890846E+02  0.34550719505E+03  0.17200000000E+03 0.  1.
         -6    1    1    2    0  502  0.18478304752E+03 -0.22848027256E+03  0.29519473714E+04  0.29715190212E+04  0.17200000000E+03 0.  1.
</event>
<event>
 4    1  0.4394643E+000  0.1757770E+03  0.7818608E-02  0.1171954E+00
         21   -1    0    0  501  502  0.00000000000E+00  0.00000000000E+00  0.59405218929E+03  0.59405218929E+03  0.00000000000E+00 0. -1.
         21   -1    0    0  502  503 -0.00000000000E+00 -0.00000000000E+00 -0.47600240699E+03  0.47600240699E+03  0.00000000000E+00 0. -1.
          6    1    1    2  501    0 -0.33676729679E+02  0.13395434497E+02  0.56397634357E+03  0.59073418379E+03  0.17200000000E+03 0. -1.
         -6    1    1    2    0  503  0.33676729679E+02 -0.13395434497E+02 -0.44592656127E+03  0.47932041250E+03  0.17200000000E+03 0. -1.
</event>
<event>
 4    1  0.4394643E+000  0.1965132E+03  0.7818608E-02  0.1152715E+00
         21   -1    0    0  501  502  0.00000000000E+00  0.00000000000E+00  0.14306996617E+04  0.14306996617E+04  0.00000000000E+00 0.  1.
         21   -1    0    0  502  503 -0.00000000000E+00 -0.00000000000E+00 -0.27055048869E+02  0.27055048869E+02  0.00000000000E+00 0.  1.
          6    1    1    2  501    0 -0.95044174066E+02 -0.23737924760E+00  0.73700703898E+03  0.76275607299E+03  0.17200000000E+03 0.  1.
         -6    1    1    2    0  503  0.95044174066E+02  0.23737924760E+00  0.66663757388E+03  0.69499863761E+03  0.17200000000E+03 0.  1.
</event>
<event>
 4    1  0.4394643E+000  0.1808130E+03  0.7818608E-02  0.1167018E+00
         21   -1    0    0  503  502  0.00000000000E+00  0.00000000000E+00  0.56600551004E+02  0.56600551004E+02  0.00000000000E+00 0.  1.
         21   -1    0    0  501  503 -0.00000000000E+00 -0.00000000000E+00 -0.11583170644E+04  0.11583170644E+04  0.00000000000E+00 0.  1.
          6    1    1    2  501    0  0.50454847878E+02 -0.23741660804E+02 -0.98096830351E+03  0.99749294264E+03  0.17200000000E+03 0.  1.
         -6    1    1    2    0  502 -0.50454847878E+02  0.23741660804E+02 -0.12074820988E+03  0.21742467275E+03  0.17200000000E+03 0.  1.
</event>
<event>
 4    1  0.4394643E+000  0.1743793E+03  0.7818608E-02  0.1173356E+00
         21   -1    0    0  503  502  0.00000000000E+00  0.00000000000E+00  0.78182819360E+02  0.78182819360E+02  0.00000000000E+00 0. -1.
         21   -1    0    0  501  503 -0.00000000000E+00 -0.00000000000E+00 -0.39134747987E+03  0.39134747987E+03  0.00000000000E+00 0. -1.
          6    1    1    2  501    0  0.28215607733E+02  0.52937589582E+01 -0.17500947470E+03  0.24705558208E+03  0.17200000000E+03 0. -1.
         -6    1    1    2    0  502 -0.28215607733E+02 -0.52937589582E+01 -0.13815518581E+03  0.22247471715E+03  0.17200000000E+03 0. -1.
</event>
<event>
 4    1  0.4394643E+000  0.2289705E+03  0.7818608E-02  0.1127366E+00
         21   -1    0    0  501  502  0.00000000000E+00  0.00000000000E+00  0.49102799260E+02  0.49102799260E+02  0.00000000000E+00 0. -1.
         21   -1    0    0  502  503 -0.00000000000E+00 -0.00000000000E+00 -0.11122182789E+04  0.11122182789E+04  0.00000000000E+00 0.  1.
          6    1    1    2  501    0 -0.14671417793E+03 -0.36310393688E+02 -0.41539865707E+03  0.47432429728E+03  0.17200000000E+03 0.  1.
         -6    1    1    2    0  503  0.14671417793E+03  0.36310393688E+02 -0.64771682254E+03  0.68699678085E+03  0.17200000000E+03 0. -1.
</event>
<event>
 4    1  0.4394643E+000  0.2402529E+03  0.7818608E-02  0.1119624E+00
         21   -1    0    0  503  502  0.00000000000E+00  0.00000000000E+00  0.80229960061E+03  0.80229960061E+03  0.00000000000E+00 0. -1.
         21   -1    0    0  501  503 -0.00000000000E+00 -0.00000000000E+00 -0.12274042587E+03  0.12274042587E+03  0.00000000000E+00 0.  1.
          6    1    1    2  501    0 -0.99687255055E+02  0.13490711005E+03  0.42237197635E+02  0.24393740596E+03  0.17200000000E+03 0. -1.
         -6    1    1    2    0  502  0.99687255055E+02 -0.13490711005E+03  0.63732197711E+03  0.68110262051E+03  0.17200000000E+03 0. -1.
</event>
<event>
 4    1  0.4394643E+000  0.1973449E+03  0.7818608E-02  0.1151999E+00
         21   -1    0    0  501  502  0.00000000000E+00  0.00000000000E+00  0.11281873090E+03  0.11281873090E+03  0.00000000000E+00 0. -1.
         21   -1    0    0  502  503 -0.00000000000E+00 -0.00000000000E+00 -0.48415525981E+03  0.48415525981E+03  0.00000000000E+00 0.  1.
          6    1    1    2  501    0  0.62580475936E+02  0.73788262912E+02 -0.25760109331E+02  0.19901911201E+03  0.17200000000E+03 0. -1.
         -6    1    1    2    0  503 -0.62580475936E+02 -0.73788262912E+02 -0.34557641958E+03  0.39795487870E+03  0.17200000000E+03 0.  1.
</event>
<event>
 4    1  0.4394643E+000  0.1849831E+03  0.7818608E-02  0.1163066E+00
         21   -1    0    0  503  502  0.00000000000E+00  0.00000000000E+00  0.40131088043E+03  0.40131088043E+03  0.00000000000E+00 0. -1.
         21   -1    0    0  501  503 -0.00000000000E+00 -0.00000000000E+00 -0.20583506008E+03  0.20583506008E+03  0.00000000000E+00 0. -1.
          6    1    1    2  501    0 -0.26892561181E+02  0.62542162606E+02 -0.13459934602E+03  0.22877000655E+03  0.17200000000E+03 0. -1.
         -6    1    1    2    0  502  0.26892561181E+02 -0.62542162606E+02  0.33007516636E+03  0.37837593396E+03  0.17200000000E+03 0. -1.
</event>
<event>
 4    1  0.4394643E+000  0.1961166E+03  0.7818608E-02  0.1153057E+00
         21   -1    0    0  501  502  0.00000000000E+00  0.00000000000E+00  0.48173198875E+02  0.48173198875E+02  0.00000000000E+00 0.  1.
         21   -1    0    0  502  503 -0.00000000000E+00 -0.00000000000E+00 -0.79910559354E+03  0.79910559354E+03  0.00000000000E+00 0.  1.
          6    1    1    2  501    0 -0.90430548242E+02 -0.26458043953E+02 -0.36292046065E+03  0.41252026969E+03  0.17200000000E+03 0. -1.
         -6    1    1    2    0  503  0.90430548242E+02  0.26458043953E+02 -0.38801193401E+03  0.43475852272E+03  0.17200000000E+03 0. -1.
</event>
<event>
 4    1  0.4394643E+000  0.2142592E+03  0.7818608E-02  0.1138237E+00
         21   -1    0    0  501  502  0.00000000000E+00  0.00000000000E+00  0.46337157124E+03  0.46337157124E+03  0.00000000000E+00 0.  1.
         21   -1    0    0  502  503 -0.00000000000E+00 -0.00000000000E+00 -0.14529133359E+03  0.14529133359E+03  0.00000000000E+00 0.  1.
          6    1    1    2  501    0  0.12689402043E+03  0.14863429072E+02  0.33068868721E+03  0.39403302120E+03  0.17200000000E+03 0.  1.
         -6    1    1    2    0  503 -0.12689402043E+03 -0.14863429072E+02 -0.12608449557E+02  0.21462988363E+03  0.17200000000E+03 0.  1.
</event>
<event>
 4    1  0.4394643E+000  0.1770337E+03  0.7818608E-02  0.1170705E+00
         21   -1    0    0  501  502  0.00000000000E+00  0.00000000000E+00  0.14777488054E+04  0.14777488054E+04  0.00000000000E+00 0. -1.
         21   -1    0    0  502  503 -0.00000000000E+00 -0.00000000000E+00 -0.21227708182E+02  0.21227708182E+02  0.00000000000E+00 0. -1.
          6    1    1    2  501    0 -0.24437418606E+02 -0.34055001228E+02  0.70575298683E+03  0.72761817526E+03  0.17200000000E+03 0.  1.
         -6    1    1    2    0  503  0.24437418606E+02  0.34055001228E+02  0.75076811036E+03  0.77135833830E+03  0.17200000000E+03 0.  1.
</event>
<event>
 4    1  0.4394643E+000  0.2380018E+03  0.7818608E-02  0.1121131E+00
         21   -1    0    0  503  502  0.00000000000E+00  0.00000000000E+00  0.15235275355E+03  0.15235275355E+03  0.00000000000E+00 0.  1.
         21   -1    0    0  501  503 -0.00000000000E+00 -0.00000000000E+00 -0.39877484356E+03  0.39877484356E+03  0.00000000000E+00 0. -1.
          6    1    1    2  501    0 -0.88213240033E+01 -0.16426508388E+03 -0.19488040705E+03  0.30760885324E+03  0.17200000000E+03 0. -1.
         -6    1    1    2    0  502  0.88213240033E+01  0.16426508388E+03 -0.51541682959E+02  0.24351874388E+03  0.17200000000E+03 0.  1.
</event>
<event>
 4    1  0.4394643E+000  0.1872540E+03  0.7818608E-02  0.1160962E+00
         21   -1    0    0  501  502  0.00000000000E+00  0.00000000000E+00  0.81654134167E+03  0.81654134167E+03  0.00000000000E+00 0. -1.
         21   -1    0    0  502  503 -0.00000000000E+00 -0.00000000000E+00 -0.43502433297E+02  0.43502433297E+02  0.00000000000E+00 0. -1.
          6    1    1    2  501    0  0.95318330535E+01  0.73411098864E+02  0.43532121442E+03  0.47388670059E+03  0.17200000000E+03 0. -1.
         -6    1    1    2    0  503 -0.95318330535E+01 -0.73411098864E+02  0.33771769396E+03  0.38615707438E+03  0.17200000000E+03 0. -1.
</event>
<event>
 4    1  0.4394643E+000  0.1982287E+03  0.7818608E-02  0.1151242E+00
         21   -1    0    0  501  502  0.00000000000E+00  0.00000000000E+00  0.13889473885E+03  0.13889473885E+03  0.00000000000E+00 0. -1.
         21   -1    0    0  502  503 -0.00000000000E+00 -0.00000000000E+00 -0.36266593880E+03  0.36266593880E+03  0.00000000000E+00 0. -1.
          6    1    1    2  501    0  0.91972686327E+02  0.35378400131E+02  0.57188246216E+01  0.19831114739E+03  0.17200000000E+03 0. -1.
         -6    1    1    2    0  503 -0.91972686327E+02 -0.35378400131E+02 -0.22949002457E+03  0.30324953026E+03  0.17200000000E+03 0. -1.
</event>
<event>
 4    1  0.4394643E+000  0.1784638E+03  0.7818608E-02  0.1169298E+00
         21   -1    0    0  503  502  0.00000000000E+00  0.00000000000E+00  0.14350664288E+03  0.14350664288E+03  0.00000000000E+00 0. -1.
         21   -1    0    0  501  503 -0.00000000000E+00 -0.00000000000E+00 -0.25660045293E+03  0.25660045293E+03  0.00000000000E+00 0. -1.
          6    1    1    2  501    0  0.47496869907E+02  0.30624237089E+01  0.16981973664E+02  0.17926995989E+03  0.17200000000E+03 0. -1.
         -6    1    1    2    0  502 -0.47496869907E+02 -0.30624237089E+01 -0.13007578372E+03  0.22083713592E+03  0.17200000000E+03 0. -1.
</event>
<event>
 4    1  0.4394643E+000  0.3053816E+03  0.7818608E-02  0.1082581E+00
         21   -1    0    0  503  502  0.00000000000E+00  0.00000000000E+00  0.50252055830E+03  0.50252055830E+03  0.00000000000E+00 0. -1.
         21   -1    0    0  501  503 -0.00000000000E+00 -0.00000000000E+00 -0.26239642131E+03  0.26239642131E+03  0.00000000000E+00 0. -1.
          6    1    1    2  501    0  0.62818765429E+02  0.24439256794E+03 -0.86871759136E+02  0.31749744423E+03  0.17200000000E+03 0. -1.
         -6    1    1    2    0  502 -0.62818765429E+02 -0.24439256794E+03  0.32699589612E+03  0.44741953538E+03  0.17200000000E+03 0. -1.
</event>
<event>
 4    1  0.4394643E+000  0.1809674E+03  0.7818608E-02  0.1166870E+00
         21   -1    0    0  501  502  0.00000000000E+00  0.00000000000E+00  0.27941355500E+03  0.27941355500E+03  0.00000000000E+00 0. -1.
         21   -1    0    0  502  503 -0.00000000000E+00 -0.00000000000E+00 -0.18120067906E+03  0.18120067906E+03  0.00000000000E+00 0. -1.
          6    1    1    2  501    0 -0.54143616532E+02  0.15286213759E+02  0.18597266381E+03  0.25948994436E+03  0.17200000000E+03 0.  1.
         -6    1    1    2    0  503  0.54143616532E+02 -0.15286213759E+02 -0.87759787866E+02  0.20112428970E+03  0.17200000000E+03 0.  1.
</event>
<event>
 4    1  0.4394643E+000  0.1905282E+03  0.7818608E-02  0.1157986E+00
         21   -1    0    0  503  502  0.00000000000E+00  0.00000000000E+00  0.10973611227E+03  0.10973611227E+03  0.00000000000E+00 0.  1.
         21   -1    0    0  501  503 -0.00000000000E+00 -0.00000000000E+00 -0.34495867687E+03  0.34495867687E+03  0.00000000000E+00 0. -1.
          6    1    1    2  501    0  0.78766611271E+02  0.22645354417E+02 -0.16366640234E+03  0.25117261471E+03  0.17200000000E+03 0. -1.
         -6    1    1    2    0  502 -0.78766611271E+02 -0.22645354417E+02 -0.71556162255E+02  0.20352217443E+03  0.17200000000E+03 0.  1.
</event>
<event>
 4    1  0.4394643E+000  0.1799698E+03  0.7818608E-02  0.1167832E+00
         21   -1    0    0  503  502  0.00000000000E+00  0.00000000000E+00  0.78928979349E+03  0.78928979349E+03  0.00000000000E+00 0.  1.
         21   -1    0    0  501  503 -0.00000000000E+00 -0.00000000000E+00 -0.45994857674E+02  0.45994857674E+02  0.00000000000E+00 0.  1.
          6    1    1    2  501    0  0.17404459657E+02  0.50021955994E+02  0.23451164002E+03  0.29560923633E+03  0.17200000000E+03 0.  1.
         -6    1    1    2    0  502 -0.17404459657E+02 -0.50021955994E+02  0.50878329579E+03  0.53967541483E+03  0.17200000000E+03 0.  1.
</event>
<event>
 4    1  0.4394643E+000  0.1814726E+03  0.7818608E-02  0.1166385E+00
         21   -1    0    0  501  502  0.00000000000E+00  0.00000000000E+00  0.51479352625E+03  0.51479352625E+03  0.00000000000E+00 0.  1.
         21   -1    0    0  502  503 -0.00000000000E+00 -0.00000000000E+00 -0.11621093090E+03  0.11621093090E+03  0.00000000000E+00 0.  1.
          6    1    1    2  501    0 -0.57487190902E+02  0.65970353081E+01  0.41082358943E+03  0.44911949371E+03  0.17200000000E+03 0.  1.
         -6    1    1    2    0  503  0.57487190902E+02 -0.65970353081E+01 -0.12240994086E+02  0.18188496345E+03  0.17200000000E+03 0.  1.
</event>
<event>
 4    1  0.4394643E+000  0.2130504E+03  0.7818608E-02  0.1139173E+00
         21   -1    0    0  501  502  0.00000000000E+00  0.00000000000E+00  0.60333368006E+02  0.60333368006E+02  0.00000000000E+00 0. -1.
         21   -1    0    0  502  503 -0.00000000000E+00 -0.00000000000E+00 -0.79911501418E+03  0.79911501418E+03  0.00000000000E+00 0.  1.
          6    1    1    2  501    0 -0.12407047382E+03 -0.20321895773E+02 -0.47337071796E+03  0.51910528657E+03  0.17200000000E+03 0.  1.
         -6    1    1    2    0  503  0.12407047382E+03  0.20321895773E+02 -0.26541092822E+03  0.34034309562E+03  0.17200000000E+03 0.  1.
</event>
<event>
 4    1  0.4394643E+000  0.1954770E+03  0.7818608E-02  0.1153612E+00
         21   -1    0    0  501  502  0.00000000000E+00  0.00000000000E+00  0.62310200563E+03  0.62310200563E+03  0.00000000000E+00 0.  1.
         21   -1    0    0  502  503 -0.00000000000E+00 -0.00000000000E+00 -0.61377870359E+02  0.61377870359E+02  0.00000000000E+00 0.  1.
          6    1    1    2  501    0 -0.28095623285E+02  0.88531801418E+02  0.27074359941E+03  0.33393613241E+03  0.17200000000E+03 0.  1.
         -6    1    1    2    0  503  0.28095623285E+02 -0.88531801418E+02  0.29098053586E+03  0.35054374358E+03  0.17200000000E+03 0.  1.
</event>
<event>
 4    1  0.4394643E+000  0.1967907E+03  0.7818608E-02  0.1152475E+00
         21   -1    0    0  501  502  0.00000000000E+00  0.00000000000E+00  0.43480562276E+02  0.43480562276E+02  0.00000000000E+00 0. -1.
         21   -1    0    0  502  503 -0.00000000000E+00 -0.00000000000E+00 -0.89668213764E+03  0.89668213764E+03  0.00000000000E+00 0.  1.
          6    1    1    2  501    0  0.71148906900E+02 -0.63878111169E+02 -0.38809041253E+03  0.43513302373E+03  0.17200000000E+03 0.  1.
         -6    1    1    2    0  503 -0.71148906900E+02  0.63878111169E+02 -0.46511116283E+03  0.50502967619E+03  0.17200000000E+03 0. -1.
</event>
<event>
 4    1  0.4394643E+000  0.3444034E+03  0.7818608E-02  0.1064936E+00
         21   -1    0    0  501  502  0.00000000000E+00  0.00000000000E+00  0.12280867018E+03  0.12280867018E+03  0.00000000000E+00 0.  1.
         21   -1    0    0  502  503 -0.00000000000E+00 -0.00000000000E+00 -0.10974560094E+04  0.10974560094E+04  0.00000000000E+00 0.  1.
          6    1    1    2  501    0 -0.25457915515E+03  0.15562506846E+03 -0.27603198930E+03  0.44136987582E+03  0.17200000000E+03 0.  1.
         -6    1    1    2    0  503  0.25457915515E+03 -0.15562506846E+03 -0.69861534991E+03  0.77889480374E+03  0.17200000000E+03 0.  1.
</event>
<event>
 4    1  0.4394643E+000  0.1976668E+03  0.7818608E-02  0.1151723E+00
         21   -1    0    0  503  502  0.00000000000E+00  0.00000000000E+00  0.24605727772E+03  0.24605727772E+03  0.00000000000E+00 0.  1.
         21   -1    0    0  501  503 -0.00000000000E+00 -0.00000000000E+00 -0.18508413761E+03  0.18508413761E+03  0.00000000000E+00 0.  1.
          6    1    1    2  501    0 -0.50302220490E+02  0.83413670802E+02  0.11173416035E+03  0.22706095316E+03  0.17200000000E+03 0.  1.
         -6    1    1    2    0  502  0.50302220490E+02 -0.83413670802E+02 -0.50761020244E+02  0.20408046217E+03  0.17200000000E+03 0.  1.
</event>
<event>
 4    1  0.4394643E+000  0.1814490E+03  0.7818608E-02  0.1166408E+00
         21   -1    0    0  501  502  0.00000000000E+00  0.00000000000E+00  0.11385776682E+04  0.11385776682E+04  0.00000000000E+00 0. -1.
         21   -1    0    0  502  503 -0.00000000000E+00 -0.00000000000E+00 -0.39171527387E+02  0.39171527387E+02  0.00000000000E+00 0. -1.
          6    1    1    2  501    0 -0.50808163986E+02 -0.27536531935E+02  0.85100718955E+03  0.87013617715E+03  0.17200000000E+03 0. -1.
         -6    1    1    2    0  503  0.50808163986E+02  0.27536531935E+02  0.24839895122E+03  0.30761301840E+03  0.17200000000E+03 0. -1.
</event>
<event>
 4    1  0.4394643E+000  0.1818454E+03  0.7818608E-02  0.1166029E+00
         21   -1    0    0  501  502  0.00000000000E+00  0.00000000000E+00  0.18719842102E+03  0.18719842102E+03  0.00000000000E+00 0. -1.
         21   -1    0    0  502  503 -0.00000000000E+00 -0.00000000000E+00 -0.17782003686E+03  0.17782003686E+03  0.00000000000E+00 0. -1.
          6    1    1    2  501    0  0.57851534378E+02 -0.11702272093E+02  0.19522673550E+02  0.18289034415E+03  0.17200000000E+03 0. -1.
         -6    1    1    2    0  503 -0.57851534378E+02  0.11702272093E+02 -0.10144289396E+02  0.18212811373E+03  0.17200000000E+03 0. -1.
</event>
<event>
 4    1  0.4394643E+000  0.2407768E+03  0.7818608E-02  0.1119276E+00
         21   -1    0    0  501  502  0.00000000000E+00  0.00000000000E+00  0.18569200195E+03  0.18569200195E+03  0.00000000000E+00 0. -1.
         21   -1    0    0  502  503 -0.00000000000E+00 -0.00000000000E+00 -0.32821409836E+03  0.32821409836E+03  0.00000000000E+00 0.  1.
          6    1    1    2  501    0 -0.81839987217E+02 -0.14728098569E+03 -0.12801486319E+03  0.27269264283E+03  0.17200000000E+03 0. -1.
         -6    1    1    2    0  503  0.81839987217E+02  0.14728098569E+03 -0.14507233215E+02  0.24121345748E+03  0.17200000000E+03 0.  1.
</event>
<event>
 4    1  0.4394643E+000  0.2042831E+03  0.7818608E-02  0.1146175E+00
         21   -1    0    0  501  502  0.00000000000E+00  0.00000000000E+00  0.63084634628E+02  0.63084634628E+02  0.00000000000E+00 0. -1.
         21   -1    0    0  502  503 -0.00000000000E+00 -0.00000000000E+00 -0.89487120202E+03  0.89487120202E+03  0.00000000000E+00 0. -1.
          6    1    1    2  501    0 -0.14402919701E+02  0.10927088811E+03 -0.17130094506E+03  0.26660004663E+03  0.17200000000E+03 0. -1.
         -6    1    1    2    0  503  0.14402919701E+02 -0.10927088811E+03 -0.66048562234E+03  0.69135579002E+03  0.17200000000E+03 0. -1.
</event>
<event>
 4    1  0.4394643E+000  0.1727562E+03  0.7818608E-02  0.1175004E+00
         21   -1    0    0  503  502  0.00000000000E+00  0.00000000000E+00  0.44596542777E+03  0.44596542777E+03  0.00000000000E+00 0. -1.
         21   -1    0    0  501  503 -0.00000000000E+00 -0.00000000000E+00 -0.11425674625E+03  0.11425674625E+03  0.00000000000E+00 0. -1.
          6    1    1    2  501    0  0.27399716702E+01  0.15912104913E+02 -0.14439717251E+02  0.17335861087E+03  0.17200000000E+03 0. -1.
         -6    1    1    2    0  502 -0.27399716702E+01 -0.15912104913E+02  0.34614839877E+03  0.38686356316E+03  0.17200000000E+03 0. -1.
</event>
<event>
 4    1  0.4394643E+000  0.2127315E+03  0.7818608E-02  0.1139421E+00
         21   -1    0    0  501  502  0.00000000000E+00  0.00000000000E+00  0.86323913172E+02  0.86323913172E+02  0.00000000000E+00 0. -1.
         21   -1    0    0  502  503 -0.00000000000E+00 -0.00000000000E+00 -0.56181805348E+03  0.56181805348E+03  0.00000000000E+00 0. -1.
          6    1    1    2  501    0 -0.84579391297E+02  0.92287746747E+02 -0.15393771890E+03  0.26258622000E+03  0.17200000000E+03 0. -1.
         -6    1    1    2    0  503  0.84579391297E+02 -0.92287746747E+02 -0.32155642141E+03  0.38555574666E+03  0.17200000000E+03 0. -1.
</event>
<event>
 4    1  0.4394643E+000  0.2563968E+03  0.7818608E-02  0.1109328E+00
         21   -1    0    0  503  502  0.00000000000E+00  0.00000000000E+00  0.12326151730E+03  0.12326151730E+03  0.00000000000E+00 0.  1.
         21   -1    0    0  501  503 -0.00000000000E+00 -0.00000000000E+00 -0.53468888486E+03  0.53468888486E+03  0.00000000000E+00 0.  1.
          6    1    1    2  501    0  0.94825352216E+02 -0.16481339962E+03 -0.18914096647E+03  0.31861200435E+03  0.17200000000E+03 0.  1.
         -6    1    1    2    0  502 -0.94825352216E+02  0.16481339962E+03 -0.22228640109E+03  0.33933839781E+03  0.17200000000E+03 0.  1.
</event>
<event>
 4    1  0.4394643E+000  0.1873037E+03  0.7818608E-02  0.1160916E+00
         21   -1    0    0  501  502  0.00000000000E+00  0.00000000000E+00  0.59418043690E+02  0.59418043690E+02  0.00000000000E+00 0.  1.
         21   -1    0    0  502  503 -0.00000000000E+00 -0.00000000000E+00 -0.60595226609E+03  0.60595226609E+03  0.00000000000E+00 0.  1.
          6    1    1    2  501    0  0.26231345217E+02 -0.69358465139E+02 -0.32649970739E+03  0.37641033339E+03  0.17200000000E+03 0.  1.
         -6    1    1    2    0  503 -0.26231345217E+02  0.69358465139E+02 -0.22003451501E+03  0.28895997639E+03  0.17200000000E+03 0.  1.
</event>
<event>
 4    1  0.4394643E+000  0.1778178E+03  0.7818608E-02  0.1169932E+00
         21   -1    0    0  501  502  0.00000000000E+00  0.00000000000E+00  0.15112298314E+03  0.15112298314E+03  0.00000000000E+00 0.  1.
         21   -1    0    0  502  503 -0.00000000000E+00 -0.00000000000E+00 -0.43898370839E+03  0.43898370839E+03  0.00000000000E+00 0.  1.
          6    1    1    2  501    0 -0.24155731448E+02  0.38100675160E+02  0.69526189107E+02  0.19092682311E+03  0.17200000000E+03 0.  1.
         -6    1    1    2    0  503  0.24155731448E+02 -0.38100675160E+02 -0.35738691435E+03  0.39917986843E+03  0.17200000000E+03 0.  1.
</event>
<event>
 4    1  0.4394643E+000  0.1870126E+03  0.7818608E-02  0.1161184E+00
         21   -1    0    0  503  502  0.00000000000E+00  0.00000000000E+00  0.25996857173E+03  0.25996857173E+03  0.00000000000E+00 0.  1.
         21   -1    0    0  501  503 -0.00000000000E+00 -0.00000000000E+00 -0.25339960319E+03  0.25339960319E+03  0.00000000000E+00 0.  1.
          6    1    1    2  501    0  0.48155530401E+02 -0.55414358672E+02 -0.17252020056E+03  0.25443452175E+03  0.17200000000E+03 0.  1.
         -6    1    1    2    0  502 -0.48155530401E+02  0.55414358672E+02  0.17908916910E+03  0.25893365317E+03  0.17200000000E+03 0.  1.
</event>
<event>
 4    1  0.4394643E+000  0.2503016E+03  0.7818608E-02  0.1113114E+00
         21   -1    0    0  503  502  0.00000000000E+00  0.00000000000E+00  0.11828896081E+04  0.11828896081E+04  0.00000000000E+00 0. -1.
         21   -1    0    0  501  503 -0.00000000000E+00 -0.00000000000E+00 -0.94964396083E+02  0.94964396083E+02  0.00000000000E+00 0.  1.
          6    1    1    2  501    0  0.24310438830E+02 -0.18021073345E+03  0.11905349730E+03  0.27717258361E+03  0.17200000000E+03 0.  1.
         -6    1    1    2    0  502 -0.24310438830E+02  0.18021073345E+03  0.96887171475E+03  0.10006814206E+04  0.17200000000E+03 0. -1.
</event>
<event>
 4    1  0.4394643E+000  0.2143847E+03  0.7818608E-02  0.1138140E+00
         21   -1    0    0  501  502  0.00000000000E+00  0.00000000000E+00  0.15972652305E+04  0.15972652305E+04  0.00000000000E+00 0.  1.
         21   -1    0    0  502  503 -0.00000000000E+00 -0.00000000000E+00 -0.99572391648E+02  0.99572391648E+02  0.00000000000E+00 0.  1.
          6    1    1    2  501    0 -0.12636495163E+02 -0.12734644133E+03  0.14642488768E+04  0.14798599834E+04  0.17200000000E+03 0.  1.
         -6    1    1    2    0  503  0.12636495163E+02  0.12734644133E+03  0.33443962028E+02  0.21697763877E+03  0.17200000000E+03 0.  1.
</event>
<event>
 4    1  0.4394643E+000  0.2054990E+03  0.7818608E-02  0.1145181E+00
         21   -1    0    0  503  502  0.00000000000E+00  0.00000000000E+00  0.29685866019E+03  0.29685866019E+03  0.00000000000E+00 0.  1.
         21   -1    0    0  501  503 -0.00000000000E+00 -0.00000000000E+00 -0.19069100069E+03  0.19069100069E+03  0.00000000000E+00 0. -1.
          6    1    1    2  501    0 -0.10331247708E+03 -0.44411318277E+02 -0.69774559036E+02  0.21702147866E+03  0.17200000000E+03 0. -1.
         -6    1    1    2    0  502  0.10331247708E+03  0.44411318277E+02  0.17594221854E+03  0.27052818222E+03  0.17200000000E+03 0. -1.
</event>
<event>
 4    1  0.4394643E+000  0.2572160E+03  0.7818608E-02  0.1108828E+00
         21   -1    0    0  501  502  0.00000000000E+00  0.00000000000E+00  0.17254930290E+04  0.17254930290E+04  0.00000000000E+00 0. -1.
         21   -1    0    0  502  503 -0.00000000000E+00 -0.00000000000E+00 -0.46658847894E+02  0.46658847894E+02  0.00000000000E+00 0.  1.
          6    1    1    2  501    0  0.13863498715E+03  0.13174372963E+03  0.12134974553E+04  0.12404580380E+04  0.17200000000E+03 0. -1.
         -6    1    1    2    0  503 -0.13863498715E+03 -0.13174372963E+03  0.46533672583E+03  0.53169383894E+03  0.17200000000E+03 0.  1.
</event>
<event>
 4    1  0.4394643E+000  0.2147736E+03  0.7818608E-02  0.1137841E+00
         21   -1    0    0  503  502  0.00000000000E+00  0.00000000000E+00  0.44073401897E+02  0.44073401897E+02  0.00000000000E+00 0.  1.
         21   -1    0    0  501  503 -0.00000000000E+00 -0.00000000000E+00 -0.10781344188E+04  0.10781344188E+04  0.00000000000E+00 0.  1.
          6    1    1    2  501    0  0.95582893221E+02  0.86067503502E+02 -0.42108516505E+03  0.47269484963E+03  0.17200000000E+03 0.  1.
         -6    1    1    2    0  502 -0.95582893221E+02 -0.86067503502E+02 -0.61297585184E+03  0.64951297106E+03  0.17200000000E+03 0.  1.
</event>
<event>
 4    1  0.4394643E+000  0.1791062E+03  0.7818608E-02  0.1168671E+00
         21   -1    0    0  501  502  0.00000000000E+00  0.00000000000E+00  0.67198494401E+03  0.67198494401E+03  0.00000000000E+00 0.  1.
         21   -1    0    0  502  503 -0.00000000000E+00 -0.00000000000E+00 -0.50075753220E+02  0.50075753220E+02  0.00000000000E+00 0.  1.
          6    1    1    2  501    0 -0.36871644565E+02 -0.33697442434E+02  0.38896533197E+03  0.42822081368E+03  0.17200000000E+03 0.  1.
         -6    1    1    2    0  503  0.36871644565E+02  0.33697442434E+02  0.23294385883E+03  0.29383988355E+03  0.17200000000E+03 0.  1.
</event>
<event>
 4    1  0.4394643E+000  0.2186965E+03  0.7818608E-02  0.1134859E+00
         21   -1    0    0  501  502  0.00000000000E+00  0.00000000000E+00  0.20451790091E+03  0.20451790091E+03  0.00000000000E+00 0.  1.
         21   -1    0    0  502  503 -0.00000000000E+00 -0.00000000000E+00 -0.24775826363E+03  0.24775826363E+03  0.00000000000E+00 0. -1.
          6    1    1    2  501    0  0.39291274111E+02 -0.12922985810E+03  0.31943466074E+02  0.22101707054E+03  0.17200000000E+03 0.  1.
         -6    1    1    2    0  503 -0.39291274111E+02  0.12922985810E+03 -0.75183828800E+02  0.23125909400E+03  0.17200000000E+03 0.  1.
</event>
<event>
 4    1  0.4394643E+000  0.1770335E+03  0.7818608E-02  0.1170705E+00
         21   -1    0    0  503  502  0.00000000000E+00  0.00000000000E+00  0.43413713899E+02  0.43413713899E+02  0.00000000000E+00 0. -1.
         21   -1    0    0  501  503 -0.00000000000E+00 -0.00000000000E+00 -0.77103009151E+03  0.77103009151E+03  0.00000000000E+00 0. -1.
          6    1    1    2  501    0  0.20994565197E+02 -0.36277830175E+02 -0.46659066788E+03  0.49904679549E+03  0.17200000000E+03 0.  1.
         -6    1    1    2    0  502 -0.20994565197E+02  0.36277830175E+02 -0.26102570973E+03  0.31539700993E+03  0.17200000000E+03 0.  1.
</event>
<event>
 4    1  0.4394643E+000  0.2453472E+03  0.7818608E-02  0.1116281E+00
         21   -1    0    0  501  502  0.00000000000E+00  0.00000000000E+00  0.42018391208E+03  0.42018391208E+03  0.00000000000E+00 0. -1.
         21   -1    0    0  502  503 -0.00000000000E+00 -0.00000000000E+00 -0.16662215872E+03  0.16662215872E+03  0.00000000000E+00 0. -1.
          6    1    1    2  501    0 -0.16911843009E+03 -0.44835064792E+02  0.23664649537E+03  0.34087650286E+03  0.17200000000E+03 0. -1.
         -6    1    1    2    0  503  0.16911843009E+03  0.44835064792E+02  0.16915257979E+02  0.24592956794E+03  0.17200000000E+03 0. -1.
</event>
<event>
 4    1  0.4394643E+000  0.1992040E+03  0.7818608E-02  0.1150412E+00
         21   -1    0    0  503  502  0.00000000000E+00  0.00000000000E+00  0.23178357345E+03  0.23178357345E+03  0.00000000000E+00 0.  1.
         21   -1    0    0  501  503 -0.00000000000E+00 -0.00000000000E+00 -0.50561044595E+03  0.50561044595E+03  0.00000000000E+00 0.  1.
          6    1    1    2  501    0  0.10007765749E+03 -0.90927028388E+01 -0.43676000603E+03  0.48004324560E+03  0.17200000000E+03 0.  1.
         -6    1    1    2    0  502 -0.10007765749E+03  0.90927028388E+01  0.16293313354E+03  0.25735077380E+03  0.17200000000E+03 0.  1.
</event>
<event>
 4    1  0.4394643E+000  0.1743968E+03  0.7818608E-02  0.1173339E+00
         21   -1    0    0  503  502  0.00000000000E+00  0.00000000000E+00  0.19894600244E+03  0.19894600244E+03  0.00000000000E+00 0. -1.
         21   -1    0    0  501  503 -0.00000000000E+00 -0.00000000000E+00 -0.15293300915E+03  0.15293300915E+03  0.00000000000E+00 0. -1.
          6    1    1    2  501    0 -0.17180658225E+02  0.23131798132E+02  0.26375440177E+02  0.17638004124E+03  0.17200000000E+03 0.  1.
         -6    1    1    2    0  502  0.17180658225E+02 -0.23131798132E+02  0.19637553117E+02  0.17549897035E+03  0.17200000000E+03 0.  1.
</event>
<event>
 4    1  0.4394643E+000  0.2059371E+03  0.7818608E-02  0.1144824E+00
         21   -1    0    0  501  502  0.00000000000E+00  0.00000000000E+00  0.17389360747E+03  0.17389360747E+03  0.00000000000E+00 0. -1.
         21   -1    0    0  502  503 -0.00000000000E+00 -0.00000000000E+00 -0.50610945799E+03  0.50610945799E+03  0.00000000000E+00 0.  1.
          6    1    1    2  501    0  0.71677277166E+02  0.87683760996E+02  0.78626518617E+02  0.22043639317E+03  0.17200000000E+03 0. -1.
         -6    1    1    2    0  503 -0.71677277166E+02 -0.87683760996E+02 -0.41084236914E+03  0.45956667230E+03  0.17200000000E+03 0.  1.
</event>
<event>
 4    1  0.4394643E+000  0.2616161E+03  0.7818608E-02  0.1106176E+00
         21   -1    0    0  503  502  0.00000000000E+00  0.00000000000E+00  0.62246007937E+03  0.62246007937E+03  0.00000000000E+00 0. -1.
         21   -1    0    0  501  503 -0.00000000000E+00 -0.00000000000E+00 -0.12444521902E+03  0.12444521902E+03  0.00000000000E+00 0. -1.
          6    1    1    2  501    0  0.38108522295E+02  0.19340824094E+03  0.12157673224E+03  0.28848554376E+03  0.17200000000E+03 0. -1.
         -6    1    1    2    0  502 -0.38108522295E+02 -0.19340824094E+03  0.37643812811E+03  0.45841975462E+03  0.17200000000E+03 0. -1.
</event>
<event>
 4    1  0.4394643E+000  0.2077124E+03  0.7818608E-02  0.1143390E+00
         21   -1    0    0  501  502  0.00000000000E+00  0.00000000000E+00  0.90391240408E+02  0.90391240408E+02  0.00000000000E+00 0.  1.
         21   -1    0    0  502  503 -0.00000000000E+00 -0.00000000000E+00 -0.61995329094E+03  0.61995329094E+03  0.00000000000E+00 0.  1.
          6    1    1    2  501    0 -0.23591536449E+01  0.11642536517E+03 -0.94412720876E+02  0.22816264620E+03  0.17200000000E+03 0.  1.
         -6    1    1    2    0  503  0.23591536449E+01 -0.11642536517E+03 -0.43514932965E+03  0.48218188514E+03  0.17200000000E+03 0.  1.
</event>
<event>
 4    1  0.4394643E+000  0.2345857E+03  0.7818608E-02  0.1123453E+00
         21   -1    0    0  503  502  0.00000000000E+00  0.00000000000E+00  0.11525627790E+03  0.11525627790E+03  0.00000000000E+00 0. -1.
         21   -1    0    0  501  503 -0.00000000000E+00 -0.00000000000E+00 -0.52928999588E+03  0.52928999588E+03  0.00000000000E+00 0.  1.
          6    1    1    2  501    0 -0.32113787793E+02 -0.15625348766E+03 -0.30786342490E+03  0.38705340222E+03  0.17200000000E+03 0.  1.
         -6    1    1    2    0  502  0.32113787793E+02  0.15625348766E+03 -0.10617029308E+03  0.25749287157E+03  0.17200000000E+03 0. -1.
</event>
<event>
 4    1  0.4394643E+000  0.1729069E+03  0.7818608E-02  0.1174850E+00
         21   -1    0    0  501  502  0.00000000000E+00  0.00000000000E+00  0.69406890194E+02  0.69406890194E+02  0.00000000000E+00 0.  1.
         21   -1    0    0  502  503 -0.00000000000E+00 -0.00000000000E+00 -0.12071314483E+04  0.12071314483E+04  0.00000000000E+00 0.  1.
          6    1    1    2  501    0  0.62879825234E+01  0.16530195053E+02 -0.56985894499E+02  0.18205542630E+03  0.17200000000E+03 0.  1.
         -6    1    1    2    0  503 -0.62879825234E+01 -0.16530195053E+02 -0.10807386636E+04  0.10944829122E+04  0.17200000000E+03 0.  1.
</event>
<event>
 4    1  0.4394643E+000  0.2247073E+03  0.7818608E-02  0.1130421E+00
         21   -1    0    0  503  502  0.00000000000E+00  0.00000000000E+00  0.28206037398E+03  0.28206037398E+03  0.00000000000E+00 0.  1.
         21   -1    0    0  501  503 -0.00000000000E+00 -0.00000000000E+00 -0.33378293890E+03  0.33378293890E+03  0.00000000000E+00 0. -1.
          6    1    1    2  501    0  0.14459298108E+03  0.15039251675E+01 -0.23553640486E+03  0.32553154990E+03  0.17200000000E+03 0. -1.
         -6    1    1    2    0  502 -0.14459298108E+03 -0.15039251675E+01  0.18381383994E+03  0.29031176298E+03  0.17200000000E+03 0.  1.
</event>
<event>
 4    1  0.4394643E+000  0.2356936E+03  0.7818608E-02  0.1122695E+00
         21   -1    0    0  501  502  0.00000000000E+00  0.00000000000E+00  0.52899392188E+03  0.52899392188E+03  0.00000000000E+00 0.  1.
         21   -1    0    0  502  503 -0.00000000000E+00 -0.00000000000E+00 -0.11190929940E+03  0.11190929940E+03  0.00000000000E+00 0. -1.
          6    1    1    2  501    0 -0.55018833479E+02  0.15146082711E+03  0.28808945646E+03  0.37221900692E+03  0.17200000000E+03 0.  1.
         -6    1    1    2    0  503  0.55018833479E+02 -0.15146082711E+03  0.12899516602E+03  0.26868421436E+03  0.17200000000E+03 0. -1.
</event>
<event>
 4    1  0.4394643E+000  0.2193166E+03  0.7818608E-02  0.1134394E+00
         21   -1    0    0  501  502  0.00000000000E+00  0.00000000000E+00  0.10129246158E+03  0.10129246158E+03  0.00000000000E+00 0. -1.
         21   -1    0    0  502  503 -0.00000000000E+00 -0.00000000000E+00 -0.75883228611E+03  0.75883228611E+03  0.00000000000E+00 0. -1.
          6    1    1    2  501    0 -0.11899400550E+03  0.66001411213E+02 -0.65684743693E+02  0.22894157591E+03  0.17200000000E+03 0. -1.
         -6    1    1    2    0  503  0.11899400550E+03 -0.66001411213E+02 -0.59185508084E+03  0.63118317178E+03  0.17200000000E+03 0. -1.
</event>
<event>
 4    1  0.4394643E+000  0.2040070E+03  0.7818608E-02  0.1146402E+00
         21   -1    0    0  503  502  0.00000000000E+00  0.00000000000E+00  0.11275111234E+04  0.11275111234E+04  0.00000000000E+00 0.  1.
         21   -1    0    0  501  503 -0.00000000000E+00 -0.00000000000E+00 -0.12492448694E+03  0.12492448694E+03  0.00000000000E+00 0.  1.
          6    1    1    2  501    0  0.23662983145E+02  0.10712102554E+03 -0.24328543464E+02  0.20545249794E+03  0.17200000000E+03 0.  1.
         -6    1    1    2    0  502 -0.23662983145E+02 -0.10712102554E+03  0.10269151799E+04  0.10469831124E+04  0.17200000000E+03 0.  1.
</event>
<event>
 4    1  0.4394643E+000  0.2032635E+03  0.7818608E-02  0.1147014E+00
         21   -1    0    0  503  502  0.00000000000E+00  0.00000000000E+00  0.23399793487E+02  0.23399793487E+02  0.00000000000E+00 0. -1.
         21   -1    0    0  501  503 -0.00000000000E+00 -0.00000000000E+00 -0.24336839921E+04  0.24336839921E+04  0.00000000000E+00 0. -1.
          6    1    1    2  501    0 -0.89782271337E+02 -0.60590472446E+02 -0.18487985924E+04  0.18599387885E+04  0.17200000000E+03 0. -1.
         -6    1    1    2    0  502  0.89782271337E+02  0.60590472446E+02 -0.56148560621E+03  0.59714499712E+03  0.17200000000E+03 0. -1.
</event>
<event>
 4    1  0.4394643E+000  0.2731923E+03  0.7818608E-02  0.1099466E+00
         21   -1    0    0  503  502  0.00000000000E+00  0.00000000000E+00  0.72780488614E+03  0.72780488614E+03  0.00000000000E+00 0.  1.
         21   -1    0    0  501  503 -0.00000000000E+00 -0.00000000000E+00 -0.11085313585E+03  0.11085313585E+03  0.00000000000E+00 0.  1.
          6    1    1    2  501    0 -0.78933687449E+02  0.19702665338E+03  0.19369042414E+03  0.33488805527E+03  0.17200000000E+03 0.  1.
         -6    1    1    2    0  502  0.78933687449E+02 -0.19702665338E+03  0.42326132615E+03  0.50376996672E+03  0.17200000000E+03 0.  1.
</event>
<event>
 4    1  0.4394643E+000  0.2387207E+03  0.7818608E-02  0.1120648E+00
         21   -1    0    0  503  502  0.00000000000E+00  0.00000000000E+00  0.22728351512E+03  0.22728351512E+03  0.00000000000E+00 0. -1.
         21   -1    0    0  501  503 -0.00000000000E+00 -0.00000000000E+00 -0.42774886773E+03  0.42774886773E+03  0.00000000000E+00 0. -1.
          6    1    1    2  501    0  0.16425025897E+03 -0.20625611383E+02 -0.31092270231E+03  0.39199552322E+03  0.17200000000E+03 0. -1.
         -6    1    1    2    0  502 -0.16425025897E+03  0.20625611383E+02  0.11045734969E+03  0.26303685962E+03  0.17200000000E+03 0. -1.
</event>
<event>
 4    1  0.4394643E+000  0.1868480E+03  0.7818608E-02  0.1161335E+00
         21   -1    0    0  501  502  0.00000000000E+00  0.00000000000E+00  0.16277325567E+03  0.16277325567E+03  0.00000000000E+00 0. -1.
         21   -1    0    0  502  503 -0.00000000000E+00 -0.00000000000E+00 -0.32323925440E+03  0.32323925440E+03  0.00000000000E+00 0. -1.
          6    1    1    2  501    0  0.68599875169E+02 -0.24944835934E+02  0.60722298219E+02  0.19646726245E+03  0.17200000000E+03 0. -1.
         -6    1    1    2    0  503 -0.68599875169E+02  0.24944835934E+02 -0.22118829695E+03  0.28954524762E+03  0.17200000000E+03 0. -1.
</event>
<event>
 4    1  0.4394643E+000  0.1990637E+03  0.7818608E-02  0.1150531E+00
         21   -1    0    0  503  502  0.00000000000E+00  0.00000000000E+00  0.15747057865E+03  0.15747057865E+03  0.00000000000E+00 0. -1.
         21   -1    0    0  501  503 -0.00000000000E+00 -0.00000000000E+00 -0.35755367608E+03  0.35755367608E+03  0.00000000000E+00 0. -1.
          6    1    1    2  501    0 -0.86252087413E+02  0.51018917506E+02 -0.24019285349E+03  0.31195986825E+03  0.17200000000E+03 0. -1.
         -6    1    1    2    0  502  0.86252087413E+02 -0.51018917506E+02  0.40109756060E+02  0.20306438648E+03  0.17200000000E+03 0. -1.
</event>
<event>
 4    1  0.4394643E+000  0.2754441E+03  0.7818608E-02  0.1098204E+00
         21   -1    0    0  501  502  0.00000000000E+00  0.00000000000E+00  0.27689742684E+03  0.27689742684E+03  0.00000000000E+00 0. -1.
         21   -1    0    0  502  503 -0.00000000000E+00 -0.00000000000E+00 -0.29384413829E+03  0.29384413829E+03  0.00000000000E+00 0.  1.
          6    1    1    2  501    0 -0.18302711706E+03 -0.11307758842E+03  0.65689089548E+02  0.28316871838E+03  0.17200000000E+03 0. -1.
         -6    1    1    2    0  503  0.18302711706E+03  0.11307758842E+03 -0.82635800991E+02  0.28757284675E+03  0.17200000000E+03 0.  1.
</event>
<event>
 4    1  0.4394643E+000  0.1822957E+03  0.7818608E-02  0.1165600E+00
         21   -1    0    0  503  502  0.00000000000E+00  0.00000000000E+00  0.94071946393E+03  0.94071946393E+03  0.00000000000E+00 0. -1.
         21   -1    0    0  501  503 -0.00000000000E+00 -0.00000000000E+00 -0.61973844512E+02  0.61973844512E+02  0.00000000000E+00 0. -1.
          6    1    1    2  501    0  0.27158826595E+02  0.53945545827E+02  0.11062256243E+03  0.21323478866E+03  0.17200000000E+03 0. -1.
         -6    1    1    2    0  502 -0.27158826595E+02 -0.53945545827E+02  0.76812305700E+03  0.78945851979E+03  0.17200000000E+03 0. -1.
</event>
<event>
 4    1  0.4394643E+000  0.1983181E+03  0.7818608E-02  0.1151166E+00
         21   -1    0    0  501  502  0.00000000000E+00  0.00000000000E+00  0.51408144725E+02  0.51408144725E+02  0.00000000000E+00 0.  1.
         21   -1    0    0  502  503 -0.00000000000E+00 -0.00000000000E+00 -0.10642139821E+04  0.10642139821E+04  0.00000000000E+00 0. -1.
          6    1    1    2  501    0  0.26807151431E+02  0.95012815356E+02 -0.21065366135E+03  0.28931820456E+03  0.17200000000E+03 0.  1.
         -6    1    1    2    0  503 -0.26807151431E+02 -0.95012815356E+02 -0.80215217603E+03  0.82630392227E+03  0.17200000000E+03 0. -1.
</event>
<event>
 4    1  0.4394643E+000  0.1987672E+03  0.7818608E-02  0.1150783E+00
         21   -1    0    0  503  502  0.00000000000E+00  0.00000000000E+00  0.97131563678E+03  0.97131563678E+03  0.00000000000E+00 0. -1.
         21   -1    0    0  501  503 -0.00000000000E+00 -0.00000000000E+00 -0.81717918318E+02  0.81717918318E+02  0.00000000000E+00 0.  1.
          6    1    1    2  501    0  0.96539774113E+02  0.24585893618E+02  0.71658717369E+02  0.21128976768E+03  0.17200000000E+03 0.  1.
         -6    1    1    2    0  502 -0.96539774113E+02 -0.24585893618E+02  0.81793900109E+03  0.84174378742E+03  0.17200000000E+03 0. -1.
</event>
<event>
 4    1  0.4394643E+000  0.2982730E+03  0.7818608E-02  0.1086107E+00
         21   -1    0    0  503  502  0.00000000000E+00  0.00000000000E+00  0.18494860017E+03  0.18494860017E+03  0.00000000000E+00 0.  1.
         21   -1    0    0  501  503 -0.00000000000E+00 -0.00000000000E+00 -0.50712428188E+03  0.50712428188E+03  0.00000000000E+00 0.  1.
          6    1    1    2  501    0  0.24291471102E+03 -0.19371335272E+02 -0.23957402142E+03  0.38257354482E+03  0.17200000000E+03 0.  1.
         -6    1    1    2    0  502 -0.24291471102E+03  0.19371335272E+02 -0.82601660298E+02  0.30949933723E+03  0.17200000000E+03 0.  1.
</event>
<event>
 4    1  0.4394643E+000  0.2678498E+03  0.7818608E-02  0.1102517E+00
         21   -1    0    0  503  502  0.00000000000E+00  0.00000000000E+00  0.42527078991E+03  0.42527078991E+03  0.00000000000E+00 0.  1.
         21   -1    0    0  501  503 -0.00000000000E+00 -0.00000000000E+00 -0.17761493097E+03  0.17761493097E+03  0.00000000000E+00 0. -1.
          6    1    1    2  501    0 -0.18771464686E+03  0.83202943106E+02  0.56296645685E+02  0.27370208385E+03  0.17200000000E+03 0. -1.
         -6    1    1    2    0  502  0.18771464686E+03 -0.83202943106E+02  0.19135921326E+03  0.32918363703E+03  0.17200000000E+03 0.  1.
</event>
<event>
 4    1  0.4394643E+000  0.2191116E+03  0.7818608E-02  0.1134547E+00
         21   -1    0    0  503  502  0.00000000000E+00  0.00000000000E+00  0.23912550382E+03  0.23912550382E+03  0.00000000000E+00 0. -1.
         21   -1    0    0  501  503 -0.00000000000E+00 -0.00000000000E+00 -0.21580836389E+03  0.21580836389E+03  0.00000000000E+00 0. -1.
          6    1    1    2  501    0  0.36420646367E+02 -0.13076479147E+03 -0.48381911462E+02  0.22438962437E+03  0.17200000000E+03 0. -1.
         -6    1    1    2    0  502 -0.36420646367E+02  0.13076479147E+03  0.71699051393E+02  0.23054424335E+03  0.17200000000E+03 0. -1.
</event>
<event>
 4    1  0.4394643E+000  0.2972317E+03  0.7818608E-02  0.1086633E+00
         21   -1    0    0  501  502  0.00000000000E+00  0.00000000000E+00  0.63647425035E+03  0.63647425035E+03  0.00000000000E+00 0. -1.
         21   -1    0    0  502  503 -0.00000000000E+00 -0.00000000000E+00 -0.37686530145E+03  0.37686530145E+03  0.00000000000E+00 0. -1.
          6    1    1    2  501    0  0.24217768277E+03 -0.10612564042E+02  0.53249758144E+03  0.60983631475E+03  0.17200000000E+03 0. -1.
         -6    1    1    2    0  503 -0.24217768277E+03  0.10612564042E+02 -0.27288863253E+03  0.40350323705E+03  0.17200000000E+03 0. -1.
</event>
<event>
 4    1  0.4394643E+000  0.1946818E+03  0.7818608E-02  0.1154305E+00
         21   -1    0    0  501  502  0.00000000000E+00  0.00000000000E+00  0.49447219529E+03  0.49447219529E+03  0.00000000000E+00 0. -1.
         21   -1    0    0  502  503 -0.00000000000E+00 -0.00000000000E+00 -0.20441003073E+03  0.20441003073E+03  0.00000000000E+00 0. -1.
          6    1    1    2  501    0  0.23329157421E+02 -0.88163293210E+02  0.42129321314E+03  0.46410019100E+03  0.17200000000E+03 0. -1.
         -6    1    1    2    0  503 -0.23329157421E+02  0.88163293210E+02 -0.13123104857E+03  0.23478203501E+03  0.17200000000E+03 0. -1.
</event>
<event>
 4    1  0.4394643E+000  0.2045040E+03  0.7818608E-02  0.1145994E+00
         21   -1    0    0  503  502  0.00000000000E+00  0.00000000000E+00  0.14047451293E+03  0.14047451293E+03  0.00000000000E+00 0.  1.
         21   -1    0    0  501  503 -0.00000000000E+00 -0.00000000000E+00 -0.10108822221E+04  0.10108822221E+04  0.00000000000E+00 0. -1.
          6    1    1    2  501    0 -0.14346936449E+02 -0.10969062746E+03 -0.91873475901E+03  0.94122017921E+03  0.17200000000E+03 0. -1.
         -6    1    1    2    0  502  0.14346936449E+02  0.10969062746E+03  0.48327049845E+02  0.21013655581E+03  0.17200000000E+03 0.  1.
</event>
<event>
 4    1  0.4394643E+000  0.1821261E+03  0.7818608E-02  0.1165761E+00
         21   -1    0    0  503  502  0.00000000000E+00  0.00000000000E+00  0.64483212544E+03  0.64483212544E+03  0.00000000000E+00 0.  1.
         21   -1    0    0  501  503 -0.00000000000E+00 -0.00000000000E+00 -0.53918873074E+02  0.53918873074E+02  0.00000000000E+00 0. -1.
          6    1    1    2  501    0 -0.37917476479E+02 -0.46348579374E+02  0.22053941331E+03  0.28602020672E+03  0.17200000000E+03 0. -1.
         -6    1    1    2    0  502  0.37917476479E+02  0.46348579374E+02  0.37037383905E+03  0.41273079179E+03  0.17200000000E+03 0.  1.
</event>
<event>
 4    1  0.4394643E+000  0.1777710E+03  0.7818608E-02  0.1169978E+00
         21   -1    0    0  503  502  0.00000000000E+00  0.00000000000E+00  0.13074328216E+03  0.13074328216E+03  0.00000000000E+00 0.  1.
         21   -1    0    0  501  503 -0.00000000000E+00 -0.00000000000E+00 -0.32189827114E+03  0.32189827114E+03  0.00000000000E+00 0.  1.
          6    1    1    2  501    0 -0.31067684687E+01  0.44820333971E+02 -0.20853342030E+03  0.27402317736E+03  0.17200000000E+03 0.  1.
         -6    1    1    2    0  502  0.31067684687E+01 -0.44820333971E+02  0.17378431320E+02  0.17861837594E+03  0.17200000000E+03 0.  1.
</event>
<event>
 4    1  0.4394643E+000  0.2386334E+03  0.7818608E-02  0.1120707E+00
         21   -1    0    0  501  502  0.00000000000E+00  0.00000000000E+00  0.41858887832E+03  0.41858887832E+03  0.00000000000E+00 0.  1.
         21   -1    0    0  502  503 -0.00000000000E+00 -0.00000000000E+00 -0.26860078338E+03  0.26860078338E+03  0.00000000000E+00 0. -1.
          6    1    1    2  501    0 -0.48866917521E+02 -0.15803145356E+03  0.31637126087E+03  0.39627855184E+03  0.17200000000E+03 0.  1.
         -6    1    1    2    0  503  0.48866917521E+02  0.15803145356E+03 -0.16638316592E+03  0.29091110987E+03  0.17200000000E+03 0. -1.
</event>
<event>
 4    1  0.4394643E+000  0.2184267E+03  0.7818608E-02  0.1135061E+00
         21   -1    0    0  503  502  0.00000000000E+00  0.00000000000E+00  0.18009877055E+03  0.18009877055E+03  0.00000000000E+00 0.  1.
         21   -1    0    0  501  503 -0.00000000000E+00 -0.00000000000E+00 -0.26991297144E+03  0.26991297144E+03  0.00000000000E+00 0.  1.
          6    1    1    2  501    0 -0.12831631525E+02 -0.13402083349E+03 -0.75535977897E+02  0.23111884071E+03  0.17200000000E+03 0.  1.
         -6    1    1    2    0  502  0.12831631525E+02  0.13402083349E+03 -0.14278222998E+02  0.21889290127E+03  0.17200000000E+03 0.  1.
</event>
<event>
 4    1  0.4394643E+000  0.2369732E+03  0.7818608E-02  0.1121826E+00
         21   -1    0    0  503  502  0.00000000000E+00  0.00000000000E+00  0.65461849340E+03  0.65461849340E+03  0.00000000000E+00 0. -1.
         21   -1    0    0  501  503 -0.00000000000E+00 -0.00000000000E+00 -0.19286427881E+03  0.19286427881E+03  0.00000000000E+00 0. -1.
          6    1    1    2  501    0  0.15458645385E+03 -0.51723628202E+02 -0.84861829937E+02  0.25170982422E+03  0.17200000000E+03 0. -1.
         -6    1    1    2    0  502 -0.15458645385E+03  0.51723628202E+02  0.54661604452E+03  0.59577294799E+03  0.17200000000E+03 0. -1.
</event>
<event>
 4    1  0.4394643E+000  0.1749751E+03  0.7818608E-02  0.1172757E+00
         21   -1    0    0  501  502  0.00000000000E+00  0.00000000000E+00  0.21754264572E+03  0.21754264572E+03  0.00000000000E+00 0.  1.
         21   -1    0    0  502  503 -0.00000000000E+00 -0.00000000000E+00 -0.15836914798E+03  0.15836914798E+03  0.00000000000E+00 0.  1.
          6    1    1    2  501    0 -0.26698286511E+02 -0.17874651960E+02  0.92301996765E+02  0.19782810794E+03  0.17200000000E+03 0. -1.
         -6    1    1    2    0  503  0.26698286511E+02  0.17874651960E+02 -0.33128499021E+02  0.17808368576E+03  0.17200000000E+03 0. -1.
</event>
<event>
 4    1  0.4394643E+000  0.1987000E+03  0.7818608E-02  0.1150841E+00
         21   -1    0    0  503  502  0.00000000000E+00  0.00000000000E+00  0.14113602624E+03  0.14113602624E+03  0.00000000000E+00 0.  1.
         21   -1    0    0  501  503 -0.00000000000E+00 -0.00000000000E+00 -0.52742695038E+03  0.52742695038E+03  0.00000000000E+00 0.  1.
          6    1    1    2  501    0  0.11178375627E+02 -0.98857063404E+02 -0.42222219091E+03  0.46664038998E+03  0.17200000000E+03 0.  1.
         -6    1    1    2    0  502 -0.11178375627E+02  0.98857063404E+02  0.35931266763E+02  0.20192258665E+03  0.17200000000E+03 0.  1.
</event>
<event>
 4    1  0.4394643E+000  0.2642060E+03  0.7818608E-02  0.1104642E+00
         21   -1    0    0  503  502  0.00000000000E+00  0.00000000000E+00  0.19568323285E+04  0.19568323285E+04  0.00000000000E+00 0.  1.
         21   -1    0    0  501  503 -0.00000000000E+00 -0.00000000000E+00 -0.34620028366E+03  0.34620028366E+03  0.00000000000E+00 0. -1.
          6    1    1    2  501    0 -0.15536983165E+03  0.12681101538E+03 -0.28526193472E+03  0.38881768171E+03  0.17200000000E+03 0. -1.
         -6    1    1    2    0  502  0.15536983165E+03 -0.12681101538E+03  0.18958939796E+04  0.19142149305E+04  0.17200000000E+03 0.  1.
</event>
<event>
 4    1  0.4394643E+000  0.2111818E+03  0.7818608E-02  0.1140634E+00
         21   -1    0    0  503  502  0.00000000000E+00  0.00000000000E+00  0.93467961547E+03  0.93467961547E+03  0.00000000000E+00 0.  1.
         21   -1    0    0  501  503 -0.00000000000E+00 -0.00000000000E+00 -0.69262896006E+02  0.69262896006E+02  0.00000000000E+00 0.  1.
          6    1    1    2  501    0 -0.11039824564E+03 -0.53159766425E+02  0.15272230564E+03  0.26061818058E+03  0.17200000000E+03 0.  1.
         -6    1    1    2    0  502  0.11039824564E+03  0.53159766425E+02  0.71269441383E+03  0.74332433090E+03  0.17200000000E+03 0.  1.
</event>
<event>
 4    1  0.4394643E+000  0.2247543E+03  0.7818608E-02  0.1130387E+00
         21   -1    0    0  503  502  0.00000000000E+00  0.00000000000E+00  0.22055945591E+03  0.22055945591E+03  0.00000000000E+00 0.  1.
         21   -1    0    0  501  503 -0.00000000000E+00 -0.00000000000E+00 -0.26080276476E+03  0.26080276476E+03  0.00000000000E+00 0. -1.
          6    1    1    2  501    0 -0.14280615665E+03  0.23171395184E+02 -0.10412957586E+03  0.24770442164E+03  0.17200000000E+03 0. -1.
         -6    1    1    2    0  502  0.14280615665E+03 -0.23171395184E+02  0.63886267017E+02  0.23365779903E+03  0.17200000000E+03 0.  1.
</event>
<event>
 4    1  0.4394643E+000  0.1868191E+03  0.7818608E-02  0.1161362E+00
         21   -1    0    0  503  502  0.00000000000E+00  0.00000000000E+00  0.21371497240E+03  0.21371497240E+03  0.00000000000E+00 0. -1.
         21   -1    0    0  501  503 -0.00000000000E+00 -0.00000000000E+00 -0.47870335825E+03  0.47870335825E+03  0.00000000000E+00 0. -1.
          6    1    1    2  501    0 -0.54998569121E+02 -0.47880496611E+02 -0.41351139704E+03  0.45375440499E+03  0.17200000000E+03 0. -1.
         -6    1    1    2    0  502  0.54998569121E+02  0.47880496611E+02  0.14852301119E+03  0.23866392567E+03  0.17200000000E+03 0. -1.
</event>
<event>
 4    1  0.4394643E+000  0.1723436E+03  0.7818608E-02  0.1175426E+00
         21   -1    0    0  503  502  0.00000000000E+00  0.00000000000E+00  0.12177407085E+03  0.12177407085E+03  0.00000000000E+00 0. -1.
         21   -1    0    0  501  503 -0.00000000000E+00 -0.00000000000E+00 -0.25175244950E+03  0.25175244950E+03  0.00000000000E+00 0. -1.
          6    1    1    2  501    0 -0.97555952578E+01  0.48121629630E+01 -0.97945310628E+02  0.19823120951E+03  0.17200000000E+03 0. -1.
         -6    1    1    2    0  502  0.97555952578E+01 -0.48121629630E+01 -0.32033068023E+02  0.17529531083E+03  0.17200000000E+03 0. -1.
</event>
<event>
 4    1  0.4394643E+000  0.1837097E+03  0.7818608E-02  0.1164260E+00
         21   -1    0    0  501  502  0.00000000000E+00  0.00000000000E+00  0.66188169925E+02  0.66188169925E+02  0.00000000000E+00 0. -1.
         21   -1    0    0  502  503 -0.00000000000E+00 -0.00000000000E+00 -0.13550411073E+04  0.13550411073E+04  0.00000000000E+00 0. -1.
          6    1    1    2  501    0  0.14380884695E+02 -0.62916023314E+02 -0.83219619943E+02  0.20167979814E+03  0.17200000000E+03 0. -1.
         -6    1    1    2    0  503 -0.14380884695E+02  0.62916023314E+02 -0.12056333175E+04  0.12195494791E+04  0.17200000000E+03 0. -1.
</event>
<event>
 4    1  0.4394643E+000  0.2137825E+03  0.7818608E-02  0.1138605E+00
         21   -1    0    0  503  502  0.00000000000E+00  0.00000000000E+00  0.25390527989E+03  0.25390527989E+03  0.00000000000E+00 0. -1.
         21   -1    0    0  501  503 -0.00000000000E+00 -0.00000000000E+00 -0.19946591127E+03  0.19946591127E+03  0.00000000000E+00 0.  1.
          6    1    1    2  501    0 -0.12609879706E+03  0.14766466268E+02  0.98034926043E+02  0.23518886425E+03  0.17200000000E+03 0. -1.
         -6    1    1    2    0  502  0.12609879706E+03 -0.14766466268E+02 -0.43595557419E+02  0.21818232690E+03  0.17200000000E+03 0.  1.
</event>
<event>
 4    1  0.4394643E+000  0.1839260E+03  0.7818608E-02  0.1164057E+00
         21   -1    0    0  503  502  0.00000000000E+00  0.00000000000E+00  0.75192664083E+03  0.75192664083E+03  0.00000000000E+00 0. -1.
         21   -1    0    0  501  503 -0.00000000000E+00 -0.00000000000E+00 -0.46136274726E+02  0.46136274726E+02  0.00000000000E+00 0.  1.
          6    1    1    2  501    0 -0.31886191428E+02  0.56815888179E+02  0.28998335632E+03  0.34339353706E+03  0.17200000000E+03 0.  1.
         -6    1    1    2    0  502  0.31886191428E+02 -0.56815888179E+02  0.41580700978E+03  0.45466937849E+03  0.17200000000E+03 0.  1.
</event>
<event>
 4    1  0.4394643E+000  0.1773425E+03  0.7818608E-02  0.1170400E+00
         21   -1    0    0  501  502  0.00000000000E+00  0.00000000000E+00  0.32696632273E+03  0.32696632273E+03  0.00000000000E+00 0.  1.
         21   -1    0    0  502  503 -0.00000000000E+00 -0.00000000000E+00 -0.96189594793E+02  0.96189594793E+02  0.00000000000E+00 0. -1.
          6    1    1    2  501    0  0.22829372881E+02 -0.36676937833E+02  0.11465286755E+03  0.21117684076E+03  0.17200000000E+03 0. -1.
         -6    1    1    2    0  503 -0.22829372881E+02  0.36676937833E+02  0.11612386039E+03  0.21197907677E+03  0.17200000000E+03 0.  1.
</event>
<event>
 4    1  0.4394643E+000  0.2075698E+03  0.7818608E-02  0.1143505E+00
         21   -1    0    0  501  502  0.00000000000E+00  0.00000000000E+00  0.26182116876E+02  0.26182116876E+02  0.00000000000E+00 0. -1.
         21   -1    0    0  502  503 -0.00000000000E+00 -0.00000000000E+00 -0.19688153688E+04  0.19688153688E+04  0.00000000000E+00 0.  1.
          6    1    1    2  501    0  0.90182525761E+02  0.73268925752E+02 -0.56715264137E+03  0.60394316128E+03  0.17200000000E+03 0. -1.
         -6    1    1    2    0  503 -0.90182525761E+02 -0.73268925752E+02 -0.13754806105E+04  0.13910543244E+04  0.17200000000E+03 0.  1.
</event>
<event>
 4    1  0.4394643E+000  0.2743770E+03  0.7818608E-02  0.1098800E+00
         21   -1    0    0  503  502  0.00000000000E+00  0.00000000000E+00  0.12640263330E+03  0.12640263330E+03  0.00000000000E+00 0. -1.
         21   -1    0    0  501  503 -0.00000000000E+00 -0.00000000000E+00 -0.60210564193E+03  0.60210564193E+03  0.00000000000E+00 0.  1.
          6    1    1    2  501    0 -0.14069937436E+03  0.16094238038E+03 -0.19992782571E+03  0.33949064676E+03  0.17200000000E+03 0.  1.
         -6    1    1    2    0  502  0.14069937436E+03 -0.16094238038E+03 -0.27577518292E+03  0.38901762847E+03  0.17200000000E+03 0. -1.
</event>
<event>
 4    1  0.4394643E+000  0.2745802E+03  0.7818608E-02  0.1098687E+00
         21   -1    0    0  503  502  0.00000000000E+00  0.00000000000E+00  0.67851228130E+03  0.67851228130E+03  0.00000000000E+00 0. -1.
         21   -1    0    0  501  503 -0.00000000000E+00 -0.00000000000E+00 -0.19963483729E+03  0.19963483729E+03  0.00000000000E+00 0. -1.
          6    1    1    2  501    0 -0.22132508474E+02  0.21288593326E+03 -0.52932381686E+02  0.27963566572E+03  0.17200000000E+03 0. -1.
         -6    1    1    2    0  502  0.22132508474E+02 -0.21288593326E+03  0.53180982569E+03  0.59851145287E+03  0.17200000000E+03 0. -1.
</event>
<event>
 4    1  0.4394643E+000  0.2254045E+03  0.7818608E-02  0.1129917E+00
         21   -1    0    0  503  502  0.00000000000E+00  0.00000000000E+00  0.62393897029E+02  0.62393897029E+02  0.00000000000E+00 0.  1.
         21   -1    0    0  501  503 -0.00000000000E+00 -0.00000000000E+00 -0.81983763901E+03  0.81983763901E+03  0.00000000000E+00 0.  1.
          6    1    1    2  501    0  0.11505355670E+03 -0.89363696500E+02 -0.41498380805E+03  0.47224861260E+03  0.17200000000E+03 0.  1.
         -6    1    1    2    0  502 -0.11505355670E+03  0.89363696500E+02 -0.34245993393E+03  0.40998292344E+03  0.17200000000E+03 0.  1.
</event>
<event>
 4    1  0.4394643E+000  0.2007860E+03  0.7818608E-02  0.1149078E+00
         21   -1    0    0  503  502  0.00000000000E+00  0.00000000000E+00  0.87000740365E+02  0.87000740365E+02  0.00000000000E+00 0.  1.
         21   -1    0    0  501  503 -0.00000000000E+00 -0.00000000000E+00 -0.68688917577E+03  0.68688917577E+03  0.00000000000E+00 0.  1.
          6    1    1    2  501    0  0.76681173319E+01  0.10330650810E+03 -0.52066665415E+03  0.55804014137E+03  0.17200000000E+03 0.  1.
         -6    1    1    2    0  502 -0.76681173319E+01 -0.10330650810E+03 -0.79221781251E+02  0.21584977476E+03  0.17200000000E+03 0.  1.
</event>
<event>
 4    1  0.4394643E+000  0.1925829E+03  0.7818608E-02  0.1156152E+00
         21   -1    0    0  503  502  0.00000000000E+00  0.00000000000E+00  0.80344083642E+02  0.80344083642E+02  0.00000000000E+00 0. -1.
         21   -1    0    0  501  503 -0.00000000000E+00 -0.00000000000E+00 -0.61625781208E+03  0.61625781208E+03  0.00000000000E+00 0. -1.
          6    1    1    2  501    0 -0.15578473986E+02  0.85214239010E+02 -0.44243306193E+03  0.48252996764E+03  0.17200000000E+03 0. -1.
         -6    1    1    2    0  502  0.15578473986E+02 -0.85214239010E+02 -0.93480666507E+02  0.21407192808E+03  0.17200000000E+03 0. -1.
</event>
<event>
 4    1  0.4394643E+000  0.1851993E+03  0.7818608E-02  0.1162864E+00
         21   -1    0    0  503  502  0.00000000000E+00  0.00000000000E+00  0.42038858103E+03  0.42038858103E+03  0.00000000000E+00 0.  1.
         21   -1    0    0  501  503 -0.00000000000E+00 -0.00000000000E+00 -0.21786944102E+03  0.21786944102E+03  0.00000000000E+00 0.  1.
          6    1    1    2  501    0  0.25339621691E+02 -0.63817685362E+02 -0.15113847877E+03  0.23904316171E+03  0.17200000000E+03 0.  1.
         -6    1    1    2    0  502 -0.25339621691E+02  0.63817685362E+02  0.35365761878E+03  0.39921486034E+03  0.17200000000E+03 0.  1.
</event>
<event>
 4    1  0.4394643E+000  0.2182400E+03  0.7818608E-02  0.1135202E+00
         21   -1    0    0  501  502  0.00000000000E+00  0.00000000000E+00  0.81259015128E+03  0.81259015128E+03  0.00000000000E+00 0. -1.
         21   -1    0    0  502  503 -0.00000000000E+00 -0.00000000000E+00 -0.13373491611E+03  0.13373491611E+03  0.00000000000E+00 0.  1.
          6    1    1    2  501    0  0.12296722323E+03 -0.54071890646E+02  0.69405314017E+03  0.72755650552E+03  0.17200000000E+03 0. -1.
         -6    1    1    2    0  503 -0.12296722323E+03  0.54071890646E+02 -0.15197904998E+02  0.21876856187E+03  0.17200000000E+03 0.  1.
</event>
<event>
 4    1  0.4394643E+000  0.1777525E+03  0.7818608E-02  0.1169996E+00
         21   -1    0    0  501  502  0.00000000000E+00  0.00000000000E+00  0.51665368103E+03  0.51665368103E+03  0.00000000000E+00 0.  1.
         21   -1    0    0  502  503 -0.00000000000E+00 -0.00000000000E+00 -0.61210931070E+02  0.61210931070E+02  0.00000000000E+00 0.  1.
          6    1    1    2  501    0  0.22937358714E+02  0.38546350263E+02  0.23645713583E+03  0.29581737715E+03  0.17200000000E+03 0.  1.
         -6    1    1    2    0  503 -0.22937358714E+02 -0.38546350263E+02  0.21898561414E+03  0.28204723495E+03  0.17200000000E+03 0.  1.
</event>
<event>
 4    1  0.4394643E+000  0.2013953E+03  0.7818608E-02  0.1148567E+00
         21   -1    0    0  501  502  0.00000000000E+00  0.00000000000E+00  0.44250681083E+03  0.44250681083E+03  0.00000000000E+00 0.  1.
         21   -1    0    0  502  503 -0.00000000000E+00 -0.00000000000E+00 -0.11000491365E+03  0.11000491365E+03  0.00000000000E+00 0.  1.
          6    1    1    2  501    0  0.98761479279E+02  0.34960581081E+02  0.27906573664E+03  0.34414787140E+03  0.17200000000E+03 0.  1.
         -6    1    1    2    0  503 -0.98761479279E+02 -0.34960581081E+02  0.53436160540E+02  0.20836385308E+03  0.17200000000E+03 0.  1.
</event>
<event>
 4    1  0.4394643E+000  0.1727564E+03  0.7818608E-02  0.1175004E+00
         21   -1    0    0  501  502  0.00000000000E+00  0.00000000000E+00  0.59508155956E+02  0.59508155956E+02  0.00000000000E+00 0.  1.
         21   -1    0    0  502  503 -0.00000000000E+00 -0.00000000000E+00 -0.79927157059E+03  0.79927157059E+03  0.00000000000E+00 0.  1.
          6    1    1    2  501    0  0.16109724221E+02  0.11140365781E+01 -0.10780479189E+03  0.20363358624E+03  0.17200000000E+03 0. -1.
         -6    1    1    2    0  503 -0.16109724221E+02 -0.11140365781E+01 -0.63195862274E+03  0.65514614030E+03  0.17200000000E+03 0. -1.
</event>
<event>
 4    1  0.4394643E+000  0.1796363E+03  0.7818608E-02  0.1168156E+00
         21   -1    0    0  503  502  0.00000000000E+00  0.00000000000E+00  0.56823018952E+03  0.56823018952E+03  0.00000000000E+00 0. -1.
         21   -1    0    0  501  503 -0.00000000000E+00 -0.00000000000E+00 -0.75925599799E+02  0.75925599799E+02  0.00000000000E+00 0. -1.
          6    1    1    2  501    0  0.36482933768E+02  0.36799245862E+02  0.84456064681E+02  0.19849941011E+03  0.17200000000E+03 0. -1.
         -6    1    1    2    0  502 -0.36482933768E+02 -0.36799245862E+02  0.40784852504E+03  0.44565637921E+03  0.17200000000E+03 0. -1.
</event>
<event>
 4    1  0.4394643E+000  0.2644053E+03  0.7818608E-02  0.1104525E+00
         21   -1    0    0  501  502  0.00000000000E+00  0.00000000000E+00  0.29766839477E+03  0.29766839477E+03  0.00000000000E+00 0. -1.
         21   -1    0    0  502  503 -0.00000000000E+00 -0.00000000000E+00 -0.30529587017E+03  0.30529587017E+03  0.00000000000E+00 0.  1.
          6    1    1    2  501    0  0.14418133321E+03 -0.13977802491E+03  0.14099694624E+03  0.29965028274E+03  0.17200000000E+03 0. -1.
         -6    1    1    2    0  503 -0.14418133321E+03  0.13977802491E+03 -0.14862442164E+03  0.30331398221E+03  0.17200000000E+03 0.  1.
</event>
<event>
 4    1  0.4394643E+000  0.2329099E+03  0.7818608E-02  0.1124608E+00
         21   -1    0    0  501  502  0.00000000000E+00  0.00000000000E+00  0.57003607444E+02  0.57003607444E+02  0.00000000000E+00 0.  1.
         21   -1    0    0  502  503 -0.00000000000E+00 -0.00000000000E+00 -0.10593034939E+04  0.10593034939E+04  0.00000000000E+00 0.  1.
          6    1    1    2  501    0  0.15661952476E+03  0.11546960270E+02 -0.32320962268E+03  0.39838607910E+03  0.17200000000E+03 0.  1.
         -6    1    1    2    0  503 -0.15661952476E+03 -0.11546960270E+02 -0.67909026380E+03  0.71792102227E+03  0.17200000000E+03 0.  1.
</event>
<event>
 4    1  0.4394643E+000  0.3280655E+03  0.7818608E-02  0.1071996E+00
         21   -1    0    0  501  502  0.00000000000E+00  0.00000000000E+00  0.28993752957E+03  0.28993752957E+03  0.00000000000E+00 0. -1.
         21   -1    0    0  502  503 -0.00000000000E+00 -0.00000000000E+00 -0.63299850972E+03  0.63299850972E+03  0.00000000000E+00 0.  1.
          6    1    1    2  501    0  0.25840722212E+03 -0.10615407610E+03  0.12523790250E+03  0.35115738998E+03  0.17200000000E+03 0. -1.
         -6    1    1    2    0  503 -0.25840722212E+03  0.10615407610E+03 -0.46829888265E+03  0.57177864931E+03  0.17200000000E+03 0.  1.
</event>
<event>
 4    1  0.4394643E+000  0.6551899E+03  0.7818608E-02  0.9797089E-01
         21   -1    0    0  503  502  0.00000000000E+00  0.00000000000E+00  0.64705643576E+03  0.64705643576E+03  0.00000000000E+00 0.  1.
         21   -1    0    0  501  503 -0.00000000000E+00 -0.00000000000E+00 -0.75531380456E+03  0.75531380456E+03  0.00000000000E+00 0. -1.
          6    1    1    2  501    0 -0.58125557942E+03  0.24865997597E+03 -0.29869619356E+03  0.72006475285E+03  0.17200000000E+03 0. -1.
         -6    1    1    2    0  502  0.58125557942E+03 -0.24865997597E+03  0.19043882476E+03  0.68230548747E+03  0.17200000000E+03 0.  1.
</event>
<event>
 4    1  0.4394643E+000  0.2625923E+03  0.7818608E-02  0.1105596E+00
         21   -1    0    0  503  502  0.00000000000E+00  0.00000000000E+00  0.30148210913E+02  0.30148210913E+02  0.00000000000E+00 0.  1.
         21   -1    0    0  501  503 -0.00000000000E+00 -0.00000000000E+00 -0.23084955358E+04  0.23084955358E+04  0.00000000000E+00 0.  1.
          6    1    1    2  501    0 -0.19840993577E+03  0.20583284211E+01 -0.12515042243E+04  0.12787562562E+04  0.17200000000E+03 0.  1.
         -6    1    1    2    0  502  0.19840993577E+03 -0.20583284211E+01 -0.10268431006E+04  0.10598874905E+04  0.17200000000E+03 0.  1.
</event>
<event>
 4    1  0.4394643E+000  0.1762650E+03  0.7818608E-02  0.1171468E+00
         21   -1    0    0  501  502  0.00000000000E+00  0.00000000000E+00  0.63008632941E+03  0.63008632941E+03  0.00000000000E+00 0.  1.
         21   -1    0    0  502  503 -0.00000000000E+00 -0.00000000000E+00 -0.11490380936E+03  0.11490380936E+03  0.00000000000E+00 0.  1.
          6    1    1    2  501    0 -0.11699629768E+02  0.36721422473E+02  0.53903128404E+03  0.56711909630E+03  0.17200000000E+03 0.  1.
         -6    1    1    2    0  503  0.11699629768E+02 -0.36721422473E+02 -0.23848763997E+02  0.17787104247E+03  0.17200000000E+03 0.  1.
</event>
<event>
 4    1  0.4394643E+000  0.1821590E+03  0.7818608E-02  0.1165730E+00
         21   -1    0    0  501  502  0.00000000000E+00  0.00000000000E+00  0.23105927063E+03  0.23105927063E+03  0.00000000000E+00 0. -1.
         21   -1    0    0  502  503 -0.00000000000E+00 -0.00000000000E+00 -0.17718096874E+03  0.17718096874E+03  0.00000000000E+00 0. -1.
          6    1    1    2  501    0  0.25923941384E+02 -0.54091210551E+02  0.11579244835E+03  0.21584670693E+03  0.17200000000E+03 0.  1.
         -6    1    1    2    0  503 -0.25923941384E+02  0.54091210551E+02 -0.61914146465E+02  0.19239353245E+03  0.17200000000E+03 0.  1.
</event>
<event>
 4    1  0.4394643E+000  0.2043360E+03  0.7818608E-02  0.1146131E+00
         21   -1    0    0  501  502  0.00000000000E+00  0.00000000000E+00  0.45689462733E+02  0.45689462733E+02  0.00000000000E+00 0. -1.
         21   -1    0    0  502  503 -0.00000000000E+00 -0.00000000000E+00 -0.91434955143E+03  0.91434955143E+03  0.00000000000E+00 0.  1.
          6    1    1    2  501    0  0.25056817351E+02  0.10743071320E+03 -0.44557785456E+03  0.49019672246E+03  0.17200000000E+03 0. -1.
         -6    1    1    2    0  503 -0.25056817351E+02 -0.10743071320E+03 -0.42308223413E+03  0.46984229170E+03  0.17200000000E+03 0. -1.
</event>
<event>
 4    1  0.4394643E+000  0.1916951E+03  0.7818608E-02  0.1156941E+00
         21   -1    0    0  501  502  0.00000000000E+00  0.00000000000E+00  0.48604310248E+03  0.48604310248E+03  0.00000000000E+00 0.  1.
         21   -1    0    0  502  503 -0.00000000000E+00 -0.00000000000E+00 -0.39754265971E+03  0.39754265971E+03  0.00000000000E+00 0.  1.
          6    1    1    2  501    0  0.78402473322E+02  0.31875593497E+02  0.44181978976E+03  0.48161367081E+03  0.17200000000E+03 0.  1.
         -6    1    1    2    0  503 -0.78402473322E+02 -0.31875593497E+02 -0.35331934700E+03  0.40197209138E+03  0.17200000000E+03 0.  1.
</event>
<event>
 4    1  0.4394643E+000  0.2230258E+03  0.7818608E-02  0.1131647E+00
         21   -1    0    0  503  502  0.00000000000E+00  0.00000000000E+00  0.53024072418E+03  0.53024072418E+03  0.00000000000E+00 0.  1.
         21   -1    0    0  501  503 -0.00000000000E+00 -0.00000000000E+00 -0.53350801780E+03  0.53350801780E+03  0.00000000000E+00 0. -1.
          6    1    1    2  501    0 -0.11201113057E+03 -0.87235353308E+02 -0.48448908792E+03  0.53335745664E+03  0.17200000000E+03 0. -1.
         -6    1    1    2    0  502  0.11201113057E+03  0.87235353308E+02  0.48122179431E+03  0.53039128534E+03  0.17200000000E+03 0.  1.
</event>
<event>
 4    1  0.4394643E+000  0.2658803E+03  0.7818608E-02  0.1103661E+00
         21   -1    0    0  501  502  0.00000000000E+00  0.00000000000E+00  0.52156856593E+03  0.52156856593E+03  0.00000000000E+00 0. -1.
         21   -1    0    0  502  503 -0.00000000000E+00 -0.00000000000E+00 -0.18316617865E+03  0.18316617865E+03  0.00000000000E+00 0. -1.
          6    1    1    2  501    0 -0.17355220708E+03 -0.10482361170E+03  0.34888339141E+03  0.43864789861E+03  0.17200000000E+03 0. -1.
         -6    1    1    2    0  503  0.17355220708E+03  0.10482361170E+03 -0.10481004131E+02  0.26608684597E+03  0.17200000000E+03 0. -1.
</event>
<event>
 4    1  0.4394643E+000  0.2042899E+03  0.7818608E-02  0.1146169E+00
         21   -1    0    0  503  502  0.00000000000E+00  0.00000000000E+00  0.12386750538E+04  0.12386750538E+04  0.00000000000E+00 0.  1.
         21   -1    0    0  501  503 -0.00000000000E+00 -0.00000000000E+00 -0.58912862891E+02  0.58912862891E+02  0.00000000000E+00 0.  1.
          6    1    1    2  501    0 -0.63646331623E+02 -0.89997281269E+02  0.16538346994E+03  0.26284226885E+03  0.17200000000E+03 0.  1.
         -6    1    1    2    0  502  0.63646331623E+02  0.89997281269E+02  0.10143787210E+04  0.10347456478E+04  0.17200000000E+03 0.  1.
</event>
<event>
 4    1  0.4394643E+000  0.2229621E+03  0.7818608E-02  0.1131694E+00
         21   -1    0    0  503  502  0.00000000000E+00  0.00000000000E+00  0.18529931053E+04  0.18529931053E+04  0.00000000000E+00 0.  1.
         21   -1    0    0  501  503 -0.00000000000E+00 -0.00000000000E+00 -0.34115113818E+02  0.34115113818E+02  0.00000000000E+00 0.  1.
          6    1    1    2  501    0  0.12631374520E+03  0.64598092908E+02  0.47335359494E+03  0.52323579930E+03  0.17200000000E+03 0.  1.
         -6    1    1    2    0  502 -0.12631374520E+03 -0.64598092908E+02  0.13455243966E+04  0.13638724198E+04  0.17200000000E+03 0.  1.
</event>
<event>
 4    1  0.4394643E+000  0.1892773E+03  0.7818608E-02  0.1159115E+00
         21   -1    0    0  503  502  0.00000000000E+00  0.00000000000E+00  0.40482998553E+03  0.40482998553E+03  0.00000000000E+00 0.  1.
         21   -1    0    0  501  503 -0.00000000000E+00 -0.00000000000E+00 -0.94306026937E+02  0.94306026937E+02  0.00000000000E+00 0. -1.
          6    1    1    2  501    0  0.77671320457E+02  0.14458910622E+02  0.93317480300E+02  0.21103091301E+03  0.17200000000E+03 0.  1.
         -6    1    1    2    0  502 -0.77671320457E+02 -0.14458910622E+02  0.21720647829E+03  0.28810509945E+03  0.17200000000E+03 0.  1.
</event>
<event>
 4    1  0.4394643E+000  0.3189108E+03  0.7818608E-02  0.1076152E+00
         21   -1    0    0  501  502  0.00000000000E+00  0.00000000000E+00  0.65390936676E+02  0.65390936676E+02  0.00000000000E+00 0.  1.
         21   -1    0    0  502  503 -0.00000000000E+00 -0.00000000000E+00 -0.17571028010E+04  0.17571028010E+04  0.00000000000E+00 0. -1.
          6    1    1    2  501    0  0.25177207148E+03 -0.93439546354E+02 -0.11546540979E+04  0.11978857252E+04  0.17200000000E+03 0. -1.
         -6    1    1    2    0  503 -0.25177207148E+03  0.93439546354E+02 -0.53705776644E+03  0.62460801251E+03  0.17200000000E+03 0.  1.
</event>
<event>
 4    1  0.4394643E+000  0.1760792E+03  0.7818608E-02  0.1171652E+00
         21   -1    0    0  503  502  0.00000000000E+00  0.00000000000E+00  0.30146533714E+03  0.30146533714E+03  0.00000000000E+00 0. -1.
         21   -1    0    0  501  503 -0.00000000000E+00 -0.00000000000E+00 -0.14352609233E+03  0.14352609233E+03  0.00000000000E+00 0. -1.
          6    1    1    2  501    0 -0.22037361446E+02 -0.30565569970E+02 -0.39486603683E+02  0.18045246254E+03  0.17200000000E+03 0. -1.
         -6    1    1    2    0  502  0.22037361446E+02  0.30565569970E+02  0.19742584850E+03  0.26453896693E+03  0.17200000000E+03 0. -1.
</event>
<event>
 4    1  0.4394643E+000  0.1762124E+03  0.7818608E-02  0.1171520E+00
         21   -1    0    0  501  502  0.00000000000E+00  0.00000000000E+00  0.19260145237E+03  0.19260145237E+03  0.00000000000E+00 0.  1.
         21   -1    0    0  502  503 -0.00000000000E+00 -0.00000000000E+00 -0.17702146242E+03  0.17702146242E+03  0.00000000000E+00 0.  1.
          6    1    1    2  501    0 -0.30998337515E+02 -0.22492225250E+02  0.63009658150E+02  0.18713902358E+03  0.17200000000E+03 0.  1.
         -6    1    1    2    0  503  0.30998337515E+02  0.22492225250E+02 -0.47429668197E+02  0.18248389121E+03  0.17200000000E+03 0.  1.
</event>
<event>
 4    1  0.4394643E+000  0.1919555E+03  0.7818608E-02  0.1156709E+00
         21   -1    0    0  501  502  0.00000000000E+00  0.00000000000E+00  0.69186971494E+02  0.69186971494E+02  0.00000000000E+00 0. -1.
         21   -1    0    0  502  503 -0.00000000000E+00 -0.00000000000E+00 -0.54176144059E+03  0.54176144059E+03  0.00000000000E+00 0. -1.
          6    1    1    2  501    0  0.54000336379E+02  0.65930899807E+02 -0.27607571470E+03  0.33625097788E+03  0.17200000000E+03 0. -1.
         -6    1    1    2    0  503 -0.54000336379E+02 -0.65930899807E+02 -0.19649875440E+03  0.27469743420E+03  0.17200000000E+03 0. -1.
</event>
<event>
 4    1  0.4394643E+000  0.2488289E+03  0.7818608E-02  0.1114047E+00
         21   -1    0    0  501  502  0.00000000000E+00  0.00000000000E+00  0.11250267980E+04  0.11250267980E+04  0.00000000000E+00 0. -1.
         21   -1    0    0  502  503 -0.00000000000E+00 -0.00000000000E+00 -0.56665690071E+02  0.56665690071E+02  0.00000000000E+00 0. -1.
          6    1    1    2  501    0  0.11440029809E+03 -0.13872414471E+03  0.43394909709E+03  0.50022758360E+03  0.17200000000E+03 0.  1.
         -6    1    1    2    0  503 -0.11440029809E+03  0.13872414471E+03  0.63441201081E+03  0.68146490444E+03  0.17200000000E+03 0.  1.
</event>
<event>
 4    1  0.4394643E+000  0.2046287E+03  0.7818608E-02  0.1145892E+00
         21   -1    0    0  501  502  0.00000000000E+00  0.00000000000E+00  0.94728196455E+03  0.94728196455E+03  0.00000000000E+00 0. -1.
         21   -1    0    0  502  503 -0.00000000000E+00 -0.00000000000E+00 -0.11457692120E+03  0.11457692120E+03  0.00000000000E+00 0. -1.
          6    1    1    2  501    0  0.16667744119E+01 -0.11084271500E+03  0.25654000821E+00  0.20462881375E+03  0.17200000000E+03 0. -1.
         -6    1    1    2    0  503 -0.16667744119E+01  0.11084271500E+03  0.83244850335E+03  0.85723007200E+03  0.17200000000E+03 0. -1.
</event>
<event>
 4    1  0.4394643E+000  0.3310420E+03  0.7818608E-02  0.1070677E+00
         21   -1    0    0  501  502  0.00000000000E+00  0.00000000000E+00  0.98434203176E+03  0.98434203176E+03  0.00000000000E+00 0. -1.
         21   -1    0    0  502  503 -0.00000000000E+00 -0.00000000000E+00 -0.19355166592E+03  0.19355166592E+03  0.00000000000E+00 0.  1.
          6    1    1    2  501    0 -0.25166321188E+03  0.12911415833E+03  0.77924850973E+03  0.84665050524E+03  0.17200000000E+03 0. -1.
         -6    1    1    2    0  503  0.25166321188E+03 -0.12911415833E+03  0.11541856103E+02  0.33124319244E+03  0.17200000000E+03 0.  1.
</event>
<event>
 4    1  0.4394643E+000  0.1866604E+03  0.7818608E-02  0.1161508E+00
         21   -1    0    0  503  502  0.00000000000E+00  0.00000000000E+00  0.31407552082E+03  0.31407552082E+03  0.00000000000E+00 0.  1.
         21   -1    0    0  501  503 -0.00000000000E+00 -0.00000000000E+00 -0.13358067665E+03  0.13358067665E+03  0.00000000000E+00 0.  1.
          6    1    1    2  501    0  0.52823878214E+02  0.49676373441E+02 -0.19102033777E+01  0.18667017187E+03  0.17200000000E+03 0.  1.
         -6    1    1    2    0  502 -0.52823878214E+02 -0.49676373441E+02  0.18240504755E+03  0.26098602560E+03  0.17200000000E+03 0.  1.
</event>
<event>
 4    1  0.4394643E+000  0.2660840E+03  0.7818608E-02  0.1103542E+00
         21   -1    0    0  501  502  0.00000000000E+00  0.00000000000E+00  0.64425282033E+03  0.64425282033E+03  0.00000000000E+00 0.  1.
         21   -1    0    0  502  503 -0.00000000000E+00 -0.00000000000E+00 -0.12213825909E+03  0.12213825909E+03  0.00000000000E+00 0. -1.
          6    1    1    2  501    0 -0.16261101578E+03 -0.12154973661E+03  0.38237629206E+03  0.46584580030E+03  0.17200000000E+03 0.  1.
         -6    1    1    2    0  503  0.16261101578E+03  0.12154973661E+03  0.13973826918E+03  0.30054527911E+03  0.17200000000E+03 0. -1.
</event>
<event>
 4    1  0.4394643E+000  0.2026605E+03  0.7818608E-02  0.1147514E+00
         21   -1    0    0  501  502  0.00000000000E+00  0.00000000000E+00  0.39955970214E+02  0.39955970214E+02  0.00000000000E+00 0.  1.
         21   -1    0    0  502  503 -0.00000000000E+00 -0.00000000000E+00 -0.12827564931E+04  0.12827564931E+04  0.00000000000E+00 0.  1.
          6    1    1    2  501    0  0.36795783155E+02 -0.10066456278E+03 -0.32661916432E+03  0.38438439401E+03  0.17200000000E+03 0.  1.
         -6    1    1    2    0  503 -0.36795783155E+02  0.10066456278E+03 -0.91618135853E+03  0.93832806927E+03  0.17200000000E+03 0.  1.
</event>
<event>
 4    1  0.4394643E+000  0.2338541E+03  0.7818608E-02  0.1123956E+00
         21   -1    0    0  503  502  0.00000000000E+00  0.00000000000E+00  0.13933589484E+03  0.13933589484E+03  0.00000000000E+00 0. -1.
         21   -1    0    0  501  503 -0.00000000000E+00 -0.00000000000E+00 -0.10389974965E+04  0.10389974965E+04  0.00000000000E+00 0.  1.
          6    1    1    2  501    0  0.12937739379E+03 -0.91461715549E+02 -0.91457949586E+03  0.94400392461E+03  0.17200000000E+03 0.  1.
         -6    1    1    2    0  502 -0.12937739379E+03  0.91461715549E+02  0.14917894149E+02  0.23432946678E+03  0.17200000000E+03 0. -1.
</event>
<event>
 4    1  0.4394643E+000  0.1805468E+03  0.7818608E-02  0.1167275E+00
         21   -1    0    0  501  502  0.00000000000E+00  0.00000000000E+00  0.80501237516E+03  0.80501237516E+03  0.00000000000E+00 0.  1.
         21   -1    0    0  502  503 -0.00000000000E+00 -0.00000000000E+00 -0.60529005621E+02  0.60529005621E+02  0.00000000000E+00 0.  1.
          6    1    1    2  501    0 -0.47607036311E+02  0.27326379253E+02  0.62123311831E+03  0.64693720576E+03  0.17200000000E+03 0.  1.
         -6    1    1    2    0  503  0.47607036311E+02 -0.27326379253E+02  0.12325025123E+03  0.21860417502E+03  0.17200000000E+03 0.  1.
</event>
<event>
 4    1  0.4394643E+000  0.1768811E+03  0.7818608E-02  0.1170856E+00
         21   -1    0    0  503  502  0.00000000000E+00  0.00000000000E+00  0.34444337332E+02  0.34444337332E+02  0.00000000000E+00 0.  1.
         21   -1    0    0  501  503 -0.00000000000E+00 -0.00000000000E+00 -0.15834024307E+04  0.15834024307E+04  0.00000000000E+00 0.  1.
          6    1    1    2  501    0  0.35497951519E+02  0.21043418556E+02 -0.13026638977E+04  0.13146178762E+04  0.17200000000E+03 0.  1.
         -6    1    1    2    0  502 -0.35497951519E+02 -0.21043418556E+02 -0.24629419565E+03  0.30322889183E+03  0.17200000000E+03 0.  1.
</event>
<event>
 4    1  0.4394643E+000  0.3544602E+03  0.7818608E-02  0.1060799E+00
         21   -1    0    0  501  502  0.00000000000E+00  0.00000000000E+00  0.29542859633E+03  0.29542859633E+03  0.00000000000E+00 0. -1.
         21   -1    0    0  502  503 -0.00000000000E+00 -0.00000000000E+00 -0.85559041666E+03  0.85559041666E+03  0.00000000000E+00 0.  1.
          6    1    1    2  501    0 -0.18442696996E+03  0.24908784864E+03  0.12805681049E+03  0.37688275405E+03  0.17200000000E+03 0. -1.
         -6    1    1    2    0  503  0.18442696996E+03 -0.24908784864E+03 -0.68821863081E+03  0.77413625893E+03  0.17200000000E+03 0.  1.
</event>
<event>
 4    1  0.4394643E+000  0.2336297E+03  0.7818608E-02  0.1124111E+00
         21   -1    0    0  501  502  0.00000000000E+00  0.00000000000E+00  0.86111586565E+02  0.86111586565E+02  0.00000000000E+00 0.  1.
         21   -1    0    0  502  503 -0.00000000000E+00 -0.00000000000E+00 -0.64825849361E+03  0.64825849361E+03  0.00000000000E+00 0. -1.
          6    1    1    2  501    0  0.13557801033E+03 -0.81347774551E+02 -0.33579270419E+03  0.40907162881E+03  0.17200000000E+03 0.  1.
         -6    1    1    2    0  503 -0.13557801033E+03  0.81347774551E+02 -0.22635420286E+03  0.32529845137E+03  0.17200000000E+03 0. -1.
</event>
<event>
 4    1  0.4394643E+000  0.2872580E+03  0.7818608E-02  0.1091790E+00
         21   -1    0    0  501  502  0.00000000000E+00  0.00000000000E+00  0.13367109999E+03  0.13367109999E+03  0.00000000000E+00 0.  1.
         21   -1    0    0  502  503 -0.00000000000E+00 -0.00000000000E+00 -0.21974264589E+04  0.21974264589E+04  0.00000000000E+00 0.  1.
          6    1    1    2  501    0 -0.11825379371E+03  0.19735546856E+03 -0.43513093501E+02  0.29053490325E+03  0.17200000000E+03 0.  1.
         -6    1    1    2    0  503  0.11825379371E+03 -0.19735546856E+03 -0.20202422655E+04  0.20405626557E+04  0.17200000000E+03 0.  1.
</event>
<event>
 4    1  0.4394643E+000  0.2821277E+03  0.7818608E-02  0.1094532E+00
         21   -1    0    0  503  502  0.00000000000E+00  0.00000000000E+00  0.19519885093E+03  0.19519885093E+03  0.00000000000E+00 0.  1.
         21   -1    0    0  501  503 -0.00000000000E+00 -0.00000000000E+00 -0.48891848745E+03  0.48891848745E+03  0.00000000000E+00 0. -1.
          6    1    1    2  501    0 -0.81947586727E+01  0.22348349235E+03 -0.28621575203E+03  0.40188988807E+03  0.17200000000E+03 0.  1.
         -6    1    1    2    0  502  0.81947586727E+01 -0.22348349235E+03 -0.75038844998E+01  0.28222745031E+03  0.17200000000E+03 0. -1.
</event>
<event>
 4    1  0.4394643E+000  0.1870166E+03  0.7818608E-02  0.1161180E+00
         21   -1    0    0  503  502  0.00000000000E+00  0.00000000000E+00  0.31049707753E+03  0.31049707753E+03  0.00000000000E+00 0.  1.
         21   -1    0    0  501  503 -0.00000000000E+00 -0.00000000000E+00 -0.12643092898E+03  0.12643092898E+03  0.00000000000E+00 0.  1.
          6    1    1    2  501    0  0.72621879684E+02 -0.10829683828E+02  0.19887788441E+02  0.18807111312E+03  0.17200000000E+03 0.  1.
         -6    1    1    2    0  502 -0.72621879684E+02  0.10829683828E+02  0.16417836010E+03  0.24885689339E+03  0.17200000000E+03 0.  1.
</event>
<event>
 4    1  0.4394643E+000  0.1909840E+03  0.7818608E-02  0.1157577E+00
         21   -1    0    0  501  502  0.00000000000E+00  0.00000000000E+00  0.16426784497E+03  0.16426784497E+03  0.00000000000E+00 0.  1.
         21   -1    0    0  502  503 -0.00000000000E+00 -0.00000000000E+00 -0.47922321475E+03  0.47922321475E+03  0.00000000000E+00 0.  1.
          6    1    1    2  501    0 -0.80518848887E+02  0.20189612233E+02  0.78222769582E+02  0.20638242936E+03  0.17200000000E+03 0.  1.
         -6    1    1    2    0  503  0.80518848887E+02 -0.20189612233E+02 -0.39317813936E+03  0.43710863036E+03  0.17200000000E+03 0.  1.
</event>
<event>
 4    1  0.4394643E+000  0.2059511E+03  0.7818608E-02  0.1144813E+00
         21   -1    0    0  501  502  0.00000000000E+00  0.00000000000E+00  0.15378254704E+03  0.15378254704E+03  0.00000000000E+00 0.  1.
         21   -1    0    0  502  503 -0.00000000000E+00 -0.00000000000E+00 -0.30518334988E+03  0.30518334988E+03  0.00000000000E+00 0.  1.
          6    1    1    2  501    0  0.96370908650E+02  0.59535810711E+02 -0.45145255445E+01  0.20600059644E+03  0.17200000000E+03 0.  1.
         -6    1    1    2    0  503 -0.96370908650E+02 -0.59535810711E+02 -0.14688627730E+03  0.25296530049E+03  0.17200000000E+03 0.  1.
</event>
<event>
 4    1  0.4394643E+000  0.2896269E+03  0.7818608E-02  0.1090544E+00
         21   -1    0    0  503  502  0.00000000000E+00  0.00000000000E+00  0.13952842339E+03  0.13952842339E+03  0.00000000000E+00 0.  1.
         21   -1    0    0  501  503 -0.00000000000E+00 -0.00000000000E+00 -0.65550447241E+03  0.65550447241E+03  0.00000000000E+00 0. -1.
          6    1    1    2  501    0  0.23631506093E+02 -0.23182167171E+03 -0.37240926182E+03  0.47177578768E+03  0.17200000000E+03 0.  1.
         -6    1    1    2    0  502 -0.23631506093E+02  0.23182167171E+03 -0.14356678720E+03  0.32325710811E+03  0.17200000000E+03 0. -1.
</event>
<event>
 4    1  0.4394643E+000  0.1890787E+03  0.7818608E-02  0.1159295E+00
         21   -1    0    0  503  502  0.00000000000E+00  0.00000000000E+00  0.26268024081E+04  0.26268024081E+04  0.00000000000E+00 0.  1.
         21   -1    0    0  501  503 -0.00000000000E+00 -0.00000000000E+00 -0.53365364963E+02  0.53365364963E+02  0.00000000000E+00 0.  1.
          6    1    1    2  501    0  0.68828378410E+01  0.78226592621E+02  0.13007339789E+03  0.22949915487E+03  0.17200000000E+03 0.  1.
         -6    1    1    2    0  502 -0.68828378410E+01 -0.78226592621E+02  0.24433636452E+04  0.24506686182E+04  0.17200000000E+03 0.  1.
</event>
<event>
 4    1  0.4394643E+000  0.2157935E+03  0.7818608E-02  0.1137059E+00
         21   -1    0    0  501  502  0.00000000000E+00  0.00000000000E+00  0.38979757398E+03  0.38979757398E+03  0.00000000000E+00 0. -1.
         21   -1    0    0  502  503 -0.00000000000E+00 -0.00000000000E+00 -0.13306060115E+03  0.13306060115E+03  0.00000000000E+00 0.  1.
          6    1    1    2  501    0  0.12808262255E+03  0.24034993475E+02  0.21193683427E+03  0.30246332146E+03  0.17200000000E+03 0. -1.
         -6    1    1    2    0  503 -0.12808262255E+03 -0.24034993475E+02  0.44800138551E+02  0.22039485367E+03  0.17200000000E+03 0.  1.
</event>
<event>
 4    1  0.4394643E+000  0.1814937E+03  0.7818608E-02  0.1166365E+00
         21   -1    0    0  503  502  0.00000000000E+00  0.00000000000E+00  0.19557262921E+03  0.19557262921E+03  0.00000000000E+00 0.  1.
         21   -1    0    0  501  503 -0.00000000000E+00 -0.00000000000E+00 -0.22574526576E+03  0.22574526576E+03  0.00000000000E+00 0. -1.
          6    1    1    2  501    0 -0.24069756541E+02  0.52693474853E+02 -0.12123445467E+03  0.21826073506E+03  0.17200000000E+03 0. -1.
         -6    1    1    2    0  502  0.24069756541E+02 -0.52693474853E+02  0.91061818118E+02  0.20305715991E+03  0.17200000000E+03 0.  1.
</event>
<event>
 4    1  0.4394643E+000  0.2093359E+03  0.7818608E-02  0.1142093E+00
         21   -1    0    0  501  502  0.00000000000E+00  0.00000000000E+00  0.11081523399E+04  0.11081523399E+04  0.00000000000E+00 0.  1.
         21   -1    0    0  502  503 -0.00000000000E+00 -0.00000000000E+00 -0.40936342414E+02  0.40936342414E+02  0.00000000000E+00 0.  1.
          6    1    1    2  501    0 -0.11325418165E+03  0.37563405844E+02  0.63954251020E+03  0.67293100796E+03  0.17200000000E+03 0. -1.
         -6    1    1    2    0  503  0.11325418165E+03 -0.37563405844E+02  0.42767348727E+03  0.47615767434E+03  0.17200000000E+03 0. -1.
</event>
<event>
 4    1  0.4394643E+000  0.1801774E+03  0.7818608E-02  0.1167632E+00
         21   -1    0    0  501  502  0.00000000000E+00  0.00000000000E+00  0.42063372915E+03  0.42063372915E+03  0.00000000000E+00 0.  1.
         21   -1    0    0  502  503 -0.00000000000E+00 -0.00000000000E+00 -0.12529393548E+03  0.12529393548E+03  0.00000000000E+00 0.  1.
          6    1    1    2  501    0 -0.51867292429E+02 -0.13771883778E+02  0.31682390233E+03  0.36447395777E+03  0.17200000000E+03 0.  1.
         -6    1    1    2    0  503  0.51867292429E+02  0.13771883778E+02 -0.21484108653E+02  0.18145370685E+03  0.17200000000E+03 0.  1.
</event>
<event>
 4    1  0.4394643E+000  0.1739094E+03  0.7818608E-02  0.1173831E+00
         21   -1    0    0  503  502  0.00000000000E+00  0.00000000000E+00  0.24110851446E+03  0.24110851446E+03  0.00000000000E+00 0.  1.
         21   -1    0    0  501  503 -0.00000000000E+00 -0.00000000000E+00 -0.22886178109E+03  0.22886178109E+03  0.00000000000E+00 0.  1.
          6    1    1    2  501    0  0.22761544830E+02  0.11933102261E+02 -0.15184176062E+03  0.23086880933E+03  0.17200000000E+03 0.  1.
         -6    1    1    2    0  502 -0.22761544830E+02 -0.11933102261E+02  0.16408849399E+03  0.23910148622E+03  0.17200000000E+03 0.  1.
</event>
<event>
 4    1  0.4394643E+000  0.2197083E+03  0.7818608E-02  0.1134101E+00
         21   -1    0    0  501  502  0.00000000000E+00  0.00000000000E+00  0.35574878768E+03  0.35574878768E+03  0.00000000000E+00 0.  1.
         21   -1    0    0  502  503 -0.00000000000E+00 -0.00000000000E+00 -0.14447266450E+03  0.14447266450E+03  0.00000000000E+00 0.  1.
          6    1    1    2  501    0  0.52158481265E+02 -0.12636142082E+03  0.16730342635E+03  0.27615602892E+03  0.17200000000E+03 0.  1.
         -6    1    1    2    0  503 -0.52158481265E+02  0.12636142082E+03  0.43972696827E+02  0.22406542327E+03  0.17200000000E+03 0.  1.
</event>
<event>
 4    1  0.4394643E+000  0.2280991E+03  0.7818608E-02  0.1127985E+00
         21   -1    0    0  501  502  0.00000000000E+00  0.00000000000E+00  0.36667818671E+03  0.36667818671E+03  0.00000000000E+00 0. -1.
         21   -1    0    0  502  503 -0.00000000000E+00 -0.00000000000E+00 -0.16624839437E+03  0.16624839437E+03  0.00000000000E+00 0.  1.
          6    1    1    2  501    0  0.95659091333E+02 -0.11530196139E+03  0.20220380150E+03  0.30482057246E+03  0.17200000000E+03 0. -1.
         -6    1    1    2    0  503 -0.95659091333E+02  0.11530196139E+03 -0.17740091571E+01  0.22810600861E+03  0.17200000000E+03 0.  1.
</event>
<event>
 4    1  0.4394643E+000  0.2091549E+03  0.7818608E-02  0.1142237E+00
         21   -1    0    0  501  502  0.00000000000E+00  0.00000000000E+00  0.21547805657E+03  0.21547805657E+03  0.00000000000E+00 0. -1.
         21   -1    0    0  502  503 -0.00000000000E+00 -0.00000000000E+00 -0.31491943011E+03  0.31491943011E+03  0.00000000000E+00 0. -1.
          6    1    1    2  501    0  0.16918059886E+02 -0.11779457321E+03  0.10836437358E+03  0.23556022519E+03  0.17200000000E+03 0. -1.
         -6    1    1    2    0  503 -0.16918059886E+02  0.11779457321E+03 -0.20780574713E+03  0.29483726150E+03  0.17200000000E+03 0. -1.
</event>
<event>
 4    1  0.4394643E+000  0.1784929E+03  0.7818608E-02  0.1169270E+00
         21   -1    0    0  501  502  0.00000000000E+00  0.00000000000E+00  0.30932237434E+03  0.30932237434E+03  0.00000000000E+00 0.  1.
         21   -1    0    0  502  503 -0.00000000000E+00 -0.00000000000E+00 -0.17730202573E+03  0.17730202573E+03  0.00000000000E+00 0.  1.
          6    1    1    2  501    0  0.47499006690E+02  0.44229185457E+01  0.22352156371E+03  0.28604476449E+03  0.17200000000E+03 0.  1.
         -6    1    1    2    0  503 -0.47499006690E+02 -0.44229185457E+01 -0.91501215111E+02  0.20057963559E+03  0.17200000000E+03 0.  1.
</event>
<event>
 4    1  0.4394643E+000  0.2097157E+03  0.7818608E-02  0.1141791E+00
         21   -1    0    0  501  502  0.00000000000E+00  0.00000000000E+00  0.46549147046E+03  0.46549147046E+03  0.00000000000E+00 0.  1.
         21   -1    0    0  502  503 -0.00000000000E+00 -0.00000000000E+00 -0.10213423913E+03  0.10213423913E+03  0.00000000000E+00 0.  1.
          6    1    1    2  501    0 -0.40141152216E+02 -0.11307229563E+03  0.10399398583E+03  0.23408418406E+03  0.17200000000E+03 0.  1.
         -6    1    1    2    0  503  0.40141152216E+02  0.11307229563E+03  0.25936324550E+03  0.33354152554E+03  0.17200000000E+03 0.  1.
</event>
<event>
 4    1  0.4394643E+000  0.3337474E+03  0.7818608E-02  0.1069491E+00
         21   -1    0    0  503  502  0.00000000000E+00  0.00000000000E+00  0.14300078876E+04  0.14300078876E+04  0.00000000000E+00 0.  1.
         21   -1    0    0  501  503 -0.00000000000E+00 -0.00000000000E+00 -0.78257885202E+02  0.78257885202E+02  0.00000000000E+00 0. -1.
          6    1    1    2  501    0 -0.51659976377E+02  0.28130869197E+03  0.62436699685E+03  0.70796997118E+03  0.17200000000E+03 0.  1.
         -6    1    1    2    0  502  0.51659976377E+02 -0.28130869197E+03  0.72738300558E+03  0.80029580166E+03  0.17200000000E+03 0. -1.
</event>
<event>
 4    1  0.4394643E+000  0.3629892E+03  0.7818608E-02  0.1057406E+00
         21   -1    0    0  503  502  0.00000000000E+00  0.00000000000E+00  0.55589722402E+03  0.55589722402E+03  0.00000000000E+00 0. -1.
         21   -1    0    0  501  503 -0.00000000000E+00 -0.00000000000E+00 -0.45058993089E+03  0.45058993089E+03  0.00000000000E+00 0.  1.
          6    1    1    2  501    0 -0.34710542220E+02  0.31776145504E+03 -0.29380639747E+03  0.46699396489E+03  0.17200000000E+03 0.  1.
         -6    1    1    2    0  502  0.34710542220E+02 -0.31776145504E+03  0.39911369060E+03  0.53949319001E+03  0.17200000000E+03 0. -1.
</event>
<event>
 4    1  0.4394643E+000  0.1843963E+03  0.7818608E-02  0.1163615E+00
         21   -1    0    0  503  502  0.00000000000E+00  0.00000000000E+00  0.53250172285E+02  0.53250172285E+02  0.00000000000E+00 0.  1.
         21   -1    0    0  501  503 -0.00000000000E+00 -0.00000000000E+00 -0.34996110177E+04  0.34996110177E+04  0.00000000000E+00 0. -1.
          6    1    1    2  501    0 -0.17718259266E+02  0.64063004139E+02 -0.33293936150E+04  0.33344960412E+04  0.17200000000E+03 0. -1.
         -6    1    1    2    0  502  0.17718259266E+02 -0.64063004139E+02 -0.11696723041E+03  0.21836514878E+03  0.17200000000E+03 0.  1.
</event>
<event>
 4    1  0.4394643E+000  0.2038310E+03  0.7818608E-02  0.1146546E+00
         21   -1    0    0  501  502  0.00000000000E+00  0.00000000000E+00  0.10017628267E+03  0.10017628267E+03  0.00000000000E+00 0. -1.
         21   -1    0    0  502  503 -0.00000000000E+00 -0.00000000000E+00 -0.50961416604E+03  0.50961416604E+03  0.00000000000E+00 0.  1.
          6    1    1    2  501    0 -0.98562728555E+02 -0.47417788854E+02 -0.73164632051E+02  0.21656435889E+03  0.17200000000E+03 0. -1.
         -6    1    1    2    0  503  0.98562728555E+02  0.47417788854E+02 -0.33627325132E+03  0.39322608982E+03  0.17200000000E+03 0.  1.
</event>
<event>
 4    1  0.4394643E+000  0.2251835E+03  0.7818608E-02  0.1130076E+00
         21   -1    0    0  503  502  0.00000000000E+00  0.00000000000E+00  0.11574430647E+03  0.11574430647E+03  0.00000000000E+00 0.  1.
         21   -1    0    0  501  503 -0.00000000000E+00 -0.00000000000E+00 -0.63528339141E+03  0.63528339141E+03  0.00000000000E+00 0.  1.
          6    1    1    2  501    0 -0.14519034882E+03 -0.65863935302E+01 -0.46897693116E+03  0.52023742650E+03  0.17200000000E+03 0.  1.
         -6    1    1    2    0  502  0.14519034882E+03  0.65863935302E+01 -0.50562153791E+02  0.23079027138E+03  0.17200000000E+03 0.  1.
</event>
<event>
 4    1  0.4394643E+000  0.2184128E+03  0.7818608E-02  0.1135072E+00
         21   -1    0    0  501  502  0.00000000000E+00  0.00000000000E+00  0.11290930011E+03  0.11290930011E+03  0.00000000000E+00 0.  1.
         21   -1    0    0  502  503 -0.00000000000E+00 -0.00000000000E+00 -0.42912756016E+03  0.42912756016E+03  0.00000000000E+00 0. -1.
          6    1    1    2  501    0  0.42050681558E+02 -0.12787445320E+03 -0.12442734179E+03  0.25136885047E+03  0.17200000000E+03 0.  1.
         -6    1    1    2    0  503 -0.42050681558E+02  0.12787445320E+03 -0.19179091826E+03  0.29066800981E+03  0.17200000000E+03 0. -1.
</event>
<event>
 4    1  0.4394643E+000  0.2528844E+03  0.7818608E-02  0.1111495E+00
         21   -1    0    0  503  502  0.00000000000E+00  0.00000000000E+00  0.11778352259E+03  0.11778352259E+03  0.00000000000E+00 0. -1.
         21   -1    0    0  501  503 -0.00000000000E+00 -0.00000000000E+00 -0.81318748270E+03  0.81318748270E+03  0.00000000000E+00 0. -1.
          6    1    1    2  501    0 -0.17704920837E+03 -0.54955398306E+02 -0.61604105705E+03  0.66592574809E+03  0.17200000000E+03 0.  1.
         -6    1    1    2    0  502  0.17704920837E+03  0.54955398306E+02 -0.79362903054E+02  0.26504525721E+03  0.17200000000E+03 0.  1.
</event>
<event>
 4    1  0.4394643E+000  0.2279035E+03  0.7818608E-02  0.1128124E+00
         21   -1    0    0  503  502  0.00000000000E+00  0.00000000000E+00  0.78528784118E+02  0.78528784118E+02  0.00000000000E+00 0. -1.
         21   -1    0    0  501  503 -0.00000000000E+00 -0.00000000000E+00 -0.66430749411E+03  0.66430749411E+03  0.00000000000E+00 0.  1.
          6    1    1    2  501    0 -0.13367478981E+03 -0.66985553957E+02 -0.31740324012E+03  0.39074906360E+03  0.17200000000E+03 0. -1.
         -6    1    1    2    0  502  0.13367478981E+03  0.66985553957E+02 -0.26837546988E+03  0.35208721462E+03  0.17200000000E+03 0. -1.
</event>
<event>
 4    1  0.4394643E+000  0.1738049E+03  0.7818608E-02  0.1173937E+00
         21   -1    0    0  503  502  0.00000000000E+00  0.00000000000E+00  0.64525871430E+02  0.64525871430E+02  0.00000000000E+00 0. -1.
         21   -1    0    0  501  503 -0.00000000000E+00 -0.00000000000E+00 -0.50905515535E+03  0.50905515535E+03  0.00000000000E+00 0.  1.
          6    1    1    2  501    0  0.22565054615E+02 -0.10721881013E+02 -0.30355560763E+03  0.34979157700E+03  0.17200000000E+03 0.  1.
         -6    1    1    2    0  502 -0.22565054615E+02  0.10721881013E+02 -0.14097367629E+03  0.22378944977E+03  0.17200000000E+03 0. -1.
</event>
<event>
 4    1  0.4394643E+000  0.2165061E+03  0.7818608E-02  0.1136515E+00
         21   -1    0    0  503  502  0.00000000000E+00  0.00000000000E+00  0.76589602601E+03  0.76589602601E+03  0.00000000000E+00 0. -1.
         21   -1    0    0  501  503 -0.00000000000E+00 -0.00000000000E+00 -0.86137223291E+02  0.86137223291E+02  0.00000000000E+00 0.  1.
          6    1    1    2  501    0  0.13119636043E+03  0.88556998259E+01  0.11067043326E+03  0.24315191385E+03  0.17200000000E+03 0.  1.
         -6    1    1    2    0  502 -0.13119636043E+03 -0.88556998259E+01  0.56908836946E+03  0.60888133545E+03  0.17200000000E+03 0. -1.
</event>
<event>
 4    1  0.4394643E+000  0.2558860E+03  0.7818608E-02  0.1109641E+00
         21   -1    0    0  501  502  0.00000000000E+00  0.00000000000E+00  0.39326926541E+03  0.39326926541E+03  0.00000000000E+00 0.  1.
         21   -1    0    0  502  503 -0.00000000000E+00 -0.00000000000E+00 -0.24364340316E+03  0.24364340316E+03  0.00000000000E+00 0.  1.
          6    1    1    2  501    0 -0.18581081674E+03  0.36985992652E+02  0.25401135891E+03  0.36055428679E+03  0.17200000000E+03 0.  1.
         -6    1    1    2    0  503  0.18581081674E+03 -0.36985992652E+02 -0.10438549666E+03  0.27635838178E+03  0.17200000000E+03 0.  1.
</event>
<event>
 4    1  0.4394643E+000  0.2558681E+03  0.7818608E-02  0.1109651E+00
         21   -1    0    0  503  502  0.00000000000E+00  0.00000000000E+00  0.34028097041E+03  0.34028097041E+03  0.00000000000E+00 0.  1.
         21   -1    0    0  501  503 -0.00000000000E+00 -0.00000000000E+00 -0.22327866073E+03  0.22327866073E+03  0.00000000000E+00 0.  1.
          6    1    1    2  501    0 -0.15924020798E+01 -0.18942527780E+03 -0.46295711307E+02  0.26002262306E+03  0.17200000000E+03 0.  1.
         -6    1    1    2    0  502  0.15924020798E+01  0.18942527780E+03  0.16329802099E+03  0.30353700808E+03  0.17200000000E+03 0.  1.
</event>
<event>
 4    1  0.4394643E+000  0.1945821E+03  0.7818608E-02  0.1154392E+00
         21   -1    0    0  503  502  0.00000000000E+00  0.00000000000E+00  0.88425185828E+02  0.88425185828E+02  0.00000000000E+00 0.  1.
         21   -1    0    0  501  503 -0.00000000000E+00 -0.00000000000E+00 -0.10514016136E+04  0.10514016136E+04  0.00000000000E+00 0.  1.
          6    1    1    2  501    0 -0.66996718644E+02 -0.61560006435E+02 -0.92026599247E+03  0.94061240243E+03  0.17200000000E+03 0.  1.
         -6    1    1    2    0  502  0.66996718644E+02  0.61560006435E+02 -0.42710435340E+02  0.19921439704E+03  0.17200000000E+03 0.  1.
</event>
<event>
 4    1  0.4394643E+000  0.2812063E+03  0.7818608E-02  0.1095032E+00
         21   -1    0    0  503  502  0.00000000000E+00  0.00000000000E+00  0.15488081060E+04  0.15488081060E+04  0.00000000000E+00 0. -1.
         21   -1    0    0  501  503 -0.00000000000E+00 -0.00000000000E+00 -0.61495718054E+02  0.61495718054E+02  0.00000000000E+00 0. -1.
          6    1    1    2  501    0 -0.20822986278E+03  0.78315605667E+02  0.41192562294E+03  0.49875818658E+03  0.17200000000E+03 0. -1.
         -6    1    1    2    0  502  0.20822986278E+03 -0.78315605667E+02  0.10753867650E+04  0.11115456375E+04  0.17200000000E+03 0. -1.
</event>
<event>
 4    1  0.4394643E+000  0.4363918E+03  0.7818608E-02  0.1031860E+00
         21   -1    0    0  501  502  0.00000000000E+00  0.00000000000E+00  0.10212145723E+04  0.10212145723E+04  0.00000000000E+00 0.  1.
         21   -1    0    0  502  503 -0.00000000000E+00 -0.00000000000E+00 -0.21826811938E+03  0.21826811938E+03  0.00000000000E+00 0. -1.
          6    1    1    2  501    0 -0.21698776205E+03  0.33729822814E+03  0.63797610412E+03  0.77294973511E+03  0.17200000000E+03 0.  1.
         -6    1    1    2    0  503  0.21698776205E+03 -0.33729822814E+03  0.16497034881E+03  0.46653295657E+03  0.17200000000E+03 0. -1.
</event>
<event>
 4    1  0.4394643E+000  0.2366377E+03  0.7818608E-02  0.1122053E+00
         21   -1    0    0  503  502  0.00000000000E+00  0.00000000000E+00  0.22803565500E+03  0.22803565500E+03  0.00000000000E+00 0. -1.
         21   -1    0    0  501  503 -0.00000000000E+00 -0.00000000000E+00 -0.69909902949E+03  0.69909902949E+03  0.00000000000E+00 0. -1.
          6    1    1    2  501    0 -0.11784401758E+03  0.11192047721E+03 -0.60890973385E+03  0.65327518679E+03  0.17200000000E+03 0. -1.
         -6    1    1    2    0  502  0.11784401758E+03 -0.11192047721E+03  0.13784635935E+03  0.27385949771E+03  0.17200000000E+03 0. -1.
</event>
<event>
 4    1  0.4394643E+000  0.2075449E+03  0.7818608E-02  0.1143525E+00
         21   -1    0    0  501  502  0.00000000000E+00  0.00000000000E+00  0.23420878960E+03  0.23420878960E+03  0.00000000000E+00 0.  1.
         21   -1    0    0  502  503 -0.00000000000E+00 -0.00000000000E+00 -0.21074557881E+03  0.21074557881E+03  0.00000000000E+00 0.  1.
          6    1    1    2  501    0 -0.53542928637E+02  0.10307302091E+03  0.91111043061E+02  0.22666299878E+03  0.17200000000E+03 0.  1.
         -6    1    1    2    0  503  0.53542928637E+02 -0.10307302091E+03 -0.67647832267E+02  0.21829136963E+03  0.17200000000E+03 0.  1.
</event>
<event>
 4    1  0.4394643E+000  0.1859866E+03  0.7818608E-02  0.1162132E+00
         21   -1    0    0  503  502  0.00000000000E+00  0.00000000000E+00  0.87588622258E+02  0.87588622258E+02  0.00000000000E+00 0.  1.
         21   -1    0    0  501  503 -0.00000000000E+00 -0.00000000000E+00 -0.44242086191E+03  0.44242086191E+03  0.00000000000E+00 0.  1.
          6    1    1    2  501    0  0.64744000626E+02  0.28552279185E+02 -0.26424405492E+03  0.32313455220E+03  0.17200000000E+03 0.  1.
         -6    1    1    2    0  502 -0.64744000626E+02 -0.28552279185E+02 -0.90588184728E+02  0.20687493197E+03  0.17200000000E+03 0.  1.
</event>
<event>
 4    1  0.4394643E+000  0.2139995E+03  0.7818608E-02  0.1138437E+00
         21   -1    0    0  503  502  0.00000000000E+00  0.00000000000E+00  0.27026860767E+03  0.27026860767E+03  0.00000000000E+00 0.  1.
         21   -1    0    0  501  503 -0.00000000000E+00 -0.00000000000E+00 -0.16947732938E+03  0.16947732938E+03  0.00000000000E+00 0.  1.
          6    1    1    2  501    0  0.44480810463E+02  0.11930317589E+03  0.53410444667E+02  0.22056397230E+03  0.17200000000E+03 0.  1.
         -6    1    1    2    0  502 -0.44480810463E+02 -0.11930317589E+03  0.47380833619E+02  0.21918196475E+03  0.17200000000E+03 0.  1.
</event>
<event>
 4    1  0.4394643E+000  0.2013481E+03  0.7818608E-02  0.1148607E+00
         21   -1    0    0  501  502  0.00000000000E+00  0.00000000000E+00  0.15503974834E+04  0.15503974834E+04  0.00000000000E+00 0.  1.
         21   -1    0    0  502  503 -0.00000000000E+00 -0.00000000000E+00 -0.39810540117E+02  0.39810540117E+02  0.00000000000E+00 0.  1.
          6    1    1    2  501    0  0.32359317271E+02  0.99548610806E+02  0.28951679366E+03  0.35264858590E+03  0.17200000000E+03 0.  1.
         -6    1    1    2    0  503 -0.32359317271E+02 -0.99548610806E+02  0.12210701496E+04  0.12375594376E+04  0.17200000000E+03 0.  1.
</event>
<event>
 4    1  0.4394643E+000  0.1939610E+03  0.7818608E-02  0.1154937E+00
         21   -1    0    0  503  502  0.00000000000E+00  0.00000000000E+00  0.48081310802E+03  0.48081310802E+03  0.00000000000E+00 0.  1.
         21   -1    0    0  501  503 -0.00000000000E+00 -0.00000000000E+00 -0.78431194543E+02  0.78431194543E+02  0.00000000000E+00 0.  1.
          6    1    1    2  501    0 -0.26183151926E+02 -0.85739679798E+02  0.18753852979E+03  0.26979909246E+03  0.17200000000E+03 0.  1.
         -6    1    1    2    0  502  0.26183151926E+02  0.85739679798E+02  0.21484338369E+03  0.28944521010E+03  0.17200000000E+03 0.  1.
</event>
<event>
 4    1  0.4394643E+000  0.2666899E+03  0.7818608E-02  0.1103189E+00
         21   -1    0    0  501  502  0.00000000000E+00  0.00000000000E+00  0.47027145369E+03  0.47027145369E+03  0.00000000000E+00 0. -1.
         21   -1    0    0  502  503 -0.00000000000E+00 -0.00000000000E+00 -0.16167036649E+03  0.16167036649E+03  0.00000000000E+00 0. -1.
          6    1    1    2  501    0  0.21368603620E+02 -0.20268916093E+03  0.23456010651E+03  0.35516468961E+03  0.17200000000E+03 0. -1.
         -6    1    1    2    0  503 -0.21368603620E+02  0.20268916093E+03  0.74040980693E+02  0.27677713056E+03  0.17200000000E+03 0. -1.
</event>
<event>
 4    1  0.4394643E+000  0.2640330E+03  0.7818608E-02  0.1104744E+00
         21   -1    0    0  501  502  0.00000000000E+00  0.00000000000E+00  0.80161153519E+02  0.80161153519E+02  0.00000000000E+00 0.  1.
         21   -1    0    0  502  503 -0.00000000000E+00 -0.00000000000E+00 -0.14722437067E+04  0.14722437067E+04  0.00000000000E+00 0.  1.
          6    1    1    2  501    0 -0.18399155139E+03  0.79224594262E+02 -0.19945846191E+03  0.33090346832E+03  0.17200000000E+03 0.  1.
         -6    1    1    2    0  503  0.18399155139E+03 -0.79224594262E+02 -0.11926240912E+04  0.12215013919E+04  0.17200000000E+03 0.  1.
</event>
<event>
 4    1  0.4394643E+000  0.1903833E+03  0.7818608E-02  0.1158116E+00
         21   -1    0    0  503  502  0.00000000000E+00  0.00000000000E+00  0.14935543914E+04  0.14935543914E+04  0.00000000000E+00 0.  1.
         21   -1    0    0  501  503 -0.00000000000E+00 -0.00000000000E+00 -0.40036392227E+02  0.40036392227E+02  0.00000000000E+00 0.  1.
          6    1    1    2  501    0 -0.39172388398E+02  0.71605258290E+02  0.24553886785E+03  0.31070102132E+03  0.17200000000E+03 0.  1.
         -6    1    1    2    0  502  0.39172388398E+02 -0.71605258290E+02  0.12079791313E+04  0.12228897623E+04  0.17200000000E+03 0.  1.
</event>
<event>
 4    1  0.4394643E+000  0.1836028E+03  0.7818608E-02  0.1164361E+00
         21   -1    0    0  501  502  0.00000000000E+00  0.00000000000E+00  0.44475176617E+03  0.44475176617E+03  0.00000000000E+00 0.  1.
         21   -1    0    0  502  503 -0.00000000000E+00 -0.00000000000E+00 -0.76749617009E+02  0.76749617009E+02  0.00000000000E+00 0.  1.
          6    1    1    2  501    0 -0.12726685187E+02 -0.62960505818E+02  0.21308042574E+03  0.28127079770E+03  0.17200000000E+03 0.  1.
         -6    1    1    2    0  503  0.12726685187E+02  0.62960505818E+02  0.15492172342E+03  0.24023058547E+03  0.17200000000E+03 0.  1.
</event>
<event>
 4    1  0.4394643E+000  0.2779025E+03  0.7818608E-02  0.1096840E+00
         21   -1    0    0  503  502  0.00000000000E+00  0.00000000000E+00  0.18225370794E+03  0.18225370794E+03  0.00000000000E+00 0. -1.
         21   -1    0    0  501  503 -0.00000000000E+00 -0.00000000000E+00 -0.15825168797E+04  0.15825168797E+04  0.00000000000E+00 0.  1.
          6    1    1    2  501    0  0.21549369542E+03  0.34759829062E+02 -0.14551931431E+04  0.14814914317E+04  0.17200000000E+03 0.  1.
         -6    1    1    2    0  502 -0.21549369542E+03 -0.34759829062E+02  0.54929971280E+02  0.28327915600E+03  0.17200000000E+03 0. -1.
</event>
<event>
 4    1  0.4394643E+000  0.2406737E+03  0.7818608E-02  0.1119345E+00
         21   -1    0    0  503  502  0.00000000000E+00  0.00000000000E+00  0.42799179364E+03  0.42799179364E+03  0.00000000000E+00 0.  1.
         21   -1    0    0  501  503 -0.00000000000E+00 -0.00000000000E+00 -0.22056047057E+03  0.22056047057E+03  0.00000000000E+00 0. -1.
          6    1    1    2  501    0  0.66445586582E+02  0.15467643801E+03 -0.97854683010E+02  0.25980638067E+03  0.17200000000E+03 0. -1.
         -6    1    1    2    0  502 -0.66445586582E+02 -0.15467643801E+03  0.30528600608E+03  0.38874588353E+03  0.17200000000E+03 0.  1.
</event>
<event>
 4    1  0.4394643E+000  0.3987213E+03  0.7818608E-02  0.1044223E+00
         21   -1    0    0  503  502  0.00000000000E+00  0.00000000000E+00  0.33121602646E+03  0.33121602646E+03  0.00000000000E+00 0.  1.
         21   -1    0    0  501  503 -0.00000000000E+00 -0.00000000000E+00 -0.84473687223E+03  0.84473687223E+03  0.00000000000E+00 0.  1.
          6    1    1    2  501    0  0.18807546169E+03  0.30663060331E+03 -0.64312562369E+03  0.75669628916E+03  0.17200000000E+03 0.  1.
         -6    1    1    2    0  502 -0.18807546169E+03 -0.30663060331E+03  0.12960477792E+03  0.41925660953E+03  0.17200000000E+03 0.  1.
</event>
<event>
 4    1  0.4394643E+000  0.1858541E+03  0.7818608E-02  0.1162255E+00
         21   -1    0    0  503  502  0.00000000000E+00  0.00000000000E+00  0.19270842496E+03  0.19270842496E+03  0.00000000000E+00 0. -1.
         21   -1    0    0  501  503 -0.00000000000E+00 -0.00000000000E+00 -0.54016487659E+03  0.54016487659E+03  0.00000000000E+00 0. -1.
          6    1    1    2  501    0 -0.70164975506E+02 -0.58844858703E+01 -0.47325936586E+03  0.50844486263E+03  0.17200000000E+03 0. -1.
         -6    1    1    2    0  502  0.70164975506E+02  0.58844858703E+01  0.12580291423E+03  0.22442843891E+03  0.17200000000E+03 0. -1.
</event>
<event>
 4    1  0.4394643E+000  0.1974657E+03  0.7818608E-02  0.1151895E+00
         21   -1    0    0  503  502  0.00000000000E+00  0.00000000000E+00  0.36861289704E+02  0.36861289704E+02  0.00000000000E+00 0.  1.
         21   -1    0    0  501  503 -0.00000000000E+00 -0.00000000000E+00 -0.15317045981E+04  0.15317045981E+04  0.00000000000E+00 0.  1.
          6    1    1    2  501    0 -0.93832185112E+02 -0.24581317853E+02 -0.11836563292E+04  0.12000145940E+04  0.17200000000E+03 0.  1.
         -6    1    1    2    0  502  0.93832185112E+02  0.24581317853E+02 -0.31118697923E+03  0.36855129385E+03  0.17200000000E+03 0.  1.
</event>
<event>
 4    1  0.4394643E+000  0.1919384E+03  0.7818608E-02  0.1156725E+00
         21   -1    0    0  503  502  0.00000000000E+00  0.00000000000E+00  0.64854896092E+02  0.64854896092E+02  0.00000000000E+00 0.  1.
         21   -1    0    0  501  503 -0.00000000000E+00 -0.00000000000E+00 -0.60614620016E+03  0.60614620016E+03  0.00000000000E+00 0.  1.
          6    1    1    2  501    0 -0.71252673746E+02 -0.46684064503E+02 -0.35476335525E+03  0.40335763737E+03  0.17200000000E+03 0.  1.
         -6    1    1    2    0  502  0.71252673746E+02  0.46684064503E+02 -0.18652794882E+03  0.26764345889E+03  0.17200000000E+03 0.  1.
</event>
<event>
 4    1  0.4394643E+000  0.1874919E+03  0.7818608E-02  0.1160743E+00
         21   -1    0    0  501  502  0.00000000000E+00  0.00000000000E+00  0.38672821026E+03  0.38672821026E+03  0.00000000000E+00 0. -1.
         21   -1    0    0  502  503 -0.00000000000E+00 -0.00000000000E+00 -0.12561081142E+03  0.12561081142E+03  0.00000000000E+00 0. -1.
          6    1    1    2  501    0 -0.42501394032E+02 -0.61342149831E+02  0.26522292553E+03  0.32480213680E+03  0.17200000000E+03 0. -1.
         -6    1    1    2    0  503  0.42501394032E+02  0.61342149831E+02 -0.41055266921E+01  0.18753688488E+03  0.17200000000E+03 0. -1.
</event>
<event>
 4    1  0.4394643E+000  0.3656107E+03  0.7818608E-02  0.1056384E+00
         21   -1    0    0  501  502  0.00000000000E+00  0.00000000000E+00  0.47063565638E+03  0.47063565638E+03  0.00000000000E+00 0. -1.
         21   -1    0    0  502  503 -0.00000000000E+00 -0.00000000000E+00 -0.34212952906E+03  0.34212952906E+03  0.00000000000E+00 0.  1.
          6    1    1    2  501    0 -0.31009676679E+03 -0.89034801037E+02  0.23172941038E+03  0.43286224161E+03  0.17200000000E+03 0. -1.
         -6    1    1    2    0  503  0.31009676679E+03  0.89034801037E+02 -0.10322328306E+03  0.37990294384E+03  0.17200000000E+03 0.  1.
</event>
<event>
 4    1  0.4394643E+000  0.2288675E+03  0.7818608E-02  0.1127439E+00
         21   -1    0    0  501  502  0.00000000000E+00  0.00000000000E+00  0.58024338702E+03  0.58024338702E+03  0.00000000000E+00 0. -1.
         21   -1    0    0  502  503 -0.00000000000E+00 -0.00000000000E+00 -0.23500154423E+03  0.23500154423E+03  0.00000000000E+00 0.  1.
          6    1    1    2  501    0 -0.94922231304E+02 -0.11741421471E+03  0.49251029070E+03  0.54308996884E+03  0.17200000000E+03 0. -1.
         -6    1    1    2    0  503  0.94922231304E+02  0.11741421471E+03 -0.14726844791E+03  0.27215496241E+03  0.17200000000E+03 0.  1.
</event>
<event>
 4    1  0.4394643E+000  0.2510538E+03  0.7818608E-02  0.1112641E+00
         21   -1    0    0  503  502  0.00000000000E+00  0.00000000000E+00  0.13266661788E+03  0.13266661788E+03  0.00000000000E+00 0.  1.
         21   -1    0    0  501  503 -0.00000000000E+00 -0.00000000000E+00 -0.63482374195E+03  0.63482374195E+03  0.00000000000E+00 0.  1.
          6    1    1    2  501    0  0.15777265969E+03  0.92475814816E+02 -0.44357415141E+03  0.50969207986E+03  0.17200000000E+03 0.  1.
         -6    1    1    2    0  502 -0.15777265969E+03 -0.92475814816E+02 -0.58582972653E+02  0.25779827997E+03  0.17200000000E+03 0.  1.
</event>
<event>
 4    1  0.4394643E+000  0.2609855E+03  0.7818608E-02  0.1106553E+00
         21   -1    0    0  501  502  0.00000000000E+00  0.00000000000E+00  0.32987244892E+03  0.32987244892E+03  0.00000000000E+00 0.  1.
         21   -1    0    0  502  503 -0.00000000000E+00 -0.00000000000E+00 -0.39279326107E+03  0.39279326107E+03  0.00000000000E+00 0. -1.
          6    1    1    2  501    0 -0.68330763697E+02  0.18401176682E+03  0.21739238485E+03  0.33966582487E+03  0.17200000000E+03 0.  1.
         -6    1    1    2    0  503  0.68330763697E+02 -0.18401176682E+03 -0.28031319699E+03  0.38299988512E+03  0.17200000000E+03 0. -1.
</event>
<event>
 4    1  0.4394643E+000  0.2296762E+03  0.7818608E-02  0.1126868E+00
         21   -1    0    0  503  502  0.00000000000E+00  0.00000000000E+00  0.44037430160E+02  0.44037430160E+02  0.00000000000E+00 0. -1.
         21   -1    0    0  501  503 -0.00000000000E+00 -0.00000000000E+00 -0.14542478397E+04  0.14542478397E+04  0.00000000000E+00 0.  1.
          6    1    1    2  501    0  0.11212636382E+03 -0.10293117648E+03 -0.39055865548E+03  0.45308631840E+03  0.17200000000E+03 0. -1.
         -6    1    1    2    0  502 -0.11212636382E+03  0.10293117648E+03 -0.10196517540E+04  0.10451989514E+04  0.17200000000E+03 0. -1.
</event>
<event>
 4    1  0.4394643E+000  0.1739342E+03  0.7818608E-02  0.1173806E+00
         21   -1    0    0  503  502  0.00000000000E+00  0.00000000000E+00  0.14617181262E+03  0.14617181262E+03  0.00000000000E+00 0.  1.
         21   -1    0    0  501  503 -0.00000000000E+00 -0.00000000000E+00 -0.21994313256E+03  0.21994313256E+03  0.00000000000E+00 0. -1.
          6    1    1    2  501    0  0.19045772467E+02 -0.17503553731E+02  0.75735806105E+01  0.17409903781E+03  0.17200000000E+03 0.  1.
         -6    1    1    2    0  502 -0.19045772467E+02  0.17503553731E+02 -0.81344900549E+02  0.19201590738E+03  0.17200000000E+03 0. -1.
</event>
<event>
 4    1  0.4394643E+000  0.1811526E+03  0.7818608E-02  0.1166692E+00
         21   -1    0    0  503  502  0.00000000000E+00  0.00000000000E+00  0.11537115648E+04  0.11537115648E+04  0.00000000000E+00 0.  1.
         21   -1    0    0  501  503 -0.00000000000E+00 -0.00000000000E+00 -0.44248887122E+02  0.44248887122E+02  0.00000000000E+00 0.  1.
          6    1    1    2  501    0 -0.25404001204E+02  0.50861635215E+02  0.19675374248E+03  0.26744776012E+03  0.17200000000E+03 0.  1.
         -6    1    1    2    0  502  0.25404001204E+02 -0.50861635215E+02  0.91270893520E+03  0.93051269180E+03  0.17200000000E+03 0.  1.
</event>
<event>
 4    1  0.4394643E+000  0.2788753E+03  0.7818608E-02  0.1096305E+00
         21   -1    0    0  503  502  0.00000000000E+00  0.00000000000E+00  0.12165313442E+04  0.12165313442E+04  0.00000000000E+00 0.  1.
         21   -1    0    0  501  503 -0.00000000000E+00 -0.00000000000E+00 -0.75385202138E+02  0.75385202138E+02  0.00000000000E+00 0. -1.
          6    1    1    2  501    0  0.21833398774E+03  0.22753237960E+02  0.31875624678E+03  0.42352920195E+03  0.17200000000E+03 0.  1.
         -6    1    1    2    0  502 -0.21833398774E+03 -0.22753237960E+02  0.82238989529E+03  0.86838734440E+03  0.17200000000E+03 0.  1.
</event>
<event>
 4    1  0.4394643E+000  0.2564473E+03  0.7818608E-02  0.1109297E+00
         21   -1    0    0  501  502  0.00000000000E+00  0.00000000000E+00  0.56185185407E+03  0.56185185407E+03  0.00000000000E+00 0. -1.
         21   -1    0    0  502  503 -0.00000000000E+00 -0.00000000000E+00 -0.77735075326E+03  0.77735075326E+03  0.00000000000E+00 0.  1.
          6    1    1    2  501    0 -0.47237758555E+02 -0.18425467908E+03  0.50938305508E+03  0.57029491441E+03  0.17200000000E+03 0. -1.
         -6    1    1    2    0  503  0.47237758555E+02  0.18425467908E+03 -0.72488195428E+03  0.76890769292E+03  0.17200000000E+03 0.  1.
</event>
<event>
 4    1  0.4394643E+000  0.1836765E+03  0.7818608E-02  0.1164292E+00
         21   -1    0    0  501  502  0.00000000000E+00  0.00000000000E+00  0.32609226670E+03  0.32609226670E+03  0.00000000000E+00 0.  1.
         21   -1    0    0  502  503 -0.00000000000E+00 -0.00000000000E+00 -0.11108693686E+03  0.11108693686E+03  0.00000000000E+00 0. -1.
          6    1    1    2  501    0  0.11433718522E+02 -0.63421788334E+02  0.16478393057E+03  0.24676060651E+03  0.17200000000E+03 0.  1.
         -6    1    1    2    0  503 -0.11433718522E+02  0.63421788334E+02  0.50221399277E+02  0.19041859704E+03  0.17200000000E+03 0. -1.
</event>
<event>
 4    1  0.4394643E+000  0.1964527E+03  0.7818608E-02  0.1152767E+00
         21   -1    0    0  503  502  0.00000000000E+00  0.00000000000E+00  0.13368364055E+03  0.13368364055E+03  0.00000000000E+00 0.  1.
         21   -1    0    0  501  503 -0.00000000000E+00 -0.00000000000E+00 -0.29764862773E+03  0.29764862773E+03  0.00000000000E+00 0.  1.
          6    1    1    2  501    0 -0.60140005633E+02  0.73436016915E+02 -0.11938950960E+03  0.22988589313E+03  0.17200000000E+03 0.  1.
         -6    1    1    2    0  502  0.60140005633E+02 -0.73436016915E+02 -0.44575477579E+02  0.20144637515E+03  0.17200000000E+03 0.  1.
</event>
<event>
 4    1  0.4394643E+000  0.3445700E+03  0.7818608E-02  0.1064866E+00
         21   -1    0    0  503  502  0.00000000000E+00  0.00000000000E+00  0.24662170019E+03  0.24662170019E+03  0.00000000000E+00 0.  1.
         21   -1    0    0  501  503 -0.00000000000E+00 -0.00000000000E+00 -0.51593167731E+03  0.51593167731E+03  0.00000000000E+00 0. -1.
          6    1    1    2  501    0  0.20560136346E+03  0.21650071432E+03 -0.23326720834E+03  0.41610343719E+03  0.17200000000E+03 0.  1.
         -6    1    1    2    0  502 -0.20560136346E+03 -0.21650071432E+03 -0.36042768777E+02  0.34644994030E+03  0.17200000000E+03 0. -1.
</event>
<event>
 4    1  0.4394643E+000  0.1803108E+03  0.7818608E-02  0.1167503E+00
         21   -1    0    0  503  502  0.00000000000E+00  0.00000000000E+00  0.14882199607E+03  0.14882199607E+03  0.00000000000E+00 0.  1.
         21   -1    0    0  501  503 -0.00000000000E+00 -0.00000000000E+00 -0.22580551408E+03  0.22580551408E+03  0.00000000000E+00 0.  1.
          6    1    1    2  501    0 -0.31187442041E+02 -0.44219267982E+02 -0.72270586421E+02  0.19425508452E+03  0.17200000000E+03 0. -1.
         -6    1    1    2    0  502  0.31187442041E+02  0.44219267982E+02 -0.47129315877E+01  0.18037242563E+03  0.17200000000E+03 0. -1.
</event>
<event>
 4    1  0.4394643E+000  0.1889535E+03  0.7818608E-02  0.1159409E+00
         21   -1    0    0  501  502  0.00000000000E+00  0.00000000000E+00  0.22956288328E+03  0.22956288328E+03  0.00000000000E+00 0. -1.
         21   -1    0    0  502  503 -0.00000000000E+00 -0.00000000000E+00 -0.17615860759E+03  0.17615860759E+03  0.00000000000E+00 0. -1.
          6    1    1    2  501    0  0.27268247999E+02 -0.73320416452E+02  0.96125044491E+02  0.21199873819E+03  0.17200000000E+03 0. -1.
         -6    1    1    2    0  503 -0.27268247999E+02  0.73320416452E+02 -0.42720768807E+02  0.19372275268E+03  0.17200000000E+03 0. -1.
</event>
<event>
 4    1  0.4394643E+000  0.2556784E+03  0.7818608E-02  0.1109768E+00
         21   -1    0    0  501  502  0.00000000000E+00  0.00000000000E+00  0.26619345081E+03  0.26619345081E+03  0.00000000000E+00 0.  1.
         21   -1    0    0  502  503 -0.00000000000E+00 -0.00000000000E+00 -0.24793760344E+03  0.24793760344E+03  0.00000000000E+00 0.  1.
          6    1    1    2  501    0  0.12096143153E+03 -0.14545029173E+03  0.34201887265E+02  0.25795585742E+03  0.17200000000E+03 0.  1.
         -6    1    1    2    0  503 -0.12096143153E+03  0.14545029173E+03 -0.15946039888E+02  0.25617519683E+03  0.17200000000E+03 0.  1.
</event>
<event>
 4    1  0.4394643E+000  0.3227390E+03  0.7818608E-02  0.1074396E+00
         21   -1    0    0  503  502  0.00000000000E+00  0.00000000000E+00  0.13064481705E+04  0.13064481705E+04  0.00000000000E+00 0.  1.
         21   -1    0    0  501  503 -0.00000000000E+00 -0.00000000000E+00 -0.89111725746E+02  0.89111725746E+02  0.00000000000E+00 0. -1.
          6    1    1    2  501    0  0.22407399091E+03 -0.15610033918E+03  0.38223546751E+03  0.50026435203E+03  0.17200000000E+03 0. -1.
         -6    1    1    2    0  502 -0.22407399091E+03  0.15610033918E+03  0.83510097722E+03  0.89529554419E+03  0.17200000000E+03 0.  1.
</event>
