<event>
 4    1  0.5743594E+000  0.1983860E+03  0.7818608E-02  0.1151108E+00
         21   -1    0    0  501  502  0.00000000000E+00  0.00000000000E+00  0.12556945903E+04  0.12556945903E+04  0.00000000000E+00 0.  1.
         21   -1    0    0  502  503 -0.00000000000E+00 -0.00000000000E+00 -0.42223185912E+02  0.42223185912E+02  0.00000000000E+00 0. -1.
          6    1    1    2  501    0  0.72715767480E+02  0.66973187123E+02  0.93616614944E+03  0.95695561548E+03  0.17200000000E+03 0.  1.
         -6    1    1    2    0  503 -0.72715767480E+02 -0.66973187123E+02  0.27730525496E+03  0.34096216075E+03  0.17200000000E+03 0. -1.
</event>
<event>
 4    1  0.5743594E+000  0.1833880E+03  0.7818608E-02  0.1164564E+00
         21   -1    0    0  503  502  0.00000000000E+00  0.00000000000E+00  0.41089790857E+04  0.41089790857E+04  0.00000000000E+00 0. -1.
         21   -1    0    0  501  503 -0.00000000000E+00 -0.00000000000E+00 -0.93758916027E+01  0.93758916027E+01  0.00000000000E+00 0. -1.
          6    1    1    2  501    0  0.38946208547E+02 -0.50302713512E+02  0.13158622731E+04  0.13285799532E+04  0.17200000000E+03 0.  1.
         -6    1    1    2    0  502 -0.38946208547E+02  0.50302713512E+02  0.27837409210E+04  0.27897750241E+04  0.17200000000E+03 0.  1.
</event>
<event>
 4    1  0.5743594E+000  0.2183880E+03  0.7818608E-02  0.1135091E+00
         21   -1    0    0  501  502  0.00000000000E+00  0.00000000000E+00  0.16794879624E+03  0.16794879624E+03  0.00000000000E+00 0. -1.
         21   -1    0    0  502  503 -0.00000000000E+00 -0.00000000000E+00 -0.39371294930E+03  0.39371294930E+03  0.00000000000E+00 0. -1.
          6    1    1    2  501    0  0.11517637791E+03 -0.69596745749E+02  0.35380957276E+02  0.22123543383E+03  0.17200000000E+03 0. -1.
         -6    1    1    2    0  503 -0.11517637791E+03  0.69596745749E+02 -0.26114511033E+03  0.34042631170E+03  0.17200000000E+03 0. -1.
</event>
<event>
 4    1  0.5743594E+000  0.2053399E+03  0.7818608E-02  0.1145310E+00
         21   -1    0    0  501  502  0.00000000000E+00  0.00000000000E+00  0.41058889072E+02  0.41058889072E+02  0.00000000000E+00 0.  1.
         21   -1    0    0  502  503 -0.00000000000E+00 -0.00000000000E+00 -0.10393442105E+04  0.10393442105E+04  0.00000000000E+00 0.  1.
          6    1    1    2  501    0  0.57549883811E+02  0.96272944132E+02 -0.55818908907E+03  0.59476005923E+03  0.17200000000E+03 0.  1.
         -6    1    1    2    0  503 -0.57549883811E+02 -0.96272944132E+02 -0.44009623238E+03  0.48564304036E+03  0.17200000000E+03 0.  1.
</event>
<event>
 4    1  0.5743594E+000  0.2061433E+03  0.7818608E-02  0.1144657E+00
         21   -1    0    0  503  502  0.00000000000E+00  0.00000000000E+00  0.18597795416E+04  0.18597795416E+04  0.00000000000E+00 0. -1.
         21   -1    0    0  501  503 -0.00000000000E+00 -0.00000000000E+00 -0.25257857198E+02  0.25257857198E+02  0.00000000000E+00 0. -1.
          6    1    1    2  501    0 -0.10705435346E+02  0.11312133546E+03  0.12083001688E+04  0.12257586797E+04  0.17200000000E+03 0. -1.
         -6    1    1    2    0  502  0.10705435346E+02 -0.11312133546E+03  0.62622151560E+03  0.65927871912E+03  0.17200000000E+03 0. -1.
</event>
<event>
 4    1  0.5743594E+000  0.1740379E+03  0.7818608E-02  0.1173701E+00
         21   -1    0    0  503  502  0.00000000000E+00  0.00000000000E+00  0.21264798222E+02  0.21264798222E+02  0.00000000000E+00 0. -1.
         21   -1    0    0  501  503 -0.00000000000E+00 -0.00000000000E+00 -0.18013289144E+04  0.18013289144E+04  0.00000000000E+00 0. -1.
          6    1    1    2  501    0  0.89029104388E+01 -0.25018784325E+02 -0.13069046165E+04  0.13184418372E+04  0.17200000000E+03 0.  1.
         -6    1    1    2    0  502 -0.89029104388E+01  0.25018784325E+02 -0.47315949970E+03  0.50415187547E+03  0.17200000000E+03 0.  1.
</event>
<event>
 4    1  0.5743594E+000  0.2602534E+03  0.7818608E-02  0.1106991E+00
         21   -1    0    0  501  502  0.00000000000E+00  0.00000000000E+00  0.17029397555E+03  0.17029397555E+03  0.00000000000E+00 0. -1.
         21   -1    0    0  502  503 -0.00000000000E+00 -0.00000000000E+00 -0.65384293107E+03  0.65384293107E+03  0.00000000000E+00 0.  1.
          6    1    1    2  501    0 -0.14763521384E+03  0.12787360391E+03  0.16121435957E+02  0.26075221119E+03  0.17200000000E+03 0. -1.
         -6    1    1    2    0  503  0.14763521384E+03 -0.12787360391E+03 -0.49967039148E+03  0.56338469544E+03  0.17200000000E+03 0.  1.
</event>
<event>
 4    1  0.5743594E+000  0.1934602E+03  0.7818608E-02  0.1155377E+00
         21   -1    0    0  501  502  0.00000000000E+00  0.00000000000E+00  0.19046342686E+04  0.19046342686E+04  0.00000000000E+00 0. -1.
         21   -1    0    0  502  503 -0.00000000000E+00 -0.00000000000E+00 -0.23086193647E+02  0.23086193647E+02  0.00000000000E+00 0. -1.
          6    1    1    2  501    0 -0.74778651437E+02  0.47444825709E+02  0.13126090976E+04  0.13267891699E+04  0.17200000000E+03 0. -1.
         -6    1    1    2    0  503  0.74778651437E+02 -0.47444825709E+02  0.56893897730E+03  0.60093129232E+03  0.17200000000E+03 0. -1.
</event>
<event>
 4    1  0.5743594E+000  0.2578762E+03  0.7818608E-02  0.1108426E+00
         21   -1    0    0  503  502  0.00000000000E+00  0.00000000000E+00  0.26462733390E+03  0.26462733390E+03  0.00000000000E+00 0.  1.
         21   -1    0    0  501  503 -0.00000000000E+00 -0.00000000000E+00 -0.25985097331E+03  0.25985097331E+03  0.00000000000E+00 0. -1.
          6    1    1    2  501    0  0.92419529243E+02  0.16844808533E+03 -0.45190503854E+02  0.26180586028E+03  0.17200000000E+03 0.  1.
         -6    1    1    2    0  502 -0.92419529243E+02 -0.16844808533E+03  0.49966864445E+02  0.26267244694E+03  0.17200000000E+03 0. -1.
</event>
<event>
 4    1  0.5743594E+000  0.1757649E+03  0.7818608E-02  0.1171966E+00
         21   -1    0    0  501  502  0.00000000000E+00  0.00000000000E+00  0.58021087123E+03  0.58021087123E+03  0.00000000000E+00 0. -1.
         21   -1    0    0  502  503 -0.00000000000E+00 -0.00000000000E+00 -0.68384642833E+02  0.68384642833E+02  0.00000000000E+00 0. -1.
          6    1    1    2  501    0 -0.23375756208E+02 -0.27620303308E+02  0.40850202750E+03  0.44471025804E+03  0.17200000000E+03 0. -1.
         -6    1    1    2    0  503  0.23375756208E+02  0.27620303308E+02  0.10332420090E+03  0.20388525602E+03  0.17200000000E+03 0. -1.
</event>
<event>
 4    1  0.5743594E+000  0.2022770E+03  0.7818608E-02  0.1147832E+00
         21   -1    0    0  501  502  0.00000000000E+00  0.00000000000E+00  0.42917813645E+02  0.42917813645E+02  0.00000000000E+00 0.  1.
         21   -1    0    0  502  503 -0.00000000000E+00 -0.00000000000E+00 -0.13306977203E+04  0.13306977203E+04  0.00000000000E+00 0.  1.
          6    1    1    2  501    0 -0.45018540801E+02  0.96464133038E+02 -0.27815848495E+03  0.34393043007E+03  0.17200000000E+03 0.  1.
         -6    1    1    2    0  503  0.45018540801E+02 -0.96464133038E+02 -0.10096214217E+04  0.10296851039E+04  0.17200000000E+03 0.  1.
</event>
<event>
 4    1  0.5743594E+000  0.1825441E+03  0.7818608E-02  0.1165363E+00
         21   -1    0    0  503  502  0.00000000000E+00  0.00000000000E+00  0.11048044459E+03  0.11048044459E+03  0.00000000000E+00 0. -1.
         21   -1    0    0  501  503 -0.00000000000E+00 -0.00000000000E+00 -0.38059194603E+03  0.38059194603E+03  0.00000000000E+00 0. -1.
          6    1    1    2  501    0 -0.17950228318E+02 -0.58447643583E+02 -0.23204355222E+02  0.18401298823E+03  0.17200000000E+03 0. -1.
         -6    1    1    2    0  502  0.17950228318E+02  0.58447643583E+02 -0.24690714622E+03  0.30705940238E+03  0.17200000000E+03 0. -1.
</event>
<event>
 4    1  0.5743594E+000  0.2478017E+03  0.7818608E-02  0.1114702E+00
         21   -1    0    0  503  502  0.00000000000E+00  0.00000000000E+00  0.37766208472E+03  0.37766208472E+03  0.00000000000E+00 0. -1.
         21   -1    0    0  501  503 -0.00000000000E+00 -0.00000000000E+00 -0.18667106051E+03  0.18667106051E+03  0.00000000000E+00 0.  1.
          6    1    1    2  501    0 -0.14105258036E+03  0.10920556724E+03 -0.58411215366E+01  0.24787054089E+03  0.17200000000E+03 0.  1.
         -6    1    1    2    0  502  0.14105258036E+03 -0.10920556724E+03  0.19683214575E+03  0.31646260433E+03  0.17200000000E+03 0.  1.
</event>
<event>
 4    1  0.5743594E+000  0.2821021E+03  0.7818608E-02  0.1094546E+00
         21   -1    0    0  501  502  0.00000000000E+00  0.00000000000E+00  0.11191972378E+03  0.11191972378E+03  0.00000000000E+00 0. -1.
         21   -1    0    0  502  503 -0.00000000000E+00 -0.00000000000E+00 -0.75505807038E+03  0.75505807038E+03  0.00000000000E+00 0. -1.
          6    1    1    2  501    0 -0.43875147510E+02  0.21925452972E+03 -0.21692686166E+03  0.35586351412E+03  0.17200000000E+03 0. -1.
         -6    1    1    2    0  503  0.43875147510E+02 -0.21925452972E+03 -0.42621148494E+03  0.51111428005E+03  0.17200000000E+03 0. -1.
</event>
<event>
 4    1  0.5743594E+000  0.2313369E+03  0.7818608E-02  0.1125702E+00
         21   -1    0    0  501  502  0.00000000000E+00  0.00000000000E+00  0.15242410596E+04  0.15242410596E+04  0.00000000000E+00 0. -1.
         21   -1    0    0  502  503 -0.00000000000E+00 -0.00000000000E+00 -0.50085875743E+02  0.50085875743E+02  0.00000000000E+00 0. -1.
          6    1    1    2  501    0 -0.56131981197E+02  0.14415942409E+03  0.11675024700E+04  0.11902011411E+04  0.17200000000E+03 0. -1.
         -6    1    1    2    0  503  0.56131981197E+02 -0.14415942409E+03  0.30665271382E+03  0.38412579419E+03  0.17200000000E+03 0. -1.
</event>
<event>
 4    1  0.5743594E+000  0.2245517E+03  0.7818608E-02  0.1130534E+00
         21   -1    0    0  501  502  0.00000000000E+00  0.00000000000E+00  0.30452216498E+03  0.30452216498E+03  0.00000000000E+00 0. -1.
         21   -1    0    0  502  503 -0.00000000000E+00 -0.00000000000E+00 -0.20507736086E+03  0.20507736086E+03  0.00000000000E+00 0. -1.
          6    1    1    2  501    0  0.13543309081E+03 -0.49973446592E+02  0.16154041969E+03  0.27662027157E+03  0.17200000000E+03 0. -1.
         -6    1    1    2    0  503 -0.13543309081E+03  0.49973446592E+02 -0.62095615563E+02  0.23297925427E+03  0.17200000000E+03 0. -1.
</event>
<event>
 4    1  0.5743594E+000  0.1986527E+03  0.7818608E-02  0.1150881E+00
         21   -1    0    0  501  502  0.00000000000E+00  0.00000000000E+00  0.10527086769E+04  0.10527086769E+04  0.00000000000E+00 0. -1.
         21   -1    0    0  502  503 -0.00000000000E+00 -0.00000000000E+00 -0.37552526501E+02  0.37552526501E+02  0.00000000000E+00 0.  1.
          6    1    1    2  501    0  0.96886081057E+02  0.22180391442E+02  0.48480541716E+03  0.52392668855E+03  0.17200000000E+03 0.  1.
         -6    1    1    2    0  503 -0.96886081057E+02 -0.22180391442E+02  0.53035073327E+03  0.56633451488E+03  0.17200000000E+03 0. -1.
</event>
<event>
 4    1  0.5743594E+000  0.1766688E+03  0.7818608E-02  0.1171066E+00
         21   -1    0    0  503  502  0.00000000000E+00  0.00000000000E+00  0.19435824596E+03  0.19435824596E+03  0.00000000000E+00 0. -1.
         21   -1    0    0  501  503 -0.00000000000E+00 -0.00000000000E+00 -0.22640117279E+03  0.22640117279E+03  0.00000000000E+00 0. -1.
          6    1    1    2  501    0 -0.36423874273E+02  0.17354591084E+02 -0.12944839972E+03  0.21901773590E+03  0.17200000000E+03 0. -1.
         -6    1    1    2    0  502  0.36423874273E+02 -0.17354591084E+02  0.97405472885E+02  0.20174168284E+03  0.17200000000E+03 0. -1.
</event>
<event>
 4    1  0.5743594E+000  0.1975234E+03  0.7818608E-02  0.1151846E+00
         21   -1    0    0  503  502  0.00000000000E+00  0.00000000000E+00  0.82159128085E+03  0.82159128085E+03  0.00000000000E+00 0. -1.
         21   -1    0    0  501  503 -0.00000000000E+00 -0.00000000000E+00 -0.48393591846E+02  0.48393591846E+02  0.00000000000E+00 0.  1.
          6    1    1    2  501    0  0.96064656731E+02  0.14249993224E+02  0.32708392357E+03  0.38209864386E+03  0.17200000000E+03 0. -1.
         -6    1    1    2    0  502 -0.96064656731E+02 -0.14249993224E+02  0.44611376544E+03  0.48788622884E+03  0.17200000000E+03 0.  1.
</event>
<event>
 4    1  0.5743594E+000  0.1947272E+03  0.7818608E-02  0.1154266E+00
         21   -1    0    0  501  502  0.00000000000E+00  0.00000000000E+00  0.24210005533E+03  0.24210005533E+03  0.00000000000E+00 0.  1.
         21   -1    0    0  502  503 -0.00000000000E+00 -0.00000000000E+00 -0.23895349850E+03  0.23895349850E+03  0.00000000000E+00 0. -1.
          6    1    1    2  501    0  0.19545148222E+02  0.89177724071E+02  0.14275694862E+03  0.24145025506E+03  0.17200000000E+03 0.  1.
         -6    1    1    2    0  503 -0.19545148222E+02 -0.89177724071E+02 -0.13961039178E+03  0.23960329877E+03  0.17200000000E+03 0. -1.
</event>
<event>
 4    1  0.5743594E+000  0.2341548E+03  0.7818608E-02  0.1123749E+00
         21   -1    0    0  503  502  0.00000000000E+00  0.00000000000E+00  0.34314200653E+03  0.34314200653E+03  0.00000000000E+00 0. -1.
         21   -1    0    0  501  503 -0.00000000000E+00 -0.00000000000E+00 -0.16600545766E+03  0.16600545766E+03  0.00000000000E+00 0. -1.
          6    1    1    2  501    0  0.15402218333E+03 -0.39008025397E+02  0.39283467050E+02  0.23742714627E+03  0.17200000000E+03 0. -1.
         -6    1    1    2    0  502 -0.15402218333E+03  0.39008025397E+02  0.13785308181E+03  0.27172031792E+03  0.17200000000E+03 0. -1.
</event>
<event>
 4    1  0.5743594E+000  0.1726064E+03  0.7818608E-02  0.1175157E+00
         21   -1    0    0  501  502  0.00000000000E+00  0.00000000000E+00  0.61460601880E+02  0.61460601880E+02  0.00000000000E+00 0. -1.
         21   -1    0    0  502  503 -0.00000000000E+00 -0.00000000000E+00 -0.55849132266E+03  0.55849132266E+03  0.00000000000E+00 0. -1.
          6    1    1    2  501    0  0.12659914810E+02  0.69777863993E+01 -0.36115164616E+03  0.40027924562E+03  0.17200000000E+03 0. -1.
         -6    1    1    2    0  503 -0.12659914810E+02 -0.69777863993E+01 -0.13587907462E+03  0.21967267892E+03  0.17200000000E+03 0. -1.
</event>
<event>
 4    1  0.5743594E+000  0.1898657E+03  0.7818608E-02  0.1158583E+00
         21   -1    0    0  503  502  0.00000000000E+00  0.00000000000E+00  0.18906512846E+03  0.18906512846E+03  0.00000000000E+00 0.  1.
         21   -1    0    0  501  503 -0.00000000000E+00 -0.00000000000E+00 -0.21906863708E+03  0.21906863708E+03  0.00000000000E+00 0.  1.
          6    1    1    2  501    0 -0.61722550564E+02 -0.51529589446E+02 -0.88475851466E+02  0.20946825089E+03  0.17200000000E+03 0. -1.
         -6    1    1    2    0  502  0.61722550564E+02  0.51529589446E+02  0.58472342839E+02  0.19866551466E+03  0.17200000000E+03 0. -1.
</event>
<event>
 4    1  0.5743594E+000  0.1806173E+03  0.7818608E-02  0.1167207E+00
         21   -1    0    0  503  502  0.00000000000E+00  0.00000000000E+00  0.62109755960E+03  0.62109755960E+03  0.00000000000E+00 0.  1.
         21   -1    0    0  501  503 -0.00000000000E+00 -0.00000000000E+00 -0.59388099340E+02  0.59388099340E+02  0.00000000000E+00 0.  1.
          6    1    1    2  501    0  0.51919511507E+02 -0.18520017543E+02  0.16518331976E+03  0.24476142639E+03  0.17200000000E+03 0.  1.
         -6    1    1    2    0  502 -0.51919511507E+02  0.18520017543E+02  0.39652614050E+03  0.43572423254E+03  0.17200000000E+03 0.  1.
</event>
<event>
 4    1  0.5743594E+000  0.1841329E+03  0.7818608E-02  0.1163862E+00
         21   -1    0    0  503  502  0.00000000000E+00  0.00000000000E+00  0.27655073750E+03  0.27655073750E+03  0.00000000000E+00 0.  1.
         21   -1    0    0  501  503 -0.00000000000E+00 -0.00000000000E+00 -0.26719229554E+03  0.26719229554E+03  0.00000000000E+00 0.  1.
          6    1    1    2  501    0 -0.63514277370E+02 -0.16936731306E+02 -0.19531867598E+03  0.26842932307E+03  0.17200000000E+03 0.  1.
         -6    1    1    2    0  502  0.63514277370E+02  0.16936731306E+02  0.20467711793E+03  0.27531370998E+03  0.17200000000E+03 0.  1.
</event>
<event>
 4    1  0.5743594E+000  0.2876331E+03  0.7818608E-02  0.1091591E+00
         21   -1    0    0  503  502  0.00000000000E+00  0.00000000000E+00  0.38697909051E+03  0.38697909051E+03  0.00000000000E+00 0. -1.
         21   -1    0    0  501  503 -0.00000000000E+00 -0.00000000000E+00 -0.25401345151E+03  0.25401345151E+03  0.00000000000E+00 0.  1.
          6    1    1    2  501    0  0.84720699999E+01 -0.23038447569E+03 -0.61051478471E+02  0.29404092510E+03  0.17200000000E+03 0.  1.
         -6    1    1    2    0  502 -0.84720699999E+01  0.23038447569E+03  0.19401711747E+03  0.34695161692E+03  0.17200000000E+03 0. -1.
</event>
<event>
 4    1  0.5743594E+000  0.2304754E+03  0.7818608E-02  0.1126306E+00
         21   -1    0    0  501  502  0.00000000000E+00  0.00000000000E+00  0.15829442210E+03  0.15829442210E+03  0.00000000000E+00 0.  1.
         21   -1    0    0  502  503 -0.00000000000E+00 -0.00000000000E+00 -0.50496993840E+03  0.50496993840E+03  0.00000000000E+00 0. -1.
          6    1    1    2  501    0  0.13913162034E+03  0.64632038893E+02  0.18741350177E+02  0.23123612701E+03  0.17200000000E+03 0.  1.
         -6    1    1    2    0  503 -0.13913162034E+03 -0.64632038893E+02 -0.36541686647E+03  0.43202823349E+03  0.17200000000E+03 0. -1.
</event>
<event>
 4    1  0.5743594E+000  0.2177513E+03  0.7818608E-02  0.1135571E+00
         21   -1    0    0  501  502  0.00000000000E+00  0.00000000000E+00  0.60658625057E+03  0.60658625057E+03  0.00000000000E+00 0. -1.
         21   -1    0    0  502  503 -0.00000000000E+00 -0.00000000000E+00 -0.80904471931E+02  0.80904471931E+02  0.00000000000E+00 0. -1.
          6    1    1    2  501    0  0.36699913153E+02 -0.12839298793E+03  0.19962228385E+03  0.29540599043E+03  0.17200000000E+03 0. -1.
         -6    1    1    2    0  503 -0.36699913153E+02  0.12839298793E+03  0.32605949480E+03  0.39208473207E+03  0.17200000000E+03 0. -1.
</event>
<event>
 4    1  0.5743594E+000  0.2009748E+03  0.7818608E-02  0.1148919E+00
         21   -1    0    0  501  502  0.00000000000E+00  0.00000000000E+00  0.73696644061E+02  0.73696644061E+02  0.00000000000E+00 0.  1.
         21   -1    0    0  502  503 -0.00000000000E+00 -0.00000000000E+00 -0.55343939575E+03  0.55343939575E+03  0.00000000000E+00 0. -1.
          6    1    1    2  501    0  0.10332150411E+03 -0.11468962097E+02 -0.27075914532E+03  0.33719635982E+03  0.17200000000E+03 0.  1.
         -6    1    1    2    0  503 -0.10332150411E+03  0.11468962097E+02 -0.20898360638E+03  0.28993968000E+03  0.17200000000E+03 0.  1.
</event>
<event>
 4    1  0.5743594E+000  0.1889914E+03  0.7818608E-02  0.1159374E+00
         21   -1    0    0  501  502  0.00000000000E+00  0.00000000000E+00  0.96367802231E+02  0.96367802231E+02  0.00000000000E+00 0.  1.
         21   -1    0    0  502  503 -0.00000000000E+00 -0.00000000000E+00 -0.47930079240E+03  0.47930079240E+03  0.00000000000E+00 0.  1.
          6    1    1    2  501    0 -0.77230746563E+02  0.13005843014E+02 -0.54417656538E+02  0.19666982867E+03  0.17200000000E+03 0.  1.
         -6    1    1    2    0  503  0.77230746563E+02 -0.13005843014E+02 -0.32851533364E+03  0.37899876596E+03  0.17200000000E+03 0.  1.
</event>
<event>
 4    1  0.5743594E+000  0.1875357E+03  0.7818608E-02  0.1160703E+00
         21   -1    0    0  501  502  0.00000000000E+00  0.00000000000E+00  0.57711147690E+02  0.57711147690E+02  0.00000000000E+00 0.  1.
         21   -1    0    0  502  503 -0.00000000000E+00 -0.00000000000E+00 -0.68856052752E+03  0.68856052752E+03  0.00000000000E+00 0. -1.
          6    1    1    2  501    0  0.27322911671E+02 -0.69563651472E+02 -0.18891379908E+03  0.26619178535E+03  0.17200000000E+03 0.  1.
         -6    1    1    2    0  503 -0.27322911671E+02  0.69563651472E+02 -0.44193558075E+03  0.48007988985E+03  0.17200000000E+03 0. -1.
</event>
<event>
 4    1  0.5743594E+000  0.1862124E+03  0.7818608E-02  0.1161923E+00
         21   -1    0    0  503  502  0.00000000000E+00  0.00000000000E+00  0.87139098115E+03  0.87139098115E+03  0.00000000000E+00 0.  1.
         21   -1    0    0  501  503 -0.00000000000E+00 -0.00000000000E+00 -0.39840609955E+02  0.39840609955E+02  0.00000000000E+00 0.  1.
          6    1    1    2  501    0  0.19344131594E+02  0.68679355386E+02  0.43156553105E+03  0.47002537897E+03  0.17200000000E+03 0. -1.
         -6    1    1    2    0  502 -0.19344131594E+02 -0.68679355386E+02  0.39998484015E+03  0.44120621214E+03  0.17200000000E+03 0. -1.
</event>
<event>
 4    1  0.5743594E+000  0.3076514E+03  0.7818608E-02  0.1081477E+00
         21   -1    0    0  501  502  0.00000000000E+00  0.00000000000E+00  0.24060753786E+03  0.24060753786E+03  0.00000000000E+00 0. -1.
         21   -1    0    0  502  503 -0.00000000000E+00 -0.00000000000E+00 -0.46609567301E+03  0.46609567301E+03  0.00000000000E+00 0.  1.
          6    1    1    2  501    0 -0.18591992445E+03 -0.17464003023E+03  0.26826520274E+02  0.30881875050E+03  0.17200000000E+03 0. -1.
         -6    1    1    2    0  503  0.18591992445E+03  0.17464003023E+03 -0.25231465542E+03  0.39788446037E+03  0.17200000000E+03 0.  1.
</event>
<event>
 4    1  0.5743594E+000  0.2086857E+03  0.7818608E-02  0.1142611E+00
         21   -1    0    0  503  502  0.00000000000E+00  0.00000000000E+00  0.24030196693E+03  0.24030196693E+03  0.00000000000E+00 0.  1.
         21   -1    0    0  501  503 -0.00000000000E+00 -0.00000000000E+00 -0.10706257490E+04  0.10706257490E+04  0.00000000000E+00 0.  1.
          6    1    1    2  501    0  0.11792072833E+03  0.77722807354E+01 -0.10125789986E+04  0.10338597269E+04  0.17200000000E+03 0.  1.
         -6    1    1    2    0  502 -0.11792072833E+03 -0.77722807354E+01  0.18225521661E+03  0.27706798894E+03  0.17200000000E+03 0.  1.
</event>
<event>
 4    1  0.5743594E+000  0.2958305E+03  0.7818608E-02  0.1087344E+00
         21   -1    0    0  501  502  0.00000000000E+00  0.00000000000E+00  0.60788273432E+03  0.60788273432E+03  0.00000000000E+00 0. -1.
         21   -1    0    0  502  503 -0.00000000000E+00 -0.00000000000E+00 -0.14580579288E+03  0.14580579288E+03  0.00000000000E+00 0. -1.
          6    1    1    2  501    0 -0.23510827453E+03 -0.51534203735E+02  0.18873069484E+03  0.35090589918E+03  0.17200000000E+03 0. -1.
         -6    1    1    2    0  503  0.23510827453E+03  0.51534203735E+02  0.27334624661E+03  0.40278262803E+03  0.17200000000E+03 0. -1.
</event>
<event>
 4    1  0.5743594E+000  0.2840983E+03  0.7818608E-02  0.1093471E+00
         21   -1    0    0  503  502  0.00000000000E+00  0.00000000000E+00  0.52102113243E+03  0.52102113243E+03  0.00000000000E+00 0.  1.
         21   -1    0    0  501  503 -0.00000000000E+00 -0.00000000000E+00 -0.24120939275E+03  0.24120939275E+03  0.00000000000E+00 0. -1.
          6    1    1    2  501    0  0.12467349799E+03 -0.18863821677E+03 -0.88055266417E+02  0.29743165243E+03  0.17200000000E+03 0. -1.
         -6    1    1    2    0  502 -0.12467349799E+03  0.18863821677E+03  0.36786700610E+03  0.46479887275E+03  0.17200000000E+03 0.  1.
</event>
<event>
 4    1  0.5743594E+000  0.2451179E+03  0.7818608E-02  0.1116430E+00
         21   -1    0    0  501  502  0.00000000000E+00  0.00000000000E+00  0.21040467507E+04  0.21040467507E+04  0.00000000000E+00 0. -1.
         21   -1    0    0  502  503 -0.00000000000E+00 -0.00000000000E+00 -0.31372550200E+02  0.31372550200E+02  0.00000000000E+00 0.  1.
          6    1    1    2  501    0 -0.14298968071E+03 -0.10026328794E+03  0.13562642154E+04  0.13782363359E+04  0.17200000000E+03 0. -1.
         -6    1    1    2    0  503  0.14298968071E+03  0.10026328794E+03  0.71640998513E+03  0.75718296500E+03  0.17200000000E+03 0.  1.
</event>
<event>
 4    1  0.5743594E+000  0.1813720E+03  0.7818608E-02  0.1166482E+00
         21   -1    0    0  503  502  0.00000000000E+00  0.00000000000E+00  0.64389400755E+03  0.64389400755E+03  0.00000000000E+00 0. -1.
         21   -1    0    0  501  503 -0.00000000000E+00 -0.00000000000E+00 -0.12959814857E+03  0.12959814857E+03  0.00000000000E+00 0.  1.
          6    1    1    2  501    0 -0.51519832203E+02 -0.25642082336E+02 -0.43866314032E+02  0.18660134781E+03  0.17200000000E+03 0.  1.
         -6    1    1    2    0  502  0.51519832203E+02  0.25642082336E+02  0.55816217302E+03  0.58689080831E+03  0.17200000000E+03 0. -1.
</event>
<event>
 4    1  0.5743594E+000  0.2001656E+03  0.7818608E-02  0.1149599E+00
         21   -1    0    0  501  502  0.00000000000E+00  0.00000000000E+00  0.25848338212E+03  0.25848338212E+03  0.00000000000E+00 0.  1.
         21   -1    0    0  502  503 -0.00000000000E+00 -0.00000000000E+00 -0.31832546602E+03  0.31832546602E+03  0.00000000000E+00 0. -1.
          6    1    1    2  501    0  0.82455541668E+02  0.60690504626E+02  0.17665803899E+03  0.26697250129E+03  0.17200000000E+03 0.  1.
         -6    1    1    2    0  503 -0.82455541668E+02 -0.60690504626E+02 -0.23650012289E+03  0.30983634685E+03  0.17200000000E+03 0. -1.
</event>
<event>
 4    1  0.5743594E+000  0.3340830E+03  0.7818608E-02  0.1069344E+00
         21   -1    0    0  501  502  0.00000000000E+00  0.00000000000E+00  0.25351308246E+03  0.25351308246E+03  0.00000000000E+00 0. -1.
         21   -1    0    0  502  503 -0.00000000000E+00 -0.00000000000E+00 -0.86849897941E+03  0.86849897941E+03  0.00000000000E+00 0.  1.
          6    1    1    2  501    0  0.14756104049E+03 -0.24546529492E+03  0.86443683518E+02  0.34508547072E+03  0.17200000000E+03 0. -1.
         -6    1    1    2    0  503 -0.14756104049E+03  0.24546529492E+03 -0.70142958047E+03  0.77692659116E+03  0.17200000000E+03 0.  1.
</event>
<event>
 4    1  0.5743594E+000  0.2986983E+03  0.7818608E-02  0.1085893E+00
         21   -1    0    0  501  502  0.00000000000E+00  0.00000000000E+00  0.68399263610E+02  0.68399263610E+02  0.00000000000E+00 0. -1.
         21   -1    0    0  502  503 -0.00000000000E+00 -0.00000000000E+00 -0.13536803923E+04  0.13536803923E+04  0.00000000000E+00 0.  1.
          6    1    1    2  501    0  0.49485080040E+02 -0.23913997782E+03 -0.50698810732E+03  0.58843660925E+03  0.17200000000E+03 0. -1.
         -6    1    1    2    0  503 -0.49485080040E+02  0.23913997782E+03 -0.77829302140E+03  0.83364304669E+03  0.17200000000E+03 0.  1.
</event>
<event>
 4    1  0.5743594E+000  0.2087845E+03  0.7818608E-02  0.1142532E+00
         21   -1    0    0  501  502  0.00000000000E+00  0.00000000000E+00  0.64144153784E+03  0.64144153784E+03  0.00000000000E+00 0.  1.
         21   -1    0    0  502  503 -0.00000000000E+00 -0.00000000000E+00 -0.18361689542E+03  0.18361689542E+03  0.00000000000E+00 0.  1.
          6    1    1    2  501    0 -0.11823902124E+03 -0.51492514088E+01  0.55631951234E+03  0.59420735500E+03  0.17200000000E+03 0.  1.
         -6    1    1    2    0  503  0.11823902124E+03  0.51492514088E+01 -0.98494869917E+02  0.23085107826E+03  0.17200000000E+03 0.  1.
</event>
<event>
 4    1  0.5743594E+000  0.1744122E+03  0.7818608E-02  0.1173323E+00
         21   -1    0    0  501  502  0.00000000000E+00  0.00000000000E+00  0.16982501130E+02  0.16982501130E+02  0.00000000000E+00 0. -1.
         21   -1    0    0  502  503 -0.00000000000E+00 -0.00000000000E+00 -0.18468860171E+04  0.18468860171E+04  0.00000000000E+00 0. -1.
          6    1    1    2  501    0 -0.24005892345E+02  0.16103824820E+02 -0.75317740167E+03  0.77310789313E+03  0.17200000000E+03 0. -1.
         -6    1    1    2    0  503  0.24005892345E+02 -0.16103824820E+02 -0.10767261143E+04  0.10907606251E+04  0.17200000000E+03 0. -1.
</event>
<event>
 4    1  0.5743594E+000  0.1721393E+03  0.7818608E-02  0.1175635E+00
         21   -1    0    0  503  502  0.00000000000E+00  0.00000000000E+00  0.17170613384E+03  0.17170613384E+03  0.00000000000E+00 0. -1.
         21   -1    0    0  501  503 -0.00000000000E+00 -0.00000000000E+00 -0.25106952528E+03  0.25106952528E+03  0.00000000000E+00 0. -1.
          6    1    1    2  501    0 -0.69171442568E+01 -0.31292939815E+00 -0.15787872170E+03  0.23357575982E+03  0.17200000000E+03 0. -1.
         -6    1    1    2    0  502  0.69171442568E+01  0.31292939815E+00  0.78515330258E+02  0.18919989930E+03  0.17200000000E+03 0. -1.
</event>
<event>
 4    1  0.5743594E+000  0.1743042E+03  0.7818608E-02  0.1173432E+00
         21   -1    0    0  501  502  0.00000000000E+00  0.00000000000E+00  0.56704814342E+02  0.56704814342E+02  0.00000000000E+00 0.  1.
         21   -1    0    0  502  503 -0.00000000000E+00 -0.00000000000E+00 -0.14872444320E+04  0.14872444320E+04  0.00000000000E+00 0.  1.
          6    1    1    2  501    0  0.20529884648E+02 -0.19403202138E+02 -0.97814553865E+02  0.19987407877E+03  0.17200000000E+03 0.  1.
         -6    1    1    2    0  503 -0.20529884648E+02  0.19403202138E+02 -0.13327250638E+04  0.13440751676E+04  0.17200000000E+03 0.  1.
</event>
<event>
 4    1  0.5743594E+000  0.2569274E+03  0.7818608E-02  0.1109003E+00
         21   -1    0    0  503  502  0.00000000000E+00  0.00000000000E+00  0.11806303077E+03  0.11806303077E+03  0.00000000000E+00 0. -1.
         21   -1    0    0  501  503 -0.00000000000E+00 -0.00000000000E+00 -0.80061154745E+03  0.80061154745E+03  0.00000000000E+00 0. -1.
          6    1    1    2  501    0 -0.17929957046E+03  0.65416813704E+02 -0.59354652438E+03  0.64676825222E+03  0.17200000000E+03 0. -1.
         -6    1    1    2    0  502  0.17929957046E+03 -0.65416813704E+02 -0.89001992304E+02  0.27190632600E+03  0.17200000000E+03 0. -1.
</event>
<event>
 4    1  0.5743594E+000  0.1791387E+03  0.7818608E-02  0.1168639E+00
         21   -1    0    0  501  502  0.00000000000E+00  0.00000000000E+00  0.86837888605E+02  0.86837888605E+02  0.00000000000E+00 0.  1.
         21   -1    0    0  502  503 -0.00000000000E+00 -0.00000000000E+00 -0.67645935097E+03  0.67645935097E+03  0.00000000000E+00 0.  1.
          6    1    1    2  501    0 -0.50066646746E+02  0.89628643943E-01 -0.37741522933E+02  0.18307129678E+03  0.17200000000E+03 0.  1.
         -6    1    1    2    0  503  0.50066646746E+02 -0.89628643943E-01 -0.55187993944E+03  0.58022594280E+03  0.17200000000E+03 0.  1.
</event>
<event>
 4    1  0.5743594E+000  0.1863565E+03  0.7818608E-02  0.1161789E+00
         21   -1    0    0  501  502  0.00000000000E+00  0.00000000000E+00  0.18484782801E+04  0.18484782801E+04  0.00000000000E+00 0.  1.
         21   -1    0    0  502  503 -0.00000000000E+00 -0.00000000000E+00 -0.19572456416E+02  0.19572456416E+02  0.00000000000E+00 0.  1.
          6    1    1    2  501    0 -0.70102623343E+02  0.15177906670E+02  0.11014736555E+04  0.11171271013E+04  0.17200000000E+03 0. -1.
         -6    1    1    2    0  503  0.70102623343E+02 -0.15177906670E+02  0.72743216816E+03  0.75092363522E+03  0.17200000000E+03 0. -1.
</event>
<event>
 4    1  0.5743594E+000  0.1998185E+03  0.7818608E-02  0.1149892E+00
         21   -1    0    0  503  502  0.00000000000E+00  0.00000000000E+00  0.42154039550E+03  0.42154039550E+03  0.00000000000E+00 0.  1.
         21   -1    0    0  501  503 -0.00000000000E+00 -0.00000000000E+00 -0.11565928420E+03  0.11565928420E+03  0.00000000000E+00 0.  1.
          6    1    1    2  501    0 -0.55044507551E+02  0.85519214969E+02  0.38648018421E+02  0.20352175134E+03  0.17200000000E+03 0.  1.
         -6    1    1    2    0  502  0.55044507551E+02 -0.85519214969E+02  0.26723309289E+03  0.33367792836E+03  0.17200000000E+03 0.  1.
</event>
<event>
 4    1  0.5743594E+000  0.1846378E+03  0.7818608E-02  0.1163389E+00
         21   -1    0    0  501  502  0.00000000000E+00  0.00000000000E+00  0.21383467816E+03  0.21383467816E+03  0.00000000000E+00 0. -1.
         21   -1    0    0  502  503 -0.00000000000E+00 -0.00000000000E+00 -0.29842275120E+03  0.29842275120E+03  0.00000000000E+00 0. -1.
          6    1    1    2  501    0  0.49085386739E+02  0.45801101864E+02  0.13250634428E+03  0.22726426776E+03  0.17200000000E+03 0. -1.
         -6    1    1    2    0  503 -0.49085386739E+02 -0.45801101864E+02 -0.21709441732E+03  0.28499316160E+03  0.17200000000E+03 0. -1.
</event>
<event>
 4    1  0.5743594E+000  0.2086586E+03  0.7818608E-02  0.1142633E+00
         21   -1    0    0  503  502  0.00000000000E+00  0.00000000000E+00  0.17853897605E+03  0.17853897605E+03  0.00000000000E+00 0. -1.
         21   -1    0    0  501  503 -0.00000000000E+00 -0.00000000000E+00 -0.24389733295E+03  0.24389733295E+03  0.00000000000E+00 0.  1.
          6    1    1    2  501    0  0.11746618656E+03 -0.12495043336E+02 -0.30049632998E+02  0.21081131738E+03  0.17200000000E+03 0. -1.
         -6    1    1    2    0  502 -0.11746618656E+03  0.12495043336E+02 -0.35308723903E+02  0.21162499161E+03  0.17200000000E+03 0.  1.
</event>
<event>
 4    1  0.5743594E+000  0.2017503E+03  0.7818608E-02  0.1148271E+00
         21   -1    0    0  503  502  0.00000000000E+00  0.00000000000E+00  0.16222166278E+03  0.16222166278E+03  0.00000000000E+00 0.  1.
         21   -1    0    0  501  503 -0.00000000000E+00 -0.00000000000E+00 -0.26704437073E+03  0.26704437073E+03  0.00000000000E+00 0. -1.
          6    1    1    2  501    0 -0.21947550309E+02 -0.10313820604E+03  0.34425338898E+00  0.20175059608E+03  0.17200000000E+03 0.  1.
         -6    1    1    2    0  502  0.21947550309E+02  0.10313820604E+03 -0.10516696133E+03  0.22751543742E+03  0.17200000000E+03 0. -1.
</event>
<event>
 4    1  0.5743594E+000  0.1965501E+03  0.7818608E-02  0.1152683E+00
         21   -1    0    0  503  502  0.00000000000E+00  0.00000000000E+00  0.35992686932E+03  0.35992686932E+03  0.00000000000E+00 0.  1.
         21   -1    0    0  501  503 -0.00000000000E+00 -0.00000000000E+00 -0.10954313788E+03  0.10954313788E+03  0.00000000000E+00 0.  1.
          6    1    1    2  501    0  0.28663178520E+02 -0.90699267143E+02  0.91847604399E+02  0.21695141690E+03  0.17200000000E+03 0.  1.
         -6    1    1    2    0  502 -0.28663178520E+02  0.90699267143E+02  0.15853612704E+03  0.25251859029E+03  0.17200000000E+03 0.  1.
</event>
<event>
 4    1  0.5743594E+000  0.2561778E+03  0.7818608E-02  0.1109462E+00
         21   -1    0    0  503  502  0.00000000000E+00  0.00000000000E+00  0.40431524810E+03  0.40431524810E+03  0.00000000000E+00 0.  1.
         21   -1    0    0  501  503 -0.00000000000E+00 -0.00000000000E+00 -0.18499594030E+03  0.18499594030E+03  0.00000000000E+00 0.  1.
          6    1    1    2  501    0 -0.64087016168E+02 -0.17870626807E+03  0.64907509028E+01  0.25626003539E+03  0.17200000000E+03 0.  1.
         -6    1    1    2    0  502  0.64087016168E+02  0.17870626807E+03  0.21282855690E+03  0.33305115301E+03  0.17200000000E+03 0.  1.
</event>
<event>
 4    1  0.5743594E+000  0.1930886E+03  0.7818608E-02  0.1155705E+00
         21   -1    0    0  503  502  0.00000000000E+00  0.00000000000E+00  0.48655779480E+03  0.48655779480E+03  0.00000000000E+00 0. -1.
         21   -1    0    0  501  503 -0.00000000000E+00 -0.00000000000E+00 -0.16519680742E+03  0.16519680742E+03  0.00000000000E+00 0.  1.
          6    1    1    2  501    0 -0.36453578858E+02 -0.79814338175E+02 -0.77934377902E+02  0.20822333983E+03  0.17200000000E+03 0.  1.
         -6    1    1    2    0  502  0.36453578858E+02  0.79814338175E+02  0.39929536528E+03  0.44353126239E+03  0.17200000000E+03 0. -1.
</event>
<event>
 4    1  0.5743594E+000  0.2057784E+03  0.7818608E-02  0.1144953E+00
         21   -1    0    0  501  502  0.00000000000E+00  0.00000000000E+00  0.33608560579E+03  0.33608560579E+03  0.00000000000E+00 0.  1.
         21   -1    0    0  502  503 -0.00000000000E+00 -0.00000000000E+00 -0.32103348391E+03  0.32103348391E+03  0.00000000000E+00 0.  1.
          6    1    1    2  501    0 -0.99610500211E+02  0.53277724853E+02  0.26362052989E+03  0.33442570400E+03  0.17200000000E+03 0.  1.
         -6    1    1    2    0  503  0.99610500211E+02 -0.53277724853E+02 -0.24856840801E+03  0.32269338571E+03  0.17200000000E+03 0.  1.
</event>
<event>
 4    1  0.5743594E+000  0.1891688E+03  0.7818608E-02  0.1159213E+00
         21   -1    0    0  501  502  0.00000000000E+00  0.00000000000E+00  0.20083662771E+03  0.20083662771E+03  0.00000000000E+00 0.  1.
         21   -1    0    0  502  503 -0.00000000000E+00 -0.00000000000E+00 -0.22781246699E+03  0.22781246699E+03  0.00000000000E+00 0.  1.
          6    1    1    2  501    0  0.72470649870E+02  0.30803093760E+02  0.86551561891E+02  0.20802884065E+03  0.17200000000E+03 0.  1.
         -6    1    1    2    0  503 -0.72470649870E+02 -0.30803093760E+02 -0.11352740117E+03  0.22062025404E+03  0.17200000000E+03 0.  1.
</event>
<event>
 4    1  0.5743594E+000  0.1744520E+03  0.7818608E-02  0.1173283E+00
         21   -1    0    0  501  502  0.00000000000E+00  0.00000000000E+00  0.41247795547E+03  0.41247795547E+03  0.00000000000E+00 0. -1.
         21   -1    0    0  502  503 -0.00000000000E+00 -0.00000000000E+00 -0.75507867979E+02  0.75507867979E+02  0.00000000000E+00 0. -1.
          6    1    1    2  501    0  0.29037798429E+02 -0.25108439506E+01  0.13159834642E+03  0.21852144713E+03  0.17200000000E+03 0.  1.
         -6    1    1    2    0  503 -0.29037798429E+02  0.25108439506E+01  0.20537174107E+03  0.26946437632E+03  0.17200000000E+03 0.  1.
</event>
<event>
 4    1  0.5743594E+000  0.2625032E+03  0.7818608E-02  0.1105649E+00
         21   -1    0    0  501  502  0.00000000000E+00  0.00000000000E+00  0.99138203678E+03  0.99138203678E+03  0.00000000000E+00 0.  1.
         21   -1    0    0  502  503 -0.00000000000E+00 -0.00000000000E+00 -0.89503696525E+02  0.89503696525E+02  0.00000000000E+00 0.  1.
          6    1    1    2  501    0  0.57271504138E+02 -0.18985231918E+03  0.19548728015E+03  0.32729681481E+03  0.17200000000E+03 0.  1.
         -6    1    1    2    0  503 -0.57271504138E+02  0.18985231918E+03  0.70639106010E+03  0.75358891849E+03  0.17200000000E+03 0.  1.
</event>
<event>
 4    1  0.5743594E+000  0.2045276E+03  0.7818608E-02  0.1145974E+00
         21   -1    0    0  503  502  0.00000000000E+00  0.00000000000E+00  0.34311511511E+03  0.34311511511E+03  0.00000000000E+00 0. -1.
         21   -1    0    0  501  503 -0.00000000000E+00 -0.00000000000E+00 -0.12194021370E+03  0.12194021370E+03  0.00000000000E+00 0.  1.
          6    1    1    2  501    0 -0.13294314341E+02 -0.10986725102E+03  0.11379852628E+03  0.23405481457E+03  0.17200000000E+03 0.  1.
         -6    1    1    2    0  502  0.13294314341E+02  0.10986725102E+03  0.10737637513E+03  0.23100051423E+03  0.17200000000E+03 0.  1.
</event>
<event>
 4    1  0.5743594E+000  0.1895420E+03  0.7818608E-02  0.1158875E+00
         21   -1    0    0  503  502  0.00000000000E+00  0.00000000000E+00  0.16585209789E+03  0.16585209789E+03  0.00000000000E+00 0. -1.
         21   -1    0    0  501  503 -0.00000000000E+00 -0.00000000000E+00 -0.21735253665E+03  0.21735253665E+03  0.00000000000E+00 0. -1.
          6    1    1    2  501    0 -0.79593244757E+02  0.26630653996E+01 -0.36905727407E+02  0.19310155163E+03  0.17200000000E+03 0. -1.
         -6    1    1    2    0  502  0.79593244757E+02 -0.26630653996E+01 -0.14594711352E+02  0.19010308290E+03  0.17200000000E+03 0. -1.
</event>
<event>
 4    1  0.5743594E+000  0.1812266E+03  0.7818608E-02  0.1166621E+00
         21   -1    0    0  503  502  0.00000000000E+00  0.00000000000E+00  0.69007949223E+02  0.69007949223E+02  0.00000000000E+00 0. -1.
         21   -1    0    0  501  503 -0.00000000000E+00 -0.00000000000E+00 -0.48102263891E+03  0.48102263891E+03  0.00000000000E+00 0.  1.
          6    1    1    2  501    0 -0.48524062798E+02 -0.30074707538E+02 -0.23429987076E+03  0.29620854502E+03  0.17200000000E+03 0.  1.
         -6    1    1    2    0  502  0.48524062798E+02  0.30074707538E+02 -0.17771481892E+03  0.25382204311E+03  0.17200000000E+03 0.  1.
</event>
<event>
 4    1  0.5743594E+000  0.2811315E+03  0.7818608E-02  0.1095073E+00
         21   -1    0    0  503  502  0.00000000000E+00  0.00000000000E+00  0.46681942307E+03  0.46681942307E+03  0.00000000000E+00 0.  1.
         21   -1    0    0  501  503 -0.00000000000E+00 -0.00000000000E+00 -0.17567909807E+03  0.17567909807E+03  0.00000000000E+00 0.  1.
          6    1    1    2  501    0  0.43477628019E+02  0.21808392402E+03  0.84379019095E+02  0.29352124441E+03  0.17200000000E+03 0.  1.
         -6    1    1    2    0  502 -0.43477628019E+02 -0.21808392402E+03  0.20676130591E+03  0.34897727673E+03  0.17200000000E+03 0.  1.
</event>
<event>
 4    1  0.5743594E+000  0.1913437E+03  0.7818608E-02  0.1157255E+00
         21   -1    0    0  503  502  0.00000000000E+00  0.00000000000E+00  0.79106256290E+02  0.79106256290E+02  0.00000000000E+00 0. -1.
         21   -1    0    0  501  503 -0.00000000000E+00 -0.00000000000E+00 -0.47426116603E+03  0.47426116603E+03  0.00000000000E+00 0. -1.
          6    1    1    2  501    0  0.82829326327E+02 -0.12950776819E+02 -0.24054088908E+03  0.30736352946E+03  0.17200000000E+03 0. -1.
         -6    1    1    2    0  502 -0.82829326327E+02  0.12950776819E+02 -0.15461402066E+03  0.24600389286E+03  0.17200000000E+03 0. -1.
</event>
<event>
 4    1  0.5743594E+000  0.1776666E+03  0.7818608E-02  0.1170081E+00
         21   -1    0    0  501  502  0.00000000000E+00  0.00000000000E+00  0.64107376775E+03  0.64107376775E+03  0.00000000000E+00 0.  1.
         21   -1    0    0  502  503 -0.00000000000E+00 -0.00000000000E+00 -0.11817237939E+03  0.11817237939E+03  0.00000000000E+00 0.  1.
          6    1    1    2  501    0  0.37785765169E+02 -0.23529718316E+02  0.55139291265E+03  0.57930955095E+03  0.17200000000E+03 0.  1.
         -6    1    1    2    0  503 -0.37785765169E+02  0.23529718316E+02 -0.28491524296E+02  0.17993659619E+03  0.17200000000E+03 0.  1.
</event>
<event>
 4    1  0.5743594E+000  0.1790539E+03  0.7818608E-02  0.1168722E+00
         21   -1    0    0  501  502  0.00000000000E+00  0.00000000000E+00  0.60624186096E+03  0.60624186096E+03  0.00000000000E+00 0.  1.
         21   -1    0    0  502  503 -0.00000000000E+00 -0.00000000000E+00 -0.13479907921E+03  0.13479907921E+03  0.00000000000E+00 0. -1.
          6    1    1    2  501    0  0.48922467156E+02  0.91039827969E+01  0.52455755224E+03  0.55427512654E+03  0.17200000000E+03 0.  1.
         -6    1    1    2    0  503 -0.48922467156E+02 -0.91039827969E+01 -0.53114770490E+02  0.18676581363E+03  0.17200000000E+03 0. -1.
</event>
<event>
 4    1  0.5743594E+000  0.1988919E+03  0.7818608E-02  0.1150677E+00
         21   -1    0    0  503  502  0.00000000000E+00  0.00000000000E+00  0.54166200811E+03  0.54166200811E+03  0.00000000000E+00 0. -1.
         21   -1    0    0  501  503 -0.00000000000E+00 -0.00000000000E+00 -0.94836428220E+02  0.94836428220E+02  0.00000000000E+00 0.  1.
          6    1    1    2  501    0  0.79095489519E+02  0.60974666085E+02  0.70809423144E+02  0.21112077295E+03  0.17200000000E+03 0.  1.
         -6    1    1    2    0  502 -0.79095489519E+02 -0.60974666085E+02  0.37601615675E+03  0.42537766338E+03  0.17200000000E+03 0. -1.
</event>
<event>
 4    1  0.5743594E+000  0.2132192E+03  0.7818608E-02  0.1139042E+00
         21   -1    0    0  501  502  0.00000000000E+00  0.00000000000E+00  0.58666872444E+02  0.58666872444E+02  0.00000000000E+00 0.  1.
         21   -1    0    0  502  503 -0.00000000000E+00 -0.00000000000E+00 -0.87519393808E+03  0.87519393808E+03  0.00000000000E+00 0.  1.
          6    1    1    2  501    0 -0.42286058416E+02  0.11870263447E+03 -0.56630942443E+03  0.60511882334E+03  0.17200000000E+03 0.  1.
         -6    1    1    2    0  503  0.42286058416E+02 -0.11870263447E+03 -0.25021764121E+03  0.32874198719E+03  0.17200000000E+03 0.  1.
</event>
<event>
 4    1  0.5743594E+000  0.2069697E+03  0.7818608E-02  0.1143988E+00
         21   -1    0    0  503  502  0.00000000000E+00  0.00000000000E+00  0.90408155318E+03  0.90408155318E+03  0.00000000000E+00 0.  1.
         21   -1    0    0  501  503 -0.00000000000E+00 -0.00000000000E+00 -0.54793706580E+02  0.54793706580E+02  0.00000000000E+00 0.  1.
          6    1    1    2  501    0 -0.33234850942E+01 -0.11507124193E+03  0.24830410840E+03  0.32325124365E+03  0.17200000000E+03 0.  1.
         -6    1    1    2    0  502  0.33234850942E+01  0.11507124193E+03  0.60098373820E+03  0.63562401611E+03  0.17200000000E+03 0.  1.
</event>
<event>
 4    1  0.5743594E+000  0.2471172E+03  0.7818608E-02  0.1115140E+00
         21   -1    0    0  501  502  0.00000000000E+00  0.00000000000E+00  0.17194555644E+04  0.17194555644E+04  0.00000000000E+00 0.  1.
         21   -1    0    0  502  503 -0.00000000000E+00 -0.00000000000E+00 -0.49902209846E+02  0.49902209846E+02  0.00000000000E+00 0.  1.
          6    1    1    2  501    0  0.17629829375E+03 -0.20045427162E+02  0.13097947934E+04  0.13329025877E+04  0.17200000000E+03 0.  1.
         -6    1    1    2    0  503 -0.17629829375E+03  0.20045427162E+02  0.35975856122E+03  0.43645518659E+03  0.17200000000E+03 0.  1.
</event>
<event>
 4    1  0.5743594E+000  0.1768696E+03  0.7818608E-02  0.1170868E+00
         21   -1    0    0  501  502  0.00000000000E+00  0.00000000000E+00  0.82145558239E+02  0.82145558239E+02  0.00000000000E+00 0. -1.
         21   -1    0    0  502  503 -0.00000000000E+00 -0.00000000000E+00 -0.63166032889E+03  0.63166032889E+03  0.00000000000E+00 0. -1.
          6    1    1    2  501    0  0.32663734078E+02  0.25138216864E+02 -0.49849266071E+02  0.18376016652E+03  0.17200000000E+03 0. -1.
         -6    1    1    2    0  503 -0.32663734078E+02 -0.25138216864E+02 -0.49966550458E+03  0.53004572061E+03  0.17200000000E+03 0. -1.
</event>
<event>
 4    1  0.5743594E+000  0.3606329E+03  0.7818608E-02  0.1058334E+00
         21   -1    0    0  503  502  0.00000000000E+00  0.00000000000E+00  0.47396648386E+03  0.47396648386E+03  0.00000000000E+00 0.  1.
         21   -1    0    0  501  503 -0.00000000000E+00 -0.00000000000E+00 -0.52198267659E+03  0.52198267659E+03  0.00000000000E+00 0. -1.
          6    1    1    2  501    0 -0.20411270310E+03  0.24250793661E+03 -0.36696521875E+03  0.51450905401E+03  0.17200000000E+03 0. -1.
         -6    1    1    2    0  502  0.20411270310E+03 -0.24250793661E+03  0.31894902602E+03  0.48144010643E+03  0.17200000000E+03 0.  1.
</event>
<event>
 4    1  0.5743594E+000  0.1929578E+03  0.7818608E-02  0.1155820E+00
         21   -1    0    0  501  502  0.00000000000E+00  0.00000000000E+00  0.12878765431E+03  0.12878765431E+03  0.00000000000E+00 0. -1.
         21   -1    0    0  502  503 -0.00000000000E+00 -0.00000000000E+00 -0.31719865600E+03  0.31719865600E+03  0.00000000000E+00 0. -1.
          6    1    1    2  501    0  0.87408242080E+02 -0.29203701537E+01 -0.27837990514E+02  0.19495559254E+03  0.17200000000E+03 0. -1.
         -6    1    1    2    0  503 -0.87408242080E+02  0.29203701537E+01 -0.16057301118E+03  0.25103071777E+03  0.17200000000E+03 0. -1.
</event>
<event>
 4    1  0.5743594E+000  0.1911353E+03  0.7818608E-02  0.1157441E+00
         21   -1    0    0  501  502  0.00000000000E+00  0.00000000000E+00  0.76930041199E+02  0.76930041199E+02  0.00000000000E+00 0. -1.
         21   -1    0    0  502  503 -0.00000000000E+00 -0.00000000000E+00 -0.47610268750E+03  0.47610268750E+03  0.00000000000E+00 0. -1.
          6    1    1    2  501    0  0.24594137525E+02  0.79648074463E+02 -0.18558454861E+03  0.26641004495E+03  0.17200000000E+03 0. -1.
         -6    1    1    2    0  503 -0.24594137525E+02 -0.79648074463E+02 -0.21358809769E+03  0.28662268375E+03  0.17200000000E+03 0. -1.
</event>
<event>
 4    1  0.5743594E+000  0.3261611E+03  0.7818608E-02  0.1072848E+00
         21   -1    0    0  503  502  0.00000000000E+00  0.00000000000E+00  0.16743717352E+03  0.16743717352E+03  0.00000000000E+00 0. -1.
         21   -1    0    0  501  503 -0.00000000000E+00 -0.00000000000E+00 -0.92476878344E+03  0.92476878344E+03  0.00000000000E+00 0. -1.
          6    1    1    2  501    0 -0.18551367351E+02 -0.27650123681E+03 -0.68417329602E+03  0.75794075374E+03  0.17200000000E+03 0. -1.
         -6    1    1    2    0  502  0.18551367351E+02  0.27650123681E+03 -0.73158313899E+02  0.33426520322E+03  0.17200000000E+03 0. -1.
</event>
<event>
 4    1  0.5743594E+000  0.1843396E+03  0.7818608E-02  0.1163668E+00
         21   -1    0    0  503  502  0.00000000000E+00  0.00000000000E+00  0.75612903842E+02  0.75612903842E+02  0.00000000000E+00 0. -1.
         21   -1    0    0  501  503 -0.00000000000E+00 -0.00000000000E+00 -0.10017626457E+04  0.10017626457E+04  0.00000000000E+00 0.  1.
          6    1    1    2  501    0 -0.60628676457E+02  0.26856179782E+02 -0.86307806983E+03  0.88254452886E+03  0.17200000000E+03 0.  1.
         -6    1    1    2    0  502  0.60628676457E+02 -0.26856179782E+02 -0.63071672008E+02  0.19483102066E+03  0.17200000000E+03 0. -1.
</event>
<event>
 4    1  0.5743594E+000  0.2010325E+03  0.7818608E-02  0.1148871E+00
         21   -1    0    0  501  502  0.00000000000E+00  0.00000000000E+00  0.14773421331E+03  0.14773421331E+03  0.00000000000E+00 0.  1.
         21   -1    0    0  502  503 -0.00000000000E+00 -0.00000000000E+00 -0.49292161704E+03  0.49292161704E+03  0.00000000000E+00 0.  1.
          6    1    1    2  501    0 -0.75919522649E+02  0.71177878043E+02  0.41097623325E+02  0.20519034793E+03  0.17200000000E+03 0.  1.
         -6    1    1    2    0  503  0.75919522649E+02 -0.71177878043E+02 -0.38628502706E+03  0.43546548241E+03  0.17200000000E+03 0.  1.
</event>
<event>
 4    1  0.5743594E+000  0.1925592E+03  0.7818608E-02  0.1156173E+00
         21   -1    0    0  503  502  0.00000000000E+00  0.00000000000E+00  0.62448286214E+03  0.62448286214E+03  0.00000000000E+00 0. -1.
         21   -1    0    0  501  503 -0.00000000000E+00 -0.00000000000E+00 -0.66270891776E+02  0.66270891776E+02  0.00000000000E+00 0.  1.
          6    1    1    2  501    0 -0.85376786698E+02  0.14347127162E+02  0.16769997477E+03  0.25534744429E+03  0.17200000000E+03 0.  1.
         -6    1    1    2    0  502  0.85376786698E+02 -0.14347127162E+02  0.39051199559E+03  0.43540630963E+03  0.17200000000E+03 0. -1.
</event>
<event>
 4    1  0.5743594E+000  0.1860604E+03  0.7818608E-02  0.1162063E+00
         21   -1    0    0  501  502  0.00000000000E+00  0.00000000000E+00  0.11186057757E+04  0.11186057757E+04  0.00000000000E+00 0. -1.
         21   -1    0    0  502  503 -0.00000000000E+00 -0.00000000000E+00 -0.31227696683E+02  0.31227696683E+02  0.00000000000E+00 0.  1.
          6    1    1    2  501    0  0.63385782251E+02  0.31886136375E+02  0.48926788219E+03  0.52345156760E+03  0.17200000000E+03 0.  1.
         -6    1    1    2    0  503 -0.63385782251E+02 -0.31886136375E+02  0.59811019678E+03  0.62638190473E+03  0.17200000000E+03 0. -1.
</event>
<event>
 4    1  0.5743594E+000  0.3079639E+03  0.7818608E-02  0.1081326E+00
         21   -1    0    0  503  502  0.00000000000E+00  0.00000000000E+00  0.45712418963E+03  0.45712418963E+03  0.00000000000E+00 0. -1.
         21   -1    0    0  501  503 -0.00000000000E+00 -0.00000000000E+00 -0.24337241157E+03  0.24337241157E+03  0.00000000000E+00 0.  1.
          6    1    1    2  501    0 -0.33285913330E+02  0.25327810318E+03 -0.27639863066E+02  0.30920173287E+03  0.17200000000E+03 0. -1.
         -6    1    1    2    0  502  0.33285913330E+02 -0.25327810318E+03  0.24139164113E+03  0.39129486833E+03  0.17200000000E+03 0.  1.
</event>
<event>
 4    1  0.5743594E+000  0.2896627E+03  0.7818608E-02  0.1090525E+00
         21   -1    0    0  503  502  0.00000000000E+00  0.00000000000E+00  0.13335197958E+03  0.13335197958E+03  0.00000000000E+00 0. -1.
         21   -1    0    0  501  503 -0.00000000000E+00 -0.00000000000E+00 -0.77768176803E+03  0.77768176803E+03  0.00000000000E+00 0.  1.
          6    1    1    2  501    0  0.23086091841E+03  0.31996006258E+02 -0.52120756453E+03  0.59629005809E+03  0.17200000000E+03 0.  1.
         -6    1    1    2    0  502 -0.23086091841E+03 -0.31996006258E+02 -0.12312222392E+03  0.31474368951E+03  0.17200000000E+03 0.  1.
</event>
<event>
 4    1  0.5743594E+000  0.2614008E+03  0.7818608E-02  0.1106305E+00
         21   -1    0    0  501  502  0.00000000000E+00  0.00000000000E+00  0.69872993512E+03  0.69872993512E+03  0.00000000000E+00 0. -1.
         21   -1    0    0  502  503 -0.00000000000E+00 -0.00000000000E+00 -0.10549407121E+03  0.10549407121E+03  0.00000000000E+00 0.  1.
          6    1    1    2  501    0  0.19658011749E+03 -0.10131389147E+02  0.18796808576E+03  0.32196644065E+03  0.17200000000E+03 0.  1.
         -6    1    1    2    0  503 -0.19658011749E+03  0.10131389147E+02  0.40526777816E+03  0.48225756568E+03  0.17200000000E+03 0. -1.
</event>
<event>
 4    1  0.5743594E+000  0.1740568E+03  0.7818608E-02  0.1173682E+00
         21   -1    0    0  503  502  0.00000000000E+00  0.00000000000E+00  0.45925844137E+02  0.45925844137E+02  0.00000000000E+00 0.  1.
         21   -1    0    0  501  503 -0.00000000000E+00 -0.00000000000E+00 -0.91237041546E+03  0.91237041546E+03  0.00000000000E+00 0.  1.
          6    1    1    2  501    0 -0.14804628231E+02  0.22194070244E+02 -0.18105430299E+03  0.25115018296E+03  0.17200000000E+03 0. -1.
         -6    1    1    2    0  502  0.14804628231E+02 -0.22194070244E+02 -0.68539026833E+03  0.70714607663E+03  0.17200000000E+03 0. -1.
</event>
<event>
 4    1  0.5743594E+000  0.1913931E+03  0.7818608E-02  0.1157211E+00
         21   -1    0    0  503  502  0.00000000000E+00  0.00000000000E+00  0.95979994830E+02  0.95979994830E+02  0.00000000000E+00 0. -1.
         21   -1    0    0  501  503 -0.00000000000E+00 -0.00000000000E+00 -0.58362922029E+03  0.58362922029E+03  0.00000000000E+00 0.  1.
          6    1    1    2  501    0 -0.47267733897E+02 -0.69376431152E+02 -0.44372230975E+03  0.48323991561E+03  0.17200000000E+03 0.  1.
         -6    1    1    2    0  502  0.47267733897E+02  0.69376431152E+02 -0.43926915710E+02  0.19636929951E+03  0.17200000000E+03 0. -1.
</event>
<event>
 4    1  0.5743594E+000  0.2002307E+03  0.7818608E-02  0.1149545E+00
         21   -1    0    0  501  502  0.00000000000E+00  0.00000000000E+00  0.39007020177E+02  0.39007020177E+02  0.00000000000E+00 0. -1.
         21   -1    0    0  502  503 -0.00000000000E+00 -0.00000000000E+00 -0.10614368477E+04  0.10614368477E+04  0.00000000000E+00 0. -1.
          6    1    1    2  501    0  0.74512029427E+02 -0.70400838039E+02 -0.41330005463E+03  0.45924857722E+03  0.17200000000E+03 0. -1.
         -6    1    1    2    0  503 -0.74512029427E+02  0.70400838039E+02 -0.60912977285E+03  0.64119529061E+03  0.17200000000E+03 0. -1.
</event>
<event>
 4    1  0.5743594E+000  0.2340110E+03  0.7818608E-02  0.1123848E+00
         21   -1    0    0  501  502  0.00000000000E+00  0.00000000000E+00  0.14390201350E+04  0.14390201350E+04  0.00000000000E+00 0.  1.
         21   -1    0    0  502  503 -0.00000000000E+00 -0.00000000000E+00 -0.12533735777E+03  0.12533735777E+03  0.00000000000E+00 0.  1.
          6    1    1    2  501    0  0.13308198315E+02 -0.15811406228E+03  0.13095664212E+04  0.13303102556E+04  0.17200000000E+03 0.  1.
         -6    1    1    2    0  503 -0.13308198315E+02  0.15811406228E+03  0.41163560925E+01  0.23404723716E+03  0.17200000000E+03 0.  1.
</event>
<event>
 4    1  0.5743594E+000  0.3869889E+03  0.7818608E-02  0.1048380E+00
         21   -1    0    0  501  502  0.00000000000E+00  0.00000000000E+00  0.16658965505E+04  0.16658965505E+04  0.00000000000E+00 0.  1.
         21   -1    0    0  502  503 -0.00000000000E+00 -0.00000000000E+00 -0.18274517661E+03  0.18274517661E+03  0.00000000000E+00 0.  1.
          6    1    1    2  501    0  0.26248721102E+03  0.22644397257E+03  0.14004228041E+04  0.14529089576E+04  0.17200000000E+03 0.  1.
         -6    1    1    2    0  503 -0.26248721102E+03 -0.22644397257E+03  0.82728569803E+02  0.39573276959E+03  0.17200000000E+03 0.  1.
</event>
<event>
 4    1  0.5743594E+000  0.1863815E+03  0.7818608E-02  0.1161766E+00
         21   -1    0    0  501  502  0.00000000000E+00  0.00000000000E+00  0.56101180838E+03  0.56101180838E+03  0.00000000000E+00 0.  1.
         21   -1    0    0  502  503 -0.00000000000E+00 -0.00000000000E+00 -0.11058358090E+03  0.11058358090E+03  0.00000000000E+00 0.  1.
          6    1    1    2  501    0  0.69557456552E+02 -0.17771654888E+02  0.24564445447E+01  0.18639770814E+03  0.17200000000E+03 0.  1.
         -6    1    1    2    0  503 -0.69557456552E+02  0.17771654888E+02  0.44797178294E+03  0.48519768115E+03  0.17200000000E+03 0.  1.
</event>
<event>
 4    1  0.5743594E+000  0.2326958E+03  0.7818608E-02  0.1124757E+00
         21   -1    0    0  501  502  0.00000000000E+00  0.00000000000E+00  0.43436504766E+02  0.43436504766E+02  0.00000000000E+00 0. -1.
         21   -1    0    0  502  503 -0.00000000000E+00 -0.00000000000E+00 -0.21649821000E+04  0.21649821000E+04  0.00000000000E+00 0. -1.
          6    1    1    2  501    0  0.54970936608E+02 -0.14677036638E+03 -0.34159009818E+03  0.41331723832E+03  0.17200000000E+03 0. -1.
         -6    1    1    2    0  503 -0.54970936608E+02  0.14677036638E+03 -0.17799554970E+04  0.17951013664E+04  0.17200000000E+03 0. -1.
</event>
<event>
 4    1  0.5743594E+000  0.1831038E+03  0.7818608E-02  0.1164833E+00
         21   -1    0    0  503  502  0.00000000000E+00  0.00000000000E+00  0.79006533744E+02  0.79006533744E+02  0.00000000000E+00 0.  1.
         21   -1    0    0  501  503 -0.00000000000E+00 -0.00000000000E+00 -0.50049184754E+03  0.50049184754E+03  0.00000000000E+00 0.  1.
          6    1    1    2  501    0  0.10787356783E+02 -0.61859846851E+02 -0.32375198968E+03  0.37194402609E+03  0.17200000000E+03 0.  1.
         -6    1    1    2    0  502 -0.10787356783E+02  0.61859846851E+02 -0.97733324114E+02  0.20755435520E+03  0.17200000000E+03 0.  1.
</event>
<event>
 4    1  0.5743594E+000  0.2345040E+03  0.7818608E-02  0.1123509E+00
         21   -1    0    0  501  502  0.00000000000E+00  0.00000000000E+00  0.14278259273E+04  0.14278259273E+04  0.00000000000E+00 0. -1.
         21   -1    0    0  502  503 -0.00000000000E+00 -0.00000000000E+00 -0.38538115079E+02  0.38538115079E+02  0.00000000000E+00 0.  1.
          6    1    1    2  501    0  0.60078841671E+02  0.14764367891E+03  0.67652726602E+03  0.71601764280E+03  0.17200000000E+03 0.  1.
         -6    1    1    2    0  503 -0.60078841671E+02 -0.14764367891E+03  0.71276054624E+03  0.75034639961E+03  0.17200000000E+03 0.  1.
</event>
<event>
 4    1  0.5743594E+000  0.4894508E+03  0.7818608E-02  0.1016570E+00
         21   -1    0    0  501  502  0.00000000000E+00  0.00000000000E+00  0.39338776230E+03  0.39338776230E+03  0.00000000000E+00 0.  1.
         21   -1    0    0  502  503 -0.00000000000E+00 -0.00000000000E+00 -0.66471423715E+03  0.66471423715E+03  0.00000000000E+00 0. -1.
          6    1    1    2  501    0 -0.45639779296E+03  0.40976721429E+02  0.17541850959E+02  0.48976499840E+03  0.17200000000E+03 0. -1.
         -6    1    1    2    0  503  0.45639779296E+03 -0.40976721429E+02 -0.28886832580E+03  0.56833700106E+03  0.17200000000E+03 0. -1.
</event>
<event>
 4    1  0.5743594E+000  0.1720880E+03  0.7818608E-02  0.1175688E+00
         21   -1    0    0  503  502  0.00000000000E+00  0.00000000000E+00  0.64686445489E+02  0.64686445489E+02  0.00000000000E+00 0. -1.
         21   -1    0    0  501  503 -0.00000000000E+00 -0.00000000000E+00 -0.45791146419E+03  0.45791146419E+03  0.00000000000E+00 0. -1.
          6    1    1    2  501    0 -0.54996381835E+01  0.20027198658E+00 -0.19277798892E+03  0.25841369766E+03  0.17200000000E+03 0. -1.
         -6    1    1    2    0  502  0.54996381835E+01 -0.20027198658E+00 -0.20044702979E+03  0.26418421202E+03  0.17200000000E+03 0. -1.
</event>
<event>
 4    1  0.5743594E+000  0.2154528E+03  0.7818608E-02  0.1137319E+00
         21   -1    0    0  503  502  0.00000000000E+00  0.00000000000E+00  0.11591873463E+04  0.11591873463E+04  0.00000000000E+00 0.  1.
         21   -1    0    0  501  503 -0.00000000000E+00 -0.00000000000E+00 -0.41796757026E+02  0.41796757026E+02  0.00000000000E+00 0.  1.
          6    1    1    2  501    0 -0.12897852853E+03  0.14157280754E+02  0.43576806937E+03  0.48612107515E+03  0.17200000000E+03 0.  1.
         -6    1    1    2    0  502  0.12897852853E+03 -0.14157280754E+02  0.68162251993E+03  0.71486302821E+03  0.17200000000E+03 0.  1.
</event>
<event>
 4    1  0.5743594E+000  0.2045605E+03  0.7818608E-02  0.1145947E+00
         21   -1    0    0  503  502  0.00000000000E+00  0.00000000000E+00  0.47012099581E+03  0.47012099581E+03  0.00000000000E+00 0. -1.
         21   -1    0    0  501  503 -0.00000000000E+00 -0.00000000000E+00 -0.10080805525E+03  0.10080805525E+03  0.00000000000E+00 0. -1.
          6    1    1    2  501    0  0.56611757977E+02 -0.95163490664E+02  0.86993737055E+02  0.22229010636E+03  0.17200000000E+03 0. -1.
         -6    1    1    2    0  502 -0.56611757977E+02  0.95163490664E+02  0.28231920350E+03  0.34863894470E+03  0.17200000000E+03 0. -1.
</event>
<event>
 4    1  0.5743594E+000  0.1785775E+03  0.7818608E-02  0.1169187E+00
         21   -1    0    0  501  502  0.00000000000E+00  0.00000000000E+00  0.21705660859E+03  0.21705660859E+03  0.00000000000E+00 0.  1.
         21   -1    0    0  502  503 -0.00000000000E+00 -0.00000000000E+00 -0.20361627680E+03  0.20361627680E+03  0.00000000000E+00 0. -1.
          6    1    1    2  501    0  0.41631629526E+02  0.23931709533E+02 -0.10427043760E+03  0.20679033695E+03  0.17200000000E+03 0. -1.
         -6    1    1    2    0  503 -0.41631629526E+02 -0.23931709533E+02  0.11771076939E+03  0.21388254844E+03  0.17200000000E+03 0.  1.
</event>
<event>
 4    1  0.5743594E+000  0.1797725E+03  0.7818608E-02  0.1168023E+00
         21   -1    0    0  503  502  0.00000000000E+00  0.00000000000E+00  0.17130714824E+04  0.17130714824E+04  0.00000000000E+00 0.  1.
         21   -1    0    0  501  503 -0.00000000000E+00 -0.00000000000E+00 -0.51647378092E+02  0.51647378092E+02  0.00000000000E+00 0.  1.
          6    1    1    2  501    0 -0.26569807972E+02  0.45035543749E+02  0.12774088037E+03  0.22053545614E+03  0.17200000000E+03 0.  1.
         -6    1    1    2    0  502  0.26569807972E+02 -0.45035543749E+02  0.15336832240E+04  0.15441834044E+04  0.17200000000E+03 0.  1.
</event>
<event>
 4    1  0.5743594E+000  0.2350782E+03  0.7818608E-02  0.1123116E+00
         21   -1    0    0  501  502  0.00000000000E+00  0.00000000000E+00  0.14406614745E+04  0.14406614745E+04  0.00000000000E+00 0. -1.
         21   -1    0    0  502  503 -0.00000000000E+00 -0.00000000000E+00 -0.66189281256E+02  0.66189281256E+02  0.00000000000E+00 0.  1.
          6    1    1    2  501    0  0.39090656429E+02 -0.15540173102E+03  0.11757852009E+04  0.11990548845E+04  0.17200000000E+03 0. -1.
         -6    1    1    2    0  503 -0.39090656429E+02  0.15540173102E+03  0.19868699233E+03  0.30779587123E+03  0.17200000000E+03 0.  1.
</event>
<event>
 4    1  0.5743594E+000  0.4308637E+03  0.7818608E-02  0.1033587E+00
         21   -1    0    0  501  502  0.00000000000E+00  0.00000000000E+00  0.11729599793E+04  0.11729599793E+04  0.00000000000E+00 0.  1.
         21   -1    0    0  502  503 -0.00000000000E+00 -0.00000000000E+00 -0.16602604196E+03  0.16602604196E+03  0.00000000000E+00 0. -1.
          6    1    1    2  501    0  0.37612021079E+03  0.12080185029E+03  0.35875684271E+03  0.56066921816E+03  0.17200000000E+03 0. -1.
         -6    1    1    2    0  503 -0.37612021079E+03 -0.12080185029E+03  0.64817709467E+03  0.77831680314E+03  0.17200000000E+03 0.  1.
</event>
<event>
 4    1  0.5743594E+000  0.2444149E+03  0.7818608E-02  0.1116886E+00
         21   -1    0    0  501  502  0.00000000000E+00  0.00000000000E+00  0.18090288716E+04  0.18090288716E+04  0.00000000000E+00 0. -1.
         21   -1    0    0  502  503 -0.00000000000E+00 -0.00000000000E+00 -0.39984272105E+02  0.39984272105E+02  0.00000000000E+00 0.  1.
          6    1    1    2  501    0  0.74358450757E+02  0.15692506349E+03  0.49875507490E+03  0.55542351363E+03  0.17200000000E+03 0. -1.
         -6    1    1    2    0  503 -0.74358450757E+02 -0.15692506349E+03  0.12702895246E+04  0.12935896301E+04  0.17200000000E+03 0.  1.
</event>
<event>
 4    1  0.5743594E+000  0.1731933E+03  0.7818608E-02  0.1174558E+00
         21   -1    0    0  501  502  0.00000000000E+00  0.00000000000E+00  0.92237611413E+03  0.92237611413E+03  0.00000000000E+00 0.  1.
         21   -1    0    0  502  503 -0.00000000000E+00 -0.00000000000E+00 -0.36604999531E+02  0.36604999531E+02  0.00000000000E+00 0.  1.
          6    1    1    2  501    0  0.21170478224E+01  0.20185260909E+02  0.60305923257E+03  0.62743634310E+03  0.17200000000E+03 0.  1.
         -6    1    1    2    0  503 -0.21170478224E+01 -0.20185260909E+02  0.28271188203E+03  0.33154477057E+03  0.17200000000E+03 0.  1.
</event>
<event>
 4    1  0.5743594E+000  0.2108801E+03  0.7818608E-02  0.1140871E+00
         21   -1    0    0  503  502  0.00000000000E+00  0.00000000000E+00  0.36965591879E+03  0.36965591879E+03  0.00000000000E+00 0.  1.
         21   -1    0    0  501  503 -0.00000000000E+00 -0.00000000000E+00 -0.21261480027E+03  0.21261480027E+03  0.00000000000E+00 0.  1.
          6    1    1    2  501    0  0.19165714826E+02 -0.12049523493E+03 -0.11331480147E+03  0.23939647136E+03  0.17200000000E+03 0.  1.
         -6    1    1    2    0  502 -0.19165714826E+02  0.12049523493E+03  0.27035591999E+03  0.34287424770E+03  0.17200000000E+03 0.  1.
</event>
<event>
 4    1  0.5743594E+000  0.2138699E+03  0.7818608E-02  0.1138538E+00
         21   -1    0    0  501  502  0.00000000000E+00  0.00000000000E+00  0.65228262697E+02  0.65228262697E+02  0.00000000000E+00 0.  1.
         21   -1    0    0  502  503 -0.00000000000E+00 -0.00000000000E+00 -0.22416146494E+04  0.22416146494E+04  0.00000000000E+00 0. -1.
          6    1    1    2  501    0  0.72001472470E+02  0.10474783735E+03 -0.13205321853E+03  0.25135308630E+03  0.17200000000E+03 0.  1.
         -6    1    1    2    0  503 -0.72001472470E+02 -0.10474783735E+03 -0.20443331681E+04  0.20554898258E+04  0.17200000000E+03 0. -1.
</event>
<event>
 4    1  0.5743594E+000  0.2057896E+03  0.7818608E-02  0.1144944E+00
         21   -1    0    0  501  502  0.00000000000E+00  0.00000000000E+00  0.30959728232E+03  0.30959728232E+03  0.00000000000E+00 0. -1.
         21   -1    0    0  502  503 -0.00000000000E+00 -0.00000000000E+00 -0.14177557696E+03  0.14177557696E+03  0.00000000000E+00 0.  1.
          6    1    1    2  501    0  0.70815704017E+01  0.11276166660E+03  0.41582771691E+02  0.20994872945E+03  0.17200000000E+03 0. -1.
         -6    1    1    2    0  503 -0.70815704017E+01 -0.11276166660E+03  0.12623893366E+03  0.24142412984E+03  0.17200000000E+03 0.  1.
</event>
<event>
 4    1  0.5743594E+000  0.3366425E+03  0.7818608E-02  0.1068235E+00
         21   -1    0    0  501  502  0.00000000000E+00  0.00000000000E+00  0.50241545443E+02  0.50241545443E+02  0.00000000000E+00 0. -1.
         21   -1    0    0  502  503 -0.00000000000E+00 -0.00000000000E+00 -0.23188179911E+04  0.23188179911E+04  0.00000000000E+00 0. -1.
          6    1    1    2  501    0  0.75167284366E+02 -0.27945309462E+03 -0.93880670557E+03  0.99733955258E+03  0.17200000000E+03 0. -1.
         -6    1    1    2    0  503 -0.75167284366E+02  0.27945309462E+03 -0.13297697401E+04  0.13717199840E+04  0.17200000000E+03 0. -1.
</event>
<event>
 4    1  0.5743594E+000  0.3443347E+03  0.7818608E-02  0.1064965E+00
         21   -1    0    0  501  502  0.00000000000E+00  0.00000000000E+00  0.33900368801E+03  0.33900368801E+03  0.00000000000E+00 0.  1.
         21   -1    0    0  502  503 -0.00000000000E+00 -0.00000000000E+00 -0.49877116904E+03  0.49877116904E+03  0.00000000000E+00 0. -1.
          6    1    1    2  501    0  0.16293992863E+03  0.24986596082E+03  0.14908234519E+03  0.37522255312E+03  0.17200000000E+03 0.  1.
         -6    1    1    2    0  503 -0.16293992863E+03 -0.24986596082E+03 -0.30884982622E+03  0.46255230394E+03  0.17200000000E+03 0. -1.
</event>
<event>
 4    1  0.5743594E+000  0.3001192E+03  0.7818608E-02  0.1085181E+00
         21   -1    0    0  501  502  0.00000000000E+00  0.00000000000E+00  0.10104175735E+04  0.10104175735E+04  0.00000000000E+00 0.  1.
         21   -1    0    0  502  503 -0.00000000000E+00 -0.00000000000E+00 -0.10722902982E+03  0.10722902982E+03  0.00000000000E+00 0.  1.
          6    1    1    2  501    0 -0.17338274593E+03 -0.17443033324E+03  0.22208958649E+03  0.37335680276E+03  0.17200000000E+03 0.  1.
         -6    1    1    2    0  503  0.17338274593E+03  0.17443033324E+03  0.68109895715E+03  0.74428980053E+03  0.17200000000E+03 0.  1.
</event>
<event>
 4    1  0.5743594E+000  0.2626962E+03  0.7818608E-02  0.1105534E+00
         21   -1    0    0  501  502  0.00000000000E+00  0.00000000000E+00  0.73873170957E+03  0.73873170957E+03  0.00000000000E+00 0.  1.
         21   -1    0    0  502  503 -0.00000000000E+00 -0.00000000000E+00 -0.22644389829E+03  0.22644389829E+03  0.00000000000E+00 0. -1.
          6    1    1    2  501    0 -0.10433554490E+03  0.16893611101E+03  0.62602956761E+03  0.67891261223E+03  0.17200000000E+03 0.  1.
         -6    1    1    2    0  503  0.10433554490E+03 -0.16893611101E+03 -0.11374175632E+03  0.28626299562E+03  0.17200000000E+03 0. -1.
</event>
<event>
 4    1  0.5743594E+000  0.2097995E+03  0.7818608E-02  0.1141725E+00
         21   -1    0    0  503  502  0.00000000000E+00  0.00000000000E+00  0.11525614171E+03  0.11525614171E+03  0.00000000000E+00 0.  1.
         21   -1    0    0  501  503 -0.00000000000E+00 -0.00000000000E+00 -0.60008288989E+03  0.60008288989E+03  0.00000000000E+00 0.  1.
          6    1    1    2  501    0  0.11407218948E+03  0.37674635568E+02 -0.45808388976E+03  0.50384193219E+03  0.17200000000E+03 0.  1.
         -6    1    1    2    0  502 -0.11407218948E+03 -0.37674635568E+02 -0.26742858417E+02  0.21149709940E+03  0.17200000000E+03 0.  1.
</event>
<event>
 4    1  0.5743594E+000  0.2397494E+03  0.7818608E-02  0.1119960E+00
         21   -1    0    0  501  502  0.00000000000E+00  0.00000000000E+00  0.42207943317E+02  0.42207943317E+02  0.00000000000E+00 0.  1.
         21   -1    0    0  502  503 -0.00000000000E+00 -0.00000000000E+00 -0.13675673568E+04  0.13675673568E+04  0.00000000000E+00 0.  1.
          6    1    1    2  501    0 -0.12634168249E+03 -0.10924073106E+03 -0.70836298139E+03  0.74783545747E+03  0.17200000000E+03 0.  1.
         -6    1    1    2    0  503  0.12634168249E+03  0.10924073106E+03 -0.61699643207E+03  0.66193984262E+03  0.17200000000E+03 0.  1.
</event>
<event>
 4    1  0.5743594E+000  0.2242396E+03  0.7818608E-02  0.1130761E+00
         21   -1    0    0  501  502  0.00000000000E+00  0.00000000000E+00  0.10168677267E+04  0.10168677267E+04  0.00000000000E+00 0.  1.
         21   -1    0    0  502  503 -0.00000000000E+00 -0.00000000000E+00 -0.62536995199E+02  0.62536995199E+02  0.00000000000E+00 0. -1.
          6    1    1    2  501    0 -0.87058235168E+02 -0.11454374972E+03  0.72406317801E+03  0.75799135395E+03  0.17200000000E+03 0.  1.
         -6    1    1    2    0  503  0.87058235168E+02  0.11454374972E+03  0.23026755351E+03  0.32141336797E+03  0.17200000000E+03 0. -1.
</event>
<event>
 4    1  0.5743594E+000  0.1775373E+03  0.7818608E-02  0.1170208E+00
         21   -1    0    0  501  502  0.00000000000E+00  0.00000000000E+00  0.32903724350E+02  0.32903724350E+02  0.00000000000E+00 0.  1.
         21   -1    0    0  502  503 -0.00000000000E+00 -0.00000000000E+00 -0.95816803908E+03  0.95816803908E+03  0.00000000000E+00 0.  1.
          6    1    1    2  501    0  0.32569815657E+02  0.29575529163E+02 -0.47042260432E+03  0.50280904076E+03  0.17200000000E+03 0.  1.
         -6    1    1    2    0  503 -0.32569815657E+02 -0.29575529163E+02 -0.45484171041E+03  0.48826272267E+03  0.17200000000E+03 0.  1.
</event>
<event>
 4    1  0.5743594E+000  0.1900050E+03  0.7818608E-02  0.1158457E+00
         21   -1    0    0  501  502  0.00000000000E+00  0.00000000000E+00  0.92381188512E+02  0.92381188512E+02  0.00000000000E+00 0.  1.
         21   -1    0    0  502  503 -0.00000000000E+00 -0.00000000000E+00 -0.87458938933E+03  0.87458938933E+03  0.00000000000E+00 0.  1.
          6    1    1    2  501    0 -0.29355952763E+02 -0.75207297636E+02 -0.31510020671E+02  0.19260008043E+03  0.17200000000E+03 0.  1.
         -6    1    1    2    0  503  0.29355952763E+02  0.75207297636E+02 -0.75069818015E+03  0.77437049741E+03  0.17200000000E+03 0.  1.
</event>
<event>
 4    1  0.5743594E+000  0.1901473E+03  0.7818608E-02  0.1158329E+00
         21   -1    0    0  503  502  0.00000000000E+00  0.00000000000E+00  0.13018143455E+03  0.13018143455E+03  0.00000000000E+00 0. -1.
         21   -1    0    0  501  503 -0.00000000000E+00 -0.00000000000E+00 -0.51833632873E+03  0.51833632873E+03  0.00000000000E+00 0. -1.
          6    1    1    2  501    0 -0.70401247210E+02  0.40195174429E+02 -0.41499729810E+03  0.45648520796E+03  0.17200000000E+03 0. -1.
         -6    1    1    2    0  502  0.70401247210E+02 -0.40195174429E+02  0.26842403911E+02  0.19203255532E+03  0.17200000000E+03 0. -1.
</event>
<event>
 4    1  0.5743594E+000  0.2525046E+03  0.7818608E-02  0.1111732E+00
         21   -1    0    0  503  502  0.00000000000E+00  0.00000000000E+00  0.95584186337E+03  0.95584186337E+03  0.00000000000E+00 0.  1.
         21   -1    0    0  501  503 -0.00000000000E+00 -0.00000000000E+00 -0.67539838137E+02  0.67539838137E+02  0.00000000000E+00 0. -1.
          6    1    1    2  501    0  0.17106152139E+03  0.70089516941E+02  0.38723176473E+03  0.46228457047E+03  0.17200000000E+03 0. -1.
         -6    1    1    2    0  502 -0.17106152139E+03 -0.70089516941E+02  0.50107026050E+03  0.56109713103E+03  0.17200000000E+03 0.  1.
</event>
<event>
 4    1  0.5743594E+000  0.2360522E+03  0.7818608E-02  0.1122451E+00
         21   -1    0    0  503  502  0.00000000000E+00  0.00000000000E+00  0.57215049989E+03  0.57215049989E+03  0.00000000000E+00 0. -1.
         21   -1    0    0  501  503 -0.00000000000E+00 -0.00000000000E+00 -0.10262565494E+03  0.10262565494E+03  0.00000000000E+00 0. -1.
          6    1    1    2  501    0 -0.16134391266E+03  0.10235686975E+02  0.15854264120E+03  0.28435259190E+03  0.17200000000E+03 0. -1.
         -6    1    1    2    0  502  0.16134391266E+03 -0.10235686975E+02  0.31098220374E+03  0.39042356292E+03  0.17200000000E+03 0. -1.
</event>
<event>
 4    1  0.5743594E+000  0.1815428E+03  0.7818608E-02  0.1166318E+00
         21   -1    0    0  503  502  0.00000000000E+00  0.00000000000E+00  0.11660612593E+04  0.11660612593E+04  0.00000000000E+00 0.  1.
         21   -1    0    0  501  503 -0.00000000000E+00 -0.00000000000E+00 -0.32255355429E+02  0.32255355429E+02  0.00000000000E+00 0.  1.
          6    1    1    2  501    0  0.57162862303E+02 -0.10305951193E+02  0.35614245914E+03  0.39974398889E+03  0.17200000000E+03 0.  1.
         -6    1    1    2    0  502 -0.57162862303E+02  0.10305951193E+02  0.77766344469E+03  0.79857262579E+03  0.17200000000E+03 0.  1.
</event>
<event>
 4    1  0.5743594E+000  0.2868629E+03  0.7818608E-02  0.1091999E+00
         21   -1    0    0  501  502  0.00000000000E+00  0.00000000000E+00  0.13772367860E+04  0.13772367860E+04  0.00000000000E+00 0.  1.
         21   -1    0    0  502  503 -0.00000000000E+00 -0.00000000000E+00 -0.60010384843E+02  0.60010384843E+02  0.00000000000E+00 0.  1.
          6    1    1    2  501    0 -0.77376591317E+02  0.21614619263E+03  0.61130413546E+03  0.67526517717E+03  0.17200000000E+03 0. -1.
         -6    1    1    2    0  503  0.77376591317E+02 -0.21614619263E+03  0.70592226570E+03  0.76198199367E+03  0.17200000000E+03 0. -1.
</event>
<event>
 4    1  0.5743594E+000  0.1895869E+03  0.7818608E-02  0.1158834E+00
         21   -1    0    0  503  502  0.00000000000E+00  0.00000000000E+00  0.27626929068E+03  0.27626929068E+03  0.00000000000E+00 0.  1.
         21   -1    0    0  501  503 -0.00000000000E+00 -0.00000000000E+00 -0.31749751322E+03  0.31749751322E+03  0.00000000000E+00 0.  1.
          6    1    1    2  501    0 -0.58882469202E+02  0.53777900454E+02 -0.24869834306E+03  0.31272044000E+03  0.17200000000E+03 0.  1.
         -6    1    1    2    0  502  0.58882469202E+02 -0.53777900454E+02  0.20747012051E+03  0.28104636390E+03  0.17200000000E+03 0.  1.
</event>
<event>
 4    1  0.5743594E+000  0.3159743E+03  0.7818608E-02  0.1077517E+00
         21   -1    0    0  501  502  0.00000000000E+00  0.00000000000E+00  0.18658941025E+03  0.18658941025E+03  0.00000000000E+00 0. -1.
         21   -1    0    0  502  503 -0.00000000000E+00 -0.00000000000E+00 -0.90986531872E+03  0.90986531872E+03  0.00000000000E+00 0.  1.
          6    1    1    2  501    0  0.24673427184E+03  0.96839725512E+02 -0.97818586674E+01  0.31612563657E+03  0.17200000000E+03 0. -1.
         -6    1    1    2    0  503 -0.24673427184E+03 -0.96839725512E+02 -0.71349404980E+03  0.78032909240E+03  0.17200000000E+03 0.  1.
</event>
<event>
 4    1  0.5743594E+000  0.2440278E+03  0.7818608E-02  0.1117138E+00
         21   -1    0    0  503  502  0.00000000000E+00  0.00000000000E+00  0.43122305289E+03  0.43122305289E+03  0.00000000000E+00 0.  1.
         21   -1    0    0  501  503 -0.00000000000E+00 -0.00000000000E+00 -0.20241523662E+03  0.20241523662E+03  0.00000000000E+00 0. -1.
          6    1    1    2  501    0 -0.17298167021E+03 -0.65522279546E+01 -0.64189270623E+02  0.25232885761E+03  0.17200000000E+03 0. -1.
         -6    1    1    2    0  502  0.17298167021E+03  0.65522279546E+01  0.29299708689E+03  0.38130943189E+03  0.17200000000E+03 0.  1.
</event>
<event>
 4    1  0.5743594E+000  0.3001163E+03  0.7818608E-02  0.1085183E+00
         21   -1    0    0  503  502  0.00000000000E+00  0.00000000000E+00  0.20943741172E+03  0.20943741172E+03  0.00000000000E+00 0. -1.
         21   -1    0    0  501  503 -0.00000000000E+00 -0.00000000000E+00 -0.64333876015E+03  0.64333876015E+03  0.00000000000E+00 0.  1.
          6    1    1    2  501    0  0.22009503686E+03 -0.10974490979E+03 -0.46245734530E+03  0.55130442289E+03  0.17200000000E+03 0.  1.
         -6    1    1    2    0  502 -0.22009503686E+03  0.10974490979E+03  0.28555996876E+02  0.30147174898E+03  0.17200000000E+03 0.  1.
</event>
<event>
 4    1  0.5743594E+000  0.3889592E+03  0.7818608E-02  0.1047671E+00
         21   -1    0    0  501  502  0.00000000000E+00  0.00000000000E+00  0.90304681222E+03  0.90304681222E+03  0.00000000000E+00 0. -1.
         21   -1    0    0  502  503 -0.00000000000E+00 -0.00000000000E+00 -0.25342492279E+03  0.25342492279E+03  0.00000000000E+00 0.  1.
          6    1    1    2  501    0 -0.51039543596E+01  0.34882545735E+03  0.66144575595E+03  0.76733287308E+03  0.17200000000E+03 0. -1.
         -6    1    1    2    0  503  0.51039543596E+01 -0.34882545735E+03 -0.11823866512E+02  0.38913886193E+03  0.17200000000E+03 0.  1.
</event>
<event>
 4    1  0.5743594E+000  0.2012219E+03  0.7818608E-02  0.1148712E+00
         21   -1    0    0  503  502  0.00000000000E+00  0.00000000000E+00  0.87302317717E+03  0.87302317717E+03  0.00000000000E+00 0. -1.
         21   -1    0    0  501  503 -0.00000000000E+00 -0.00000000000E+00 -0.50614746851E+02  0.50614746851E+02  0.00000000000E+00 0. -1.
          6    1    1    2  501    0 -0.43610466163E+02 -0.94891348433E+02  0.27761214618E+03  0.34286840693E+03  0.17200000000E+03 0. -1.
         -6    1    1    2    0  502  0.43610466163E+02  0.94891348433E+02  0.54479628414E+03  0.58076951709E+03  0.17200000000E+03 0. -1.
</event>
<event>
 4    1  0.5743594E+000  0.1866706E+03  0.7818608E-02  0.1161499E+00
         21   -1    0    0  503  502  0.00000000000E+00  0.00000000000E+00  0.57471061221E+02  0.57471061221E+02  0.00000000000E+00 0.  1.
         21   -1    0    0  501  503 -0.00000000000E+00 -0.00000000000E+00 -0.61331747071E+03  0.61331747071E+03  0.00000000000E+00 0.  1.
          6    1    1    2  501    0  0.71258275580E+02 -0.13571536514E+02 -0.31374465989E+03  0.36507758086E+03  0.17200000000E+03 0.  1.
         -6    1    1    2    0  502 -0.71258275580E+02  0.13571536514E+02 -0.24210174960E+03  0.30571095106E+03  0.17200000000E+03 0.  1.
</event>
<event>
 4    1  0.5743594E+000  0.1755816E+03  0.7818608E-02  0.1172149E+00
         21   -1    0    0  503  502  0.00000000000E+00  0.00000000000E+00  0.27915513244E+02  0.27915513244E+02  0.00000000000E+00 0. -1.
         21   -1    0    0  501  503 -0.00000000000E+00 -0.00000000000E+00 -0.33977128712E+04  0.33977128712E+04  0.00000000000E+00 0. -1.
          6    1    1    2  501    0 -0.10332871175E+02 -0.33736177893E+02 -0.30920860992E+04  0.30970672163E+04  0.17200000000E+03 0. -1.
         -6    1    1    2    0  502  0.10332871175E+02  0.33736177893E+02 -0.27771125883E+03  0.32856116813E+03  0.17200000000E+03 0. -1.
</event>
<event>
 4    1  0.5743594E+000  0.1796710E+03  0.7818608E-02  0.1168122E+00
         21   -1    0    0  501  502  0.00000000000E+00  0.00000000000E+00  0.33189553063E+03  0.33189553063E+03  0.00000000000E+00 0. -1.
         21   -1    0    0  502  503 -0.00000000000E+00 -0.00000000000E+00 -0.21478436713E+03  0.21478436713E+03  0.00000000000E+00 0. -1.
          6    1    1    2  501    0 -0.47905585720E+02 -0.20067648528E+02  0.26074452611E+03  0.31665338078E+03  0.17200000000E+03 0. -1.
         -6    1    1    2    0  503  0.47905585720E+02  0.20067648528E+02 -0.14363336261E+03  0.23002651698E+03  0.17200000000E+03 0. -1.
</event>
<event>
 4    1  0.5743594E+000  0.2113867E+03  0.7818608E-02  0.1140473E+00
         21   -1    0    0  503  502  0.00000000000E+00  0.00000000000E+00  0.50584196595E+02  0.50584196595E+02  0.00000000000E+00 0.  1.
         21   -1    0    0  501  503 -0.00000000000E+00 -0.00000000000E+00 -0.10107748398E+04  0.10107748398E+04  0.00000000000E+00 0. -1.
          6    1    1    2  501    0 -0.98749465807E+02 -0.73136056282E+02 -0.66850601957E+03  0.70113097059E+03  0.17200000000E+03 0. -1.
         -6    1    1    2    0  502  0.98749465807E+02  0.73136056282E+02 -0.29168462364E+03  0.36022806580E+03  0.17200000000E+03 0.  1.
</event>
<event>
 4    1  0.5743594E+000  0.3427117E+03  0.7818608E-02  0.1065647E+00
         21   -1    0    0  501  502  0.00000000000E+00  0.00000000000E+00  0.22801075960E+03  0.22801075960E+03  0.00000000000E+00 0. -1.
         21   -1    0    0  502  503 -0.00000000000E+00 -0.00000000000E+00 -0.75991173569E+03  0.75991173569E+03  0.00000000000E+00 0.  1.
          6    1    1    2  501    0  0.28534279738E+03  0.80292118533E+02  0.14409331646E+02  0.34301452615E+03  0.17200000000E+03 0. -1.
         -6    1    1    2    0  503 -0.28534279738E+03 -0.80292118533E+02 -0.54631030774E+03  0.64490796913E+03  0.17200000000E+03 0.  1.
</event>
<event>
 4    1  0.5743594E+000  0.2419193E+03  0.7818608E-02  0.1118521E+00
         21   -1    0    0  501  502  0.00000000000E+00  0.00000000000E+00  0.80930799295E+02  0.80930799295E+02  0.00000000000E+00 0.  1.
         21   -1    0    0  502  503 -0.00000000000E+00 -0.00000000000E+00 -0.84985108566E+03  0.84985108566E+03  0.00000000000E+00 0.  1.
          6    1    1    2  501    0  0.14598844974E+03 -0.87340323031E+02 -0.20476356274E+03  0.31694333265E+03  0.17200000000E+03 0.  1.
         -6    1    1    2    0  503 -0.14598844974E+03  0.87340323031E+02 -0.56415672362E+03  0.61383855230E+03  0.17200000000E+03 0.  1.
</event>
<event>
 4    1  0.5743594E+000  0.2092802E+03  0.7818608E-02  0.1142137E+00
         21   -1    0    0  503  502  0.00000000000E+00  0.00000000000E+00  0.23551564387E+02  0.23551564387E+02  0.00000000000E+00 0. -1.
         21   -1    0    0  501  503 -0.00000000000E+00 -0.00000000000E+00 -0.18770515371E+04  0.18770515371E+04  0.00000000000E+00 0.  1.
          6    1    1    2  501    0 -0.11121639459E+02  0.11870349668E+03 -0.10181883769E+04  0.10394738004E+04  0.17200000000E+03 0. -1.
         -6    1    1    2    0  502  0.11121639459E+02 -0.11870349668E+03 -0.83531159584E+03  0.86112930106E+03  0.17200000000E+03 0. -1.
</event>
<event>
 4    1  0.5743594E+000  0.1727210E+03  0.7818608E-02  0.1175040E+00
         21   -1    0    0  503  502  0.00000000000E+00  0.00000000000E+00  0.30651239567E+04  0.30651239567E+04  0.00000000000E+00 0. -1.
         21   -1    0    0  501  503 -0.00000000000E+00 -0.00000000000E+00 -0.10877212546E+02  0.10877212546E+02  0.00000000000E+00 0. -1.
          6    1    1    2  501    0 -0.54567584294E+01  0.14791020746E+02  0.20259730307E+04  0.20333222252E+04  0.17200000000E+03 0. -1.
         -6    1    1    2    0  502  0.54567584294E+01 -0.14791020746E+02  0.10282737135E+04  0.10426789441E+04  0.17200000000E+03 0. -1.
</event>
<event>
 4    1  0.5743594E+000  0.1977871E+03  0.7818608E-02  0.1151620E+00
         21   -1    0    0  503  502  0.00000000000E+00  0.00000000000E+00  0.90963390169E+03  0.90963390169E+03  0.00000000000E+00 0. -1.
         21   -1    0    0  501  503 -0.00000000000E+00 -0.00000000000E+00 -0.57739316343E+02  0.57739316343E+02  0.00000000000E+00 0. -1.
          6    1    1    2  501    0  0.94563113392E+02 -0.24362770852E+02  0.18161643649E+03  0.26852235852E+03  0.17200000000E+03 0. -1.
         -6    1    1    2    0  502 -0.94563113392E+02  0.24362770852E+02  0.67027814886E+03  0.69885085952E+03  0.17200000000E+03 0. -1.
</event>
<event>
 4    1  0.5743594E+000  0.2089233E+03  0.7818608E-02  0.1142421E+00
         21   -1    0    0  501  502  0.00000000000E+00  0.00000000000E+00  0.86726382762E+02  0.86726382762E+02  0.00000000000E+00 0.  1.
         21   -1    0    0  502  503 -0.00000000000E+00 -0.00000000000E+00 -0.62801665221E+03  0.62801665221E+03  0.00000000000E+00 0.  1.
          6    1    1    2  501    0 -0.12352085290E+02 -0.11795073045E+03 -0.11138561398E+03  0.23676085789E+03  0.17200000000E+03 0.  1.
         -6    1    1    2    0  503  0.12352085290E+02  0.11795073045E+03 -0.42990465547E+03  0.47798217709E+03  0.17200000000E+03 0.  1.
</event>
<event>
 4    1  0.5743594E+000  0.1790900E+03  0.7818608E-02  0.1168687E+00
         21   -1    0    0  501  502  0.00000000000E+00  0.00000000000E+00  0.11061434337E+03  0.11061434337E+03  0.00000000000E+00 0. -1.
         21   -1    0    0  502  503 -0.00000000000E+00 -0.00000000000E+00 -0.41115372094E+03  0.41115372094E+03  0.00000000000E+00 0. -1.
          6    1    1    2  501    0  0.45612137443E+02  0.20217994724E+02 -0.86271983135E+01  0.17929769364E+03  0.17200000000E+03 0.  1.
         -6    1    1    2    0  503 -0.45612137443E+02 -0.20217994724E+02 -0.29191217925E+03  0.34247037067E+03  0.17200000000E+03 0.  1.
</event>
<event>
 4    1  0.5743594E+000  0.2212829E+03  0.7818608E-02  0.1132930E+00
         21   -1    0    0  503  502  0.00000000000E+00  0.00000000000E+00  0.38460448119E+03  0.38460448119E+03  0.00000000000E+00 0.  1.
         21   -1    0    0  501  503 -0.00000000000E+00 -0.00000000000E+00 -0.17527360643E+03  0.17527360643E+03  0.00000000000E+00 0. -1.
          6    1    1    2  501    0 -0.10343770636E+02  0.13883491689E+03 -0.41766577984E+02  0.22519008587E+03  0.17200000000E+03 0. -1.
         -6    1    1    2    0  502  0.10343770636E+02 -0.13883491689E+03  0.25109745275E+03  0.33468800175E+03  0.17200000000E+03 0.  1.
</event>
<event>
 4    1  0.5743594E+000  0.1753628E+03  0.7818608E-02  0.1172368E+00
         21   -1    0    0  503  502  0.00000000000E+00  0.00000000000E+00  0.88618414348E+02  0.88618414348E+02  0.00000000000E+00 0.  1.
         21   -1    0    0  501  503 -0.00000000000E+00 -0.00000000000E+00 -0.52086936936E+03  0.52086936936E+03  0.00000000000E+00 0.  1.
          6    1    1    2  501    0  0.32555999105E+02 -0.10402444723E+02 -0.39218551883E+03  0.42960631410E+03  0.17200000000E+03 0.  1.
         -6    1    1    2    0  502 -0.32555999105E+02  0.10402444723E+02 -0.40065436189E+02  0.17988146962E+03  0.17200000000E+03 0.  1.
</event>
<event>
 4    1  0.5743594E+000  0.1979042E+03  0.7818608E-02  0.1151519E+00
         21   -1    0    0  501  502  0.00000000000E+00  0.00000000000E+00  0.12424154902E+03  0.12424154902E+03  0.00000000000E+00 0. -1.
         21   -1    0    0  502  503 -0.00000000000E+00 -0.00000000000E+00 -0.55188414703E+03  0.55188414703E+03  0.00000000000E+00 0. -1.
          6    1    1    2  501    0 -0.85059728652E+02  0.48444848137E+02  0.75494459269E+01  0.19804811255E+03  0.17200000000E+03 0.  1.
         -6    1    1    2    0  503  0.85059728652E+02 -0.48444848137E+02 -0.43519204393E+03  0.47807758350E+03  0.17200000000E+03 0.  1.
</event>
<event>
 4    1  0.5743594E+000  0.2120683E+03  0.7818608E-02  0.1139938E+00
         21   -1    0    0  503  502  0.00000000000E+00  0.00000000000E+00  0.19997592008E+02  0.19997592008E+02  0.00000000000E+00 0.  1.
         21   -1    0    0  501  503 -0.00000000000E+00 -0.00000000000E+00 -0.22568564143E+04  0.22568564143E+04  0.00000000000E+00 0. -1.
          6    1    1    2  501    0  0.34514361258E+02  0.11915426134E+03 -0.11859401564E+04  0.12047518557E+04  0.17200000000E+03 0. -1.
         -6    1    1    2    0  502 -0.34514361258E+02 -0.11915426134E+03 -0.10509186659E+04  0.10721021506E+04  0.17200000000E+03 0. -1.
</event>
<event>
 4    1  0.5743594E+000  0.2017503E+03  0.7818608E-02  0.1148271E+00
         21   -1    0    0  501  502  0.00000000000E+00  0.00000000000E+00  0.13869236322E+04  0.13869236322E+04  0.00000000000E+00 0. -1.
         21   -1    0    0  502  503 -0.00000000000E+00 -0.00000000000E+00 -0.45712185366E+02  0.45712185366E+02  0.00000000000E+00 0. -1.
          6    1    1    2  501    0  0.10056323836E+03  0.31720905173E+02  0.10991931664E+04  0.11175548299E+04  0.17200000000E+03 0. -1.
         -6    1    1    2    0  503 -0.10056323836E+03 -0.31720905173E+02  0.24201828043E+03  0.31508098767E+03  0.17200000000E+03 0. -1.
</event>
<event>
 4    1  0.5743594E+000  0.1893144E+03  0.7818608E-02  0.1159081E+00
         21   -1    0    0  501  502  0.00000000000E+00  0.00000000000E+00  0.20349659097E+03  0.20349659097E+03  0.00000000000E+00 0. -1.
         21   -1    0    0  502  503 -0.00000000000E+00 -0.00000000000E+00 -0.17638605843E+03  0.17638605843E+03  0.00000000000E+00 0. -1.
          6    1    1    2  501    0 -0.72534114398E+02 -0.31539791377E+02  0.20922888277E+02  0.19046711907E+03  0.17200000000E+03 0. -1.
         -6    1    1    2    0  503  0.72534114398E+02  0.31539791377E+02  0.61876442683E+01  0.18941553034E+03  0.17200000000E+03 0. -1.
</event>
<event>
 4    1  0.5743594E+000  0.2510870E+03  0.7818608E-02  0.1112620E+00
         21   -1    0    0  503  502  0.00000000000E+00  0.00000000000E+00  0.43414649725E+03  0.43414649725E+03  0.00000000000E+00 0. -1.
         21   -1    0    0  501  503 -0.00000000000E+00 -0.00000000000E+00 -0.21536637710E+03  0.21536637710E+03  0.00000000000E+00 0. -1.
          6    1    1    2  501    0  0.92704647287E+02  0.15769119572E+03 -0.75957271621E+02  0.26232455460E+03  0.17200000000E+03 0. -1.
         -6    1    1    2    0  502 -0.92704647287E+02 -0.15769119572E+03  0.29473739178E+03  0.38718831974E+03  0.17200000000E+03 0. -1.
</event>
<event>
 4    1  0.5743594E+000  0.1723339E+03  0.7818608E-02  0.1175436E+00
         21   -1    0    0  501  502  0.00000000000E+00  0.00000000000E+00  0.52366630422E+03  0.52366630422E+03  0.00000000000E+00 0.  1.
         21   -1    0    0  502  503 -0.00000000000E+00 -0.00000000000E+00 -0.13936201449E+03  0.13936201449E+03  0.00000000000E+00 0.  1.
          6    1    1    2  501    0  0.22132591902E+01 -0.10492187524E+02  0.44745003295E+03  0.47948985026E+03  0.17200000000E+03 0.  1.
         -6    1    1    2    0  503 -0.22132591902E+01  0.10492187524E+02 -0.63145743212E+02  0.18353846845E+03  0.17200000000E+03 0.  1.
</event>
<event>
 4    1  0.5743594E+000  0.1771182E+03  0.7818608E-02  0.1170622E+00
         21   -1    0    0  501  502  0.00000000000E+00  0.00000000000E+00  0.10136216745E+04  0.10136216745E+04  0.00000000000E+00 0.  1.
         21   -1    0    0  502  503 -0.00000000000E+00 -0.00000000000E+00 -0.10091826567E+03  0.10091826567E+03  0.00000000000E+00 0.  1.
          6    1    1    2  501    0  0.28568191984E+02  0.31156566703E+02  0.92036828898E+03  0.93725592055E+03  0.17200000000E+03 0.  1.
         -6    1    1    2    0  503 -0.28568191984E+02 -0.31156566703E+02 -0.76648801138E+01  0.17728401967E+03  0.17200000000E+03 0.  1.
</event>
<event>
 4    1  0.5743594E+000  0.1812656E+03  0.7818608E-02  0.1166584E+00
         21   -1    0    0  501  502  0.00000000000E+00  0.00000000000E+00  0.11320843427E+03  0.11320843427E+03  0.00000000000E+00 0. -1.
         21   -1    0    0  502  503 -0.00000000000E+00 -0.00000000000E+00 -0.29999485762E+03  0.29999485762E+03  0.00000000000E+00 0.  1.
          6    1    1    2  501    0  0.34809925785E+02  0.45403651480E+02 -0.56131337689E+02  0.18975760741E+03  0.17200000000E+03 0.  1.
         -6    1    1    2    0  503 -0.34809925785E+02 -0.45403651480E+02 -0.13065508566E+03  0.22344568448E+03  0.17200000000E+03 0.  1.
</event>
<event>
 4    1  0.5743594E+000  0.1752290E+03  0.7818608E-02  0.1172502E+00
         21   -1    0    0  501  502  0.00000000000E+00  0.00000000000E+00  0.81827582130E+02  0.81827582130E+02  0.00000000000E+00 0. -1.
         21   -1    0    0  502  503 -0.00000000000E+00 -0.00000000000E+00 -0.38458017365E+03  0.38458017365E+03  0.00000000000E+00 0. -1.
          6    1    1    2  501    0  0.20735313991E+02  0.26291914472E+02 -0.11503899123E+03  0.20961676344E+03  0.17200000000E+03 0.  1.
         -6    1    1    2    0  503 -0.20735313991E+02 -0.26291914472E+02 -0.18771360029E+03  0.25679099234E+03  0.17200000000E+03 0.  1.
</event>
<event>
 4    1  0.5743594E+000  0.1760799E+03  0.7818608E-02  0.1171652E+00
         21   -1    0    0  501  502  0.00000000000E+00  0.00000000000E+00  0.22719589219E+03  0.22719589219E+03  0.00000000000E+00 0. -1.
         21   -1    0    0  502  503 -0.00000000000E+00 -0.00000000000E+00 -0.15930429616E+03  0.15930429616E+03  0.00000000000E+00 0. -1.
          6    1    1    2  501    0  0.71413204544E+01 -0.37001904100E+02  0.10711924674E+03  0.20610354773E+03  0.17200000000E+03 0. -1.
         -6    1    1    2    0  503 -0.71413204544E+01  0.37001904100E+02 -0.39227650710E+02  0.18039664061E+03  0.17200000000E+03 0. -1.
</event>
<event>
 4    1  0.5743594E+000  0.2421731E+03  0.7818608E-02  0.1118354E+00
         21   -1    0    0  503  502  0.00000000000E+00  0.00000000000E+00  0.15111069025E+03  0.15111069025E+03  0.00000000000E+00 0. -1.
         21   -1    0    0  501  503 -0.00000000000E+00 -0.00000000000E+00 -0.45856239807E+03  0.45856239807E+03  0.00000000000E+00 0.  1.
          6    1    1    2  501    0  0.10589924036E+03  0.13360066670E+03 -0.27321027075E+03  0.36509127529E+03  0.17200000000E+03 0.  1.
         -6    1    1    2    0  502 -0.10589924036E+03 -0.13360066670E+03 -0.34241437067E+02  0.24458181303E+03  0.17200000000E+03 0.  1.
</event>
<event>
 4    1  0.5743594E+000  0.1919356E+03  0.7818608E-02  0.1156727E+00
         21   -1    0    0  503  502  0.00000000000E+00  0.00000000000E+00  0.95014590126E+02  0.95014590126E+02  0.00000000000E+00 0. -1.
         21   -1    0    0  501  503 -0.00000000000E+00 -0.00000000000E+00 -0.40862608955E+03  0.40862608955E+03  0.00000000000E+00 0. -1.
          6    1    1    2  501    0  0.84016366695E+02  0.14018164832E+02 -0.99849408006E+02  0.21635425371E+03  0.17200000000E+03 0. -1.
         -6    1    1    2    0  502 -0.84016366695E+02 -0.14018164832E+02 -0.21376209141E+03  0.28728642596E+03  0.17200000000E+03 0. -1.
</event>
<event>
 4    1  0.5743594E+000  0.2066087E+03  0.7818608E-02  0.1144280E+00
         21   -1    0    0  501  502  0.00000000000E+00  0.00000000000E+00  0.98755161313E+03  0.98755161313E+03  0.00000000000E+00 0.  1.
         21   -1    0    0  502  503 -0.00000000000E+00 -0.00000000000E+00 -0.77228392421E+02  0.77228392421E+02  0.00000000000E+00 0.  1.
          6    1    1    2  501    0  0.98271899200E+02  0.58700740926E+02  0.80842697939E+03  0.83441076465E+03  0.17200000000E+03 0.  1.
         -6    1    1    2    0  503 -0.98271899200E+02 -0.58700740926E+02  0.10189624132E+03  0.23036924090E+03  0.17200000000E+03 0.  1.
</event>
<event>
 4    1  0.5743594E+000  0.1850605E+03  0.7818608E-02  0.1162993E+00
         21   -1    0    0  503  502  0.00000000000E+00  0.00000000000E+00  0.37333146588E+03  0.37333146588E+03  0.00000000000E+00 0.  1.
         21   -1    0    0  501  503 -0.00000000000E+00 -0.00000000000E+00 -0.11526528132E+03  0.11526528132E+03  0.00000000000E+00 0.  1.
          6    1    1    2  501    0  0.55209949146E+02  0.40190038849E+02  0.18653335129E+02  0.18599818445E+03  0.17200000000E+03 0.  1.
         -6    1    1    2    0  502 -0.55209949146E+02 -0.40190038849E+02  0.23941284943E+03  0.30259856275E+03  0.17200000000E+03 0.  1.
</event>
<event>
 4    1  0.5743594E+000  0.2219083E+03  0.7818608E-02  0.1132468E+00
         21   -1    0    0  503  502  0.00000000000E+00  0.00000000000E+00  0.11853459848E+03  0.11853459848E+03  0.00000000000E+00 0. -1.
         21   -1    0    0  501  503 -0.00000000000E+00 -0.00000000000E+00 -0.43930949710E+03  0.43930949710E+03  0.00000000000E+00 0.  1.
          6    1    1    2  501    0 -0.45255077022E+02 -0.13270738745E+03 -0.22541180231E+03  0.31631274603E+03  0.17200000000E+03 0.  1.
         -6    1    1    2    0  502  0.45255077022E+02  0.13270738745E+03 -0.95363096312E+02  0.24153134955E+03  0.17200000000E+03 0. -1.
</event>
<event>
 4    1  0.5743594E+000  0.1745382E+03  0.7818608E-02  0.1173196E+00
         21   -1    0    0  503  502  0.00000000000E+00  0.00000000000E+00  0.39315162140E+02  0.39315162140E+02  0.00000000000E+00 0. -1.
         21   -1    0    0  501  503 -0.00000000000E+00 -0.00000000000E+00 -0.13625648740E+04  0.13625648740E+04  0.00000000000E+00 0. -1.
          6    1    1    2  501    0  0.24088052888E+02 -0.17301893244E+02 -0.11219698027E+04  0.11354645868E+04  0.17200000000E+03 0. -1.
         -6    1    1    2    0  502 -0.24088052888E+02  0.17301893244E+02 -0.20127990923E+03  0.26641544937E+03  0.17200000000E+03 0. -1.
</event>
<event>
 4    1  0.5743594E+000  0.1964719E+03  0.7818608E-02  0.1152750E+00
         21   -1    0    0  503  502  0.00000000000E+00  0.00000000000E+00  0.15969462287E+04  0.15969462287E+04  0.00000000000E+00 0. -1.
         21   -1    0    0  501  503 -0.00000000000E+00 -0.00000000000E+00 -0.81872273466E+02  0.81872273466E+02  0.00000000000E+00 0. -1.
          6    1    1    2  501    0  0.80913880843E+02 -0.49700763035E+02  0.52852598871E+02  0.20345667639E+03  0.17200000000E+03 0. -1.
         -6    1    1    2    0  502 -0.80913880843E+02  0.49700763035E+02  0.14622213564E+04  0.14753618258E+04  0.17200000000E+03 0. -1.
</event>
<event>
 4    1  0.5743594E+000  0.1733542E+03  0.7818608E-02  0.1174394E+00
         21   -1    0    0  503  502  0.00000000000E+00  0.00000000000E+00  0.53507474154E+03  0.53507474154E+03  0.00000000000E+00 0. -1.
         21   -1    0    0  501  503 -0.00000000000E+00 -0.00000000000E+00 -0.56208394605E+02  0.56208394605E+02  0.00000000000E+00 0. -1.
          6    1    1    2  501    0  0.65593165522E+01 -0.20607419778E+02  0.23108137741E+03  0.28887764429E+03  0.17200000000E+03 0.  1.
         -6    1    1    2    0  502 -0.65593165522E+01  0.20607419778E+02  0.24778496953E+03  0.30240549186E+03  0.17200000000E+03 0.  1.
</event>
<event>
 4    1  0.5743594E+000  0.2303055E+03  0.7818608E-02  0.1126425E+00
         21   -1    0    0  501  502  0.00000000000E+00  0.00000000000E+00  0.23998398203E+03  0.23998398203E+03  0.00000000000E+00 0. -1.
         21   -1    0    0  502  503 -0.00000000000E+00 -0.00000000000E+00 -0.33299041632E+03  0.33299041632E+03  0.00000000000E+00 0.  1.
          6    1    1    2  501    0 -0.40726305310E+02 -0.14764142184E+03  0.11962605377E+03  0.25952073930E+03  0.17200000000E+03 0. -1.
         -6    1    1    2    0  503  0.40726305310E+02  0.14764142184E+03 -0.21263248806E+03  0.31345365904E+03  0.17200000000E+03 0.  1.
</event>
<event>
 4    1  0.5743594E+000  0.2272322E+03  0.7818608E-02  0.1128603E+00
         21   -1    0    0  501  502  0.00000000000E+00  0.00000000000E+00  0.17780159115E+03  0.17780159115E+03  0.00000000000E+00 0. -1.
         21   -1    0    0  502  503 -0.00000000000E+00 -0.00000000000E+00 -0.42308023024E+03  0.42308023024E+03  0.00000000000E+00 0. -1.
          6    1    1    2  501    0  0.69893575703E+02  0.13101668713E+03  0.45605812612E+02  0.23176361745E+03  0.17200000000E+03 0. -1.
         -6    1    1    2    0  503 -0.69893575703E+02 -0.13101668713E+03 -0.29088445171E+03  0.36911820393E+03  0.17200000000E+03 0. -1.
</event>
<event>
 4    1  0.5743594E+000  0.3341717E+03  0.7818608E-02  0.1069306E+00
         21   -1    0    0  503  502  0.00000000000E+00  0.00000000000E+00  0.28900530461E+03  0.28900530461E+03  0.00000000000E+00 0. -1.
         21   -1    0    0  501  503 -0.00000000000E+00 -0.00000000000E+00 -0.39841416418E+03  0.39841416418E+03  0.00000000000E+00 0.  1.
          6    1    1    2  501    0  0.10541198886E+03  0.26641139766E+03  0.49893874419E+01  0.33420893792E+03  0.17200000000E+03 0.  1.
         -6    1    1    2    0  502 -0.10541198886E+03 -0.26641139766E+03 -0.11439824700E+03  0.35321053087E+03  0.17200000000E+03 0. -1.
</event>
<event>
 4    1  0.5743594E+000  0.2190659E+03  0.7818608E-02  0.1134581E+00
         21   -1    0    0  501  502  0.00000000000E+00  0.00000000000E+00  0.55891500708E+02  0.55891500708E+02  0.00000000000E+00 0. -1.
         21   -1    0    0  502  503 -0.00000000000E+00 -0.00000000000E+00 -0.94364363935E+03  0.94364363935E+03  0.00000000000E+00 0.  1.
          6    1    1    2  501    0  0.47604849983E+02 -0.12704189165E+03 -0.29386613085E+03  0.36653399138E+03  0.17200000000E+03 0. -1.
         -6    1    1    2    0  503 -0.47604849983E+02  0.12704189165E+03 -0.59388600780E+03  0.63300114868E+03  0.17200000000E+03 0.  1.
</event>
<event>
 4    1  0.5743594E+000  0.3412286E+03  0.7818608E-02  0.1066274E+00
         21   -1    0    0  501  502  0.00000000000E+00  0.00000000000E+00  0.12445129593E+03  0.12445129593E+03  0.00000000000E+00 0. -1.
         21   -1    0    0  502  503 -0.00000000000E+00 -0.00000000000E+00 -0.97973248921E+03  0.97973248921E+03  0.00000000000E+00 0. -1.
          6    1    1    2  501    0 -0.42335535073E+02 -0.29165154975E+03 -0.31046820351E+03  0.46133223320E+03  0.17200000000E+03 0. -1.
         -6    1    1    2    0  503  0.42335535073E+02  0.29165154975E+03 -0.54481298977E+03  0.64285155193E+03  0.17200000000E+03 0. -1.
</event>
<event>
 4    1  0.5743594E+000  0.1987935E+03  0.7818608E-02  0.1150761E+00
         21   -1    0    0  503  502  0.00000000000E+00  0.00000000000E+00  0.71429494205E+03  0.71429494205E+03  0.00000000000E+00 0. -1.
         21   -1    0    0  501  503 -0.00000000000E+00 -0.00000000000E+00 -0.93292892414E+02  0.93292892414E+02  0.00000000000E+00 0. -1.
          6    1    1    2  501    0  0.95174722322E+02  0.29608041319E+02  0.52904638964E+02  0.20571282095E+03  0.17200000000E+03 0. -1.
         -6    1    1    2    0  502 -0.95174722322E+02 -0.29608041319E+02  0.56809741067E+03  0.60187501352E+03  0.17200000000E+03 0. -1.
</event>
<event>
 4    1  0.5743594E+000  0.2284576E+03  0.7818608E-02  0.1127730E+00
         21   -1    0    0  501  502  0.00000000000E+00  0.00000000000E+00  0.13164998446E+04  0.13164998446E+04  0.00000000000E+00 0. -1.
         21   -1    0    0  502  503 -0.00000000000E+00 -0.00000000000E+00 -0.39723924756E+02  0.39723924756E+02  0.00000000000E+00 0. -1.
          6    1    1    2  501    0 -0.13201802350E+03  0.71973168895E+02  0.60819960322E+03  0.64969196772E+03  0.17200000000E+03 0. -1.
         -6    1    1    2    0  503  0.13201802350E+03 -0.71973168895E+02  0.66857631665E+03  0.70653180166E+03  0.17200000000E+03 0. -1.
</event>
<event>
 4    1  0.5743594E+000  0.2031603E+03  0.7818608E-02  0.1147100E+00
         21   -1    0    0  503  502  0.00000000000E+00  0.00000000000E+00  0.13816452223E+03  0.13816452223E+03  0.00000000000E+00 0.  1.
         21   -1    0    0  501  503 -0.00000000000E+00 -0.00000000000E+00 -0.30089438387E+03  0.30089438387E+03  0.00000000000E+00 0.  1.
          6    1    1    2  501    0  0.10601734258E+03 -0.21223021644E+02 -0.99977373448E+02  0.22642784453E+03  0.17200000000E+03 0.  1.
         -6    1    1    2    0  502 -0.10601734258E+03  0.21223021644E+02 -0.62752488191E+02  0.21263106158E+03  0.17200000000E+03 0.  1.
</event>
<event>
 4    1  0.5743594E+000  0.1999579E+03  0.7818608E-02  0.1149775E+00
         21   -1    0    0  503  502  0.00000000000E+00  0.00000000000E+00  0.22458962865E+04  0.22458962865E+04  0.00000000000E+00 0.  1.
         21   -1    0    0  501  503 -0.00000000000E+00 -0.00000000000E+00 -0.22286085814E+02  0.22286085814E+02  0.00000000000E+00 0. -1.
          6    1    1    2  501    0 -0.50546285480E+02 -0.88567763459E+02  0.60314142155E+03  0.63542328419E+03  0.17200000000E+03 0.  1.
         -6    1    1    2    0  502  0.50546285480E+02  0.88567763459E+02  0.16204687791E+04  0.16327590881E+04  0.17200000000E+03 0. -1.
</event>
<event>
 4    1  0.5743594E+000  0.5067048E+03  0.7818608E-02  0.1012044E+00
         21   -1    0    0  501  502  0.00000000000E+00  0.00000000000E+00  0.22790326961E+04  0.22790326961E+04  0.00000000000E+00 0.  1.
         21   -1    0    0  502  503 -0.00000000000E+00 -0.00000000000E+00 -0.12566798016E+03  0.12566798016E+03  0.00000000000E+00 0. -1.
          6    1    1    2  501    0 -0.27745690559E+03  0.38753509151E+03  0.14635548906E+04  0.15487874933E+04  0.17200000000E+03 0. -1.
         -6    1    1    2    0  503  0.27745690559E+03 -0.38753509151E+03  0.68980982525E+03  0.85591318288E+03  0.17200000000E+03 0.  1.
</event>
<event>
 4    1  0.5743594E+000  0.1732994E+03  0.7818608E-02  0.1174450E+00
         21   -1    0    0  503  502  0.00000000000E+00  0.00000000000E+00  0.11335751701E+04  0.11335751701E+04  0.00000000000E+00 0.  1.
         21   -1    0    0  501  503 -0.00000000000E+00 -0.00000000000E+00 -0.26680558867E+02  0.26680558867E+02  0.00000000000E+00 0.  1.
          6    1    1    2  501    0 -0.10996536158E+02 -0.18104329728E+02  0.60198629787E+03  0.62643450846E+03  0.17200000000E+03 0. -1.
         -6    1    1    2    0  502  0.10996536158E+02  0.18104329728E+02  0.50490831335E+03  0.53382122050E+03  0.17200000000E+03 0. -1.
</event>
<event>
 4    1  0.5743594E+000  0.2033372E+03  0.7818608E-02  0.1146954E+00
         21   -1    0    0  503  502  0.00000000000E+00  0.00000000000E+00  0.22286652454E+02  0.22286652454E+02  0.00000000000E+00 0.  1.
         21   -1    0    0  501  503 -0.00000000000E+00 -0.00000000000E+00 -0.21861908338E+04  0.21861908338E+04  0.00000000000E+00 0. -1.
          6    1    1    2  501    0 -0.10305446500E+03 -0.33790472768E+02 -0.15116192827E+04  0.15252340393E+04  0.17200000000E+03 0. -1.
         -6    1    1    2    0  502  0.10305446500E+03  0.33790472768E+02 -0.65228489870E+03  0.68324344700E+03  0.17200000000E+03 0.  1.
</event>
<event>
 4    1  0.5743594E+000  0.1861719E+03  0.7818608E-02  0.1161960E+00
         21   -1    0    0  503  502  0.00000000000E+00  0.00000000000E+00  0.29229981865E+02  0.29229981865E+02  0.00000000000E+00 0. -1.
         21   -1    0    0  501  503 -0.00000000000E+00 -0.00000000000E+00 -0.13272520553E+04  0.13272520553E+04  0.00000000000E+00 0.  1.
          6    1    1    2  501    0 -0.36679164659E+02  0.61078721103E+02 -0.87045375534E+03  0.89014027629E+03  0.17200000000E+03 0. -1.
         -6    1    1    2    0  502  0.36679164659E+02 -0.61078721103E+02 -0.42756831805E+03  0.46634176083E+03  0.17200000000E+03 0. -1.
</event>
<event>
 4    1  0.5743594E+000  0.2262923E+03  0.7818608E-02  0.1129277E+00
         21   -1    0    0  503  502  0.00000000000E+00  0.00000000000E+00  0.44113662872E+03  0.44113662872E+03  0.00000000000E+00 0. -1.
         21   -1    0    0  501  503 -0.00000000000E+00 -0.00000000000E+00 -0.14290944924E+03  0.14290944924E+03  0.00000000000E+00 0.  1.
          6    1    1    2  501    0  0.13769507027E+03  0.51616552852E+02  0.22589548764E+02  0.22741699281E+03  0.17200000000E+03 0.  1.
         -6    1    1    2    0  502 -0.13769507027E+03 -0.51616552852E+02  0.27563763072E+03  0.35662908515E+03  0.17200000000E+03 0. -1.
</event>
<event>
 4    1  0.5743594E+000  0.2268158E+03  0.7818608E-02  0.1128901E+00
         21   -1    0    0  501  502  0.00000000000E+00  0.00000000000E+00  0.18399560215E+04  0.18399560215E+04  0.00000000000E+00 0.  1.
         21   -1    0    0  502  503 -0.00000000000E+00 -0.00000000000E+00 -0.33895679685E+02  0.33895679685E+02  0.00000000000E+00 0. -1.
          6    1    1    2  501    0 -0.14785193058E+03  0.10998921308E+01  0.51096013891E+03  0.55903995089E+03  0.17200000000E+03 0. -1.
         -6    1    1    2    0  503  0.14785193058E+03 -0.10998921308E+01  0.12951002029E+04  0.13148117503E+04  0.17200000000E+03 0.  1.
</event>
<event>
 4    1  0.5743594E+000  0.3575918E+03  0.7818608E-02  0.1059541E+00
         21   -1    0    0  501  502  0.00000000000E+00  0.00000000000E+00  0.77821670456E+02  0.77821670456E+02  0.00000000000E+00 0.  1.
         21   -1    0    0  502  503 -0.00000000000E+00 -0.00000000000E+00 -0.16909642617E+04  0.16909642617E+04  0.00000000000E+00 0. -1.
          6    1    1    2  501    0 -0.12171803465E+03  0.28891631807E+03 -0.95530215290E+03  0.10200363337E+04  0.17200000000E+03 0. -1.
         -6    1    1    2    0  503  0.12171803465E+03 -0.28891631807E+03 -0.65784043832E+03  0.74874959840E+03  0.17200000000E+03 0. -1.
</event>
<event>
 4    1  0.5743594E+000  0.2064922E+03  0.7818608E-02  0.1144374E+00
         21   -1    0    0  501  502  0.00000000000E+00  0.00000000000E+00  0.44816111528E+03  0.44816111528E+03  0.00000000000E+00 0. -1.
         21   -1    0    0  502  503 -0.00000000000E+00 -0.00000000000E+00 -0.10729901733E+03  0.10729901733E+03  0.00000000000E+00 0. -1.
          6    1    1    2  501    0 -0.11285169527E+03 -0.17875578341E+02  0.76947607163E+02  0.22036328114E+03  0.17200000000E+03 0. -1.
         -6    1    1    2    0  503  0.11285169527E+03  0.17875578341E+02  0.26391449079E+03  0.33509685148E+03  0.17200000000E+03 0. -1.
</event>
<event>
 4    1  0.5743594E+000  0.1815050E+03  0.7818608E-02  0.1166354E+00
         21   -1    0    0  503  502  0.00000000000E+00  0.00000000000E+00  0.15340515913E+03  0.15340515913E+03  0.00000000000E+00 0.  1.
         21   -1    0    0  501  503 -0.00000000000E+00 -0.00000000000E+00 -0.68643719992E+03  0.68643719992E+03  0.00000000000E+00 0.  1.
          6    1    1    2  501    0  0.44846842664E+02  0.36726273676E+02 -0.61460759995E+03  0.64084831309E+03  0.17200000000E+03 0.  1.
         -6    1    1    2    0  502 -0.44846842664E+02 -0.36726273676E+02  0.81575559153E+02  0.19899404596E+03  0.17200000000E+03 0.  1.
</event>
<event>
 4    1  0.5743594E+000  0.2897852E+03  0.7818608E-02  0.1090461E+00
         21   -1    0    0  501  502  0.00000000000E+00  0.00000000000E+00  0.10802133933E+03  0.10802133933E+03  0.00000000000E+00 0. -1.
         21   -1    0    0  502  503 -0.00000000000E+00 -0.00000000000E+00 -0.79425499215E+03  0.79425499215E+03  0.00000000000E+00 0.  1.
          6    1    1    2  501    0  0.23280378192E+03  0.13924238576E+02 -0.27739189944E+03  0.40115053430E+03  0.17200000000E+03 0.  1.
         -6    1    1    2    0  503 -0.23280378192E+03 -0.13924238576E+02 -0.40884175338E+03  0.50112579718E+03  0.17200000000E+03 0. -1.
</event>
<event>
 4    1  0.5743594E+000  0.2067919E+03  0.7818608E-02  0.1144132E+00
         21   -1    0    0  501  502  0.00000000000E+00  0.00000000000E+00  0.54541375984E+02  0.54541375984E+02  0.00000000000E+00 0. -1.
         21   -1    0    0  502  503 -0.00000000000E+00 -0.00000000000E+00 -0.78774879042E+03  0.78774879042E+03  0.00000000000E+00 0. -1.
          6    1    1    2  501    0  0.11310971798E+03 -0.19623537651E+02 -0.39548141953E+03  0.44628292005E+03  0.17200000000E+03 0. -1.
         -6    1    1    2    0  503 -0.11310971798E+03  0.19623537651E+02 -0.33772599491E+03  0.39600724636E+03  0.17200000000E+03 0. -1.
</event>
<event>
 4    1  0.5743594E+000  0.2881004E+03  0.7818608E-02  0.1091345E+00
         21   -1    0    0  503  502  0.00000000000E+00  0.00000000000E+00  0.19544432134E+03  0.19544432134E+03  0.00000000000E+00 0. -1.
         21   -1    0    0  501  503 -0.00000000000E+00 -0.00000000000E+00 -0.48226795875E+03  0.48226795875E+03  0.00000000000E+00 0. -1.
          6    1    1    2  501    0 -0.19533887403E+03 -0.12353366062E+03 -0.26320027123E+02  0.28930016392E+03  0.17200000000E+03 0. -1.
         -6    1    1    2    0  502  0.19533887403E+03  0.12353366062E+03 -0.26050361029E+03  0.38841211617E+03  0.17200000000E+03 0. -1.
</event>
<event>
 4    1  0.5743594E+000  0.1882708E+03  0.7818608E-02  0.1160030E+00
         21   -1    0    0  501  502  0.00000000000E+00  0.00000000000E+00  0.84060597520E+02  0.84060597520E+02  0.00000000000E+00 0.  1.
         21   -1    0    0  502  503 -0.00000000000E+00 -0.00000000000E+00 -0.44645169643E+03  0.44645169643E+03  0.00000000000E+00 0.  1.
          6    1    1    2  501    0  0.49485084030E+02  0.58421992852E+02 -0.11870183027E+03  0.22256690522E+03  0.17200000000E+03 0. -1.
         -6    1    1    2    0  503 -0.49485084030E+02 -0.58421992852E+02 -0.24368926864E+03  0.30794538873E+03  0.17200000000E+03 0. -1.
</event>
<event>
 4    1  0.5743594E+000  0.1957509E+03  0.7818608E-02  0.1153374E+00
         21   -1    0    0  501  502  0.00000000000E+00  0.00000000000E+00  0.33585774246E+02  0.33585774246E+02  0.00000000000E+00 0.  1.
         21   -1    0    0  502  503 -0.00000000000E+00 -0.00000000000E+00 -0.11429814162E+04  0.11429814162E+04  0.00000000000E+00 0. -1.
          6    1    1    2  501    0 -0.45197704318E+02 -0.81802196517E+02 -0.52966949441E+03  0.56468416406E+03  0.17200000000E+03 0. -1.
         -6    1    1    2    0  503  0.45197704318E+02  0.81802196517E+02 -0.57972614749E+03  0.61188302634E+03  0.17200000000E+03 0. -1.
</event>
<event>
 4    1  0.5743594E+000  0.2243238E+03  0.7818608E-02  0.1130700E+00
         21   -1    0    0  501  502  0.00000000000E+00  0.00000000000E+00  0.29283669068E+02  0.29283669068E+02  0.00000000000E+00 0. -1.
         21   -1    0    0  502  503 -0.00000000000E+00 -0.00000000000E+00 -0.21789653857E+04  0.21789653857E+04  0.00000000000E+00 0. -1.
          6    1    1    2  501    0 -0.14305633559E+03 -0.16494047677E+02 -0.56722317958E+03  0.60996992074E+03  0.17200000000E+03 0. -1.
         -6    1    1    2    0  503  0.14305633559E+03  0.16494047677E+02 -0.15824585370E+04  0.15982791340E+04  0.17200000000E+03 0. -1.
</event>
<event>
 4    1  0.5743594E+000  0.1979775E+03  0.7818608E-02  0.1151457E+00
         21   -1    0    0  501  502  0.00000000000E+00  0.00000000000E+00  0.29603068381E+03  0.29603068381E+03  0.00000000000E+00 0.  1.
         21   -1    0    0  502  503 -0.00000000000E+00 -0.00000000000E+00 -0.13289812093E+03  0.13289812093E+03  0.00000000000E+00 0.  1.
          6    1    1    2  501    0 -0.95609835306E+02 -0.21676377861E+02  0.94667557851E+02  0.21944715189E+03  0.17200000000E+03 0.  1.
         -6    1    1    2    0  503  0.95609835306E+02  0.21676377861E+02  0.68465005030E+02  0.20948165284E+03  0.17200000000E+03 0.  1.
</event>
<event>
 4    1  0.5743594E+000  0.2774651E+03  0.7818608E-02  0.1097082E+00
         21   -1    0    0  503  502  0.00000000000E+00  0.00000000000E+00  0.12044986395E+03  0.12044986395E+03  0.00000000000E+00 0. -1.
         21   -1    0    0  501  503 -0.00000000000E+00 -0.00000000000E+00 -0.86955562817E+03  0.86955562817E+03  0.00000000000E+00 0. -1.
          6    1    1    2  501    0 -0.29186219634E+02  0.21575692407E+03 -0.62935020529E+03  0.68779980125E+03  0.17200000000E+03 0. -1.
         -6    1    1    2    0  502  0.29186219634E+02 -0.21575692407E+03 -0.11975555893E+03  0.30220569087E+03  0.17200000000E+03 0. -1.
</event>
<event>
 4    1  0.5743594E+000  0.2339363E+03  0.7818608E-02  0.1123899E+00
         21   -1    0    0  503  502  0.00000000000E+00  0.00000000000E+00  0.18993323402E+03  0.18993323402E+03  0.00000000000E+00 0.  1.
         21   -1    0    0  501  503 -0.00000000000E+00 -0.00000000000E+00 -0.37674198882E+03  0.37674198882E+03  0.00000000000E+00 0.  1.
          6    1    1    2  501    0 -0.10641259569E+03 -0.11755235190E+03 -0.23081458535E+03  0.32863592130E+03  0.17200000000E+03 0.  1.
         -6    1    1    2    0  502  0.10641259569E+03  0.11755235190E+03  0.44005830547E+02  0.23803930154E+03  0.17200000000E+03 0.  1.
</event>
<event>
 4    1  0.5743594E+000  0.1889941E+03  0.7818608E-02  0.1159372E+00
         21   -1    0    0  503  502  0.00000000000E+00  0.00000000000E+00  0.22818608660E+03  0.22818608660E+03  0.00000000000E+00 0.  1.
         21   -1    0    0  501  503 -0.00000000000E+00 -0.00000000000E+00 -0.15668568470E+03  0.15668568470E+03  0.00000000000E+00 0.  1.
          6    1    1    2  501    0  0.60091972962E+02  0.50236673196E+02  0.29753037643E+02  0.19132174941E+03  0.17200000000E+03 0.  1.
         -6    1    1    2    0  502 -0.60091972962E+02 -0.50236673196E+02  0.41747364257E+02  0.19355002188E+03  0.17200000000E+03 0.  1.
</event>
<event>
 4    1  0.5743594E+000  0.2002859E+03  0.7818608E-02  0.1149498E+00
         21   -1    0    0  503  502  0.00000000000E+00  0.00000000000E+00  0.20608733597E+03  0.20608733597E+03  0.00000000000E+00 0. -1.
         21   -1    0    0  501  503 -0.00000000000E+00 -0.00000000000E+00 -0.38812765494E+03  0.38812765494E+03  0.00000000000E+00 0. -1.
          6    1    1    2  501    0  0.97169169394E+02  0.32993622223E+02 -0.30079060449E+03  0.36137157378E+03  0.17200000000E+03 0. -1.
         -6    1    1    2    0  502 -0.97169169394E+02 -0.32993622223E+02  0.11875028552E+03  0.23284341713E+03  0.17200000000E+03 0. -1.
</event>
<event>
 4    1  0.5743594E+000  0.2177381E+03  0.7818608E-02  0.1135581E+00
         21   -1    0    0  503  502  0.00000000000E+00  0.00000000000E+00  0.22019274915E+03  0.22019274915E+03  0.00000000000E+00 0. -1.
         21   -1    0    0  501  503 -0.00000000000E+00 -0.00000000000E+00 -0.36426157372E+03  0.36426157372E+03  0.00000000000E+00 0.  1.
          6    1    1    2  501    0 -0.13351329562E+03 -0.31002876670E+00 -0.25890250547E+03  0.33829041306E+03  0.17200000000E+03 0.  1.
         -6    1    1    2    0  502  0.13351329562E+03  0.31002876670E+00  0.11483368091E+03  0.24616390982E+03  0.17200000000E+03 0. -1.
</event>
<event>
 4    1  0.5743594E+000  0.2883198E+03  0.7818608E-02  0.1091230E+00
         21   -1    0    0  501  502  0.00000000000E+00  0.00000000000E+00  0.83067640629E+02  0.83067640629E+02  0.00000000000E+00 0. -1.
         21   -1    0    0  502  503 -0.00000000000E+00 -0.00000000000E+00 -0.10029620720E+04  0.10029620720E+04  0.00000000000E+00 0. -1.
          6    1    1    2  501    0 -0.18816794325E+03  0.13467413192E+03 -0.48556278630E+03  0.56471188770E+03  0.17200000000E+03 0. -1.
         -6    1    1    2    0  503  0.18816794325E+03 -0.13467413192E+03 -0.43433164507E+03  0.52131782493E+03  0.17200000000E+03 0. -1.
</event>
<event>
 4    1  0.5743594E+000  0.3773330E+03  0.7818608E-02  0.1051924E+00
         21   -1    0    0  503  502  0.00000000000E+00  0.00000000000E+00  0.44782393057E+03  0.44782393057E+03  0.00000000000E+00 0. -1.
         21   -1    0    0  501  503 -0.00000000000E+00 -0.00000000000E+00 -0.31885006612E+03  0.31885006612E+03  0.00000000000E+00 0.  1.
          6    1    1    2  501    0 -0.32101171791E+03 -0.98730219502E+02  0.43983078459E+02  0.37988773404E+03  0.17200000000E+03 0.  1.
         -6    1    1    2    0  502  0.32101171791E+03  0.98730219502E+02  0.84990785988E+02  0.38678626266E+03  0.17200000000E+03 0. -1.
</event>
<event>
 4    1  0.5743594E+000  0.2244286E+03  0.7818608E-02  0.1130624E+00
         21   -1    0    0  501  502  0.00000000000E+00  0.00000000000E+00  0.69076839797E+02  0.69076839797E+02  0.00000000000E+00 0. -1.
         21   -1    0    0  502  503 -0.00000000000E+00 -0.00000000000E+00 -0.15740942030E+04  0.15740942030E+04  0.00000000000E+00 0.  1.
          6    1    1    2  501    0  0.14030131836E+03  0.33162232216E+02 -0.15057534342E+03  0.27026122109E+03  0.17200000000E+03 0. -1.
         -6    1    1    2    0  503 -0.14030131836E+03 -0.33162232216E+02 -0.13544420198E+04  0.13729098217E+04  0.17200000000E+03 0.  1.
</event>
<event>
 4    1  0.5743594E+000  0.1993685E+03  0.7818608E-02  0.1150273E+00
         21   -1    0    0  503  502  0.00000000000E+00  0.00000000000E+00  0.43908865941E+03  0.43908865941E+03  0.00000000000E+00 0.  1.
         21   -1    0    0  501  503 -0.00000000000E+00 -0.00000000000E+00 -0.38509490302E+03  0.38509490302E+03  0.00000000000E+00 0.  1.
          6    1    1    2  501    0 -0.60309221477E+02 -0.80787316026E+02 -0.33342026730E+03  0.38848020190E+03  0.17200000000E+03 0.  1.
         -6    1    1    2    0  502  0.60309221477E+02  0.80787316026E+02  0.38741402369E+03  0.43570336053E+03  0.17200000000E+03 0.  1.
</event>
<event>
 4    1  0.5743594E+000  0.2988947E+03  0.7818608E-02  0.1085794E+00
         21   -1    0    0  501  502  0.00000000000E+00  0.00000000000E+00  0.57928256701E+03  0.57928256701E+03  0.00000000000E+00 0. -1.
         21   -1    0    0  502  503 -0.00000000000E+00 -0.00000000000E+00 -0.15704744763E+03  0.15704744763E+03  0.00000000000E+00 0.  1.
          6    1    1    2  501    0 -0.20556999333E+03 -0.13226876329E+03  0.26050081774E+03  0.39648294281E+03  0.17200000000E+03 0. -1.
         -6    1    1    2    0  503  0.20556999333E+03  0.13226876329E+03  0.16173430164E+03  0.33984707182E+03  0.17200000000E+03 0.  1.
</event>
<event>
 4    1  0.5743594E+000  0.1728510E+03  0.7818608E-02  0.1174907E+00
         21   -1    0    0  501  502  0.00000000000E+00  0.00000000000E+00  0.10001982673E+03  0.10001982673E+03  0.00000000000E+00 0.  1.
         21   -1    0    0  502  503 -0.00000000000E+00 -0.00000000000E+00 -0.34322417383E+03  0.34322417383E+03  0.00000000000E+00 0.  1.
          6    1    1    2  501    0 -0.16545409311E+02  0.44394387114E+01 -0.20141026320E+03  0.26541204439E+03  0.17200000000E+03 0. -1.
         -6    1    1    2    0  503  0.16545409311E+02 -0.44394387114E+01 -0.41794083904E+02  0.17783195617E+03  0.17200000000E+03 0. -1.
</event>
<event>
 4    1  0.5743594E+000  0.1966619E+03  0.7818608E-02  0.1152586E+00
         21   -1    0    0  503  502  0.00000000000E+00  0.00000000000E+00  0.74910891159E+02  0.74910891159E+02  0.00000000000E+00 0. -1.
         21   -1    0    0  501  503 -0.00000000000E+00 -0.00000000000E+00 -0.51891220581E+03  0.51891220581E+03  0.00000000000E+00 0. -1.
          6    1    1    2  501    0 -0.94235402191E+02  0.14545783763E+02 -0.24309913554E+03  0.31268687301E+03  0.17200000000E+03 0.  1.
         -6    1    1    2    0  502  0.94235402191E+02 -0.14545783763E+02 -0.20090217911E+03  0.28113622396E+03  0.17200000000E+03 0.  1.
</event>
<event>
 4    1  0.5743594E+000  0.5079493E+03  0.7818608E-02  0.1011725E+00
         21   -1    0    0  501  502  0.00000000000E+00  0.00000000000E+00  0.22689998328E+03  0.22689998328E+03  0.00000000000E+00 0.  1.
         21   -1    0    0  502  503 -0.00000000000E+00 -0.00000000000E+00 -0.12825231759E+04  0.12825231759E+04  0.00000000000E+00 0. -1.
          6    1    1    2  501    0  0.44324249401E+03 -0.17878644339E+03 -0.78192958098E+03  0.93243035689E+03  0.17200000000E+03 0. -1.
         -6    1    1    2    0  503 -0.44324249401E+03  0.17878644339E+03 -0.27369361164E+03  0.57699280229E+03  0.17200000000E+03 0.  1.
</event>
<event>
 4    1  0.5743594E+000  0.1910204E+03  0.7818608E-02  0.1157544E+00
         21   -1    0    0  501  502  0.00000000000E+00  0.00000000000E+00  0.79797650793E+03  0.79797650793E+03  0.00000000000E+00 0. -1.
         21   -1    0    0  502  503 -0.00000000000E+00 -0.00000000000E+00 -0.10871333397E+03  0.10871333397E+03  0.00000000000E+00 0.  1.
          6    1    1    2  501    0 -0.46040078519E+01  0.82967484782E+02  0.68970514774E+03  0.71566891174E+03  0.17200000000E+03 0. -1.
         -6    1    1    2    0  503  0.46040078519E+01 -0.82967484782E+02 -0.44197377266E+00  0.19102093016E+03  0.17200000000E+03 0.  1.
</event>
<event>
 4    1  0.5743594E+000  0.1762112E+03  0.7818608E-02  0.1171521E+00
         21   -1    0    0  501  502  0.00000000000E+00  0.00000000000E+00  0.21309139901E+04  0.21309139901E+04  0.00000000000E+00 0.  1.
         21   -1    0    0  502  503 -0.00000000000E+00 -0.00000000000E+00 -0.15581275596E+02  0.15581275596E+02  0.00000000000E+00 0.  1.
          6    1    1    2  501    0 -0.19144431747E+01 -0.38245415803E+02  0.13309003406E+04  0.13425148392E+04  0.17200000000E+03 0.  1.
         -6    1    1    2    0  503  0.19144431747E+01  0.38245415803E+02  0.78443237391E+03  0.80398042648E+03  0.17200000000E+03 0.  1.
</event>
<event>
 4    1  0.5743594E+000  0.1802185E+03  0.7818608E-02  0.1167592E+00
         21   -1    0    0  503  502  0.00000000000E+00  0.00000000000E+00  0.22939599549E+03  0.22939599549E+03  0.00000000000E+00 0.  1.
         21   -1    0    0  501  503 -0.00000000000E+00 -0.00000000000E+00 -0.18725462517E+03  0.18725462517E+03  0.00000000000E+00 0.  1.
          6    1    1    2  501    0 -0.43593536916E+02  0.31532760359E+02  0.12395427965E+03  0.21873128464E+03  0.17200000000E+03 0.  1.
         -6    1    1    2    0  502  0.43593536916E+02 -0.31532760359E+02 -0.81812909327E+02  0.19791933602E+03  0.17200000000E+03 0.  1.
</event>
<event>
 4    1  0.5743594E+000  0.2509350E+03  0.7818608E-02  0.1112715E+00
         21   -1    0    0  501  502  0.00000000000E+00  0.00000000000E+00  0.44737273789E+02  0.44737273789E+02  0.00000000000E+00 0.  1.
         21   -1    0    0  502  503 -0.00000000000E+00 -0.00000000000E+00 -0.15012220882E+04  0.15012220882E+04  0.00000000000E+00 0.  1.
          6    1    1    2  501    0  0.11275712555E+03 -0.14377141376E+03 -0.92136432920E+03  0.95492440323E+03  0.17200000000E+03 0.  1.
         -6    1    1    2    0  503 -0.11275712555E+03  0.14377141376E+03 -0.53512048523E+03  0.59103495877E+03  0.17200000000E+03 0.  1.
</event>
<event>
 4    1  0.5743594E+000  0.1948745E+03  0.7818608E-02  0.1154137E+00
         21   -1    0    0  501  502  0.00000000000E+00  0.00000000000E+00  0.81104696056E+03  0.81104696056E+03  0.00000000000E+00 0. -1.
         21   -1    0    0  502  503 -0.00000000000E+00 -0.00000000000E+00 -0.47003904372E+02  0.47003904372E+02  0.00000000000E+00 0. -1.
          6    1    1    2  501    0  0.16567548877E+02 -0.90097751099E+02  0.35544529143E+03  0.40536088073E+03  0.17200000000E+03 0. -1.
         -6    1    1    2    0  503 -0.16567548877E+02  0.90097751099E+02  0.40859776475E+03  0.45268998419E+03  0.17200000000E+03 0. -1.
</event>
<event>
 4    1  0.5743594E+000  0.2570369E+03  0.7818608E-02  0.1108937E+00
         21   -1    0    0  501  502  0.00000000000E+00  0.00000000000E+00  0.44439192246E+03  0.44439192246E+03  0.00000000000E+00 0.  1.
         21   -1    0    0  502  503 -0.00000000000E+00 -0.00000000000E+00 -0.22768318674E+03  0.22768318674E+03  0.00000000000E+00 0. -1.
          6    1    1    2  501    0 -0.18579645515E+03 -0.44313320708E+02  0.30631124885E+03  0.39986819617E+03  0.17200000000E+03 0.  1.
         -6    1    1    2    0  503  0.18579645515E+03  0.44313320708E+02 -0.89602513130E+02  0.27220691302E+03  0.17200000000E+03 0. -1.
</event>
<event>
 4    1  0.5743594E+000  0.1857063E+03  0.7818608E-02  0.1162392E+00
         21   -1    0    0  501  502  0.00000000000E+00  0.00000000000E+00  0.13902677690E+04  0.13902677690E+04  0.00000000000E+00 0. -1.
         21   -1    0    0  502  503 -0.00000000000E+00 -0.00000000000E+00 -0.53998431033E+02  0.53998431033E+02  0.00000000000E+00 0. -1.
          6    1    1    2  501    0 -0.59485474422E+02  0.36936356738E+02  0.11990957658E+04  0.12133908982E+04  0.17200000000E+03 0. -1.
         -6    1    1    2    0  503  0.59485474422E+02 -0.36936356738E+02  0.13717357212E+03  0.23087530185E+03  0.17200000000E+03 0. -1.
</event>
<event>
 4    1  0.5743594E+000  0.2192184E+03  0.7818608E-02  0.1134467E+00
         21   -1    0    0  503  502  0.00000000000E+00  0.00000000000E+00  0.99721574244E+02  0.99721574244E+02  0.00000000000E+00 0.  1.
         21   -1    0    0  501  503 -0.00000000000E+00 -0.00000000000E+00 -0.48462788625E+03  0.48462788625E+03  0.00000000000E+00 0. -1.
          6    1    1    2  501    0 -0.10822847819E+03  0.82214988996E+02 -0.21433817645E+03  0.30659021803E+03  0.17200000000E+03 0.  1.
         -6    1    1    2    0  502  0.10822847819E+03 -0.82214988996E+02 -0.17056813556E+03  0.27775924247E+03  0.17200000000E+03 0. -1.
</event>
<event>
 4    1  0.5743594E+000  0.2594376E+03  0.7818608E-02  0.1107482E+00
         21   -1    0    0  503  502  0.00000000000E+00  0.00000000000E+00  0.54610006491E+03  0.54610006491E+03  0.00000000000E+00 0.  1.
         21   -1    0    0  501  503 -0.00000000000E+00 -0.00000000000E+00 -0.16212318069E+03  0.16212318069E+03  0.00000000000E+00 0. -1.
          6    1    1    2  501    0 -0.15883968705E+03  0.11177565689E+03  0.18595137330E+02  0.26010310031E+03  0.17200000000E+03 0. -1.
         -6    1    1    2    0  502  0.15883968705E+03 -0.11177565689E+03  0.36538174689E+03  0.44812014529E+03  0.17200000000E+03 0.  1.
</event>
<event>
 4    1  0.5743594E+000  0.2205301E+03  0.7818608E-02  0.1133488E+00
         21   -1    0    0  501  502  0.00000000000E+00  0.00000000000E+00  0.90107881189E+03  0.90107881189E+03  0.00000000000E+00 0.  1.
         21   -1    0    0  502  503 -0.00000000000E+00 -0.00000000000E+00 -0.54998687800E+02  0.54998687800E+02  0.00000000000E+00 0.  1.
          6    1    1    2  501    0  0.12295177146E+03  0.62708656601E+02  0.48833680893E+03  0.53582306097E+03  0.17200000000E+03 0. -1.
         -6    1    1    2    0  503 -0.12295177146E+03 -0.62708656601E+02  0.35774331517E+03  0.42025443872E+03  0.17200000000E+03 0. -1.
</event>
<event>
 4    1  0.5743594E+000  0.1913758E+03  0.7818608E-02  0.1157226E+00
         21   -1    0    0  501  502  0.00000000000E+00  0.00000000000E+00  0.23569166711E+03  0.23569166711E+03  0.00000000000E+00 0.  1.
         21   -1    0    0  502  503 -0.00000000000E+00 -0.00000000000E+00 -0.15570478209E+03  0.15570478209E+03  0.00000000000E+00 0.  1.
          6    1    1    2  501    0  0.73646664130E+02 -0.40210488503E+02  0.31229129538E+02  0.19390712482E+03  0.17200000000E+03 0.  1.
         -6    1    1    2    0  503 -0.73646664130E+02  0.40210488503E+02  0.48757755483E+02  0.19748932438E+03  0.17200000000E+03 0.  1.
</event>
<event>
 4    1  0.5743594E+000  0.2643813E+03  0.7818608E-02  0.1104539E+00
         21   -1    0    0  501  502  0.00000000000E+00  0.00000000000E+00  0.18462319496E+03  0.18462319496E+03  0.00000000000E+00 0.  1.
         21   -1    0    0  502  503 -0.00000000000E+00 -0.00000000000E+00 -0.96737610059E+03  0.96737610059E+03  0.00000000000E+00 0. -1.
          6    1    1    2  501    0 -0.19121530442E+03 -0.61238681392E+02  0.57990748943E+02  0.27066657663E+03  0.17200000000E+03 0.  1.
         -6    1    1    2    0  503  0.19121530442E+03  0.61238681392E+02 -0.84074365457E+03  0.88133271892E+03  0.17200000000E+03 0. -1.
</event>
<event>
 4    1  0.5743594E+000  0.1724429E+03  0.7818608E-02  0.1175324E+00
         21   -1    0    0  503  502  0.00000000000E+00  0.00000000000E+00  0.36574129363E+03  0.36574129363E+03  0.00000000000E+00 0.  1.
         21   -1    0    0  501  503 -0.00000000000E+00 -0.00000000000E+00 -0.89171570648E+02  0.89171570648E+02  0.00000000000E+00 0.  1.
          6    1    1    2  501    0 -0.51373364078E+01  0.11232673972E+02  0.70726352796E+02  0.18638342783E+03  0.17200000000E+03 0. -1.
         -6    1    1    2    0  502  0.51373364078E+01 -0.11232673972E+02  0.20584337019E+03  0.26852943645E+03  0.17200000000E+03 0. -1.
</event>
<event>
 4    1  0.5743594E+000  0.2007396E+03  0.7818608E-02  0.1149117E+00
         21   -1    0    0  501  502  0.00000000000E+00  0.00000000000E+00  0.51994282948E+02  0.51994282948E+02  0.00000000000E+00 0. -1.
         21   -1    0    0  502  503 -0.00000000000E+00 -0.00000000000E+00 -0.11223609267E+04  0.11223609267E+04  0.00000000000E+00 0.  1.
          6    1    1    2  501    0 -0.70501740377E+02 -0.75775242133E+02 -0.20853237929E+03  0.28945143967E+03  0.17200000000E+03 0. -1.
         -6    1    1    2    0  503  0.70501740377E+02  0.75775242133E+02 -0.86183426446E+03  0.88490376997E+03  0.17200000000E+03 0.  1.
</event>
<event>
 4    1  0.5743594E+000  0.1832350E+03  0.7818608E-02  0.1164708E+00
         21   -1    0    0  503  502  0.00000000000E+00  0.00000000000E+00  0.90430165432E+03  0.90430165432E+03  0.00000000000E+00 0. -1.
         21   -1    0    0  501  503 -0.00000000000E+00 -0.00000000000E+00 -0.42839477809E+02  0.42839477809E+02  0.00000000000E+00 0. -1.
          6    1    1    2  501    0 -0.51077071223E+02  0.37177933596E+02  0.25781699791E+03  0.31629838818E+03  0.17200000000E+03 0. -1.
         -6    1    1    2    0  502  0.51077071223E+02 -0.37177933596E+02  0.60364517860E+03  0.63084274395E+03  0.17200000000E+03 0. -1.
</event>
<event>
 4    1  0.5743594E+000  0.2045372E+03  0.7818608E-02  0.1145966E+00
         21   -1    0    0  501  502  0.00000000000E+00  0.00000000000E+00  0.12970617448E+03  0.12970617448E+03  0.00000000000E+00 0.  1.
         21   -1    0    0  502  503 -0.00000000000E+00 -0.00000000000E+00 -0.48780838670E+03  0.48780838670E+03  0.00000000000E+00 0.  1.
          6    1    1    2  501    0  0.97321127904E+02 -0.52726232353E+02  0.66507691167E+00  0.20453826009E+03  0.17200000000E+03 0.  1.
         -6    1    1    2    0  503 -0.97321127904E+02  0.52726232353E+02 -0.35876728913E+03  0.41297630109E+03  0.17200000000E+03 0.  1.
</event>
<event>
 4    1  0.5743594E+000  0.2928082E+03  0.7818608E-02  0.1088892E+00
         21   -1    0    0  501  502  0.00000000000E+00  0.00000000000E+00  0.27987942942E+03  0.27987942942E+03  0.00000000000E+00 0. -1.
         21   -1    0    0  502  503 -0.00000000000E+00 -0.00000000000E+00 -0.30846096140E+03  0.30846096140E+03  0.00000000000E+00 0. -1.
          6    1    1    2  501    0  0.21421114440E+03 -0.10132239302E+03 -0.38717068380E+02  0.29535682335E+03  0.17200000000E+03 0. -1.
         -6    1    1    2    0  503 -0.21421114440E+03  0.10132239302E+03  0.10135536408E+02  0.29298356748E+03  0.17200000000E+03 0. -1.
</event>
<event>
 4    1  0.5743594E+000  0.2106432E+03  0.7818608E-02  0.1141058E+00
         21   -1    0    0  501  502  0.00000000000E+00  0.00000000000E+00  0.46034876934E+02  0.46034876934E+02  0.00000000000E+00 0.  1.
         21   -1    0    0  502  503 -0.00000000000E+00 -0.00000000000E+00 -0.22729610699E+04  0.22729610699E+04  0.00000000000E+00 0.  1.
          6    1    1    2  501    0 -0.11188858326E+03 -0.47618358745E+02 -0.23350337402E+03  0.31447478250E+03  0.17200000000E+03 0.  1.
         -6    1    1    2    0  503  0.11188858326E+03  0.47618358745E+02 -0.19934228190E+04  0.20045211643E+04  0.17200000000E+03 0.  1.
</event>
<event>
 4    1  0.5743594E+000  0.2278675E+03  0.7818608E-02  0.1128150E+00
         21   -1    0    0  503  502  0.00000000000E+00  0.00000000000E+00  0.46388496685E+03  0.46388496685E+03  0.00000000000E+00 0. -1.
         21   -1    0    0  501  503 -0.00000000000E+00 -0.00000000000E+00 -0.11203439909E+03  0.11203439909E+03  0.00000000000E+00 0.  1.
          6    1    1    2  501    0 -0.94646991926E+02 -0.11567856386E+03  0.18462997271E+03  0.29327770123E+03  0.17200000000E+03 0. -1.
         -6    1    1    2    0  502  0.94646991926E+02  0.11567856386E+03  0.16722059505E+03  0.28264166471E+03  0.17200000000E+03 0.  1.
</event>
<event>
 4    1  0.5743594E+000  0.1935630E+03  0.7818608E-02  0.1155286E+00
         21   -1    0    0  503  502  0.00000000000E+00  0.00000000000E+00  0.62757522696E+03  0.62757522696E+03  0.00000000000E+00 0. -1.
         21   -1    0    0  501  503 -0.00000000000E+00 -0.00000000000E+00 -0.33804741601E+03  0.33804741601E+03  0.00000000000E+00 0.  1.
          6    1    1    2  501    0  0.67317378575E+02 -0.57887824732E+02 -0.29334466477E+03  0.35145088143E+03  0.17200000000E+03 0.  1.
         -6    1    1    2    0  502 -0.67317378575E+02  0.57887824732E+02  0.58287247573E+03  0.61417176154E+03  0.17200000000E+03 0. -1.
</event>
<event>
 4    1  0.5743594E+000  0.2262421E+03  0.7818608E-02  0.1129313E+00
         21   -1    0    0  503  502  0.00000000000E+00  0.00000000000E+00  0.11614516918E+03  0.11614516918E+03  0.00000000000E+00 0.  1.
         21   -1    0    0  501  503 -0.00000000000E+00 -0.00000000000E+00 -0.46975812972E+03  0.46975812972E+03  0.00000000000E+00 0.  1.
          6    1    1    2  501    0 -0.39757675036E+02 -0.14149486385E+03 -0.10394906478E+03  0.24897967244E+03  0.17200000000E+03 0.  1.
         -6    1    1    2    0  502  0.39757675036E+02  0.14149486385E+03 -0.24966389576E+03  0.33692362646E+03  0.17200000000E+03 0.  1.
</event>
<event>
 4    1  0.5743594E+000  0.1942785E+03  0.7818608E-02  0.1154658E+00
         21   -1    0    0  503  502  0.00000000000E+00  0.00000000000E+00  0.17689167145E+03  0.17689167145E+03  0.00000000000E+00 0.  1.
         21   -1    0    0  501  503 -0.00000000000E+00 -0.00000000000E+00 -0.27459939586E+03  0.27459939586E+03  0.00000000000E+00 0.  1.
          6    1    1    2  501    0  0.36788871965E+02  0.82502881249E+02 -0.15544814588E+03  0.24881373068E+03  0.17200000000E+03 0.  1.
         -6    1    1    2    0  502 -0.36788871965E+02 -0.82502881249E+02  0.57740421476E+02  0.20267733664E+03  0.17200000000E+03 0.  1.
</event>
<event>
 4    1  0.5743594E+000  0.1980177E+03  0.7818608E-02  0.1151422E+00
         21   -1    0    0  503  502  0.00000000000E+00  0.00000000000E+00  0.12013728130E+04  0.12013728130E+04  0.00000000000E+00 0. -1.
         21   -1    0    0  501  503 -0.00000000000E+00 -0.00000000000E+00 -0.32638489172E+02  0.32638489172E+02  0.00000000000E+00 0.  1.
          6    1    1    2  501    0  0.69109798121E+02  0.69647875877E+02  0.58453022170E+03  0.61716008531E+03  0.17200000000E+03 0.  1.
         -6    1    1    2    0  502 -0.69109798121E+02 -0.69647875877E+02  0.58420410215E+03  0.61685121689E+03  0.17200000000E+03 0. -1.
</event>
<event>
 4    1  0.5743594E+000  0.1961892E+03  0.7818608E-02  0.1152995E+00
         21   -1    0    0  501  502  0.00000000000E+00  0.00000000000E+00  0.24311764332E+03  0.24311764332E+03  0.00000000000E+00 0.  1.
         21   -1    0    0  502  503 -0.00000000000E+00 -0.00000000000E+00 -0.15846262658E+03  0.15846262658E+03  0.00000000000E+00 0.  1.
          6    1    1    2  501    0 -0.61133064360E+02 -0.71895390550E+02  0.36287406173E+02  0.19951685289E+03  0.17200000000E+03 0.  1.
         -6    1    1    2    0  503  0.61133064360E+02  0.71895390550E+02  0.48367610567E+02  0.20206341701E+03  0.17200000000E+03 0.  1.
</event>
<event>
 4    1  0.5743594E+000  0.2065250E+03  0.7818608E-02  0.1144348E+00
         21   -1    0    0  501  502  0.00000000000E+00  0.00000000000E+00  0.34367635230E+02  0.34367635230E+02  0.00000000000E+00 0. -1.
         21   -1    0    0  502  503 -0.00000000000E+00 -0.00000000000E+00 -0.13467704695E+04  0.13467704695E+04  0.00000000000E+00 0. -1.
          6    1    1    2  501    0  0.10747483126E+03 -0.38958240547E+02 -0.46273651139E+03  0.50673233846E+03  0.17200000000E+03 0. -1.
         -6    1    1    2    0  503 -0.10747483126E+03  0.38958240547E+02 -0.84966632284E+03  0.87440576624E+03  0.17200000000E+03 0. -1.
</event>
<event>
 4    1  0.5743594E+000  0.1834151E+03  0.7818608E-02  0.1164538E+00
         21   -1    0    0  503  502  0.00000000000E+00  0.00000000000E+00  0.11966704008E+04  0.11966704008E+04  0.00000000000E+00 0.  1.
         21   -1    0    0  501  503 -0.00000000000E+00 -0.00000000000E+00 -0.31718354516E+02  0.31718354516E+02  0.00000000000E+00 0.  1.
          6    1    1    2  501    0 -0.25423914033E+01  0.63644646426E+02  0.78957087352E+03  0.81059439246E+03  0.17200000000E+03 0.  1.
         -6    1    1    2    0  502  0.25423914033E+01 -0.63644646426E+02  0.37538117279E+03  0.41779436289E+03  0.17200000000E+03 0.  1.
</event>
<event>
 4    1  0.5743594E+000  0.2211515E+03  0.7818608E-02  0.1133027E+00
         21   -1    0    0  503  502  0.00000000000E+00  0.00000000000E+00  0.12856904985E+04  0.12856904985E+04  0.00000000000E+00 0. -1.
         21   -1    0    0  501  503 -0.00000000000E+00 -0.00000000000E+00 -0.44773014858E+02  0.44773014858E+02  0.00000000000E+00 0. -1.
          6    1    1    2  501    0 -0.13558234114E+03  0.30682815832E+02  0.36249357624E+03  0.42462877815E+03  0.17200000000E+03 0. -1.
         -6    1    1    2    0  502  0.13558234114E+03 -0.30682815832E+02  0.87842390741E+03  0.90583473522E+03  0.17200000000E+03 0. -1.
</event>
<event>
 4    1  0.5743594E+000  0.1810872E+03  0.7818608E-02  0.1166755E+00
         21   -1    0    0  501  502  0.00000000000E+00  0.00000000000E+00  0.40807458536E+02  0.40807458536E+02  0.00000000000E+00 0. -1.
         21   -1    0    0  502  503 -0.00000000000E+00 -0.00000000000E+00 -0.92246397302E+03  0.92246397302E+03  0.00000000000E+00 0.  1.
          6    1    1    2  501    0 -0.48907049338E+02 -0.28577498874E+02 -0.26793320588E+03  0.32338951085E+03  0.17200000000E+03 0.  1.
         -6    1    1    2    0  503  0.48907049338E+02  0.28577498874E+02 -0.61372330861E+03  0.63988192070E+03  0.17200000000E+03 0.  1.
</event>
<event>
 4    1  0.5743594E+000  0.2007278E+03  0.7818608E-02  0.1149126E+00
         21   -1    0    0  501  502  0.00000000000E+00  0.00000000000E+00  0.14808670308E+04  0.14808670308E+04  0.00000000000E+00 0. -1.
         21   -1    0    0  502  503 -0.00000000000E+00 -0.00000000000E+00 -0.73323931492E+02  0.73323931492E+02  0.00000000000E+00 0.  1.
          6    1    1    2  501    0  0.88160805470E+02  0.54178559004E+02  0.13200490682E+04  0.13352232721E+04  0.17200000000E+03 0. -1.
         -6    1    1    2    0  503 -0.88160805470E+02 -0.54178559004E+02  0.87494031124E+02  0.21896769022E+03  0.17200000000E+03 0.  1.
</event>
<event>
 4    1  0.5743594E+000  0.2522131E+03  0.7818608E-02  0.1111914E+00
         21   -1    0    0  501  502  0.00000000000E+00  0.00000000000E+00  0.20570948519E+03  0.20570948519E+03  0.00000000000E+00 0. -1.
         21   -1    0    0  502  503 -0.00000000000E+00 -0.00000000000E+00 -0.44786776458E+03  0.44786776458E+03  0.00000000000E+00 0. -1.
          6    1    1    2  501    0 -0.16190973859E+03 -0.88389465607E+02  0.60737419234E+02  0.25942338980E+03  0.17200000000E+03 0. -1.
         -6    1    1    2    0  503  0.16190973859E+03  0.88389465607E+02 -0.30289569863E+03  0.39415385997E+03  0.17200000000E+03 0. -1.
</event>
<event>
 4    1  0.5743594E+000  0.2214032E+03  0.7818608E-02  0.1132841E+00
         21   -1    0    0  501  502  0.00000000000E+00  0.00000000000E+00  0.80204694839E+02  0.80204694839E+02  0.00000000000E+00 0. -1.
         21   -1    0    0  502  503 -0.00000000000E+00 -0.00000000000E+00 -0.10369019355E+04  0.10369019355E+04  0.00000000000E+00 0. -1.
          6    1    1    2  501    0 -0.93778206693E+02 -0.10315543012E+03 -0.83624681563E+03  0.86505961151E+03  0.17200000000E+03 0. -1.
         -6    1    1    2    0  503  0.93778206693E+02  0.10315543012E+03 -0.12045042504E+03  0.25204701884E+03  0.17200000000E+03 0. -1.
</event>
<event>
 4    1  0.5743594E+000  0.3785979E+03  0.7818608E-02  0.1051453E+00
         21   -1    0    0  501  502  0.00000000000E+00  0.00000000000E+00  0.26392453522E+03  0.26392453522E+03  0.00000000000E+00 0. -1.
         21   -1    0    0  502  503 -0.00000000000E+00 -0.00000000000E+00 -0.59518354847E+03  0.59518354847E+03  0.00000000000E+00 0.  1.
          6    1    1    2  501    0 -0.32673765097E+03 -0.83635356673E+02 -0.38554771362E+02  0.38055595625E+03  0.17200000000E+03 0.  1.
         -6    1    1    2    0  503  0.32673765097E+03  0.83635356673E+02 -0.29270424189E+03  0.47855212743E+03  0.17200000000E+03 0.  1.
</event>
<event>
 4    1  0.5743594E+000  0.2458900E+03  0.7818608E-02  0.1115930E+00
         21   -1    0    0  503  502  0.00000000000E+00  0.00000000000E+00  0.15390963293E+03  0.15390963293E+03  0.00000000000E+00 0. -1.
         21   -1    0    0  501  503 -0.00000000000E+00 -0.00000000000E+00 -0.43141873025E+03  0.43141873025E+03  0.00000000000E+00 0.  1.
          6    1    1    2  501    0 -0.87507979166E+02 -0.15238195869E+03 -0.51237573042E+02  0.25117164777E+03  0.17200000000E+03 0. -1.
         -6    1    1    2    0  502  0.87507979166E+02  0.15238195869E+03 -0.22627152428E+03  0.33415671541E+03  0.17200000000E+03 0.  1.
</event>
<event>
 4    1  0.5743594E+000  0.2220658E+03  0.7818608E-02  0.1132352E+00
         21   -1    0    0  503  502  0.00000000000E+00  0.00000000000E+00  0.18573479860E+02  0.18573479860E+02  0.00000000000E+00 0.  1.
         21   -1    0    0  501  503 -0.00000000000E+00 -0.00000000000E+00 -0.26635004590E+04  0.26635004590E+04  0.00000000000E+00 0. -1.
          6    1    1    2  501    0  0.14046068036E+03 -0.58526195168E-01 -0.12468524666E+04  0.12664731658E+04  0.17200000000E+03 0.  1.
         -6    1    1    2    0  502 -0.14046068036E+03  0.58526195168E-01 -0.13980745125E+04  0.14156007730E+04  0.17200000000E+03 0. -1.
</event>
<event>
 4    1  0.5743594E+000  0.1803999E+03  0.7818608E-02  0.1167417E+00
         21   -1    0    0  503  502  0.00000000000E+00  0.00000000000E+00  0.25603260141E+04  0.25603260141E+04  0.00000000000E+00 0.  1.
         21   -1    0    0  501  503 -0.00000000000E+00 -0.00000000000E+00 -0.14168529609E+02  0.14168529609E+02  0.00000000000E+00 0.  1.
          6    1    1    2  501    0 -0.38117142803E+02  0.38822761116E+02  0.86020354772E+03  0.87891653009E+03  0.17200000000E+03 0.  1.
         -6    1    1    2    0  502  0.38117142803E+02 -0.38822761116E+02  0.16859539367E+04  0.16955780136E+04  0.17200000000E+03 0.  1.
</event>
<event>
 4    1  0.5743594E+000  0.2157436E+03  0.7818608E-02  0.1137097E+00
         21   -1    0    0  503  502  0.00000000000E+00  0.00000000000E+00  0.13931951747E+04  0.13931951747E+04  0.00000000000E+00 0. -1.
         21   -1    0    0  501  503 -0.00000000000E+00 -0.00000000000E+00 -0.38778800090E+02  0.38778800090E+02  0.00000000000E+00 0. -1.
          6    1    1    2  501    0 -0.11943278741E+03  0.51933833806E+02  0.41077680790E+03  0.46398588310E+03  0.17200000000E+03 0. -1.
         -6    1    1    2    0  502  0.11943278741E+03 -0.51933833806E+02  0.94363956670E+03  0.96798809168E+03  0.17200000000E+03 0. -1.
</event>
<event>
 4    1  0.5743594E+000  0.1849772E+03  0.7818608E-02  0.1163071E+00
         21   -1    0    0  501  502  0.00000000000E+00  0.00000000000E+00  0.12653739973E+03  0.12653739973E+03  0.00000000000E+00 0. -1.
         21   -1    0    0  502  503 -0.00000000000E+00 -0.00000000000E+00 -0.70837673520E+03  0.70837673520E+03  0.00000000000E+00 0. -1.
          6    1    1    2  501    0 -0.41818462302E+02 -0.53701002297E+02  0.37328107323E+02  0.18870603868E+03  0.17200000000E+03 0. -1.
         -6    1    1    2    0  503  0.41818462302E+02  0.53701002297E+02 -0.61916744280E+03  0.64620809625E+03  0.17200000000E+03 0. -1.
</event>
<event>
 4    1  0.5743594E+000  0.2020291E+03  0.7818608E-02  0.1148038E+00
         21   -1    0    0  501  502  0.00000000000E+00  0.00000000000E+00  0.25466876087E+02  0.25466876087E+02  0.00000000000E+00 0. -1.
         21   -1    0    0  502  503 -0.00000000000E+00 -0.00000000000E+00 -0.18009690784E+04  0.18009690784E+04  0.00000000000E+00 0. -1.
          6    1    1    2  501    0 -0.38078561082E+02  0.98902903788E+02 -0.58474674939E+03  0.61866349667E+03  0.17200000000E+03 0. -1.
         -6    1    1    2    0  503  0.38078561082E+02 -0.98902903788E+02 -0.11907554530E+04  0.12077724579E+04  0.17200000000E+03 0. -1.
</event>
<event>
 4    1  0.5743594E+000  0.2336258E+03  0.7818608E-02  0.1124114E+00
         21   -1    0    0  501  502  0.00000000000E+00  0.00000000000E+00  0.58475540100E+03  0.58475540100E+03  0.00000000000E+00 0. -1.
         21   -1    0    0  502  503 -0.00000000000E+00 -0.00000000000E+00 -0.25241335959E+03  0.25241335959E+03  0.00000000000E+00 0.  1.
          6    1    1    2  501    0 -0.32261428725E+02  0.15477788019E+03  0.49846751270E+03  0.55050054786E+03  0.17200000000E+03 0. -1.
         -6    1    1    2    0  503  0.32261428725E+02 -0.15477788019E+03 -0.16612547129E+03  0.28666821273E+03  0.17200000000E+03 0.  1.
</event>
<event>
 4    1  0.5743594E+000  0.2431530E+03  0.7818608E-02  0.1117710E+00
         21   -1    0    0  503  502  0.00000000000E+00  0.00000000000E+00  0.20351524871E+04  0.20351524871E+04  0.00000000000E+00 0.  1.
         21   -1    0    0  501  503 -0.00000000000E+00 -0.00000000000E+00 -0.41273222370E+02  0.41273222370E+02  0.00000000000E+00 0.  1.
          6    1    1    2  501    0  0.58231207628E+02 -0.16170504597E+03  0.43196918969E+03  0.49570230610E+03  0.17200000000E+03 0. -1.
         -6    1    1    2    0  502 -0.58231207628E+02  0.16170504597E+03  0.15619100750E+04  0.15807234034E+04  0.17200000000E+03 0. -1.
</event>
<event>
 4    1  0.5743594E+000  0.1744696E+03  0.7818608E-02  0.1173265E+00
         21   -1    0    0  501  502  0.00000000000E+00  0.00000000000E+00  0.13110548539E+04  0.13110548539E+04  0.00000000000E+00 0.  1.
         21   -1    0    0  502  503 -0.00000000000E+00 -0.00000000000E+00 -0.67824964179E+02  0.67824964179E+02  0.00000000000E+00 0.  1.
          6    1    1    2  501    0  0.28300516989E+02 -0.73963657672E+01  0.11807344242E+04  0.11935549447E+04  0.17200000000E+03 0.  1.
         -6    1    1    2    0  503 -0.28300516989E+02  0.73963657672E+01  0.62495465520E+02  0.18532487340E+03  0.17200000000E+03 0.  1.
</event>
<event>
 4    1  0.5743594E+000  0.1839864E+03  0.7818608E-02  0.1164000E+00
         21   -1    0    0  501  502  0.00000000000E+00  0.00000000000E+00  0.87803099498E+02  0.87803099498E+02  0.00000000000E+00 0.  1.
         21   -1    0    0  502  503 -0.00000000000E+00 -0.00000000000E+00 -0.59276020415E+03  0.59276020415E+03  0.00000000000E+00 0.  1.
          6    1    1    2  501    0 -0.63399620836E+02  0.15731718699E+02 -0.51281173411E+02  0.19099936555E+03  0.17200000000E+03 0.  1.
         -6    1    1    2    0  503  0.63399620836E+02 -0.15731718699E+02 -0.45367593124E+03  0.48956393810E+03  0.17200000000E+03 0.  1.
</event>
<event>
 4    1  0.5743594E+000  0.2715816E+03  0.7818608E-02  0.1100378E+00
         21   -1    0    0  501  502  0.00000000000E+00  0.00000000000E+00  0.60280794975E+03  0.60280794975E+03  0.00000000000E+00 0. -1.
         21   -1    0    0  502  503 -0.00000000000E+00 -0.00000000000E+00 -0.12549254770E+03  0.12549254770E+03  0.00000000000E+00 0.  1.
          6    1    1    2  501    0  0.32452723864E+02 -0.20765205746E+03  0.29623721700E+03  0.40188685595E+03  0.17200000000E+03 0.  1.
         -6    1    1    2    0  503 -0.32452723864E+02  0.20765205746E+03  0.18107818505E+03  0.32641364150E+03  0.17200000000E+03 0. -1.
</event>
<event>
 4    1  0.5743594E+000  0.1853188E+03  0.7818608E-02  0.1162752E+00
         21   -1    0    0  503  502  0.00000000000E+00  0.00000000000E+00  0.77361043166E+02  0.77361043166E+02  0.00000000000E+00 0. -1.
         21   -1    0    0  501  503 -0.00000000000E+00 -0.00000000000E+00 -0.47009925534E+03  0.47009925534E+03  0.00000000000E+00 0. -1.
          6    1    1    2  501    0  0.68529185149E+02  0.79257878869E+01 -0.26095003500E+03  0.32005935090E+03  0.17200000000E+03 0. -1.
         -6    1    1    2    0  502 -0.68529185149E+02 -0.79257878869E+01 -0.13178817718E+03  0.22740094761E+03  0.17200000000E+03 0. -1.
</event>
<event>
 4    1  0.5743594E+000  0.1884277E+03  0.7818608E-02  0.1159887E+00
         21   -1    0    0  501  502  0.00000000000E+00  0.00000000000E+00  0.11064511769E+03  0.11064511769E+03  0.00000000000E+00 0. -1.
         21   -1    0    0  502  503 -0.00000000000E+00 -0.00000000000E+00 -0.58147796241E+03  0.58147796241E+03  0.00000000000E+00 0. -1.
          6    1    1    2  501    0  0.67288054852E+02  0.37327168228E+02 -0.37499324586E+01  0.18846501481E+03  0.17200000000E+03 0. -1.
         -6    1    1    2    0  503 -0.67288054852E+02 -0.37327168228E+02 -0.46708291226E+03  0.50365806530E+03  0.17200000000E+03 0. -1.
</event>
<event>
 4    1  0.5743594E+000  0.2002083E+03  0.7818608E-02  0.1149563E+00
         21   -1    0    0  501  502  0.00000000000E+00  0.00000000000E+00  0.14989906518E+03  0.14989906518E+03  0.00000000000E+00 0. -1.
         21   -1    0    0  502  503 -0.00000000000E+00 -0.00000000000E+00 -0.26837525470E+03  0.26837525470E+03  0.00000000000E+00 0.  1.
          6    1    1    2  501    0  0.10013734816E+03 -0.21722307002E+02 -0.46645427895E+02  0.20557028740E+03  0.17200000000E+03 0. -1.
         -6    1    1    2    0  503 -0.10013734816E+03  0.21722307002E+02 -0.71830761622E+02  0.21270403248E+03  0.17200000000E+03 0. -1.
</event>
<event>
 4    1  0.5743594E+000  0.2684359E+03  0.7818608E-02  0.1102178E+00
         21   -1    0    0  503  502  0.00000000000E+00  0.00000000000E+00  0.69300807586E+02  0.69300807586E+02  0.00000000000E+00 0. -1.
         21   -1    0    0  501  503 -0.00000000000E+00 -0.00000000000E+00 -0.15187436508E+04  0.15187436508E+04  0.00000000000E+00 0.  1.
          6    1    1    2  501    0 -0.16334341766E+03 -0.12566923399E+03 -0.11706241865E+04  0.12010074165E+04  0.17200000000E+03 0.  1.
         -6    1    1    2    0  502  0.16334341766E+03  0.12566923399E+03 -0.27881865673E+03  0.38703704190E+03  0.17200000000E+03 0. -1.
</event>
<event>
 4    1  0.5743594E+000  0.1892764E+03  0.7818608E-02  0.1159116E+00
         21   -1    0    0  501  502  0.00000000000E+00  0.00000000000E+00  0.32483036816E+03  0.32483036816E+03  0.00000000000E+00 0.  1.
         21   -1    0    0  502  503 -0.00000000000E+00 -0.00000000000E+00 -0.11045064456E+03  0.11045064456E+03  0.00000000000E+00 0. -1.
          6    1    1    2  501    0  0.31482520511E+02 -0.72459606850E+02  0.11548987066E+03  0.22172833366E+03  0.17200000000E+03 0.  1.
         -6    1    1    2    0  503 -0.31482520511E+02  0.72459606850E+02  0.98889852944E+02  0.21355267907E+03  0.17200000000E+03 0. -1.
</event>
<event>
 4    1  0.5743594E+000  0.2069013E+03  0.7818608E-02  0.1144044E+00
         21   -1    0    0  501  502  0.00000000000E+00  0.00000000000E+00  0.18428845216E+03  0.18428845216E+03  0.00000000000E+00 0. -1.
         21   -1    0    0  502  503 -0.00000000000E+00 -0.00000000000E+00 -0.24308814374E+03  0.24308814374E+03  0.00000000000E+00 0. -1.
          6    1    1    2  501    0 -0.51287407941E+02  0.10292603114E+03  0.15639809456E+02  0.20749161366E+03  0.17200000000E+03 0.  1.
         -6    1    1    2    0  503  0.51287407941E+02 -0.10292603114E+03 -0.74439501035E+02  0.21988498224E+03  0.17200000000E+03 0.  1.
</event>
<event>
 4    1  0.5743594E+000  0.2060985E+03  0.7818608E-02  0.1144693E+00
         21   -1    0    0  503  502  0.00000000000E+00  0.00000000000E+00  0.20334694138E+03  0.20334694138E+03  0.00000000000E+00 0.  1.
         21   -1    0    0  501  503 -0.00000000000E+00 -0.00000000000E+00 -0.22154790552E+03  0.22154790552E+03  0.00000000000E+00 0.  1.
          6    1    1    2  501    0  0.10977497079E+03 -0.29018338676E+02 -0.59886439884E+02  0.21462291087E+03  0.17200000000E+03 0.  1.
         -6    1    1    2    0  502 -0.10977497079E+03  0.29018338676E+02  0.41685475745E+02  0.21027193602E+03  0.17200000000E+03 0.  1.
</event>
<event>
 4    1  0.5743594E+000  0.2816521E+03  0.7818608E-02  0.1094790E+00
         21   -1    0    0  501  502  0.00000000000E+00  0.00000000000E+00  0.10728097124E+04  0.10728097124E+04  0.00000000000E+00 0. -1.
         21   -1    0    0  502  503 -0.00000000000E+00 -0.00000000000E+00 -0.77600871538E+02  0.77600871538E+02  0.00000000000E+00 0. -1.
          6    1    1    2  501    0 -0.23817184583E+02  0.22175809426E+03  0.62246938296E+03  0.68322473856E+03  0.17200000000E+03 0. -1.
         -6    1    1    2    0  503  0.23817184583E+02 -0.22175809426E+03  0.37273945792E+03  0.46718584540E+03  0.17200000000E+03 0. -1.
</event>
<event>
 4    1  0.5743594E+000  0.2583438E+03  0.7818608E-02  0.1108142E+00
         21   -1    0    0  503  502  0.00000000000E+00  0.00000000000E+00  0.22149906511E+04  0.22149906511E+04  0.00000000000E+00 0.  1.
         21   -1    0    0  501  503 -0.00000000000E+00 -0.00000000000E+00 -0.48706452919E+02  0.48706452919E+02  0.00000000000E+00 0. -1.
          6    1    1    2  501    0 -0.24588152885E+02 -0.19118817677E+03  0.38417575985E+03  0.46296059298E+03  0.17200000000E+03 0. -1.
         -6    1    1    2    0  502  0.24588152885E+02  0.19118817677E+03  0.17821084383E+04  0.18007365110E+04  0.17200000000E+03 0.  1.
</event>
<event>
 4    1  0.5743594E+000  0.2191942E+03  0.7818608E-02  0.1134485E+00
         21   -1    0    0  503  502  0.00000000000E+00  0.00000000000E+00  0.44160206687E+03  0.44160206687E+03  0.00000000000E+00 0. -1.
         21   -1    0    0  501  503 -0.00000000000E+00 -0.00000000000E+00 -0.14889587126E+03  0.14889587126E+03  0.00000000000E+00 0. -1.
          6    1    1    2  501    0 -0.67214031698E+01  0.13570888243E+03 -0.68613328080E+01  0.21930151828E+03  0.17200000000E+03 0. -1.
         -6    1    1    2    0  502  0.67214031698E+01 -0.13570888243E+03  0.29956752841E+03  0.37119641985E+03  0.17200000000E+03 0. -1.
</event>
<event>
 4    1  0.5743594E+000  0.1778582E+03  0.7818608E-02  0.1169892E+00
         21   -1    0    0  501  502  0.00000000000E+00  0.00000000000E+00  0.28206181328E+02  0.28206181328E+02  0.00000000000E+00 0. -1.
         21   -1    0    0  502  503 -0.00000000000E+00 -0.00000000000E+00 -0.12855559128E+04  0.12855559128E+04  0.00000000000E+00 0. -1.
          6    1    1    2  501    0 -0.22536812068E+01  0.45215771000E+02 -0.39402380747E+03  0.43230580135E+03  0.17200000000E+03 0. -1.
         -6    1    1    2    0  503  0.22536812068E+01 -0.45215771000E+02 -0.86332592399E+03  0.88145629276E+03  0.17200000000E+03 0. -1.
</event>
<event>
 4    1  0.5743594E+000  0.1920471E+03  0.7818608E-02  0.1156628E+00
         21   -1    0    0  503  502  0.00000000000E+00  0.00000000000E+00  0.86343726374E+02  0.86343726374E+02  0.00000000000E+00 0.  1.
         21   -1    0    0  501  503 -0.00000000000E+00 -0.00000000000E+00 -0.11070396885E+04  0.11070396885E+04  0.00000000000E+00 0.  1.
          6    1    1    2  501    0 -0.69660112763E+02  0.49452513531E+02 -0.97796068726E+03  0.99663894577E+03  0.17200000000E+03 0.  1.
         -6    1    1    2    0  502  0.69660112763E+02 -0.49452513531E+02 -0.42735274867E+02  0.19674446910E+03  0.17200000000E+03 0.  1.
</event>
<event>
 4    1  0.5743594E+000  0.2133048E+03  0.7818608E-02  0.1138975E+00
         21   -1    0    0  503  502  0.00000000000E+00  0.00000000000E+00  0.26380650352E+03  0.26380650352E+03  0.00000000000E+00 0.  1.
         21   -1    0    0  501  503 -0.00000000000E+00 -0.00000000000E+00 -0.31468286910E+03  0.31468286910E+03  0.00000000000E+00 0.  1.
          6    1    1    2  501    0  0.10053440891E+03 -0.76208749879E+02 -0.21988325335E+03  0.30634553373E+03  0.17200000000E+03 0.  1.
         -6    1    1    2    0  502 -0.10053440891E+03  0.76208749879E+02  0.16900688777E+03  0.27214383889E+03  0.17200000000E+03 0.  1.
</event>
<event>
 4    1  0.5743594E+000  0.3709892E+03  0.7818608E-02  0.1054315E+00
         21   -1    0    0  503  502  0.00000000000E+00  0.00000000000E+00  0.70247624889E+03  0.70247624889E+03  0.00000000000E+00 0. -1.
         21   -1    0    0  501  503 -0.00000000000E+00 -0.00000000000E+00 -0.20621385315E+03  0.20621385315E+03  0.00000000000E+00 0.  1.
          6    1    1    2  501    0 -0.25427071965E+03 -0.20831563608E+03  0.14664662432E+03  0.39892134003E+03  0.17200000000E+03 0.  1.
         -6    1    1    2    0  502  0.25427071965E+03  0.20831563608E+03  0.34961577143E+03  0.50976876202E+03  0.17200000000E+03 0. -1.
</event>
<event>
 4    1  0.5743594E+000  0.1992753E+03  0.7818608E-02  0.1150352E+00
         21   -1    0    0  501  502  0.00000000000E+00  0.00000000000E+00  0.13992837235E+03  0.13992837235E+03  0.00000000000E+00 0.  1.
         21   -1    0    0  502  503 -0.00000000000E+00 -0.00000000000E+00 -0.30928122287E+03  0.30928122287E+03  0.00000000000E+00 0. -1.
          6    1    1    2  501    0 -0.95485909131E+02 -0.31765918831E+02 -0.20197811667E+02  0.20029624070E+03  0.17200000000E+03 0.  1.
         -6    1    1    2    0  503  0.95485909131E+02  0.31765918831E+02 -0.14915503886E+03  0.24891335452E+03  0.17200000000E+03 0.  1.
</event>
<event>
 4    1  0.5743594E+000  0.2106792E+03  0.7818608E-02  0.1141029E+00
         21   -1    0    0  503  502  0.00000000000E+00  0.00000000000E+00  0.93402236211E+02  0.93402236211E+02  0.00000000000E+00 0. -1.
         21   -1    0    0  501  503 -0.00000000000E+00 -0.00000000000E+00 -0.81299514595E+03  0.81299514595E+03  0.00000000000E+00 0.  1.
          6    1    1    2  501    0 -0.70159120663E+02 -0.99395282932E+02 -0.65191869026E+03  0.68511583195E+03  0.17200000000E+03 0.  1.
         -6    1    1    2    0  502  0.70159120663E+02  0.99395282932E+02 -0.67674219480E+02  0.22128155021E+03  0.17200000000E+03 0. -1.
</event>
<event>
 4    1  0.5743594E+000  0.1756819E+03  0.7818608E-02  0.1172049E+00
         21   -1    0    0  503  502  0.00000000000E+00  0.00000000000E+00  0.37104651160E+03  0.37104651160E+03  0.00000000000E+00 0. -1.
         21   -1    0    0  501  503 -0.00000000000E+00 -0.00000000000E+00 -0.11774118632E+03  0.11774118632E+03  0.00000000000E+00 0. -1.
          6    1    1    2  501    0  0.17387686522E+02  0.31270027072E+02 -0.57546482674E+01  0.17577617078E+03  0.17200000000E+03 0. -1.
         -6    1    1    2    0  502 -0.17387686522E+02 -0.31270027072E+02  0.25905997355E+03  0.31301152715E+03  0.17200000000E+03 0. -1.
</event>
<event>
 4    1  0.5743594E+000  0.1839605E+03  0.7818608E-02  0.1164024E+00
         21   -1    0    0  501  502  0.00000000000E+00  0.00000000000E+00  0.15623080420E+03  0.15623080420E+03  0.00000000000E+00 0.  1.
         21   -1    0    0  502  503 -0.00000000000E+00 -0.00000000000E+00 -0.34289901076E+03  0.34289901076E+03  0.00000000000E+00 0.  1.
          6    1    1    2  501    0 -0.47505649481E+02  0.44728790546E+02  0.58119605792E+02  0.19292314536E+03  0.17200000000E+03 0.  1.
         -6    1    1    2    0  503  0.47505649481E+02 -0.44728790546E+02 -0.24478781235E+03  0.30620666960E+03  0.17200000000E+03 0.  1.
</event>
<event>
 4    1  0.5743594E+000  0.1956041E+03  0.7818608E-02  0.1153502E+00
         21   -1    0    0  501  502  0.00000000000E+00  0.00000000000E+00  0.15027241897E+03  0.15027241897E+03  0.00000000000E+00 0.  1.
         21   -1    0    0  502  503 -0.00000000000E+00 -0.00000000000E+00 -0.80272151353E+03  0.80272151353E+03  0.00000000000E+00 0.  1.
          6    1    1    2  501    0  0.49037866136E+02 -0.79197617624E+02  0.67517549415E+02  0.20692895987E+03  0.17200000000E+03 0.  1.
         -6    1    1    2    0  503 -0.49037866136E+02  0.79197617624E+02 -0.71996664397E+03  0.74606497263E+03  0.17200000000E+03 0.  1.
</event>
<event>
 4    1  0.5743594E+000  0.6285308E+03  0.7818608E-02  0.9847920E-01
         21   -1    0    0  503  502  0.00000000000E+00  0.00000000000E+00  0.19488962563E+04  0.19488962563E+04  0.00000000000E+00 0.  1.
         21   -1    0    0  501  503 -0.00000000000E+00 -0.00000000000E+00 -0.50220036548E+03  0.50220036548E+03  0.00000000000E+00 0. -1.
          6    1    1    2  501    0  0.56503318017E+03 -0.21495232083E+03 -0.22307875578E+03  0.66694462004E+03  0.17200000000E+03 0.  1.
         -6    1    1    2    0  502 -0.56503318017E+03  0.21495232083E+03  0.16697746466E+04  0.17841520017E+04  0.17200000000E+03 0. -1.
</event>
<event>
 4    1  0.5743594E+000  0.1741371E+03  0.7818608E-02  0.1173601E+00
         21   -1    0    0  501  502  0.00000000000E+00  0.00000000000E+00  0.15130347026E+04  0.15130347026E+04  0.00000000000E+00 0.  1.
         21   -1    0    0  502  503 -0.00000000000E+00 -0.00000000000E+00 -0.74054239281E+02  0.74054239281E+02  0.00000000000E+00 0.  1.
          6    1    1    2  501    0 -0.94025304129E+01 -0.25521262614E+02  0.13971999682E+04  0.14080097633E+04  0.17200000000E+03 0.  1.
         -6    1    1    2    0  503  0.94025304129E+01  0.25521262614E+02  0.41780495105E+02  0.17907917856E+03  0.17200000000E+03 0.  1.
</event>
<event>
 4    1  0.5743594E+000  0.1951828E+03  0.7818608E-02  0.1153868E+00
         21   -1    0    0  503  502  0.00000000000E+00  0.00000000000E+00  0.25941864009E+03  0.25941864009E+03  0.00000000000E+00 0.  1.
         21   -1    0    0  501  503 -0.00000000000E+00 -0.00000000000E+00 -0.15193734303E+03  0.15193734303E+03  0.00000000000E+00 0. -1.
          6    1    1    2  501    0  0.60093218365E+01  0.92066378329E+02  0.16114876078E+02  0.19584692798E+03  0.17200000000E+03 0. -1.
         -6    1    1    2    0  502 -0.60093218365E+01 -0.92066378329E+02  0.91366420980E+02  0.21550905515E+03  0.17200000000E+03 0.  1.
</event>
<event>
 4    1  0.5743594E+000  0.1866535E+03  0.7818608E-02  0.1161515E+00
         21   -1    0    0  501  502  0.00000000000E+00  0.00000000000E+00  0.20182841433E+02  0.20182841433E+02  0.00000000000E+00 0.  1.
         21   -1    0    0  502  503 -0.00000000000E+00 -0.00000000000E+00 -0.23229529161E+04  0.23229529161E+04  0.00000000000E+00 0. -1.
          6    1    1    2  501    0  0.45519527751E+02  0.56422599515E+02 -0.55757704713E+03  0.58798954126E+03  0.17200000000E+03 0.  1.
         -6    1    1    2    0  503 -0.45519527751E+02 -0.56422599515E+02 -0.17451930275E+04  0.17551462162E+04  0.17200000000E+03 0. -1.
</event>
<event>
 4    1  0.5743594E+000  0.1857396E+03  0.7818608E-02  0.1162361E+00
         21   -1    0    0  501  502  0.00000000000E+00  0.00000000000E+00  0.10997915081E+03  0.10997915081E+03  0.00000000000E+00 0. -1.
         21   -1    0    0  502  503 -0.00000000000E+00 -0.00000000000E+00 -0.41687985855E+03  0.41687985855E+03  0.00000000000E+00 0. -1.
          6    1    1    2  501    0  0.47755319528E+02  0.51328672202E+02 -0.22387244984E+02  0.18708391666E+03  0.17200000000E+03 0. -1.
         -6    1    1    2    0  503 -0.47755319528E+02 -0.51328672202E+02 -0.28451346276E+03  0.33977509271E+03  0.17200000000E+03 0. -1.
</event>
<event>
 4    1  0.5743594E+000  0.2101966E+03  0.7818608E-02  0.1141410E+00
         21   -1    0    0  501  502  0.00000000000E+00  0.00000000000E+00  0.80442075922E+03  0.80442075922E+03  0.00000000000E+00 0. -1.
         21   -1    0    0  502  503 -0.00000000000E+00 -0.00000000000E+00 -0.57969648110E+02  0.57969648110E+02  0.00000000000E+00 0. -1.
          6    1    1    2  501    0 -0.77345879042E+02  0.92823548883E+02  0.47204925600E+03  0.51673309969E+03  0.17200000000E+03 0. -1.
         -6    1    1    2    0  503  0.77345879042E+02 -0.92823548883E+02  0.27440185511E+03  0.34565730763E+03  0.17200000000E+03 0. -1.
</event>
<event>
 4    1  0.5743594E+000  0.2032971E+03  0.7818608E-02  0.1146987E+00
         21   -1    0    0  503  502  0.00000000000E+00  0.00000000000E+00  0.39366810223E+02  0.39366810223E+02  0.00000000000E+00 0. -1.
         21   -1    0    0  501  503 -0.00000000000E+00 -0.00000000000E+00 -0.12453553565E+04  0.12453553565E+04  0.00000000000E+00 0. -1.
          6    1    1    2  501    0  0.91926503633E+02  0.57404019972E+02 -0.85750083669E+03  0.88127032658E+03  0.17200000000E+03 0. -1.
         -6    1    1    2    0  502 -0.91926503633E+02 -0.57404019972E+02 -0.34848770954E+03  0.40345184010E+03  0.17200000000E+03 0. -1.
</event>
<event>
 4    1  0.5743594E+000  0.1958606E+03  0.7818608E-02  0.1153279E+00
         21   -1    0    0  501  502  0.00000000000E+00  0.00000000000E+00  0.86163262264E+03  0.86163262264E+03  0.00000000000E+00 0.  1.
         21   -1    0    0  502  503 -0.00000000000E+00 -0.00000000000E+00 -0.74677753526E+02  0.74677753526E+02  0.00000000000E+00 0.  1.
          6    1    1    2  501    0  0.48983451714E+02  0.79862366885E+02  0.69097351267E+03  0.71819619283E+03  0.17200000000E+03 0.  1.
         -6    1    1    2    0  503 -0.48983451714E+02 -0.79862366885E+02  0.95981356442E+02  0.21811418333E+03  0.17200000000E+03 0.  1.
</event>
<event>
 4    1  0.5743594E+000  0.2230419E+03  0.7818608E-02  0.1131635E+00
         21   -1    0    0  501  502  0.00000000000E+00  0.00000000000E+00  0.48797056302E+03  0.48797056302E+03  0.00000000000E+00 0. -1.
         21   -1    0    0  502  503 -0.00000000000E+00 -0.00000000000E+00 -0.30529949394E+03  0.30529949394E+03  0.00000000000E+00 0. -1.
          6    1    1    2  501    0  0.47062965193E+02  0.13397293542E+03  0.41504217174E+03  0.47117690355E+03  0.17200000000E+03 0. -1.
         -6    1    1    2    0  503 -0.47062965193E+02 -0.13397293542E+03 -0.23237110267E+03  0.32209315341E+03  0.17200000000E+03 0. -1.
</event>
<event>
 4    1  0.5743594E+000  0.2602101E+03  0.7818608E-02  0.1107017E+00
         21   -1    0    0  503  502  0.00000000000E+00  0.00000000000E+00  0.14916589488E+03  0.14916589488E+03  0.00000000000E+00 0. -1.
         21   -1    0    0  501  503 -0.00000000000E+00 -0.00000000000E+00 -0.65305390043E+03  0.65305390043E+03  0.00000000000E+00 0. -1.
          6    1    1    2  501    0 -0.15346436061E+03  0.12072286364E+03 -0.47343798283E+03  0.54023406351E+03  0.17200000000E+03 0. -1.
         -6    1    1    2    0  502  0.15346436061E+03 -0.12072286364E+03 -0.30450022720E+02  0.26198573180E+03  0.17200000000E+03 0. -1.
</event>
<event>
 4    1  0.5743594E+000  0.7317639E+03  0.7818608E-02  0.9664402E-01
         21   -1    0    0  501  502  0.00000000000E+00  0.00000000000E+00  0.38191675565E+03  0.38191675565E+03  0.00000000000E+00 0.  1.
         21   -1    0    0  502  503 -0.00000000000E+00 -0.00000000000E+00 -0.17599550794E+04  0.17599550794E+04  0.00000000000E+00 0. -1.
          6    1    1    2  501    0  0.14972680891E+03  0.69532455185E+03 -0.20609646280E+03  0.76023292594E+03  0.17200000000E+03 0.  1.
         -6    1    1    2    0  503 -0.14972680891E+03 -0.69532455185E+03 -0.11719418609E+04  0.13816389091E+04  0.17200000000E+03 0. -1.
</event>
<event>
 4    1  0.5743594E+000  0.2467032E+03  0.7818608E-02  0.1115406E+00
         21   -1    0    0  503  502  0.00000000000E+00  0.00000000000E+00  0.21074277863E+03  0.21074277863E+03  0.00000000000E+00 0. -1.
         21   -1    0    0  501  503 -0.00000000000E+00 -0.00000000000E+00 -0.29317741279E+03  0.29317741279E+03  0.00000000000E+00 0.  1.
          6    1    1    2  501    0  0.16611111273E+03 -0.60708673634E+02 -0.10428595665E+02  0.24692347081E+03  0.17200000000E+03 0. -1.
         -6    1    1    2    0  502 -0.16611111273E+03  0.60708673634E+02 -0.72006038491E+02  0.25699672062E+03  0.17200000000E+03 0. -1.
</event>
<event>
 4    1  0.5743594E+000  0.1724127E+03  0.7818608E-02  0.1175355E+00
         21   -1    0    0  503  502  0.00000000000E+00  0.00000000000E+00  0.79172605459E+03  0.79172605459E+03  0.00000000000E+00 0.  1.
         21   -1    0    0  501  503 -0.00000000000E+00 -0.00000000000E+00 -0.16810204515E+03  0.16810204515E+03  0.00000000000E+00 0.  1.
          6    1    1    2  501    0 -0.10602175241E+02 -0.54524829550E+01 -0.11112480144E+03  0.20512156685E+03  0.17200000000E+03 0.  1.
         -6    1    1    2    0  502  0.10602175241E+02  0.54524829550E+01  0.73474881088E+03  0.75470653289E+03  0.17200000000E+03 0.  1.
</event>
<event>
 4    1  0.5743594E+000  0.2254356E+03  0.7818608E-02  0.1129894E+00
         21   -1    0    0  503  502  0.00000000000E+00  0.00000000000E+00  0.31985144058E+03  0.31985144058E+03  0.00000000000E+00 0. -1.
         21   -1    0    0  501  503 -0.00000000000E+00 -0.00000000000E+00 -0.20626062952E+03  0.20626062952E+03  0.00000000000E+00 0. -1.
          6    1    1    2  501    0 -0.88108391106E+02  0.11607803137E+03 -0.69269627479E+02  0.23583782403E+03  0.17200000000E+03 0. -1.
         -6    1    1    2    0  502  0.88108391106E+02 -0.11607803137E+03  0.18286043854E+03  0.29027424607E+03  0.17200000000E+03 0. -1.
</event>
<event>
 4    1  0.5743594E+000  0.2623509E+03  0.7818608E-02  0.1105739E+00
         21   -1    0    0  503  502  0.00000000000E+00  0.00000000000E+00  0.55854023714E+03  0.55854023714E+03  0.00000000000E+00 0. -1.
         21   -1    0    0  501  503 -0.00000000000E+00 -0.00000000000E+00 -0.16974040290E+03  0.16974040290E+03  0.00000000000E+00 0.  1.
          6    1    1    2  501    0  0.19350510487E+03  0.42423517312E+02  0.37840694952E+01  0.26237816147E+03  0.17200000000E+03 0.  1.
         -6    1    1    2    0  502 -0.19350510487E+03 -0.42423517312E+02  0.38501576475E+03  0.46590247857E+03  0.17200000000E+03 0. -1.
</event>
<event>
 4    1  0.5743594E+000  0.1823632E+03  0.7818608E-02  0.1165535E+00
         21   -1    0    0  503  502  0.00000000000E+00  0.00000000000E+00  0.33247104141E+03  0.33247104141E+03  0.00000000000E+00 0. -1.
         21   -1    0    0  501  503 -0.00000000000E+00 -0.00000000000E+00 -0.13828111031E+03  0.13828111031E+03  0.00000000000E+00 0. -1.
          6    1    1    2  501    0  0.65729044785E+01  0.60242394221E+02 -0.26703528465E+02  0.18430796935E+03  0.17200000000E+03 0. -1.
         -6    1    1    2    0  502 -0.65729044785E+01 -0.60242394221E+02  0.22089345957E+03  0.28644418237E+03  0.17200000000E+03 0. -1.
</event>
<event>
 4    1  0.5743594E+000  0.1830974E+03  0.7818608E-02  0.1164839E+00
         21   -1    0    0  501  502  0.00000000000E+00  0.00000000000E+00  0.41426973758E+03  0.41426973758E+03  0.00000000000E+00 0.  1.
         21   -1    0    0  502  503 -0.00000000000E+00 -0.00000000000E+00 -0.93955156976E+02  0.93955156976E+02  0.00000000000E+00 0.  1.
          6    1    1    2  501    0  0.47771171654E+02  0.40725736448E+02  0.25479076760E+03  0.31375628393E+03  0.17200000000E+03 0.  1.
         -6    1    1    2    0  503 -0.47771171654E+02 -0.40725736448E+02  0.65523813012E+02  0.19446861063E+03  0.17200000000E+03 0.  1.
</event>
<event>
 4    1  0.5743594E+000  0.1790384E+03  0.7818608E-02  0.1168737E+00
         21   -1    0    0  501  502  0.00000000000E+00  0.00000000000E+00  0.89455833253E+03  0.89455833253E+03  0.00000000000E+00 0. -1.
         21   -1    0    0  502  503 -0.00000000000E+00 -0.00000000000E+00 -0.43943164805E+02  0.43943164805E+02  0.00000000000E+00 0. -1.
          6    1    1    2  501    0  0.48951808390E+02 -0.86287396724E+01  0.62689961979E+03  0.65196462173E+03  0.17200000000E+03 0.  1.
         -6    1    1    2    0  503 -0.48951808390E+02  0.86287396724E+01  0.22371554793E+03  0.28653687560E+03  0.17200000000E+03 0.  1.
</event>
<event>
 4    1  0.5743594E+000  0.2102391E+03  0.7818608E-02  0.1141377E+00
         21   -1    0    0  501  502  0.00000000000E+00  0.00000000000E+00  0.46021123973E+03  0.46021123973E+03  0.00000000000E+00 0. -1.
         21   -1    0    0  502  503 -0.00000000000E+00 -0.00000000000E+00 -0.13207350197E+03  0.13207350197E+03  0.00000000000E+00 0.  1.
          6    1    1    2  501    0  0.85607054511E+01 -0.12059514848E+03  0.31874472308E+03  0.38183592550E+03  0.17200000000E+03 0. -1.
         -6    1    1    2    0  503 -0.85607054511E+01  0.12059514848E+03  0.93930146851E+01  0.21044881620E+03  0.17200000000E+03 0.  1.
</event>
<event>
 4    1  0.5743594E+000  0.1873274E+03  0.7818608E-02  0.1160894E+00
         21   -1    0    0  503  502  0.00000000000E+00  0.00000000000E+00  0.18270940723E+03  0.18270940723E+03  0.00000000000E+00 0.  1.
         21   -1    0    0  501  503 -0.00000000000E+00 -0.00000000000E+00 -0.19221761453E+03  0.19221761453E+03  0.00000000000E+00 0. -1.
          6    1    1    2  501    0  0.43009994915E+02  0.60478913896E+02  0.57750056108E+00  0.18732830057E+03  0.17200000000E+03 0.  1.
         -6    1    1    2    0  502 -0.43009994915E+02 -0.60478913896E+02 -0.10085707864E+02  0.18759872119E+03  0.17200000000E+03 0. -1.
</event>
<event>
 4    1  0.5743594E+000  0.1881429E+03  0.7818608E-02  0.1160147E+00
         21   -1    0    0  503  502  0.00000000000E+00  0.00000000000E+00  0.71884628682E+03  0.71884628682E+03  0.00000000000E+00 0.  1.
         21   -1    0    0  501  503 -0.00000000000E+00 -0.00000000000E+00 -0.21661293348E+03  0.21661293348E+03  0.00000000000E+00 0.  1.
          6    1    1    2  501    0  0.32450345889E+02 -0.68997973123E+02 -0.16002558493E+03  0.24699379157E+03  0.17200000000E+03 0.  1.
         -6    1    1    2    0  502 -0.32450345889E+02  0.68997973123E+02  0.66225893827E+03  0.68846542874E+03  0.17200000000E+03 0.  1.
</event>
<event>
 4    1  0.5743594E+000  0.1795800E+03  0.7818608E-02  0.1168210E+00
         21   -1    0    0  501  502  0.00000000000E+00  0.00000000000E+00  0.17003170545E+04  0.17003170545E+04  0.00000000000E+00 0. -1.
         21   -1    0    0  502  503 -0.00000000000E+00 -0.00000000000E+00 -0.53128147752E+02  0.53128147752E+02  0.00000000000E+00 0. -1.
          6    1    1    2  501    0  0.15735875026E+02 -0.49166629543E+02  0.15266175605E+04  0.15371435038E+04  0.17200000000E+03 0. -1.
         -6    1    1    2    0  503 -0.15735875026E+02  0.49166629543E+02  0.12057134626E+03  0.21630169847E+03  0.17200000000E+03 0. -1.
</event>
<event>
 4    1  0.5743594E+000  0.1948808E+03  0.7818608E-02  0.1154131E+00
         21   -1    0    0  501  502  0.00000000000E+00  0.00000000000E+00  0.37151938417E+02  0.37151938417E+02  0.00000000000E+00 0.  1.
         21   -1    0    0  502  503 -0.00000000000E+00 -0.00000000000E+00 -0.10450356218E+04  0.10450356218E+04  0.00000000000E+00 0. -1.
          6    1    1    2  501    0  0.67380264669E+01  0.91373520296E+02 -0.42404130312E+03  0.46667927741E+03  0.17200000000E+03 0.  1.
         -6    1    1    2    0  503 -0.67380264669E+01 -0.91373520296E+02 -0.58384238026E+03  0.61550828281E+03  0.17200000000E+03 0. -1.
</event>
<event>
 4    1  0.5743594E+000  0.2292768E+03  0.7818608E-02  0.1127150E+00
         21   -1    0    0  501  502  0.00000000000E+00  0.00000000000E+00  0.10670325327E+04  0.10670325327E+04  0.00000000000E+00 0.  1.
         21   -1    0    0  502  503 -0.00000000000E+00 -0.00000000000E+00 -0.79874078125E+02  0.79874078125E+02  0.00000000000E+00 0.  1.
          6    1    1    2  501    0  0.15058317649E+03  0.17565475434E+02  0.84856999326E+03  0.87899878977E+03  0.17200000000E+03 0.  1.
         -6    1    1    2    0  503 -0.15058317649E+03 -0.17565475434E+02  0.13858846132E+03  0.26790782105E+03  0.17200000000E+03 0.  1.
</event>
<event>
 4    1  0.5743594E+000  0.2408587E+03  0.7818608E-02  0.1119222E+00
         21   -1    0    0  501  502  0.00000000000E+00  0.00000000000E+00  0.24479010065E+03  0.24479010065E+03  0.00000000000E+00 0. -1.
         21   -1    0    0  502  503 -0.00000000000E+00 -0.00000000000E+00 -0.46374496999E+03  0.46374496999E+03  0.00000000000E+00 0.  1.
          6    1    1    2  501    0 -0.79710452093E+02 -0.14857711242E+03 -0.35720237502E+03  0.43082067177E+03  0.17200000000E+03 0. -1.
         -6    1    1    2    0  503  0.79710452093E+02  0.14857711242E+03  0.13824750568E+03  0.27771439886E+03  0.17200000000E+03 0. -1.
</event>
<event>
 4    1  0.5743594E+000  0.1807569E+03  0.7818608E-02  0.1167073E+00
         21   -1    0    0  501  502  0.00000000000E+00  0.00000000000E+00  0.41716729450E+03  0.41716729450E+03  0.00000000000E+00 0.  1.
         21   -1    0    0  502  503 -0.00000000000E+00 -0.00000000000E+00 -0.95724868708E+02  0.95724868708E+02  0.00000000000E+00 0.  1.
          6    1    1    2  501    0 -0.18754490171E+02 -0.52319399886E+02  0.51374971265E+02  0.18791604024E+03  0.17200000000E+03 0.  1.
         -6    1    1    2    0  503  0.18754490171E+02  0.52319399886E+02  0.27006745453E+03  0.32497612297E+03  0.17200000000E+03 0.  1.
</event>
<event>
 4    1  0.5743594E+000  0.2117015E+03  0.7818608E-02  0.1140226E+00
         21   -1    0    0  503  502  0.00000000000E+00  0.00000000000E+00  0.31467315883E+03  0.31467315883E+03  0.00000000000E+00 0.  1.
         21   -1    0    0  501  503 -0.00000000000E+00 -0.00000000000E+00 -0.20502077471E+03  0.20502077471E+03  0.00000000000E+00 0.  1.
          6    1    1    2  501    0  0.32250283951E+01 -0.12338197392E+03 -0.88752223745E+02  0.22955275977E+03  0.17200000000E+03 0.  1.
         -6    1    1    2    0  502 -0.32250283951E+01  0.12338197392E+03  0.19840460786E+03  0.29014117377E+03  0.17200000000E+03 0.  1.
</event>
<event>
 4    1  0.5743594E+000  0.1783867E+03  0.7818608E-02  0.1169374E+00
         21   -1    0    0  501  502  0.00000000000E+00  0.00000000000E+00  0.81151353388E+03  0.81151353388E+03  0.00000000000E+00 0.  1.
         21   -1    0    0  502  503 -0.00000000000E+00 -0.00000000000E+00 -0.59999504461E+02  0.59999504461E+02  0.00000000000E+00 0.  1.
          6    1    1    2  501    0 -0.27831334747E+02 -0.38252092280E+02  0.63224188463E+03  0.65692587591E+03  0.17200000000E+03 0.  1.
         -6    1    1    2    0  503  0.27831334747E+02  0.38252092280E+02  0.11927214478E+03  0.21458716243E+03  0.17200000000E+03 0.  1.
</event>
<event>
 4    1  0.5743594E+000  0.1790643E+03  0.7818608E-02  0.1168712E+00
         21   -1    0    0  501  502  0.00000000000E+00  0.00000000000E+00  0.37248072638E+03  0.37248072638E+03  0.00000000000E+00 0. -1.
         21   -1    0    0  502  503 -0.00000000000E+00 -0.00000000000E+00 -0.10046673676E+03  0.10046673676E+03  0.00000000000E+00 0. -1.
          6    1    1    2  501    0  0.32960359957E+02  0.37331636021E+02  0.22548506664E+03  0.28793671467E+03  0.17200000000E+03 0. -1.
         -6    1    1    2    0  503 -0.32960359957E+02 -0.37331636021E+02  0.46528922991E+02  0.18501074847E+03  0.17200000000E+03 0. -1.
</event>
<event>
 4    1  0.5743594E+000  0.2335951E+03  0.7818608E-02  0.1124135E+00
         21   -1    0    0  503  502  0.00000000000E+00  0.00000000000E+00  0.94190384223E+02  0.94190384223E+02  0.00000000000E+00 0.  1.
         21   -1    0    0  501  503 -0.00000000000E+00 -0.00000000000E+00 -0.58080241000E+03  0.58080241000E+03  0.00000000000E+00 0. -1.
          6    1    1    2  501    0  0.15038701414E+03  0.48646034163E+02 -0.22627481763E+03  0.32521836319E+03  0.17200000000E+03 0.  1.
         -6    1    1    2    0  502 -0.15038701414E+03 -0.48646034163E+02 -0.26033720814E+03  0.34977443103E+03  0.17200000000E+03 0.  1.
</event>
<event>
 4    1  0.5743594E+000  0.2060870E+03  0.7818608E-02  0.1144703E+00
         21   -1    0    0  501  502  0.00000000000E+00  0.00000000000E+00  0.67483641411E+03  0.67483641411E+03  0.00000000000E+00 0. -1.
         21   -1    0    0  502  503 -0.00000000000E+00 -0.00000000000E+00 -0.21646751625E+03  0.21646751625E+03  0.00000000000E+00 0. -1.
          6    1    1    2  501    0  0.79625807733E+02  0.80917108373E+02  0.60450082067E+03  0.63866508428E+03  0.17200000000E+03 0. -1.
         -6    1    1    2    0  503 -0.79625807733E+02 -0.80917108373E+02 -0.14613192281E+03  0.25263884608E+03  0.17200000000E+03 0. -1.
</event>
<event>
 4    1  0.5743594E+000  0.1967658E+03  0.7818608E-02  0.1152497E+00
         21   -1    0    0  503  502  0.00000000000E+00  0.00000000000E+00  0.22604052713E+03  0.22604052713E+03  0.00000000000E+00 0. -1.
         21   -1    0    0  501  503 -0.00000000000E+00 -0.00000000000E+00 -0.20542378420E+03  0.20542378420E+03  0.00000000000E+00 0. -1.
          6    1    1    2  501    0  0.79588977996E+02 -0.52899640284E+02  0.98257128600E+02  0.21993462820E+03  0.17200000000E+03 0. -1.
         -6    1    1    2    0  502 -0.79588977996E+02  0.52899640284E+02 -0.77640385667E+02  0.21152968313E+03  0.17200000000E+03 0. -1.
</event>
<event>
 4    1  0.5743594E+000  0.2029261E+03  0.7818608E-02  0.1147294E+00
         21   -1    0    0  503  502  0.00000000000E+00  0.00000000000E+00  0.11881790683E+03  0.11881790683E+03  0.00000000000E+00 0.  1.
         21   -1    0    0  501  503 -0.00000000000E+00 -0.00000000000E+00 -0.46192562165E+03  0.46192562165E+03  0.00000000000E+00 0. -1.
          6    1    1    2  501    0 -0.67786400807E+02  0.83665950100E+02 -0.31665924414E+03  0.37610113565E+03  0.17200000000E+03 0. -1.
         -6    1    1    2    0  502  0.67786400807E+02 -0.83665950100E+02 -0.26448470683E+02  0.20464239283E+03  0.17200000000E+03 0. -1.
</event>
<event>
 4    1  0.5743594E+000  0.2483443E+03  0.7818608E-02  0.1114356E+00
         21   -1    0    0  503  502  0.00000000000E+00  0.00000000000E+00  0.94358463308E+02  0.94358463308E+02  0.00000000000E+00 0. -1.
         21   -1    0    0  501  503 -0.00000000000E+00 -0.00000000000E+00 -0.76513073806E+03  0.76513073806E+03  0.00000000000E+00 0.  1.
          6    1    1    2  501    0 -0.71999052626E+02  0.16403365170E+03 -0.17132932490E+03  0.30170952925E+03  0.17200000000E+03 0. -1.
         -6    1    1    2    0  502  0.71999052626E+02 -0.16403365170E+03 -0.49944294985E+03  0.55777967212E+03  0.17200000000E+03 0.  1.
</event>
<event>
 4    1  0.5743594E+000  0.1771695E+03  0.7818608E-02  0.1170571E+00
         21   -1    0    0  503  502  0.00000000000E+00  0.00000000000E+00  0.94770953850E+03  0.94770953850E+03  0.00000000000E+00 0. -1.
         21   -1    0    0  501  503 -0.00000000000E+00 -0.00000000000E+00 -0.46507873671E+02  0.46507873671E+02  0.00000000000E+00 0. -1.
          6    1    1    2  501    0 -0.11436949703E+02  0.40917180960E+02  0.71730443088E+03  0.73886038335E+03  0.17200000000E+03 0. -1.
         -6    1    1    2    0  502  0.11436949703E+02 -0.40917180960E+02  0.18389723395E+03  0.25535702882E+03  0.17200000000E+03 0. -1.
</event>
<event>
 4    1  0.5743594E+000  0.1782707E+03  0.7818608E-02  0.1169487E+00
         21   -1    0    0  501  502  0.00000000000E+00  0.00000000000E+00  0.77532087398E+03  0.77532087398E+03  0.00000000000E+00 0.  1.
         21   -1    0    0  502  503 -0.00000000000E+00 -0.00000000000E+00 -0.42521314214E+02  0.42521314214E+02  0.00000000000E+00 0.  1.
          6    1    1    2  501    0 -0.23388301458E+02 -0.40612982953E+02  0.28879939631E+03  0.33938992080E+03  0.17200000000E+03 0. -1.
         -6    1    1    2    0  503  0.23388301458E+02  0.40612982953E+02  0.44400016346E+03  0.47845226740E+03  0.17200000000E+03 0. -1.
</event>
<event>
 4    1  0.5743594E+000  0.2351562E+03  0.7818608E-02  0.1123062E+00
         21   -1    0    0  501  502  0.00000000000E+00  0.00000000000E+00  0.55737212216E+02  0.55737212216E+02  0.00000000000E+00 0. -1.
         21   -1    0    0  502  503 -0.00000000000E+00 -0.00000000000E+00 -0.99749113080E+03  0.99749113080E+03  0.00000000000E+00 0. -1.
          6    1    1    2  501    0 -0.15984463674E+03  0.12810631848E+02 -0.43226089031E+03  0.49208525427E+03  0.17200000000E+03 0. -1.
         -6    1    1    2    0  503  0.15984463674E+03 -0.12810631848E+02 -0.50949302827E+03  0.56114308874E+03  0.17200000000E+03 0. -1.
</event>
<event>
 4    1  0.5743594E+000  0.1770851E+03  0.7818608E-02  0.1170654E+00
         21   -1    0    0  501  502  0.00000000000E+00  0.00000000000E+00  0.43152970899E+03  0.43152970899E+03  0.00000000000E+00 0. -1.
         21   -1    0    0  502  503 -0.00000000000E+00 -0.00000000000E+00 -0.74960190886E+02  0.74960190886E+02  0.00000000000E+00 0. -1.
          6    1    1    2  501    0 -0.10985768100E+02  0.40674865461E+02  0.22255280292E+03  0.28440970776E+03  0.17200000000E+03 0. -1.
         -6    1    1    2    0  503  0.10985768100E+02 -0.40674865461E+02  0.13401671519E+03  0.22208019212E+03  0.17200000000E+03 0. -1.
</event>
<event>
 4    1  0.5743594E+000  0.2093251E+03  0.7818608E-02  0.1142102E+00
         21   -1    0    0  501  502  0.00000000000E+00  0.00000000000E+00  0.11101383103E+03  0.11101383103E+03  0.00000000000E+00 0. -1.
         21   -1    0    0  502  503 -0.00000000000E+00 -0.00000000000E+00 -0.52143943282E+03  0.52143943282E+03  0.00000000000E+00 0.  1.
          6    1    1    2  501    0 -0.10019560346E+03 -0.64759907120E+02 -0.49309693106E+02  0.21505452880E+03  0.17200000000E+03 0. -1.
         -6    1    1    2    0  503  0.10019560346E+03  0.64759907120E+02 -0.36111590868E+03  0.41739873505E+03  0.17200000000E+03 0.  1.
</event>
<event>
 4    1  0.5743594E+000  0.1910792E+03  0.7818608E-02  0.1157492E+00
         21   -1    0    0  501  502  0.00000000000E+00  0.00000000000E+00  0.65703618410E+03  0.65703618410E+03  0.00000000000E+00 0.  1.
         21   -1    0    0  502  503 -0.00000000000E+00 -0.00000000000E+00 -0.63445676991E+02  0.63445676991E+02  0.00000000000E+00 0.  1.
          6    1    1    2  501    0 -0.73810503676E+02  0.38461231505E+02  0.42371997632E+03  0.46481165553E+03  0.17200000000E+03 0.  1.
         -6    1    1    2    0  503  0.73810503676E+02 -0.38461231505E+02  0.16987053079E+03  0.25567020556E+03  0.17200000000E+03 0.  1.
</event>
<event>
 4    1  0.5743594E+000  0.2143556E+03  0.7818608E-02  0.1138163E+00
         21   -1    0    0  503  502  0.00000000000E+00  0.00000000000E+00  0.56300838899E+03  0.56300838899E+03  0.00000000000E+00 0. -1.
         21   -1    0    0  501  503 -0.00000000000E+00 -0.00000000000E+00 -0.13075908349E+03  0.13075908349E+03  0.00000000000E+00 0. -1.
          6    1    1    2  501    0 -0.10580385371E+03 -0.71901730130E+02  0.34595148409E+01  0.21438349400E+03  0.17200000000E+03 0. -1.
         -6    1    1    2    0  502  0.10580385371E+03  0.71901730130E+02  0.42878979066E+03  0.47938397848E+03  0.17200000000E+03 0. -1.
</event>
<event>
 4    1  0.5743594E+000  0.1839915E+03  0.7818608E-02  0.1163995E+00
         21   -1    0    0  501  502  0.00000000000E+00  0.00000000000E+00  0.49978139202E+03  0.49978139202E+03  0.00000000000E+00 0.  1.
         21   -1    0    0  502  503 -0.00000000000E+00 -0.00000000000E+00 -0.11209431062E+03  0.11209431062E+03  0.00000000000E+00 0.  1.
          6    1    1    2  501    0  0.34725290030E+01 -0.65244221139E+02  0.38629983278E+03  0.42787898716E+03  0.17200000000E+03 0.  1.
         -6    1    1    2    0  503 -0.34725290030E+01  0.65244221139E+02  0.13872486218E+01  0.18399671548E+03  0.17200000000E+03 0.  1.
</event>
<event>
 4    1  0.5743594E+000  0.1804286E+03  0.7818608E-02  0.1167389E+00
         21   -1    0    0  503  502  0.00000000000E+00  0.00000000000E+00  0.36240897868E+03  0.36240897868E+03  0.00000000000E+00 0.  1.
         21   -1    0    0  501  503 -0.00000000000E+00 -0.00000000000E+00 -0.91188209671E+02  0.91188209671E+02  0.00000000000E+00 0.  1.
          6    1    1    2  501    0 -0.26234547104E+02  0.47772725649E+02  0.10791106630E+03  0.21023625522E+03  0.17200000000E+03 0.  1.
         -6    1    1    2    0  502  0.26234547104E+02 -0.47772725649E+02  0.16330970271E+03  0.24336093314E+03  0.17200000000E+03 0.  1.
</event>
<event>
 4    1  0.5743594E+000  0.2046314E+03  0.7818608E-02  0.1145889E+00
         21   -1    0    0  501  502  0.00000000000E+00  0.00000000000E+00  0.12441584086E+04  0.12441584086E+04  0.00000000000E+00 0. -1.
         21   -1    0    0  502  503 -0.00000000000E+00 -0.00000000000E+00 -0.64159543973E+02  0.64159543973E+02  0.00000000000E+00 0. -1.
          6    1    1    2  501    0  0.63227456586E+02 -0.91061953075E+02  0.10410491500E+04  0.10609699917E+04  0.17200000000E+03 0. -1.
         -6    1    1    2    0  503 -0.63227456586E+02  0.91061953075E+02  0.13894971467E+03  0.24734796092E+03  0.17200000000E+03 0. -1.
</event>
<event>
 4    1  0.5743594E+000  0.2027722E+03  0.7818608E-02  0.1147421E+00
         21   -1    0    0  501  502  0.00000000000E+00  0.00000000000E+00  0.22981639563E+03  0.22981639563E+03  0.00000000000E+00 0.  1.
         21   -1    0    0  502  503 -0.00000000000E+00 -0.00000000000E+00 -0.60469961614E+03  0.60469961614E+03  0.00000000000E+00 0.  1.
          6    1    1    2  501    0  0.10667535358E+03  0.12366070417E+02  0.16269066351E+03  0.25997077288E+03  0.17200000000E+03 0.  1.
         -6    1    1    2    0  503 -0.10667535358E+03 -0.12366070417E+02 -0.53757388401E+03  0.57454523889E+03  0.17200000000E+03 0.  1.
</event>
<event>
 4    1  0.5743594E+000  0.2686579E+03  0.7818608E-02  0.1102050E+00
         21   -1    0    0  503  502  0.00000000000E+00  0.00000000000E+00  0.33012882139E+03  0.33012882139E+03  0.00000000000E+00 0. -1.
         21   -1    0    0  501  503 -0.00000000000E+00 -0.00000000000E+00 -0.11750297956E+04  0.11750297956E+04  0.00000000000E+00 0.  1.
          6    1    1    2  501    0  0.82227596636E+02 -0.18929264135E+03  0.25651370635E+03  0.37145169708E+03  0.17200000000E+03 0. -1.
         -6    1    1    2    0  502 -0.82227596636E+02  0.18929264135E+03 -0.11014146806E+04  0.11337069200E+04  0.17200000000E+03 0.  1.
</event>
<event>
 4    1  0.5743594E+000  0.1828835E+03  0.7818608E-02  0.1165041E+00
         21   -1    0    0  503  502  0.00000000000E+00  0.00000000000E+00  0.40400203464E+02  0.40400203464E+02  0.00000000000E+00 0.  1.
         21   -1    0    0  501  503 -0.00000000000E+00 -0.00000000000E+00 -0.12573981399E+04  0.12573981399E+04  0.00000000000E+00 0.  1.
          6    1    1    2  501    0 -0.85805776289E+00  0.62142169007E+02 -0.22924227191E+03  0.29325484593E+03  0.17200000000E+03 0.  1.
         -6    1    1    2    0  502  0.85805776289E+00 -0.62142169007E+02 -0.98775566454E+03  0.10045434975E+04  0.17200000000E+03 0.  1.
</event>
<event>
 4    1  0.5743594E+000  0.1784871E+03  0.7818608E-02  0.1169275E+00
         21   -1    0    0  503  502  0.00000000000E+00  0.00000000000E+00  0.10045409936E+03  0.10045409936E+03  0.00000000000E+00 0. -1.
         21   -1    0    0  501  503 -0.00000000000E+00 -0.00000000000E+00 -0.33280393793E+03  0.33280393793E+03  0.00000000000E+00 0. -1.
          6    1    1    2  501    0 -0.46023447644E+02  0.12469367954E+02 -0.69172094026E+02  0.19142210286E+03  0.17200000000E+03 0.  1.
         -6    1    1    2    0  502  0.46023447644E+02 -0.12469367954E+02 -0.16317774454E+03  0.24183593443E+03  0.17200000000E+03 0.  1.
</event>
<event>
 4    1  0.5743594E+000  0.2169049E+03  0.7818608E-02  0.1136212E+00
         21   -1    0    0  501  502  0.00000000000E+00  0.00000000000E+00  0.14111037330E+03  0.14111037330E+03  0.00000000000E+00 0.  1.
         21   -1    0    0  502  503 -0.00000000000E+00 -0.00000000000E+00 -0.37358864894E+03  0.37358864894E+03  0.00000000000E+00 0.  1.
          6    1    1    2  501    0 -0.28536777998E+02 -0.12903242930E+03 -0.31843476996E+02  0.21922983952E+03  0.17200000000E+03 0.  1.
         -6    1    1    2    0  503  0.28536777998E+02  0.12903242930E+03 -0.20063479864E+03  0.29546918272E+03  0.17200000000E+03 0.  1.
</event>
<event>
 4    1  0.5743594E+000  0.2286565E+03  0.7818608E-02  0.1127589E+00
         21   -1    0    0  503  502  0.00000000000E+00  0.00000000000E+00  0.81538230574E+03  0.81538230574E+03  0.00000000000E+00 0.  1.
         21   -1    0    0  501  503 -0.00000000000E+00 -0.00000000000E+00 -0.67664669945E+02  0.67664669945E+02  0.00000000000E+00 0. -1.
          6    1    1    2  501    0  0.10170497484E+03 -0.11115699430E+03  0.47488886871E+03  0.52707040983E+03  0.17200000000E+03 0.  1.
         -6    1    1    2    0  502 -0.10170497484E+03  0.11115699430E+03  0.27282876708E+03  0.35597656585E+03  0.17200000000E+03 0. -1.
</event>
<event>
 4    1  0.5743594E+000  0.2105198E+03  0.7818608E-02  0.1141155E+00
         21   -1    0    0  503  502  0.00000000000E+00  0.00000000000E+00  0.10295535542E+03  0.10295535542E+03  0.00000000000E+00 0. -1.
         21   -1    0    0  501  503 -0.00000000000E+00 -0.00000000000E+00 -0.43600578556E+03  0.43600578556E+03  0.00000000000E+00 0.  1.
          6    1    1    2  501    0 -0.11322088025E+03 -0.43767941426E+02 -0.19690580335E+03  0.28825422081E+03  0.17200000000E+03 0. -1.
         -6    1    1    2    0  502  0.11322088025E+03  0.43767941426E+02 -0.13614462678E+03  0.25070692017E+03  0.17200000000E+03 0.  1.
</event>
<event>
 4    1  0.5743594E+000  0.3551101E+03  0.7818608E-02  0.1060537E+00
         21   -1    0    0  501  502  0.00000000000E+00  0.00000000000E+00  0.19352607609E+03  0.19352607609E+03  0.00000000000E+00 0.  1.
         21   -1    0    0  502  503 -0.00000000000E+00 -0.00000000000E+00 -0.66336209105E+03  0.66336209105E+03  0.00000000000E+00 0.  1.
          6    1    1    2  501    0  0.30297528611E+03 -0.68739874329E+02 -0.29194862929E+03  0.45971425523E+03  0.17200000000E+03 0.  1.
         -6    1    1    2    0  503 -0.30297528611E+03  0.68739874329E+02 -0.17788738566E+03  0.39717391190E+03  0.17200000000E+03 0.  1.
</event>
<event>
 4    1  0.5743594E+000  0.2175930E+03  0.7818608E-02  0.1135690E+00
         21   -1    0    0  503  502  0.00000000000E+00  0.00000000000E+00  0.50773121714E+02  0.50773121714E+02  0.00000000000E+00 0.  1.
         21   -1    0    0  501  503 -0.00000000000E+00 -0.00000000000E+00 -0.98349257061E+03  0.98349257061E+03  0.00000000000E+00 0. -1.
          6    1    1    2  501    0  0.82458440556E+02 -0.10470593633E+03 -0.58409419585E+03  0.62330791520E+03  0.17200000000E+03 0. -1.
         -6    1    1    2    0  502 -0.82458440556E+02  0.10470593633E+03 -0.34862525304E+03  0.41095777713E+03  0.17200000000E+03 0. -1.
</event>
<event>
 4    1  0.5743594E+000  0.3064862E+03  0.7818608E-02  0.1082042E+00
         21   -1    0    0  501  502  0.00000000000E+00  0.00000000000E+00  0.24588106613E+03  0.24588106613E+03  0.00000000000E+00 0.  1.
         21   -1    0    0  502  503 -0.00000000000E+00 -0.00000000000E+00 -0.81785324267E+03  0.81785324267E+03  0.00000000000E+00 0. -1.
          6    1    1    2  501    0  0.22776922600E+03  0.11167362894E+03  0.10227237054E+03  0.32309976399E+03  0.17200000000E+03 0.  1.
         -6    1    1    2    0  503 -0.22776922600E+03 -0.11167362894E+03 -0.67424454707E+03  0.74063454481E+03  0.17200000000E+03 0. -1.
</event>
<event>
 4    1  0.5743594E+000  0.2648470E+03  0.7818608E-02  0.1104266E+00
         21   -1    0    0  503  502  0.00000000000E+00  0.00000000000E+00  0.15663517199E+03  0.15663517199E+03  0.00000000000E+00 0.  1.
         21   -1    0    0  501  503 -0.00000000000E+00 -0.00000000000E+00 -0.13331274303E+04  0.13331274303E+04  0.00000000000E+00 0.  1.
          6    1    1    2  501    0 -0.11082890248E+03 -0.16815729959E+03 -0.11952605142E+04  0.12242514528E+04  0.17200000000E+03 0.  1.
         -6    1    1    2    0  502  0.11082890248E+03  0.16815729959E+03  0.18768255911E+02  0.26551114941E+03  0.17200000000E+03 0.  1.
</event>
<event>
 4    1  0.5743594E+000  0.2344616E+03  0.7818608E-02  0.1123538E+00
         21   -1    0    0  503  502  0.00000000000E+00  0.00000000000E+00  0.53958336871E+02  0.53958336871E+02  0.00000000000E+00 0.  1.
         21   -1    0    0  501  503 -0.00000000000E+00 -0.00000000000E+00 -0.10938181307E+04  0.10938181307E+04  0.00000000000E+00 0.  1.
          6    1    1    2  501    0  0.25635208857E+02  0.15726112975E+03 -0.67023237332E+03  0.71005891383E+03  0.17200000000E+03 0.  1.
         -6    1    1    2    0  502 -0.25635208857E+02 -0.15726112975E+03 -0.36962742055E+03  0.43771755378E+03  0.17200000000E+03 0.  1.
</event>
<event>
 4    1  0.5743594E+000  0.1818555E+03  0.7818608E-02  0.1166019E+00
         21   -1    0    0  503  502  0.00000000000E+00  0.00000000000E+00  0.15197659857E+04  0.15197659857E+04  0.00000000000E+00 0.  1.
         21   -1    0    0  501  503 -0.00000000000E+00 -0.00000000000E+00 -0.37306876070E+02  0.37306876070E+02  0.00000000000E+00 0. -1.
          6    1    1    2  501    0 -0.52817217455E+02  0.26415037772E+02  0.23866243278E+03  0.30005194467E+03  0.17200000000E+03 0. -1.
         -6    1    1    2    0  502  0.52817217455E+02 -0.26415037772E+02  0.12437966768E+04  0.12570209171E+04  0.17200000000E+03 0.  1.
</event>
<event>
 4    1  0.5743594E+000  0.1858725E+03  0.7818608E-02  0.1162238E+00
         21   -1    0    0  503  502  0.00000000000E+00  0.00000000000E+00  0.48266178192E+03  0.48266178192E+03  0.00000000000E+00 0.  1.
         21   -1    0    0  501  503 -0.00000000000E+00 -0.00000000000E+00 -0.16106984393E+03  0.16106984393E+03  0.00000000000E+00 0.  1.
          6    1    1    2  501    0  0.69196237177E+02 -0.13284418555E+02 -0.79118418256E+02  0.20201069062E+03  0.17200000000E+03 0.  1.
         -6    1    1    2    0  502 -0.69196237177E+02  0.13284418555E+02  0.40071035624E+03  0.44172093523E+03  0.17200000000E+03 0.  1.
</event>
<event>
 4    1  0.5743594E+000  0.2422764E+03  0.7818608E-02  0.1118286E+00
         21   -1    0    0  503  502  0.00000000000E+00  0.00000000000E+00  0.24510340037E+03  0.24510340037E+03  0.00000000000E+00 0.  1.
         21   -1    0    0  501  503 -0.00000000000E+00 -0.00000000000E+00 -0.31825128677E+03  0.31825128677E+03  0.00000000000E+00 0. -1.
          6    1    1    2  501    0 -0.13769143825E+03  0.10077164092E+03 -0.17670850253E+03  0.29987289082E+03  0.17200000000E+03 0. -1.
         -6    1    1    2    0  502  0.13769143825E+03 -0.10077164092E+03  0.10356061612E+03  0.26348179632E+03  0.17200000000E+03 0.  1.
</event>
<event>
 4    1  0.5743594E+000  0.1856073E+03  0.7818608E-02  0.1162484E+00
         21   -1    0    0  501  502  0.00000000000E+00  0.00000000000E+00  0.41520055121E+03  0.41520055121E+03  0.00000000000E+00 0.  1.
         21   -1    0    0  502  503 -0.00000000000E+00 -0.00000000000E+00 -0.84271557673E+02  0.84271557673E+02  0.00000000000E+00 0.  1.
          6    1    1    2  501    0 -0.35499153120E+02 -0.60048866012E+02  0.19647608488E+03  0.27028301484E+03  0.17200000000E+03 0.  1.
         -6    1    1    2    0  503  0.35499153120E+02  0.60048866012E+02  0.13445290866E+03  0.22918909404E+03  0.17200000000E+03 0.  1.
</event>
<event>
 4    1  0.5743594E+000  0.2882417E+03  0.7818608E-02  0.1091271E+00
         21   -1    0    0  501  502  0.00000000000E+00  0.00000000000E+00  0.89422560041E+03  0.89422560041E+03  0.00000000000E+00 0. -1.
         21   -1    0    0  502  503 -0.00000000000E+00 -0.00000000000E+00 -0.19936725960E+03  0.19936725960E+03  0.00000000000E+00 0.  1.
          6    1    1    2  501    0 -0.22984427161E+03 -0.25901983894E+02  0.74699152516E+03  0.80067449106E+03  0.17200000000E+03 0. -1.
         -6    1    1    2    0  503  0.22984427161E+03  0.25901983894E+02 -0.52133184347E+02  0.29291836896E+03  0.17200000000E+03 0.  1.
</event>
<event>
 4    1  0.5743594E+000  0.2668765E+03  0.7818608E-02  0.1103081E+00
         21   -1    0    0  501  502  0.00000000000E+00  0.00000000000E+00  0.36827190959E+03  0.36827190959E+03  0.00000000000E+00 0. -1.
         21   -1    0    0  502  503 -0.00000000000E+00 -0.00000000000E+00 -0.23874193452E+03  0.23874193452E+03  0.00000000000E+00 0.  1.
          6    1    1    2  501    0  0.11356979070E+03 -0.16953157551E+03  0.19703574023E+03  0.33173202345E+03  0.17200000000E+03 0.  1.
         -6    1    1    2    0  503 -0.11356979070E+03  0.16953157551E+03 -0.67505765157E+02  0.27528182066E+03  0.17200000000E+03 0.  1.
</event>
<event>
 4    1  0.5743594E+000  0.2843060E+03  0.7818608E-02  0.1093360E+00
         21   -1    0    0  503  502  0.00000000000E+00  0.00000000000E+00  0.41682194737E+03  0.41682194737E+03  0.00000000000E+00 0. -1.
         21   -1    0    0  501  503 -0.00000000000E+00 -0.00000000000E+00 -0.21118362302E+03  0.21118362302E+03  0.00000000000E+00 0. -1.
          6    1    1    2  501    0  0.21362971125E+03  0.74888278859E+02  0.19259831766E+03  0.34340066949E+03  0.17200000000E+03 0. -1.
         -6    1    1    2    0  502 -0.21362971125E+03 -0.74888278859E+02  0.13040006698E+02  0.28460490090E+03  0.17200000000E+03 0. -1.
</event>
<event>
 4    1  0.5743594E+000  0.3056583E+03  0.7818608E-02  0.1082446E+00
         21   -1    0    0  503  502  0.00000000000E+00  0.00000000000E+00  0.10167634552E+04  0.10167634552E+04  0.00000000000E+00 0.  1.
         21   -1    0    0  501  503 -0.00000000000E+00 -0.00000000000E+00 -0.10312110743E+03  0.10312110743E+03  0.00000000000E+00 0. -1.
          6    1    1    2  501    0  0.20266685605E+03  0.15089444226E+03  0.64163971552E+03  0.71072393500E+03  0.17200000000E+03 0.  1.
         -6    1    1    2    0  502 -0.20266685605E+03 -0.15089444226E+03  0.27200263223E+03  0.40916062761E+03  0.17200000000E+03 0. -1.
</event>
<event>
 4    1  0.5743594E+000  0.2044366E+03  0.7818608E-02  0.1146049E+00
         21   -1    0    0  503  502  0.00000000000E+00  0.00000000000E+00  0.14432544490E+03  0.14432544490E+03  0.00000000000E+00 0.  1.
         21   -1    0    0  501  503 -0.00000000000E+00 -0.00000000000E+00 -0.30091605422E+03  0.30091605422E+03  0.00000000000E+00 0. -1.
          6    1    1    2  501    0  0.10963027273E+03  0.13838916800E+02 -0.35093597325E+02  0.20742678923E+03  0.17200000000E+03 0.  1.
         -6    1    1    2    0  502 -0.10963027273E+03 -0.13838916800E+02 -0.12149701199E+03  0.23781470989E+03  0.17200000000E+03 0. -1.
</event>
<event>
 4    1  0.5743594E+000  0.1918993E+03  0.7818608E-02  0.1156759E+00
         21   -1    0    0  501  502  0.00000000000E+00  0.00000000000E+00  0.65392574940E+02  0.65392574940E+02  0.00000000000E+00 0. -1.
         21   -1    0    0  502  503 -0.00000000000E+00 -0.00000000000E+00 -0.19523502201E+04  0.19523502201E+04  0.00000000000E+00 0. -1.
          6    1    1    2  501    0 -0.19882435493E+02 -0.82740732534E+02 -0.92457314777E+02  0.21301102112E+03  0.17200000000E+03 0. -1.
         -6    1    1    2    0  503  0.19882435493E+02  0.82740732534E+02 -0.17945003304E+04  0.18047317739E+04  0.17200000000E+03 0. -1.
</event>
<event>
 4    1  0.5743594E+000  0.2407656E+03  0.7818608E-02  0.1119284E+00
         21   -1    0    0  503  502  0.00000000000E+00  0.00000000000E+00  0.49575709322E+03  0.49575709322E+03  0.00000000000E+00 0. -1.
         21   -1    0    0  501  503 -0.00000000000E+00 -0.00000000000E+00 -0.18870626627E+03  0.18870626627E+03  0.00000000000E+00 0. -1.
          6    1    1    2  501    0  0.79850329263E+02 -0.14835098099E+03 -0.57542535419E+02  0.24754642398E+03  0.17200000000E+03 0. -1.
         -6    1    1    2    0  502 -0.79850329263E+02  0.14835098099E+03  0.36459336238E+03  0.43691693551E+03  0.17200000000E+03 0. -1.
</event>
<event>
 4    1  0.5743594E+000  0.2237894E+03  0.7818608E-02  0.1131089E+00
         21   -1    0    0  501  502  0.00000000000E+00  0.00000000000E+00  0.35769844589E+03  0.35769844589E+03  0.00000000000E+00 0.  1.
         21   -1    0    0  502  503 -0.00000000000E+00 -0.00000000000E+00 -0.35708982931E+03  0.35708982931E+03  0.00000000000E+00 0.  1.
          6    1    1    2  501    0  0.12668782150E+03  0.66692444466E+02  0.27895973532E+03  0.35763140270E+03  0.17200000000E+03 0.  1.
         -6    1    1    2    0  503 -0.12668782150E+03 -0.66692444466E+02 -0.27835111875E+03  0.35715687250E+03  0.17200000000E+03 0.  1.
</event>
<event>
 4    1  0.5743594E+000  0.1739241E+03  0.7818608E-02  0.1173816E+00
         21   -1    0    0  503  502  0.00000000000E+00  0.00000000000E+00  0.77788308567E+02  0.77788308567E+02  0.00000000000E+00 0. -1.
         21   -1    0    0  501  503 -0.00000000000E+00 -0.00000000000E+00 -0.39510541106E+03  0.39510541106E+03  0.00000000000E+00 0. -1.
          6    1    1    2  501    0 -0.44306903804E+01 -0.25415698786E+02 -0.12895642260E+03  0.21651639128E+03  0.17200000000E+03 0. -1.
         -6    1    1    2    0  502  0.44306903804E+01  0.25415698786E+02 -0.18836067989E+03  0.25637732835E+03  0.17200000000E+03 0. -1.
</event>
<event>
 4    1  0.5743594E+000  0.2082457E+03  0.7818608E-02  0.1142963E+00
         21   -1    0    0  501  502  0.00000000000E+00  0.00000000000E+00  0.99672500755E+02  0.99672500755E+02  0.00000000000E+00 0.  1.
         21   -1    0    0  502  503 -0.00000000000E+00 -0.00000000000E+00 -0.68447727067E+03  0.68447727067E+03  0.00000000000E+00 0. -1.
          6    1    1    2  501    0 -0.46800375997E+02 -0.10766621427E+03 -0.55740364838E+02  0.21557661553E+03  0.17200000000E+03 0.  1.
         -6    1    1    2    0  503  0.46800375997E+02  0.10766621427E+03 -0.52906440508E+03  0.56857315590E+03  0.17200000000E+03 0. -1.
</event>
<event>
 4    1  0.5743594E+000  0.2052911E+03  0.7818608E-02  0.1145350E+00
         21   -1    0    0  503  502  0.00000000000E+00  0.00000000000E+00  0.19741234870E+03  0.19741234870E+03  0.00000000000E+00 0.  1.
         21   -1    0    0  501  503 -0.00000000000E+00 -0.00000000000E+00 -0.40348095892E+03  0.40348095892E+03  0.00000000000E+00 0.  1.
          6    1    1    2  501    0  0.10688107620E+03  0.33717659867E+02 -0.30920587848E+03  0.37115053594E+03  0.17200000000E+03 0.  1.
         -6    1    1    2    0  502 -0.10688107620E+03 -0.33717659867E+02  0.10313726826E+03  0.22974277169E+03  0.17200000000E+03 0.  1.
</event>
<event>
 4    1  0.5743594E+000  0.1955077E+03  0.7818608E-02  0.1153585E+00
         21   -1    0    0  503  502  0.00000000000E+00  0.00000000000E+00  0.17809889789E+02  0.17809889789E+02  0.00000000000E+00 0. -1.
         21   -1    0    0  501  503 -0.00000000000E+00 -0.00000000000E+00 -0.21477178557E+04  0.21477178557E+04  0.00000000000E+00 0. -1.
          6    1    1    2  501    0  0.84388405893E+02 -0.38959803155E+02 -0.10939064259E+04  0.11112400902E+04  0.17200000000E+03 0. -1.
         -6    1    1    2    0  502 -0.84388405893E+02  0.38959803155E+02 -0.10360015399E+04  0.10542876553E+04  0.17200000000E+03 0. -1.
</event>
<event>
 4    1  0.5743594E+000  0.2209066E+03  0.7818608E-02  0.1133209E+00
         21   -1    0    0  501  502  0.00000000000E+00  0.00000000000E+00  0.12496263436E+03  0.12496263436E+03  0.00000000000E+00 0. -1.
         21   -1    0    0  502  503 -0.00000000000E+00 -0.00000000000E+00 -0.39061554734E+03  0.39061554734E+03  0.00000000000E+00 0. -1.
          6    1    1    2  501    0  0.31113370575E+02 -0.13508406154E+03 -0.13696859602E+03  0.25992333832E+03  0.17200000000E+03 0. -1.
         -6    1    1    2    0  503 -0.31113370575E+02  0.13508406154E+03 -0.12868431697E+03  0.25565484338E+03  0.17200000000E+03 0. -1.
</event>
<event>
 4    1  0.5743594E+000  0.1826527E+03  0.7818608E-02  0.1165260E+00
         21   -1    0    0  501  502  0.00000000000E+00  0.00000000000E+00  0.20875407711E+02  0.20875407711E+02  0.00000000000E+00 0.  1.
         21   -1    0    0  502  503 -0.00000000000E+00 -0.00000000000E+00 -0.17676016188E+04  0.17676016188E+04  0.00000000000E+00 0.  1.
          6    1    1    2  501    0 -0.61403904417E+02  0.27503725156E+01 -0.59648679176E+03  0.62382569422E+03  0.17200000000E+03 0.  1.
         -6    1    1    2    0  503  0.61403904417E+02 -0.27503725156E+01 -0.11502394193E+04  0.11646513323E+04  0.17200000000E+03 0.  1.
</event>
<event>
 4    1  0.5743594E+000  0.1754869E+03  0.7818608E-02  0.1172244E+00
         21   -1    0    0  503  502  0.00000000000E+00  0.00000000000E+00  0.35524956395E+03  0.35524956395E+03  0.00000000000E+00 0. -1.
         21   -1    0    0  501  503 -0.00000000000E+00 -0.00000000000E+00 -0.88780474380E+02  0.88780474380E+02  0.00000000000E+00 0. -1.
          6    1    1    2  501    0 -0.28656593900E+02 -0.19759530753E+02  0.99144916212E+02  0.20155732148E+03  0.17200000000E+03 0. -1.
         -6    1    1    2    0  502  0.28656593900E+02  0.19759530753E+02  0.16732417336E+03  0.24247271686E+03  0.17200000000E+03 0. -1.
</event>
<event>
 4    1  0.5743594E+000  0.1959968E+03  0.7818608E-02  0.1153161E+00
         21   -1    0    0  501  502  0.00000000000E+00  0.00000000000E+00  0.11805261326E+03  0.11805261326E+03  0.00000000000E+00 0. -1.
         21   -1    0    0  502  503 -0.00000000000E+00 -0.00000000000E+00 -0.85395170612E+03  0.85395170612E+03  0.00000000000E+00 0. -1.
          6    1    1    2  501    0  0.93963113115E+02  0.12973140712E+01  0.14402826150E+02  0.19652529367E+03  0.17200000000E+03 0. -1.
         -6    1    1    2    0  503 -0.93963113115E+02 -0.12973140712E+01 -0.75030191901E+03  0.77547902571E+03  0.17200000000E+03 0. -1.
</event>
<event>
 4    1  0.5743594E+000  0.1734271E+03  0.7818608E-02  0.1174320E+00
         21   -1    0    0  501  502  0.00000000000E+00  0.00000000000E+00  0.24923512216E+02  0.24923512216E+02  0.00000000000E+00 0.  1.
         21   -1    0    0  502  503 -0.00000000000E+00 -0.00000000000E+00 -0.12312013816E+04  0.12312013816E+04  0.00000000000E+00 0.  1.
          6    1    1    2  501    0 -0.14395774287E+02  0.16903681170E+02 -0.51466750394E+03  0.54310184345E+03  0.17200000000E+03 0.  1.
         -6    1    1    2    0  503  0.14395774287E+02 -0.16903681170E+02 -0.69161036549E+03  0.71302305040E+03  0.17200000000E+03 0.  1.
</event>
<event>
 4    1  0.5743594E+000  0.2313172E+03  0.7818608E-02  0.1125716E+00
         21   -1    0    0  503  502  0.00000000000E+00  0.00000000000E+00  0.83118090111E+03  0.83118090111E+03  0.00000000000E+00 0.  1.
         21   -1    0    0  501  503 -0.00000000000E+00 -0.00000000000E+00 -0.10746273167E+03  0.10746273167E+03  0.00000000000E+00 0. -1.
          6    1    1    2  501    0 -0.14723965560E+03  0.47372271440E+02  0.65903686194E+03  0.69845345849E+03  0.17200000000E+03 0.  1.
         -6    1    1    2    0  502  0.14723965560E+03 -0.47372271440E+02  0.64681307505E+02  0.24019017428E+03  0.17200000000E+03 0. -1.
</event>
<event>
 4    1  0.5743594E+000  0.1739914E+03  0.7818608E-02  0.1173748E+00
         21   -1    0    0  501  502  0.00000000000E+00  0.00000000000E+00  0.49688532579E+03  0.49688532579E+03  0.00000000000E+00 0.  1.
         21   -1    0    0  502  503 -0.00000000000E+00 -0.00000000000E+00 -0.74042697054E+02  0.74042697054E+02  0.00000000000E+00 0.  1.
          6    1    1    2  501    0  0.25688863691E+02  0.53930238255E+01  0.33157310684E+03  0.37445123528E+03  0.17200000000E+03 0.  1.
         -6    1    1    2    0  503 -0.25688863691E+02 -0.53930238255E+01  0.91269521895E+02  0.19647678756E+03  0.17200000000E+03 0.  1.
</event>
<event>
 4    1  0.5743594E+000  0.1910858E+03  0.7818608E-02  0.1157486E+00
         21   -1    0    0  501  502  0.00000000000E+00  0.00000000000E+00  0.19711651416E+03  0.19711651416E+03  0.00000000000E+00 0. -1.
         21   -1    0    0  502  503 -0.00000000000E+00 -0.00000000000E+00 -0.23658685615E+03  0.23658685615E+03  0.00000000000E+00 0.  1.
          6    1    1    2  501    0  0.83210392180E+02 -0.24090235040E+01  0.81289248021E+02  0.20765768612E+03  0.17200000000E+03 0. -1.
         -6    1    1    2    0  503 -0.83210392180E+02  0.24090235040E+01 -0.12075959001E+03  0.22604568419E+03  0.17200000000E+03 0. -1.
</event>
<event>
 4    1  0.5743594E+000  0.1942483E+03  0.7818608E-02  0.1154685E+00
         21   -1    0    0  503  502  0.00000000000E+00  0.00000000000E+00  0.64716804478E+03  0.64716804478E+03  0.00000000000E+00 0.  1.
         21   -1    0    0  501  503 -0.00000000000E+00 -0.00000000000E+00 -0.64580331517E+02  0.64580331517E+02  0.00000000000E+00 0.  1.
          6    1    1    2  501    0 -0.11135869114E+02  0.89578939849E+02  0.18034976191E+03  0.26506306922E+03  0.17200000000E+03 0.  1.
         -6    1    1    2    0  502  0.11135869114E+02 -0.89578939849E+02  0.40223795136E+03  0.44668530707E+03  0.17200000000E+03 0.  1.
</event>
<event>
 4    1  0.5743594E+000  0.1812335E+03  0.7818608E-02  0.1166615E+00
         21   -1    0    0  501  502  0.00000000000E+00  0.00000000000E+00  0.10426754276E+03  0.10426754276E+03  0.00000000000E+00 0. -1.
         21   -1    0    0  502  503 -0.00000000000E+00 -0.00000000000E+00 -0.50644119414E+03  0.50644119414E+03  0.00000000000E+00 0. -1.
          6    1    1    2  501    0 -0.52620522030E+02  0.22195864462E+02 -0.38882093333E+03  0.42898402527E+03  0.17200000000E+03 0. -1.
         -6    1    1    2    0  503  0.52620522030E+02 -0.22195864462E+02 -0.13352718039E+02  0.18172471163E+03  0.17200000000E+03 0. -1.
</event>
<event>
 4    1  0.5743594E+000  0.1862546E+03  0.7818608E-02  0.1161883E+00
         21   -1    0    0  501  502  0.00000000000E+00  0.00000000000E+00  0.33681299980E+03  0.33681299980E+03  0.00000000000E+00 0.  1.
         21   -1    0    0  502  503 -0.00000000000E+00 -0.00000000000E+00 -0.10389156428E+03  0.10389156428E+03  0.00000000000E+00 0.  1.
          6    1    1    2  501    0  0.62429363483E+02 -0.34775672666E+02  0.96015051820E+02  0.20954632664E+03  0.17200000000E+03 0.  1.
         -6    1    1    2    0  503 -0.62429363483E+02  0.34775672666E+02  0.13690638370E+03  0.23115823743E+03  0.17200000000E+03 0.  1.
</event>
<event>
 4    1  0.5743594E+000  0.1787218E+03  0.7818608E-02  0.1169046E+00
         21   -1    0    0  501  502  0.00000000000E+00  0.00000000000E+00  0.64844832841E+03  0.64844832841E+03  0.00000000000E+00 0.  1.
         21   -1    0    0  502  503 -0.00000000000E+00 -0.00000000000E+00 -0.55531101596E+02  0.55531101596E+02  0.00000000000E+00 0.  1.
          6    1    1    2  501    0 -0.42220180251E+02 -0.23978144487E+02  0.17815694834E+03  0.25235172532E+03  0.17200000000E+03 0.  1.
         -6    1    1    2    0  503  0.42220180251E+02  0.23978144487E+02  0.41476027848E+03  0.45162770468E+03  0.17200000000E+03 0.  1.
</event>
<event>
 4    1  0.5743594E+000  0.1726864E+03  0.7818608E-02  0.1175075E+00
         21   -1    0    0  503  502  0.00000000000E+00  0.00000000000E+00  0.28805632903E+03  0.28805632903E+03  0.00000000000E+00 0.  1.
         21   -1    0    0  501  503 -0.00000000000E+00 -0.00000000000E+00 -0.19417164863E+03  0.19417164863E+03  0.00000000000E+00 0.  1.
          6    1    1    2  501    0 -0.72821612363E+01 -0.13548598904E+02 -0.11780143332E+03  0.20904012078E+03  0.17200000000E+03 0.  1.
         -6    1    1    2    0  502  0.72821612363E+01  0.13548598904E+02  0.21168611372E+03  0.27318785688E+03  0.17200000000E+03 0.  1.
</event>
<event>
 4    1  0.5743594E+000  0.2008482E+03  0.7818608E-02  0.1149025E+00
         21   -1    0    0  503  502  0.00000000000E+00  0.00000000000E+00  0.44291173603E+02  0.44291173603E+02  0.00000000000E+00 0. -1.
         21   -1    0    0  501  503 -0.00000000000E+00 -0.00000000000E+00 -0.99296354253E+03  0.99296354253E+03  0.00000000000E+00 0. -1.
          6    1    1    2  501    0  0.48689282400E+01  0.10359673015E+03 -0.62353072418E+03  0.65508056983E+03  0.17200000000E+03 0. -1.
         -6    1    1    2    0  502 -0.48689282400E+01 -0.10359673015E+03 -0.32514164474E+03  0.38217414631E+03  0.17200000000E+03 0. -1.
</event>
<event>
 4    1  0.5743594E+000  0.1897167E+03  0.7818608E-02  0.1158717E+00
         21   -1    0    0  501  502  0.00000000000E+00  0.00000000000E+00  0.57979119967E+03  0.57979119967E+03  0.00000000000E+00 0. -1.
         21   -1    0    0  502  503 -0.00000000000E+00 -0.00000000000E+00 -0.77793626667E+02  0.77793626667E+02  0.00000000000E+00 0.  1.
          6    1    1    2  501    0  0.69879592151E+02  0.39054817664E+02  0.39877749362E+03  0.44160607514E+03  0.17200000000E+03 0. -1.
         -6    1    1    2    0  503 -0.69879592151E+02 -0.39054817664E+02  0.10322007939E+03  0.21597875120E+03  0.17200000000E+03 0.  1.
</event>
<event>
 4    1  0.5743594E+000  0.2109356E+03  0.7818608E-02  0.1140827E+00
         21   -1    0    0  501  502  0.00000000000E+00  0.00000000000E+00  0.10149347607E+03  0.10149347607E+03  0.00000000000E+00 0. -1.
         21   -1    0    0  502  503 -0.00000000000E+00 -0.00000000000E+00 -0.44013467348E+03  0.44013467348E+03  0.00000000000E+00 0. -1.
          6    1    1    2  501    0 -0.57376549757E+02  0.10778580137E+03 -0.15227605860E+03  0.26015734751E+03  0.17200000000E+03 0. -1.
         -6    1    1    2    0  503  0.57376549757E+02 -0.10778580137E+03 -0.18636513880E+03  0.28147080204E+03  0.17200000000E+03 0. -1.
</event>
<event>
 4    1  0.5743594E+000  0.1908033E+03  0.7818608E-02  0.1157739E+00
         21   -1    0    0  503  502  0.00000000000E+00  0.00000000000E+00  0.25919992556E+03  0.25919992556E+03  0.00000000000E+00 0. -1.
         21   -1    0    0  501  503 -0.00000000000E+00 -0.00000000000E+00 -0.16063159978E+03  0.16063159978E+03  0.00000000000E+00 0. -1.
          6    1    1    2  501    0  0.74261668211E+02 -0.36153711470E+02 -0.25112795680E+02  0.19244879507E+03  0.17200000000E+03 0.  1.
         -6    1    1    2    0  502 -0.74261668211E+02  0.36153711470E+02  0.12368112146E+03  0.22738273027E+03  0.17200000000E+03 0.  1.
</event>
<event>
 4    1  0.5743594E+000  0.2175427E+03  0.7818608E-02  0.1135728E+00
         21   -1    0    0  501  502  0.00000000000E+00  0.00000000000E+00  0.44564763188E+03  0.44564763188E+03  0.00000000000E+00 0.  1.
         21   -1    0    0  502  503 -0.00000000000E+00 -0.00000000000E+00 -0.13800812870E+03  0.13800812870E+03  0.00000000000E+00 0.  1.
          6    1    1    2  501    0 -0.10882989383E+03 -0.76791241868E+02  0.29393600212E+03  0.36568184801E+03  0.17200000000E+03 0.  1.
         -6    1    1    2    0  503  0.10882989383E+03  0.76791241868E+02  0.13703501055E+02  0.21797391257E+03  0.17200000000E+03 0.  1.
</event>
<event>
 4    1  0.5743594E+000  0.2464401E+03  0.7818608E-02  0.1115575E+00
         21   -1    0    0  501  502  0.00000000000E+00  0.00000000000E+00  0.51491100149E+02  0.51491100149E+02  0.00000000000E+00 0. -1.
         21   -1    0    0  502  503 -0.00000000000E+00 -0.00000000000E+00 -0.19483127430E+04  0.19483127430E+04  0.00000000000E+00 0.  1.
          6    1    1    2  501    0 -0.80765599189E+02  0.15692554196E+03 -0.32028870477E+03  0.40412567616E+03  0.17200000000E+03 0. -1.
         -6    1    1    2    0  503  0.80765599189E+02 -0.15692554196E+03 -0.15765329381E+04  0.15956781670E+04  0.17200000000E+03 0.  1.
</event>
<event>
 4    1  0.5743594E+000  0.3380883E+03  0.7818608E-02  0.1067613E+00
         21   -1    0    0  503  502  0.00000000000E+00  0.00000000000E+00  0.10470865662E+03  0.10470865662E+03  0.00000000000E+00 0. -1.
         21   -1    0    0  501  503 -0.00000000000E+00 -0.00000000000E+00 -0.13325125143E+04  0.13325125143E+04  0.00000000000E+00 0. -1.
          6    1    1    2  501    0 -0.29092011961E+03 -0.92294550898E+01 -0.30837074875E+03  0.45759831460E+03  0.17200000000E+03 0. -1.
         -6    1    1    2    0  502  0.29092011961E+03  0.92294550898E+01 -0.91943310893E+03  0.97962285632E+03  0.17200000000E+03 0. -1.
</event>
<event>
 4    1  0.5743594E+000  0.1952825E+03  0.7818608E-02  0.1153781E+00
         21   -1    0    0  501  502  0.00000000000E+00  0.00000000000E+00  0.13491503903E+03  0.13491503903E+03  0.00000000000E+00 0. -1.
         21   -1    0    0  502  503 -0.00000000000E+00 -0.00000000000E+00 -0.38492456833E+03  0.38492456833E+03  0.00000000000E+00 0. -1.
          6    1    1    2  501    0  0.84083062166E+02 -0.38487645512E+02  0.89664178833E+01  0.19548825246E+03  0.17200000000E+03 0. -1.
         -6    1    1    2    0  503 -0.84083062166E+02  0.38487645512E+02 -0.25897594719E+03  0.32435135489E+03  0.17200000000E+03 0. -1.
</event>
<event>
 4    1  0.5743594E+000  0.2011540E+03  0.7818608E-02  0.1148769E+00
         21   -1    0    0  503  502  0.00000000000E+00  0.00000000000E+00  0.14804104407E+04  0.14804104407E+04  0.00000000000E+00 0.  1.
         21   -1    0    0  501  503 -0.00000000000E+00 -0.00000000000E+00 -0.36861679130E+02  0.36861679130E+02  0.00000000000E+00 0.  1.
          6    1    1    2  501    0 -0.81304923835E+02 -0.65333318466E+02  0.33604777127E+03  0.39165167907E+03  0.17200000000E+03 0.  1.
         -6    1    1    2    0  502  0.81304923835E+02  0.65333318466E+02  0.11075009903E+04  0.11256204407E+04  0.17200000000E+03 0.  1.
</event>
<event>
 4    1  0.5743594E+000  0.2306356E+03  0.7818608E-02  0.1126193E+00
         21   -1    0    0  503  502  0.00000000000E+00  0.00000000000E+00  0.27901428745E+03  0.27901428745E+03  0.00000000000E+00 0.  1.
         21   -1    0    0  501  503 -0.00000000000E+00 -0.00000000000E+00 -0.22231522357E+03  0.22231522357E+03  0.00000000000E+00 0. -1.
          6    1    1    2  501    0 -0.47987635549E+02  0.14596561988E+03 -0.66259340353E+02  0.23996473811E+03  0.17200000000E+03 0. -1.
         -6    1    1    2    0  502  0.47987635549E+02 -0.14596561988E+03  0.12295840423E+03  0.26136477292E+03  0.17200000000E+03 0.  1.
</event>
<event>
 4    1  0.5743594E+000  0.2071642E+03  0.7818608E-02  0.1143832E+00
         21   -1    0    0  503  502  0.00000000000E+00  0.00000000000E+00  0.19193166548E+03  0.19193166548E+03  0.00000000000E+00 0. -1.
         21   -1    0    0  501  503 -0.00000000000E+00 -0.00000000000E+00 -0.22574420098E+03  0.22574420098E+03  0.00000000000E+00 0. -1.
          6    1    1    2  501    0  0.69995492588E+02  0.91834794980E+02 -0.37232842533E+02  0.21048345093E+03  0.17200000000E+03 0. -1.
         -6    1    1    2    0  502 -0.69995492588E+02 -0.91834794980E+02  0.34203070327E+01  0.20719241553E+03  0.17200000000E+03 0. -1.
</event>
<event>
 4    1  0.5743594E+000  0.3034379E+03  0.7818608E-02  0.1083535E+00
         21   -1    0    0  503  502  0.00000000000E+00  0.00000000000E+00  0.52356001878E+03  0.52356001878E+03  0.00000000000E+00 0. -1.
         21   -1    0    0  501  503 -0.00000000000E+00 -0.00000000000E+00 -0.17682269155E+03  0.17682269155E+03  0.00000000000E+00 0. -1.
          6    1    1    2  501    0  0.13619015495E+03  0.20962533801E+03  0.19917519798E+03  0.36296735409E+03  0.17200000000E+03 0. -1.
         -6    1    1    2    0  502 -0.13619015495E+03 -0.20962533801E+03  0.14756212925E+03  0.33741535625E+03  0.17200000000E+03 0. -1.
</event>
<event>
 4    1  0.5743594E+000  0.1844051E+03  0.7818608E-02  0.1163607E+00
         21   -1    0    0  501  502  0.00000000000E+00  0.00000000000E+00  0.39729539205E+02  0.39729539205E+02  0.00000000000E+00 0. -1.
         21   -1    0    0  502  503 -0.00000000000E+00 -0.00000000000E+00 -0.12855112929E+04  0.12855112929E+04  0.00000000000E+00 0. -1.
          6    1    1    2  501    0  0.60650181865E+02  0.27254275082E+02 -0.23984088806E+03  0.30253742191E+03  0.17200000000E+03 0. -1.
         -6    1    1    2    0  503 -0.60650181865E+02 -0.27254275082E+02 -0.10059408656E+04  0.10227034102E+04  0.17200000000E+03 0. -1.
</event>
<event>
 4    1  0.5743594E+000  0.1945066E+03  0.7818608E-02  0.1154458E+00
         21   -1    0    0  503  502  0.00000000000E+00  0.00000000000E+00  0.32883990351E+03  0.32883990351E+03  0.00000000000E+00 0. -1.
         21   -1    0    0  501  503 -0.00000000000E+00 -0.00000000000E+00 -0.11536539147E+03  0.11536539147E+03  0.00000000000E+00 0.  1.
          6    1    1    2  501    0  0.60095410888E+02  0.68098170325E+02  0.11836200803E+03  0.22768922714E+03  0.17200000000E+03 0. -1.
         -6    1    1    2    0  502 -0.60095410888E+02 -0.68098170325E+02  0.95112504019E+02  0.21651606784E+03  0.17200000000E+03 0. -1.
</event>
<event>
 4    1  0.5743594E+000  0.1745479E+03  0.7818608E-02  0.1173186E+00
         21   -1    0    0  503  502  0.00000000000E+00  0.00000000000E+00  0.98182540417E+03  0.98182540417E+03  0.00000000000E+00 0. -1.
         21   -1    0    0  501  503 -0.00000000000E+00 -0.00000000000E+00 -0.35278186665E+02  0.35278186665E+02  0.00000000000E+00 0. -1.
          6    1    1    2  501    0  0.12812799170E+02 -0.26810420234E+02  0.29681788836E+03  0.34433679052E+03  0.17200000000E+03 0. -1.
         -6    1    1    2    0  502 -0.12812799170E+02  0.26810420234E+02  0.64972932914E+03  0.67276680031E+03  0.17200000000E+03 0. -1.
</event>
<event>
 4    1  0.5743594E+000  0.1966852E+03  0.7818608E-02  0.1152566E+00
         21   -1    0    0  501  502  0.00000000000E+00  0.00000000000E+00  0.14108041790E+04  0.14108041790E+04  0.00000000000E+00 0.  1.
         21   -1    0    0  502  503 -0.00000000000E+00 -0.00000000000E+00 -0.52685597791E+02  0.52685597791E+02  0.00000000000E+00 0.  1.
          6    1    1    2  501    0 -0.15963160885E+02 -0.94054579721E+02  0.17233299919E+03  0.26150286630E+03  0.17200000000E+03 0.  1.
         -6    1    1    2    0  503  0.15963160885E+02  0.94054579721E+02  0.11857855820E+04  0.12019869105E+04  0.17200000000E+03 0.  1.
</event>
<event>
 4    1  0.5743594E+000  0.2252485E+03  0.7818608E-02  0.1130030E+00
         21   -1    0    0  503  502  0.00000000000E+00  0.00000000000E+00  0.17505707572E+03  0.17505707572E+03  0.00000000000E+00 0. -1.
         21   -1    0    0  501  503 -0.00000000000E+00 -0.00000000000E+00 -0.90368158091E+03  0.90368158091E+03  0.00000000000E+00 0. -1.
          6    1    1    2  501    0 -0.78235572174E+01  0.14522971435E+03 -0.80885143579E+03  0.83962939632E+03  0.17200000000E+03 0. -1.
         -6    1    1    2    0  502  0.78235572174E+01 -0.14522971435E+03  0.80226930604E+02  0.23910926032E+03  0.17200000000E+03 0. -1.
</event>
<event>
 4    1  0.5743594E+000  0.1796020E+03  0.7818608E-02  0.1168189E+00
         21   -1    0    0  503  502  0.00000000000E+00  0.00000000000E+00  0.11730621070E+04  0.11730621070E+04  0.00000000000E+00 0. -1.
         21   -1    0    0  501  503 -0.00000000000E+00 -0.00000000000E+00 -0.27513787843E+02  0.27513787843E+02  0.00000000000E+00 0. -1.
          6    1    1    2  501    0 -0.43827577252E+02  0.27423097454E+02  0.58714557873E+03  0.61400066240E+03  0.17200000000E+03 0.  1.
         -6    1    1    2    0  502  0.43827577252E+02 -0.27423097454E+02  0.55840274041E+03  0.58657523243E+03  0.17200000000E+03 0.  1.
</event>
<event>
 4    1  0.5743594E+000  0.1772022E+03  0.7818608E-02  0.1170539E+00
         21   -1    0    0  503  502  0.00000000000E+00  0.00000000000E+00  0.15065249184E+04  0.15065249184E+04  0.00000000000E+00 0. -1.
         21   -1    0    0  501  503 -0.00000000000E+00 -0.00000000000E+00 -0.53393407914E+02  0.53393407914E+02  0.00000000000E+00 0. -1.
          6    1    1    2  501    0 -0.42476395358E+02  0.35178364641E+01  0.11758197138E+03  0.21266438190E+03  0.17200000000E+03 0. -1.
         -6    1    1    2    0  502  0.42476395358E+02 -0.35178364641E+01  0.13355495391E+04  0.13472539444E+04  0.17200000000E+03 0. -1.
</event>
<event>
 4    1  0.5743594E+000  0.2070829E+03  0.7818608E-02  0.1143897E+00
         21   -1    0    0  503  502  0.00000000000E+00  0.00000000000E+00  0.16565876491E+03  0.16565876491E+03  0.00000000000E+00 0. -1.
         21   -1    0    0  501  503 -0.00000000000E+00 -0.00000000000E+00 -0.26253916807E+03  0.26253916807E+03  0.00000000000E+00 0. -1.
          6    1    1    2  501    0 -0.11404361596E+03  0.17128285555E+02 -0.23113848979E+02  0.20836884249E+03  0.17200000000E+03 0. -1.
         -6    1    1    2    0  502  0.11404361596E+03 -0.17128285555E+02 -0.73766554188E+02  0.21982909049E+03  0.17200000000E+03 0. -1.
</event>
<event>
 4    1  0.5743594E+000  0.1818223E+03  0.7818608E-02  0.1166051E+00
         21   -1    0    0  501  502  0.00000000000E+00  0.00000000000E+00  0.11438006102E+04  0.11438006102E+04  0.00000000000E+00 0. -1.
         21   -1    0    0  502  503 -0.00000000000E+00 -0.00000000000E+00 -0.66220693142E+02  0.66220693142E+02  0.00000000000E+00 0. -1.
          6    1    1    2  501    0 -0.17648227719E+02 -0.56248573406E+02  0.99296480873E+03  0.10094743550E+04  0.17200000000E+03 0. -1.
         -6    1    1    2    0  503  0.17648227719E+02  0.56248573406E+02  0.84615108351E+02  0.20054694840E+03  0.17200000000E+03 0. -1.
</event>
<event>
 4    1  0.5743594E+000  0.2323990E+03  0.7818608E-02  0.1124963E+00
         21   -1    0    0  503  502  0.00000000000E+00  0.00000000000E+00  0.46301522109E+03  0.46301522109E+03  0.00000000000E+00 0.  1.
         21   -1    0    0  501  503 -0.00000000000E+00 -0.00000000000E+00 -0.23250266129E+03  0.23250266129E+03  0.00000000000E+00 0.  1.
          6    1    1    2  501    0  0.10046431898E+03 -0.11971729907E+03 -0.13022765376E+03  0.26639923590E+03  0.17200000000E+03 0.  1.
         -6    1    1    2    0  502 -0.10046431898E+03  0.11971729907E+03  0.36074021356E+03  0.42911864649E+03  0.17200000000E+03 0.  1.
</event>
<event>
 4    1  0.5743594E+000  0.2386290E+03  0.7818608E-02  0.1120710E+00
         21   -1    0    0  501  502  0.00000000000E+00  0.00000000000E+00  0.46352704728E+03  0.46352704728E+03  0.00000000000E+00 0. -1.
         21   -1    0    0  502  503 -0.00000000000E+00 -0.00000000000E+00 -0.13250929593E+03  0.13250929593E+03  0.00000000000E+00 0. -1.
          6    1    1    2  501    0  0.35768573511E+02  0.16149424547E+03  0.24597578351E+03  0.34270667960E+03  0.17200000000E+03 0. -1.
         -6    1    1    2    0  503 -0.35768573511E+02 -0.16149424547E+03  0.85041967841E+02  0.25332966361E+03  0.17200000000E+03 0. -1.
</event>
<event>
 4    1  0.5743594E+000  0.2067797E+03  0.7818608E-02  0.1144142E+00
         21   -1    0    0  503  502  0.00000000000E+00  0.00000000000E+00  0.12587344110E+03  0.12587344110E+03  0.00000000000E+00 0.  1.
         21   -1    0    0  501  503 -0.00000000000E+00 -0.00000000000E+00 -0.10455009200E+04  0.10455009200E+04  0.00000000000E+00 0. -1.
          6    1    1    2  501    0 -0.10566915217E+03  0.44809427199E+02  0.21410978736E+02  0.20788526763E+03  0.17200000000E+03 0.  1.
         -6    1    1    2    0  502  0.10566915217E+03 -0.44809427199E+02 -0.94103845764E+03  0.96348909348E+03  0.17200000000E+03 0. -1.
</event>
<event>
 4    1  0.5743594E+000  0.3344280E+03  0.7818608E-02  0.1069194E+00
         21   -1    0    0  501  502  0.00000000000E+00  0.00000000000E+00  0.54656921502E+03  0.54656921502E+03  0.00000000000E+00 0.  1.
         21   -1    0    0  502  503 -0.00000000000E+00 -0.00000000000E+00 -0.32037681771E+03  0.32037681771E+03  0.00000000000E+00 0.  1.
          6    1    1    2  501    0 -0.26211968640E+03 -0.11641022736E+03  0.37364810231E+03  0.50145286458E+03  0.17200000000E+03 0.  1.
         -6    1    1    2    0  503  0.26211968640E+03  0.11641022736E+03 -0.14745570500E+03  0.36549316815E+03  0.17200000000E+03 0.  1.
</event>
<event>
 4    1  0.5743594E+000  0.1801709E+03  0.7818608E-02  0.1167638E+00
         21   -1    0    0  501  502  0.00000000000E+00  0.00000000000E+00  0.93442590040E+03  0.93442590040E+03  0.00000000000E+00 0.  1.
         21   -1    0    0  502  503 -0.00000000000E+00 -0.00000000000E+00 -0.61674193876E+02  0.61674193876E+02  0.00000000000E+00 0.  1.
          6    1    1    2  501    0 -0.48582267067E+02  0.22744891794E+02  0.76551276655E+03  0.78642950257E+03  0.17200000000E+03 0.  1.
         -6    1    1    2    0  503  0.48582267067E+02 -0.22744891794E+02  0.10723893997E+03  0.20967059170E+03  0.17200000000E+03 0.  1.
</event>
<event>
 4    1  0.5743594E+000  0.1764608E+03  0.7818608E-02  0.1171273E+00
         21   -1    0    0  501  502  0.00000000000E+00  0.00000000000E+00  0.73936164491E+02  0.73936164491E+02  0.00000000000E+00 0.  1.
         21   -1    0    0  502  503 -0.00000000000E+00 -0.00000000000E+00 -0.42979686175E+03  0.42979686175E+03  0.00000000000E+00 0.  1.
          6    1    1    2  501    0  0.39085238833E+02  0.51739799032E+01 -0.14221156751E+03  0.22663308650E+03  0.17200000000E+03 0.  1.
         -6    1    1    2    0  503 -0.39085238833E+02 -0.51739799032E+01 -0.21364912975E+03  0.27709993974E+03  0.17200000000E+03 0.  1.
</event>
<event>
 4    1  0.5743594E+000  0.2428524E+03  0.7818608E-02  0.1117907E+00
         21   -1    0    0  501  502  0.00000000000E+00  0.00000000000E+00  0.21468330586E+03  0.21468330586E+03  0.00000000000E+00 0.  1.
         21   -1    0    0  502  503 -0.00000000000E+00 -0.00000000000E+00 -0.36013889794E+03  0.36013889794E+03  0.00000000000E+00 0.  1.
          6    1    1    2  501    0  0.16767070986E+03 -0.35774907410E+02  0.67247460088E+02  0.25199113443E+03  0.17200000000E+03 0.  1.
         -6    1    1    2    0  503 -0.16767070986E+03  0.35774907410E+02 -0.21270305217E+03  0.32283106936E+03  0.17200000000E+03 0.  1.
</event>
<event>
 4    1  0.5743594E+000  0.1759290E+03  0.7818608E-02  0.1171802E+00
         21   -1    0    0  503  502  0.00000000000E+00  0.00000000000E+00  0.32493582063E+02  0.32493582063E+02  0.00000000000E+00 0. -1.
         21   -1    0    0  501  503 -0.00000000000E+00 -0.00000000000E+00 -0.11449694996E+04  0.11449694996E+04  0.00000000000E+00 0. -1.
          6    1    1    2  501    0  0.32392283396E+02  0.17825848845E+02 -0.79760091000E+03  0.81677306062E+03  0.17200000000E+03 0. -1.
         -6    1    1    2    0  502 -0.32392283396E+02 -0.17825848845E+02 -0.31487500750E+03  0.36069002101E+03  0.17200000000E+03 0. -1.
</event>
<event>
 4    1  0.5743594E+000  0.1821272E+03  0.7818608E-02  0.1165760E+00
         21   -1    0    0  501  502  0.00000000000E+00  0.00000000000E+00  0.38338424818E+03  0.38338424818E+03  0.00000000000E+00 0.  1.
         21   -1    0    0  502  503 -0.00000000000E+00 -0.00000000000E+00 -0.11165339376E+03  0.11165339376E+03  0.00000000000E+00 0.  1.
          6    1    1    2  501    0  0.35205296842E+02  0.48444792882E+02  0.25330107711E+03  0.31198036244E+03  0.17200000000E+03 0.  1.
         -6    1    1    2    0  503 -0.35205296842E+02 -0.48444792882E+02  0.18429777309E+02  0.18305727949E+03  0.17200000000E+03 0.  1.
</event>
<event>
 4    1  0.5743594E+000  0.2874160E+03  0.7818608E-02  0.1091706E+00
         21   -1    0    0  501  502  0.00000000000E+00  0.00000000000E+00  0.43378922257E+03  0.43378922257E+03  0.00000000000E+00 0.  1.
         21   -1    0    0  502  503 -0.00000000000E+00 -0.00000000000E+00 -0.13307374876E+04  0.13307374876E+04  0.00000000000E+00 0.  1.
          6    1    1    2  501    0  0.23026082278E+03 -0.19743774902E+01  0.36822555838E+03  0.46711669476E+03  0.17200000000E+03 0.  1.
         -6    1    1    2    0  503 -0.23026082278E+03  0.19743774902E+01 -0.12651738234E+04  0.12974100154E+04  0.17200000000E+03 0.  1.
</event>
<event>
 4    1  0.5743594E+000  0.2391706E+03  0.7818608E-02  0.1120347E+00
         21   -1    0    0  503  502  0.00000000000E+00  0.00000000000E+00  0.14593859846E+03  0.14593859846E+03  0.00000000000E+00 0. -1.
         21   -1    0    0  501  503 -0.00000000000E+00 -0.00000000000E+00 -0.58297524153E+03  0.58297524153E+03  0.00000000000E+00 0.  1.
          6    1    1    2  501    0 -0.11803182617E+03  0.11699177935E+03 -0.42713609086E+03  0.48953838311E+03  0.17200000000E+03 0.  1.
         -6    1    1    2    0  502  0.11803182617E+03 -0.11699177935E+03 -0.99005522189E+01  0.23937545688E+03  0.17200000000E+03 0. -1.
</event>
<event>
 4    1  0.5743594E+000  0.2056075E+03  0.7818608E-02  0.1145092E+00
         21   -1    0    0  503  502  0.00000000000E+00  0.00000000000E+00  0.24101473989E+03  0.24101473989E+03  0.00000000000E+00 0.  1.
         21   -1    0    0  501  503 -0.00000000000E+00 -0.00000000000E+00 -0.26638004585E+03  0.26638004585E+03  0.00000000000E+00 0.  1.
          6    1    1    2  501    0 -0.94899289546E+02  0.60700581718E+02 -0.16094599142E+03  0.26110926435E+03  0.17200000000E+03 0.  1.
         -6    1    1    2    0  502  0.94899289546E+02 -0.60700581718E+02  0.13558068546E+03  0.24628552139E+03  0.17200000000E+03 0.  1.
</event>
<event>
 4    1  0.5743594E+000  0.2835778E+03  0.7818608E-02  0.1093751E+00
         21   -1    0    0  503  502  0.00000000000E+00  0.00000000000E+00  0.76570459622E+03  0.76570459622E+03  0.00000000000E+00 0.  1.
         21   -1    0    0  501  503 -0.00000000000E+00 -0.00000000000E+00 -0.11793536310E+03  0.11793536310E+03  0.00000000000E+00 0. -1.
          6    1    1    2  501    0 -0.17094774163E+03 -0.14700088299E+03  0.17769023953E+03  0.33464938547E+03  0.17200000000E+03 0. -1.
         -6    1    1    2    0  502  0.17094774163E+03  0.14700088299E+03  0.47007899359E+03  0.54899057385E+03  0.17200000000E+03 0. -1.
</event>
<event>
 4    1  0.5743594E+000  0.1757277E+03  0.7818608E-02  0.1172003E+00
         21   -1    0    0  501  502  0.00000000000E+00  0.00000000000E+00  0.49126667416E+03  0.49126667416E+03  0.00000000000E+00 0. -1.
         21   -1    0    0  502  503 -0.00000000000E+00 -0.00000000000E+00 -0.13180660401E+03  0.13180660401E+03  0.00000000000E+00 0.  1.
          6    1    1    2  501    0 -0.33030508599E+02 -0.14325116097E+02  0.40505126418E+03  0.44152774552E+03  0.17200000000E+03 0. -1.
         -6    1    1    2    0  503  0.33030508599E+02  0.14325116097E+02 -0.45591194029E+02  0.18154553264E+03  0.17200000000E+03 0.  1.
</event>
<event>
 4    1  0.5743594E+000  0.1808932E+03  0.7818608E-02  0.1166941E+00
         21   -1    0    0  503  502  0.00000000000E+00  0.00000000000E+00  0.13100831919E+03  0.13100831919E+03  0.00000000000E+00 0.  1.
         21   -1    0    0  501  503 -0.00000000000E+00 -0.00000000000E+00 -0.30627746760E+03  0.30627746760E+03  0.00000000000E+00 0.  1.
          6    1    1    2  501    0 -0.54294402607E+02 -0.13800530585E+02 -0.18154619941E+03  0.25628374767E+03  0.17200000000E+03 0.  1.
         -6    1    1    2    0  502  0.54294402607E+02  0.13800530585E+02  0.62770510013E+01  0.18100203913E+03  0.17200000000E+03 0.  1.
</event>
<event>
 4    1  0.5743594E+000  0.1728220E+03  0.7818608E-02  0.1174937E+00
         21   -1    0    0  501  502  0.00000000000E+00  0.00000000000E+00  0.60454558054E+03  0.60454558054E+03  0.00000000000E+00 0.  1.
         21   -1    0    0  502  503 -0.00000000000E+00 -0.00000000000E+00 -0.75902997150E+02  0.75902997150E+02  0.00000000000E+00 0.  1.
          6    1    1    2  501    0  0.77949700097E+01  0.14922074185E+02  0.46534363740E+03  0.49639916471E+03  0.17200000000E+03 0. -1.
         -6    1    1    2    0  503 -0.77949700097E+01 -0.14922074185E+02  0.63298945992E+02  0.18404941298E+03  0.17200000000E+03 0. -1.
</event>
<event>
 4    1  0.5743594E+000  0.1948231E+03  0.7818608E-02  0.1154182E+00
         21   -1    0    0  501  502  0.00000000000E+00  0.00000000000E+00  0.42947179068E+03  0.42947179068E+03  0.00000000000E+00 0. -1.
         21   -1    0    0  502  503 -0.00000000000E+00 -0.00000000000E+00 -0.93373561294E+02  0.93373561294E+02  0.00000000000E+00 0. -1.
          6    1    1    2  501    0  0.24119279338E+02 -0.88262764691E+02  0.22851403224E+03  0.30029105581E+03  0.17200000000E+03 0. -1.
         -6    1    1    2    0  503 -0.24119279338E+02  0.88262764691E+02  0.10758419714E+03  0.22255429616E+03  0.17200000000E+03 0. -1.
</event>
<event>
 4    1  0.5743594E+000  0.2015608E+03  0.7818608E-02  0.1148429E+00
         21   -1    0    0  501  502  0.00000000000E+00  0.00000000000E+00  0.11224200273E+03  0.11224200273E+03  0.00000000000E+00 0. -1.
         21   -1    0    0  502  503 -0.00000000000E+00 -0.00000000000E+00 -0.49635389744E+03  0.49635389744E+03  0.00000000000E+00 0.  1.
          6    1    1    2  501    0  0.22875919857E+02 -0.10256430013E+03 -0.33713104848E+02  0.20436075163E+03  0.17200000000E+03 0. -1.
         -6    1    1    2    0  503 -0.22875919857E+02  0.10256430013E+03 -0.35039878987E+03  0.40423514853E+03  0.17200000000E+03 0.  1.
</event>
<event>
 4    1  0.5743594E+000  0.1749805E+03  0.7818608E-02  0.1172751E+00
         21   -1    0    0  503  502  0.00000000000E+00  0.00000000000E+00  0.43213915929E+02  0.43213915929E+02  0.00000000000E+00 0.  1.
         21   -1    0    0  501  503 -0.00000000000E+00 -0.00000000000E+00 -0.80952079706E+03  0.80952079706E+03  0.00000000000E+00 0.  1.
          6    1    1    2  501    0 -0.19069758694E+02  0.25894449369E+02 -0.23255527544E+03  0.29103287502E+03  0.17200000000E+03 0.  1.
         -6    1    1    2    0  502  0.19069758694E+02 -0.25894449369E+02 -0.53375160568E+03  0.56170183797E+03  0.17200000000E+03 0.  1.
</event>
<event>
 4    1  0.5743594E+000  0.1878495E+03  0.7818608E-02  0.1160415E+00
         21   -1    0    0  503  502  0.00000000000E+00  0.00000000000E+00  0.36210567037E+03  0.36210567037E+03  0.00000000000E+00 0.  1.
         21   -1    0    0  501  503 -0.00000000000E+00 -0.00000000000E+00 -0.28932207500E+03  0.28932207500E+03  0.00000000000E+00 0.  1.
          6    1    1    2  501    0  0.73817254856E+02  0.15951117664E+02 -0.22885530281E+03  0.29607798786E+03  0.17200000000E+03 0.  1.
         -6    1    1    2    0  502 -0.73817254856E+02 -0.15951117664E+02  0.30163889818E+03  0.35534975751E+03  0.17200000000E+03 0.  1.
</event>
<event>
 4    1  0.5743594E+000  0.1994227E+03  0.7818608E-02  0.1150227E+00
         21   -1    0    0  501  502  0.00000000000E+00  0.00000000000E+00  0.41481863170E+03  0.41481863170E+03  0.00000000000E+00 0. -1.
         21   -1    0    0  502  503 -0.00000000000E+00 -0.00000000000E+00 -0.10407222498E+03  0.10407222498E+03  0.00000000000E+00 0.  1.
          6    1    1    2  501    0  0.70051289096E+02 -0.72651320415E+02  0.22820105728E+03  0.30305959811E+03  0.17200000000E+03 0. -1.
         -6    1    1    2    0  503 -0.70051289096E+02  0.72651320415E+02  0.82545349442E+02  0.21583125857E+03  0.17200000000E+03 0.  1.
</event>
<event>
 4    1  0.5743594E+000  0.2391757E+03  0.7818608E-02  0.1120343E+00
         21   -1    0    0  501  502  0.00000000000E+00  0.00000000000E+00  0.70255436452E+02  0.70255436452E+02  0.00000000000E+00 0. -1.
         21   -1    0    0  502  503 -0.00000000000E+00 -0.00000000000E+00 -0.12706129661E+04  0.12706129661E+04  0.00000000000E+00 0.  1.
          6    1    1    2  501    0  0.15827369492E+03 -0.50699591680E+02 -0.19838059491E+03  0.31074084304E+03  0.17200000000E+03 0. -1.
         -6    1    1    2    0  503 -0.15827369492E+03  0.50699591680E+02 -0.10019769347E+04  0.10301275595E+04  0.17200000000E+03 0.  1.
</event>
<event>
 4    1  0.5743594E+000  0.3311094E+03  0.7818608E-02  0.1070647E+00
         21   -1    0    0  503  502  0.00000000000E+00  0.00000000000E+00  0.25373485234E+03  0.25373485234E+03  0.00000000000E+00 0. -1.
         21   -1    0    0  501  503 -0.00000000000E+00 -0.00000000000E+00 -0.56878157872E+03  0.56878157872E+03  0.00000000000E+00 0.  1.
          6    1    1    2  501    0  0.24776999300E+03  0.13659970433E+03 -0.35914192312E+03  0.48848374548E+03  0.17200000000E+03 0. -1.
         -6    1    1    2    0  502 -0.24776999300E+03 -0.13659970433E+03  0.44095196735E+02  0.33403268557E+03  0.17200000000E+03 0.  1.
</event>
<event>
 4    1  0.5743594E+000  0.1879438E+03  0.7818608E-02  0.1160329E+00
         21   -1    0    0  503  502  0.00000000000E+00  0.00000000000E+00  0.44058640575E+02  0.44058640575E+02  0.00000000000E+00 0. -1.
         21   -1    0    0  501  503 -0.00000000000E+00 -0.00000000000E+00 -0.89642816768E+03  0.89642816768E+03  0.00000000000E+00 0. -1.
          6    1    1    2  501    0 -0.70400756698E+02  0.27974989416E+02 -0.57902921100E+03  0.60876735603E+03  0.17200000000E+03 0.  1.
         -6    1    1    2    0  502  0.70400756698E+02 -0.27974989416E+02 -0.27334031610E+03  0.33171945222E+03  0.17200000000E+03 0.  1.
</event>
<event>
 4    1  0.5743594E+000  0.1723862E+03  0.7818608E-02  0.1175382E+00
         21   -1    0    0  503  502  0.00000000000E+00  0.00000000000E+00  0.23774104179E+03  0.23774104179E+03  0.00000000000E+00 0.  1.
         21   -1    0    0  501  503 -0.00000000000E+00 -0.00000000000E+00 -0.13007309504E+03  0.13007309504E+03  0.00000000000E+00 0.  1.
          6    1    1    2  501    0 -0.16504772024E+01  0.11414512031E+02  0.17505103047E+02  0.17327274394E+03  0.17200000000E+03 0.  1.
         -6    1    1    2    0  502  0.16504772024E+01 -0.11414512031E+02  0.90162843702E+02  0.19454139288E+03  0.17200000000E+03 0.  1.
</event>
<event>
 4    1  0.5743594E+000  0.2043043E+03  0.7818608E-02  0.1146157E+00
         21   -1    0    0  503  502  0.00000000000E+00  0.00000000000E+00  0.22417591096E+04  0.22417591096E+04  0.00000000000E+00 0.  1.
         21   -1    0    0  501  503 -0.00000000000E+00 -0.00000000000E+00 -0.19346119027E+02  0.19346119027E+02  0.00000000000E+00 0. -1.
          6    1    1    2  501    0 -0.91410615629E+02  0.61647075229E+02  0.13303204595E+04  0.13459170804E+04  0.17200000000E+03 0. -1.
         -6    1    1    2    0  502  0.91410615629E+02 -0.61647075229E+02  0.89209253110E+03  0.91518814818E+03  0.17200000000E+03 0.  1.
</event>
<event>
 4    1  0.5743594E+000  0.2277360E+03  0.7818608E-02  0.1128243E+00
         21   -1    0    0  501  502  0.00000000000E+00  0.00000000000E+00  0.29591827169E+03  0.29591827169E+03  0.00000000000E+00 0. -1.
         21   -1    0    0  502  503 -0.00000000000E+00 -0.00000000000E+00 -0.17862538861E+03  0.17862538861E+03  0.00000000000E+00 0.  1.
          6    1    1    2  501    0  0.87091405008E+02 -0.12122205728E+03  0.26095756129E+02  0.22922628227E+03  0.17200000000E+03 0. -1.
         -6    1    1    2    0  503 -0.87091405008E+02  0.12122205728E+03  0.91197126943E+02  0.24531737802E+03  0.17200000000E+03 0. -1.
</event>
<event>
 4    1  0.5743594E+000  0.1910597E+03  0.7818608E-02  0.1157509E+00
         21   -1    0    0  501  502  0.00000000000E+00  0.00000000000E+00  0.51830853698E+03  0.51830853698E+03  0.00000000000E+00 0. -1.
         21   -1    0    0  502  503 -0.00000000000E+00 -0.00000000000E+00 -0.82227483465E+02  0.82227483465E+02  0.00000000000E+00 0. -1.
          6    1    1    2  501    0  0.82497740377E+02  0.10673802374E+02  0.33178198703E+03  0.38286171674E+03  0.17200000000E+03 0. -1.
         -6    1    1    2    0  503 -0.82497740377E+02 -0.10673802374E+02  0.10429906648E+03  0.21767430370E+03  0.17200000000E+03 0. -1.
</event>
<event>
 4    1  0.5743594E+000  0.2083428E+03  0.7818608E-02  0.1142885E+00
         21   -1    0    0  503  502  0.00000000000E+00  0.00000000000E+00  0.43867794151E+03  0.43867794151E+03  0.00000000000E+00 0.  1.
         21   -1    0    0  501  503 -0.00000000000E+00 -0.00000000000E+00 -0.72810486383E+03  0.72810486383E+03  0.00000000000E+00 0.  1.
          6    1    1    2  501    0  0.10135993133E+03 -0.59572672925E+02 -0.68701668544E+03  0.71791271413E+03  0.17200000000E+03 0.  1.
         -6    1    1    2    0  502 -0.10135993133E+03  0.59572672925E+02  0.39758976312E+03  0.44887009120E+03  0.17200000000E+03 0.  1.
</event>
<event>
 4    1  0.5743594E+000  0.1858802E+03  0.7818608E-02  0.1162230E+00
         21   -1    0    0  501  502  0.00000000000E+00  0.00000000000E+00  0.25329120569E+03  0.25329120569E+03  0.00000000000E+00 0.  1.
         21   -1    0    0  502  503 -0.00000000000E+00 -0.00000000000E+00 -0.16507399929E+03  0.16507399929E+03  0.00000000000E+00 0.  1.
          6    1    1    2  501    0 -0.11480090205E+02 -0.69538985900E+02  0.13127605063E+03  0.22756288032E+03  0.17200000000E+03 0.  1.
         -6    1    1    2    0  503  0.11480090205E+02  0.69538985900E+02 -0.43058844229E+02  0.19080232466E+03  0.17200000000E+03 0.  1.
</event>
<event>
 4    1  0.5743594E+000  0.2019750E+03  0.7818608E-02  0.1148083E+00
         21   -1    0    0  503  502  0.00000000000E+00  0.00000000000E+00  0.24327906530E+03  0.24327906530E+03  0.00000000000E+00 0. -1.
         21   -1    0    0  501  503 -0.00000000000E+00 -0.00000000000E+00 -0.18467401157E+03  0.18467401157E+03  0.00000000000E+00 0. -1.
          6    1    1    2  501    0  0.24207361327E+02 -0.10307225678E+03 -0.35600720156E+02  0.20508851196E+03  0.17200000000E+03 0. -1.
         -6    1    1    2    0  502 -0.24207361327E+02  0.10307225678E+03  0.94205773888E+02  0.22286456492E+03  0.17200000000E+03 0. -1.
</event>
<event>
 4    1  0.5743594E+000  0.2148762E+03  0.7818608E-02  0.1137762E+00
         21   -1    0    0  503  502  0.00000000000E+00  0.00000000000E+00  0.59437712420E+02  0.59437712420E+02  0.00000000000E+00 0.  1.
         21   -1    0    0  501  503 -0.00000000000E+00 -0.00000000000E+00 -0.80984738353E+03  0.80984738353E+03  0.00000000000E+00 0. -1.
          6    1    1    2  501    0 -0.10997512777E+03 -0.67031677996E+02 -0.46299327262E+03  0.51042584679E+03  0.17200000000E+03 0.  1.
         -6    1    1    2    0  502  0.10997512777E+03  0.67031677996E+02 -0.28741639849E+03  0.35885924915E+03  0.17200000000E+03 0. -1.
</event>
<event>
 4    1  0.5743594E+000  0.1936668E+03  0.7818608E-02  0.1155195E+00
         21   -1    0    0  501  502  0.00000000000E+00  0.00000000000E+00  0.95385728528E+03  0.95385728528E+03  0.00000000000E+00 0. -1.
         21   -1    0    0  502  503 -0.00000000000E+00 -0.00000000000E+00 -0.46591495460E+02  0.46591495460E+02  0.00000000000E+00 0. -1.
          6    1    1    2  501    0  0.86961069224E+02 -0.18989888053E+02  0.65123274887E+03  0.67941955860E+03  0.17200000000E+03 0.  1.
         -6    1    1    2    0  503 -0.86961069224E+02  0.18989888053E+02  0.25603304094E+03  0.32102922213E+03  0.17200000000E+03 0.  1.
</event>
<event>
 4    1  0.5743594E+000  0.2013327E+03  0.7818608E-02  0.1148619E+00
         21   -1    0    0  503  502  0.00000000000E+00  0.00000000000E+00  0.10974561329E+04  0.10974561329E+04  0.00000000000E+00 0. -1.
         21   -1    0    0  501  503 -0.00000000000E+00 -0.00000000000E+00 -0.56964168063E+02  0.56964168063E+02  0.00000000000E+00 0. -1.
          6    1    1    2  501    0  0.17644561954E+02 -0.10314798767E+03  0.17798167255E+03  0.26872348928E+03  0.17200000000E+03 0. -1.
         -6    1    1    2    0  502 -0.17644561954E+02  0.10314798767E+03  0.86251029232E+03  0.88569681172E+03  0.17200000000E+03 0. -1.
</event>
<event>
 4    1  0.5743594E+000  0.1803018E+03  0.7818608E-02  0.1167511E+00
         21   -1    0    0  503  502  0.00000000000E+00  0.00000000000E+00  0.42032598604E+03  0.42032598604E+03  0.00000000000E+00 0.  1.
         21   -1    0    0  501  503 -0.00000000000E+00 -0.00000000000E+00 -0.20636009858E+03  0.20636009858E+03  0.00000000000E+00 0.  1.
          6    1    1    2  501    0  0.37264431460E+02  0.39193183295E+02 -0.14077805741E+03  0.22875140418E+03  0.17200000000E+03 0.  1.
         -6    1    1    2    0  502 -0.37264431460E+02 -0.39193183295E+02  0.35474394487E+03  0.39793468043E+03  0.17200000000E+03 0.  1.
</event>
<event>
 4    1  0.5743594E+000  0.2434662E+03  0.7818608E-02  0.1117505E+00
         21   -1    0    0  501  502  0.00000000000E+00  0.00000000000E+00  0.84810890850E+02  0.84810890850E+02  0.00000000000E+00 0. -1.
         21   -1    0    0  502  503 -0.00000000000E+00 -0.00000000000E+00 -0.13393165932E+04  0.13393165932E+04  0.00000000000E+00 0.  1.
          6    1    1    2  501    0  0.96593802430E+02  0.14269340709E+03 -0.13487015691E+03  0.27832666117E+03  0.17200000000E+03 0. -1.
         -6    1    1    2    0  503 -0.96593802430E+02 -0.14269340709E+03 -0.11196355454E+04  0.11458008228E+04  0.17200000000E+03 0.  1.
</event>
<event>
 4    1  0.5743594E+000  0.2113258E+03  0.7818608E-02  0.1140520E+00
         21   -1    0    0  503  502  0.00000000000E+00  0.00000000000E+00  0.11117390803E+04  0.11117390803E+04  0.00000000000E+00 0. -1.
         21   -1    0    0  501  503 -0.00000000000E+00 -0.00000000000E+00 -0.52739358439E+02  0.52739358439E+02  0.00000000000E+00 0.  1.
          6    1    1    2  501    0 -0.68370027330E+01 -0.12258804390E+03  0.24525647440E+03  0.32374266223E+03  0.17200000000E+03 0.  1.
         -6    1    1    2    0  502  0.68370027330E+01  0.12258804390E+03  0.81374324744E+03  0.84073577649E+03  0.17200000000E+03 0. -1.
</event>
<event>
 4    1  0.5743594E+000  0.2014733E+03  0.7818608E-02  0.1148502E+00
         21   -1    0    0  501  502  0.00000000000E+00  0.00000000000E+00  0.32732323766E+03  0.32732323766E+03  0.00000000000E+00 0.  1.
         21   -1    0    0  502  503 -0.00000000000E+00 -0.00000000000E+00 -0.30759878298E+03  0.30759878298E+03  0.00000000000E+00 0. -1.
          6    1    1    2  501    0  0.69323658543E+02 -0.78751002041E+02  0.25511880870E+03  0.32508013860E+03  0.17200000000E+03 0.  1.
         -6    1    1    2    0  503 -0.69323658543E+02  0.78751002041E+02 -0.23539435403E+03  0.30984188204E+03  0.17200000000E+03 0. -1.
</event>
<event>
 4    1  0.5743594E+000  0.1809454E+03  0.7818608E-02  0.1166891E+00
         21   -1    0    0  503  502  0.00000000000E+00  0.00000000000E+00  0.29033828398E+03  0.29033828398E+03  0.00000000000E+00 0.  1.
         21   -1    0    0  501  503 -0.00000000000E+00 -0.00000000000E+00 -0.13599479972E+03  0.13599479972E+03  0.00000000000E+00 0.  1.
          6    1    1    2  501    0  0.64851189977E+01 -0.55813756380E+02 -0.10921143677E+02  0.18127466328E+03  0.17200000000E+03 0. -1.
         -6    1    1    2    0  502 -0.64851189977E+01  0.55813756380E+02  0.16526462794E+03  0.24505842042E+03  0.17200000000E+03 0. -1.
</event>
<event>
 4    1  0.5743594E+000  0.2104747E+03  0.7818608E-02  0.1141191E+00
         21   -1    0    0  503  502  0.00000000000E+00  0.00000000000E+00  0.24288618514E+03  0.24288618514E+03  0.00000000000E+00 0. -1.
         21   -1    0    0  501  503 -0.00000000000E+00 -0.00000000000E+00 -0.19445457906E+03  0.19445457906E+03  0.00000000000E+00 0. -1.
          6    1    1    2  501    0 -0.11693513410E+03  0.32276641988E+02 -0.30255392438E+02  0.21263818090E+03  0.17200000000E+03 0.  1.
         -6    1    1    2    0  502  0.11693513410E+03 -0.32276641988E+02  0.78686998524E+02  0.22470258330E+03  0.17200000000E+03 0.  1.
</event>
<event>
 4    1  0.5743594E+000  0.1859169E+03  0.7818608E-02  0.1162196E+00
         21   -1    0    0  501  502  0.00000000000E+00  0.00000000000E+00  0.68277372647E+03  0.68277372647E+03  0.00000000000E+00 0.  1.
         21   -1    0    0  502  503 -0.00000000000E+00 -0.00000000000E+00 -0.74896032483E+02  0.74896032483E+02  0.00000000000E+00 0.  1.
          6    1    1    2  501    0  0.36198961363E+02 -0.60586670888E+02  0.51959842197E+03  0.55185834197E+03  0.17200000000E+03 0.  1.
         -6    1    1    2    0  503 -0.36198961363E+02  0.60586670888E+02  0.88279272025E+02  0.20581141699E+03  0.17200000000E+03 0.  1.
</event>
<event>
 4    1  0.5743594E+000  0.2022546E+03  0.7818608E-02  0.1147851E+00
         21   -1    0    0  503  502  0.00000000000E+00  0.00000000000E+00  0.27004249243E+03  0.27004249243E+03  0.00000000000E+00 0. -1.
         21   -1    0    0  501  503 -0.00000000000E+00 -0.00000000000E+00 -0.17718988026E+03  0.17718988026E+03  0.00000000000E+00 0.  1.
          6    1    1    2  501    0 -0.10470659484E+03  0.18959047944E+02 -0.38747545919E+02  0.20593272886E+03  0.17200000000E+03 0.  1.
         -6    1    1    2    0  502  0.10470659484E+03 -0.18959047944E+02  0.13160015810E+03  0.24129964383E+03  0.17200000000E+03 0. -1.
</event>
<event>
 4    1  0.5743594E+000  0.2320651E+03  0.7818608E-02  0.1125195E+00
         21   -1    0    0  503  502  0.00000000000E+00  0.00000000000E+00  0.33128719488E+03  0.33128719488E+03  0.00000000000E+00 0. -1.
         21   -1    0    0  501  503 -0.00000000000E+00 -0.00000000000E+00 -0.30296835869E+03  0.30296835869E+03  0.00000000000E+00 0. -1.
          6    1    1    2  501    0 -0.15505149850E+03  0.15140612446E+02 -0.20173001468E+03  0.30748854313E+03  0.17200000000E+03 0. -1.
         -6    1    1    2    0  502  0.15505149850E+03 -0.15140612446E+02  0.23004885087E+03  0.32676701045E+03  0.17200000000E+03 0. -1.
</event>
<event>
 4    1  0.5743594E+000  0.2359488E+03  0.7818608E-02  0.1122521E+00
         21   -1    0    0  501  502  0.00000000000E+00  0.00000000000E+00  0.12890886556E+03  0.12890886556E+03  0.00000000000E+00 0. -1.
         21   -1    0    0  502  503 -0.00000000000E+00 -0.00000000000E+00 -0.47947239459E+03  0.47947239459E+03  0.00000000000E+00 0.  1.
          6    1    1    2  501    0 -0.15181713021E+03 -0.55130761503E+02 -0.79434552254E+02  0.24896122184E+03  0.17200000000E+03 0. -1.
         -6    1    1    2    0  503  0.15181713021E+03  0.55130761503E+02 -0.27112897677E+03  0.35942003830E+03  0.17200000000E+03 0.  1.
</event>
<event>
 4    1  0.5743594E+000  0.2437873E+03  0.7818608E-02  0.1117295E+00
         21   -1    0    0  503  502  0.00000000000E+00  0.00000000000E+00  0.17162589187E+03  0.17162589187E+03  0.00000000000E+00 0. -1.
         21   -1    0    0  501  503 -0.00000000000E+00 -0.00000000000E+00 -0.59052929111E+03  0.59052929111E+03  0.00000000000E+00 0. -1.
          6    1    1    2  501    0  0.17001553353E+03 -0.30708126696E+02 -0.45452768799E+03  0.51577872177E+03  0.17200000000E+03 0.  1.
         -6    1    1    2    0  502 -0.17001553353E+03  0.30708126696E+02  0.35624288750E+02  0.24637646121E+03  0.17200000000E+03 0.  1.
</event>
<event>
 4    1  0.5743594E+000  0.2165286E+03  0.7818608E-02  0.1136498E+00
         21   -1    0    0  503  502  0.00000000000E+00  0.00000000000E+00  0.11597602462E+04  0.11597602462E+04  0.00000000000E+00 0. -1.
         21   -1    0    0  501  503 -0.00000000000E+00 -0.00000000000E+00 -0.65911205485E+02  0.65911205485E+02  0.00000000000E+00 0. -1.
          6    1    1    2  501    0  0.99456242482E+02  0.86076049519E+02  0.16585227262E+03  0.27274824803E+03  0.17200000000E+03 0. -1.
         -6    1    1    2    0  502 -0.99456242482E+02 -0.86076049519E+02  0.92799676807E+03  0.95292320363E+03  0.17200000000E+03 0. -1.
</event>
<event>
 4    1  0.5743594E+000  0.2148194E+03  0.7818608E-02  0.1137805E+00
         21   -1    0    0  503  502  0.00000000000E+00  0.00000000000E+00  0.50800443704E+03  0.50800443704E+03  0.00000000000E+00 0. -1.
         21   -1    0    0  501  503 -0.00000000000E+00 -0.00000000000E+00 -0.10524724539E+03  0.10524724539E+03  0.00000000000E+00 0. -1.
          6    1    1    2  501    0 -0.74510043296E+02 -0.10493629039E+03  0.31482389023E+03  0.38113180588E+03  0.17200000000E+03 0. -1.
         -6    1    1    2    0  502  0.74510043296E+02  0.10493629039E+03  0.87933301422E+02  0.23211987656E+03  0.17200000000E+03 0. -1.
</event>
<event>
 4    1  0.5743594E+000  0.2190018E+03  0.7818608E-02  0.1134629E+00
         21   -1    0    0  501  502  0.00000000000E+00  0.00000000000E+00  0.11750349723E+04  0.11750349723E+04  0.00000000000E+00 0. -1.
         21   -1    0    0  502  503 -0.00000000000E+00 -0.00000000000E+00 -0.68410307652E+02  0.68410307652E+02  0.00000000000E+00 0. -1.
          6    1    1    2  501    0 -0.17334992362E+02 -0.13445177181E+03  0.15845949989E+03  0.27031684004E+03  0.17200000000E+03 0. -1.
         -6    1    1    2    0  503  0.17334992362E+02  0.13445177181E+03  0.94816516471E+03  0.97312843986E+03  0.17200000000E+03 0. -1.
</event>
<event>
 4    1  0.5743594E+000  0.1801836E+03  0.7818608E-02  0.1167626E+00
         21   -1    0    0  501  502  0.00000000000E+00  0.00000000000E+00  0.85120519257E+03  0.85120519257E+03  0.00000000000E+00 0.  1.
         21   -1    0    0  502  503 -0.00000000000E+00 -0.00000000000E+00 -0.38230069049E+02  0.38230069049E+02  0.00000000000E+00 0.  1.
          6    1    1    2  501    0  0.47367678279E+02  0.25266953095E+02  0.42791095472E+03  0.46429936575E+03  0.17200000000E+03 0.  1.
         -6    1    1    2    0  503 -0.47367678279E+02 -0.25266953095E+02  0.38506416880E+03  0.42513589587E+03  0.17200000000E+03 0.  1.
</event>
<event>
 4    1  0.5743594E+000  0.1840040E+03  0.7818608E-02  0.1163983E+00
         21   -1    0    0  503  502  0.00000000000E+00  0.00000000000E+00  0.10203226205E+03  0.10203226205E+03  0.00000000000E+00 0.  1.
         21   -1    0    0  501  503 -0.00000000000E+00 -0.00000000000E+00 -0.70024713615E+03  0.70024713615E+03  0.00000000000E+00 0.  1.
          6    1    1    2  501    0  0.98181378607E+01 -0.64630234849E+02 -0.59007147907E+03  0.61809531101E+03  0.17200000000E+03 0.  1.
         -6    1    1    2    0  502 -0.98181378607E+01  0.64630234849E+02 -0.81433950340E+01  0.18418408718E+03  0.17200000000E+03 0.  1.
</event>
<event>
 4    1  0.5743594E+000  0.2843494E+03  0.7818608E-02  0.1093337E+00
         21   -1    0    0  501  502  0.00000000000E+00  0.00000000000E+00  0.67489888152E+03  0.67489888152E+03  0.00000000000E+00 0.  1.
         21   -1    0    0  502  503 -0.00000000000E+00 -0.00000000000E+00 -0.17311309388E+03  0.17311309388E+03  0.00000000000E+00 0. -1.
          6    1    1    2  501    0 -0.19350003075E+03 -0.11759375814E+03  0.48618854905E+03  0.56323517209E+03  0.17200000000E+03 0.  1.
         -6    1    1    2    0  503  0.19350003075E+03  0.11759375814E+03  0.15597238584E+02  0.28477680331E+03  0.17200000000E+03 0.  1.
</event>
<event>
 4    1  0.5743594E+000  0.1928909E+03  0.7818608E-02  0.1155879E+00
         21   -1    0    0  501  502  0.00000000000E+00  0.00000000000E+00  0.53128137850E+03  0.53128137850E+03  0.00000000000E+00 0. -1.
         21   -1    0    0  502  503 -0.00000000000E+00 -0.00000000000E+00 -0.93492518869E+02  0.93492518869E+02  0.00000000000E+00 0. -1.
          6    1    1    2  501    0  0.65885642140E+02 -0.57288700448E+02  0.37537827244E+03  0.42203762919E+03  0.17200000000E+03 0. -1.
         -6    1    1    2    0  503 -0.65885642140E+02  0.57288700448E+02  0.62410587195E+02  0.20273626817E+03  0.17200000000E+03 0. -1.
</event>
<event>
 4    1  0.5743594E+000  0.1889864E+03  0.7818608E-02  0.1159379E+00
         21   -1    0    0  503  502  0.00000000000E+00  0.00000000000E+00  0.42064185730E+03  0.42064185730E+03  0.00000000000E+00 0.  1.
         21   -1    0    0  501  503 -0.00000000000E+00 -0.00000000000E+00 -0.86172332817E+02  0.86172332817E+02  0.00000000000E+00 0.  1.
          6    1    1    2  501    0 -0.45196187258E+02 -0.63946449600E+02  0.19793004932E+03  0.27366429834E+03  0.17200000000E+03 0.  1.
         -6    1    1    2    0  502  0.45196187258E+02  0.63946449600E+02  0.13653947516E+03  0.23314989178E+03  0.17200000000E+03 0.  1.
</event>
<event>
 4    1  0.5743594E+000  0.1782606E+03  0.7818608E-02  0.1169497E+00
         21   -1    0    0  503  502  0.00000000000E+00  0.00000000000E+00  0.29408809146E+02  0.29408809146E+02  0.00000000000E+00 0. -1.
         21   -1    0    0  501  503 -0.00000000000E+00 -0.00000000000E+00 -0.19054112408E+04  0.19054112408E+04  0.00000000000E+00 0. -1.
          6    1    1    2  501    0  0.46771777769E+02  0.22908699306E+01 -0.15745243649E+04  0.15845831701E+04  0.17200000000E+03 0. -1.
         -6    1    1    2    0  502 -0.46771777769E+02 -0.22908699306E+01 -0.30147806682E+03  0.35023687992E+03  0.17200000000E+03 0. -1.
</event>
<event>
 4    1  0.5743594E+000  0.2000783E+03  0.7818608E-02  0.1149673E+00
         21   -1    0    0  501  502  0.00000000000E+00  0.00000000000E+00  0.11740128092E+03  0.11740128092E+03  0.00000000000E+00 0. -1.
         21   -1    0    0  502  503 -0.00000000000E+00 -0.00000000000E+00 -0.36429460819E+03  0.36429460819E+03  0.00000000000E+00 0.  1.
          6    1    1    2  501    0  0.54100568524E+02 -0.86720582516E+02 -0.62514983529E+02  0.20961739935E+03  0.17200000000E+03 0. -1.
         -6    1    1    2    0  503 -0.54100568524E+02  0.86720582516E+02 -0.18437834374E+03  0.27207848975E+03  0.17200000000E+03 0.  1.
</event>
<event>
 4    1  0.5743594E+000  0.1735579E+03  0.7818608E-02  0.1174188E+00
         21   -1    0    0  503  502  0.00000000000E+00  0.00000000000E+00  0.12723620732E+03  0.12723620732E+03  0.00000000000E+00 0. -1.
         21   -1    0    0  501  503 -0.00000000000E+00 -0.00000000000E+00 -0.33040015536E+03  0.33040015536E+03  0.00000000000E+00 0. -1.
          6    1    1    2  501    0  0.90556396338E+01  0.21362164574E+02 -0.22340789419E+03  0.28290180960E+03  0.17200000000E+03 0. -1.
         -6    1    1    2    0  502 -0.90556396338E+01 -0.21362164574E+02  0.20243946149E+02  0.17473455308E+03  0.17200000000E+03 0. -1.
</event>
<event>
 4    1  0.5743594E+000  0.1783068E+03  0.7818608E-02  0.1169452E+00
         21   -1    0    0  501  502  0.00000000000E+00  0.00000000000E+00  0.64769338470E+03  0.64769338470E+03  0.00000000000E+00 0.  1.
         21   -1    0    0  502  503 -0.00000000000E+00 -0.00000000000E+00 -0.53698133406E+02  0.53698133406E+02  0.00000000000E+00 0.  1.
          6    1    1    2  501    0  0.40606309767E+02  0.23673548051E+02  0.39976515582E+03  0.43772764258E+03  0.17200000000E+03 0. -1.
         -6    1    1    2    0  503 -0.40606309767E+02 -0.23673548051E+02  0.19423009547E+03  0.26366387553E+03  0.17200000000E+03 0. -1.
</event>
<event>
 4    1  0.5743594E+000  0.2290974E+03  0.7818608E-02  0.1127277E+00
         21   -1    0    0  501  502  0.00000000000E+00  0.00000000000E+00  0.44370875534E+02  0.44370875534E+02  0.00000000000E+00 0.  1.
         21   -1    0    0  502  503 -0.00000000000E+00 -0.00000000000E+00 -0.12304618580E+04  0.12304618580E+04  0.00000000000E+00 0.  1.
          6    1    1    2  501    0  0.28788997100E+02  0.14856925173E+03 -0.71838513935E+03  0.75403105861E+03  0.17200000000E+03 0.  1.
         -6    1    1    2    0  503 -0.28788997100E+02 -0.14856925173E+03 -0.46770584310E+03  0.52080167491E+03  0.17200000000E+03 0.  1.
</event>
<event>
 4    1  0.5743594E+000  0.2099721E+03  0.7818608E-02  0.1141588E+00
         21   -1    0    0  503  502  0.00000000000E+00  0.00000000000E+00  0.10029958494E+03  0.10029958494E+03  0.00000000000E+00 0.  1.
         21   -1    0    0  501  503 -0.00000000000E+00 -0.00000000000E+00 -0.44038600038E+03  0.44038600038E+03  0.00000000000E+00 0.  1.
          6    1    1    2  501    0 -0.74912319775E+02 -0.94299681305E+02 -0.18170888170E+03  0.27768039765E+03  0.17200000000E+03 0.  1.
         -6    1    1    2    0  502  0.74912319775E+02  0.94299681305E+02 -0.15837753373E+03  0.26300518767E+03  0.17200000000E+03 0.  1.
</event>
<event>
 4    1  0.5743594E+000  0.2235222E+03  0.7818608E-02  0.1131284E+00
         21   -1    0    0  501  502  0.00000000000E+00  0.00000000000E+00  0.68095249853E+02  0.68095249853E+02  0.00000000000E+00 0.  1.
         21   -1    0    0  502  503 -0.00000000000E+00 -0.00000000000E+00 -0.99078304795E+03  0.99078304795E+03  0.00000000000E+00 0.  1.
          6    1    1    2  501    0 -0.14265222884E+03 -0.53403428546E+01 -0.19166007736E+03  0.29444144224E+03  0.17200000000E+03 0.  1.
         -6    1    1    2    0  503  0.14265222884E+03  0.53403428546E+01 -0.73102772074E+03  0.76443685557E+03  0.17200000000E+03 0.  1.
</event>
<event>
 4    1  0.5743594E+000  0.2357067E+03  0.7818608E-02  0.1122686E+00
         21   -1    0    0  503  502  0.00000000000E+00  0.00000000000E+00  0.44943362564E+03  0.44943362564E+03  0.00000000000E+00 0. -1.
         21   -1    0    0  501  503 -0.00000000000E+00 -0.00000000000E+00 -0.42180551292E+03  0.42180551292E+03  0.00000000000E+00 0. -1.
          6    1    1    2  501    0  0.34469678820E+02 -0.15743412855E+03 -0.35245199477E+03  0.42400480211E+03  0.17200000000E+03 0. -1.
         -6    1    1    2    0  502 -0.34469678820E+02  0.15743412855E+03  0.38008010750E+03  0.44723433646E+03  0.17200000000E+03 0. -1.
</event>
<event>
 4    1  0.5743594E+000  0.1724576E+03  0.7818608E-02  0.1175309E+00
         21   -1    0    0  503  502  0.00000000000E+00  0.00000000000E+00  0.36229605399E+03  0.36229605399E+03  0.00000000000E+00 0.  1.
         21   -1    0    0  501  503 -0.00000000000E+00 -0.00000000000E+00 -0.83155636157E+02  0.83155636157E+02  0.00000000000E+00 0.  1.
          6    1    1    2  501    0  0.40038718124E+01  0.11899342336E+02  0.11438118394E+03  0.20694124910E+03  0.17200000000E+03 0.  1.
         -6    1    1    2    0  502 -0.40038718124E+01 -0.11899342336E+02  0.16475923389E+03  0.23851044105E+03  0.17200000000E+03 0.  1.
</event>
<event>
 4    1  0.5743594E+000  0.2090615E+03  0.7818608E-02  0.1142311E+00
         21   -1    0    0  501  502  0.00000000000E+00  0.00000000000E+00  0.96092992883E+02  0.96092992883E+02  0.00000000000E+00 0.  1.
         21   -1    0    0  502  503 -0.00000000000E+00 -0.00000000000E+00 -0.54627698856E+03  0.54627698856E+03  0.00000000000E+00 0.  1.
          6    1    1    2  501    0  0.11342559765E+03  0.35458781321E+02 -0.93685810933E+02  0.22909326168E+03  0.17200000000E+03 0.  1.
         -6    1    1    2    0  503 -0.11342559765E+03 -0.35458781321E+02 -0.35649818475E+03  0.41327671977E+03  0.17200000000E+03 0.  1.
</event>
<event>
 4    1  0.5743594E+000  0.1975548E+03  0.7818608E-02  0.1151819E+00
         21   -1    0    0  501  502  0.00000000000E+00  0.00000000000E+00  0.50733179485E+03  0.50733179485E+03  0.00000000000E+00 0. -1.
         21   -1    0    0  502  503 -0.00000000000E+00 -0.00000000000E+00 -0.10748416539E+03  0.10748416539E+03  0.00000000000E+00 0.  1.
          6    1    1    2  501    0 -0.27255153099E+02  0.93279371880E+02  0.36382957639E+03  0.41400464399E+03  0.17200000000E+03 0.  1.
         -6    1    1    2    0  503  0.27255153099E+02 -0.93279371880E+02  0.36018053070E+02  0.20081131625E+03  0.17200000000E+03 0.  1.
</event>
<event>
 4    1  0.5743594E+000  0.1795926E+03  0.7818608E-02  0.1168198E+00
         21   -1    0    0  503  502  0.00000000000E+00  0.00000000000E+00  0.15712143599E+03  0.15712143599E+03  0.00000000000E+00 0.  1.
         21   -1    0    0  501  503 -0.00000000000E+00 -0.00000000000E+00 -0.67179346454E+03  0.67179346454E+03  0.00000000000E+00 0.  1.
          6    1    1    2  501    0 -0.12164879020E+02  0.50214867830E+02 -0.60271447896E+03  0.62890242516E+03  0.17200000000E+03 0.  1.
         -6    1    1    2    0  502  0.12164879020E+02 -0.50214867830E+02  0.88042450403E+02  0.20001247538E+03  0.17200000000E+03 0.  1.
</event>
<event>
 4    1  0.5743594E+000  0.1845481E+03  0.7818608E-02  0.1163473E+00
         21   -1    0    0  501  502  0.00000000000E+00  0.00000000000E+00  0.20798981643E+04  0.20798981643E+04  0.00000000000E+00 0.  1.
         21   -1    0    0  502  503 -0.00000000000E+00 -0.00000000000E+00 -0.16798883328E+02  0.16798883328E+02  0.00000000000E+00 0. -1.
          6    1    1    2  501    0 -0.21279797010E+02 -0.63412850300E+02  0.11981077378E+04  0.12122376709E+04  0.17200000000E+03 0.  1.
         -6    1    1    2    0  503  0.21279797010E+02  0.63412850300E+02  0.86499154315E+03  0.88445937672E+03  0.17200000000E+03 0. -1.
</event>
<event>
 4    1  0.5743594E+000  0.2325132E+03  0.7818608E-02  0.1124883E+00
         21   -1    0    0  501  502  0.00000000000E+00  0.00000000000E+00  0.13810475850E+04  0.13810475850E+04  0.00000000000E+00 0. -1.
         21   -1    0    0  502  503 -0.00000000000E+00 -0.00000000000E+00 -0.91419823144E+02  0.91419823144E+02  0.00000000000E+00 0.  1.
          6    1    1    2  501    0 -0.13697075982E+02 -0.15585505955E+03  0.12015352319E+04  0.12238256914E+04  0.17200000000E+03 0. -1.
         -6    1    1    2    0  503  0.13697075982E+02  0.15585505955E+03  0.88092529998E+02  0.24864171677E+03  0.17200000000E+03 0.  1.
</event>
<event>
 4    1  0.5743594E+000  0.2080961E+03  0.7818608E-02  0.1143083E+00
         21   -1    0    0  503  502  0.00000000000E+00  0.00000000000E+00  0.44488264441E+02  0.44488264441E+02  0.00000000000E+00 0.  1.
         21   -1    0    0  501  503 -0.00000000000E+00 -0.00000000000E+00 -0.12142082693E+04  0.12142082693E+04  0.00000000000E+00 0.  1.
          6    1    1    2  501    0 -0.16106259015E+02 -0.11601965198E+03 -0.86514412472E+03  0.88981926691E+03  0.17200000000E+03 0.  1.
         -6    1    1    2    0  502  0.16106259015E+02  0.11601965198E+03 -0.30457588015E+03  0.36887726685E+03  0.17200000000E+03 0.  1.
</event>
<event>
 4    1  0.5743594E+000  0.2319902E+03  0.7818608E-02  0.1125247E+00
         21   -1    0    0  501  502  0.00000000000E+00  0.00000000000E+00  0.21146409133E+03  0.21146409133E+03  0.00000000000E+00 0. -1.
         21   -1    0    0  502  503 -0.00000000000E+00 -0.00000000000E+00 -0.25966964032E+03  0.25966964032E+03  0.00000000000E+00 0.  1.
          6    1    1    2  501    0  0.14503405973E+03 -0.56573444848E+02  0.91074325657E+01  0.23216885767E+03  0.17200000000E+03 0.  1.
         -6    1    1    2    0  503 -0.14503405973E+03  0.56573444848E+02 -0.57312981554E+02  0.23896487398E+03  0.17200000000E+03 0.  1.
</event>
<event>
 4    1  0.5743594E+000  0.2411603E+03  0.7818608E-02  0.1119022E+00
         21   -1    0    0  503  502  0.00000000000E+00  0.00000000000E+00  0.32386231993E+03  0.32386231993E+03  0.00000000000E+00 0. -1.
         21   -1    0    0  501  503 -0.00000000000E+00 -0.00000000000E+00 -0.19882459214E+03  0.19882459214E+03  0.00000000000E+00 0.  1.
          6    1    1    2  501    0 -0.16600057701E+03 -0.31907603511E+02 -0.18794624356E+02  0.24189155553E+03  0.17200000000E+03 0.  1.
         -6    1    1    2    0  502  0.16600057701E+03  0.31907603511E+02  0.14383235214E+03  0.28079535654E+03  0.17200000000E+03 0. -1.
</event>
<event>
 4    1  0.5743594E+000  0.2746140E+03  0.7818608E-02  0.1098668E+00
         21   -1    0    0  501  502  0.00000000000E+00  0.00000000000E+00  0.13560919909E+03  0.13560919909E+03  0.00000000000E+00 0.  1.
         21   -1    0    0  502  503 -0.00000000000E+00 -0.00000000000E+00 -0.78973053250E+03  0.78973053250E+03  0.00000000000E+00 0. -1.
          6    1    1    2  501    0 -0.10803225516E+03  0.18481844381E+03 -0.75413073233E+02  0.28478054172E+03  0.17200000000E+03 0.  1.
         -6    1    1    2    0  503  0.10803225516E+03 -0.18481844381E+03 -0.57870826018E+03  0.64055918987E+03  0.17200000000E+03 0. -1.
</event>
<event>
 4    1  0.5743594E+000  0.1975799E+03  0.7818608E-02  0.1151797E+00
         21   -1    0    0  503  502  0.00000000000E+00  0.00000000000E+00  0.99495143504E+02  0.99495143504E+02  0.00000000000E+00 0. -1.
         21   -1    0    0  501  503 -0.00000000000E+00 -0.00000000000E+00 -0.57902107549E+03  0.57902107549E+03  0.00000000000E+00 0.  1.
          6    1    1    2  501    0 -0.35908926505E+02  0.90356944890E+02 -0.43238720652E+03  0.47539091793E+03  0.17200000000E+03 0.  1.
         -6    1    1    2    0  502  0.35908926505E+02 -0.90356944890E+02 -0.47138725469E+02  0.20312530106E+03  0.17200000000E+03 0. -1.
</event>
<event>
 4    1  0.5743594E+000  0.2307029E+03  0.7818608E-02  0.1126146E+00
         21   -1    0    0  501  502  0.00000000000E+00  0.00000000000E+00  0.29104633408E+03  0.29104633408E+03  0.00000000000E+00 0. -1.
         21   -1    0    0  502  503 -0.00000000000E+00 -0.00000000000E+00 -0.18622490338E+03  0.18622490338E+03  0.00000000000E+00 0. -1.
          6    1    1    2  501    0 -0.13234201613E+03  0.78264922850E+02  0.84437981038E+02  0.24566965629E+03  0.17200000000E+03 0. -1.
         -6    1    1    2    0  503  0.13234201613E+03 -0.78264922850E+02  0.20383449664E+02  0.23160158117E+03  0.17200000000E+03 0. -1.
</event>
<event>
 4    1  0.5743594E+000  0.2031494E+03  0.7818608E-02  0.1147109E+00
         21   -1    0    0  501  502  0.00000000000E+00  0.00000000000E+00  0.19070958084E+03  0.19070958084E+03  0.00000000000E+00 0. -1.
         21   -1    0    0  502  503 -0.00000000000E+00 -0.00000000000E+00 -0.47385806066E+03  0.47385806066E+03  0.00000000000E+00 0. -1.
          6    1    1    2  501    0  0.30203041650E+01  0.10805814145E+03  0.10335336021E+03  0.22792893901E+03  0.17200000000E+03 0. -1.
         -6    1    1    2    0  503 -0.30203041650E+01 -0.10805814145E+03 -0.38650184003E+03  0.43663870250E+03  0.17200000000E+03 0. -1.
</event>
<event>
 4    1  0.5743594E+000  0.1875256E+03  0.7818608E-02  0.1160712E+00
         21   -1    0    0  501  502  0.00000000000E+00  0.00000000000E+00  0.39442618041E+03  0.39442618041E+03  0.00000000000E+00 0.  1.
         21   -1    0    0  502  503 -0.00000000000E+00 -0.00000000000E+00 -0.77668138445E+03  0.77668138445E+03  0.00000000000E+00 0.  1.
          6    1    1    2  501    0 -0.46589156504E+02 -0.58406276565E+02  0.35979349736E+03  0.40573045657E+03  0.17200000000E+03 0.  1.
         -6    1    1    2    0  503  0.46589156504E+02  0.58406276565E+02 -0.74204870140E+03  0.76537710829E+03  0.17200000000E+03 0.  1.
</event>
<event>
 4    1  0.5743594E+000  0.2103158E+03  0.7818608E-02  0.1141316E+00
         21   -1    0    0  503  502  0.00000000000E+00  0.00000000000E+00  0.12162538198E+03  0.12162538198E+03  0.00000000000E+00 0.  1.
         21   -1    0    0  501  503 -0.00000000000E+00 -0.00000000000E+00 -0.13858275989E+04  0.13858275989E+04  0.00000000000E+00 0.  1.
          6    1    1    2  501    0  0.35527156166E+02  0.11570035396E+03 -0.12794164902E+04  0.12965875621E+04  0.17200000000E+03 0.  1.
         -6    1    1    2    0  502 -0.35527156166E+02 -0.11570035396E+03  0.15214273288E+02  0.21086541880E+03  0.17200000000E+03 0.  1.
</event>
<event>
 4    1  0.5743594E+000  0.1850331E+03  0.7818608E-02  0.1163019E+00
         21   -1    0    0  501  502  0.00000000000E+00  0.00000000000E+00  0.53732250884E+03  0.53732250884E+03  0.00000000000E+00 0. -1.
         21   -1    0    0  502  503 -0.00000000000E+00 -0.00000000000E+00 -0.11812111436E+03  0.11812111436E+03  0.00000000000E+00 0. -1.
          6    1    1    2  501    0 -0.47586458182E+02 -0.48875093025E+02  0.43200976704E+03  0.46996774840E+03  0.17200000000E+03 0. -1.
         -6    1    1    2    0  503  0.47586458182E+02  0.48875093025E+02 -0.12808372563E+02  0.18547587479E+03  0.17200000000E+03 0. -1.
</event>
<event>
 4    1  0.5743594E+000  0.1814157E+03  0.7818608E-02  0.1166440E+00
         21   -1    0    0  501  502  0.00000000000E+00  0.00000000000E+00  0.83648154885E+02  0.83648154885E+02  0.00000000000E+00 0.  1.
         21   -1    0    0  502  503 -0.00000000000E+00 -0.00000000000E+00 -0.64777427708E+03  0.64777427708E+03  0.00000000000E+00 0.  1.
          6    1    1    2  501    0 -0.57626121760E+02  0.26234626370E+01 -0.52914348550E+02  0.18897507970E+03  0.17200000000E+03 0.  1.
         -6    1    1    2    0  503  0.57626121760E+02 -0.26234626370E+01 -0.51121177365E+03  0.54244735227E+03  0.17200000000E+03 0.  1.
</event>
<event>
 4    1  0.5743594E+000  0.2143547E+03  0.7818608E-02  0.1138163E+00
         21   -1    0    0  503  502  0.00000000000E+00  0.00000000000E+00  0.50523493943E+03  0.50523493943E+03  0.00000000000E+00 0.  1.
         21   -1    0    0  501  503 -0.00000000000E+00 -0.00000000000E+00 -0.10787088707E+03  0.10787088707E+03  0.00000000000E+00 0.  1.
          6    1    1    2  501    0 -0.76355620857E+02  0.10263404321E+03  0.77246460606E+02  0.22784850962E+03  0.17200000000E+03 0.  1.
         -6    1    1    2    0  502  0.76355620857E+02 -0.10263404321E+03  0.32011759175E+03  0.38525731688E+03  0.17200000000E+03 0.  1.
</event>
<event>
 4    1  0.5743594E+000  0.2764457E+03  0.7818608E-02  0.1097646E+00
         21   -1    0    0  503  502  0.00000000000E+00  0.00000000000E+00  0.35254102991E+04  0.35254102991E+04  0.00000000000E+00 0.  1.
         21   -1    0    0  501  503 -0.00000000000E+00 -0.00000000000E+00 -0.29318588977E+02  0.29318588977E+02  0.00000000000E+00 0. -1.
          6    1    1    2  501    0  0.17563777246E+03  0.12644987337E+03  0.84068163440E+03  0.88496768755E+03  0.17200000000E+03 0.  1.
         -6    1    1    2    0  502 -0.17563777246E+03 -0.12644987337E+03  0.26554100757E+04  0.26697612005E+04  0.17200000000E+03 0. -1.
</event>
<event>
 4    1  0.5743594E+000  0.2187411E+03  0.7818608E-02  0.1134825E+00
         21   -1    0    0  501  502  0.00000000000E+00  0.00000000000E+00  0.67709262289E+02  0.67709262289E+02  0.00000000000E+00 0. -1.
         21   -1    0    0  502  503 -0.00000000000E+00 -0.00000000000E+00 -0.33386965533E+04  0.33386965533E+04  0.00000000000E+00 0. -1.
          6    1    1    2  501    0  0.10130408273E+03  0.89449204432E+02 -0.12324372973E+03  0.25107109405E+03  0.17200000000E+03 0. -1.
         -6    1    1    2    0  503 -0.10130408273E+03 -0.89449204432E+02 -0.31477435613E+04  0.31553347215E+04  0.17200000000E+03 0. -1.
</event>
<event>
 4    1  0.5743594E+000  0.2416562E+03  0.7818608E-02  0.1118694E+00
         21   -1    0    0  503  502  0.00000000000E+00  0.00000000000E+00  0.15860578283E+03  0.15860578283E+03  0.00000000000E+00 0.  1.
         21   -1    0    0  501  503 -0.00000000000E+00 -0.00000000000E+00 -0.59568214610E+03  0.59568214610E+03  0.00000000000E+00 0.  1.
          6    1    1    2  501    0 -0.20029414561E+02  0.16856027322E+03 -0.45160421338E+03  0.51219538137E+03  0.17200000000E+03 0.  1.
         -6    1    1    2    0  502  0.20029414561E+02 -0.16856027322E+03  0.14527850102E+02  0.24209254756E+03  0.17200000000E+03 0.  1.
</event>
<event>
 4    1  0.5743594E+000  0.3140500E+03  0.7818608E-02  0.1078421E+00
         21   -1    0    0  501  502  0.00000000000E+00  0.00000000000E+00  0.17151654591E+04  0.17151654591E+04  0.00000000000E+00 0. -1.
         21   -1    0    0  502  503 -0.00000000000E+00 -0.00000000000E+00 -0.92647753118E+02  0.92647753118E+02  0.00000000000E+00 0.  1.
          6    1    1    2  501    0 -0.24170949984E+03  0.10305295396E+03  0.13679771812E+04  0.14035629526E+04  0.17200000000E+03 0. -1.
         -6    1    1    2    0  503  0.24170949984E+03 -0.10305295396E+03  0.25454052476E+03  0.40425025959E+03  0.17200000000E+03 0.  1.
</event>
<event>
 4    1  0.5743594E+000  0.2041007E+03  0.7818608E-02  0.1146325E+00
         21   -1    0    0  501  502  0.00000000000E+00  0.00000000000E+00  0.10756083578E+03  0.10756083578E+03  0.00000000000E+00 0.  1.
         21   -1    0    0  502  503 -0.00000000000E+00 -0.00000000000E+00 -0.85036576286E+03  0.85036576286E+03  0.00000000000E+00 0.  1.
          6    1    1    2  501    0 -0.10185064940E+03  0.41225431605E+02 -0.17954070450E+02  0.20488884704E+03  0.17200000000E+03 0.  1.
         -6    1    1    2    0  503  0.10185064940E+03 -0.41225431605E+02 -0.72485085663E+03  0.75303775161E+03  0.17200000000E+03 0.  1.
</event>
<event>
 4    1  0.5743594E+000  0.2535690E+03  0.7818608E-02  0.1111070E+00
         21   -1    0    0  503  502  0.00000000000E+00  0.00000000000E+00  0.82210254978E+02  0.82210254978E+02  0.00000000000E+00 0.  1.
         21   -1    0    0  501  503 -0.00000000000E+00 -0.00000000000E+00 -0.99733890653E+03  0.99733890653E+03  0.00000000000E+00 0.  1.
          6    1    1    2  501    0 -0.11838701349E+03  0.14386712205E+03 -0.70831618108E+03  0.75233572701E+03  0.17200000000E+03 0.  1.
         -6    1    1    2    0  502  0.11838701349E+03 -0.14386712205E+03 -0.20681247048E+03  0.32721343449E+03  0.17200000000E+03 0.  1.
</event>
<event>
 4    1  0.5743594E+000  0.1953765E+03  0.7818608E-02  0.1153700E+00
         21   -1    0    0  501  502  0.00000000000E+00  0.00000000000E+00  0.43151699958E+03  0.43151699958E+03  0.00000000000E+00 0.  1.
         21   -1    0    0  502  503 -0.00000000000E+00 -0.00000000000E+00 -0.16529640265E+03  0.16529640265E+03  0.00000000000E+00 0. -1.
          6    1    1    2  501    0  0.88126235699E+02 -0.28666129725E+02  0.33656159880E+03  0.38916023717E+03  0.17200000000E+03 0.  1.
         -6    1    1    2    0  503 -0.88126235699E+02  0.28666129725E+02 -0.70341001870E+02  0.20765316505E+03  0.17200000000E+03 0. -1.
</event>
<event>
 4    1  0.5743594E+000  0.1996174E+03  0.7818608E-02  0.1150062E+00
         21   -1    0    0  501  502  0.00000000000E+00  0.00000000000E+00  0.17521335854E+03  0.17521335854E+03  0.00000000000E+00 0. -1.
         21   -1    0    0  502  503 -0.00000000000E+00 -0.00000000000E+00 -0.22748072043E+03  0.22748072043E+03  0.00000000000E+00 0.  1.
          6    1    1    2  501    0 -0.28391522436E+02 -0.97247158437E+02 -0.29412983415E+02  0.20177267398E+03  0.17200000000E+03 0.  1.
         -6    1    1    2    0  503  0.28391522436E+02  0.97247158437E+02 -0.22854378473E+02  0.20092140500E+03  0.17200000000E+03 0.  1.
</event>
<event>
 4    1  0.5743594E+000  0.1847599E+03  0.7818608E-02  0.1163274E+00
         21   -1    0    0  503  502  0.00000000000E+00  0.00000000000E+00  0.27482313938E+02  0.27482313938E+02  0.00000000000E+00 0. -1.
         21   -1    0    0  501  503 -0.00000000000E+00 -0.00000000000E+00 -0.12684349584E+04  0.12684349584E+04  0.00000000000E+00 0. -1.
          6    1    1    2  501    0  0.62517983584E+02  0.25371738414E+02 -0.71381186851E+03  0.73733547792E+03  0.17200000000E+03 0. -1.
         -6    1    1    2    0  502 -0.62517983584E+02 -0.25371738414E+02 -0.52714077600E+03  0.55858179446E+03  0.17200000000E+03 0. -1.
</event>
<event>
 4    1  0.5743594E+000  0.2192750E+03  0.7818608E-02  0.1134425E+00
         21   -1    0    0  503  502  0.00000000000E+00  0.00000000000E+00  0.10679531811E+03  0.10679531811E+03  0.00000000000E+00 0.  1.
         21   -1    0    0  501  503 -0.00000000000E+00 -0.00000000000E+00 -0.49953997404E+03  0.49953997404E+03  0.00000000000E+00 0.  1.
          6    1    1    2  501    0  0.13012626894E+03  0.39556222825E+02 -0.29163063531E+03  0.36486979607E+03  0.17200000000E+03 0.  1.
         -6    1    1    2    0  502 -0.13012626894E+03 -0.39556222825E+02 -0.10111402062E+03  0.24146549608E+03  0.17200000000E+03 0.  1.
</event>
<event>
 4    1  0.5743594E+000  0.2103310E+03  0.7818608E-02  0.1141304E+00
         21   -1    0    0  501  502  0.00000000000E+00  0.00000000000E+00  0.63733751359E+03  0.63733751359E+03  0.00000000000E+00 0.  1.
         21   -1    0    0  502  503 -0.00000000000E+00 -0.00000000000E+00 -0.22953283311E+03  0.22953283311E+03  0.00000000000E+00 0.  1.
          6    1    1    2  501    0 -0.92022998548E+02  0.78656858692E+02  0.56591612303E+03  0.60373851292E+03  0.17200000000E+03 0.  1.
         -6    1    1    2    0  503  0.92022998548E+02 -0.78656858692E+02 -0.15811144255E+03  0.26313183377E+03  0.17200000000E+03 0.  1.
</event>
<event>
 4    1  0.5743594E+000  0.1905584E+03  0.7818608E-02  0.1157959E+00
         21   -1    0    0  501  502  0.00000000000E+00  0.00000000000E+00  0.13202598196E+03  0.13202598196E+03  0.00000000000E+00 0. -1.
         21   -1    0    0  502  503 -0.00000000000E+00 -0.00000000000E+00 -0.32368886641E+03  0.32368886641E+03  0.00000000000E+00 0. -1.
          6    1    1    2  501    0 -0.25135091380E+02 -0.78081495090E+02 -0.74963202399E+01  0.19070576161E+03  0.17200000000E+03 0. -1.
         -6    1    1    2    0  503  0.25135091380E+02  0.78081495090E+02 -0.18416656421E+03  0.26500908676E+03  0.17200000000E+03 0. -1.
</event>
<event>
 4    1  0.5743594E+000  0.1751264E+03  0.7818608E-02  0.1172605E+00
         21   -1    0    0  501  502  0.00000000000E+00  0.00000000000E+00  0.49501455859E+02  0.49501455859E+02  0.00000000000E+00 0. -1.
         21   -1    0    0  502  503 -0.00000000000E+00 -0.00000000000E+00 -0.10414004900E+04  0.10414004900E+04  0.00000000000E+00 0. -1.
          6    1    1    2  501    0 -0.52940315006E+01 -0.32515064890E+02 -0.14879760030E+03  0.22980422552E+03  0.17200000000E+03 0. -1.
         -6    1    1    2    0  503  0.52940315006E+01  0.32515064890E+02 -0.84310143380E+03  0.86109772029E+03  0.17200000000E+03 0. -1.
</event>
<event>
 4    1  0.5743594E+000  0.1738168E+03  0.7818608E-02  0.1173925E+00
         21   -1    0    0  503  502  0.00000000000E+00  0.00000000000E+00  0.59445054616E+03  0.59445054616E+03  0.00000000000E+00 0. -1.
         21   -1    0    0  501  503 -0.00000000000E+00 -0.00000000000E+00 -0.21546906366E+03  0.21546906366E+03  0.00000000000E+00 0. -1.
          6    1    1    2  501    0 -0.25064407156E+02 -0.22961618736E+00 -0.16450169710E+03  0.23931795916E+03  0.17200000000E+03 0. -1.
         -6    1    1    2    0  502  0.25064407156E+02  0.22961618736E+00  0.54348317959E+03  0.57060165066E+03  0.17200000000E+03 0. -1.
</event>
<event>
 4    1  0.5743594E+000  0.1845004E+03  0.7818608E-02  0.1163517E+00
         21   -1    0    0  503  502  0.00000000000E+00  0.00000000000E+00  0.13489618169E+04  0.13489618169E+04  0.00000000000E+00 0.  1.
         21   -1    0    0  501  503 -0.00000000000E+00 -0.00000000000E+00 -0.58772583116E+02  0.58772583116E+02  0.00000000000E+00 0.  1.
          6    1    1    2  501    0  0.11618368149E+02 -0.65737529227E+02  0.11338771008E+03  0.21655757208E+03  0.17200000000E+03 0.  1.
         -6    1    1    2    0  502 -0.11618368149E+02  0.65737529227E+02  0.11768015237E+04  0.11911768280E+04  0.17200000000E+03 0.  1.
</event>
<event>
 4    1  0.5743594E+000  0.1721662E+03  0.7818608E-02  0.1175608E+00
         21   -1    0    0  503  502  0.00000000000E+00  0.00000000000E+00  0.68783262160E+02  0.68783262160E+02  0.00000000000E+00 0. -1.
         21   -1    0    0  501  503 -0.00000000000E+00 -0.00000000000E+00 -0.10997211854E+04  0.10997211854E+04  0.00000000000E+00 0. -1.
          6    1    1    2  501    0 -0.38383350561E+00 -0.75525863699E+01 -0.97108853878E+03  0.98623229467E+03  0.17200000000E+03 0. -1.
         -6    1    1    2    0  502  0.38383350561E+00  0.75525863699E+01 -0.59849384411E+02  0.18227215285E+03  0.17200000000E+03 0. -1.
</event>
<event>
 4    1  0.5743594E+000  0.2346155E+03  0.7818608E-02  0.1123433E+00
         21   -1    0    0  503  502  0.00000000000E+00  0.00000000000E+00  0.22872514337E+02  0.22872514337E+02  0.00000000000E+00 0.  1.
         21   -1    0    0  501  503 -0.00000000000E+00 -0.00000000000E+00 -0.29970965528E+04  0.29970965528E+04  0.00000000000E+00 0. -1.
          6    1    1    2  501    0  0.15438998088E+03 -0.40300953293E+02 -0.21573666419E+04  0.21700864639E+04  0.17200000000E+03 0. -1.
         -6    1    1    2    0  502 -0.15438998088E+03  0.40300953293E+02 -0.81685739652E+03  0.84988260324E+03  0.17200000000E+03 0.  1.
</event>
<event>
 4    1  0.5743594E+000  0.2436901E+03  0.7818608E-02  0.1117359E+00
         21   -1    0    0  501  502  0.00000000000E+00  0.00000000000E+00  0.16240528362E+04  0.16240528362E+04  0.00000000000E+00 0.  1.
         21   -1    0    0  502  503 -0.00000000000E+00 -0.00000000000E+00 -0.17515741972E+03  0.17515741972E+03  0.00000000000E+00 0. -1.
          6    1    1    2  501    0  0.10282232251E+03 -0.13866669689E+03  0.15246615322E+04  0.15440134943E+04  0.17200000000E+03 0.  1.
         -6    1    1    2    0  503 -0.10282232251E+03  0.13866669689E+03 -0.75766115739E+02  0.25519676159E+03  0.17200000000E+03 0. -1.
</event>
<event>
 4    1  0.5743594E+000  0.1720789E+03  0.7818608E-02  0.1175697E+00
         21   -1    0    0  503  502  0.00000000000E+00  0.00000000000E+00  0.27620725143E+03  0.27620725143E+03  0.00000000000E+00 0.  1.
         21   -1    0    0  501  503 -0.00000000000E+00 -0.00000000000E+00 -0.11027122250E+03  0.11027122250E+03  0.00000000000E+00 0.  1.
          6    1    1    2  501    0  0.23057658609E+01 -0.46740422980E+01  0.50751949786E+02  0.17940714488E+03  0.17200000000E+03 0.  1.
         -6    1    1    2    0  502 -0.23057658609E+01  0.46740422980E+01  0.11518407914E+03  0.20707132905E+03  0.17200000000E+03 0.  1.
</event>
<event>
 4    1  0.5743594E+000  0.2096315E+03  0.7818608E-02  0.1141858E+00
         21   -1    0    0  501  502  0.00000000000E+00  0.00000000000E+00  0.12027474889E+03  0.12027474889E+03  0.00000000000E+00 0. -1.
         21   -1    0    0  502  503 -0.00000000000E+00 -0.00000000000E+00 -0.36755837857E+03  0.36755837857E+03  0.00000000000E+00 0. -1.
          6    1    1    2  501    0  0.60362719088E+02  0.10352632921E+03 -0.10484148201E+03  0.23438663581E+03  0.17200000000E+03 0. -1.
         -6    1    1    2    0  503 -0.60362719088E+02 -0.10352632921E+03 -0.14244214768E+03  0.25344649165E+03  0.17200000000E+03 0. -1.
</event>
<event>
 4    1  0.5743594E+000  0.2113644E+03  0.7818608E-02  0.1140490E+00
         21   -1    0    0  501  502  0.00000000000E+00  0.00000000000E+00  0.40417413721E+03  0.40417413721E+03  0.00000000000E+00 0. -1.
         21   -1    0    0  502  503 -0.00000000000E+00 -0.00000000000E+00 -0.12686591762E+03  0.12686591762E+03  0.00000000000E+00 0. -1.
          6    1    1    2  501    0  0.75552902506E+02 -0.96864225156E+02  0.23392177608E+03  0.31526864182E+03  0.17200000000E+03 0. -1.
         -6    1    1    2    0  503 -0.75552902506E+02  0.96864225156E+02  0.43386443503E+02  0.21577141301E+03  0.17200000000E+03 0. -1.
</event>
<event>
 4    1  0.5743594E+000  0.1772458E+03  0.7818608E-02  0.1170496E+00
         21   -1    0    0  501  502  0.00000000000E+00  0.00000000000E+00  0.11634530250E+03  0.11634530250E+03  0.00000000000E+00 0. -1.
         21   -1    0    0  502  503 -0.00000000000E+00 -0.00000000000E+00 -0.32231180425E+03  0.32231180425E+03  0.00000000000E+00 0. -1.
          6    1    1    2  501    0 -0.22109445873E+02 -0.36650295413E+02 -0.19132287866E+03  0.26080743020E+03  0.17200000000E+03 0. -1.
         -6    1    1    2    0  503  0.22109445873E+02  0.36650295413E+02 -0.14643623102E+02  0.17784967655E+03  0.17200000000E+03 0. -1.
</event>
<event>
 4    1  0.5743594E+000  0.1864193E+03  0.7818608E-02  0.1161731E+00
         21   -1    0    0  501  502  0.00000000000E+00  0.00000000000E+00  0.27916430031E+02  0.27916430031E+02  0.00000000000E+00 0. -1.
         21   -1    0    0  502  503 -0.00000000000E+00 -0.00000000000E+00 -0.21959396588E+04  0.21959396588E+04  0.00000000000E+00 0. -1.
          6    1    1    2  501    0 -0.69231738125E+02 -0.19367611764E+02 -0.35224231299E+03  0.39853078301E+03  0.17200000000E+03 0. -1.
         -6    1    1    2    0  503  0.69231738125E+02  0.19367611764E+02 -0.18157809158E+04  0.18253253058E+04  0.17200000000E+03 0. -1.
</event>
<event>
 4    1  0.5743594E+000  0.2385098E+03  0.7818608E-02  0.1120790E+00
         21   -1    0    0  503  502  0.00000000000E+00  0.00000000000E+00  0.15420058503E+03  0.15420058503E+03  0.00000000000E+00 0.  1.
         21   -1    0    0  501  503 -0.00000000000E+00 -0.00000000000E+00 -0.14280861849E+04  0.14280861849E+04  0.00000000000E+00 0. -1.
          6    1    1    2  501    0  0.11261247472E+03  0.12091877140E+03 -0.13182783623E+04  0.13396808423E+04  0.17200000000E+03 0. -1.
         -6    1    1    2    0  502 -0.11261247472E+03 -0.12091877140E+03  0.44392762466E+02  0.24260592758E+03  0.17200000000E+03 0.  1.
</event>
<event>
 4    1  0.5743594E+000  0.2211286E+03  0.7818608E-02  0.1133044E+00
         21   -1    0    0  501  502  0.00000000000E+00  0.00000000000E+00  0.24038299408E+04  0.24038299408E+04  0.00000000000E+00 0. -1.
         21   -1    0    0  502  503 -0.00000000000E+00 -0.00000000000E+00 -0.20428611615E+02  0.20428611615E+02  0.00000000000E+00 0.  1.
          6    1    1    2  501    0  0.44776844824E+02  0.13156325376E+03  0.12707877396E+04  0.12898834578E+04  0.17200000000E+03 0.  1.
         -6    1    1    2    0  503 -0.44776844824E+02 -0.13156325376E+03  0.11126135896E+04  0.11343750946E+04  0.17200000000E+03 0. -1.
</event>
<event>
 4    1  0.5743594E+000  0.2707960E+03  0.7818608E-02  0.1100825E+00
         21   -1    0    0  501  502  0.00000000000E+00  0.00000000000E+00  0.59143333904E+03  0.59143333904E+03  0.00000000000E+00 0. -1.
         21   -1    0    0  502  503 -0.00000000000E+00 -0.00000000000E+00 -0.14638249028E+03  0.14638249028E+03  0.00000000000E+00 0.  1.
          6    1    1    2  501    0  0.17891067558E+03  0.10833945306E+03  0.36681892973E+03  0.45594582368E+03  0.17200000000E+03 0. -1.
         -6    1    1    2    0  503 -0.17891067558E+03 -0.10833945306E+03  0.78231919037E+02  0.28187000564E+03  0.17200000000E+03 0. -1.
</event>
<event>
 4    1  0.5743594E+000  0.2029339E+03  0.7818608E-02  0.1147287E+00
         21   -1    0    0  503  502  0.00000000000E+00  0.00000000000E+00  0.50594457485E+02  0.50594457485E+02  0.00000000000E+00 0. -1.
         21   -1    0    0  501  503 -0.00000000000E+00 -0.00000000000E+00 -0.81405173281E+03  0.81405173281E+03  0.00000000000E+00 0. -1.
          6    1    1    2  501    0  0.72524632458E+02 -0.79613744157E+02 -0.38616407278E+03  0.43623945452E+03  0.17200000000E+03 0. -1.
         -6    1    1    2    0  502 -0.72524632458E+02  0.79613744157E+02 -0.37729320254E+03  0.42840673578E+03  0.17200000000E+03 0. -1.
</event>
<event>
 4    1  0.5743594E+000  0.1825931E+03  0.7818608E-02  0.1165317E+00
         21   -1    0    0  501  502  0.00000000000E+00  0.00000000000E+00  0.91531858931E+02  0.91531858931E+02  0.00000000000E+00 0. -1.
         21   -1    0    0  502  503 -0.00000000000E+00 -0.00000000000E+00 -0.36563373993E+03  0.36563373993E+03  0.00000000000E+00 0. -1.
          6    1    1    2  501    0 -0.23113969175E+02  0.56762435108E+02 -0.12297505089E+03  0.22014334592E+03  0.17200000000E+03 0. -1.
         -6    1    1    2    0  503  0.23113969175E+02 -0.56762435108E+02 -0.15112683011E+03  0.23702225294E+03  0.17200000000E+03 0. -1.
</event>
<event>
 4    1  0.5743594E+000  0.2092763E+03  0.7818608E-02  0.1142140E+00
         21   -1    0    0  501  502  0.00000000000E+00  0.00000000000E+00  0.19308978697E+03  0.19308978697E+03  0.00000000000E+00 0.  1.
         21   -1    0    0  502  503 -0.00000000000E+00 -0.00000000000E+00 -0.26169018045E+03  0.26169018045E+03  0.00000000000E+00 0.  1.
          6    1    1    2  501    0 -0.84153693177E+02 -0.84443669165E+02  0.48705188065E+02  0.21486919901E+03  0.17200000000E+03 0.  1.
         -6    1    1    2    0  503  0.84153693177E+02  0.84443669165E+02 -0.11730558155E+03  0.23991076841E+03  0.17200000000E+03 0.  1.
</event>
<event>
 4    1  0.5743594E+000  0.1880586E+03  0.7818608E-02  0.1160224E+00
         21   -1    0    0  501  502  0.00000000000E+00  0.00000000000E+00  0.50541599141E+03  0.50541599141E+03  0.00000000000E+00 0. -1.
         21   -1    0    0  502  503 -0.00000000000E+00 -0.00000000000E+00 -0.99205315301E+02  0.99205315301E+02  0.00000000000E+00 0. -1.
          6    1    1    2  501    0  0.57246289037E+02  0.50048885317E+02  0.36720565717E+03  0.41256032672E+03  0.17200000000E+03 0. -1.
         -6    1    1    2    0  503 -0.57246289037E+02 -0.50048885317E+02  0.39005018938E+02  0.19206097998E+03  0.17200000000E+03 0. -1.
</event>
<event>
 4    1  0.5743594E+000  0.1732962E+03  0.7818608E-02  0.1174453E+00
         21   -1    0    0  501  502  0.00000000000E+00  0.00000000000E+00  0.34254443278E+03  0.34254443278E+03  0.00000000000E+00 0. -1.
         21   -1    0    0  502  503 -0.00000000000E+00 -0.00000000000E+00 -0.89958047385E+02  0.89958047385E+02  0.00000000000E+00 0. -1.
          6    1    1    2  501    0 -0.75371604881E+01  0.19767362696E+02  0.16076631992E+03  0.23638393989E+03  0.17200000000E+03 0.  1.
         -6    1    1    2    0  503  0.75371604881E+01 -0.19767362696E+02  0.91820065474E+02  0.19611854028E+03  0.17200000000E+03 0.  1.
</event>
<event>
 4    1  0.5743594E+000  0.2505143E+03  0.7818608E-02  0.1112980E+00
         21   -1    0    0  501  502  0.00000000000E+00  0.00000000000E+00  0.14925776802E+04  0.14925776802E+04  0.00000000000E+00 0.  1.
         21   -1    0    0  502  503 -0.00000000000E+00 -0.00000000000E+00 -0.44724962006E+02  0.44724962006E+02  0.00000000000E+00 0. -1.
          6    1    1    2  501    0 -0.42645943442E+02  0.17707262877E+03  0.53581627668E+03  0.59148666486E+03  0.17200000000E+03 0.  1.
         -6    1    1    2    0  503  0.42645943442E+02 -0.17707262877E+03  0.91203644147E+03  0.94581597730E+03  0.17200000000E+03 0. -1.
</event>
<event>
 4    1  0.5743594E+000  0.1749338E+03  0.7818608E-02  0.1172798E+00
         21   -1    0    0  503  502  0.00000000000E+00  0.00000000000E+00  0.23551184452E+03  0.23551184452E+03  0.00000000000E+00 0. -1.
         21   -1    0    0  501  503 -0.00000000000E+00 -0.00000000000E+00 -0.16770873579E+03  0.16770873579E+03  0.00000000000E+00 0. -1.
          6    1    1    2  501    0  0.28694183746E+02  0.13945195239E+02 -0.61777162607E+02  0.18552154180E+03  0.17200000000E+03 0. -1.
         -6    1    1    2    0  502 -0.28694183746E+02 -0.13945195239E+02  0.12958027134E+03  0.21769903852E+03  0.17200000000E+03 0. -1.
</event>
<event>
 4    1  0.5743594E+000  0.2814014E+03  0.7818608E-02  0.1094926E+00
         21   -1    0    0  501  502  0.00000000000E+00  0.00000000000E+00  0.17378145245E+03  0.17378145245E+03  0.00000000000E+00 0.  1.
         21   -1    0    0  502  503 -0.00000000000E+00 -0.00000000000E+00 -0.49518723357E+03  0.49518723357E+03  0.00000000000E+00 0.  1.
          6    1    1    2  501    0 -0.15345309294E+03 -0.16141528750E+03 -0.66211514891E+02  0.28908599322E+03  0.17200000000E+03 0.  1.
         -6    1    1    2    0  503  0.15345309294E+03  0.16141528750E+03 -0.25519426623E+03  0.37988269280E+03  0.17200000000E+03 0.  1.
</event>
<event>
 4    1  0.5743594E+000  0.2012509E+03  0.7818608E-02  0.1148688E+00
         21   -1    0    0  501  502  0.00000000000E+00  0.00000000000E+00  0.66440524023E+03  0.66440524023E+03  0.00000000000E+00 0. -1.
         21   -1    0    0  502  503 -0.00000000000E+00 -0.00000000000E+00 -0.15540827363E+03  0.15540827363E+03  0.00000000000E+00 0.  1.
          6    1    1    2  501    0 -0.76829182822E+02  0.70818073523E+02  0.57405360645E+03  0.60830869297E+03  0.17200000000E+03 0. -1.
         -6    1    1    2    0  503  0.76829182822E+02 -0.70818073523E+02 -0.65056639852E+02  0.21150482089E+03  0.17200000000E+03 0.  1.
</event>
<event>
 4    1  0.5743594E+000  0.2494272E+03  0.7818608E-02  0.1113667E+00
         21   -1    0    0  501  502  0.00000000000E+00  0.00000000000E+00  0.23451455380E+03  0.23451455380E+03  0.00000000000E+00 0.  1.
         21   -1    0    0  502  503 -0.00000000000E+00 -0.00000000000E+00 -0.36380410641E+03  0.36380410641E+03  0.00000000000E+00 0. -1.
          6    1    1    2  501    0 -0.16509820715E+03  0.73297352603E+02 -0.22032095315E+03  0.33279910201E+03  0.17200000000E+03 0. -1.
         -6    1    1    2    0  503  0.16509820715E+03 -0.73297352603E+02  0.91031400539E+02  0.26551955820E+03  0.17200000000E+03 0.  1.
</event>
<event>
 4    1  0.5743594E+000  0.2349297E+03  0.7818608E-02  0.1123217E+00
         21   -1    0    0  501  502  0.00000000000E+00  0.00000000000E+00  0.17903162853E+03  0.17903162853E+03  0.00000000000E+00 0.  1.
         21   -1    0    0  502  503 -0.00000000000E+00 -0.00000000000E+00 -0.32971897921E+03  0.32971897921E+03  0.00000000000E+00 0.  1.
          6    1    1    2  501    0 -0.11957160028E+03  0.10635129610E+03 -0.10480287222E+02  0.23516335216E+03  0.17200000000E+03 0.  1.
         -6    1    1    2    0  503  0.11957160028E+03 -0.10635129610E+03 -0.14020706345E+03  0.27358725559E+03  0.17200000000E+03 0.  1.
</event>
<event>
 4    1  0.5743594E+000  0.1843748E+03  0.7818608E-02  0.1163635E+00
         21   -1    0    0  503  502  0.00000000000E+00  0.00000000000E+00  0.11708117034E+03  0.11708117034E+03  0.00000000000E+00 0.  1.
         21   -1    0    0  501  503 -0.00000000000E+00 -0.00000000000E+00 -0.29599074597E+03  0.29599074597E+03  0.00000000000E+00 0.  1.
          6    1    1    2  501    0  0.18806389917E+02  0.63689875879E+02 -0.60933535709E+02  0.19418284261E+03  0.17200000000E+03 0.  1.
         -6    1    1    2    0  502 -0.18806389917E+02 -0.63689875879E+02 -0.11797603992E+03  0.21888907370E+03  0.17200000000E+03 0.  1.
</event>
<event>
 4    1  0.5743594E+000  0.1842682E+03  0.7818608E-02  0.1163735E+00
         21   -1    0    0  503  502  0.00000000000E+00  0.00000000000E+00  0.96307124582E+02  0.96307124582E+02  0.00000000000E+00 0. -1.
         21   -1    0    0  501  503 -0.00000000000E+00 -0.00000000000E+00 -0.35801958226E+03  0.35801958226E+03  0.00000000000E+00 0.  1.
          6    1    1    2  501    0 -0.59407459608E+02 -0.29008719615E+02 -0.15888927208E+03  0.24331163731E+03  0.17200000000E+03 0.  1.
         -6    1    1    2    0  502  0.59407459608E+02  0.29008719615E+02 -0.10282318560E+03  0.21101506953E+03  0.17200000000E+03 0.  1.
</event>
<event>
 4    1  0.5743594E+000  0.1795658E+03  0.7818608E-02  0.1168224E+00
         21   -1    0    0  503  502  0.00000000000E+00  0.00000000000E+00  0.23104781741E+03  0.23104781741E+03  0.00000000000E+00 0. -1.
         21   -1    0    0  501  503 -0.00000000000E+00 -0.00000000000E+00 -0.17645934541E+03  0.17645934541E+03  0.00000000000E+00 0. -1.
          6    1    1    2  501    0  0.51448767600E+02  0.35914957538E+01 -0.65885562058E+02  0.19127148720E+03  0.17200000000E+03 0. -1.
         -6    1    1    2    0  502 -0.51448767600E+02 -0.35914957538E+01  0.12047403405E+03  0.21623567562E+03  0.17200000000E+03 0. -1.
</event>
<event>
 4    1  0.5743594E+000  0.1838326E+03  0.7818608E-02  0.1164145E+00
         21   -1    0    0  501  502  0.00000000000E+00  0.00000000000E+00  0.18286739027E+03  0.18286739027E+03  0.00000000000E+00 0.  1.
         21   -1    0    0  502  503 -0.00000000000E+00 -0.00000000000E+00 -0.18562801719E+03  0.18562801719E+03  0.00000000000E+00 0. -1.
          6    1    1    2  501    0 -0.38039668392E+02  0.52567967814E+02 -0.13664934878E+02  0.18433973543E+03  0.17200000000E+03 0. -1.
         -6    1    1    2    0  503  0.38039668392E+02 -0.52567967814E+02  0.10904307961E+02  0.18415567204E+03  0.17200000000E+03 0. -1.
</event>
<event>
 4    1  0.5743594E+000  0.2340892E+03  0.7818608E-02  0.1123794E+00
         21   -1    0    0  501  502  0.00000000000E+00  0.00000000000E+00  0.15267360274E+03  0.15267360274E+03  0.00000000000E+00 0. -1.
         21   -1    0    0  502  503 -0.00000000000E+00 -0.00000000000E+00 -0.36289155211E+03  0.36289155211E+03  0.00000000000E+00 0. -1.
          6    1    1    2  501    0 -0.11474025070E+03 -0.10976527586E+03 -0.78144113063E+02  0.24678785084E+03  0.17200000000E+03 0. -1.
         -6    1    1    2    0  503  0.11474025070E+03  0.10976527586E+03 -0.13207383631E+03  0.26877730401E+03  0.17200000000E+03 0. -1.
</event>
<event>
 4    1  0.5743594E+000  0.1830070E+03  0.7818608E-02  0.1164924E+00
         21   -1    0    0  503  502  0.00000000000E+00  0.00000000000E+00  0.57259327311E+02  0.57259327311E+02  0.00000000000E+00 0.  1.
         21   -1    0    0  501  503 -0.00000000000E+00 -0.00000000000E+00 -0.37624078998E+04  0.37624078998E+04  0.00000000000E+00 0. -1.
          6    1    1    2  501    0 -0.58545732674E+02 -0.21908145225E+02 -0.36076878008E+04  0.36123265132E+04  0.17200000000E+03 0. -1.
         -6    1    1    2    0  502  0.58545732674E+02  0.21908145225E+02 -0.97460771680E+02  0.20734071394E+03  0.17200000000E+03 0.  1.
</event>
<event>
 4    1  0.5743594E+000  0.2105398E+03  0.7818608E-02  0.1141139E+00
         21   -1    0    0  501  502  0.00000000000E+00  0.00000000000E+00  0.11168447377E+03  0.11168447377E+03  0.00000000000E+00 0. -1.
         21   -1    0    0  502  503 -0.00000000000E+00 -0.00000000000E+00 -0.53191467466E+03  0.53191467466E+03  0.00000000000E+00 0. -1.
          6    1    1    2  501    0  0.61932725029E+02  0.10443829790E+03 -0.47985301076E+02  0.21593890251E+03  0.17200000000E+03 0. -1.
         -6    1    1    2    0  503 -0.61932725029E+02 -0.10443829790E+03 -0.37224489982E+03  0.42766024592E+03  0.17200000000E+03 0. -1.
</event>
<event>
 4    1  0.5743594E+000  0.3358157E+03  0.7818608E-02  0.1068592E+00
         21   -1    0    0  503  502  0.00000000000E+00  0.00000000000E+00  0.12111628574E+04  0.12111628574E+04  0.00000000000E+00 0. -1.
         21   -1    0    0  501  503 -0.00000000000E+00 -0.00000000000E+00 -0.12647392620E+03  0.12647392620E+03  0.00000000000E+00 0. -1.
          6    1    1    2  501    0  0.11973036899E+03  0.26239815430E+03  0.19883232033E+03  0.39026458236E+03  0.17200000000E+03 0. -1.
         -6    1    1    2    0  502 -0.11973036899E+03 -0.26239815430E+03  0.88585661086E+03  0.94737220122E+03  0.17200000000E+03 0. -1.
</event>
<event>
 4    1  0.5743594E+000  0.2418297E+03  0.7818608E-02  0.1118580E+00
         21   -1    0    0  501  502  0.00000000000E+00  0.00000000000E+00  0.34900907588E+03  0.34900907588E+03  0.00000000000E+00 0.  1.
         21   -1    0    0  502  503 -0.00000000000E+00 -0.00000000000E+00 -0.29706119943E+03  0.29706119943E+03  0.00000000000E+00 0.  1.
          6    1    1    2  501    0  0.16727677753E+02 -0.16916800111E+03  0.23925666552E+03  0.34018433209E+03  0.17200000000E+03 0.  1.
         -6    1    1    2    0  503 -0.16727677753E+02  0.16916800111E+03 -0.18730878907E+03  0.30588594323E+03  0.17200000000E+03 0.  1.
</event>
<event>
 4    1  0.5743594E+000  0.2024400E+03  0.7818608E-02  0.1147697E+00
         21   -1    0    0  503  502  0.00000000000E+00  0.00000000000E+00  0.10735105505E+03  0.10735105505E+03  0.00000000000E+00 0. -1.
         21   -1    0    0  501  503 -0.00000000000E+00 -0.00000000000E+00 -0.50332622573E+03  0.50332622573E+03  0.00000000000E+00 0. -1.
          6    1    1    2  501    0  0.65116154238E+02 -0.84603969543E+02 -0.34804933397E+03  0.40264163233E+03  0.17200000000E+03 0. -1.
         -6    1    1    2    0  502 -0.65116154238E+02  0.84603969543E+02 -0.47925836704E+02  0.20803564846E+03  0.17200000000E+03 0. -1.
</event>
<event>
 4    1  0.5743594E+000  0.1799588E+03  0.7818608E-02  0.1167843E+00
         21   -1    0    0  501  502  0.00000000000E+00  0.00000000000E+00  0.11994984588E+04  0.11994984588E+04  0.00000000000E+00 0. -1.
         21   -1    0    0  502  503 -0.00000000000E+00 -0.00000000000E+00 -0.36183743160E+02  0.36183743160E+02  0.00000000000E+00 0. -1.
          6    1    1    2  501    0  0.49719188900E+02 -0.18142741270E+02  0.27037423842E+03  0.32478821655E+03  0.17200000000E+03 0. -1.
         -6    1    1    2    0  503 -0.49719188900E+02  0.18142741270E+02  0.89294047722E+03  0.91089398542E+03  0.17200000000E+03 0. -1.
</event>
<event>
 4    1  0.5743594E+000  0.1974400E+03  0.7818608E-02  0.1151917E+00
         21   -1    0    0  501  502  0.00000000000E+00  0.00000000000E+00  0.19053150505E+03  0.19053150505E+03  0.00000000000E+00 0. -1.
         21   -1    0    0  502  503 -0.00000000000E+00 -0.00000000000E+00 -0.21567858198E+03  0.21567858198E+03  0.00000000000E+00 0.  1.
          6    1    1    2  501    0  0.57374963714E+02  0.78145124887E+02  0.33460571368E+02  0.20025522925E+03  0.17200000000E+03 0.  1.
         -6    1    1    2    0  503 -0.57374963714E+02 -0.78145124887E+02 -0.58607648296E+02  0.20595485778E+03  0.17200000000E+03 0.  1.
</event>
<event>
 4    1  0.5743594E+000  0.2007806E+03  0.7818608E-02  0.1149082E+00
         21   -1    0    0  503  502  0.00000000000E+00  0.00000000000E+00  0.54754213006E+02  0.54754213006E+02  0.00000000000E+00 0.  1.
         21   -1    0    0  501  503 -0.00000000000E+00 -0.00000000000E+00 -0.77976470693E+03  0.77976470693E+03  0.00000000000E+00 0.  1.
          6    1    1    2  501    0 -0.85426279690E+02  0.58576412525E+02 -0.46107356102E+03  0.50289330284E+03  0.17200000000E+03 0. -1.
         -6    1    1    2    0  502  0.85426279690E+02 -0.58576412525E+02 -0.26393693290E+03  0.33162561710E+03  0.17200000000E+03 0. -1.
</event>
<event>
 4    1  0.5743594E+000  0.3199244E+03  0.7818608E-02  0.1075684E+00
         21   -1    0    0  503  502  0.00000000000E+00  0.00000000000E+00  0.40666167021E+03  0.40666167021E+03  0.00000000000E+00 0. -1.
         21   -1    0    0  501  503 -0.00000000000E+00 -0.00000000000E+00 -0.37137142662E+03  0.37137142662E+03  0.00000000000E+00 0.  1.
          6    1    1    2  501    0 -0.14001237648E+03  0.23057356361E+03 -0.20319697442E+03  0.37899953063E+03  0.17200000000E+03 0.  1.
         -6    1    1    2    0  502  0.14001237648E+03 -0.23057356361E+03  0.23848721802E+03  0.39903356621E+03  0.17200000000E+03 0. -1.
</event>
<event>
 4    1  0.5743594E+000  0.2491754E+03  0.7818608E-02  0.1113827E+00
         21   -1    0    0  501  502  0.00000000000E+00  0.00000000000E+00  0.59230749891E+03  0.59230749891E+03  0.00000000000E+00 0. -1.
         21   -1    0    0  502  503 -0.00000000000E+00 -0.00000000000E+00 -0.12035583105E+03  0.12035583105E+03  0.00000000000E+00 0. -1.
          6    1    1    2  501    0 -0.17714373290E+03  0.33532950646E+02  0.36398015592E+03  0.44110079890E+03  0.17200000000E+03 0. -1.
         -6    1    1    2    0  503  0.17714373290E+03 -0.33532950646E+02  0.10797151194E+03  0.27156253106E+03  0.17200000000E+03 0. -1.
</event>
<event>
 4    1  0.5743594E+000  0.2947889E+03  0.7818608E-02  0.1087875E+00
         21   -1    0    0  501  502  0.00000000000E+00  0.00000000000E+00  0.56057235284E+03  0.56057235284E+03  0.00000000000E+00 0.  1.
         21   -1    0    0  502  503 -0.00000000000E+00 -0.00000000000E+00 -0.28616754767E+03  0.28616754767E+03  0.00000000000E+00 0. -1.
          6    1    1    2  501    0  0.18423346786E+03 -0.15288726889E+03  0.42381037529E+03  0.51625160714E+03  0.17200000000E+03 0.  1.
         -6    1    1    2    0  503 -0.18423346786E+03  0.15288726889E+03 -0.14940557012E+03  0.33048829337E+03  0.17200000000E+03 0. -1.
</event>
<event>
 4    1  0.5743594E+000  0.1948347E+03  0.7818608E-02  0.1154172E+00
         21   -1    0    0  503  502  0.00000000000E+00  0.00000000000E+00  0.12609153733E+04  0.12609153733E+04  0.00000000000E+00 0. -1.
         21   -1    0    0  501  503 -0.00000000000E+00 -0.00000000000E+00 -0.31517064680E+02  0.31517064680E+02  0.00000000000E+00 0. -1.
          6    1    1    2  501    0  0.91523364796E+02 -0.17235026292E+00  0.47794294987E+03  0.51612984736E+03  0.17200000000E+03 0. -1.
         -6    1    1    2    0  502 -0.91523364796E+02  0.17235026292E+00  0.75145535879E+03  0.77630259066E+03  0.17200000000E+03 0. -1.
</event>
<event>
 4    1  0.5743594E+000  0.2395083E+03  0.7818608E-02  0.1120121E+00
         21   -1    0    0  503  502  0.00000000000E+00  0.00000000000E+00  0.51875974708E+03  0.51875974708E+03  0.00000000000E+00 0. -1.
         21   -1    0    0  501  503 -0.00000000000E+00 -0.00000000000E+00 -0.11185221314E+03  0.11185221314E+03  0.00000000000E+00 0.  1.
          6    1    1    2  501    0  0.13647104744E+03 -0.95686345043E+02  0.16982078884E+03  0.29360402542E+03  0.17200000000E+03 0. -1.
         -6    1    1    2    0  502 -0.13647104744E+03  0.95686345043E+02  0.23708674510E+03  0.33700793480E+03  0.17200000000E+03 0. -1.
</event>
<event>
 4    1  0.5743594E+000  0.2409242E+03  0.7818608E-02  0.1119179E+00
         21   -1    0    0  501  502  0.00000000000E+00  0.00000000000E+00  0.29293448156E+03  0.29293448156E+03  0.00000000000E+00 0.  1.
         21   -1    0    0  502  503 -0.00000000000E+00 -0.00000000000E+00 -0.22869585104E+03  0.22869585104E+03  0.00000000000E+00 0. -1.
          6    1    1    2  501    0  0.13600700012E+03 -0.99812763705E+02 -0.63202291921E+02  0.24907633686E+03  0.17200000000E+03 0. -1.
         -6    1    1    2    0  503 -0.13600700012E+03  0.99812763705E+02  0.12744092244E+03  0.27255399574E+03  0.17200000000E+03 0. -1.
</event>
<event>
 4    1  0.5743594E+000  0.2169041E+03  0.7818608E-02  0.1136212E+00
         21   -1    0    0  503  502  0.00000000000E+00  0.00000000000E+00  0.17244876216E+03  0.17244876216E+03  0.00000000000E+00 0.  1.
         21   -1    0    0  501  503 -0.00000000000E+00 -0.00000000000E+00 -0.27303733119E+03  0.27303733119E+03  0.00000000000E+00 0. -1.
          6    1    1    2  501    0  0.12983858011E+03  0.24603225556E+02 -0.56586563086E+02  0.22416381223E+03  0.17200000000E+03 0.  1.
         -6    1    1    2    0  502 -0.12983858011E+03 -0.24603225556E+02 -0.44002005939E+02  0.22132228112E+03  0.17200000000E+03 0.  1.
</event>
<event>
 4    1  0.5743594E+000  0.2336401E+03  0.7818608E-02  0.1124104E+00
         21   -1    0    0  503  502  0.00000000000E+00  0.00000000000E+00  0.80087624032E+03  0.80087624032E+03  0.00000000000E+00 0. -1.
         21   -1    0    0  501  503 -0.00000000000E+00 -0.00000000000E+00 -0.69787091179E+02  0.69787091179E+02  0.00000000000E+00 0.  1.
          6    1    1    2  501    0  0.15609638670E+03  0.25251114836E+02  0.29907198140E+03  0.37951515226E+03  0.17200000000E+03 0. -1.
         -6    1    1    2    0  502 -0.15609638670E+03 -0.25251114836E+02  0.43201716774E+03  0.49114817923E+03  0.17200000000E+03 0. -1.
</event>
<event>
 4    1  0.5743594E+000  0.1782434E+03  0.7818608E-02  0.1169514E+00
         21   -1    0    0  501  502  0.00000000000E+00  0.00000000000E+00  0.20902486562E+03  0.20902486562E+03  0.00000000000E+00 0. -1.
         21   -1    0    0  502  503 -0.00000000000E+00 -0.00000000000E+00 -0.15222159606E+03  0.15222159606E+03  0.00000000000E+00 0. -1.
          6    1    1    2  501    0  0.58667236924E+01 -0.46392939916E+02  0.35371312028E+02  0.18171915979E+03  0.17200000000E+03 0.  1.
         -6    1    1    2    0  503 -0.58667236924E+01  0.46392939916E+02  0.21431957533E+02  0.17952730189E+03  0.17200000000E+03 0.  1.
</event>
<event>
 4    1  0.5743594E+000  0.1867480E+03  0.7818608E-02  0.1161428E+00
         21   -1    0    0  503  502  0.00000000000E+00  0.00000000000E+00  0.19697026541E+02  0.19697026541E+02  0.00000000000E+00 0. -1.
         21   -1    0    0  501  503 -0.00000000000E+00 -0.00000000000E+00 -0.18350507333E+04  0.18350507333E+04  0.00000000000E+00 0. -1.
          6    1    1    2  501    0 -0.72475331424E+02 -0.61747336161E+01 -0.10815264632E+04  0.10975309980E+04  0.17200000000E+03 0. -1.
         -6    1    1    2    0  502  0.72475331424E+02  0.61747336161E+01 -0.73382724349E+03  0.75721676176E+03  0.17200000000E+03 0. -1.
</event>
<event>
 4    1  0.5743594E+000  0.2017521E+03  0.7818608E-02  0.1148269E+00
         21   -1    0    0  501  502  0.00000000000E+00  0.00000000000E+00  0.25975239827E+03  0.25975239827E+03  0.00000000000E+00 0. -1.
         21   -1    0    0  502  503 -0.00000000000E+00 -0.00000000000E+00 -0.31271899529E+03  0.31271899529E+03  0.00000000000E+00 0.  1.
          6    1    1    2  501    0  0.77787545998E+02  0.71196889740E+02  0.17569365970E+03  0.26752973943E+03  0.17200000000E+03 0. -1.
         -6    1    1    2    0  503 -0.77787545998E+02 -0.71196889740E+02 -0.22866025672E+03  0.30494165413E+03  0.17200000000E+03 0.  1.
</event>
<event>
 4    1  0.5743594E+000  0.2215091E+03  0.7818608E-02  0.1132763E+00
         21   -1    0    0  501  502  0.00000000000E+00  0.00000000000E+00  0.17346549327E+03  0.17346549327E+03  0.00000000000E+00 0.  1.
         21   -1    0    0  502  503 -0.00000000000E+00 -0.00000000000E+00 -0.29696379382E+03  0.29696379382E+03  0.00000000000E+00 0.  1.
          6    1    1    2  501    0 -0.89981554797E+01  0.13928860392E+03 -0.10487162722E+02  0.22175721536E+03  0.17200000000E+03 0.  1.
         -6    1    1    2    0  503  0.89981554797E+01 -0.13928860392E+03 -0.11301113782E+03  0.24867207172E+03  0.17200000000E+03 0.  1.
</event>
<event>
 4    1  0.5743594E+000  0.2128482E+03  0.7818608E-02  0.1139330E+00
         21   -1    0    0  503  502  0.00000000000E+00  0.00000000000E+00  0.29257412640E+03  0.29257412640E+03  0.00000000000E+00 0. -1.
         21   -1    0    0  501  503 -0.00000000000E+00 -0.00000000000E+00 -0.29974349832E+03  0.29974349832E+03  0.00000000000E+00 0.  1.
          6    1    1    2  501    0 -0.80115739823E+02 -0.96445920199E+02 -0.20949499788E+03  0.29865113666E+03  0.17200000000E+03 0. -1.
         -6    1    1    2    0  502  0.80115739823E+02  0.96445920199E+02  0.20232562596E+03  0.29366648806E+03  0.17200000000E+03 0. -1.
</event>
<event>
 4    1  0.5743594E+000  0.1784490E+03  0.7818608E-02  0.1169313E+00
         21   -1    0    0  501  502  0.00000000000E+00  0.00000000000E+00  0.10151257221E+04  0.10151257221E+04  0.00000000000E+00 0. -1.
         21   -1    0    0  502  503 -0.00000000000E+00 -0.00000000000E+00 -0.34764221067E+02  0.34764221067E+02  0.00000000000E+00 0. -1.
          6    1    1    2  501    0 -0.47445969290E+02 -0.29901827810E+01  0.65421889927E+03  0.67811977509E+03  0.17200000000E+03 0.  1.
         -6    1    1    2    0  503  0.47445969290E+02  0.29901827810E+01  0.32614260177E+03  0.37177016810E+03  0.17200000000E+03 0.  1.
</event>
<event>
 4    1  0.5743594E+000  0.1826536E+03  0.7818608E-02  0.1165259E+00
         21   -1    0    0  501  502  0.00000000000E+00  0.00000000000E+00  0.72133554600E+02  0.72133554600E+02  0.00000000000E+00 0. -1.
         21   -1    0    0  502  503 -0.00000000000E+00 -0.00000000000E+00 -0.48541996172E+03  0.48541996172E+03  0.00000000000E+00 0.  1.
          6    1    1    2  501    0 -0.58749486173E+02  0.18078900369E+02 -0.14607725390E+03  0.23388226284E+03  0.17200000000E+03 0. -1.
         -6    1    1    2    0  503  0.58749486173E+02 -0.18078900369E+02 -0.26720915322E+03  0.32367125348E+03  0.17200000000E+03 0.  1.
</event>
<event>
 4    1  0.5743594E+000  0.1786427E+03  0.7818608E-02  0.1169123E+00
         21   -1    0    0  501  502  0.00000000000E+00  0.00000000000E+00  0.14037088672E+04  0.14037088672E+04  0.00000000000E+00 0. -1.
         21   -1    0    0  502  503 -0.00000000000E+00 -0.00000000000E+00 -0.25549402603E+02  0.25549402603E+02  0.00000000000E+00 0.  1.
          6    1    1    2  501    0 -0.32283498330E+01  0.48153933724E+02  0.92626560354E+03  0.94333514292E+03  0.17200000000E+03 0. -1.
         -6    1    1    2    0  503  0.32283498330E+01 -0.48153933724E+02  0.45189386109E+03  0.48592312692E+03  0.17200000000E+03 0.  1.
</event>
<event>
 4    1  0.5743594E+000  0.1840427E+03  0.7818608E-02  0.1163947E+00
         21   -1    0    0  503  502  0.00000000000E+00  0.00000000000E+00  0.52674174625E+03  0.52674174625E+03  0.00000000000E+00 0.  1.
         21   -1    0    0  501  503 -0.00000000000E+00 -0.00000000000E+00 -0.72342317031E+02  0.72342317031E+02  0.00000000000E+00 0.  1.
          6    1    1    2  501    0 -0.26291030837E+02 -0.59970901909E+02  0.12735210765E+03  0.22380859390E+03  0.17200000000E+03 0.  1.
         -6    1    1    2    0  502  0.26291030837E+02  0.59970901909E+02  0.32704732157E+03  0.37527546938E+03  0.17200000000E+03 0.  1.
</event>
<event>
 4    1  0.5743594E+000  0.1761781E+03  0.7818608E-02  0.1171554E+00
         21   -1    0    0  503  502  0.00000000000E+00  0.00000000000E+00  0.35031420889E+03  0.35031420889E+03  0.00000000000E+00 0. -1.
         21   -1    0    0  501  503 -0.00000000000E+00 -0.00000000000E+00 -0.12473613565E+03  0.12473613565E+03  0.00000000000E+00 0. -1.
          6    1    1    2  501    0 -0.13185753911E+02  0.35789224532E+02 -0.15051628275E+02  0.17681992029E+03  0.17200000000E+03 0. -1.
         -6    1    1    2    0  502  0.13185753911E+02 -0.35789224532E+02  0.24062970152E+03  0.29823042425E+03  0.17200000000E+03 0. -1.
</event>
<event>
 4    1  0.5743594E+000  0.1740845E+03  0.7818608E-02  0.1173654E+00
         21   -1    0    0  501  502  0.00000000000E+00  0.00000000000E+00  0.33100197958E+03  0.33100197958E+03  0.00000000000E+00 0. -1.
         21   -1    0    0  502  503 -0.00000000000E+00 -0.00000000000E+00 -0.14000705921E+03  0.14000705921E+03  0.00000000000E+00 0.  1.
          6    1    1    2  501    0 -0.25974858379E+02 -0.68344212081E+01 -0.43041973297E+02  0.17932655700E+03  0.17200000000E+03 0.  1.
         -6    1    1    2    0  503  0.25974858379E+02  0.68344212081E+01  0.23403689367E+03  0.29168248179E+03  0.17200000000E+03 0. -1.
</event>
<event>
 4    1  0.5743594E+000  0.1813356E+03  0.7818608E-02  0.1166517E+00
         21   -1    0    0  503  502  0.00000000000E+00  0.00000000000E+00  0.76061351123E+02  0.76061351123E+02  0.00000000000E+00 0.  1.
         21   -1    0    0  501  503 -0.00000000000E+00 -0.00000000000E+00 -0.45897409265E+03  0.45897409265E+03  0.00000000000E+00 0.  1.
          6    1    1    2  501    0 -0.56440058103E+02 -0.10635178102E+02 -0.12698485858E+03  0.22137692174E+03  0.17200000000E+03 0.  1.
         -6    1    1    2    0  502  0.56440058103E+02  0.10635178102E+02 -0.25592788294E+03  0.31365852203E+03  0.17200000000E+03 0.  1.
</event>
<event>
 4    1  0.5743594E+000  0.2287237E+03  0.7818608E-02  0.1127541E+00
         21   -1    0    0  501  502  0.00000000000E+00  0.00000000000E+00  0.42622118982E+03  0.42622118982E+03  0.00000000000E+00 0. -1.
         21   -1    0    0  502  503 -0.00000000000E+00 -0.00000000000E+00 -0.12749212688E+03  0.12749212688E+03  0.00000000000E+00 0. -1.
          6    1    1    2  501    0 -0.12961595234E+03 -0.77007954871E+02  0.20281397871E+03  0.30569270546E+03  0.17200000000E+03 0. -1.
         -6    1    1    2    0  503  0.12961595234E+03  0.77007954871E+02  0.95915084239E+02  0.24802061124E+03  0.17200000000E+03 0. -1.
</event>
<event>
 4    1  0.5743594E+000  0.1811989E+03  0.7818608E-02  0.1166648E+00
         21   -1    0    0  501  502  0.00000000000E+00  0.00000000000E+00  0.28233428870E+02  0.28233428870E+02  0.00000000000E+00 0.  1.
         21   -1    0    0  502  503 -0.00000000000E+00 -0.00000000000E+00 -0.17977903110E+04  0.17977903110E+04  0.00000000000E+00 0.  1.
          6    1    1    2  501    0  0.27535440300E+02 -0.49908163634E+02 -0.34221345529E+03  0.38722483682E+03  0.17200000000E+03 0.  1.
         -6    1    1    2    0  503 -0.27535440300E+02  0.49908163634E+02 -0.14273434268E+04  0.14387989030E+04  0.17200000000E+03 0.  1.
</event>
<event>
 4    1  0.5743594E+000  0.2322414E+03  0.7818608E-02  0.1125072E+00
         21   -1    0    0  503  502  0.00000000000E+00  0.00000000000E+00  0.49873110407E+03  0.49873110407E+03  0.00000000000E+00 0.  1.
         21   -1    0    0  501  503 -0.00000000000E+00 -0.00000000000E+00 -0.34427661678E+03  0.34427661678E+03  0.00000000000E+00 0. -1.
          6    1    1    2  501    0  0.52231868583E+02  0.14705062339E+03 -0.27185151898E+03  0.35754622401E+03  0.17200000000E+03 0. -1.
         -6    1    1    2    0  502 -0.52231868583E+02 -0.14705062339E+03  0.42630600627E+03  0.48546149684E+03  0.17200000000E+03 0.  1.
</event>
<event>
 4    1  0.5743594E+000  0.2093814E+03  0.7818608E-02  0.1142057E+00
         21   -1    0    0  501  502  0.00000000000E+00  0.00000000000E+00  0.35975773101E+03  0.35975773101E+03  0.00000000000E+00 0. -1.
         21   -1    0    0  502  503 -0.00000000000E+00 -0.00000000000E+00 -0.19634449272E+03  0.19634449272E+03  0.00000000000E+00 0.  1.
          6    1    1    2  501    0 -0.10523829678E+03 -0.56404645475E+02  0.25296195244E+03  0.32837529219E+03  0.17200000000E+03 0. -1.
         -6    1    1    2    0  503  0.10523829678E+03  0.56404645475E+02 -0.89548714151E+02  0.22772693153E+03  0.17200000000E+03 0.  1.
</event>
<event>
 4    1  0.5743594E+000  0.2174598E+03  0.7818608E-02  0.1135791E+00
         21   -1    0    0  503  502  0.00000000000E+00  0.00000000000E+00  0.33426557572E+03  0.33426557572E+03  0.00000000000E+00 0.  1.
         21   -1    0    0  501  503 -0.00000000000E+00 -0.00000000000E+00 -0.15246014320E+03  0.15246014320E+03  0.00000000000E+00 0. -1.
          6    1    1    2  501    0  0.10856538862E+02  0.13261554898E+03  0.25564668719E+02  0.21895730304E+03  0.17200000000E+03 0. -1.
         -6    1    1    2    0  502 -0.10856538862E+02 -0.13261554898E+03  0.15624076380E+03  0.26776841587E+03  0.17200000000E+03 0.  1.
</event>
<event>
 4    1  0.5743594E+000  0.1753414E+03  0.7818608E-02  0.1172389E+00
         21   -1    0    0  503  502  0.00000000000E+00  0.00000000000E+00  0.15332639227E+03  0.15332639227E+03  0.00000000000E+00 0. -1.
         21   -1    0    0  501  503 -0.00000000000E+00 -0.00000000000E+00 -0.29465518738E+03  0.29465518738E+03  0.00000000000E+00 0. -1.
          6    1    1    2  501    0  0.85658785383E+01  0.32973388685E+02 -0.19727059691E+03  0.26393239104E+03  0.17200000000E+03 0. -1.
         -6    1    1    2    0  502 -0.85658785383E+01 -0.32973388685E+02  0.55941801797E+02  0.18404918860E+03  0.17200000000E+03 0. -1.
</event>
<event>
 4    1  0.5743594E+000  0.2005516E+03  0.7818608E-02  0.1149274E+00
         21   -1    0    0  501  502  0.00000000000E+00  0.00000000000E+00  0.11746146138E+03  0.11746146138E+03  0.00000000000E+00 0.  1.
         21   -1    0    0  502  503 -0.00000000000E+00 -0.00000000000E+00 -0.53959639283E+03  0.53959639283E+03  0.00000000000E+00 0.  1.
          6    1    1    2  501    0  0.45626053234E+02  0.92494455950E+02 -0.12472442974E+02  0.20093910259E+03  0.17200000000E+03 0.  1.
         -6    1    1    2    0  503 -0.45626053234E+02 -0.92494455950E+02 -0.40966248847E+03  0.45611875162E+03  0.17200000000E+03 0.  1.
</event>
<event>
 4    1  0.5743594E+000  0.2091656E+03  0.7818608E-02  0.1142228E+00
         21   -1    0    0  501  502  0.00000000000E+00  0.00000000000E+00  0.55041070209E+03  0.55041070209E+03  0.00000000000E+00 0. -1.
         21   -1    0    0  502  503 -0.00000000000E+00 -0.00000000000E+00 -0.13637944960E+03  0.13637944960E+03  0.00000000000E+00 0.  1.
          6    1    1    2  501    0  0.10530981739E+03 -0.55462329647E+02  0.42880910387E+03  0.47710321232E+03  0.17200000000E+03 0. -1.
         -6    1    1    2    0  503 -0.10530981739E+03  0.55462329647E+02 -0.14777851383E+02  0.20968693936E+03  0.17200000000E+03 0.  1.
</event>
<event>
 4    1  0.5743594E+000  0.3151764E+03  0.7818608E-02  0.1077891E+00
         21   -1    0    0  501  502  0.00000000000E+00  0.00000000000E+00  0.38427843057E+03  0.38427843057E+03  0.00000000000E+00 0.  1.
         21   -1    0    0  502  503 -0.00000000000E+00 -0.00000000000E+00 -0.29018536925E+03  0.29018536925E+03  0.00000000000E+00 0. -1.
          6    1    1    2  501    0 -0.13824777409E+03  0.22503263788E+03 -0.64387390003E+02  0.32168598220E+03  0.17200000000E+03 0.  1.
         -6    1    1    2    0  503  0.13824777409E+03 -0.22503263788E+03  0.15848045132E+03  0.35277781762E+03  0.17200000000E+03 0.  1.
</event>
<event>
 4    1  0.5743594E+000  0.2484939E+03  0.7818608E-02  0.1114260E+00
         21   -1    0    0  501  502  0.00000000000E+00  0.00000000000E+00  0.27849197591E+03  0.27849197591E+03  0.00000000000E+00 0. -1.
         21   -1    0    0  502  503 -0.00000000000E+00 -0.00000000000E+00 -0.30454466555E+03  0.30454466555E+03  0.00000000000E+00 0. -1.
          6    1    1    2  501    0 -0.97974117805E+02 -0.15022079910E+03  0.13899396162E+03  0.28472537226E+03  0.17200000000E+03 0. -1.
         -6    1    1    2    0  503  0.97974117805E+02  0.15022079910E+03 -0.16504665126E+03  0.29831126920E+03  0.17200000000E+03 0. -1.
</event>
<event>
 4    1  0.5743594E+000  0.1770787E+03  0.7818608E-02  0.1170661E+00
         21   -1    0    0  503  502  0.00000000000E+00  0.00000000000E+00  0.26667368469E+03  0.26667368469E+03  0.00000000000E+00 0. -1.
         21   -1    0    0  501  503 -0.00000000000E+00 -0.00000000000E+00 -0.17456331555E+03  0.17456331555E+03  0.00000000000E+00 0. -1.
          6    1    1    2  501    0  0.18458930044E+02  0.37843642656E+02 -0.79988053360E+02  0.19430636137E+03  0.17200000000E+03 0. -1.
         -6    1    1    2    0  502 -0.18458930044E+02 -0.37843642656E+02  0.17209842250E+03  0.24693063887E+03  0.17200000000E+03 0. -1.
</event>
<event>
 4    1  0.5743594E+000  0.1803182E+03  0.7818608E-02  0.1167495E+00
         21   -1    0    0  503  502  0.00000000000E+00  0.00000000000E+00  0.59726196561E+03  0.59726196561E+03  0.00000000000E+00 0.  1.
         21   -1    0    0  501  503 -0.00000000000E+00 -0.00000000000E+00 -0.82140343720E+02  0.82140343720E+02  0.00000000000E+00 0.  1.
          6    1    1    2  501    0  0.33879653715E+02 -0.42223348782E+02  0.60288890552E+02  0.19012993568E+03  0.17200000000E+03 0.  1.
         -6    1    1    2    0  502 -0.33879653715E+02  0.42223348782E+02  0.45483273134E+03  0.48927237365E+03  0.17200000000E+03 0.  1.
</event>
<event>
 4    1  0.5743594E+000  0.1778540E+03  0.7818608E-02  0.1169896E+00
         21   -1    0    0  501  502  0.00000000000E+00  0.00000000000E+00  0.38016631601E+03  0.38016631601E+03  0.00000000000E+00 0.  1.
         21   -1    0    0  502  503 -0.00000000000E+00 -0.00000000000E+00 -0.11496558416E+03  0.11496558416E+03  0.00000000000E+00 0.  1.
          6    1    1    2  501    0 -0.58525413114E+01  0.44875267142E+02  0.26272087963E+03  0.31726062225E+03  0.17200000000E+03 0.  1.
         -6    1    1    2    0  503  0.58525413114E+01 -0.44875267142E+02  0.24798522244E+01  0.17787127792E+03  0.17200000000E+03 0.  1.
</event>
<event>
 4    1  0.5743594E+000  0.1759074E+03  0.7818608E-02  0.1171824E+00
         21   -1    0    0  501  502  0.00000000000E+00  0.00000000000E+00  0.71701216249E+02  0.71701216249E+02  0.00000000000E+00 0.  1.
         21   -1    0    0  502  503 -0.00000000000E+00 -0.00000000000E+00 -0.88260132180E+03  0.88260132180E+03  0.00000000000E+00 0.  1.
          6    1    1    2  501    0  0.34482365672E+02 -0.13052960288E+02 -0.64350054300E+02  0.18730814932E+03  0.17200000000E+03 0. -1.
         -6    1    1    2    0  503 -0.34482365672E+02  0.13052960288E+02 -0.74655005125E+03  0.76699438873E+03  0.17200000000E+03 0. -1.
</event>
<event>
 4    1  0.5743594E+000  0.1871526E+03  0.7818608E-02  0.1161055E+00
         21   -1    0    0  503  502  0.00000000000E+00  0.00000000000E+00  0.64332908384E+03  0.64332908384E+03  0.00000000000E+00 0.  1.
         21   -1    0    0  501  503 -0.00000000000E+00 -0.00000000000E+00 -0.31241484537E+03  0.31241484537E+03  0.00000000000E+00 0.  1.
          6    1    1    2  501    0 -0.70929227912E+02 -0.20276598727E+02 -0.26878319020E+03  0.32752175372E+03  0.17200000000E+03 0.  1.
         -6    1    1    2    0  502  0.70929227912E+02  0.20276598727E+02  0.59969742867E+03  0.62822217549E+03  0.17200000000E+03 0.  1.
</event>
<event>
 4    1  0.5743594E+000  0.2355622E+03  0.7818608E-02  0.1122785E+00
         21   -1    0    0  503  502  0.00000000000E+00  0.00000000000E+00  0.57177092519E+03  0.57177092519E+03  0.00000000000E+00 0.  1.
         21   -1    0    0  501  503 -0.00000000000E+00 -0.00000000000E+00 -0.15873738778E+03  0.15873738778E+03  0.00000000000E+00 0. -1.
          6    1    1    2  501    0  0.15118793518E+03  0.55206507916E+02 -0.21181001836E+02  0.23651254745E+03  0.17200000000E+03 0.  1.
         -6    1    1    2    0  502 -0.15118793518E+03 -0.55206507916E+02  0.43421453925E+03  0.49399576552E+03  0.17200000000E+03 0. -1.
</event>
<event>
 4    1  0.5743594E+000  0.2214565E+03  0.7818608E-02  0.1132802E+00
         21   -1    0    0  503  502  0.00000000000E+00  0.00000000000E+00  0.10196977376E+04  0.10196977376E+04  0.00000000000E+00 0.  1.
         21   -1    0    0  501  503 -0.00000000000E+00 -0.00000000000E+00 -0.11199381909E+03  0.11199381909E+03  0.00000000000E+00 0. -1.
          6    1    1    2  501    0 -0.13912992053E+03 -0.10092052599E+02  0.26441252585E+02  0.22302942440E+03  0.17200000000E+03 0. -1.
         -6    1    1    2    0  502  0.13912992053E+03  0.10092052599E+02  0.88126266596E+03  0.90866213233E+03  0.17200000000E+03 0.  1.
</event>
<event>
 4    1  0.5743594E+000  0.1755533E+03  0.7818608E-02  0.1172177E+00
         21   -1    0    0  503  502  0.00000000000E+00  0.00000000000E+00  0.16346538413E+04  0.16346538413E+04  0.00000000000E+00 0.  1.
         21   -1    0    0  501  503 -0.00000000000E+00 -0.00000000000E+00 -0.21121383557E+02  0.21121383557E+02  0.00000000000E+00 0.  1.
          6    1    1    2  501    0 -0.28373112203E+02  0.20734733894E+02  0.53548508186E+03  0.56352749319E+03  0.17200000000E+03 0.  1.
         -6    1    1    2    0  502  0.28373112203E+02 -0.20734733894E+02  0.10780473759E+04  0.10922477317E+04  0.17200000000E+03 0.  1.
</event>
<event>
 4    1  0.5743594E+000  0.1869921E+03  0.7818608E-02  0.1161203E+00
         21   -1    0    0  501  502  0.00000000000E+00  0.00000000000E+00  0.18153623510E+03  0.18153623510E+03  0.00000000000E+00 0. -1.
         21   -1    0    0  502  503 -0.00000000000E+00 -0.00000000000E+00 -0.46861231020E+03  0.46861231020E+03  0.00000000000E+00 0. -1.
          6    1    1    2  501    0  0.47741865855E+01 -0.73206798220E+02  0.10593904944E+03  0.21491651951E+03  0.17200000000E+03 0. -1.
         -6    1    1    2    0  503 -0.47741865855E+01  0.73206798220E+02 -0.39301512453E+03  0.43523202579E+03  0.17200000000E+03 0. -1.
</event>
<event>
 4    1  0.5743594E+000  0.2079250E+03  0.7818608E-02  0.1143220E+00
         21   -1    0    0  503  502  0.00000000000E+00  0.00000000000E+00  0.12075068671E+03  0.12075068671E+03  0.00000000000E+00 0. -1.
         21   -1    0    0  501  503 -0.00000000000E+00 -0.00000000000E+00 -0.40364666906E+03  0.40364666906E+03  0.00000000000E+00 0.  1.
          6    1    1    2  501    0  0.60140507530E+02 -0.10015941895E+03 -0.22958838348E+03  0.30974766453E+03  0.17200000000E+03 0.  1.
         -6    1    1    2    0  502 -0.60140507530E+02  0.10015941895E+03 -0.53307598868E+02  0.21464969124E+03  0.17200000000E+03 0.  1.
</event>
<event>
 4    1  0.5743594E+000  0.1777183E+03  0.7818608E-02  0.1170030E+00
         21   -1    0    0  501  502  0.00000000000E+00  0.00000000000E+00  0.48155478620E+02  0.48155478620E+02  0.00000000000E+00 0. -1.
         21   -1    0    0  502  503 -0.00000000000E+00 -0.00000000000E+00 -0.69581735307E+03  0.69581735307E+03  0.00000000000E+00 0. -1.
          6    1    1    2  501    0  0.31399275352E+02  0.31841370494E+02 -0.23470227134E+03  0.29439589593E+03  0.17200000000E+03 0. -1.
         -6    1    1    2    0  503 -0.31399275352E+02 -0.31841370494E+02 -0.41295960311E+03  0.44957693576E+03  0.17200000000E+03 0. -1.
</event>
<event>
 4    1  0.5743594E+000  0.1830684E+03  0.7818608E-02  0.1164866E+00
         21   -1    0    0  503  502  0.00000000000E+00  0.00000000000E+00  0.62137482787E+03  0.62137482787E+03  0.00000000000E+00 0.  1.
         21   -1    0    0  501  503 -0.00000000000E+00 -0.00000000000E+00 -0.56971074392E+02  0.56971074392E+02  0.00000000000E+00 0.  1.
          6    1    1    2  501    0  0.18735799041E+02  0.59824709086E+02  0.20390758371E+03  0.27402979524E+03  0.17200000000E+03 0. -1.
         -6    1    1    2    0  502 -0.18735799041E+02 -0.59824709086E+02  0.36049616977E+03  0.40431610703E+03  0.17200000000E+03 0. -1.
</event>
<event>
 4    1  0.5743594E+000  0.2103324E+03  0.7818608E-02  0.1141303E+00
         21   -1    0    0  501  502  0.00000000000E+00  0.00000000000E+00  0.50753913640E+03  0.50753913640E+03  0.00000000000E+00 0. -1.
         21   -1    0    0  502  503 -0.00000000000E+00 -0.00000000000E+00 -0.65221209626E+03  0.65221209626E+03  0.00000000000E+00 0.  1.
          6    1    1    2  501    0  0.50184713985E+02  0.11016901877E+03  0.46740114508E+03  0.51254614294E+03  0.17200000000E+03 0. -1.
         -6    1    1    2    0  503 -0.50184713985E+02 -0.11016901877E+03 -0.61207410494E+03  0.64720508972E+03  0.17200000000E+03 0.  1.
</event>
<event>
 4    1  0.5743594E+000  0.1984500E+03  0.7818608E-02  0.1151053E+00
         21   -1    0    0  503  502  0.00000000000E+00  0.00000000000E+00  0.47517590360E+03  0.47517590360E+03  0.00000000000E+00 0.  1.
         21   -1    0    0  501  503 -0.00000000000E+00 -0.00000000000E+00 -0.18263654244E+03  0.18263654244E+03  0.00000000000E+00 0.  1.
          6    1    1    2  501    0 -0.98935955688E+02 -0.31733879991E+01 -0.96810636674E+02  0.22080464916E+03  0.17200000000E+03 0.  1.
         -6    1    1    2    0  502  0.98935955688E+02  0.31733879991E+01  0.38934999783E+03  0.43700779688E+03  0.17200000000E+03 0.  1.
</event>
<event>
 4    1  0.5743594E+000  0.1752041E+03  0.7818608E-02  0.1172527E+00
         21   -1    0    0  503  502  0.00000000000E+00  0.00000000000E+00  0.39191484855E+03  0.39191484855E+03  0.00000000000E+00 0.  1.
         21   -1    0    0  501  503 -0.00000000000E+00 -0.00000000000E+00 -0.19476992737E+03  0.19476992737E+03  0.00000000000E+00 0.  1.
          6    1    1    2  501    0  0.44753364021E+01  0.33052133625E+02 -0.12824442782E+03  0.21712463112E+03  0.17200000000E+03 0.  1.
         -6    1    1    2    0  502 -0.44753364021E+01 -0.33052133625E+02  0.32538934901E+03  0.36956014479E+03  0.17200000000E+03 0.  1.
</event>
<event>
 4    1  0.5743594E+000  0.1837876E+03  0.7818608E-02  0.1164187E+00
         21   -1    0    0  503  502  0.00000000000E+00  0.00000000000E+00  0.77325213001E+02  0.77325213001E+02  0.00000000000E+00 0. -1.
         21   -1    0    0  501  503 -0.00000000000E+00 -0.00000000000E+00 -0.44115505510E+03  0.44115505510E+03  0.00000000000E+00 0. -1.
          6    1    1    2  501    0 -0.41413580454E+02 -0.49787523018E+02 -0.20758701617E+03  0.27725484915E+03  0.17200000000E+03 0.  1.
         -6    1    1    2    0  502  0.41413580454E+02  0.49787523018E+02 -0.15624282593E+03  0.24122541896E+03  0.17200000000E+03 0.  1.
</event>
<event>
 4    1  0.5743594E+000  0.2052107E+03  0.7818608E-02  0.1145416E+00
         21   -1    0    0  501  502  0.00000000000E+00  0.00000000000E+00  0.65849741820E+03  0.65849741820E+03  0.00000000000E+00 0.  1.
         21   -1    0    0  502  503 -0.00000000000E+00 -0.00000000000E+00 -0.66722967857E+02  0.66722967857E+02  0.00000000000E+00 0.  1.
          6    1    1    2  501    0  0.10849830691E+03 -0.27487148418E+02  0.36979895594E+03  0.42292161655E+03  0.17200000000E+03 0. -1.
         -6    1    1    2    0  503 -0.10849830691E+03  0.27487148418E+02  0.22197549441E+03  0.30229876951E+03  0.17200000000E+03 0. -1.
</event>
<event>
 4    1  0.5743594E+000  0.1922011E+03  0.7818608E-02  0.1156491E+00
         21   -1    0    0  503  502  0.00000000000E+00  0.00000000000E+00  0.13183382012E+03  0.13183382012E+03  0.00000000000E+00 0.  1.
         21   -1    0    0  501  503 -0.00000000000E+00 -0.00000000000E+00 -0.37832636077E+03  0.37832636077E+03  0.00000000000E+00 0. -1.
          6    1    1    2  501    0  0.83204126874E+02 -0.20840839343E+02  0.66546077376E+01  0.19231627887E+03  0.17200000000E+03 0.  1.
         -6    1    1    2    0  502 -0.83204126874E+02  0.20840839343E+02 -0.25314714839E+03  0.31784390202E+03  0.17200000000E+03 0. -1.
</event>
<event>
 4    1  0.5743594E+000  0.2139869E+03  0.7818608E-02  0.1138447E+00
         21   -1    0    0  503  502  0.00000000000E+00  0.00000000000E+00  0.43465789359E+03  0.43465789359E+03  0.00000000000E+00 0. -1.
         21   -1    0    0  501  503 -0.00000000000E+00 -0.00000000000E+00 -0.15886465325E+03  0.15886465325E+03  0.00000000000E+00 0.  1.
          6    1    1    2  501    0 -0.27808095949E+02 -0.12422999939E+03 -0.34344823334E+02  0.21672551727E+03  0.17200000000E+03 0.  1.
         -6    1    1    2    0  502  0.27808095949E+02  0.12422999939E+03  0.31013806368E+03  0.37679702957E+03  0.17200000000E+03 0. -1.
</event>
<event>
 4    1  0.5743594E+000  0.1751752E+03  0.7818608E-02  0.1172556E+00
         21   -1    0    0  501  502  0.00000000000E+00  0.00000000000E+00  0.22604389413E+03  0.22604389413E+03  0.00000000000E+00 0. -1.
         21   -1    0    0  502  503 -0.00000000000E+00 -0.00000000000E+00 -0.16789375432E+03  0.16789375432E+03  0.00000000000E+00 0. -1.
          6    1    1    2  501    0  0.31009630096E+02 -0.11863279472E+02  0.11525424698E+03  0.20968995209E+03  0.17200000000E+03 0. -1.
         -6    1    1    2    0  503 -0.31009630096E+02  0.11863279472E+02 -0.57104107169E+02  0.18424769636E+03  0.17200000000E+03 0. -1.
</event>
<event>
 4    1  0.5743594E+000  0.2282691E+03  0.7818608E-02  0.1127864E+00
         21   -1    0    0  501  502  0.00000000000E+00  0.00000000000E+00  0.22087120651E+03  0.22087120651E+03  0.00000000000E+00 0. -1.
         21   -1    0    0  502  503 -0.00000000000E+00 -0.00000000000E+00 -0.28380044687E+03  0.28380044687E+03  0.00000000000E+00 0.  1.
          6    1    1    2  501    0  0.13619667677E+03  0.63033599182E+02  0.72186836385E+02  0.23941117087E+03  0.17200000000E+03 0. -1.
         -6    1    1    2    0  503 -0.13619667677E+03 -0.63033599182E+02 -0.13511607674E+03  0.26526048251E+03  0.17200000000E+03 0.  1.
</event>
<event>
 4    1  0.5743594E+000  0.1743988E+03  0.7818608E-02  0.1173337E+00
         21   -1    0    0  503  502  0.00000000000E+00  0.00000000000E+00  0.59566137721E+02  0.59566137721E+02  0.00000000000E+00 0.  1.
         21   -1    0    0  501  503 -0.00000000000E+00 -0.00000000000E+00 -0.78437686463E+03  0.78437686463E+03  0.00000000000E+00 0.  1.
          6    1    1    2  501    0  0.28053437894E+02 -0.66294333525E+01 -0.61169991275E+03  0.63607525342E+03  0.17200000000E+03 0.  1.
         -6    1    1    2    0  502 -0.28053437894E+02  0.66294333525E+01 -0.11311081417E+03  0.20786774893E+03  0.17200000000E+03 0.  1.
</event>
<event>
 4    1  0.5743594E+000  0.1907571E+03  0.7818608E-02  0.1157780E+00
         21   -1    0    0  501  502  0.00000000000E+00  0.00000000000E+00  0.11427634559E+03  0.11427634559E+03  0.00000000000E+00 0.  1.
         21   -1    0    0  502  503 -0.00000000000E+00 -0.00000000000E+00 -0.32362342716E+03  0.32362342716E+03  0.00000000000E+00 0.  1.
          6    1    1    2  501    0  0.56723870054E+02 -0.59888918222E+02 -0.76919822552E+02  0.20568164493E+03  0.17200000000E+03 0.  1.
         -6    1    1    2    0  503 -0.56723870054E+02  0.59888918222E+02 -0.13242725902E+03  0.23221812783E+03  0.17200000000E+03 0.  1.
</event>
<event>
 4    1  0.5743594E+000  0.2407249E+03  0.7818608E-02  0.1119311E+00
         21   -1    0    0  503  502  0.00000000000E+00  0.00000000000E+00  0.33970283960E+03  0.33970283960E+03  0.00000000000E+00 0.  1.
         21   -1    0    0  501  503 -0.00000000000E+00 -0.00000000000E+00 -0.19969324052E+03  0.19969324052E+03  0.00000000000E+00 0. -1.
          6    1    1    2  501    0  0.16308943246E+03 -0.42027750740E+02 -0.32962140477E+02  0.24297118660E+03  0.17200000000E+03 0. -1.
         -6    1    1    2    0  502 -0.16308943246E+03  0.42027750740E+02  0.17297173956E+03  0.29642489352E+03  0.17200000000E+03 0.  1.
</event>
<event>
 4    1  0.5743594E+000  0.2167853E+03  0.7818608E-02  0.1136303E+00
         21   -1    0    0  501  502  0.00000000000E+00  0.00000000000E+00  0.25146686181E+03  0.25146686181E+03  0.00000000000E+00 0. -1.
         21   -1    0    0  502  503 -0.00000000000E+00 -0.00000000000E+00 -0.54472088881E+03  0.54472088881E+03  0.00000000000E+00 0. -1.
          6    1    1    2  501    0  0.86326823095E+02 -0.99797620963E+02  0.17602859586E+03  0.27925248808E+03  0.17200000000E+03 0. -1.
         -6    1    1    2    0  503 -0.86326823095E+02  0.99797620963E+02 -0.46928262286E+03  0.51693526254E+03  0.17200000000E+03 0. -1.
</event>
<event>
 4    1  0.5743594E+000  0.2053712E+03  0.7818608E-02  0.1145285E+00
         21   -1    0    0  501  502  0.00000000000E+00  0.00000000000E+00  0.56761846495E+02  0.56761846495E+02  0.00000000000E+00 0.  1.
         21   -1    0    0  502  503 -0.00000000000E+00 -0.00000000000E+00 -0.81707033587E+03  0.81707033587E+03  0.00000000000E+00 0.  1.
          6    1    1    2  501    0 -0.92604023108E+02 -0.63386202308E+02 -0.24865542914E+03  0.32250091190E+03  0.17200000000E+03 0.  1.
         -6    1    1    2    0  503  0.92604023108E+02  0.63386202308E+02 -0.51165306024E+03  0.55133127046E+03  0.17200000000E+03 0.  1.
</event>
<event>
 4    1  0.5743594E+000  0.1783259E+03  0.7818608E-02  0.1169433E+00
         21   -1    0    0  503  502  0.00000000000E+00  0.00000000000E+00  0.11160178915E+03  0.11160178915E+03  0.00000000000E+00 0.  1.
         21   -1    0    0  501  503 -0.00000000000E+00 -0.00000000000E+00 -0.31145429405E+03  0.31145429405E+03  0.00000000000E+00 0.  1.
          6    1    1    2  501    0 -0.15632604686E+02 -0.44404385451E+02 -0.16164083266E+03  0.24068212763E+03  0.17200000000E+03 0.  1.
         -6    1    1    2    0  502  0.15632604686E+02  0.44404385451E+02 -0.38211672240E+02  0.18237395557E+03  0.17200000000E+03 0.  1.
</event>
<event>
 4    1  0.5743594E+000  0.2015567E+03  0.7818608E-02  0.1148432E+00
         21   -1    0    0  503  502  0.00000000000E+00  0.00000000000E+00  0.11658291874E+03  0.11658291874E+03  0.00000000000E+00 0. -1.
         21   -1    0    0  501  503 -0.00000000000E+00 -0.00000000000E+00 -0.39766538014E+03  0.39766538014E+03  0.00000000000E+00 0.  1.
          6    1    1    2  501    0  0.26927672538E+02 -0.10156782566E+03 -0.23098238280E+03  0.30655828797E+03  0.17200000000E+03 0. -1.
         -6    1    1    2    0  502 -0.26927672538E+02  0.10156782566E+03 -0.50100078599E+02  0.20769001091E+03  0.17200000000E+03 0. -1.
</event>
<event>
 4    1  0.5743594E+000  0.1784130E+03  0.7818608E-02  0.1169348E+00
         21   -1    0    0  501  502  0.00000000000E+00  0.00000000000E+00  0.23163359169E+04  0.23163359169E+04  0.00000000000E+00 0. -1.
         21   -1    0    0  502  503 -0.00000000000E+00 -0.00000000000E+00 -0.15535412885E+02  0.15535412885E+02  0.00000000000E+00 0. -1.
          6    1    1    2  501    0  0.35058297386E+02  0.31908140739E+02  0.15465384942E+04  0.15567955960E+04  0.17200000000E+03 0. -1.
         -6    1    1    2    0  503 -0.35058297386E+02 -0.31908140739E+02  0.75426200977E+03  0.77507573374E+03  0.17200000000E+03 0. -1.
</event>
<event>
 4    1  0.5743594E+000  0.1879044E+03  0.7818608E-02  0.1160365E+00
         21   -1    0    0  501  502  0.00000000000E+00  0.00000000000E+00  0.39055637761E+03  0.39055637761E+03  0.00000000000E+00 0. -1.
         21   -1    0    0  502  503 -0.00000000000E+00 -0.00000000000E+00 -0.94529015218E+02  0.94529015218E+02  0.00000000000E+00 0. -1.
          6    1    1    2  501    0  0.23411799975E+01  0.75621387225E+02  0.19867648487E+03  0.27346009027E+03  0.17200000000E+03 0. -1.
         -6    1    1    2    0  503 -0.23411799975E+01 -0.75621387225E+02  0.97350877526E+02  0.21162530256E+03  0.17200000000E+03 0. -1.
</event>
<event>
 4    1  0.5743594E+000  0.1991322E+03  0.7818608E-02  0.1150473E+00
         21   -1    0    0  503  502  0.00000000000E+00  0.00000000000E+00  0.73775459004E+02  0.73775459004E+02  0.00000000000E+00 0.  1.
         21   -1    0    0  501  503 -0.00000000000E+00 -0.00000000000E+00 -0.88115537907E+03  0.88115537907E+03  0.00000000000E+00 0. -1.
          6    1    1    2  501    0  0.76763465345E+02 -0.64629719792E+02 -0.70187308528E+03  0.72957484752E+03  0.17200000000E+03 0. -1.
         -6    1    1    2    0  502 -0.76763465345E+02  0.64629719792E+02 -0.10550683478E+03  0.22535599055E+03  0.17200000000E+03 0.  1.
</event>
<event>
 4    1  0.5743594E+000  0.1788212E+03  0.7818608E-02  0.1168949E+00
         21   -1    0    0  503  502  0.00000000000E+00  0.00000000000E+00  0.62037880328E+03  0.62037880328E+03  0.00000000000E+00 0.  1.
         21   -1    0    0  501  503 -0.00000000000E+00 -0.00000000000E+00 -0.95013903001E+02  0.95013903001E+02  0.00000000000E+00 0.  1.
          6    1    1    2  501    0 -0.27076352999E+02 -0.40741767713E+02  0.20739187153E+02  0.18001981672E+03  0.17200000000E+03 0.  1.
         -6    1    1    2    0  502  0.27076352999E+02  0.40741767713E+02  0.50462571313E+03  0.53537288956E+03  0.17200000000E+03 0.  1.
</event>
<event>
 4    1  0.5743594E+000  0.1759558E+03  0.7818608E-02  0.1171775E+00
         21   -1    0    0  501  502  0.00000000000E+00  0.00000000000E+00  0.20722170983E+03  0.20722170983E+03  0.00000000000E+00 0. -1.
         21   -1    0    0  502  503 -0.00000000000E+00 -0.00000000000E+00 -0.32889345431E+03  0.32889345431E+03  0.00000000000E+00 0. -1.
          6    1    1    2  501    0  0.25698792931E+02  0.26758416233E+02  0.13718726193E+03  0.22311608107E+03  0.17200000000E+03 0. -1.
         -6    1    1    2    0  503 -0.25698792931E+02 -0.26758416233E+02 -0.25885900641E+03  0.31299908307E+03  0.17200000000E+03 0. -1.
</event>
<event>
 4    1  0.5743594E+000  0.2494705E+03  0.7818608E-02  0.1113640E+00
         21   -1    0    0  501  502  0.00000000000E+00  0.00000000000E+00  0.52529858651E+03  0.52529858651E+03  0.00000000000E+00 0.  1.
         21   -1    0    0  502  503 -0.00000000000E+00 -0.00000000000E+00 -0.12447178163E+03  0.12447178163E+03  0.00000000000E+00 0.  1.
          6    1    1    2  501    0 -0.53451866313E+02 -0.17261056184E+03  0.12911146830E+03  0.28090083538E+03  0.17200000000E+03 0.  1.
         -6    1    1    2    0  503  0.53451866313E+02  0.17261056184E+03  0.27171533658E+03  0.36886953277E+03  0.17200000000E+03 0.  1.
</event>
<event>
 4    1  0.5743594E+000  0.2297892E+03  0.7818608E-02  0.1126788E+00
         21   -1    0    0  501  502  0.00000000000E+00  0.00000000000E+00  0.12625037841E+03  0.12625037841E+03  0.00000000000E+00 0.  1.
         21   -1    0    0  502  503 -0.00000000000E+00 -0.00000000000E+00 -0.56654283856E+03  0.56654283856E+03  0.00000000000E+00 0. -1.
          6    1    1    2  501    0 -0.11221690323E+03 -0.10308454947E+03 -0.42918843791E+02  0.23376288170E+03  0.17200000000E+03 0.  1.
         -6    1    1    2    0  503  0.11221690323E+03  0.10308454947E+03 -0.39737361636E+03  0.45903033526E+03  0.17200000000E+03 0. -1.
</event>
<event>
 4    1  0.5743594E+000  0.1836217E+03  0.7818608E-02  0.1164343E+00
         21   -1    0    0  501  502  0.00000000000E+00  0.00000000000E+00  0.38906089783E+03  0.38906089783E+03  0.00000000000E+00 0.  1.
         21   -1    0    0  502  503 -0.00000000000E+00 -0.00000000000E+00 -0.11587425080E+03  0.11587425080E+03  0.00000000000E+00 0.  1.
          6    1    1    2  501    0 -0.62414991434E+02  0.15404814148E+02  0.98305017128E+01  0.18388468729E+03  0.17200000000E+03 0.  1.
         -6    1    1    2    0  503  0.62414991434E+02 -0.15404814148E+02  0.26335614531E+03  0.32105046134E+03  0.17200000000E+03 0.  1.
</event>
<event>
 4    1  0.5743594E+000  0.2045723E+03  0.7818608E-02  0.1145938E+00
         21   -1    0    0  503  502  0.00000000000E+00  0.00000000000E+00  0.45163420132E+03  0.45163420132E+03  0.00000000000E+00 0. -1.
         21   -1    0    0  501  503 -0.00000000000E+00 -0.00000000000E+00 -0.54638932486E+03  0.54638932486E+03  0.00000000000E+00 0. -1.
          6    1    1    2  501    0 -0.10387536027E+03 -0.38415061425E+02 -0.50211073764E+03  0.54218539289E+03  0.17200000000E+03 0. -1.
         -6    1    1    2    0  502  0.10387536027E+03  0.38415061425E+02  0.40735561410E+03  0.45583813328E+03  0.17200000000E+03 0. -1.
</event>
<event>
 4    1  0.5743594E+000  0.1752703E+03  0.7818608E-02  0.1172461E+00
         21   -1    0    0  503  502  0.00000000000E+00  0.00000000000E+00  0.18257686587E+03  0.18257686587E+03  0.00000000000E+00 0. -1.
         21   -1    0    0  501  503 -0.00000000000E+00 -0.00000000000E+00 -0.20888133740E+03  0.20888133740E+03  0.00000000000E+00 0. -1.
          6    1    1    2  501    0  0.29627521722E+02  0.16058763775E+02 -0.99470652279E+02  0.20152936412E+03  0.17200000000E+03 0. -1.
         -6    1    1    2    0  502 -0.29627521722E+02 -0.16058763775E+02  0.73166180753E+02  0.18992883916E+03  0.17200000000E+03 0. -1.
</event>
<event>
 4    1  0.5743594E+000  0.1826712E+03  0.7818608E-02  0.1165243E+00
         21   -1    0    0  501  502  0.00000000000E+00  0.00000000000E+00  0.12988918425E+03  0.12988918425E+03  0.00000000000E+00 0.  1.
         21   -1    0    0  502  503 -0.00000000000E+00 -0.00000000000E+00 -0.29401570943E+03  0.29401570943E+03  0.00000000000E+00 0.  1.
          6    1    1    2  501    0 -0.61182578777E+02 -0.64394107615E+01 -0.15736779664E+03  0.24110868374E+03  0.17200000000E+03 0.  1.
         -6    1    1    2    0  503  0.61182578777E+02  0.64394107615E+01 -0.67587285332E+01  0.18279620994E+03  0.17200000000E+03 0.  1.
</event>
<event>
 4    1  0.5743594E+000  0.2059631E+03  0.7818608E-02  0.1144803E+00
         21   -1    0    0  501  502  0.00000000000E+00  0.00000000000E+00  0.16725973343E+03  0.16725973343E+03  0.00000000000E+00 0.  1.
         21   -1    0    0  502  503 -0.00000000000E+00 -0.00000000000E+00 -0.25529273737E+03  0.25529273737E+03  0.00000000000E+00 0.  1.
          6    1    1    2  501    0  0.15281804163E+02 -0.11226429620E+03 -0.61106449485E+02  0.21483669125E+03  0.17200000000E+03 0.  1.
         -6    1    1    2    0  503 -0.15281804163E+02  0.11226429620E+03 -0.26926554446E+02  0.20771577955E+03  0.17200000000E+03 0.  1.
</event>
<event>
 4    1  0.5743594E+000  0.2377870E+03  0.7818608E-02  0.1121276E+00
         21   -1    0    0  501  502  0.00000000000E+00  0.00000000000E+00  0.28131590352E+02  0.28131590352E+02  0.00000000000E+00 0.  1.
         21   -1    0    0  502  503 -0.00000000000E+00 -0.00000000000E+00 -0.20106857584E+04  0.20106857584E+04  0.00000000000E+00 0. -1.
          6    1    1    2  501    0  0.38367431082E+02  0.15964527506E+03 -0.10109726802E+04  0.10385607511E+04  0.17200000000E+03 0. -1.
         -6    1    1    2    0  503 -0.38367431082E+02 -0.15964527506E+03 -0.97158148791E+03  0.10002565977E+04  0.17200000000E+03 0.  1.
</event>
<event>
 4    1  0.5743594E+000  0.2932666E+03  0.7818608E-02  0.1088656E+00
         21   -1    0    0  503  502  0.00000000000E+00  0.00000000000E+00  0.14372572694E+03  0.14372572694E+03  0.00000000000E+00 0.  1.
         21   -1    0    0  501  503 -0.00000000000E+00 -0.00000000000E+00 -0.61763660724E+03  0.61763660724E+03  0.00000000000E+00 0. -1.
          6    1    1    2  501    0 -0.23071748211E+03 -0.56486594361E+02 -0.30414062204E+03  0.42250066257E+03  0.17200000000E+03 0.  1.
         -6    1    1    2    0  502  0.23071748211E+03  0.56486594361E+02 -0.16977025825E+03  0.33886167161E+03  0.17200000000E+03 0. -1.
</event>
<event>
 4    1  0.5743594E+000  0.2113662E+03  0.7818608E-02  0.1140489E+00
         21   -1    0    0  501  502  0.00000000000E+00  0.00000000000E+00  0.98487970593E+02  0.98487970593E+02  0.00000000000E+00 0. -1.
         21   -1    0    0  502  503 -0.00000000000E+00 -0.00000000000E+00 -0.47484329402E+03  0.47484329402E+03  0.00000000000E+00 0. -1.
          6    1    1    2  501    0  0.31296361245E+02  0.11879474862E+03 -0.12756623356E+03  0.24687810448E+03  0.17200000000E+03 0. -1.
         -6    1    1    2    0  503 -0.31296361245E+02 -0.11879474862E+03 -0.24878908987E+03  0.32645316014E+03  0.17200000000E+03 0. -1.
</event>
<event>
 4    1  0.5743594E+000  0.2887747E+03  0.7818608E-02  0.1090991E+00
         21   -1    0    0  503  502  0.00000000000E+00  0.00000000000E+00  0.11119203139E+03  0.11119203139E+03  0.00000000000E+00 0.  1.
         21   -1    0    0  501  503 -0.00000000000E+00 -0.00000000000E+00 -0.75328164710E+03  0.75328164710E+03  0.00000000000E+00 0.  1.
          6    1    1    2  501    0 -0.22445287782E+03  0.58547056489E+02 -0.29239193730E+03  0.41095486027E+03  0.17200000000E+03 0.  1.
         -6    1    1    2    0  502  0.22445287782E+03 -0.58547056489E+02 -0.34969767842E+03  0.45351881821E+03  0.17200000000E+03 0.  1.
</event>
<event>
 4    1  0.5743594E+000  0.1905201E+03  0.7818608E-02  0.1157993E+00
         21   -1    0    0  501  502  0.00000000000E+00  0.00000000000E+00  0.70267662777E+03  0.70267662777E+03  0.00000000000E+00 0. -1.
         21   -1    0    0  502  503 -0.00000000000E+00 -0.00000000000E+00 -0.53242991618E+02  0.53242991618E+02  0.00000000000E+00 0. -1.
          6    1    1    2  501    0 -0.55099285822E+02 -0.60646450359E+02  0.38995656182E+03  0.43400926642E+03  0.17200000000E+03 0. -1.
         -6    1    1    2    0  503  0.55099285822E+02  0.60646450359E+02  0.25947707433E+03  0.32191035296E+03  0.17200000000E+03 0. -1.
</event>
<event>
 4    1  0.5743594E+000  0.1976708E+03  0.7818608E-02  0.1151719E+00
         21   -1    0    0  501  502  0.00000000000E+00  0.00000000000E+00  0.83749941748E+03  0.83749941748E+03  0.00000000000E+00 0. -1.
         21   -1    0    0  502  503 -0.00000000000E+00 -0.00000000000E+00 -0.48487116020E+02  0.48487116020E+02  0.00000000000E+00 0.  1.
          6    1    1    2  501    0  0.86001634355E+02  0.45754188059E+02  0.48061213390E+03  0.51967465793E+03  0.17200000000E+03 0. -1.
         -6    1    1    2    0  503 -0.86001634355E+02 -0.45754188059E+02  0.30840016756E+03  0.36631187558E+03  0.17200000000E+03 0.  1.
</event>
<event>
 4    1  0.5743594E+000  0.1960387E+03  0.7818608E-02  0.1153125E+00
         21   -1    0    0  501  502  0.00000000000E+00  0.00000000000E+00  0.22238525745E+03  0.22238525745E+03  0.00000000000E+00 0. -1.
         21   -1    0    0  502  503 -0.00000000000E+00 -0.00000000000E+00 -0.22316022338E+03  0.22316022338E+03  0.00000000000E+00 0. -1.
          6    1    1    2  501    0 -0.28138487290E+02  0.89751969613E+02 -0.10620046461E+03  0.22295678774E+03  0.17200000000E+03 0. -1.
         -6    1    1    2    0  503  0.28138487290E+02 -0.89751969613E+02  0.10542549869E+03  0.22258869309E+03  0.17200000000E+03 0. -1.
</event>
<event>
 4    1  0.5743594E+000  0.2486178E+03  0.7818608E-02  0.1114181E+00
         21   -1    0    0  503  502  0.00000000000E+00  0.00000000000E+00  0.91954570695E+02  0.91954570695E+02  0.00000000000E+00 0.  1.
         21   -1    0    0  501  503 -0.00000000000E+00 -0.00000000000E+00 -0.11567980450E+04  0.11567980450E+04  0.00000000000E+00 0. -1.
          6    1    1    2  501    0  0.80356707674E+02 -0.16052922891E+03 -0.93654465826E+03  0.96898231703E+03  0.17200000000E+03 0.  1.
         -6    1    1    2    0  502 -0.80356707674E+02  0.16052922891E+03 -0.12829881599E+03  0.27977029861E+03  0.17200000000E+03 0.  1.
</event>
<event>
 4    1  0.5743594E+000  0.2266004E+03  0.7818608E-02  0.1129056E+00
         21   -1    0    0  501  502  0.00000000000E+00  0.00000000000E+00  0.55042929989E+03  0.55042929989E+03  0.00000000000E+00 0. -1.
         21   -1    0    0  502  503 -0.00000000000E+00 -0.00000000000E+00 -0.94001404794E+02  0.94001404794E+02  0.00000000000E+00 0.  1.
          6    1    1    2  501    0  0.11873397795E+03  0.87555587885E+02  0.25630961526E+03  0.34211453837E+03  0.17200000000E+03 0.  1.
         -6    1    1    2    0  503 -0.11873397795E+03 -0.87555587885E+02  0.20011827983E+03  0.30231616631E+03  0.17200000000E+03 0. -1.
</event>
<event>
 4    1  0.5743594E+000  0.2054056E+03  0.7818608E-02  0.1145257E+00
         21   -1    0    0  503  502  0.00000000000E+00  0.00000000000E+00  0.27634863282E+03  0.27634863282E+03  0.00000000000E+00 0.  1.
         21   -1    0    0  501  503 -0.00000000000E+00 -0.00000000000E+00 -0.25585927935E+03  0.25585927935E+03  0.00000000000E+00 0. -1.
          6    1    1    2  501    0 -0.44043076222E+02 -0.10328431292E+03 -0.15874421779E+03  0.25959809040E+03  0.17200000000E+03 0. -1.
         -6    1    1    2    0  502  0.44043076222E+02  0.10328431292E+03  0.17923357126E+03  0.27260982177E+03  0.17200000000E+03 0.  1.
</event>
<event>
 4    1  0.5743594E+000  0.1840892E+03  0.7818608E-02  0.1163903E+00
         21   -1    0    0  501  502  0.00000000000E+00  0.00000000000E+00  0.83462605779E+02  0.83462605779E+02  0.00000000000E+00 0.  1.
         21   -1    0    0  502  503 -0.00000000000E+00 -0.00000000000E+00 -0.48773360741E+03  0.48773360741E+03  0.00000000000E+00 0.  1.
          6    1    1    2  501    0 -0.51641580521E+02  0.40471986929E+02 -0.85247946721E+02  0.20286953193E+03  0.17200000000E+03 0.  1.
         -6    1    1    2    0  503  0.51641580521E+02 -0.40471986929E+02 -0.31902305491E+03  0.36832668126E+03  0.17200000000E+03 0.  1.
</event>
<event>
 4    1  0.5743594E+000  0.2054825E+03  0.7818608E-02  0.1145194E+00
         21   -1    0    0  501  502  0.00000000000E+00  0.00000000000E+00  0.11518821387E+03  0.11518821387E+03  0.00000000000E+00 0.  1.
         21   -1    0    0  502  503 -0.00000000000E+00 -0.00000000000E+00 -0.37502486757E+03  0.37502486757E+03  0.00000000000E+00 0.  1.
          6    1    1    2  501    0 -0.38597443315E+02  0.10559012623E+03 -0.16674935462E+03  0.26462876762E+03  0.17200000000E+03 0.  1.
         -6    1    1    2    0  503  0.38597443315E+02 -0.10559012623E+03 -0.93087299086E+02  0.22558431381E+03  0.17200000000E+03 0.  1.
</event>
<event>
 4    1  0.5743594E+000  0.2706112E+03  0.7818608E-02  0.1100930E+00
         21   -1    0    0  503  502  0.00000000000E+00  0.00000000000E+00  0.36879354678E+03  0.36879354678E+03  0.00000000000E+00 0. -1.
         21   -1    0    0  501  503 -0.00000000000E+00 -0.00000000000E+00 -0.60422296420E+03  0.60422296420E+03  0.00000000000E+00 0.  1.
          6    1    1    2  501    0 -0.21344236994E+02 -0.20782407483E+03 -0.51634495811E+03  0.58296015155E+03  0.17200000000E+03 0.  1.
         -6    1    1    2    0  502  0.21344236994E+02  0.20782407483E+03  0.28091554068E+03  0.39005635943E+03  0.17200000000E+03 0. -1.
</event>
<event>
 4    1  0.5743594E+000  0.2124407E+03  0.7818608E-02  0.1139648E+00
         21   -1    0    0  501  502  0.00000000000E+00  0.00000000000E+00  0.55190385939E+03  0.55190385939E+03  0.00000000000E+00 0.  1.
         21   -1    0    0  502  503 -0.00000000000E+00 -0.00000000000E+00 -0.93340607234E+02  0.93340607234E+02  0.00000000000E+00 0. -1.
          6    1    1    2  501    0  0.48010200088E+02  0.11507429176E+03  0.34285399023E+03  0.40333600205E+03  0.17200000000E+03 0.  1.
         -6    1    1    2    0  503 -0.48010200088E+02 -0.11507429176E+03  0.11570926193E+03  0.24190846457E+03  0.17200000000E+03 0. -1.
</event>
<event>
 4    1  0.5743594E+000  0.1896331E+03  0.7818608E-02  0.1158793E+00
         21   -1    0    0  503  502  0.00000000000E+00  0.00000000000E+00  0.22780389933E+03  0.22780389933E+03  0.00000000000E+00 0. -1.
         21   -1    0    0  501  503 -0.00000000000E+00 -0.00000000000E+00 -0.32161398663E+03  0.32161398663E+03  0.00000000000E+00 0. -1.
          6    1    1    2  501    0  0.60923517919E+02  0.51624161831E+02 -0.24292648171E+03  0.30817852722E+03  0.17200000000E+03 0. -1.
         -6    1    1    2    0  502 -0.60923517919E+02 -0.51624161831E+02  0.14911639442E+03  0.24123935874E+03  0.17200000000E+03 0. -1.
</event>
<event>
 4    1  0.5743594E+000  0.1940594E+03  0.7818608E-02  0.1154850E+00
         21   -1    0    0  503  502  0.00000000000E+00  0.00000000000E+00  0.63323527759E+02  0.63323527759E+02  0.00000000000E+00 0. -1.
         21   -1    0    0  501  503 -0.00000000000E+00 -0.00000000000E+00 -0.14932586521E+04  0.14932586521E+04  0.00000000000E+00 0.  1.
          6    1    1    2  501    0 -0.77911971904E+02 -0.44774724321E+02 -0.13187015941E+04  0.13329039521E+04  0.17200000000E+03 0.  1.
         -6    1    1    2    0  502  0.77911971904E+02  0.44774724321E+02 -0.11123353020E+03  0.22367822769E+03  0.17200000000E+03 0. -1.
</event>
<event>
 4    1  0.5743594E+000  0.2242514E+03  0.7818608E-02  0.1130753E+00
         21   -1    0    0  503  502  0.00000000000E+00  0.00000000000E+00  0.36332346475E+03  0.36332346475E+03  0.00000000000E+00 0. -1.
         21   -1    0    0  501  503 -0.00000000000E+00 -0.00000000000E+00 -0.23115780719E+03  0.23115780719E+03  0.00000000000E+00 0. -1.
          6    1    1    2  501    0  0.14374209563E+03  0.65482325913E+01 -0.12219485095E+03  0.25538255815E+03  0.17200000000E+03 0. -1.
         -6    1    1    2    0  502 -0.14374209563E+03 -0.65482325913E+01  0.25436050851E+03  0.33909871379E+03  0.17200000000E+03 0. -1.
</event>
<event>
 4    1  0.5743594E+000  0.2102587E+03  0.7818608E-02  0.1141361E+00
         21   -1    0    0  501  502  0.00000000000E+00  0.00000000000E+00  0.39272942083E+03  0.39272942083E+03  0.00000000000E+00 0.  1.
         21   -1    0    0  502  503 -0.00000000000E+00 -0.00000000000E+00 -0.23397578848E+03  0.23397578848E+03  0.00000000000E+00 0.  1.
          6    1    1    2  501    0  0.46690336482E+02 -0.11155600006E+03  0.30509746546E+03  0.37053095971E+03  0.17200000000E+03 0.  1.
         -6    1    1    2    0  503 -0.46690336482E+02  0.11155600006E+03 -0.14634383311E+03  0.25617424960E+03  0.17200000000E+03 0.  1.
</event>
<event>
 4    1  0.5743594E+000  0.1787299E+03  0.7818608E-02  0.1169038E+00
         21   -1    0    0  503  502  0.00000000000E+00  0.00000000000E+00  0.11846048179E+03  0.11846048179E+03  0.00000000000E+00 0. -1.
         21   -1    0    0  501  503 -0.00000000000E+00 -0.00000000000E+00 -0.48328127660E+03  0.48328127660E+03  0.00000000000E+00 0. -1.
          6    1    1    2  501    0 -0.22026446579E+02 -0.43303585592E+02 -0.38244252371E+03  0.42214529349E+03  0.17200000000E+03 0. -1.
         -6    1    1    2    0  502  0.22026446579E+02  0.43303585592E+02  0.17621728898E+02  0.17959646490E+03  0.17200000000E+03 0. -1.
</event>
<event>
 4    1  0.5743594E+000  0.1750713E+03  0.7818608E-02  0.1172660E+00
         21   -1    0    0  501  502  0.00000000000E+00  0.00000000000E+00  0.30424582252E+02  0.30424582252E+02  0.00000000000E+00 0. -1.
         21   -1    0    0  502  503 -0.00000000000E+00 -0.00000000000E+00 -0.12177136821E+04  0.12177136821E+04  0.00000000000E+00 0. -1.
          6    1    1    2  501    0  0.13770353235E+02  0.29603204697E+02 -0.33429502929E+03  0.37736340438E+03  0.17200000000E+03 0. -1.
         -6    1    1    2    0  503 -0.13770353235E+02 -0.29603204697E+02 -0.85299407059E+03  0.87077486000E+03  0.17200000000E+03 0. -1.
</event>
<event>
 4    1  0.5743594E+000  0.1911257E+03  0.7818608E-02  0.1157450E+00
         21   -1    0    0  503  502  0.00000000000E+00  0.00000000000E+00  0.54262915714E+02  0.54262915714E+02  0.00000000000E+00 0. -1.
         21   -1    0    0  501  503 -0.00000000000E+00 -0.00000000000E+00 -0.88027096248E+03  0.88027096248E+03  0.00000000000E+00 0. -1.
          6    1    1    2  501    0 -0.23858196411E+02 -0.79848716625E+02 -0.63964123959E+03  0.66758516046E+03  0.17200000000E+03 0. -1.
         -6    1    1    2    0  502  0.23858196411E+02  0.79848716625E+02 -0.18636680717E+03  0.26694871773E+03  0.17200000000E+03 0. -1.
</event>
<event>
 4    1  0.5743594E+000  0.1805814E+03  0.7818608E-02  0.1167242E+00
         21   -1    0    0  501  502  0.00000000000E+00  0.00000000000E+00  0.35231261331E+02  0.35231261331E+02  0.00000000000E+00 0. -1.
         21   -1    0    0  502  503 -0.00000000000E+00 -0.00000000000E+00 -0.96607669844E+03  0.96607669844E+03  0.00000000000E+00 0. -1.
          6    1    1    2  501    0 -0.34653619739E+02 -0.42717349826E+02 -0.36292909309E+03  0.40537288014E+03  0.17200000000E+03 0. -1.
         -6    1    1    2    0  503  0.34653619739E+02  0.42717349826E+02 -0.56791634401E+03  0.59593507963E+03  0.17200000000E+03 0. -1.
</event>
<event>
 4    1  0.5743594E+000  0.2832070E+03  0.7818608E-02  0.1093950E+00
         21   -1    0    0  503  502  0.00000000000E+00  0.00000000000E+00  0.32913441795E+03  0.32913441795E+03  0.00000000000E+00 0.  1.
         21   -1    0    0  501  503 -0.00000000000E+00 -0.00000000000E+00 -0.28422856519E+03  0.28422856519E+03  0.00000000000E+00 0. -1.
          6    1    1    2  501    0  0.22085274803E+03  0.42968322147E+02 -0.93370630172E+02  0.29820175653E+03  0.17200000000E+03 0. -1.
         -6    1    1    2    0  502 -0.22085274803E+03 -0.42968322147E+02  0.13827648293E+03  0.31516122660E+03  0.17200000000E+03 0.  1.
</event>
<event>
 4    1  0.5743594E+000  0.1818424E+03  0.7818608E-02  0.1166032E+00
         21   -1    0    0  503  502  0.00000000000E+00  0.00000000000E+00  0.12726839756E+03  0.12726839756E+03  0.00000000000E+00 0.  1.
         21   -1    0    0  501  503 -0.00000000000E+00 -0.00000000000E+00 -0.26399217966E+03  0.26399217966E+03  0.00000000000E+00 0.  1.
          6    1    1    2  501    0  0.40221393619E+02 -0.43184347628E+02 -0.92960737538E+02  0.20422621553E+03  0.17200000000E+03 0.  1.
         -6    1    1    2    0  502 -0.40221393619E+02  0.43184347628E+02 -0.43763044564E+02  0.18703436169E+03  0.17200000000E+03 0.  1.
</event>
<event>
 4    1  0.5743594E+000  0.1760260E+03  0.7818608E-02  0.1171705E+00
         21   -1    0    0  503  502  0.00000000000E+00  0.00000000000E+00  0.45015579594E+03  0.45015579594E+03  0.00000000000E+00 0.  1.
         21   -1    0    0  501  503 -0.00000000000E+00 -0.00000000000E+00 -0.91606810205E+02  0.91606810205E+02  0.00000000000E+00 0.  1.
          6    1    1    2  501    0  0.31540671408E+02 -0.20157686376E+02  0.44209731531E+02  0.18149282805E+03  0.17200000000E+03 0.  1.
         -6    1    1    2    0  502 -0.31540671408E+02  0.20157686376E+02  0.31433925420E+03  0.36026977809E+03  0.17200000000E+03 0.  1.
</event>
<event>
 4    1  0.5743594E+000  0.1827111E+03  0.7818608E-02  0.1165205E+00
         21   -1    0    0  503  502  0.00000000000E+00  0.00000000000E+00  0.29494092278E+02  0.29494092278E+02  0.00000000000E+00 0. -1.
         21   -1    0    0  501  503 -0.00000000000E+00 -0.00000000000E+00 -0.15953862921E+04  0.15953862921E+04  0.00000000000E+00 0. -1.
          6    1    1    2  501    0 -0.45908191222E+02 -0.41131376729E+02 -0.12208642809E+04  0.12344605885E+04  0.17200000000E+03 0. -1.
         -6    1    1    2    0  502  0.45908191222E+02  0.41131376729E+02 -0.34502791884E+03  0.39041979580E+03  0.17200000000E+03 0. -1.
</event>
<event>
 4    1  0.5743594E+000  0.2334524E+03  0.7818608E-02  0.1124233E+00
         21   -1    0    0  501  502  0.00000000000E+00  0.00000000000E+00  0.30039404572E+03  0.30039404572E+03  0.00000000000E+00 0. -1.
         21   -1    0    0  502  503 -0.00000000000E+00 -0.00000000000E+00 -0.18848944982E+03  0.18848944982E+03  0.00000000000E+00 0. -1.
          6    1    1    2  501    0  0.39738547041E+02 -0.15276404496E+03  0.10326383540E+03  0.25527127777E+03  0.17200000000E+03 0. -1.
         -6    1    1    2    0  503 -0.39738547041E+02  0.15276404496E+03  0.86407605034E+01  0.23361221778E+03  0.17200000000E+03 0. -1.
</event>
<event>
 4    1  0.5743594E+000  0.2591956E+03  0.7818608E-02  0.1107627E+00
         21   -1    0    0  503  502  0.00000000000E+00  0.00000000000E+00  0.21369715902E+03  0.21369715902E+03  0.00000000000E+00 0. -1.
         21   -1    0    0  501  503 -0.00000000000E+00 -0.00000000000E+00 -0.38297841972E+03  0.38297841972E+03  0.00000000000E+00 0.  1.
          6    1    1    2  501    0 -0.32760363331E+01 -0.19387529828E+03 -0.21090315117E+03  0.33415939740E+03  0.17200000000E+03 0.  1.
         -6    1    1    2    0  502  0.32760363331E+01  0.19387529828E+03  0.41621890471E+02  0.26251618134E+03  0.17200000000E+03 0. -1.
</event>
<event>
 4    1  0.5743594E+000  0.1974284E+03  0.7818608E-02  0.1151927E+00
         21   -1    0    0  501  502  0.00000000000E+00  0.00000000000E+00  0.10119205356E+04  0.10119205356E+04  0.00000000000E+00 0.  1.
         21   -1    0    0  502  503 -0.00000000000E+00 -0.00000000000E+00 -0.50188517726E+02  0.50188517726E+02  0.00000000000E+00 0.  1.
          6    1    1    2  501    0  0.37243486934E+02 -0.89481326391E+02  0.22479127420E+03  0.29918071804E+03  0.17200000000E+03 0.  1.
         -6    1    1    2    0  503 -0.37243486934E+02  0.89481326391E+02  0.73694074368E+03  0.76292833529E+03  0.17200000000E+03 0.  1.
</event>
<event>
 4    1  0.5743594E+000  0.2272340E+03  0.7818608E-02  0.1128602E+00
         21   -1    0    0  501  502  0.00000000000E+00  0.00000000000E+00  0.51662187723E+03  0.51662187723E+03  0.00000000000E+00 0.  1.
         21   -1    0    0  502  503 -0.00000000000E+00 -0.00000000000E+00 -0.19172283357E+03  0.19172283357E+03  0.00000000000E+00 0.  1.
          6    1    1    2  501    0  0.11182311487E+03 -0.97708240893E+02  0.40749100205E+03  0.46656642197E+03  0.17200000000E+03 0. -1.
         -6    1    1    2    0  503 -0.11182311487E+03  0.97708240893E+02 -0.82591958386E+02  0.24177828883E+03  0.17200000000E+03 0. -1.
</event>
<event>
 4    1  0.5743594E+000  0.2112520E+03  0.7818608E-02  0.1140578E+00
         21   -1    0    0  501  502  0.00000000000E+00  0.00000000000E+00  0.15279597572E+03  0.15279597572E+03  0.00000000000E+00 0.  1.
         21   -1    0    0  502  503 -0.00000000000E+00 -0.00000000000E+00 -0.31720223304E+03  0.31720223304E+03  0.00000000000E+00 0.  1.
          6    1    1    2  501    0 -0.10622195996E+03 -0.61321399326E+02 -0.16058167273E+02  0.21186147250E+03  0.17200000000E+03 0.  1.
         -6    1    1    2    0  503  0.10622195996E+03  0.61321399326E+02 -0.14834809005E+03  0.25813673627E+03  0.17200000000E+03 0.  1.
</event>
<event>
 4    1  0.5743594E+000  0.1820905E+03  0.7818608E-02  0.1165795E+00
         21   -1    0    0  501  502  0.00000000000E+00  0.00000000000E+00  0.13338882027E+04  0.13338882027E+04  0.00000000000E+00 0. -1.
         21   -1    0    0  502  503 -0.00000000000E+00 -0.00000000000E+00 -0.24979190257E+02  0.24979190257E+02  0.00000000000E+00 0. -1.
          6    1    1    2  501    0 -0.26969653422E+02  0.53344046592E+02  0.60700608383E+03  0.63372970209E+03  0.17200000000E+03 0.  1.
         -6    1    1    2    0  503  0.26969653422E+02 -0.53344046592E+02  0.70190292864E+03  0.72513769089E+03  0.17200000000E+03 0.  1.
</event>
<event>
 4    1  0.5743594E+000  0.2064905E+03  0.7818608E-02  0.1144376E+00
         21   -1    0    0  501  502  0.00000000000E+00  0.00000000000E+00  0.26525520965E+03  0.26525520965E+03  0.00000000000E+00 0.  1.
         21   -1    0    0  502  503 -0.00000000000E+00 -0.00000000000E+00 -0.36182875569E+03  0.36182875569E+03  0.00000000000E+00 0.  1.
          6    1    1    2  501    0  0.85943816788E+02  0.75286099065E+02  0.18545326601E+03  0.27754504181E+03  0.17200000000E+03 0.  1.
         -6    1    1    2    0  503 -0.85943816788E+02 -0.75286099065E+02 -0.28202681205E+03  0.34953892354E+03  0.17200000000E+03 0.  1.
</event>
<event>
 4    1  0.5743594E+000  0.1788923E+03  0.7818608E-02  0.1168879E+00
         21   -1    0    0  503  502  0.00000000000E+00  0.00000000000E+00  0.80258582193E+03  0.80258582193E+03  0.00000000000E+00 0.  1.
         21   -1    0    0  501  503 -0.00000000000E+00 -0.00000000000E+00 -0.41925960646E+02  0.41925960646E+02  0.00000000000E+00 0. -1.
          6    1    1    2  501    0  0.21547240308E+02  0.44206074948E+02  0.28691883393E+03  0.33811962068E+03  0.17200000000E+03 0.  1.
         -6    1    1    2    0  502 -0.21547240308E+02 -0.44206074948E+02  0.47374102736E+03  0.50639216190E+03  0.17200000000E+03 0. -1.
</event>
<event>
 4    1  0.5743594E+000  0.2533703E+03  0.7818608E-02  0.1111193E+00
         21   -1    0    0  501  502  0.00000000000E+00  0.00000000000E+00  0.43004606955E+03  0.43004606955E+03  0.00000000000E+00 0. -1.
         21   -1    0    0  502  503 -0.00000000000E+00 -0.00000000000E+00 -0.14957354122E+03  0.14957354122E+03  0.00000000000E+00 0. -1.
          6    1    1    2  501    0  0.16017542603E+03  0.94638059715E+02  0.12735961679E+03  0.28357891571E+03  0.17200000000E+03 0. -1.
         -6    1    1    2    0  503 -0.16017542603E+03 -0.94638059715E+02  0.15311291155E+03  0.29604069506E+03  0.17200000000E+03 0. -1.
</event>
<event>
 4    1  0.5743594E+000  0.1832060E+03  0.7818608E-02  0.1164736E+00
         21   -1    0    0  503  502  0.00000000000E+00  0.00000000000E+00  0.22108189442E+03  0.22108189442E+03  0.00000000000E+00 0. -1.
         21   -1    0    0  501  503 -0.00000000000E+00 -0.00000000000E+00 -0.30104529093E+03  0.30104529093E+03  0.00000000000E+00 0. -1.
          6    1    1    2  501    0  0.25118546078E+02  0.57874750554E+02 -0.22378490750E+03  0.28921291972E+03  0.17200000000E+03 0. -1.
         -6    1    1    2    0  502 -0.25118546078E+02 -0.57874750554E+02  0.14382151099E+03  0.23291426563E+03  0.17200000000E+03 0. -1.
</event>
<event>
 4    1  0.5743594E+000  0.2287977E+03  0.7818608E-02  0.1127489E+00
         21   -1    0    0  503  502  0.00000000000E+00  0.00000000000E+00  0.75581539310E+02  0.75581539310E+02  0.00000000000E+00 0. -1.
         21   -1    0    0  501  503 -0.00000000000E+00 -0.00000000000E+00 -0.28162635292E+04  0.28162635292E+04  0.00000000000E+00 0. -1.
          6    1    1    2  501    0 -0.13555419347E+03 -0.66252815296E+02 -0.26259384368E+04  0.26358871464E+04  0.17200000000E+03 0. -1.
         -6    1    1    2    0  502  0.13555419347E+03  0.66252815296E+02 -0.11474355311E+03  0.25595792209E+03  0.17200000000E+03 0. -1.
</event>
<event>
 4    1  0.5743594E+000  0.1965266E+03  0.7818608E-02  0.1152703E+00
         21   -1    0    0  501  502  0.00000000000E+00  0.00000000000E+00  0.15565337411E+03  0.15565337411E+03  0.00000000000E+00 0. -1.
         21   -1    0    0  502  503 -0.00000000000E+00 -0.00000000000E+00 -0.29785422441E+03  0.29785422441E+03  0.00000000000E+00 0. -1.
          6    1    1    2  501    0 -0.88146805174E+02 -0.35620713753E+02 -0.16374603341E+03  0.25580355347E+03  0.17200000000E+03 0. -1.
         -6    1    1    2    0  503  0.88146805174E+02  0.35620713753E+02  0.21545183117E+02  0.19770404504E+03  0.17200000000E+03 0. -1.
</event>
<event>
 4    1  0.5743594E+000  0.2729400E+03  0.7818608E-02  0.1099609E+00
         21   -1    0    0  503  502  0.00000000000E+00  0.00000000000E+00  0.16620805447E+03  0.16620805447E+03  0.00000000000E+00 0.  1.
         21   -1    0    0  501  503 -0.00000000000E+00 -0.00000000000E+00 -0.70070025950E+03  0.70070025950E+03  0.00000000000E+00 0. -1.
          6    1    1    2  501    0 -0.57006750038E+02 -0.20411382568E+03 -0.52744099762E+03  0.59387728476E+03  0.17200000000E+03 0. -1.
         -6    1    1    2    0  502  0.57006750038E+02  0.20411382568E+03 -0.70512074086E+01  0.27303102921E+03  0.17200000000E+03 0.  1.
</event>
<event>
 4    1  0.5743594E+000  0.2060752E+03  0.7818608E-02  0.1144712E+00
         21   -1    0    0  501  502  0.00000000000E+00  0.00000000000E+00  0.38308747464E+03  0.38308747464E+03  0.00000000000E+00 0.  1.
         21   -1    0    0  502  503 -0.00000000000E+00 -0.00000000000E+00 -0.17325905755E+03  0.17325905755E+03  0.00000000000E+00 0.  1.
          6    1    1    2  501    0  0.10636374578E+03 -0.39619758716E+02  0.27186003205E+03  0.34113758035E+03  0.17200000000E+03 0.  1.
         -6    1    1    2    0  503 -0.10636374578E+03  0.39619758716E+02 -0.62031614965E+02  0.21520895184E+03  0.17200000000E+03 0.  1.
</event>
<event>
 4    1  0.5743594E+000  0.1770380E+03  0.7818608E-02  0.1170701E+00
         21   -1    0    0  503  502  0.00000000000E+00  0.00000000000E+00  0.97367098239E+02  0.97367098239E+02  0.00000000000E+00 0.  1.
         21   -1    0    0  501  503 -0.00000000000E+00 -0.00000000000E+00 -0.53450002794E+03  0.53450002794E+03  0.00000000000E+00 0.  1.
          6    1    1    2  501    0  0.27881559235E+02 -0.31322089770E+02 -0.41781893206E+03  0.45377870668E+03  0.17200000000E+03 0.  1.
         -6    1    1    2    0  502 -0.27881559235E+02  0.31322089770E+02 -0.19313997641E+02  0.17808841949E+03  0.17200000000E+03 0.  1.
</event>
<event>
 4    1  0.5743594E+000  0.3888585E+03  0.7818608E-02  0.1047707E+00
         21   -1    0    0  501  502  0.00000000000E+00  0.00000000000E+00  0.43047671778E+03  0.43047671778E+03  0.00000000000E+00 0. -1.
         21   -1    0    0  502  503 -0.00000000000E+00 -0.00000000000E+00 -0.37637154679E+03  0.37637154679E+03  0.00000000000E+00 0.  1.
          6    1    1    2  501    0  0.34270103457E+03  0.64675876341E+02 -0.77144539690E+02  0.39643694086E+03  0.17200000000E+03 0.  1.
         -6    1    1    2    0  503 -0.34270103457E+03 -0.64675876341E+02  0.13124971069E+03  0.41041132371E+03  0.17200000000E+03 0. -1.
</event>
<event>
 4    1  0.5743594E+000  0.1904174E+03  0.7818608E-02  0.1158085E+00
         21   -1    0    0  501  502  0.00000000000E+00  0.00000000000E+00  0.99506408915E+02  0.99506408915E+02  0.00000000000E+00 0. -1.
         21   -1    0    0  502  503 -0.00000000000E+00 -0.00000000000E+00 -0.36852961726E+03  0.36852961726E+03  0.00000000000E+00 0.  1.
          6    1    1    2  501    0  0.64343247538E+01  0.81445595957E+02 -0.10969855751E+03  0.21975568060E+03  0.17200000000E+03 0.  1.
         -6    1    1    2    0  503 -0.64343247538E+01 -0.81445595957E+02 -0.15932465084E+03  0.24828034558E+03  0.17200000000E+03 0. -1.
</event>
<event>
 4    1  0.5743594E+000  0.1762226E+03  0.7818608E-02  0.1171510E+00
         21   -1    0    0  503  502  0.00000000000E+00  0.00000000000E+00  0.13557526558E+03  0.13557526558E+03  0.00000000000E+00 0.  1.
         21   -1    0    0  501  503 -0.00000000000E+00 -0.00000000000E+00 -0.23875065951E+03  0.23875065951E+03  0.00000000000E+00 0.  1.
          6    1    1    2  501    0 -0.81276072814E+01  0.37474785206E+02 -0.89301394666E+02  0.19755798292E+03  0.17200000000E+03 0. -1.
         -6    1    1    2    0  502  0.81276072814E+01 -0.37474785206E+02 -0.13873999263E+02  0.17676794218E+03  0.17200000000E+03 0. -1.
</event>
<event>
 4    1  0.5743594E+000  0.1815123E+03  0.7818608E-02  0.1166347E+00
         21   -1    0    0  501  502  0.00000000000E+00  0.00000000000E+00  0.10284562284E+03  0.10284562284E+03  0.00000000000E+00 0.  1.
         21   -1    0    0  502  503 -0.00000000000E+00 -0.00000000000E+00 -0.47106962333E+03  0.47106962333E+03  0.00000000000E+00 0.  1.
          6    1    1    2  501    0 -0.55392173444E+02 -0.17158681517E+02 -0.34642692846E+03  0.39109887496E+03  0.17200000000E+03 0.  1.
         -6    1    1    2    0  503  0.55392173444E+02  0.17158681517E+02 -0.21797072025E+02  0.18281637120E+03  0.17200000000E+03 0.  1.
</event>
<event>
 4    1  0.5743594E+000  0.1979230E+03  0.7818608E-02  0.1151503E+00
         21   -1    0    0  503  502  0.00000000000E+00  0.00000000000E+00  0.36705506928E+02  0.36705506928E+02  0.00000000000E+00 0. -1.
         21   -1    0    0  501  503 -0.00000000000E+00 -0.00000000000E+00 -0.12329550877E+04  0.12329550877E+04  0.00000000000E+00 0. -1.
          6    1    1    2  501    0  0.26615342342E+02 -0.94239872704E+02 -0.83086263683E+03  0.85411138110E+03  0.17200000000E+03 0. -1.
         -6    1    1    2    0  502 -0.26615342342E+02  0.94239872704E+02 -0.36538694395E+03  0.41554921353E+03  0.17200000000E+03 0. -1.
</event>
<event>
 4    1  0.5743594E+000  0.1777555E+03  0.7818608E-02  0.1169993E+00
         21   -1    0    0  503  502  0.00000000000E+00  0.00000000000E+00  0.18804041893E+03  0.18804041893E+03  0.00000000000E+00 0. -1.
         21   -1    0    0  501  503 -0.00000000000E+00 -0.00000000000E+00 -0.29746467546E+03  0.29746467546E+03  0.00000000000E+00 0. -1.
          6    1    1    2  501    0 -0.42702914435E+02 -0.13765093286E+02 -0.21483972850E+03  0.27884247459E+03  0.17200000000E+03 0. -1.
         -6    1    1    2    0  502  0.42702914435E+02  0.13765093286E+02  0.10541547197E+03  0.20666261981E+03  0.17200000000E+03 0. -1.
</event>
<event>
 4    1  0.5743594E+000  0.2697982E+03  0.7818608E-02  0.1101395E+00
         21   -1    0    0  501  502  0.00000000000E+00  0.00000000000E+00  0.27366452973E+03  0.27366452973E+03  0.00000000000E+00 0. -1.
         21   -1    0    0  502  503 -0.00000000000E+00 -0.00000000000E+00 -0.26641274887E+03  0.26641274887E+03  0.00000000000E+00 0.  1.
          6    1    1    2  501    0  0.19974044591E+03  0.57539647741E+02 -0.71761406099E+01  0.26989359716E+03  0.17200000000E+03 0. -1.
         -6    1    1    2    0  503 -0.19974044591E+03 -0.57539647741E+02  0.14427921473E+02  0.27018368143E+03  0.17200000000E+03 0.  1.
</event>
<event>
 4    1  0.5743594E+000  0.1726644E+03  0.7818608E-02  0.1175097E+00
         21   -1    0    0  503  502  0.00000000000E+00  0.00000000000E+00  0.15052682995E+02  0.15052682995E+02  0.00000000000E+00 0. -1.
         21   -1    0    0  501  503 -0.00000000000E+00 -0.00000000000E+00 -0.25068363340E+04  0.25068363340E+04  0.00000000000E+00 0. -1.
          6    1    1    2  501    0 -0.12707932748E+02 -0.82166491509E+01 -0.18236321675E+04  0.18317880028E+04  0.17200000000E+03 0. -1.
         -6    1    1    2    0  502  0.12707932748E+02  0.82166491509E+01 -0.66815148357E+03  0.69010101426E+03  0.17200000000E+03 0. -1.
</event>
<event>
 4    1  0.5743594E+000  0.1839496E+03  0.7818608E-02  0.1164034E+00
         21   -1    0    0  501  502  0.00000000000E+00  0.00000000000E+00  0.14850729445E+03  0.14850729445E+03  0.00000000000E+00 0. -1.
         21   -1    0    0  502  503 -0.00000000000E+00 -0.00000000000E+00 -0.25933677824E+03  0.25933677824E+03  0.00000000000E+00 0. -1.
          6    1    1    2  501    0  0.35963663387E+02 -0.54406446116E+02  0.15640063910E+02  0.18461326621E+03  0.17200000000E+03 0. -1.
         -6    1    1    2    0  503 -0.35963663387E+02  0.54406446116E+02 -0.12646954771E+03  0.22323080648E+03  0.17200000000E+03 0. -1.
</event>
<event>
 4    1  0.5743594E+000  0.2144281E+03  0.7818608E-02  0.1138107E+00
         21   -1    0    0  503  502  0.00000000000E+00  0.00000000000E+00  0.28839413899E+03  0.28839413899E+03  0.00000000000E+00 0.  1.
         21   -1    0    0  501  503 -0.00000000000E+00 -0.00000000000E+00 -0.16935622783E+03  0.16935622783E+03  0.00000000000E+00 0. -1.
          6    1    1    2  501    0 -0.11440634893E+03  0.57503020705E+02  0.11492213256E+03  0.24328277090E+03  0.17200000000E+03 0.  1.
         -6    1    1    2    0  502  0.11440634893E+03 -0.57503020705E+02  0.41157785974E+01  0.21446759592E+03  0.17200000000E+03 0.  1.
</event>
<event>
 4    1  0.5743594E+000  0.1814860E+03  0.7818608E-02  0.1166373E+00
         21   -1    0    0  501  502  0.00000000000E+00  0.00000000000E+00  0.21851098631E+03  0.21851098631E+03  0.00000000000E+00 0.  1.
         21   -1    0    0  502  503 -0.00000000000E+00 -0.00000000000E+00 -0.16335212039E+03  0.16335212039E+03  0.00000000000E+00 0.  1.
          6    1    1    2  501    0 -0.50850298426E+02  0.27702247701E+02  0.80643706870E+02  0.19859651265E+03  0.17200000000E+03 0. -1.
         -6    1    1    2    0  503  0.50850298426E+02 -0.27702247701E+02 -0.25484840953E+02  0.18326659405E+03  0.17200000000E+03 0. -1.
</event>
<event>
 4    1  0.5743594E+000  0.2010255E+03  0.7818608E-02  0.1148877E+00
         21   -1    0    0  503  502  0.00000000000E+00  0.00000000000E+00  0.44126753776E+03  0.44126753776E+03  0.00000000000E+00 0.  1.
         21   -1    0    0  501  503 -0.00000000000E+00 -0.00000000000E+00 -0.12868334787E+03  0.12868334787E+03  0.00000000000E+00 0.  1.
          6    1    1    2  501    0  0.40953709890E+02 -0.95655809325E+02  0.32702784384E+01  0.20105207020E+03  0.17200000000E+03 0.  1.
         -6    1    1    2    0  502 -0.40953709890E+02  0.95655809325E+02  0.30931391145E+03  0.36889881543E+03  0.17200000000E+03 0.  1.
</event>
<event>
 4    1  0.5743594E+000  0.2594985E+03  0.7818608E-02  0.1107445E+00
         21   -1    0    0  501  502  0.00000000000E+00  0.00000000000E+00  0.85944330115E+03  0.85944330115E+03  0.00000000000E+00 0.  1.
         21   -1    0    0  502  503 -0.00000000000E+00 -0.00000000000E+00 -0.80047003961E+02  0.80047003961E+02  0.00000000000E+00 0.  1.
          6    1    1    2  501    0 -0.18618909644E+03  0.55579488798E+02  0.45804551784E+03  0.52644577653E+03  0.17200000000E+03 0.  1.
         -6    1    1    2    0  503  0.18618909644E+03 -0.55579488798E+02  0.32135077934E+03  0.41304452858E+03  0.17200000000E+03 0.  1.
</event>
<event>
 4    1  0.5743594E+000  0.2429994E+03  0.7818608E-02  0.1117811E+00
         21   -1    0    0  503  502  0.00000000000E+00  0.00000000000E+00  0.25843785581E+03  0.25843785581E+03  0.00000000000E+00 0.  1.
         21   -1    0    0  501  503 -0.00000000000E+00 -0.00000000000E+00 -0.24909994263E+03  0.24909994263E+03  0.00000000000E+00 0.  1.
          6    1    1    2  501    0  0.63899618645E+02  0.15931589379E+03 -0.68337508758E+02  0.25242569279E+03  0.17200000000E+03 0.  1.
         -6    1    1    2    0  502 -0.63899618645E+02 -0.15931589379E+03  0.77675421947E+02  0.25511210565E+03  0.17200000000E+03 0.  1.
</event>
<event>
 4    1  0.5743594E+000  0.1798104E+03  0.7818608E-02  0.1167987E+00
         21   -1    0    0  503  502  0.00000000000E+00  0.00000000000E+00  0.43400642979E+03  0.43400642979E+03  0.00000000000E+00 0.  1.
         21   -1    0    0  501  503 -0.00000000000E+00 -0.00000000000E+00 -0.74513637338E+02  0.74513637338E+02  0.00000000000E+00 0.  1.
          6    1    1    2  501    0 -0.50806200019E+02 -0.12903532197E+02  0.17584178456E+03  0.25149971034E+03  0.17200000000E+03 0.  1.
         -6    1    1    2    0  502  0.50806200019E+02  0.12903532197E+02  0.18365100788E+03  0.25702035678E+03  0.17200000000E+03 0.  1.
</event>
<event>
 4    1  0.5743594E+000  0.2053397E+03  0.7818608E-02  0.1145310E+00
         21   -1    0    0  501  502  0.00000000000E+00  0.00000000000E+00  0.10319259586E+03  0.10319259586E+03  0.00000000000E+00 0. -1.
         21   -1    0    0  502  503 -0.00000000000E+00 -0.00000000000E+00 -0.42659340411E+03  0.42659340411E+03  0.00000000000E+00 0.  1.
          6    1    1    2  501    0  0.10738501049E+03 -0.32386059081E+02 -0.10729632450E+03  0.23168275411E+03  0.17200000000E+03 0. -1.
         -6    1    1    2    0  503 -0.10738501049E+03  0.32386059081E+02 -0.21610448375E+03  0.29810324587E+03  0.17200000000E+03 0. -1.
</event>
<event>
 4    1  0.5743594E+000  0.2138704E+03  0.7818608E-02  0.1138537E+00
         21   -1    0    0  501  502  0.00000000000E+00  0.00000000000E+00  0.16237476227E+03  0.16237476227E+03  0.00000000000E+00 0. -1.
         21   -1    0    0  502  503 -0.00000000000E+00 -0.00000000000E+00 -0.34041585807E+03  0.34041585807E+03  0.00000000000E+00 0.  1.
          6    1    1    2  501    0  0.12419506139E+03 -0.27058290188E+02  0.15388764872E+02  0.21442336259E+03  0.17200000000E+03 0. -1.
         -6    1    1    2    0  503 -0.12419506139E+03  0.27058290188E+02 -0.19342986067E+03  0.28836725775E+03  0.17200000000E+03 0.  1.
</event>
<event>
 4    1  0.5743594E+000  0.2182353E+03  0.7818608E-02  0.1135206E+00
         21   -1    0    0  503  502  0.00000000000E+00  0.00000000000E+00  0.22571846575E+03  0.22571846575E+03  0.00000000000E+00 0. -1.
         21   -1    0    0  501  503 -0.00000000000E+00 -0.00000000000E+00 -0.67929703979E+03  0.67929703979E+03  0.00000000000E+00 0.  1.
          6    1    1    2  501    0 -0.94433857980E+02  0.95524366761E+02 -0.60250273696E+03  0.64080902477E+03  0.17200000000E+03 0.  1.
         -6    1    1    2    0  502  0.94433857980E+02 -0.95524366761E+02  0.14892416292E+03  0.26420648077E+03  0.17200000000E+03 0. -1.
</event>
<event>
 4    1  0.5743594E+000  0.1795317E+03  0.7818608E-02  0.1168257E+00
         21   -1    0    0  503  502  0.00000000000E+00  0.00000000000E+00  0.39034394798E+03  0.39034394798E+03  0.00000000000E+00 0. -1.
         21   -1    0    0  501  503 -0.00000000000E+00 -0.00000000000E+00 -0.84298525361E+02  0.84298525361E+02  0.00000000000E+00 0.  1.
          6    1    1    2  501    0  0.45641196924E+02 -0.23759413804E+02  0.18698252992E+03  0.25921823836E+03  0.17200000000E+03 0. -1.
         -6    1    1    2    0  502 -0.45641196924E+02  0.23759413804E+02  0.11906289270E+03  0.21542423498E+03  0.17200000000E+03 0. -1.
</event>
<event>
 4    1  0.5743594E+000  0.1793086E+03  0.7818608E-02  0.1168474E+00
         21   -1    0    0  501  502  0.00000000000E+00  0.00000000000E+00  0.29732690549E+02  0.29732690549E+02  0.00000000000E+00 0.  1.
         21   -1    0    0  502  503 -0.00000000000E+00 -0.00000000000E+00 -0.25228178264E+04  0.25228178264E+04  0.00000000000E+00 0.  1.
          6    1    1    2  501    0 -0.40247445198E+02  0.30784763159E+02 -0.28181807231E+03  0.33402542473E+03  0.17200000000E+03 0.  1.
         -6    1    1    2    0  503  0.40247445198E+02 -0.30784763159E+02 -0.22112670635E+04  0.22185250922E+04  0.17200000000E+03 0.  1.
</event>
<event>
 4    1  0.5743594E+000  0.2255703E+03  0.7818608E-02  0.1129797E+00
         21   -1    0    0  501  502  0.00000000000E+00  0.00000000000E+00  0.78277640014E+02  0.78277640014E+02  0.00000000000E+00 0.  1.
         21   -1    0    0  502  503 -0.00000000000E+00 -0.00000000000E+00 -0.97113969485E+03  0.97113969485E+03  0.00000000000E+00 0. -1.
          6    1    1    2  501    0 -0.53240661388E+02  0.13588012904E+03 -0.14470600831E+03  0.26799590731E+03  0.17200000000E+03 0.  1.
         -6    1    1    2    0  503  0.53240661388E+02 -0.13588012904E+03 -0.74815604652E+03  0.78142142755E+03  0.17200000000E+03 0. -1.
</event>
<event>
 4    1  0.5743594E+000  0.2462663E+03  0.7818608E-02  0.1115687E+00
         21   -1    0    0  501  502  0.00000000000E+00  0.00000000000E+00  0.13457550501E+04  0.13457550501E+04  0.00000000000E+00 0.  1.
         21   -1    0    0  502  503 -0.00000000000E+00 -0.00000000000E+00 -0.55117212584E+02  0.55117212584E+02  0.00000000000E+00 0.  1.
          6    1    1    2  501    0 -0.16666468427E+03 -0.57323318886E+02  0.34619877534E+03  0.42485370649E+03  0.17200000000E+03 0.  1.
         -6    1    1    2    0  503  0.16666468427E+03  0.57323318886E+02  0.94443906222E+03  0.97601855623E+03  0.17200000000E+03 0.  1.
</event>
<event>
 4    1  0.5743594E+000  0.2465927E+03  0.7818608E-02  0.1115477E+00
         21   -1    0    0  503  502  0.00000000000E+00  0.00000000000E+00  0.31047748034E+03  0.31047748034E+03  0.00000000000E+00 0.  1.
         21   -1    0    0  501  503 -0.00000000000E+00 -0.00000000000E+00 -0.21478449579E+03  0.21478449579E+03  0.00000000000E+00 0. -1.
          6    1    1    2  501    0 -0.49781374226E+02 -0.16954586002E+03 -0.30124949936E+02  0.24842603824E+03  0.17200000000E+03 0. -1.
         -6    1    1    2    0  502  0.49781374226E+02  0.16954586002E+03  0.12581793448E+03  0.27683593789E+03  0.17200000000E+03 0.  1.
</event>
<event>
 4    1  0.5743594E+000  0.1915407E+03  0.7818608E-02  0.1157079E+00
         21   -1    0    0  503  502  0.00000000000E+00  0.00000000000E+00  0.19149772018E+03  0.19149772018E+03  0.00000000000E+00 0.  1.
         21   -1    0    0  501  503 -0.00000000000E+00 -0.00000000000E+00 -0.23857859294E+03  0.23857859294E+03  0.00000000000E+00 0.  1.
          6    1    1    2  501    0 -0.22070057865E+02 -0.81343412084E+02  0.71898416721E+02  0.20459037238E+03  0.17200000000E+03 0.  1.
         -6    1    1    2    0  502  0.22070057865E+02  0.81343412084E+02 -0.11897928948E+03  0.22548594074E+03  0.17200000000E+03 0.  1.
</event>
<event>
 4    1  0.5743594E+000  0.1836303E+03  0.7818608E-02  0.1164335E+00
         21   -1    0    0  503  502  0.00000000000E+00  0.00000000000E+00  0.68022969312E+03  0.68022969312E+03  0.00000000000E+00 0. -1.
         21   -1    0    0  501  503 -0.00000000000E+00 -0.00000000000E+00 -0.79032032599E+02  0.79032032599E+02  0.00000000000E+00 0. -1.
          6    1    1    2  501    0 -0.41690581750E+02  0.48969287152E+02  0.68817066215E+02  0.19610171925E+03  0.17200000000E+03 0. -1.
         -6    1    1    2    0  502  0.41690581750E+02 -0.48969287152E+02  0.53238059431E+03  0.56316000647E+03  0.17200000000E+03 0. -1.
</event>
<event>
 4    1  0.5743594E+000  0.2664613E+03  0.7818608E-02  0.1103322E+00
         21   -1    0    0  503  502  0.00000000000E+00  0.00000000000E+00  0.76559306126E+02  0.76559306126E+02  0.00000000000E+00 0. -1.
         21   -1    0    0  501  503 -0.00000000000E+00 -0.00000000000E+00 -0.10321928138E+04  0.10321928138E+04  0.00000000000E+00 0.  1.
          6    1    1    2  501    0  0.19435280514E+03  0.60370478407E+02 -0.65445147590E+03  0.70661753575E+03  0.17200000000E+03 0.  1.
         -6    1    1    2    0  502 -0.19435280514E+03 -0.60370478407E+02 -0.30118203179E+03  0.40213458419E+03  0.17200000000E+03 0. -1.
</event>
<event>
 4    1  0.5743594E+000  0.1999508E+03  0.7818608E-02  0.1149781E+00
         21   -1    0    0  501  502  0.00000000000E+00  0.00000000000E+00  0.20823656831E+03  0.20823656831E+03  0.00000000000E+00 0.  1.
         21   -1    0    0  502  503 -0.00000000000E+00 -0.00000000000E+00 -0.27882185703E+03  0.27882185703E+03  0.00000000000E+00 0.  1.
          6    1    1    2  501    0 -0.95113371318E+02  0.36739012937E+02  0.10060613487E+03  0.22383454347E+03  0.17200000000E+03 0.  1.
         -6    1    1    2    0  503  0.95113371318E+02 -0.36739012937E+02 -0.17119142359E+03  0.26322388187E+03  0.17200000000E+03 0.  1.
</event>
<event>
 4    1  0.5743594E+000  0.1786542E+03  0.7818608E-02  0.1169112E+00
         21   -1    0    0  501  502  0.00000000000E+00  0.00000000000E+00  0.21245589905E+03  0.21245589905E+03  0.00000000000E+00 0.  1.
         21   -1    0    0  502  503 -0.00000000000E+00 -0.00000000000E+00 -0.22119806309E+03  0.22119806309E+03  0.00000000000E+00 0.  1.
          6    1    1    2  501    0  0.47355538956E+02  0.95276738309E+01  0.11844438801E+03  0.21435110611E+03  0.17200000000E+03 0.  1.
         -6    1    1    2    0  503 -0.47355538956E+02 -0.95276738309E+01 -0.12718655205E+03  0.21930285603E+03  0.17200000000E+03 0.  1.
</event>
<event>
 4    1  0.5743594E+000  0.1744875E+03  0.7818608E-02  0.1173247E+00
         21   -1    0    0  503  502  0.00000000000E+00  0.00000000000E+00  0.12230642244E+03  0.12230642244E+03  0.00000000000E+00 0.  1.
         21   -1    0    0  501  503 -0.00000000000E+00 -0.00000000000E+00 -0.45923573072E+03  0.45923573072E+03  0.00000000000E+00 0.  1.
          6    1    1    2  501    0 -0.29326993893E+02  0.13491231559E+01 -0.36523407813E+03  0.40477379428E+03  0.17200000000E+03 0.  1.
         -6    1    1    2    0  502  0.29326993893E+02 -0.13491231559E+01  0.28304769858E+02  0.17676835888E+03  0.17200000000E+03 0.  1.
</event>
<event>
 4    1  0.5743594E+000  0.2208633E+03  0.7818608E-02  0.1133241E+00
         21   -1    0    0  501  502  0.00000000000E+00  0.00000000000E+00  0.10558971877E+03  0.10558971877E+03  0.00000000000E+00 0. -1.
         21   -1    0    0  502  503 -0.00000000000E+00 -0.00000000000E+00 -0.71413474645E+03  0.71413474645E+03  0.00000000000E+00 0. -1.
          6    1    1    2  501    0 -0.10302679118E+03  0.92639516332E+02 -0.54781753802E+03  0.59066458726E+03  0.17200000000E+03 0. -1.
         -6    1    1    2    0  503  0.10302679118E+03 -0.92639516332E+02 -0.60727489666E+02  0.22905987795E+03  0.17200000000E+03 0. -1.
</event>
<event>
 4    1  0.5743594E+000  0.1885389E+03  0.7818608E-02  0.1159786E+00
         21   -1    0    0  501  502  0.00000000000E+00  0.00000000000E+00  0.11546843917E+03  0.11546843917E+03  0.00000000000E+00 0. -1.
         21   -1    0    0  502  503 -0.00000000000E+00 -0.00000000000E+00 -0.37339670536E+03  0.37339670536E+03  0.00000000000E+00 0.  1.
          6    1    1    2  501    0  0.38328165368E+02  0.67036275571E+02 -0.26552176798E+02  0.19039939232E+03  0.17200000000E+03 0. -1.
         -6    1    1    2    0  503 -0.38328165368E+02 -0.67036275571E+02 -0.23137608939E+03  0.29846575221E+03  0.17200000000E+03 0.  1.
</event>
<event>
 4    1  0.5743594E+000  0.2440556E+03  0.7818608E-02  0.1117120E+00
         21   -1    0    0  503  502  0.00000000000E+00  0.00000000000E+00  0.89202201189E+02  0.89202201189E+02  0.00000000000E+00 0. -1.
         21   -1    0    0  501  503 -0.00000000000E+00 -0.00000000000E+00 -0.74305800935E+03  0.74305800935E+03  0.00000000000E+00 0. -1.
          6    1    1    2  501    0  0.16321917787E+03 -0.57780765940E+02 -0.19443525491E+03  0.31203875607E+03  0.17200000000E+03 0. -1.
         -6    1    1    2    0  502 -0.16321917787E+03  0.57780765940E+02 -0.45942055325E+03  0.52022145447E+03  0.17200000000E+03 0. -1.
</event>
<event>
 4    1  0.5743594E+000  0.1768452E+03  0.7818608E-02  0.1170892E+00
         21   -1    0    0  501  502  0.00000000000E+00  0.00000000000E+00  0.15194560356E+03  0.15194560356E+03  0.00000000000E+00 0.  1.
         21   -1    0    0  502  503 -0.00000000000E+00 -0.00000000000E+00 -0.25405531324E+03  0.25405531324E+03  0.00000000000E+00 0.  1.
          6    1    1    2  501    0  0.26139286411E+02  0.31732700010E+02 -0.13950371622E+03  0.22524545141E+03  0.17200000000E+03 0.  1.
         -6    1    1    2    0  503 -0.26139286411E+02 -0.31732700010E+02  0.37394006541E+02  0.18075546539E+03  0.17200000000E+03 0.  1.
</event>
<event>
 4    1  0.5743594E+000  0.2004405E+03  0.7818608E-02  0.1149368E+00
         21   -1    0    0  503  502  0.00000000000E+00  0.00000000000E+00  0.26816798491E+03  0.26816798491E+03  0.00000000000E+00 0.  1.
         21   -1    0    0  501  503 -0.00000000000E+00 -0.00000000000E+00 -0.16067723233E+03  0.16067723233E+03  0.00000000000E+00 0.  1.
          6    1    1    2  501    0 -0.99117836859E+01  0.10244087241E+03 -0.19981081480E+01  0.20045041340E+03  0.17200000000E+03 0.  1.
         -6    1    1    2    0  502  0.99117836859E+01 -0.10244087241E+03  0.10948886072E+03  0.22839480383E+03  0.17200000000E+03 0.  1.
</event>
<event>
 4    1  0.5743594E+000  0.1796154E+03  0.7818608E-02  0.1168176E+00
         21   -1    0    0  501  502  0.00000000000E+00  0.00000000000E+00  0.56871897280E+02  0.56871897280E+02  0.00000000000E+00 0. -1.
         21   -1    0    0  502  503 -0.00000000000E+00 -0.00000000000E+00 -0.63219199492E+03  0.63219199492E+03  0.00000000000E+00 0. -1.
          6    1    1    2  501    0  0.48668003381E+02 -0.17581989541E+02 -0.17725164765E+03  0.25234866258E+03  0.17200000000E+03 0. -1.
         -6    1    1    2    0  503 -0.48668003381E+02  0.17581989541E+02 -0.39806844998E+03  0.43671522962E+03  0.17200000000E+03 0. -1.
</event>
<event>
 4    1  0.5743594E+000  0.1866496E+03  0.7818608E-02  0.1161518E+00
         21   -1    0    0  503  502  0.00000000000E+00  0.00000000000E+00  0.62605037227E+03  0.62605037227E+03  0.00000000000E+00 0.  1.
         21   -1    0    0  501  503 -0.00000000000E+00 -0.00000000000E+00 -0.56075093144E+02  0.56075093144E+02  0.00000000000E+00 0.  1.
          6    1    1    2  501    0 -0.35943009029E+02  0.62945830335E+02  0.25520152792E+03  0.31617384032E+03  0.17200000000E+03 0.  1.
         -6    1    1    2    0  502  0.35943009029E+02 -0.62945830335E+02  0.31477375121E+03  0.36595162509E+03  0.17200000000E+03 0.  1.
</event>
<event>
 4    1  0.5743594E+000  0.5263013E+03  0.7818608E-02  0.1007133E+00
         21   -1    0    0  503  502  0.00000000000E+00  0.00000000000E+00  0.14915996867E+04  0.14915996867E+04  0.00000000000E+00 0. -1.
         21   -1    0    0  501  503 -0.00000000000E+00 -0.00000000000E+00 -0.24450283024E+03  0.24450283024E+03  0.00000000000E+00 0.  1.
          6    1    1    2  501    0 -0.45972472005E+03 -0.18990065983E+03  0.19785683744E+03  0.56226364541E+03  0.17200000000E+03 0.  1.
         -6    1    1    2    0  502  0.45972472005E+03  0.18990065983E+03  0.10492400190E+04  0.11738388715E+04  0.17200000000E+03 0. -1.
</event>
<event>
 4    1  0.5743594E+000  0.2158340E+03  0.7818608E-02  0.1137028E+00
         21   -1    0    0  501  502  0.00000000000E+00  0.00000000000E+00  0.81575185473E+02  0.81575185473E+02  0.00000000000E+00 0. -1.
         21   -1    0    0  502  503 -0.00000000000E+00 -0.00000000000E+00 -0.62515117920E+03  0.62515117920E+03  0.00000000000E+00 0. -1.
          6    1    1    2  501    0 -0.35791664542E+02  0.12537644009E+03 -0.16784541682E+03  0.27341612777E+03  0.17200000000E+03 0. -1.
         -6    1    1    2    0  503  0.35791664542E+02 -0.12537644009E+03 -0.37573057690E+03  0.43331023690E+03  0.17200000000E+03 0. -1.
</event>
<event>
 4    1  0.5743594E+000  0.1728216E+03  0.7818608E-02  0.1174937E+00
         21   -1    0    0  503  502  0.00000000000E+00  0.00000000000E+00  0.25336719342E+02  0.25336719342E+02  0.00000000000E+00 0.  1.
         21   -1    0    0  501  503 -0.00000000000E+00 -0.00000000000E+00 -0.13363182430E+04  0.13363182430E+04  0.00000000000E+00 0.  1.
          6    1    1    2  501    0  0.69014070448E+01 -0.15351507311E+02 -0.88922763989E+03  0.90586593586E+03  0.17200000000E+03 0.  1.
         -6    1    1    2    0  502 -0.69014070448E+01  0.15351507311E+02 -0.42175388380E+03  0.45578902652E+03  0.17200000000E+03 0.  1.
</event>
<event>
 4    1  0.5743594E+000  0.1782935E+03  0.7818608E-02  0.1169465E+00
         21   -1    0    0  501  502  0.00000000000E+00  0.00000000000E+00  0.32546753643E+03  0.32546753643E+03  0.00000000000E+00 0.  1.
         21   -1    0    0  502  503 -0.00000000000E+00 -0.00000000000E+00 -0.20023234666E+03  0.20023234666E+03  0.00000000000E+00 0. -1.
          6    1    1    2  501    0  0.22634410100E+02  0.41136905013E+02  0.25073708078E+03  0.30766482600E+03  0.17200000000E+03 0.  1.
         -6    1    1    2    0  503 -0.22634410100E+02 -0.41136905013E+02 -0.12550189102E+03  0.21803505710E+03  0.17200000000E+03 0. -1.
</event>
<event>
 4    1  0.5743594E+000  0.1833035E+03  0.7818608E-02  0.1164644E+00
         21   -1    0    0  501  502  0.00000000000E+00  0.00000000000E+00  0.50314734599E+03  0.50314734599E+03  0.00000000000E+00 0.  1.
         21   -1    0    0  502  503 -0.00000000000E+00 -0.00000000000E+00 -0.25011005841E+03  0.25011005841E+03  0.00000000000E+00 0.  1.
          6    1    1    2  501    0 -0.15672253589E+02  0.61404700407E+02  0.44897038578E+03  0.48494800141E+03  0.17200000000E+03 0.  1.
         -6    1    1    2    0  503  0.15672253589E+02 -0.61404700407E+02 -0.19593309820E+03  0.26830940299E+03  0.17200000000E+03 0.  1.
</event>
<event>
 4    1  0.5743594E+000  0.1912865E+03  0.7818608E-02  0.1157306E+00
         21   -1    0    0  503  502  0.00000000000E+00  0.00000000000E+00  0.64534524107E+02  0.64534524107E+02  0.00000000000E+00 0. -1.
         21   -1    0    0  501  503 -0.00000000000E+00 -0.00000000000E+00 -0.94237978349E+03  0.94237978349E+03  0.00000000000E+00 0. -1.
          6    1    1    2  501    0  0.59321572331E+02 -0.59054838322E+02 -0.75667582481E+03  0.78047986952E+03  0.17200000000E+03 0. -1.
         -6    1    1    2    0  502 -0.59321572331E+02  0.59054838322E+02 -0.12116943457E+03  0.22643443808E+03  0.17200000000E+03 0. -1.
</event>
<event>
 4    1  0.5743594E+000  0.2146405E+03  0.7818608E-02  0.1137943E+00
         21   -1    0    0  501  502  0.00000000000E+00  0.00000000000E+00  0.27689639241E+02  0.27689639241E+02  0.00000000000E+00 0. -1.
         21   -1    0    0  502  503 -0.00000000000E+00 -0.00000000000E+00 -0.22648969235E+04  0.22648969235E+04  0.00000000000E+00 0. -1.
          6    1    1    2  501    0  0.89336972061E+02 -0.92225063331E+02 -0.52808066967E+03  0.57003486785E+03  0.17200000000E+03 0. -1.
         -6    1    1    2    0  503 -0.89336972061E+02  0.92225063331E+02 -0.17091266145E+04  0.17225516948E+04  0.17200000000E+03 0. -1.
</event>
<event>
 4    1  0.5743594E+000  0.1862671E+03  0.7818608E-02  0.1161872E+00
         21   -1    0    0  501  502  0.00000000000E+00  0.00000000000E+00  0.32539047643E+03  0.32539047643E+03  0.00000000000E+00 0.  1.
         21   -1    0    0  502  503 -0.00000000000E+00 -0.00000000000E+00 -0.12218148240E+03  0.12218148240E+03  0.00000000000E+00 0. -1.
          6    1    1    2  501    0  0.58435250968E+02  0.41191655905E+02  0.21757778822E+02  0.18753354903E+03  0.17200000000E+03 0. -1.
         -6    1    1    2    0  503 -0.58435250968E+02 -0.41191655905E+02  0.18145121521E+03  0.26003840980E+03  0.17200000000E+03 0.  1.
</event>
<event>
 4    1  0.5743594E+000  0.1772562E+03  0.7818608E-02  0.1170485E+00
         21   -1    0    0  503  502  0.00000000000E+00  0.00000000000E+00  0.44787264910E+03  0.44787264910E+03  0.00000000000E+00 0.  1.
         21   -1    0    0  501  503 -0.00000000000E+00 -0.00000000000E+00 -0.77451938373E+02  0.77451938373E+02  0.00000000000E+00 0.  1.
          6    1    1    2  501    0  0.17818119450E+02  0.38964834481E+02  0.10457926175E+03  0.20580710798E+03  0.17200000000E+03 0.  1.
         -6    1    1    2    0  502 -0.17818119450E+02 -0.38964834481E+02  0.26584144899E+03  0.31951747950E+03  0.17200000000E+03 0.  1.
</event>
<event>
 4    1  0.5743594E+000  0.2297492E+03  0.7818608E-02  0.1126816E+00
         21   -1    0    0  503  502  0.00000000000E+00  0.00000000000E+00  0.26757324859E+03  0.26757324859E+03  0.00000000000E+00 0.  1.
         21   -1    0    0  501  503 -0.00000000000E+00 -0.00000000000E+00 -0.21387690573E+03  0.21387690573E+03  0.00000000000E+00 0. -1.
          6    1    1    2  501    0 -0.30082074998E+02 -0.14931772309E+03  0.93922666395E+02  0.24820592444E+03  0.17200000000E+03 0. -1.
         -6    1    1    2    0  502  0.30082074998E+02  0.14931772309E+03 -0.40226323534E+02  0.23324422988E+03  0.17200000000E+03 0. -1.
</event>
<event>
 4    1  0.5743594E+000  0.1958408E+03  0.7818608E-02  0.1153296E+00
         21   -1    0    0  503  502  0.00000000000E+00  0.00000000000E+00  0.23537550603E+03  0.23537550603E+03  0.00000000000E+00 0.  1.
         21   -1    0    0  501  503 -0.00000000000E+00 -0.00000000000E+00 -0.16458541132E+03  0.16458541132E+03  0.00000000000E+00 0.  1.
          6    1    1    2  501    0  0.53141864024E+02 -0.77107404871E+02  0.55351006238E+02  0.20351251433E+03  0.17200000000E+03 0.  1.
         -6    1    1    2    0  502 -0.53141864024E+02  0.77107404871E+02  0.15439088472E+02  0.19644840302E+03  0.17200000000E+03 0.  1.
</event>
<event>
 4    1  0.5743594E+000  0.2114759E+03  0.7818608E-02  0.1140403E+00
         21   -1    0    0  503  502  0.00000000000E+00  0.00000000000E+00  0.23493186755E+03  0.23493186755E+03  0.00000000000E+00 0. -1.
         21   -1    0    0  501  503 -0.00000000000E+00 -0.00000000000E+00 -0.21397228508E+03  0.21397228508E+03  0.00000000000E+00 0.  1.
          6    1    1    2  501    0  0.49224408087E+02 -0.11276093934E+03 -0.64078610776E+02  0.22097090340E+03  0.17200000000E+03 0.  1.
         -6    1    1    2    0  502 -0.49224408087E+02  0.11276093934E+03  0.85038193251E+02  0.22793324923E+03  0.17200000000E+03 0. -1.
</event>
<event>
 4    1  0.5743594E+000  0.1722882E+03  0.7818608E-02  0.1175482E+00
         21   -1    0    0  501  502  0.00000000000E+00  0.00000000000E+00  0.10965012555E+03  0.10965012555E+03  0.00000000000E+00 0.  1.
         21   -1    0    0  502  503 -0.00000000000E+00 -0.00000000000E+00 -0.27731233847E+03  0.27731233847E+03  0.00000000000E+00 0.  1.
          6    1    1    2  501    0  0.63517505688E+01  0.76730698619E+01 -0.11368854530E+03  0.20641779494E+03  0.17200000000E+03 0.  1.
         -6    1    1    2    0  503 -0.63517505688E+01 -0.76730698619E+01 -0.53973667626E+02  0.18054466908E+03  0.17200000000E+03 0.  1.
</event>
<event>
 4    1  0.5743594E+000  0.2108372E+03  0.7818608E-02  0.1140905E+00
         21   -1    0    0  503  502  0.00000000000E+00  0.00000000000E+00  0.65380520952E+03  0.65380520952E+03  0.00000000000E+00 0.  1.
         21   -1    0    0  501  503 -0.00000000000E+00 -0.00000000000E+00 -0.11667944752E+03  0.11667944752E+03  0.00000000000E+00 0. -1.
          6    1    1    2  501    0 -0.96239877956E+02  0.74874643264E+02  0.19703802112E+02  0.21175591168E+03  0.17200000000E+03 0. -1.
         -6    1    1    2    0  502  0.96239877956E+02 -0.74874643264E+02  0.51742195989E+03  0.55872874536E+03  0.17200000000E+03 0.  1.
</event>
<event>
 4    1  0.5743594E+000  0.1957135E+03  0.7818608E-02  0.1153407E+00
         21   -1    0    0  503  502  0.00000000000E+00  0.00000000000E+00  0.10865307598E+03  0.10865307598E+03  0.00000000000E+00 0.  1.
         21   -1    0    0  501  503 -0.00000000000E+00 -0.00000000000E+00 -0.45674269943E+03  0.45674269943E+03  0.00000000000E+00 0.  1.
          6    1    1    2  501    0 -0.72469672010E+02  0.58888956903E+02 -0.30907828733E+03  0.36583213406E+03  0.17200000000E+03 0.  1.
         -6    1    1    2    0  502  0.72469672010E+02 -0.58888956903E+02 -0.39011336117E+02  0.19956364136E+03  0.17200000000E+03 0.  1.
</event>
<event>
 4    1  0.5743594E+000  0.1903290E+03  0.7818608E-02  0.1158165E+00
         21   -1    0    0  501  502  0.00000000000E+00  0.00000000000E+00  0.15954742368E+04  0.15954742368E+04  0.00000000000E+00 0.  1.
         21   -1    0    0  502  503 -0.00000000000E+00 -0.00000000000E+00 -0.34518667295E+02  0.34518667295E+02  0.00000000000E+00 0.  1.
          6    1    1    2  501    0 -0.36140071894E+02 -0.73041118074E+02  0.12572628094E+04  0.12715875438E+04  0.17200000000E+03 0.  1.
         -6    1    1    2    0  503  0.36140071894E+02  0.73041118074E+02  0.30369276011E+03  0.35840536027E+03  0.17200000000E+03 0.  1.
</event>
<event>
 4    1  0.5743594E+000  0.1746303E+03  0.7818608E-02  0.1173103E+00
         21   -1    0    0  503  502  0.00000000000E+00  0.00000000000E+00  0.50063216324E+03  0.50063216324E+03  0.00000000000E+00 0. -1.
         21   -1    0    0  501  503 -0.00000000000E+00 -0.00000000000E+00 -0.70989272994E+02  0.70989272994E+02  0.00000000000E+00 0. -1.
          6    1    1    2  501    0 -0.98344128063E-01 -0.30194892995E+02  0.10715001058E+03  0.20488256637E+03  0.17200000000E+03 0. -1.
         -6    1    1    2    0  502  0.98344128063E-01  0.30194892995E+02  0.32249287967E+03  0.36673886987E+03  0.17200000000E+03 0. -1.
</event>
<event>
 4    1  0.5743594E+000  0.2257006E+03  0.7818608E-02  0.1129703E+00
         21   -1    0    0  503  502  0.00000000000E+00  0.00000000000E+00  0.69685547610E+03  0.69685547610E+03  0.00000000000E+00 0.  1.
         21   -1    0    0  501  503 -0.00000000000E+00 -0.00000000000E+00 -0.19102180239E+03  0.19102180239E+03  0.00000000000E+00 0. -1.
          6    1    1    2  501    0  0.14450509109E+03  0.21795805713E+02 -0.95883448756E+02  0.24522319271E+03  0.17200000000E+03 0. -1.
         -6    1    1    2    0  502 -0.14450509109E+03 -0.21795805713E+02  0.60171712246E+03  0.64265408578E+03  0.17200000000E+03 0.  1.
</event>
<event>
 4    1  0.5743594E+000  0.1891643E+03  0.7818608E-02  0.1159217E+00
         21   -1    0    0  501  502  0.00000000000E+00  0.00000000000E+00  0.21130800975E+02  0.21130800975E+02  0.00000000000E+00 0. -1.
         21   -1    0    0  502  503 -0.00000000000E+00 -0.00000000000E+00 -0.18674579233E+04  0.18674579233E+04  0.00000000000E+00 0.  1.
          6    1    1    2  501    0  0.66668220140E+02  0.41886553374E+02 -0.63488329389E+03  0.66246504194E+03  0.17200000000E+03 0. -1.
         -6    1    1    2    0  503 -0.66668220140E+02 -0.41886553374E+02 -0.12114438284E+04  0.12261236823E+04  0.17200000000E+03 0.  1.
</event>
<event>
 4    1  0.5743594E+000  0.1840185E+03  0.7818608E-02  0.1163970E+00
         21   -1    0    0  501  502  0.00000000000E+00  0.00000000000E+00  0.17317915424E+03  0.17317915424E+03  0.00000000000E+00 0.  1.
         21   -1    0    0  502  503 -0.00000000000E+00 -0.00000000000E+00 -0.22702037481E+03  0.22702037481E+03  0.00000000000E+00 0.  1.
          6    1    1    2  501    0  0.33713205143E+02  0.56055495164E+02  0.47597205683E+02  0.19007443996E+03  0.17200000000E+03 0. -1.
         -6    1    1    2    0  503 -0.33713205143E+02 -0.56055495164E+02 -0.10143842626E+03  0.21012508908E+03  0.17200000000E+03 0. -1.
</event>
<event>
 4    1  0.5743594E+000  0.1958764E+03  0.7818608E-02  0.1153266E+00
         21   -1    0    0  503  502  0.00000000000E+00  0.00000000000E+00  0.13004510344E+03  0.13004510344E+03  0.00000000000E+00 0.  1.
         21   -1    0    0  501  503 -0.00000000000E+00 -0.00000000000E+00 -0.46000525805E+03  0.46000525805E+03  0.00000000000E+00 0.  1.
          6    1    1    2  501    0 -0.93595513409E+02 -0.48402620099E+01 -0.34165855144E+03  0.39382497894E+03  0.17200000000E+03 0.  1.
         -6    1    1    2    0  502  0.93595513409E+02  0.48402620099E+01  0.11698396831E+02  0.19622538255E+03  0.17200000000E+03 0.  1.
</event>
<event>
 4    1  0.5743594E+000  0.3025241E+03  0.7818608E-02  0.1083986E+00
         21   -1    0    0  503  502  0.00000000000E+00  0.00000000000E+00  0.13694701767E+04  0.13694701767E+04  0.00000000000E+00 0. -1.
         21   -1    0    0  501  503 -0.00000000000E+00 -0.00000000000E+00 -0.11169081811E+03  0.11169081811E+03  0.00000000000E+00 0.  1.
          6    1    1    2  501    0 -0.10556457048E+03  0.22537297560E+03  0.10982432021E+04  0.11391483607E+04  0.17200000000E+03 0.  1.
         -6    1    1    2    0  502  0.10556457048E+03 -0.22537297560E+03  0.15953615647E+03  0.34201263411E+03  0.17200000000E+03 0. -1.
</event>
<event>
 4    1  0.5743594E+000  0.2402401E+03  0.7818608E-02  0.1119633E+00
         21   -1    0    0  501  502  0.00000000000E+00  0.00000000000E+00  0.25655776529E+03  0.25655776529E+03  0.00000000000E+00 0. -1.
         21   -1    0    0  502  503 -0.00000000000E+00 -0.00000000000E+00 -0.48875671011E+03  0.48875671011E+03  0.00000000000E+00 0. -1.
          6    1    1    2  501    0 -0.65973316748E+02  0.15420381181E+03  0.15767798858E+03  0.28736325824E+03  0.17200000000E+03 0. -1.
         -6    1    1    2    0  503  0.65973316748E+02 -0.15420381181E+03 -0.38987693341E+03  0.45795121717E+03  0.17200000000E+03 0. -1.
</event>
<event>
 4    1  0.5743594E+000  0.2315193E+03  0.7818608E-02  0.1125575E+00
         21   -1    0    0  503  502  0.00000000000E+00  0.00000000000E+00  0.13570559404E+04  0.13570559404E+04  0.00000000000E+00 0.  1.
         21   -1    0    0  501  503 -0.00000000000E+00 -0.00000000000E+00 -0.39699385084E+02  0.39699385084E+02  0.00000000000E+00 0. -1.
          6    1    1    2  501    0 -0.14871705342E+03  0.43594051310E+02  0.60895646345E+03  0.65148229267E+03  0.17200000000E+03 0.  1.
         -6    1    1    2    0  502  0.14871705342E+03 -0.43594051310E+02  0.70840009191E+03  0.74527303286E+03  0.17200000000E+03 0.  1.
</event>
<event>
 4    1  0.5743594E+000  0.3831756E+03  0.7818608E-02  0.1049766E+00
         21   -1    0    0  501  502  0.00000000000E+00  0.00000000000E+00  0.71722903360E+03  0.71722903360E+03  0.00000000000E+00 0. -1.
         21   -1    0    0  502  503 -0.00000000000E+00 -0.00000000000E+00 -0.20685303326E+03  0.20685303326E+03  0.00000000000E+00 0.  1.
          6    1    1    2  501    0  0.32086052462E+02 -0.34089589696E+03  0.30222336676E+03  0.48801894506E+03  0.17200000000E+03 0.  1.
         -6    1    1    2    0  503 -0.32086052462E+02  0.34089589696E+03  0.20815263358E+03  0.43606312180E+03  0.17200000000E+03 0. -1.
</event>
<event>
 4    1  0.5743594E+000  0.2031375E+03  0.7818608E-02  0.1147119E+00
         21   -1    0    0  501  502  0.00000000000E+00  0.00000000000E+00  0.12938942508E+03  0.12938942508E+03  0.00000000000E+00 0.  1.
         21   -1    0    0  502  503 -0.00000000000E+00 -0.00000000000E+00 -0.31929659419E+03  0.31929659419E+03  0.00000000000E+00 0.  1.
          6    1    1    2  501    0  0.10735750988E+03  0.12458694443E+02 -0.87247251451E+02  0.22108129021E+03  0.17200000000E+03 0.  1.
         -6    1    1    2    0  503 -0.10735750988E+03 -0.12458694443E+02 -0.10265991766E+03  0.22760472906E+03  0.17200000000E+03 0.  1.
</event>
<event>
 4    1  0.5743594E+000  0.2155155E+03  0.7818608E-02  0.1137271E+00
         21   -1    0    0  503  502  0.00000000000E+00  0.00000000000E+00  0.23119681946E+03  0.23119681946E+03  0.00000000000E+00 0.  1.
         21   -1    0    0  501  503 -0.00000000000E+00 -0.00000000000E+00 -0.21766580110E+03  0.21766580110E+03  0.00000000000E+00 0.  1.
          6    1    1    2  501    0  0.12877319705E+03  0.16744863324E+02  0.69057083873E+02  0.22630909738E+03  0.17200000000E+03 0.  1.
         -6    1    1    2    0  502 -0.12877319705E+03 -0.16744863324E+02 -0.55526065511E+02  0.22255352317E+03  0.17200000000E+03 0.  1.
</event>
<event>
 4    1  0.5743594E+000  0.2613121E+03  0.7818608E-02  0.1106357E+00
         21   -1    0    0  503  502  0.00000000000E+00  0.00000000000E+00  0.15387166296E+03  0.15387166296E+03  0.00000000000E+00 0.  1.
         21   -1    0    0  501  503 -0.00000000000E+00 -0.00000000000E+00 -0.61185309115E+03  0.61185309115E+03  0.00000000000E+00 0.  1.
          6    1    1    2  501    0  0.18418497816E+03 -0.69107989490E+02 -0.42965857896E+03  0.50288220775E+03  0.17200000000E+03 0.  1.
         -6    1    1    2    0  502 -0.18418497816E+03  0.69107989490E+02 -0.28322849219E+02  0.26284254636E+03  0.17200000000E+03 0.  1.
</event>
<event>
 4    1  0.5743594E+000  0.2188000E+03  0.7818608E-02  0.1134781E+00
         21   -1    0    0  503  502  0.00000000000E+00  0.00000000000E+00  0.28040924719E+03  0.28040924719E+03  0.00000000000E+00 0.  1.
         21   -1    0    0  501  503 -0.00000000000E+00 -0.00000000000E+00 -0.18451954208E+03  0.18451954208E+03  0.00000000000E+00 0. -1.
          6    1    1    2  501    0  0.11697391693E+03 -0.67871458899E+02 -0.15611252000E+02  0.21935620202E+03  0.17200000000E+03 0. -1.
         -6    1    1    2    0  502 -0.11697391693E+03  0.67871458899E+02  0.11150095711E+03  0.24557258725E+03  0.17200000000E+03 0.  1.
</event>
<event>
 4    1  0.5743594E+000  0.1886076E+03  0.7818608E-02  0.1159723E+00
         21   -1    0    0  501  502  0.00000000000E+00  0.00000000000E+00  0.21400508570E+03  0.21400508570E+03  0.00000000000E+00 0. -1.
         21   -1    0    0  502  503 -0.00000000000E+00 -0.00000000000E+00 -0.51420213457E+03  0.51420213457E+03  0.00000000000E+00 0. -1.
          6    1    1    2  501    0  0.31334407435E+02 -0.70760113953E+02  0.14942701414E+03  0.24062683012E+03  0.17200000000E+03 0. -1.
         -6    1    1    2    0  503 -0.31334407435E+02  0.70760113953E+02 -0.44962406301E+03  0.48758039015E+03  0.17200000000E+03 0. -1.
</event>
<event>
 4    1  0.5743594E+000  0.1996283E+03  0.7818608E-02  0.1150053E+00
         21   -1    0    0  501  502  0.00000000000E+00  0.00000000000E+00  0.90723929060E+03  0.90723929060E+03  0.00000000000E+00 0.  1.
         21   -1    0    0  502  503 -0.00000000000E+00 -0.00000000000E+00 -0.48501812648E+02  0.48501812648E+02  0.00000000000E+00 0.  1.
          6    1    1    2  501    0  0.72751628911E+02 -0.70531270444E+02  0.57614706151E+03  0.60975150357E+03  0.17200000000E+03 0.  1.
         -6    1    1    2    0  503 -0.72751628911E+02  0.70531270444E+02  0.28259041644E+03  0.34598959967E+03  0.17200000000E+03 0.  1.
</event>
<event>
 4    1  0.5743594E+000  0.1904423E+03  0.7818608E-02  0.1158063E+00
         21   -1    0    0  503  502  0.00000000000E+00  0.00000000000E+00  0.19727033812E+03  0.19727033812E+03  0.00000000000E+00 0.  1.
         21   -1    0    0  501  503 -0.00000000000E+00 -0.00000000000E+00 -0.20837603693E+03  0.20837603693E+03  0.00000000000E+00 0. -1.
          6    1    1    2  501    0 -0.58958270999E+02  0.56640935829E+02 -0.75135656494E+02  0.20472821058E+03  0.17200000000E+03 0.  1.
         -6    1    1    2    0  502  0.58958270999E+02 -0.56640935829E+02  0.64029957682E+02  0.20091816446E+03  0.17200000000E+03 0.  1.
</event>
<event>
 4    1  0.5743594E+000  0.2336499E+03  0.7818608E-02  0.1124097E+00
         21   -1    0    0  503  502  0.00000000000E+00  0.00000000000E+00  0.53497571763E+03  0.53497571763E+03  0.00000000000E+00 0. -1.
         21   -1    0    0  501  503 -0.00000000000E+00 -0.00000000000E+00 -0.15793859338E+03  0.15793859338E+03  0.00000000000E+00 0.  1.
          6    1    1    2  501    0  0.42355738073E+02  0.15236225529E+03 -0.17583133586E+02  0.23431054601E+03  0.17200000000E+03 0. -1.
         -6    1    1    2    0  502 -0.42355738073E+02 -0.15236225529E+03  0.39462025783E+03  0.45860376500E+03  0.17200000000E+03 0. -1.
</event>
<event>
 4    1  0.5743594E+000  0.1764478E+03  0.7818608E-02  0.1171286E+00
         21   -1    0    0  501  502  0.00000000000E+00  0.00000000000E+00  0.26376001545E+03  0.26376001545E+03  0.00000000000E+00 0.  1.
         21   -1    0    0  502  503 -0.00000000000E+00 -0.00000000000E+00 -0.18377808261E+03  0.18377808261E+03  0.00000000000E+00 0. -1.
          6    1    1    2  501    0  0.37374314112E+02  0.12368798324E+02  0.17382505795E+03  0.24768725703E+03  0.17200000000E+03 0.  1.
         -6    1    1    2    0  503 -0.37374314112E+02 -0.12368798324E+02 -0.93843125109E+02  0.19985084102E+03  0.17200000000E+03 0. -1.
</event>
<event>
 4    1  0.5743594E+000  0.1816223E+03  0.7818608E-02  0.1166242E+00
         21   -1    0    0  501  502  0.00000000000E+00  0.00000000000E+00  0.35618682849E+03  0.35618682849E+03  0.00000000000E+00 0. -1.
         21   -1    0    0  502  503 -0.00000000000E+00 -0.00000000000E+00 -0.13409748490E+03  0.13409748490E+03  0.00000000000E+00 0. -1.
          6    1    1    2  501    0  0.42043638202E+02  0.40434824725E+02  0.24739732387E+03  0.30690727985E+03  0.17200000000E+03 0. -1.
         -6    1    1    2    0  503 -0.42043638202E+02 -0.40434824725E+02 -0.25307980285E+02  0.18337703354E+03  0.17200000000E+03 0. -1.
</event>
<event>
 4    1  0.5743594E+000  0.2348239E+03  0.7818608E-02  0.1123290E+00
         21   -1    0    0  503  502  0.00000000000E+00  0.00000000000E+00  0.55651844772E+03  0.55651844772E+03  0.00000000000E+00 0. -1.
         21   -1    0    0  501  503 -0.00000000000E+00 -0.00000000000E+00 -0.10411354147E+03  0.10411354147E+03  0.00000000000E+00 0.  1.
          6    1    1    2  501    0 -0.43005408270E+02 -0.15397657329E+03  0.15360414393E+03  0.28060021970E+03  0.17200000000E+03 0.  1.
         -6    1    1    2    0  502  0.43005408270E+02  0.15397657329E+03  0.29880076231E+03  0.38003176949E+03  0.17200000000E+03 0.  1.
</event>
<event>
 4    1  0.5743594E+000  0.2124843E+03  0.7818608E-02  0.1139614E+00
         21   -1    0    0  501  502  0.00000000000E+00  0.00000000000E+00  0.14400535889E+03  0.14400535889E+03  0.00000000000E+00 0.  1.
         21   -1    0    0  502  503 -0.00000000000E+00 -0.00000000000E+00 -0.31702042105E+03  0.31702042105E+03  0.00000000000E+00 0.  1.
          6    1    1    2  501    0  0.12421125294E+03  0.11710266179E+02 -0.62309606006E+02  0.22143182402E+03  0.17200000000E+03 0. -1.
         -6    1    1    2    0  503 -0.12421125294E+03 -0.11710266179E+02 -0.11070545615E+03  0.23959395591E+03  0.17200000000E+03 0. -1.
</event>
<event>
 4    1  0.5743594E+000  0.1942710E+03  0.7818608E-02  0.1154665E+00
         21   -1    0    0  501  502  0.00000000000E+00  0.00000000000E+00  0.80059449336E+03  0.80059449336E+03  0.00000000000E+00 0. -1.
         21   -1    0    0  502  503 -0.00000000000E+00 -0.00000000000E+00 -0.47182681405E+02  0.47182681405E+02  0.00000000000E+00 0.  1.
          6    1    1    2  501    0 -0.87822486674E+02  0.21081498064E+02  0.36418158050E+03  0.41275833402E+03  0.17200000000E+03 0.  1.
         -6    1    1    2    0  503  0.87822486674E+02 -0.21081498064E+02  0.38923023145E+03  0.43501884074E+03  0.17200000000E+03 0.  1.
</event>
<event>
 4    1  0.5743594E+000  0.1733262E+03  0.7818608E-02  0.1174423E+00
         21   -1    0    0  503  502  0.00000000000E+00  0.00000000000E+00  0.66096237772E+02  0.66096237772E+02  0.00000000000E+00 0.  1.
         21   -1    0    0  501  503 -0.00000000000E+00 -0.00000000000E+00 -0.11233075058E+04  0.11233075058E+04  0.00000000000E+00 0.  1.
          6    1    1    2  501    0 -0.21399893870E+02  0.15483714612E-01 -0.98748081917E+03  0.10025768419E+04  0.17200000000E+03 0.  1.
         -6    1    1    2    0  502  0.21399893870E+02 -0.15483714612E-01 -0.69730448896E+02  0.18682690170E+03  0.17200000000E+03 0.  1.
</event>
<event>
 4    1  0.5743594E+000  0.2357887E+03  0.7818608E-02  0.1122630E+00
         21   -1    0    0  503  502  0.00000000000E+00  0.00000000000E+00  0.10243787064E+03  0.10243787064E+03  0.00000000000E+00 0. -1.
         21   -1    0    0  501  503 -0.00000000000E+00 -0.00000000000E+00 -0.54370489848E+03  0.54370489848E+03  0.00000000000E+00 0.  1.
          6    1    1    2  501    0  0.15563806714E+03 -0.42297695321E+02 -0.20696671401E+03  0.31373798571E+03  0.17200000000E+03 0. -1.
         -6    1    1    2    0  502 -0.15563806714E+03  0.42297695321E+02 -0.23430031382E+03  0.33240478340E+03  0.17200000000E+03 0.  1.
</event>
<event>
 4    1  0.5743594E+000  0.1850246E+03  0.7818608E-02  0.1163027E+00
         21   -1    0    0  503  502  0.00000000000E+00  0.00000000000E+00  0.22998402403E+03  0.22998402403E+03  0.00000000000E+00 0. -1.
         21   -1    0    0  501  503 -0.00000000000E+00 -0.00000000000E+00 -0.24963441207E+03  0.24963441207E+03  0.00000000000E+00 0. -1.
          6    1    1    2  501    0 -0.67587828323E+02  0.90543675517E+01  0.14254541514E+03  0.23356646054E+03  0.17200000000E+03 0. -1.
         -6    1    1    2    0  502  0.67587828323E+02 -0.90543675517E+01 -0.16219580318E+03  0.24605197557E+03  0.17200000000E+03 0. -1.
</event>
<event>
 4    1  0.5743594E+000  0.1721475E+03  0.7818608E-02  0.1175627E+00
         21   -1    0    0  503  502  0.00000000000E+00  0.00000000000E+00  0.66863869881E+03  0.66863869881E+03  0.00000000000E+00 0.  1.
         21   -1    0    0  501  503 -0.00000000000E+00 -0.00000000000E+00 -0.86603568246E+02  0.86603568246E+02  0.00000000000E+00 0.  1.
          6    1    1    2  501    0 -0.68518460653E+01  0.19529170301E+01  0.27160408287E+02  0.17427693323E+03  0.17200000000E+03 0.  1.
         -6    1    1    2    0  502  0.68518460653E+01 -0.19529170301E+01  0.55487472228E+03  0.58096533382E+03  0.17200000000E+03 0.  1.
</event>
<event>
 4    1  0.5743594E+000  0.1820095E+03  0.7818608E-02  0.1165872E+00
         21   -1    0    0  503  502  0.00000000000E+00  0.00000000000E+00  0.46644569171E+03  0.46644569171E+03  0.00000000000E+00 0. -1.
         21   -1    0    0  501  503 -0.00000000000E+00 -0.00000000000E+00 -0.72420689360E+02  0.72420689360E+02  0.00000000000E+00 0.  1.
          6    1    1    2  501    0 -0.55892758632E+02 -0.20480782721E+02  0.23446905306E+03  0.29682183170E+03  0.17200000000E+03 0. -1.
         -6    1    1    2    0  502  0.55892758632E+02  0.20480782721E+02  0.15955594929E+03  0.24204454937E+03  0.17200000000E+03 0. -1.
</event>
<event>
 4    1  0.5743594E+000  0.1950898E+03  0.7818608E-02  0.1153949E+00
         21   -1    0    0  501  502  0.00000000000E+00  0.00000000000E+00  0.10457740939E+04  0.10457740939E+04  0.00000000000E+00 0. -1.
         21   -1    0    0  502  503 -0.00000000000E+00 -0.00000000000E+00 -0.37116194057E+02  0.37116194057E+02  0.00000000000E+00 0. -1.
          6    1    1    2  501    0  0.19895685331E+02 -0.89889886479E+02  0.57984912806E+03  0.61178839585E+03  0.17200000000E+03 0. -1.
         -6    1    1    2    0  503 -0.19895685331E+02  0.89889886479E+02  0.42880877175E+03  0.47110189208E+03  0.17200000000E+03 0. -1.
</event>
<event>
 4    1  0.5743594E+000  0.1822550E+03  0.7818608E-02  0.1165638E+00
         21   -1    0    0  501  502  0.00000000000E+00  0.00000000000E+00  0.20273028959E+04  0.20273028959E+04  0.00000000000E+00 0. -1.
         21   -1    0    0  502  503 -0.00000000000E+00 -0.00000000000E+00 -0.68226257862E+02  0.68226257862E+02  0.00000000000E+00 0.  1.
          6    1    1    2  501    0  0.59162595096E+02 -0.11518735876E+02  0.18928660833E+04  0.19016200733E+04  0.17200000000E+03 0. -1.
         -6    1    1    2    0  503 -0.59162595096E+02  0.11518735876E+02  0.66210554794E+02  0.19390908050E+03  0.17200000000E+03 0.  1.
</event>
<event>
 4    1  0.5743594E+000  0.2296397E+03  0.7818608E-02  0.1126894E+00
         21   -1    0    0  501  502  0.00000000000E+00  0.00000000000E+00  0.54686905372E+03  0.54686905372E+03  0.00000000000E+00 0. -1.
         21   -1    0    0  502  503 -0.00000000000E+00 -0.00000000000E+00 -0.96926707272E+02  0.96926707272E+02  0.00000000000E+00 0. -1.
          6    1    1    2  501    0 -0.12517619012E+03 -0.86494698730E+02  0.20192050086E+03  0.30578799870E+03  0.17200000000E+03 0. -1.
         -6    1    1    2    0  503  0.12517619012E+03  0.86494698730E+02  0.24802184558E+03  0.33800776229E+03  0.17200000000E+03 0. -1.
</event>
<event>
 4    1  0.5743594E+000  0.2148232E+03  0.7818608E-02  0.1137802E+00
         21   -1    0    0  501  502  0.00000000000E+00  0.00000000000E+00  0.16835529123E+03  0.16835529123E+03  0.00000000000E+00 0.  1.
         21   -1    0    0  502  503 -0.00000000000E+00 -0.00000000000E+00 -0.28168019527E+03  0.28168019527E+03  0.00000000000E+00 0.  1.
          6    1    1    2  501    0 -0.63231751959E+02  0.11210150043E+03 -0.19790239617E+02  0.21573283115E+03  0.17200000000E+03 0. -1.
         -6    1    1    2    0  503  0.63231751959E+02 -0.11210150043E+03 -0.93534664428E+02  0.23430265535E+03  0.17200000000E+03 0. -1.
</event>
<event>
 4    1  0.5743594E+000  0.2966518E+03  0.7818608E-02  0.1086926E+00
         21   -1    0    0  501  502  0.00000000000E+00  0.00000000000E+00  0.26784209100E+03  0.26784209100E+03  0.00000000000E+00 0. -1.
         21   -1    0    0  502  503 -0.00000000000E+00 -0.00000000000E+00 -0.53089148861E+03  0.53089148861E+03  0.00000000000E+00 0. -1.
          6    1    1    2  501    0  0.23992523243E+03  0.29226352794E+02 -0.37807208688E+03  0.48056300287E+03  0.17200000000E+03 0. -1.
         -6    1    1    2    0  503 -0.23992523243E+03 -0.29226352794E+02  0.11502268928E+03  0.31817057674E+03  0.17200000000E+03 0. -1.
</event>
<event>
 4    1  0.5743594E+000  0.3818507E+03  0.7818608E-02  0.1050252E+00
         21   -1    0    0  503  502  0.00000000000E+00  0.00000000000E+00  0.28270985085E+04  0.28270985085E+04  0.00000000000E+00 0.  1.
         21   -1    0    0  501  503 -0.00000000000E+00 -0.00000000000E+00 -0.52338759727E+02  0.52338759727E+02  0.00000000000E+00 0. -1.
          6    1    1    2  501    0 -0.11863359685E+03  0.31961226563E+03  0.12135556350E+04  0.12722135080E+04  0.17200000000E+03 0.  1.
         -6    1    1    2    0  502  0.11863359685E+03 -0.31961226563E+03  0.15612041137E+04  0.16072237602E+04  0.17200000000E+03 0. -1.
</event>
<event>
 4    1  0.5743594E+000  0.5709684E+03  0.7818608E-02  0.9967538E-01
         21   -1    0    0  503  502  0.00000000000E+00  0.00000000000E+00  0.48783600650E+03  0.48783600650E+03  0.00000000000E+00 0. -1.
         21   -1    0    0  501  503 -0.00000000000E+00 -0.00000000000E+00 -0.13209971390E+04  0.13209971390E+04  0.00000000000E+00 0.  1.
          6    1    1    2  501    0 -0.10692736532E+02  0.54434047141E+03 -0.10523275150E+04  0.11972460408E+04  0.17200000000E+03 0.  1.
         -6    1    1    2    0  502  0.10692736532E+02 -0.54434047141E+03  0.21916638248E+03  0.61158710470E+03  0.17200000000E+03 0. -1.
</event>
<event>
 4    1  0.5743594E+000  0.1965557E+03  0.7818608E-02  0.1152678E+00
         21   -1    0    0  503  502  0.00000000000E+00  0.00000000000E+00  0.33513638807E+03  0.33513638807E+03  0.00000000000E+00 0. -1.
         21   -1    0    0  501  503 -0.00000000000E+00 -0.00000000000E+00 -0.23033167041E+03  0.23033167041E+03  0.00000000000E+00 0. -1.
          6    1    1    2  501    0  0.75108044623E+02 -0.58386114374E+02 -0.14742262189E+03  0.24569816068E+03  0.17200000000E+03 0. -1.
         -6    1    1    2    0  502 -0.75108044623E+02  0.58386114374E+02  0.25222733955E+03  0.31976989779E+03  0.17200000000E+03 0. -1.
</event>
<event>
 4    1  0.5743594E+000  0.1771737E+03  0.7818608E-02  0.1170567E+00
         21   -1    0    0  503  502  0.00000000000E+00  0.00000000000E+00  0.16929915112E+03  0.16929915112E+03  0.00000000000E+00 0. -1.
         21   -1    0    0  501  503 -0.00000000000E+00 -0.00000000000E+00 -0.18616667772E+03  0.18616667772E+03  0.00000000000E+00 0. -1.
          6    1    1    2  501    0 -0.41644154937E+01 -0.42298722613E+02  0.28632973742E+01  0.17719684750E+03  0.17200000000E+03 0. -1.
         -6    1    1    2    0  502  0.41644154937E+01  0.42298722613E+02 -0.19730823974E+02  0.17826898133E+03  0.17200000000E+03 0. -1.
</event>
<event>
 4    1  0.5743594E+000  0.1792589E+03  0.7818608E-02  0.1168522E+00
         21   -1    0    0  503  502  0.00000000000E+00  0.00000000000E+00  0.29365082162E+03  0.29365082162E+03  0.00000000000E+00 0.  1.
         21   -1    0    0  501  503 -0.00000000000E+00 -0.00000000000E+00 -0.15058421426E+03  0.15058421426E+03  0.00000000000E+00 0.  1.
          6    1    1    2  501    0 -0.15554649526E+02  0.48039761606E+02  0.18765362150E+03  0.25951425294E+03  0.17200000000E+03 0.  1.
         -6    1    1    2    0  502  0.15554649526E+02 -0.48039761606E+02 -0.44587014143E+02  0.18472078293E+03  0.17200000000E+03 0.  1.
</event>
<event>
 4    1  0.5743594E+000  0.2148842E+03  0.7818608E-02  0.1137756E+00
         21   -1    0    0  503  502  0.00000000000E+00  0.00000000000E+00  0.99675325331E+02  0.99675325331E+02  0.00000000000E+00 0.  1.
         21   -1    0    0  501  503 -0.00000000000E+00 -0.00000000000E+00 -0.46624421935E+03  0.46624421935E+03  0.00000000000E+00 0. -1.
          6    1    1    2  501    0 -0.38552426575E+02 -0.12290220059E+03 -0.16063335147E+03  0.26828774499E+03  0.17200000000E+03 0.  1.
         -6    1    1    2    0  502  0.38552426575E+02  0.12290220059E+03 -0.20593554254E+03  0.29763179969E+03  0.17200000000E+03 0. -1.
</event>
<event>
 4    1  0.5743594E+000  0.2025270E+03  0.7818608E-02  0.1147624E+00
         21   -1    0    0  501  502  0.00000000000E+00  0.00000000000E+00  0.23803103304E+04  0.23803103304E+04  0.00000000000E+00 0. -1.
         21   -1    0    0  502  503 -0.00000000000E+00 -0.00000000000E+00 -0.22622489114E+02  0.22622489114E+02  0.00000000000E+00 0. -1.
          6    1    1    2  501    0 -0.82386254183E+02 -0.68159328692E+02  0.17653343355E+04  0.17769137585E+04  0.17200000000E+03 0. -1.
         -6    1    1    2    0  503  0.82386254183E+02  0.68159328692E+02  0.59235350579E+03  0.62601906104E+03  0.17200000000E+03 0. -1.
</event>
<event>
 4    1  0.5743594E+000  0.1849552E+03  0.7818608E-02  0.1163092E+00
         21   -1    0    0  501  502  0.00000000000E+00  0.00000000000E+00  0.41351451180E+02  0.41351451180E+02  0.00000000000E+00 0. -1.
         21   -1    0    0  502  503 -0.00000000000E+00 -0.00000000000E+00 -0.94271265174E+03  0.94271265174E+03  0.00000000000E+00 0. -1.
          6    1    1    2  501    0  0.84510724649E+01 -0.67475936001E+02 -0.27849186964E+03  0.33431443885E+03  0.17200000000E+03 0. -1.
         -6    1    1    2    0  503 -0.84510724649E+01  0.67475936001E+02 -0.62286933092E+03  0.64974966408E+03  0.17200000000E+03 0. -1.
</event>
<event>
 4    1  0.5743594E+000  0.2706908E+03  0.7818608E-02  0.1100885E+00
         21   -1    0    0  503  502  0.00000000000E+00  0.00000000000E+00  0.19783770901E+03  0.19783770901E+03  0.00000000000E+00 0.  1.
         21   -1    0    0  501  503 -0.00000000000E+00 -0.00000000000E+00 -0.57500004499E+03  0.57500004499E+03  0.00000000000E+00 0. -1.
          6    1    1    2  501    0  0.15299538797E+03 -0.14241465764E+03 -0.41910036797E+03  0.49891747001E+03  0.17200000000E+03 0. -1.
         -6    1    1    2    0  502 -0.15299538797E+03  0.14241465764E+03  0.41938031988E+02  0.27392028399E+03  0.17200000000E+03 0.  1.
</event>
<event>
 4    1  0.5743594E+000  0.1740710E+03  0.7818608E-02  0.1173668E+00
         21   -1    0    0  503  502  0.00000000000E+00  0.00000000000E+00  0.22767330485E+03  0.22767330485E+03  0.00000000000E+00 0. -1.
         21   -1    0    0  501  503 -0.00000000000E+00 -0.00000000000E+00 -0.27205539810E+03  0.27205539810E+03  0.00000000000E+00 0. -1.
          6    1    1    2  501    0 -0.13698936015E+02 -0.23001041183E+02 -0.20077039658E+03  0.26572440777E+03  0.17200000000E+03 0. -1.
         -6    1    1    2    0  502  0.13698936015E+02  0.23001041183E+02  0.15638830333E+03  0.23400429518E+03  0.17200000000E+03 0. -1.
</event>
<event>
 4    1  0.5743594E+000  0.1800688E+03  0.7818608E-02  0.1167736E+00
         21   -1    0    0  501  502  0.00000000000E+00  0.00000000000E+00  0.27734259470E+03  0.27734259470E+03  0.00000000000E+00 0.  1.
         21   -1    0    0  502  503 -0.00000000000E+00 -0.00000000000E+00 -0.11694747638E+03  0.11694747638E+03  0.00000000000E+00 0.  1.
          6    1    1    2  501    0  0.28636748142E+02  0.44952472534E+02  0.76783248236E+02  0.19575611189E+03  0.17200000000E+03 0. -1.
         -6    1    1    2    0  503 -0.28636748142E+02 -0.44952472534E+02  0.83611870086E+02  0.19853395919E+03  0.17200000000E+03 0. -1.
</event>
<event>
 4    1  0.5743594E+000  0.2250914E+03  0.7818608E-02  0.1130143E+00
         21   -1    0    0  503  502  0.00000000000E+00  0.00000000000E+00  0.65975532527E+03  0.65975532527E+03  0.00000000000E+00 0. -1.
         21   -1    0    0  501  503 -0.00000000000E+00 -0.00000000000E+00 -0.44187922979E+03  0.44187922979E+03  0.00000000000E+00 0.  1.
          6    1    1    2  501    0 -0.13169446678E+03 -0.61145132004E+02 -0.39173253167E+03  0.45179700764E+03  0.17200000000E+03 0.  1.
         -6    1    1    2    0  502  0.13169446678E+03  0.61145132004E+02  0.60960862715E+03  0.64983754742E+03  0.17200000000E+03 0. -1.
</event>
<event>
 4    1  0.5743594E+000  0.2286244E+03  0.7818608E-02  0.1127612E+00
         21   -1    0    0  503  502  0.00000000000E+00  0.00000000000E+00  0.38919249301E+03  0.38919249301E+03  0.00000000000E+00 0.  1.
         21   -1    0    0  501  503 -0.00000000000E+00 -0.00000000000E+00 -0.35207642138E+03  0.35207642138E+03  0.00000000000E+00 0.  1.
          6    1    1    2  501    0  0.44814755887E+02 -0.14379416564E+03 -0.27293708064E+03  0.35603900686E+03  0.17200000000E+03 0.  1.
         -6    1    1    2    0  502 -0.44814755887E+02  0.14379416564E+03  0.31005315227E+03  0.38522990753E+03  0.17200000000E+03 0.  1.
</event>
<event>
 4    1  0.5743594E+000  0.2121147E+03  0.7818608E-02  0.1139902E+00
         21   -1    0    0  501  502  0.00000000000E+00  0.00000000000E+00  0.71931585817E+03  0.71931585817E+03  0.00000000000E+00 0. -1.
         21   -1    0    0  502  503 -0.00000000000E+00 -0.00000000000E+00 -0.65292405879E+02  0.65292405879E+02  0.00000000000E+00 0.  1.
          6    1    1    2  501    0  0.11164748320E+03 -0.54253726053E+02  0.40742378987E+03  0.45933296403E+03  0.17200000000E+03 0.  1.
         -6    1    1    2    0  503 -0.11164748320E+03  0.54253726053E+02  0.24659966242E+03  0.32527530002E+03  0.17200000000E+03 0.  1.
</event>
<event>
 4    1  0.5743594E+000  0.1731628E+03  0.7818608E-02  0.1174589E+00
         21   -1    0    0  501  502  0.00000000000E+00  0.00000000000E+00  0.12428666845E+03  0.12428666845E+03  0.00000000000E+00 0.  1.
         21   -1    0    0  502  503 -0.00000000000E+00 -0.00000000000E+00 -0.24209726510E+03  0.24209726510E+03  0.00000000000E+00 0.  1.
          6    1    1    2  501    0 -0.13670587872E+02 -0.14644662814E+02 -0.48129527366E+02  0.17972702225E+03  0.17200000000E+03 0.  1.
         -6    1    1    2    0  503  0.13670587872E+02  0.14644662814E+02 -0.69681069277E+02  0.18665691130E+03  0.17200000000E+03 0.  1.
</event>
<event>
 4    1  0.5743594E+000  0.2618759E+03  0.7818608E-02  0.1106021E+00
         21   -1    0    0  501  502  0.00000000000E+00  0.00000000000E+00  0.21468839634E+03  0.21468839634E+03  0.00000000000E+00 0.  1.
         21   -1    0    0  502  503 -0.00000000000E+00 -0.00000000000E+00 -0.43683913109E+03  0.43683913109E+03  0.00000000000E+00 0. -1.
          6    1    1    2  501    0 -0.18942071039E+03  0.55810299845E+02  0.57806737772E+02  0.26818018947E+03  0.17200000000E+03 0.  1.
         -6    1    1    2    0  503  0.18942071039E+03 -0.55810299845E+02 -0.27995747252E+03  0.38334733795E+03  0.17200000000E+03 0. -1.
</event>
<event>
 4    1  0.5743594E+000  0.2748367E+03  0.7818608E-02  0.1098543E+00
         21   -1    0    0  503  502  0.00000000000E+00  0.00000000000E+00  0.68800522629E+03  0.68800522629E+03  0.00000000000E+00 0.  1.
         21   -1    0    0  501  503 -0.00000000000E+00 -0.00000000000E+00 -0.10984249803E+03  0.10984249803E+03  0.00000000000E+00 0. -1.
          6    1    1    2  501    0 -0.21256249269E+03 -0.27719860330E+02  0.28025338722E+03  0.39252664241E+03  0.17200000000E+03 0. -1.
         -6    1    1    2    0  502  0.21256249269E+03  0.27719860330E+02  0.29790934104E+03  0.40532108190E+03  0.17200000000E+03 0.  1.
</event>
<event>
 4    1  0.5743594E+000  0.2539156E+03  0.7818608E-02  0.1110855E+00
         21   -1    0    0  501  502  0.00000000000E+00  0.00000000000E+00  0.67761852489E+03  0.67761852489E+03  0.00000000000E+00 0. -1.
         21   -1    0    0  502  503 -0.00000000000E+00 -0.00000000000E+00 -0.54263497520E+03  0.54263497520E+03  0.00000000000E+00 0. -1.
          6    1    1    2  501    0 -0.24648346630E+02 -0.18515292679E+03  0.62155205747E+03  0.67141649327E+03  0.17200000000E+03 0. -1.
         -6    1    1    2    0  503  0.24648346630E+02  0.18515292679E+03 -0.48656850778E+03  0.54883700682E+03  0.17200000000E+03 0. -1.
</event>
<event>
 4    1  0.5743594E+000  0.4599308E+03  0.7818608E-02  0.1024801E+00
         21   -1    0    0  503  502  0.00000000000E+00  0.00000000000E+00  0.48575319424E+03  0.48575319424E+03  0.00000000000E+00 0. -1.
         21   -1    0    0  501  503 -0.00000000000E+00 -0.00000000000E+00 -0.46349777879E+03  0.46349777879E+03  0.00000000000E+00 0.  1.
          6    1    1    2  501    0 -0.16872795262E+03 -0.39176929146E+03 -0.10556295887E+03  0.47188964601E+03  0.17200000000E+03 0.  1.
         -6    1    1    2    0  502  0.16872795262E+03  0.39176929146E+03  0.12781837431E+03  0.47736132702E+03  0.17200000000E+03 0. -1.
</event>
<event>
 4    1  0.5743594E+000  0.2223033E+03  0.7818608E-02  0.1132177E+00
         21   -1    0    0  503  502  0.00000000000E+00  0.00000000000E+00  0.81655518930E+02  0.81655518930E+02  0.00000000000E+00 0.  1.
         21   -1    0    0  501  503 -0.00000000000E+00 -0.00000000000E+00 -0.72185673090E+03  0.72185673090E+03  0.00000000000E+00 0. -1.
          6    1    1    2  501    0 -0.43286025790E+01 -0.14076933590E+03 -0.15860037503E+03  0.27308024771E+03  0.17200000000E+03 0. -1.
         -6    1    1    2    0  502  0.43286025790E+01  0.14076933590E+03 -0.48160083694E+03  0.53043200212E+03  0.17200000000E+03 0.  1.
</event>
<event>
 4    1  0.5743594E+000  0.2709183E+03  0.7818608E-02  0.1100755E+00
         21   -1    0    0  501  502  0.00000000000E+00  0.00000000000E+00  0.62056445719E+02  0.62056445719E+02  0.00000000000E+00 0. -1.
         21   -1    0    0  502  503 -0.00000000000E+00 -0.00000000000E+00 -0.11871373672E+04  0.11871373672E+04  0.00000000000E+00 0.  1.
          6    1    1    2  501    0  0.15156273477E+03  0.14436566925E+03 -0.60054988189E+03  0.65882992469E+03  0.17200000000E+03 0. -1.
         -6    1    1    2    0  503 -0.15156273477E+03 -0.14436566925E+03 -0.52453103955E+03  0.59036388819E+03  0.17200000000E+03 0.  1.
</event>
<event>
 4    1  0.5743594E+000  0.1757131E+03  0.7818608E-02  0.1172018E+00
         21   -1    0    0  503  502  0.00000000000E+00  0.00000000000E+00  0.18053699993E+03  0.18053699993E+03  0.00000000000E+00 0.  1.
         21   -1    0    0  501  503 -0.00000000000E+00 -0.00000000000E+00 -0.88449636182E+03  0.88449636182E+03  0.00000000000E+00 0.  1.
          6    1    1    2  501    0  0.56521248769E+01  0.35484599970E+02 -0.83025233398E+03  0.84864246973E+03  0.17200000000E+03 0.  1.
         -6    1    1    2    0  502 -0.56521248769E+01 -0.35484599970E+02  0.12629297208E+03  0.21639089202E+03  0.17200000000E+03 0.  1.
</event>
<event>
 4    1  0.5743594E+000  0.2409084E+03  0.7818608E-02  0.1119189E+00
         21   -1    0    0  501  502  0.00000000000E+00  0.00000000000E+00  0.15189945854E+03  0.15189945854E+03  0.00000000000E+00 0.  1.
         21   -1    0    0  502  503 -0.00000000000E+00 -0.00000000000E+00 -0.47792552902E+03  0.47792552902E+03  0.00000000000E+00 0.  1.
          6    1    1    2  501    0  0.12665506544E+03  0.11140629737E+03 -0.21983921319E+02  0.24190940761E+03  0.17200000000E+03 0.  1.
         -6    1    1    2    0  503 -0.12665506544E+03 -0.11140629737E+03 -0.30404214916E+03  0.38791557995E+03  0.17200000000E+03 0.  1.
</event>
<event>
 4    1  0.5743594E+000  0.1722491E+03  0.7818608E-02  0.1175522E+00
         21   -1    0    0  503  502  0.00000000000E+00  0.00000000000E+00  0.14185100811E+03  0.14185100811E+03  0.00000000000E+00 0.  1.
         21   -1    0    0  501  503 -0.00000000000E+00 -0.00000000000E+00 -0.23666220359E+03  0.23666220359E+03  0.00000000000E+00 0.  1.
          6    1    1    2  501    0  0.61017378984E+01 -0.69667142390E+01 -0.11192029780E+03  0.20541645351E+03  0.17200000000E+03 0.  1.
         -6    1    1    2    0  502 -0.61017378984E+01  0.69667142390E+01  0.17109102321E+02  0.17309675819E+03  0.17200000000E+03 0.  1.
</event>
<event>
 4    1  0.5743594E+000  0.1894433E+03  0.7818608E-02  0.1158964E+00
         21   -1    0    0  501  502  0.00000000000E+00  0.00000000000E+00  0.22154335417E+02  0.22154335417E+02  0.00000000000E+00 0. -1.
         21   -1    0    0  502  503 -0.00000000000E+00 -0.00000000000E+00 -0.19608507833E+04  0.19608507833E+04  0.00000000000E+00 0.  1.
          6    1    1    2  501    0  0.25746516565E+02 -0.75112513839E+02 -0.55592994746E+03  0.58732178517E+03  0.17200000000E+03 0. -1.
         -6    1    1    2    0  503 -0.25746516565E+02  0.75112513839E+02 -0.13827665004E+04  0.13956833335E+04  0.17200000000E+03 0.  1.
</event>
<event>
 4    1  0.5743594E+000  0.1796235E+03  0.7818608E-02  0.1168168E+00
         21   -1    0    0  501  502  0.00000000000E+00  0.00000000000E+00  0.70816727185E+02  0.70816727185E+02  0.00000000000E+00 0. -1.
         21   -1    0    0  502  503 -0.00000000000E+00 -0.00000000000E+00 -0.55666352764E+03  0.55666352764E+03  0.00000000000E+00 0. -1.
          6    1    1    2  501    0 -0.27496401264E+02  0.43869488440E+02 -0.10924653561E+03  0.21023650882E+03  0.17200000000E+03 0. -1.
         -6    1    1    2    0  503  0.27496401264E+02 -0.43869488440E+02 -0.37660026485E+03  0.41724374600E+03  0.17200000000E+03 0. -1.
</event>
<event>
 4    1  0.5743594E+000  0.2033407E+03  0.7818608E-02  0.1146951E+00
         21   -1    0    0  503  502  0.00000000000E+00  0.00000000000E+00  0.39433331140E+03  0.39433331140E+03  0.00000000000E+00 0. -1.
         21   -1    0    0  501  503 -0.00000000000E+00 -0.00000000000E+00 -0.15310518205E+03  0.15310518205E+03  0.00000000000E+00 0. -1.
          6    1    1    2  501    0 -0.96333501283E+02 -0.49832535488E+02 -0.33047187975E+02  0.20600859617E+03  0.17200000000E+03 0. -1.
         -6    1    1    2    0  502  0.96333501283E+02  0.49832535488E+02  0.27427531733E+03  0.34142989728E+03  0.17200000000E+03 0. -1.
</event>
<event>
 4    1  0.5743594E+000  0.3143383E+03  0.7818608E-02  0.1078285E+00
         21   -1    0    0  503  502  0.00000000000E+00  0.00000000000E+00  0.25385586985E+03  0.25385586985E+03  0.00000000000E+00 0.  1.
         21   -1    0    0  501  503 -0.00000000000E+00 -0.00000000000E+00 -0.42053819689E+03  0.42053819689E+03  0.00000000000E+00 0. -1.
          6    1    1    2  501    0 -0.19582436070E+03 -0.17571967390E+03  0.86620170100E+01  0.31445765149E+03  0.17200000000E+03 0.  1.
         -6    1    1    2    0  502  0.19582436070E+03  0.17571967390E+03 -0.17534434404E+03  0.35993641525E+03  0.17200000000E+03 0. -1.
</event>
<event>
 4    1  0.5743594E+000  0.1943231E+03  0.7818608E-02  0.1154619E+00
         21   -1    0    0  503  502  0.00000000000E+00  0.00000000000E+00  0.79006675352E+02  0.79006675352E+02  0.00000000000E+00 0. -1.
         21   -1    0    0  501  503 -0.00000000000E+00 -0.00000000000E+00 -0.47976296097E+03  0.47976296097E+03  0.00000000000E+00 0. -1.
          6    1    1    2  501    0  0.74783197845E+02 -0.50842126931E+02 -0.21754014735E+03  0.29169361368E+03  0.17200000000E+03 0.  1.
         -6    1    1    2    0  502 -0.74783197845E+02  0.50842126931E+02 -0.18321613827E+03  0.26707602265E+03  0.17200000000E+03 0.  1.
</event>
<event>
 4    1  0.5743594E+000  0.2050521E+03  0.7818608E-02  0.1145545E+00
         21   -1    0    0  501  502  0.00000000000E+00  0.00000000000E+00  0.34413674409E+03  0.34413674409E+03  0.00000000000E+00 0. -1.
         21   -1    0    0  502  503 -0.00000000000E+00 -0.00000000000E+00 -0.20446538687E+03  0.20446538687E+03  0.00000000000E+00 0.  1.
          6    1    1    2  501    0 -0.78991024554E+02 -0.78884637616E+02  0.24384837713E+03  0.31860382773E+03  0.17200000000E+03 0. -1.
         -6    1    1    2    0  503  0.78991024554E+02  0.78884637616E+02 -0.10417701991E+03  0.22999830323E+03  0.17200000000E+03 0.  1.
</event>
<event>
 4    1  0.5743594E+000  0.1758060E+03  0.7818608E-02  0.1171925E+00
         21   -1    0    0  501  502  0.00000000000E+00  0.00000000000E+00  0.84713878111E+03  0.84713878111E+03  0.00000000000E+00 0. -1.
         21   -1    0    0  502  503 -0.00000000000E+00 -0.00000000000E+00 -0.74441270123E+02  0.74441270123E+02  0.00000000000E+00 0. -1.
          6    1    1    2  501    0 -0.29499926751E+02  0.21295835138E+02  0.71538112358E+03  0.73666675658E+03  0.17200000000E+03 0. -1.
         -6    1    1    2    0  503  0.29499926751E+02 -0.21295835138E+02  0.57316387399E+02  0.18491329465E+03  0.17200000000E+03 0. -1.
</event>
<event>
 4    1  0.5743594E+000  0.1993868E+03  0.7818608E-02  0.1150257E+00
         21   -1    0    0  503  502  0.00000000000E+00  0.00000000000E+00  0.21281793844E+03  0.21281793844E+03  0.00000000000E+00 0. -1.
         21   -1    0    0  501  503 -0.00000000000E+00 -0.00000000000E+00 -0.40253815121E+03  0.40253815121E+03  0.00000000000E+00 0.  1.
          6    1    1    2  501    0  0.89757258564E+02 -0.45986182592E+02 -0.32010405503E+03  0.37712292492E+03  0.17200000000E+03 0.  1.
         -6    1    1    2    0  502 -0.89757258564E+02  0.45986182592E+02  0.13038384226E+03  0.23823316473E+03  0.17200000000E+03 0. -1.
</event>
<event>
 4    1  0.5743594E+000  0.1802926E+03  0.7818608E-02  0.1167520E+00
         21   -1    0    0  501  502  0.00000000000E+00  0.00000000000E+00  0.92028301002E+02  0.92028301002E+02  0.00000000000E+00 0.  1.
         21   -1    0    0  502  503 -0.00000000000E+00 -0.00000000000E+00 -0.84859358476E+03  0.84859358476E+03  0.00000000000E+00 0.  1.
          6    1    1    2  501    0 -0.48409211647E+02  0.24040981406E+02 -0.18942677608E+02  0.18128498447E+03  0.17200000000E+03 0.  1.
         -6    1    1    2    0  503  0.48409211647E+02 -0.24040981406E+02 -0.73762260615E+03  0.75933690129E+03  0.17200000000E+03 0.  1.
</event>
<event>
 4    1  0.5743594E+000  0.1777571E+03  0.7818608E-02  0.1169992E+00
         21   -1    0    0  501  502  0.00000000000E+00  0.00000000000E+00  0.96083371075E+03  0.96083371075E+03  0.00000000000E+00 0.  1.
         21   -1    0    0  502  503 -0.00000000000E+00 -0.00000000000E+00 -0.32954215615E+02  0.32954215615E+02  0.00000000000E+00 0.  1.
          6    1    1    2  501    0  0.98397428544E+01 -0.43780747504E+02  0.44126297465E+03  0.47572112334E+03  0.17200000000E+03 0.  1.
         -6    1    1    2    0  503 -0.98397428544E+01  0.43780747504E+02  0.48661652049E+03  0.51806680303E+03  0.17200000000E+03 0.  1.
</event>
<event>
 4    1  0.5743594E+000  0.1800814E+03  0.7818608E-02  0.1167724E+00
         21   -1    0    0  503  502  0.00000000000E+00  0.00000000000E+00  0.16613989506E+04  0.16613989506E+04  0.00000000000E+00 0.  1.
         21   -1    0    0  501  503 -0.00000000000E+00 -0.00000000000E+00 -0.34818887484E+02  0.34818887484E+02  0.00000000000E+00 0.  1.
          6    1    1    2  501    0 -0.73849275218E+01 -0.52827818714E+02  0.25109850819E+03  0.30899802006E+03  0.17200000000E+03 0.  1.
         -6    1    1    2    0  502  0.73849275218E+01  0.52827818714E+02  0.13754815549E+04  0.13872198180E+04  0.17200000000E+03 0.  1.
</event>
<event>
 4    1  0.5743594E+000  0.2204707E+03  0.7818608E-02  0.1133533E+00
         21   -1    0    0  503  502  0.00000000000E+00  0.00000000000E+00  0.18019637044E+04  0.18019637044E+04  0.00000000000E+00 0.  1.
         21   -1    0    0  501  503 -0.00000000000E+00 -0.00000000000E+00 -0.35612332055E+02  0.35612332055E+02  0.00000000000E+00 0.  1.
          6    1    1    2  501    0 -0.12116050348E+03 -0.65904882067E+02  0.13356709003E+04  0.13537444645E+04  0.17200000000E+03 0.  1.
         -6    1    1    2    0  502  0.12116050348E+03  0.65904882067E+02  0.43068047207E+03  0.48383157205E+03  0.17200000000E+03 0.  1.
</event>
<event>
 4    1  0.5743594E+000  0.2019891E+03  0.7818608E-02  0.1148072E+00
         21   -1    0    0  501  502  0.00000000000E+00  0.00000000000E+00  0.25533827304E+02  0.25533827304E+02  0.00000000000E+00 0. -1.
         21   -1    0    0  502  503 -0.00000000000E+00 -0.00000000000E+00 -0.27191948263E+04  0.27191948263E+04  0.00000000000E+00 0.  1.
          6    1    1    2  501    0  0.85232460073E+02  0.62857127892E+02 -0.46554609888E+03  0.50747685756E+03  0.17200000000E+03 0. -1.
         -6    1    1    2    0  503 -0.85232460073E+02 -0.62857127892E+02 -0.22281149001E+04  0.22372517961E+04  0.17200000000E+03 0.  1.
</event>
<event>
 4    1  0.5743594E+000  0.1863615E+03  0.7818608E-02  0.1161785E+00
         21   -1    0    0  503  502  0.00000000000E+00  0.00000000000E+00  0.18053021217E+03  0.18053021217E+03  0.00000000000E+00 0. -1.
         21   -1    0    0  501  503 -0.00000000000E+00 -0.00000000000E+00 -0.19302644853E+03  0.19302644853E+03  0.00000000000E+00 0. -1.
          6    1    1    2  501    0 -0.63749491674E+02 -0.32903029852E+02  0.45513798601E+01  0.18641706499E+03  0.17200000000E+03 0. -1.
         -6    1    1    2    0  502  0.63749491674E+02  0.32903029852E+02 -0.17047616224E+02  0.18713959571E+03  0.17200000000E+03 0. -1.
</event>
<event>
 4    1  0.5743594E+000  0.1950685E+03  0.7818608E-02  0.1153968E+00
         21   -1    0    0  501  502  0.00000000000E+00  0.00000000000E+00  0.21713216812E+03  0.21713216812E+03  0.00000000000E+00 0. -1.
         21   -1    0    0  502  503 -0.00000000000E+00 -0.00000000000E+00 -0.20839158624E+03  0.20839158624E+03  0.00000000000E+00 0. -1.
          6    1    1    2  501    0  0.76737365146E+02  0.50784886864E+02  0.89222083897E+02  0.21450479761E+03  0.17200000000E+03 0. -1.
         -6    1    1    2    0  503 -0.76737365146E+02 -0.50784886864E+02 -0.80481502017E+02  0.21101895676E+03  0.17200000000E+03 0. -1.
</event>
<event>
 4    1  0.5743594E+000  0.2425606E+03  0.7818608E-02  0.1118099E+00
         21   -1    0    0  501  502  0.00000000000E+00  0.00000000000E+00  0.44171427594E+02  0.44171427594E+02  0.00000000000E+00 0.  1.
         21   -1    0    0  502  503 -0.00000000000E+00 -0.00000000000E+00 -0.13532021312E+04  0.13532021312E+04  0.00000000000E+00 0.  1.
          6    1    1    2  501    0 -0.12583696818E+03 -0.11583042632E+03 -0.56702587543E+03  0.61672844399E+03  0.17200000000E+03 0. -1.
         -6    1    1    2    0  503  0.12583696818E+03  0.11583042632E+03 -0.74200482815E+03  0.78064511477E+03  0.17200000000E+03 0. -1.
</event>
<event>
 4    1  0.5743594E+000  0.3828329E+03  0.7818608E-02  0.1049892E+00
         21   -1    0    0  503  502  0.00000000000E+00  0.00000000000E+00  0.29223794391E+03  0.29223794391E+03  0.00000000000E+00 0.  1.
         21   -1    0    0  501  503 -0.00000000000E+00 -0.00000000000E+00 -0.50940773671E+03  0.50940773671E+03  0.00000000000E+00 0. -1.
          6    1    1    2  501    0  0.28744064014E+03 -0.18535077038E+03 -0.15848457730E+03  0.41434091148E+03  0.17200000000E+03 0.  1.
         -6    1    1    2    0  502 -0.28744064014E+03  0.18535077038E+03 -0.58685215512E+02  0.38730476914E+03  0.17200000000E+03 0. -1.
</event>
<event>
 4    1  0.5743594E+000  0.2093480E+03  0.7818608E-02  0.1142083E+00
         21   -1    0    0  503  502  0.00000000000E+00  0.00000000000E+00  0.65016430402E+02  0.65016430402E+02  0.00000000000E+00 0. -1.
         21   -1    0    0  501  503 -0.00000000000E+00 -0.00000000000E+00 -0.68889163242E+03  0.68889163242E+03  0.00000000000E+00 0. -1.
          6    1    1    2  501    0 -0.87627287676E+02 -0.81018884501E+02 -0.36720142417E+03  0.42268603846E+03  0.17200000000E+03 0. -1.
         -6    1    1    2    0  502  0.87627287676E+02  0.81018884501E+02 -0.25667377784E+03  0.33122202436E+03  0.17200000000E+03 0. -1.
</event>
<event>
 4    1  0.5743594E+000  0.1813696E+03  0.7818608E-02  0.1166484E+00
         21   -1    0    0  503  502  0.00000000000E+00  0.00000000000E+00  0.63045819318E+03  0.63045819318E+03  0.00000000000E+00 0. -1.
         21   -1    0    0  501  503 -0.00000000000E+00 -0.00000000000E+00 -0.56381712528E+02  0.56381712528E+02  0.00000000000E+00 0. -1.
          6    1    1    2  501    0  0.56762293725E+02 -0.94317768232E+01  0.19324629112E+03  0.26502649950E+03  0.17200000000E+03 0. -1.
         -6    1    1    2    0  502 -0.56762293725E+02  0.94317768232E+01  0.38083018953E+03  0.42181340621E+03  0.17200000000E+03 0. -1.
</event>
<event>
 4    1  0.5743594E+000  0.1755062E+03  0.7818608E-02  0.1172224E+00
         21   -1    0    0  503  502  0.00000000000E+00  0.00000000000E+00  0.23824501077E+03  0.23824501077E+03  0.00000000000E+00 0. -1.
         21   -1    0    0  501  503 -0.00000000000E+00 -0.00000000000E+00 -0.13073915711E+03  0.13073915711E+03  0.00000000000E+00 0. -1.
          6    1    1    2  501    0 -0.63271950020E+01  0.34327523532E+02  0.73184676978E+02  0.19015364633E+03  0.17200000000E+03 0.  1.
         -6    1    1    2    0  502  0.63271950020E+01 -0.34327523532E+02  0.34321176689E+02  0.17883052155E+03  0.17200000000E+03 0.  1.
</event>
<event>
 4    1  0.5743594E+000  0.2112292E+03  0.7818608E-02  0.1140596E+00
         21   -1    0    0  501  502  0.00000000000E+00  0.00000000000E+00  0.11795595180E+03  0.11795595180E+03  0.00000000000E+00 0. -1.
         21   -1    0    0  502  503 -0.00000000000E+00 -0.00000000000E+00 -0.41961528451E+03  0.41961528451E+03  0.00000000000E+00 0. -1.
          6    1    1    2  501    0 -0.12174857303E+03 -0.14527722766E+02 -0.66446280215E+02  0.22143368741E+03  0.17200000000E+03 0. -1.
         -6    1    1    2    0  503  0.12174857303E+03  0.14527722766E+02 -0.23521305249E+03  0.31613754890E+03  0.17200000000E+03 0. -1.
</event>
<event>
 4    1  0.5743594E+000  0.1844680E+03  0.7818608E-02  0.1163548E+00
         21   -1    0    0  503  502  0.00000000000E+00  0.00000000000E+00  0.23365289009E+03  0.23365289009E+03  0.00000000000E+00 0.  1.
         21   -1    0    0  501  503 -0.00000000000E+00 -0.00000000000E+00 -0.16033556000E+03  0.16033556000E+03  0.00000000000E+00 0. -1.
          6    1    1    2  501    0  0.64340870919E+02  0.17455465856E+02  0.96304493159E+02  0.20809372014E+03  0.17200000000E+03 0. -1.
         -6    1    1    2    0  502 -0.64340870919E+02 -0.17455465856E+02 -0.22987163073E+02  0.18589472995E+03  0.17200000000E+03 0. -1.
</event>
<event>
 4    1  0.5743594E+000  0.1752284E+03  0.7818608E-02  0.1172503E+00
         21   -1    0    0  503  502  0.00000000000E+00  0.00000000000E+00  0.34580244319E+03  0.34580244319E+03  0.00000000000E+00 0. -1.
         21   -1    0    0  501  503 -0.00000000000E+00 -0.00000000000E+00 -0.91920596545E+02  0.91920596545E+02  0.00000000000E+00 0. -1.
          6    1    1    2  501    0 -0.89906927003E+01  0.32251603514E+02  0.86573056702E+02  0.19544792818E+03  0.17200000000E+03 0. -1.
         -6    1    1    2    0  502  0.89906927003E+01 -0.32251603514E+02  0.16730878994E+03  0.24227511155E+03  0.17200000000E+03 0. -1.
</event>
<event>
 4    1  0.5743594E+000  0.2204158E+03  0.7818608E-02  0.1133573E+00
         21   -1    0    0  501  502  0.00000000000E+00  0.00000000000E+00  0.12426585755E+04  0.12426585755E+04  0.00000000000E+00 0. -1.
         21   -1    0    0  502  503 -0.00000000000E+00 -0.00000000000E+00 -0.57944190262E+02  0.57944190262E+02  0.00000000000E+00 0. -1.
          6    1    1    2  501    0 -0.48492101444E+02 -0.12902580867E+03  0.96324541360E+03  0.98814213048E+03  0.17200000000E+03 0. -1.
         -6    1    1    2    0  503  0.48492101444E+02  0.12902580867E+03  0.22146897165E+03  0.31246063529E+03  0.17200000000E+03 0. -1.
</event>
<event>
 4    1  0.5743594E+000  0.2335680E+03  0.7818608E-02  0.1124153E+00
         21   -1    0    0  501  502  0.00000000000E+00  0.00000000000E+00  0.48486627825E+02  0.48486627825E+02  0.00000000000E+00 0.  1.
         21   -1    0    0  502  503 -0.00000000000E+00 -0.00000000000E+00 -0.15189680507E+04  0.15189680507E+04  0.00000000000E+00 0.  1.
          6    1    1    2  501    0 -0.78961605252E+02 -0.13687615835E+03 -0.33617301236E+03  0.40934864366E+03  0.17200000000E+03 0.  1.
         -6    1    1    2    0  503  0.78961605252E+02  0.13687615835E+03 -0.11343084105E+04  0.11581060349E+04  0.17200000000E+03 0.  1.
</event>
<event>
 4    1  0.5743594E+000  0.1741360E+03  0.7818608E-02  0.1173602E+00
         21   -1    0    0  501  502  0.00000000000E+00  0.00000000000E+00  0.14275972027E+03  0.14275972027E+03  0.00000000000E+00 0. -1.
         21   -1    0    0  502  503 -0.00000000000E+00 -0.00000000000E+00 -0.34607267818E+03  0.34607267818E+03  0.00000000000E+00 0. -1.
          6    1    1    2  501    0  0.27179644720E+02  0.78149466173E+00  0.50242283325E+02  0.18123915376E+03  0.17200000000E+03 0. -1.
         -6    1    1    2    0  503 -0.27179644720E+02 -0.78149466173E+00 -0.25355524124E+03  0.30759324469E+03  0.17200000000E+03 0. -1.
</event>
<event>
 4    1  0.5743594E+000  0.2987155E+03  0.7818608E-02  0.1085885E+00
         21   -1    0    0  503  502  0.00000000000E+00  0.00000000000E+00  0.73937489210E+02  0.73937489210E+02  0.00000000000E+00 0. -1.
         21   -1    0    0  501  503 -0.00000000000E+00 -0.00000000000E+00 -0.12081778839E+04  0.12081778839E+04  0.00000000000E+00 0.  1.
          6    1    1    2  501    0 -0.14875202092E+03 -0.19370018183E+03 -0.54580982285E+03  0.62220518070E+03  0.17200000000E+03 0. -1.
         -6    1    1    2    0  502  0.14875202092E+03  0.19370018183E+03 -0.58843057182E+03  0.65991019239E+03  0.17200000000E+03 0. -1.
</event>
<event>
 4    1  0.5743594E+000  0.2089429E+03  0.7818608E-02  0.1142406E+00
         21   -1    0    0  501  502  0.00000000000E+00  0.00000000000E+00  0.33166238702E+03  0.33166238702E+03  0.00000000000E+00 0.  1.
         21   -1    0    0  502  503 -0.00000000000E+00 -0.00000000000E+00 -0.15944102645E+03  0.15944102645E+03  0.00000000000E+00 0. -1.
          6    1    1    2  501    0  0.61876739783E+02  0.10121472440E+03  0.18866200390E+03  0.28151465873E+03  0.17200000000E+03 0.  1.
         -6    1    1    2    0  503 -0.61876739783E+02 -0.10121472440E+03 -0.16440643336E+02  0.20958875474E+03  0.17200000000E+03 0. -1.
</event>
<event>
 4    1  0.5743594E+000  0.2847475E+03  0.7818608E-02  0.1093124E+00
         21   -1    0    0  503  502  0.00000000000E+00  0.00000000000E+00  0.33699308802E+03  0.33699308802E+03  0.00000000000E+00 0. -1.
         21   -1    0    0  501  503 -0.00000000000E+00 -0.00000000000E+00 -0.30921387502E+03  0.30921387502E+03  0.00000000000E+00 0.  1.
          6    1    1    2  501    0 -0.22628483329E+03  0.17097596599E+02 -0.13830958092E+03  0.31656072682E+03  0.17200000000E+03 0.  1.
         -6    1    1    2    0  502  0.22628483329E+03 -0.17097596599E+02  0.16608879393E+03  0.32964623622E+03  0.17200000000E+03 0. -1.
</event>
<event>
 4    1  0.5743594E+000  0.2952348E+03  0.7818608E-02  0.1087647E+00
         21   -1    0    0  501  502  0.00000000000E+00  0.00000000000E+00  0.97332833389E+03  0.97332833389E+03  0.00000000000E+00 0. -1.
         21   -1    0    0  502  503 -0.00000000000E+00 -0.00000000000E+00 -0.17888495336E+03  0.17888495336E+03  0.00000000000E+00 0.  1.
          6    1    1    2  501    0 -0.20537654705E+03  0.12409709788E+03  0.80434084085E+03  0.85681258396E+03  0.17200000000E+03 0. -1.
         -6    1    1    2    0  503  0.20537654705E+03 -0.12409709788E+03 -0.98974603182E+01  0.29540070329E+03  0.17200000000E+03 0.  1.
</event>
<event>
 4    1  0.5743594E+000  0.1874011E+03  0.7818608E-02  0.1160826E+00
         21   -1    0    0  503  502  0.00000000000E+00  0.00000000000E+00  0.58113160308E+02  0.58113160308E+02  0.00000000000E+00 0. -1.
         21   -1    0    0  501  503 -0.00000000000E+00 -0.00000000000E+00 -0.11059570814E+04  0.11059570814E+04  0.00000000000E+00 0. -1.
          6    1    1    2  501    0 -0.39973499979E+02  0.62747979770E+02 -0.91591021005E+03  0.93488539541E+03  0.17200000000E+03 0. -1.
         -6    1    1    2    0  502  0.39973499979E+02 -0.62747979770E+02 -0.13193371104E+03  0.22918484630E+03  0.17200000000E+03 0. -1.
</event>
<event>
 4    1  0.5743594E+000  0.1730659E+03  0.7818608E-02  0.1174688E+00
         21   -1    0    0  503  502  0.00000000000E+00  0.00000000000E+00  0.20924592271E+03  0.20924592271E+03  0.00000000000E+00 0.  1.
         21   -1    0    0  501  503 -0.00000000000E+00 -0.00000000000E+00 -0.19197954785E+03  0.19197954785E+03  0.00000000000E+00 0.  1.
          6    1    1    2  501    0 -0.17321874213E+02  0.82325532547E+01 -0.92550188695E+02  0.19625840030E+03  0.17200000000E+03 0.  1.
         -6    1    1    2    0  502  0.17321874213E+02 -0.82325532547E+01  0.10981656356E+03  0.20496707026E+03  0.17200000000E+03 0.  1.
</event>
<event>
 4    1  0.5743594E+000  0.1745105E+03  0.7818608E-02  0.1173224E+00
         21   -1    0    0  503  502  0.00000000000E+00  0.00000000000E+00  0.94850362521E+02  0.94850362521E+02  0.00000000000E+00 0.  1.
         21   -1    0    0  501  503 -0.00000000000E+00 -0.00000000000E+00 -0.33166941060E+03  0.33166941060E+03  0.00000000000E+00 0.  1.
          6    1    1    2  501    0  0.26343533545E+02  0.13263761117E+02 -0.15652767443E+03  0.23442444834E+03  0.17200000000E+03 0. -1.
         -6    1    1    2    0  502 -0.26343533545E+02 -0.13263761117E+02 -0.80291373650E+02  0.19209532478E+03  0.17200000000E+03 0. -1.
</event>
<event>
 4    1  0.5743594E+000  0.2209930E+03  0.7818608E-02  0.1133145E+00
         21   -1    0    0  501  502  0.00000000000E+00  0.00000000000E+00  0.12191356127E+03  0.12191356127E+03  0.00000000000E+00 0.  1.
         21   -1    0    0  502  503 -0.00000000000E+00 -0.00000000000E+00 -0.40446748319E+03  0.40446748319E+03  0.00000000000E+00 0.  1.
          6    1    1    2  501    0  0.56769711488E+02  0.12661401583E+03 -0.11552276400E+03  0.24936603247E+03  0.17200000000E+03 0.  1.
         -6    1    1    2    0  503 -0.56769711488E+02 -0.12661401583E+03 -0.16703115792E+03  0.27701501198E+03  0.17200000000E+03 0.  1.
</event>
<event>
 4    1  0.5743594E+000  0.2220180E+03  0.7818608E-02  0.1132387E+00
         21   -1    0    0  501  502  0.00000000000E+00  0.00000000000E+00  0.63049846933E+02  0.63049846933E+02  0.00000000000E+00 0.  1.
         21   -1    0    0  502  503 -0.00000000000E+00 -0.00000000000E+00 -0.85343761073E+03  0.85343761073E+03  0.00000000000E+00 0.  1.
          6    1    1    2  501    0  0.13680651495E+03 -0.31495321824E+02 -0.26242385090E+03  0.34374155314E+03  0.17200000000E+03 0.  1.
         -6    1    1    2    0  503 -0.13680651495E+03  0.31495321824E+02 -0.52796391290E+03  0.57274590453E+03  0.17200000000E+03 0.  1.
</event>
<event>
 4    1  0.5743594E+000  0.2155200E+03  0.7818608E-02  0.1137268E+00
         21   -1    0    0  501  502  0.00000000000E+00  0.00000000000E+00  0.24199425239E+03  0.24199425239E+03  0.00000000000E+00 0.  1.
         21   -1    0    0  502  503 -0.00000000000E+00 -0.00000000000E+00 -0.22410716806E+03  0.22410716806E+03  0.00000000000E+00 0.  1.
          6    1    1    2  501    0  0.11499679237E+03 -0.60337459808E+02 -0.79347201713E+02  0.22966246914E+03  0.17200000000E+03 0.  1.
         -6    1    1    2    0  503 -0.11499679237E+03  0.60337459808E+02  0.97234286044E+02  0.23643895131E+03  0.17200000000E+03 0.  1.
</event>
<event>
 4    1  0.5743594E+000  0.1907989E+03  0.7818608E-02  0.1157743E+00
         21   -1    0    0  503  502  0.00000000000E+00  0.00000000000E+00  0.27869971404E+04  0.27869971404E+04  0.00000000000E+00 0. -1.
         21   -1    0    0  501  503 -0.00000000000E+00 -0.00000000000E+00 -0.13062307254E+02  0.13062307254E+02  0.00000000000E+00 0. -1.
          6    1    1    2  501    0  0.51628166767E+02 -0.64457246229E+02  0.13916587715E+04  0.14046773084E+04  0.17200000000E+03 0. -1.
         -6    1    1    2    0  502 -0.51628166767E+02  0.64457246229E+02  0.13822760616E+04  0.13953821393E+04  0.17200000000E+03 0. -1.
</event>
<event>
 4    1  0.5743594E+000  0.2302955E+03  0.7818608E-02  0.1126432E+00
         21   -1    0    0  503  502  0.00000000000E+00  0.00000000000E+00  0.12871238207E+04  0.12871238207E+04  0.00000000000E+00 0. -1.
         21   -1    0    0  501  503 -0.00000000000E+00 -0.00000000000E+00 -0.41206911987E+02  0.41206911987E+02  0.00000000000E+00 0. -1.
          6    1    1    2  501    0 -0.13466627692E+03 -0.72917715575E+02  0.61849202017E+03  0.65997604381E+03  0.17200000000E+03 0. -1.
         -6    1    1    2    0  502  0.13466627692E+03  0.72917715575E+02  0.62742488854E+03  0.66835468888E+03  0.17200000000E+03 0. -1.
</event>
<event>
 4    1  0.5743594E+000  0.2954591E+03  0.7818608E-02  0.1087533E+00
         21   -1    0    0  503  502  0.00000000000E+00  0.00000000000E+00  0.49735806441E+03  0.49735806441E+03  0.00000000000E+00 0. -1.
         21   -1    0    0  501  503 -0.00000000000E+00 -0.00000000000E+00 -0.21396643644E+03  0.21396643644E+03  0.00000000000E+00 0. -1.
          6    1    1    2  501    0 -0.22142315617E+03  0.93187195626E+02 -0.90674352974E+01  0.29559818318E+03  0.17200000000E+03 0. -1.
         -6    1    1    2    0  502  0.22142315617E+03 -0.93187195626E+02  0.29245906326E+03  0.41572631767E+03  0.17200000000E+03 0. -1.
</event>
<event>
 4    1  0.5743594E+000  0.1767281E+03  0.7818608E-02  0.1171008E+00
         21   -1    0    0  501  502  0.00000000000E+00  0.00000000000E+00  0.28829620249E+03  0.28829620249E+03  0.00000000000E+00 0.  1.
         21   -1    0    0  502  503 -0.00000000000E+00 -0.00000000000E+00 -0.15593977556E+03  0.15593977556E+03  0.00000000000E+00 0.  1.
          6    1    1    2  501    0 -0.18644328264E+02  0.36072197971E+02  0.18890141022E+03  0.25868234812E+03  0.17200000000E+03 0.  1.
         -6    1    1    2    0  503  0.18644328264E+02 -0.36072197971E+02 -0.56544983297E+02  0.18555362993E+03  0.17200000000E+03 0.  1.
</event>
<event>
 4    1  0.5743594E+000  0.2667747E+03  0.7818608E-02  0.1103140E+00
         21   -1    0    0  501  502  0.00000000000E+00  0.00000000000E+00  0.13934121541E+04  0.13934121541E+04  0.00000000000E+00 0. -1.
         21   -1    0    0  502  503 -0.00000000000E+00 -0.00000000000E+00 -0.10242837852E+03  0.10242837852E+03  0.00000000000E+00 0.  1.
          6    1    1    2  501    0 -0.13763592281E+03  0.15046961187E+03  0.11750687213E+04  0.12049710582E+04  0.17200000000E+03 0. -1.
         -6    1    1    2    0  503  0.13763592281E+03 -0.15046961187E+03  0.11591505431E+03  0.29086947444E+03  0.17200000000E+03 0.  1.
</event>
<event>
 4    1  0.5743594E+000  0.2070665E+03  0.7818608E-02  0.1143910E+00
         21   -1    0    0  501  502  0.00000000000E+00  0.00000000000E+00  0.19314690946E+03  0.19314690946E+03  0.00000000000E+00 0. -1.
         21   -1    0    0  502  503 -0.00000000000E+00 -0.00000000000E+00 -0.26368082907E+03  0.26368082907E+03  0.00000000000E+00 0. -1.
          6    1    1    2  501    0 -0.11150924263E+03  0.29295169710E+02  0.55558559244E+02  0.21439046543E+03  0.17200000000E+03 0. -1.
         -6    1    1    2    0  503  0.11150924263E+03 -0.29295169710E+02 -0.12609247885E+03  0.24243727309E+03  0.17200000000E+03 0. -1.
</event>
<event>
 4    1  0.5743594E+000  0.1743653E+03  0.7818608E-02  0.1173370E+00
         21   -1    0    0  503  502  0.00000000000E+00  0.00000000000E+00  0.14199810089E+04  0.14199810089E+04  0.00000000000E+00 0.  1.
         21   -1    0    0  501  503 -0.00000000000E+00 -0.00000000000E+00 -0.42617787096E+02  0.42617787096E+02  0.00000000000E+00 0.  1.
          6    1    1    2  501    0 -0.27408076723E+02  0.82501719707E+01  0.17281572095E+03  0.24549652017E+03  0.17200000000E+03 0.  1.
         -6    1    1    2    0  502  0.27408076723E+02 -0.82501719707E+01  0.12045475008E+04  0.12171022758E+04  0.17200000000E+03 0.  1.
</event>
<event>
 4    1  0.5743594E+000  0.2222636E+03  0.7818608E-02  0.1132207E+00
         21   -1    0    0  501  502  0.00000000000E+00  0.00000000000E+00  0.22579710732E+03  0.22579710732E+03  0.00000000000E+00 0. -1.
         21   -1    0    0  502  503 -0.00000000000E+00 -0.00000000000E+00 -0.22397001325E+03  0.22397001325E+03  0.00000000000E+00 0. -1.
          6    1    1    2  501    0 -0.14077005927E+03  0.94812903694E+00  0.35128922244E+02  0.22502255379E+03  0.17200000000E+03 0. -1.
         -6    1    1    2    0  503  0.14077005927E+03 -0.94812903694E+00 -0.33301828170E+02  0.22474456678E+03  0.17200000000E+03 0. -1.
</event>
<event>
 4    1  0.5743594E+000  0.1870219E+03  0.7818608E-02  0.1161175E+00
         21   -1    0    0  501  502  0.00000000000E+00  0.00000000000E+00  0.18274398662E+04  0.18274398662E+04  0.00000000000E+00 0.  1.
         21   -1    0    0  502  503 -0.00000000000E+00 -0.00000000000E+00 -0.24588435843E+02  0.24588435843E+02  0.00000000000E+00 0.  1.
          6    1    1    2  501    0  0.53837428255E+02 -0.49947223636E+02  0.13373270575E+04  0.13503410134E+04  0.17200000000E+03 0.  1.
         -6    1    1    2    0  503 -0.53837428255E+02  0.49947223636E+02  0.46552437282E+03  0.50168728858E+03  0.17200000000E+03 0.  1.
</event>
<event>
 4    1  0.5743594E+000  0.1753321E+03  0.7818608E-02  0.1172399E+00
         21   -1    0    0  503  502  0.00000000000E+00  0.00000000000E+00  0.26623122565E+03  0.26623122565E+03  0.00000000000E+00 0. -1.
         21   -1    0    0  501  503 -0.00000000000E+00 -0.00000000000E+00 -0.11731861725E+03  0.11731861725E+03  0.00000000000E+00 0. -1.
          6    1    1    2  501    0  0.26226692267E+02 -0.21668447643E+02  0.50374444914E+02  0.18242517839E+03  0.17200000000E+03 0.  1.
         -6    1    1    2    0  502 -0.26226692267E+02  0.21668447643E+02  0.98538163488E+02  0.20112466451E+03  0.17200000000E+03 0.  1.
</event>
<event>
 4    1  0.5743594E+000  0.1874781E+03  0.7818608E-02  0.1160756E+00
         21   -1    0    0  503  502  0.00000000000E+00  0.00000000000E+00  0.84310204465E+02  0.84310204465E+02  0.00000000000E+00 0.  1.
         21   -1    0    0  501  503 -0.00000000000E+00 -0.00000000000E+00 -0.84448374473E+03  0.84448374473E+03  0.00000000000E+00 0.  1.
          6    1    1    2  501    0 -0.32928880125E+02  0.66930629045E+02 -0.71053982648E+03  0.73485703730E+03  0.17200000000E+03 0.  1.
         -6    1    1    2    0  502  0.32928880125E+02 -0.66930629045E+02 -0.49633713778E+02  0.19393691189E+03  0.17200000000E+03 0.  1.
</event>
<event>
 4    1  0.5743594E+000  0.2318576E+03  0.7818608E-02  0.1125339E+00
         21   -1    0    0  503  502  0.00000000000E+00  0.00000000000E+00  0.45446777383E+03  0.45446777383E+03  0.00000000000E+00 0. -1.
         21   -1    0    0  501  503 -0.00000000000E+00 -0.00000000000E+00 -0.12982747202E+03  0.12982747202E+03  0.00000000000E+00 0. -1.
          6    1    1    2  501    0 -0.42624859527E+02  0.14952284772E+03  0.24941994633E+03  0.34054114328E+03  0.17200000000E+03 0. -1.
         -6    1    1    2    0  502  0.42624859527E+02 -0.14952284772E+03  0.75220355479E+02  0.24375410257E+03  0.17200000000E+03 0. -1.
</event>
<event>
 4    1  0.5743594E+000  0.1905494E+03  0.7818608E-02  0.1157967E+00
         21   -1    0    0  501  502  0.00000000000E+00  0.00000000000E+00  0.70000465275E+02  0.70000465275E+02  0.00000000000E+00 0. -1.
         21   -1    0    0  502  503 -0.00000000000E+00 -0.00000000000E+00 -0.54797179631E+03  0.54797179631E+03  0.00000000000E+00 0. -1.
          6    1    1    2  501    0  0.72694324795E+02  0.37955434316E+02 -0.16756865234E+03  0.25374856275E+03  0.17200000000E+03 0. -1.
         -6    1    1    2    0  503 -0.72694324795E+02 -0.37955434316E+02 -0.31040267870E+03  0.36422369884E+03  0.17200000000E+03 0. -1.
</event>
<event>
 4    1  0.5743594E+000  0.2969736E+03  0.7818608E-02  0.1086763E+00
         21   -1    0    0  501  502  0.00000000000E+00  0.00000000000E+00  0.43833341675E+03  0.43833341675E+03  0.00000000000E+00 0.  1.
         21   -1    0    0  502  503 -0.00000000000E+00 -0.00000000000E+00 -0.20769189760E+03  0.20769189760E+03  0.00000000000E+00 0.  1.
          6    1    1    2  501    0  0.23656022658E+03 -0.51464491790E+02  0.58219473425E+02  0.30262657154E+03  0.17200000000E+03 0.  1.
         -6    1    1    2    0  503 -0.23656022658E+03  0.51464491790E+02  0.17242204572E+03  0.34339874281E+03  0.17200000000E+03 0.  1.
</event>
<event>
 4    1  0.5743594E+000  0.1993672E+03  0.7818608E-02  0.1150274E+00
         21   -1    0    0  501  502  0.00000000000E+00  0.00000000000E+00  0.51475616212E+02  0.51475616212E+02  0.00000000000E+00 0.  1.
         21   -1    0    0  502  503 -0.00000000000E+00 -0.00000000000E+00 -0.10493228983E+04  0.10493228983E+04  0.00000000000E+00 0. -1.
          6    1    1    2  501    0  0.90900938168E+02  0.43592536566E+02 -0.78179740427E+03  0.80681749556E+03  0.17200000000E+03 0. -1.
         -6    1    1    2    0  503 -0.90900938168E+02 -0.43592536566E+02 -0.21604987782E+03  0.29398101896E+03  0.17200000000E+03 0.  1.
</event>
<event>
 4    1  0.5743594E+000  0.2202429E+03  0.7818608E-02  0.1133702E+00
         21   -1    0    0  501  502  0.00000000000E+00  0.00000000000E+00  0.15756990969E+04  0.15756990969E+04  0.00000000000E+00 0.  1.
         21   -1    0    0  502  503 -0.00000000000E+00 -0.00000000000E+00 -0.31378822682E+02  0.31378822682E+02  0.00000000000E+00 0.  1.
          6    1    1    2  501    0  0.46852353457E+02 -0.12933598492E+03  0.88275600799E+03  0.90981597571E+03  0.17200000000E+03 0.  1.
         -6    1    1    2    0  503 -0.46852353457E+02  0.12933598492E+03  0.66156426624E+03  0.69726194388E+03  0.17200000000E+03 0.  1.
</event>
<event>
 4    1  0.5743594E+000  0.1853327E+03  0.7818608E-02  0.1162740E+00
         21   -1    0    0  501  502  0.00000000000E+00  0.00000000000E+00  0.13436068782E+04  0.13436068782E+04  0.00000000000E+00 0.  1.
         21   -1    0    0  502  503 -0.00000000000E+00 -0.00000000000E+00 -0.27725987636E+02  0.27725987636E+02  0.00000000000E+00 0.  1.
          6    1    1    2  501    0 -0.14483133734E+02  0.67486690673E+02  0.84940016278E+03  0.86938417924E+03  0.17200000000E+03 0.  1.
         -6    1    1    2    0  503  0.14483133734E+02 -0.67486690673E+02  0.46648072777E+03  0.50194868658E+03  0.17200000000E+03 0.  1.
</event>
<event>
 4    1  0.5743594E+000  0.2546553E+03  0.7818608E-02  0.1110398E+00
         21   -1    0    0  503  502  0.00000000000E+00  0.00000000000E+00  0.19762773417E+04  0.19762773417E+04  0.00000000000E+00 0.  1.
         21   -1    0    0  501  503 -0.00000000000E+00 -0.00000000000E+00 -0.62583945288E+02  0.62583945288E+02  0.00000000000E+00 0. -1.
          6    1    1    2  501    0  0.16243844557E+03  0.94228701199E+02  0.25374811540E+03  0.35949604003E+03  0.17200000000E+03 0. -1.
         -6    1    1    2    0  502 -0.16243844557E+03 -0.94228701199E+02  0.16599452810E+04  0.16793652469E+04  0.17200000000E+03 0.  1.
</event>
<event>
 4    1  0.5743594E+000  0.1914446E+03  0.7818608E-02  0.1157165E+00
         21   -1    0    0  503  502  0.00000000000E+00  0.00000000000E+00  0.50133675160E+02  0.50133675160E+02  0.00000000000E+00 0.  1.
         21   -1    0    0  501  503 -0.00000000000E+00 -0.00000000000E+00 -0.84344119797E+03  0.84344119797E+03  0.00000000000E+00 0.  1.
          6    1    1    2  501    0 -0.51198385148E+02 -0.66676395023E+02 -0.55973692657E+03  0.59157116501E+03  0.17200000000E+03 0.  1.
         -6    1    1    2    0  502  0.51198385148E+02  0.66676395023E+02 -0.23357059623E+03  0.30200370812E+03  0.17200000000E+03 0.  1.
</event>
<event>
 4    1  0.5743594E+000  0.1824513E+03  0.7818608E-02  0.1165452E+00
         21   -1    0    0  501  502  0.00000000000E+00  0.00000000000E+00  0.11072176385E+03  0.11072176385E+03  0.00000000000E+00 0.  1.
         21   -1    0    0  502  503 -0.00000000000E+00 -0.00000000000E+00 -0.33901033614E+03  0.33901033614E+03  0.00000000000E+00 0.  1.
          6    1    1    2  501    0 -0.58897862449E+01 -0.60578737813E+02 -0.38502824206E+02  0.18646967724E+03  0.17200000000E+03 0.  1.
         -6    1    1    2    0  503  0.58897862449E+01  0.60578737813E+02 -0.18978574809E+03  0.26326242275E+03  0.17200000000E+03 0.  1.
</event>
<event>
 4    1  0.5743594E+000  0.1920833E+03  0.7818608E-02  0.1156596E+00
         21   -1    0    0  501  502  0.00000000000E+00  0.00000000000E+00  0.10304424451E+04  0.10304424451E+04  0.00000000000E+00 0.  1.
         21   -1    0    0  502  503 -0.00000000000E+00 -0.00000000000E+00 -0.19722566219E+03  0.19722566219E+03  0.00000000000E+00 0.  1.
          6    1    1    2  501    0  0.43076530603E+02  0.73867425152E+02 -0.13871700277E+03  0.23693541492E+03  0.17200000000E+03 0.  1.
         -6    1    1    2    0  503 -0.43076530603E+02 -0.73867425152E+02  0.97193378569E+03  0.99073269238E+03  0.17200000000E+03 0.  1.
</event>
<event>
 4    1  0.5743594E+000  0.1800592E+03  0.7818608E-02  0.1167746E+00
         21   -1    0    0  503  502  0.00000000000E+00  0.00000000000E+00  0.10257125462E+03  0.10257125462E+03  0.00000000000E+00 0. -1.
         21   -1    0    0  501  503 -0.00000000000E+00 -0.00000000000E+00 -0.33537773309E+03  0.33537773309E+03  0.00000000000E+00 0. -1.
          6    1    1    2  501    0  0.43344790153E+02 -0.30960268538E+02 -0.16892208484E+03  0.24689264835E+03  0.17200000000E+03 0.  1.
         -6    1    1    2    0  502 -0.43344790153E+02  0.30960268538E+02 -0.63884393625E+02  0.19105633936E+03  0.17200000000E+03 0.  1.
</event>
<event>
 4    1  0.5743594E+000  0.1764584E+03  0.7818608E-02  0.1171275E+00
         21   -1    0    0  503  502  0.00000000000E+00  0.00000000000E+00  0.82188148631E+02  0.82188148631E+02  0.00000000000E+00 0.  1.
         21   -1    0    0  501  503 -0.00000000000E+00 -0.00000000000E+00 -0.54429861667E+03  0.54429861667E+03  0.00000000000E+00 0.  1.
          6    1    1    2  501    0  0.23806187623E+02  0.31414082695E+02 -0.40375243292E+03  0.44062864892E+03  0.17200000000E+03 0.  1.
         -6    1    1    2    0  502 -0.23806187623E+02 -0.31414082695E+02 -0.58358035116E+02  0.18585811638E+03  0.17200000000E+03 0.  1.
</event>
<event>
 4    1  0.5743594E+000  0.1844437E+03  0.7818608E-02  0.1163570E+00
         21   -1    0    0  501  502  0.00000000000E+00  0.00000000000E+00  0.50953424156E+02  0.50953424156E+02  0.00000000000E+00 0. -1.
         21   -1    0    0  502  503 -0.00000000000E+00 -0.00000000000E+00 -0.67056211958E+03  0.67056211958E+03  0.00000000000E+00 0. -1.
          6    1    1    2  501    0 -0.64998429528E+02 -0.14514949178E+02 -0.28606457584E+03  0.34037100514E+03  0.17200000000E+03 0. -1.
         -6    1    1    2    0  503  0.64998429528E+02  0.14514949178E+02 -0.33354411959E+03  0.38114453860E+03  0.17200000000E+03 0. -1.
</event>
<event>
 4    1  0.5743594E+000  0.1975135E+03  0.7818608E-02  0.1151854E+00
         21   -1    0    0  503  502  0.00000000000E+00  0.00000000000E+00  0.52823717488E+02  0.52823717488E+02  0.00000000000E+00 0.  1.
         21   -1    0    0  501  503 -0.00000000000E+00 -0.00000000000E+00 -0.77302051207E+03  0.77302051207E+03  0.00000000000E+00 0.  1.
          6    1    1    2  501    0  0.97095802886E+02  0.45673312622E-01 -0.27286986369E+03  0.33685242991E+03  0.17200000000E+03 0.  1.
         -6    1    1    2    0  502 -0.97095802886E+02 -0.45673312622E-01 -0.44732693089E+03  0.48899179965E+03  0.17200000000E+03 0.  1.
</event>
<event>
 4    1  0.5743594E+000  0.2001165E+03  0.7818608E-02  0.1149641E+00
         21   -1    0    0  501  502  0.00000000000E+00  0.00000000000E+00  0.58474515950E+03  0.58474515950E+03  0.00000000000E+00 0. -1.
         21   -1    0    0  502  503 -0.00000000000E+00 -0.00000000000E+00 -0.97503606797E+02  0.97503606797E+02  0.00000000000E+00 0.  1.
          6    1    1    2  501    0 -0.98945343315E+02  0.25931557234E+02  0.42971640282E+03  0.47402828341E+03  0.17200000000E+03 0. -1.
         -6    1    1    2    0  503  0.98945343315E+02 -0.25931557234E+02  0.57525149889E+02  0.20822048289E+03  0.17200000000E+03 0.  1.
</event>
<event>
 4    1  0.5743594E+000  0.2190595E+03  0.7818608E-02  0.1134586E+00
         21   -1    0    0  503  502  0.00000000000E+00  0.00000000000E+00  0.16498435561E+04  0.16498435561E+04  0.00000000000E+00 0.  1.
         21   -1    0    0  501  503 -0.00000000000E+00 -0.00000000000E+00 -0.32699100401E+02  0.32699100401E+02  0.00000000000E+00 0.  1.
          6    1    1    2  501    0 -0.12210037023E+03 -0.59114779167E+02  0.52891964014E+03  0.57248846561E+03  0.17200000000E+03 0.  1.
         -6    1    1    2    0  502  0.12210037023E+03  0.59114779167E+02  0.10882248155E+04  0.11100541909E+04  0.17200000000E+03 0.  1.
</event>
<event>
 4    1  0.5743594E+000  0.1949963E+03  0.7818608E-02  0.1154031E+00
         21   -1    0    0  503  502  0.00000000000E+00  0.00000000000E+00  0.17704821816E+04  0.17704821816E+04  0.00000000000E+00 0.  1.
         21   -1    0    0  501  503 -0.00000000000E+00 -0.00000000000E+00 -0.21527204145E+02  0.21527204145E+02  0.00000000000E+00 0.  1.
          6    1    1    2  501    0 -0.12159382556E+02  0.91058897181E+02  0.83094729227E+03  0.85352034298E+03  0.17200000000E+03 0.  1.
         -6    1    1    2    0  502  0.12159382556E+02 -0.91058897181E+02  0.91800768516E+03  0.93848904274E+03  0.17200000000E+03 0.  1.
</event>
<event>
 4    1  0.5743594E+000  0.2759000E+03  0.7818608E-02  0.1097950E+00
         21   -1    0    0  501  502  0.00000000000E+00  0.00000000000E+00  0.18499373709E+03  0.18499373709E+03  0.00000000000E+00 0. -1.
         21   -1    0    0  502  503 -0.00000000000E+00 -0.00000000000E+00 -0.58143431482E+03  0.58143431482E+03  0.00000000000E+00 0. -1.
          6    1    1    2  501    0  0.19823328428E+03  0.85090337583E+02  0.89655563492E+01  0.27604561534E+03  0.17200000000E+03 0. -1.
         -6    1    1    2    0  503 -0.19823328428E+03 -0.85090337583E+02 -0.40540613407E+03  0.49038243657E+03  0.17200000000E+03 0. -1.
</event>
<event>
 4    1  0.5743594E+000  0.1737453E+03  0.7818608E-02  0.1173997E+00
         21   -1    0    0  503  502  0.00000000000E+00  0.00000000000E+00  0.63214855634E+03  0.63214855634E+03  0.00000000000E+00 0. -1.
         21   -1    0    0  501  503 -0.00000000000E+00 -0.00000000000E+00 -0.64084895395E+02  0.64084895395E+02  0.00000000000E+00 0. -1.
          6    1    1    2  501    0  0.12159787964E+02  0.21344436412E+02  0.10829784173E+03  0.20473365119E+03  0.17200000000E+03 0. -1.
         -6    1    1    2    0  502 -0.12159787964E+02 -0.21344436412E+02  0.45976581922E+03  0.49149980054E+03  0.17200000000E+03 0. -1.
</event>
<event>
 4    1  0.5743594E+000  0.1999143E+03  0.7818608E-02  0.1149811E+00
         21   -1    0    0  503  502  0.00000000000E+00  0.00000000000E+00  0.11152871045E+04  0.11152871045E+04  0.00000000000E+00 0. -1.
         21   -1    0    0  501  503 -0.00000000000E+00 -0.00000000000E+00 -0.43525545845E+02  0.43525545845E+02  0.00000000000E+00 0. -1.
          6    1    1    2  501    0  0.18096223408E+02 -0.10027082541E+03  0.29232135822E+03  0.35414331591E+03  0.17200000000E+03 0. -1.
         -6    1    1    2    0  502 -0.18096223408E+02  0.10027082541E+03  0.77944020043E+03  0.80466933443E+03  0.17200000000E+03 0. -1.
</event>
<event>
 4    1  0.5743594E+000  0.2561200E+03  0.7818608E-02  0.1109497E+00
         21   -1    0    0  503  502  0.00000000000E+00  0.00000000000E+00  0.25599846403E+03  0.25599846403E+03  0.00000000000E+00 0. -1.
         21   -1    0    0  501  503 -0.00000000000E+00 -0.00000000000E+00 -0.25668830956E+03  0.25668830956E+03  0.00000000000E+00 0. -1.
          6    1    1    2  501    0  0.47307372480E+02  0.18378097947E+03 -0.11039654279E+02  0.25635777709E+03  0.17200000000E+03 0. -1.
         -6    1    1    2    0  502 -0.47307372480E+02 -0.18378097947E+03  0.10349808745E+02  0.25632899650E+03  0.17200000000E+03 0. -1.
</event>
<event>
 4    1  0.5743594E+000  0.1895845E+03  0.7818608E-02  0.1158837E+00
         21   -1    0    0  503  502  0.00000000000E+00  0.00000000000E+00  0.86099744391E+03  0.86099744391E+03  0.00000000000E+00 0. -1.
         21   -1    0    0  501  503 -0.00000000000E+00 -0.00000000000E+00 -0.60384115743E+02  0.60384115743E+02  0.00000000000E+00 0. -1.
          6    1    1    2  501    0  0.73509589065E+02  0.30896952270E+02  0.14435286024E+03  0.23828560511E+03  0.17200000000E+03 0. -1.
         -6    1    1    2    0  502 -0.73509589065E+02 -0.30896952270E+02  0.65626046794E+03  0.68309595455E+03  0.17200000000E+03 0. -1.
</event>
<event>
 4    1  0.5743594E+000  0.1774414E+03  0.7818608E-02  0.1170302E+00
         21   -1    0    0  501  502  0.00000000000E+00  0.00000000000E+00  0.43888402619E+02  0.43888402619E+02  0.00000000000E+00 0. -1.
         21   -1    0    0  502  503 -0.00000000000E+00 -0.00000000000E+00 -0.78348014425E+03  0.78348014425E+03  0.00000000000E+00 0. -1.
          6    1    1    2  501    0 -0.41658988042E+02  0.12883967091E+02 -0.48993816113E+03  0.52108048286E+03  0.17200000000E+03 0.  1.
         -6    1    1    2    0  503  0.41658988042E+02 -0.12883967091E+02 -0.24965358050E+03  0.30628806400E+03  0.17200000000E+03 0.  1.
</event>
<event>
 4    1  0.5743594E+000  0.1822150E+03  0.7818608E-02  0.1165676E+00
         21   -1    0    0  503  502  0.00000000000E+00  0.00000000000E+00  0.15598419507E+03  0.15598419507E+03  0.00000000000E+00 0. -1.
         21   -1    0    0  501  503 -0.00000000000E+00 -0.00000000000E+00 -0.47496685256E+03  0.47496685256E+03  0.00000000000E+00 0. -1.
          6    1    1    2  501    0  0.38014270438E+02  0.46617988755E+02 -0.39384713896E+03  0.43395609283E+03  0.17200000000E+03 0. -1.
         -6    1    1    2    0  502 -0.38014270438E+02 -0.46617988755E+02  0.74864481466E+02  0.19699495480E+03  0.17200000000E+03 0. -1.
</event>
<event>
 4    1  0.5743594E+000  0.1920726E+03  0.7818608E-02  0.1156605E+00
         21   -1    0    0  501  502  0.00000000000E+00  0.00000000000E+00  0.41869668435E+02  0.41869668435E+02  0.00000000000E+00 0.  1.
         21   -1    0    0  502  503 -0.00000000000E+00 -0.00000000000E+00 -0.97221289575E+03  0.97221289575E+03  0.00000000000E+00 0.  1.
          6    1    1    2  501    0  0.82954603086E+02 -0.20649802358E+02 -0.62038286580E+03  0.64943574023E+03  0.17200000000E+03 0.  1.
         -6    1    1    2    0  503 -0.82954603086E+02  0.20649802358E+02 -0.30996036152E+03  0.36464682396E+03  0.17200000000E+03 0.  1.
</event>
<event>
 4    1  0.5743594E+000  0.1983663E+03  0.7818608E-02  0.1151125E+00
         21   -1    0    0  503  502  0.00000000000E+00  0.00000000000E+00  0.16726711136E+03  0.16726711136E+03  0.00000000000E+00 0.  1.
         21   -1    0    0  501  503 -0.00000000000E+00 -0.00000000000E+00 -0.29541001129E+03  0.29541001129E+03  0.00000000000E+00 0.  1.
          6    1    1    2  501    0  0.98550898309E+02  0.72750391228E+01  0.40327859879E+02  0.20242416366E+03  0.17200000000E+03 0.  1.
         -6    1    1    2    0  502 -0.98550898309E+02 -0.72750391228E+01 -0.16847075980E+03  0.26025295898E+03  0.17200000000E+03 0.  1.
</event>
<event>
 4    1  0.5743594E+000  0.1912965E+03  0.7818608E-02  0.1157297E+00
         21   -1    0    0  501  502  0.00000000000E+00  0.00000000000E+00  0.77325185491E+02  0.77325185491E+02  0.00000000000E+00 0. -1.
         21   -1    0    0  502  503 -0.00000000000E+00 -0.00000000000E+00 -0.65904155932E+03  0.65904155932E+03  0.00000000000E+00 0. -1.
          6    1    1    2  501    0  0.13262371928E+02  0.82670902259E+02 -0.48634495469E+03  0.52261437365E+03  0.17200000000E+03 0. -1.
         -6    1    1    2    0  503 -0.13262371928E+02 -0.82670902259E+02 -0.95371419138E+02  0.21375237116E+03  0.17200000000E+03 0. -1.
</event>
<event>
 4    1  0.5743594E+000  0.2794607E+03  0.7818608E-02  0.1095984E+00
         21   -1    0    0  503  502  0.00000000000E+00  0.00000000000E+00  0.12689131896E+04  0.12689131896E+04  0.00000000000E+00 0.  1.
         21   -1    0    0  501  503 -0.00000000000E+00 -0.00000000000E+00 -0.63001008942E+02  0.63001008942E+02  0.00000000000E+00 0. -1.
          6    1    1    2  501    0  0.19024983613E+03  0.11099216191E+03  0.50179770599E+03  0.57436852098E+03  0.17200000000E+03 0. -1.
         -6    1    1    2    0  502 -0.19024983613E+03 -0.11099216191E+03  0.70411447464E+03  0.75754567754E+03  0.17200000000E+03 0.  1.
</event>
<event>
 4    1  0.5743594E+000  0.2010775E+03  0.7818608E-02  0.1148833E+00
         21   -1    0    0  503  502  0.00000000000E+00  0.00000000000E+00  0.56134301484E+03  0.56134301484E+03  0.00000000000E+00 0.  1.
         21   -1    0    0  501  503 -0.00000000000E+00 -0.00000000000E+00 -0.72139284853E+02  0.72139284853E+02  0.00000000000E+00 0.  1.
          6    1    1    2  501    0  0.82572977841E+02 -0.63481266286E+02  0.23213684651E+03  0.30711509788E+03  0.17200000000E+03 0.  1.
         -6    1    1    2    0  502 -0.82572977841E+02  0.63481266286E+02  0.25706688348E+03  0.32636720181E+03  0.17200000000E+03 0.  1.
</event>
<event>
 4    1  0.5743594E+000  0.2073020E+03  0.7818608E-02  0.1143720E+00
         21   -1    0    0  503  502  0.00000000000E+00  0.00000000000E+00  0.67536384164E+03  0.67536384164E+03  0.00000000000E+00 0. -1.
         21   -1    0    0  501  503 -0.00000000000E+00 -0.00000000000E+00 -0.64451963821E+02  0.64451963821E+02  0.00000000000E+00 0.  1.
          6    1    1    2  501    0 -0.73359128247E+02  0.89490588575E+02  0.34720221584E+03  0.40438039743E+03  0.17200000000E+03 0.  1.
         -6    1    1    2    0  502  0.73359128247E+02 -0.89490588575E+02  0.26370966198E+03  0.33543540803E+03  0.17200000000E+03 0. -1.
</event>
<event>
 4    1  0.5743594E+000  0.2483919E+03  0.7818608E-02  0.1114325E+00
         21   -1    0    0  503  502  0.00000000000E+00  0.00000000000E+00  0.94789920447E+03  0.94789920447E+03  0.00000000000E+00 0. -1.
         21   -1    0    0  501  503 -0.00000000000E+00 -0.00000000000E+00 -0.74940071722E+02  0.74940071722E+02  0.00000000000E+00 0. -1.
          6    1    1    2  501    0  0.40679663334E+02  0.17452703413E+03  0.25106425576E+03  0.35317386819E+03  0.17200000000E+03 0. -1.
         -6    1    1    2    0  502 -0.40679663334E+02 -0.17452703413E+03  0.62189487700E+03  0.66966540801E+03  0.17200000000E+03 0. -1.
</event>
<event>
 4    1  0.5743594E+000  0.2114742E+03  0.7818608E-02  0.1140404E+00
         21   -1    0    0  501  502  0.00000000000E+00  0.00000000000E+00  0.69603194592E+03  0.69603194592E+03  0.00000000000E+00 0. -1.
         21   -1    0    0  502  503 -0.00000000000E+00 -0.00000000000E+00 -0.73668362991E+02  0.73668362991E+02  0.00000000000E+00 0. -1.
          6    1    1    2  501    0  0.62949056518E+00  0.12303227398E+03  0.44877478706E+03  0.49610497498E+03  0.17200000000E+03 0. -1.
         -6    1    1    2    0  503 -0.62949056518E+00 -0.12303227398E+03  0.17358879587E+03  0.27359533393E+03  0.17200000000E+03 0. -1.
</event>
<event>
 4    1  0.5743594E+000  0.2041634E+03  0.7818608E-02  0.1146273E+00
         21   -1    0    0  503  502  0.00000000000E+00  0.00000000000E+00  0.12728232964E+04  0.12728232964E+04  0.00000000000E+00 0. -1.
         21   -1    0    0  501  503 -0.00000000000E+00 -0.00000000000E+00 -0.54000440885E+02  0.54000440885E+02  0.00000000000E+00 0. -1.
          6    1    1    2  501    0  0.10447795949E+03 -0.34395524763E+02  0.19322611082E+03  0.28110323023E+03  0.17200000000E+03 0. -1.
         -6    1    1    2    0  502 -0.10447795949E+03  0.34395524763E+02  0.10255967447E+04  0.10457205071E+04  0.17200000000E+03 0. -1.
</event>
<event>
 4    1  0.5743594E+000  0.1924503E+03  0.7818608E-02  0.1156270E+00
         21   -1    0    0  503  502  0.00000000000E+00  0.00000000000E+00  0.25158746905E+02  0.25158746905E+02  0.00000000000E+00 0. -1.
         21   -1    0    0  501  503 -0.00000000000E+00 -0.00000000000E+00 -0.14836988651E+04  0.14836988651E+04  0.00000000000E+00 0. -1.
          6    1    1    2  501    0  0.59592356204E+02 -0.62465015871E+02 -0.79586720948E+03  0.81880506976E+03  0.17200000000E+03 0. -1.
         -6    1    1    2    0  502 -0.59592356204E+02  0.62465015871E+02 -0.66267290871E+03  0.69005254224E+03  0.17200000000E+03 0. -1.
</event>
<event>
 4    1  0.5743594E+000  0.2072944E+03  0.7818608E-02  0.1143727E+00
         21   -1    0    0  503  502  0.00000000000E+00  0.00000000000E+00  0.54891500206E+02  0.54891500206E+02  0.00000000000E+00 0.  1.
         21   -1    0    0  501  503 -0.00000000000E+00 -0.00000000000E+00 -0.79086220420E+03  0.79086220420E+03  0.00000000000E+00 0.  1.
          6    1    1    2  501    0  0.82012494299E+02  0.81614563535E+02 -0.41058895497E+03  0.45995029748E+03  0.17200000000E+03 0.  1.
         -6    1    1    2    0  502 -0.82012494299E+02 -0.81614563535E+02 -0.32538174902E+03  0.38580340693E+03  0.17200000000E+03 0.  1.
</event>
<event>
 4    1  0.5743594E+000  0.4338453E+03  0.7818608E-02  0.1032652E+00
         21   -1    0    0  503  502  0.00000000000E+00  0.00000000000E+00  0.26924941245E+03  0.26924941245E+03  0.00000000000E+00 0.  1.
         21   -1    0    0  501  503 -0.00000000000E+00 -0.00000000000E+00 -0.81591428873E+03  0.81591428873E+03  0.00000000000E+00 0. -1.
          6    1    1    2  501    0  0.17860178805E+03  0.35600445369E+03 -0.47866764496E+03  0.64602204612E+03  0.17200000000E+03 0. -1.
         -6    1    1    2    0  502 -0.17860178805E+03 -0.35600445369E+03 -0.67997231320E+02  0.43914165506E+03  0.17200000000E+03 0.  1.
</event>
<event>
 4    1  0.5743594E+000  0.2489503E+03  0.7818608E-02  0.1113970E+00
         21   -1    0    0  501  502  0.00000000000E+00  0.00000000000E+00  0.98078723244E+03  0.98078723244E+03  0.00000000000E+00 0.  1.
         21   -1    0    0  502  503 -0.00000000000E+00 -0.00000000000E+00 -0.64722624365E+02  0.64722624365E+02  0.00000000000E+00 0. -1.
          6    1    1    2  501    0  0.10115725330E+02 -0.17969396428E+03  0.53846712410E+03  0.59323106159E+03  0.17200000000E+03 0.  1.
         -6    1    1    2    0  503 -0.10115725330E+02  0.17969396428E+03  0.37759748398E+03  0.45227879522E+03  0.17200000000E+03 0.  1.
</event>
<event>
 4    1  0.5743594E+000  0.1846939E+03  0.7818608E-02  0.1163336E+00
         21   -1    0    0  501  502  0.00000000000E+00  0.00000000000E+00  0.51639205172E+03  0.51639205172E+03  0.00000000000E+00 0.  1.
         21   -1    0    0  502  503 -0.00000000000E+00 -0.00000000000E+00 -0.66947230161E+02  0.66947230161E+02  0.00000000000E+00 0. -1.
          6    1    1    2  501    0 -0.61499219145E+02  0.27307480722E+02  0.19110845903E+03  0.26577113382E+03  0.17200000000E+03 0.  1.
         -6    1    1    2    0  503  0.61499219145E+02 -0.27307480722E+02  0.25833636253E+03  0.31756814806E+03  0.17200000000E+03 0. -1.
</event>
<event>
 4    1  0.5743594E+000  0.1803923E+03  0.7818608E-02  0.1167424E+00
         21   -1    0    0  501  502  0.00000000000E+00  0.00000000000E+00  0.19595947217E+03  0.19595947217E+03  0.00000000000E+00 0. -1.
         21   -1    0    0  502  503 -0.00000000000E+00 -0.00000000000E+00 -0.24317764182E+03  0.24317764182E+03  0.00000000000E+00 0. -1.
          6    1    1    2  501    0 -0.47050202615E+02  0.27269994492E+02  0.10003696621E+03  0.20627352902E+03  0.17200000000E+03 0. -1.
         -6    1    1    2    0  503  0.47050202615E+02 -0.27269994492E+02 -0.14725513587E+03  0.23286358497E+03  0.17200000000E+03 0. -1.
</event>
<event>
 4    1  0.5743594E+000  0.1767189E+03  0.7818608E-02  0.1171017E+00
         21   -1    0    0  503  502  0.00000000000E+00  0.00000000000E+00  0.10089751275E+03  0.10089751275E+03  0.00000000000E+00 0.  1.
         21   -1    0    0  501  503 -0.00000000000E+00 -0.00000000000E+00 -0.32984028544E+03  0.32984028544E+03  0.00000000000E+00 0.  1.
          6    1    1    2  501    0  0.35617588979E+02  0.19415468619E+02 -0.16793026915E+03  0.24378299441E+03  0.17200000000E+03 0.  1.
         -6    1    1    2    0  502 -0.35617588979E+02 -0.19415468619E+02 -0.61012503538E+02  0.18695480377E+03  0.17200000000E+03 0.  1.
</event>
<event>
 4    1  0.5743594E+000  0.2801894E+03  0.7818608E-02  0.1095586E+00
         21   -1    0    0  501  502  0.00000000000E+00  0.00000000000E+00  0.13897314719E+03  0.13897314719E+03  0.00000000000E+00 0. -1.
         21   -1    0    0  502  503 -0.00000000000E+00 -0.00000000000E+00 -0.80072780583E+03  0.80072780583E+03  0.00000000000E+00 0.  1.
          6    1    1    2  501    0  0.34671123805E+02 -0.21844916271E+03 -0.75893026637E+02  0.29028585051E+03  0.17200000000E+03 0.  1.
         -6    1    1    2    0  503 -0.34671123805E+02  0.21844916271E+03 -0.58586163200E+03  0.64941510251E+03  0.17200000000E+03 0. -1.
</event>
<event>
 4    1  0.5743594E+000  0.1833656E+03  0.7818608E-02  0.1164585E+00
         21   -1    0    0  503  502  0.00000000000E+00  0.00000000000E+00  0.19343833642E+04  0.19343833642E+04  0.00000000000E+00 0.  1.
         21   -1    0    0  501  503 -0.00000000000E+00 -0.00000000000E+00 -0.18737088675E+02  0.18737088675E+02  0.00000000000E+00 0.  1.
          6    1    1    2  501    0  0.37120295578E+02  0.51584981105E+02  0.69517439727E+03  0.71895088096E+03  0.17200000000E+03 0.  1.
         -6    1    1    2    0  502 -0.37120295578E+02 -0.51584981105E+02  0.12204718783E+04  0.12341695719E+04  0.17200000000E+03 0.  1.
</event>
<event>
 4    1  0.5743594E+000  0.2675786E+03  0.7818608E-02  0.1102673E+00
         21   -1    0    0  501  502  0.00000000000E+00  0.00000000000E+00  0.32149551219E+03  0.32149551219E+03  0.00000000000E+00 0.  1.
         21   -1    0    0  502  503 -0.00000000000E+00 -0.00000000000E+00 -0.22479813691E+03  0.22479813691E+03  0.00000000000E+00 0. -1.
          6    1    1    2  501    0 -0.19738239258E+03  0.55267570610E+02  0.21984775949E+02  0.26848024813E+03  0.17200000000E+03 0. -1.
         -6    1    1    2    0  503  0.19738239258E+03 -0.55267570610E+02  0.74712599334E+02  0.27781340097E+03  0.17200000000E+03 0.  1.
</event>
<event>
 4    1  0.5743594E+000  0.2665756E+03  0.7818608E-02  0.1103256E+00
         21   -1    0    0  501  502  0.00000000000E+00  0.00000000000E+00  0.17244248661E+03  0.17244248661E+03  0.00000000000E+00 0.  1.
         21   -1    0    0  502  503 -0.00000000000E+00 -0.00000000000E+00 -0.42375648762E+03  0.42375648762E+03  0.00000000000E+00 0.  1.
          6    1    1    2  501    0 -0.18267518440E+03  0.90046137516E+02 -0.17511048992E+03  0.31894547113E+03  0.17200000000E+03 0.  1.
         -6    1    1    2    0  503  0.18267518440E+03 -0.90046137516E+02 -0.76203511089E+02  0.27725350310E+03  0.17200000000E+03 0.  1.
</event>
<event>
 4    1  0.5743594E+000  0.1840287E+03  0.7818608E-02  0.1163960E+00
         21   -1    0    0  501  502  0.00000000000E+00  0.00000000000E+00  0.16035668810E+04  0.16035668810E+04  0.00000000000E+00 0.  1.
         21   -1    0    0  502  503 -0.00000000000E+00 -0.00000000000E+00 -0.21509203123E+02  0.21509203123E+02  0.00000000000E+00 0.  1.
          6    1    1    2  501    0  0.65425656858E+02 -0.14280065321E+01  0.90039671709E+03  0.91901077465E+03  0.17200000000E+03 0.  1.
         -6    1    1    2    0  503 -0.65425656858E+02  0.14280065321E+01  0.68166096076E+03  0.70606530944E+03  0.17200000000E+03 0.  1.
</event>
<event>
 4    1  0.5743594E+000  0.1830432E+03  0.7818608E-02  0.1164890E+00
         21   -1    0    0  503  502  0.00000000000E+00  0.00000000000E+00  0.24969627176E+03  0.24969627176E+03  0.00000000000E+00 0. -1.
         21   -1    0    0  501  503 -0.00000000000E+00 -0.00000000000E+00 -0.22663568526E+03  0.22663568526E+03  0.00000000000E+00 0. -1.
          6    1    1    2  501    0 -0.60694360946E+02 -0.15395559109E+02 -0.14058640996E+03  0.23080157572E+03  0.17200000000E+03 0. -1.
         -6    1    1    2    0  502  0.60694360946E+02  0.15395559109E+02  0.16364699646E+03  0.24553038130E+03  0.17200000000E+03 0. -1.
</event>
<event>
 4    1  0.5743594E+000  0.1890778E+03  0.7818608E-02  0.1159296E+00
         21   -1    0    0  501  502  0.00000000000E+00  0.00000000000E+00  0.45919723604E+03  0.45919723604E+03  0.00000000000E+00 0. -1.
         21   -1    0    0  502  503 -0.00000000000E+00 -0.00000000000E+00 -0.20068787181E+03  0.20068787181E+03  0.00000000000E+00 0.  1.
          6    1    1    2  501    0 -0.50744696785E+02  0.59928205573E+02  0.38738353992E+03  0.43106428879E+03  0.17200000000E+03 0. -1.
         -6    1    1    2    0  503  0.50744696785E+02 -0.59928205573E+02 -0.12887417569E+03  0.22882081906E+03  0.17200000000E+03 0.  1.
</event>
<event>
 4    1  0.5743594E+000  0.4164121E+03  0.7818608E-02  0.1038240E+00
         21   -1    0    0  501  502  0.00000000000E+00  0.00000000000E+00  0.39433076115E+03  0.39433076115E+03  0.00000000000E+00 0. -1.
         21   -1    0    0  502  503 -0.00000000000E+00 -0.00000000000E+00 -0.11473692939E+04  0.11473692939E+04  0.00000000000E+00 0.  1.
          6    1    1    2  501    0 -0.26335695613E+03 -0.27287019367E+03  0.22885545127E+03  0.47515665471E+03  0.17200000000E+03 0. -1.
         -6    1    1    2    0  503  0.26335695613E+03  0.27287019367E+03 -0.98189398402E+03  0.10665434003E+04  0.17200000000E+03 0.  1.
</event>
<event>
 4    1  0.5743594E+000  0.2583050E+03  0.7818608E-02  0.1108166E+00
         21   -1    0    0  503  502  0.00000000000E+00  0.00000000000E+00  0.88217063036E+02  0.88217063036E+02  0.00000000000E+00 0.  1.
         21   -1    0    0  501  503 -0.00000000000E+00 -0.00000000000E+00 -0.76216428172E+03  0.76216428172E+03  0.00000000000E+00 0. -1.
          6    1    1    2  501    0  0.10214708541E+03  0.16341196322E+03 -0.37416416322E+03  0.45466506114E+03  0.17200000000E+03 0.  1.
         -6    1    1    2    0  502 -0.10214708541E+03 -0.16341196322E+03 -0.29978305546E+03  0.39571628362E+03  0.17200000000E+03 0. -1.
</event>
<event>
 4    1  0.5743594E+000  0.2674907E+03  0.7818608E-02  0.1102724E+00
         21   -1    0    0  503  502  0.00000000000E+00  0.00000000000E+00  0.11285510547E+03  0.11285510547E+03  0.00000000000E+00 0.  1.
         21   -1    0    0  501  503 -0.00000000000E+00 -0.00000000000E+00 -0.66676440917E+03  0.66676440917E+03  0.00000000000E+00 0. -1.
          6    1    1    2  501    0 -0.18038843731E+03 -0.97094281100E+02 -0.19055737091E+03  0.32842563747E+03  0.17200000000E+03 0.  1.
         -6    1    1    2    0  502  0.18038843731E+03  0.97094281100E+02 -0.36335193279E+03  0.45119387718E+03  0.17200000000E+03 0. -1.
</event>
<event>
 4    1  0.5743594E+000  0.1812990E+03  0.7818608E-02  0.1166552E+00
         21   -1    0    0  503  502  0.00000000000E+00  0.00000000000E+00  0.26638229513E+03  0.26638229513E+03  0.00000000000E+00 0. -1.
         21   -1    0    0  501  503 -0.00000000000E+00 -0.00000000000E+00 -0.12593985695E+03  0.12593985695E+03  0.00000000000E+00 0. -1.
          6    1    1    2  501    0  0.54200668137E+02 -0.18644337639E+02  0.42317809260E+02  0.18617228777E+03  0.17200000000E+03 0.  1.
         -6    1    1    2    0  502 -0.54200668137E+02  0.18644337639E+02  0.98124628923E+02  0.20614986431E+03  0.17200000000E+03 0.  1.
</event>
<event>
 4    1  0.5743594E+000  0.2417561E+03  0.7818608E-02  0.1118628E+00
         21   -1    0    0  503  502  0.00000000000E+00  0.00000000000E+00  0.25526704940E+03  0.25526704940E+03  0.00000000000E+00 0.  1.
         21   -1    0    0  501  503 -0.00000000000E+00 -0.00000000000E+00 -0.26661718056E+03  0.26661718056E+03  0.00000000000E+00 0. -1.
          6    1    1    2  501    0 -0.35413129060E+02 -0.16615638059E+03  0.92391734533E+02  0.25880932196E+03  0.17200000000E+03 0.  1.
         -6    1    1    2    0  502  0.35413129060E+02  0.16615638059E+03 -0.10374186569E+03  0.26307490800E+03  0.17200000000E+03 0. -1.
</event>
<event>
 4    1  0.5743594E+000  0.2149952E+03  0.7818608E-02  0.1137670E+00
         21   -1    0    0  501  502  0.00000000000E+00  0.00000000000E+00  0.38406462889E+03  0.38406462889E+03  0.00000000000E+00 0. -1.
         21   -1    0    0  502  503 -0.00000000000E+00 -0.00000000000E+00 -0.12136770156E+03  0.12136770156E+03  0.00000000000E+00 0.  1.
          6    1    1    2  501    0 -0.50901384759E+02 -0.11852424274E+03  0.10822973040E+03  0.24070027343E+03  0.17200000000E+03 0. -1.
         -6    1    1    2    0  503  0.50901384759E+02  0.11852424274E+03  0.15446719693E+03  0.26473205702E+03  0.17200000000E+03 0.  1.
</event>
<event>
 4    1  0.5743594E+000  0.1803729E+03  0.7818608E-02  0.1167443E+00
         21   -1    0    0  503  502  0.00000000000E+00  0.00000000000E+00  0.10686810122E+03  0.10686810122E+03  0.00000000000E+00 0.  1.
         21   -1    0    0  501  503 -0.00000000000E+00 -0.00000000000E+00 -0.11004897884E+04  0.11004897884E+04  0.00000000000E+00 0.  1.
          6    1    1    2  501    0  0.24170883269E+02  0.48642936295E+02 -0.10102447670E+04  0.10262206664E+04  0.17200000000E+03 0.  1.
         -6    1    1    2    0  502 -0.24170883269E+02 -0.48642936295E+02  0.16623079852E+02  0.18113722321E+03  0.17200000000E+03 0.  1.
</event>
<event>
 4    1  0.5743594E+000  0.2009084E+03  0.7818608E-02  0.1148975E+00
         21   -1    0    0  503  502  0.00000000000E+00  0.00000000000E+00  0.10784240788E+03  0.10784240788E+03  0.00000000000E+00 0. -1.
         21   -1    0    0  501  503 -0.00000000000E+00 -0.00000000000E+00 -0.44384566275E+03  0.44384566275E+03  0.00000000000E+00 0. -1.
          6    1    1    2  501    0  0.54340809330E+02  0.88471804747E+02 -0.27720051814E+03  0.34235115167E+03  0.17200000000E+03 0. -1.
         -6    1    1    2    0  502 -0.54340809330E+02 -0.88471804747E+02 -0.58802736729E+02  0.20933691896E+03  0.17200000000E+03 0. -1.
</event>
<event>
 4    1  0.5743594E+000  0.1723663E+03  0.7818608E-02  0.1175402E+00
         21   -1    0    0  501  502  0.00000000000E+00  0.00000000000E+00  0.13828009266E+03  0.13828009266E+03  0.00000000000E+00 0.  1.
         21   -1    0    0  502  503 -0.00000000000E+00 -0.00000000000E+00 -0.21487512808E+03  0.21487512808E+03  0.00000000000E+00 0.  1.
          6    1    1    2  501    0 -0.56028109952E+01  0.97336365991E+01 -0.36578063163E+02  0.17620468177E+03  0.17200000000E+03 0.  1.
         -6    1    1    2    0  503  0.56028109952E+01 -0.97336365991E+01 -0.40016972259E+02  0.17695053897E+03  0.17200000000E+03 0.  1.
</event>
<event>
 4    1  0.5743594E+000  0.2029679E+03  0.7818608E-02  0.1147259E+00
         21   -1    0    0  501  502  0.00000000000E+00  0.00000000000E+00  0.12677452698E+04  0.12677452698E+04  0.00000000000E+00 0. -1.
         21   -1    0    0  502  503 -0.00000000000E+00 -0.00000000000E+00 -0.59290134241E+02  0.59290134241E+02  0.00000000000E+00 0.  1.
          6    1    1    2  501    0  0.59289188716E+02 -0.89982069422E+02  0.10502795173E+04  0.10697116645E+04  0.17200000000E+03 0. -1.
         -6    1    1    2    0  503 -0.59289188716E+02  0.89982069422E+02  0.15817561825E+03  0.25732373953E+03  0.17200000000E+03 0.  1.
</event>
<event>
 4    1  0.5743594E+000  0.1773118E+03  0.7818608E-02  0.1170430E+00
         21   -1    0    0  501  502  0.00000000000E+00  0.00000000000E+00  0.82987959305E+02  0.82987959305E+02  0.00000000000E+00 0. -1.
         21   -1    0    0  502  503 -0.00000000000E+00 -0.00000000000E+00 -0.51372512199E+03  0.51372512199E+03  0.00000000000E+00 0. -1.
          6    1    1    2  501    0 -0.25205476652E+02  0.34930818587E+02 -0.62490232010E+02  0.18800134903E+03  0.17200000000E+03 0. -1.
         -6    1    1    2    0  503  0.25205476652E+02 -0.34930818587E+02 -0.36824693068E+03  0.40871173227E+03  0.17200000000E+03 0. -1.
</event>
<event>
 4    1  0.5743594E+000  0.1752650E+03  0.7818608E-02  0.1172466E+00
         21   -1    0    0  501  502  0.00000000000E+00  0.00000000000E+00  0.46059679759E+03  0.46059679759E+03  0.00000000000E+00 0. -1.
         21   -1    0    0  502  503 -0.00000000000E+00 -0.00000000000E+00 -0.10748380747E+03  0.10748380747E+03  0.00000000000E+00 0. -1.
          6    1    1    2  501    0  0.28258432060E+02  0.18310358323E+02  0.35154057658E+03  0.39280858593E+03  0.17200000000E+03 0. -1.
         -6    1    1    2    0  503 -0.28258432060E+02 -0.18310358323E+02  0.15724135502E+01  0.17527201913E+03  0.17200000000E+03 0. -1.
</event>
<event>
 4    1  0.5743594E+000  0.1984219E+03  0.7818608E-02  0.1151077E+00
         21   -1    0    0  503  502  0.00000000000E+00  0.00000000000E+00  0.16746359395E+04  0.16746359395E+04  0.00000000000E+00 0.  1.
         21   -1    0    0  501  503 -0.00000000000E+00 -0.00000000000E+00 -0.76235788113E+02  0.76235788113E+02  0.00000000000E+00 0.  1.
          6    1    1    2  501    0  0.66741290450E+02  0.73026293192E+02  0.71160348186E+02  0.21079619186E+03  0.17200000000E+03 0.  1.
         -6    1    1    2    0  502 -0.66741290450E+02 -0.73026293192E+02  0.15272398032E+04  0.15400755358E+04  0.17200000000E+03 0.  1.
</event>
<event>
 4    1  0.5743594E+000  0.1840613E+03  0.7818608E-02  0.1163929E+00
         21   -1    0    0  503  502  0.00000000000E+00  0.00000000000E+00  0.63562677625E+03  0.63562677625E+03  0.00000000000E+00 0.  1.
         21   -1    0    0  501  503 -0.00000000000E+00 -0.00000000000E+00 -0.81436745247E+02  0.81436745247E+02  0.00000000000E+00 0. -1.
          6    1    1    2  501    0  0.64043410360E+02  0.13892628845E+02  0.66349408112E+02  0.19565481723E+03  0.17200000000E+03 0. -1.
         -6    1    1    2    0  502 -0.64043410360E+02 -0.13892628845E+02  0.48784062289E+03  0.52140870427E+03  0.17200000000E+03 0.  1.
</event>
<event>
 4    1  0.5743594E+000  0.2271201E+03  0.7818608E-02  0.1128683E+00
         21   -1    0    0  503  502  0.00000000000E+00  0.00000000000E+00  0.12497937210E+03  0.12497937210E+03  0.00000000000E+00 0.  1.
         21   -1    0    0  501  503 -0.00000000000E+00 -0.00000000000E+00 -0.43312057198E+03  0.43312057198E+03  0.00000000000E+00 0.  1.
          6    1    1    2  501    0  0.93479248632E+02  0.11515713659E+03 -0.21460804973E+03  0.31247424060E+03  0.17200000000E+03 0.  1.
         -6    1    1    2    0  502 -0.93479248632E+02 -0.11515713659E+03 -0.93533150155E+02  0.24562570348E+03  0.17200000000E+03 0.  1.
</event>
<event>
 4    1  0.5743594E+000  0.2204522E+03  0.7818608E-02  0.1133546E+00
         21   -1    0    0  503  502  0.00000000000E+00  0.00000000000E+00  0.10024302049E+04  0.10024302049E+04  0.00000000000E+00 0.  1.
         21   -1    0    0  501  503 -0.00000000000E+00 -0.00000000000E+00 -0.56467084807E+02  0.56467084807E+02  0.00000000000E+00 0.  1.
          6    1    1    2  501    0 -0.12420715528E+03  0.59897957717E+02  0.27387606656E+03  0.35157827378E+03  0.17200000000E+03 0.  1.
         -6    1    1    2    0  502  0.12420715528E+03 -0.59897957717E+02  0.67208705356E+03  0.70731901595E+03  0.17200000000E+03 0.  1.
</event>
<event>
 4    1  0.5743594E+000  0.2204632E+03  0.7818608E-02  0.1133538E+00
         21   -1    0    0  503  502  0.00000000000E+00  0.00000000000E+00  0.68329741702E+02  0.68329741702E+02  0.00000000000E+00 0. -1.
         21   -1    0    0  501  503 -0.00000000000E+00 -0.00000000000E+00 -0.75712810085E+03  0.75712810085E+03  0.00000000000E+00 0.  1.
          6    1    1    2  501    0 -0.11399527646E+02 -0.13744111807E+03 -0.44592401461E+03  0.49744571259E+03  0.17200000000E+03 0.  1.
         -6    1    1    2    0  502  0.11399527646E+02  0.13744111807E+03 -0.24287434453E+03  0.32801212996E+03  0.17200000000E+03 0. -1.
</event>
<event>
 4    1  0.5743594E+000  0.2252496E+03  0.7818608E-02  0.1130029E+00
         21   -1    0    0  503  502  0.00000000000E+00  0.00000000000E+00  0.10556435811E+03  0.10556435811E+03  0.00000000000E+00 0.  1.
         21   -1    0    0  501  503 -0.00000000000E+00 -0.00000000000E+00 -0.69487780117E+03  0.69487780117E+03  0.00000000000E+00 0. -1.
          6    1    1    2  501    0 -0.13705735263E+03 -0.48669043447E+02 -0.51688737481E+03  0.56383503965E+03  0.17200000000E+03 0. -1.
         -6    1    1    2    0  502  0.13705735263E+03  0.48669043447E+02 -0.72426068261E+02  0.23660711964E+03  0.17200000000E+03 0.  1.
</event>
<event>
 4    1  0.5743594E+000  0.1896745E+03  0.7818608E-02  0.1158755E+00
         21   -1    0    0  503  502  0.00000000000E+00  0.00000000000E+00  0.12588747306E+03  0.12588747306E+03  0.00000000000E+00 0.  1.
         21   -1    0    0  501  503 -0.00000000000E+00 -0.00000000000E+00 -0.32431762292E+03  0.32431762292E+03  0.00000000000E+00 0.  1.
          6    1    1    2  501    0  0.63491456893E+01 -0.79700182876E+02 -0.17680829555E+03  0.25930214842E+03  0.17200000000E+03 0.  1.
         -6    1    1    2    0  502 -0.63491456893E+01  0.79700182876E+02 -0.21621854303E+02  0.19090294755E+03  0.17200000000E+03 0.  1.
</event>
<event>
 4    1  0.5743594E+000  0.2075218E+03  0.7818608E-02  0.1143544E+00
         21   -1    0    0  501  502  0.00000000000E+00  0.00000000000E+00  0.15055568549E+03  0.15055568549E+03  0.00000000000E+00 0.  1.
         21   -1    0    0  502  503 -0.00000000000E+00 -0.00000000000E+00 -0.29938875730E+03  0.29938875730E+03  0.00000000000E+00 0.  1.
          6    1    1    2  501    0  0.28192697415E+01  0.11607479810E+03 -0.12191644787E+03  0.24068428967E+03  0.17200000000E+03 0.  1.
         -6    1    1    2    0  503 -0.28192697415E+01 -0.11607479810E+03 -0.26916623944E+02  0.20926015311E+03  0.17200000000E+03 0.  1.
</event>
<event>
 4    1  0.5743594E+000  0.2472307E+03  0.7818608E-02  0.1115068E+00
         21   -1    0    0  501  502  0.00000000000E+00  0.00000000000E+00  0.33172888065E+03  0.33172888065E+03  0.00000000000E+00 0. -1.
         21   -1    0    0  502  503 -0.00000000000E+00 -0.00000000000E+00 -0.28678883256E+03  0.28678883256E+03  0.00000000000E+00 0. -1.
          6    1    1    2  501    0 -0.10604495904E+03 -0.14245522567E+03  0.20738521143E+03  0.32269436093E+03  0.17200000000E+03 0. -1.
         -6    1    1    2    0  503  0.10604495904E+03  0.14245522567E+03 -0.16244516334E+03  0.29582335228E+03  0.17200000000E+03 0. -1.
</event>
<event>
 4    1  0.5743594E+000  0.2005031E+03  0.7818608E-02  0.1149315E+00
         21   -1    0    0  503  502  0.00000000000E+00  0.00000000000E+00  0.15030088811E+03  0.15030088811E+03  0.00000000000E+00 0. -1.
         21   -1    0    0  501  503 -0.00000000000E+00 -0.00000000000E+00 -0.28370229468E+03  0.28370229468E+03  0.00000000000E+00 0.  1.
          6    1    1    2  501    0 -0.10041812164E+03  0.23101930890E+02 -0.14799768243E+02  0.20104857996E+03  0.17200000000E+03 0. -1.
         -6    1    1    2    0  502  0.10041812164E+03 -0.23101930890E+02 -0.11860163832E+03  0.23295460283E+03  0.17200000000E+03 0.  1.
</event>
<event>
 4    1  0.5743594E+000  0.2090153E+03  0.7818608E-02  0.1142348E+00
         21   -1    0    0  503  502  0.00000000000E+00  0.00000000000E+00  0.10470035929E+03  0.10470035929E+03  0.00000000000E+00 0.  1.
         21   -1    0    0  501  503 -0.00000000000E+00 -0.00000000000E+00 -0.41748012277E+03  0.41748012277E+03  0.00000000000E+00 0. -1.
          6    1    1    2  501    0  0.62598674576E+02  0.10091982225E+03 -0.16236782282E+03  0.26467095509E+03  0.17200000000E+03 0.  1.
         -6    1    1    2    0  502 -0.62598674576E+02 -0.10091982225E+03 -0.15041194066E+03  0.25750952696E+03  0.17200000000E+03 0. -1.
</event>
<event>
 4    1  0.5743594E+000  0.1911376E+03  0.7818608E-02  0.1157439E+00
         21   -1    0    0  503  502  0.00000000000E+00  0.00000000000E+00  0.56549501535E+03  0.56549501535E+03  0.00000000000E+00 0. -1.
         21   -1    0    0  501  503 -0.00000000000E+00 -0.00000000000E+00 -0.82841452379E+02  0.82841452379E+02  0.00000000000E+00 0.  1.
          6    1    1    2  501    0 -0.51073775106E+02  0.65886746608E+02  0.89229575439E+02  0.21093959091E+03  0.17200000000E+03 0.  1.
         -6    1    1    2    0  502  0.51073775106E+02 -0.65886746608E+02  0.39342398753E+03  0.43739687682E+03  0.17200000000E+03 0. -1.
</event>
<event>
 4    1  0.5743594E+000  0.2203719E+03  0.7818608E-02  0.1133606E+00
         21   -1    0    0  501  502  0.00000000000E+00  0.00000000000E+00  0.50895282606E+03  0.50895282606E+03  0.00000000000E+00 0. -1.
         21   -1    0    0  502  503 -0.00000000000E+00 -0.00000000000E+00 -0.17824885518E+03  0.17824885518E+03  0.00000000000E+00 0.  1.
          6    1    1    2  501    0 -0.12619040114E+02  0.13718791721E+03 -0.68873592560E+02  0.23088381614E+03  0.17200000000E+03 0.  1.
         -6    1    1    2    0  503  0.12619040114E+02 -0.13718791721E+03  0.39957756344E+03  0.45631786510E+03  0.17200000000E+03 0. -1.
</event>
<event>
 4    1  0.5743594E+000  0.3063385E+03  0.7818608E-02  0.1082114E+00
         21   -1    0    0  501  502  0.00000000000E+00  0.00000000000E+00  0.12894648864E+03  0.12894648864E+03  0.00000000000E+00 0.  1.
         21   -1    0    0  502  503 -0.00000000000E+00 -0.00000000000E+00 -0.85682739054E+03  0.85682739054E+03  0.00000000000E+00 0. -1.
          6    1    1    2  501    0  0.61782653995E+01 -0.25341880958E+03 -0.17264983221E+03  0.35164076637E+03  0.17200000000E+03 0. -1.
         -6    1    1    2    0  503 -0.61782653995E+01  0.25341880958E+03 -0.55523106969E+03  0.63413311281E+03  0.17200000000E+03 0. -1.
</event>
<event>
 4    1  0.5743594E+000  0.2893083E+03  0.7818608E-02  0.1090711E+00
         21   -1    0    0  503  502  0.00000000000E+00  0.00000000000E+00  0.84926756238E+02  0.84926756238E+02  0.00000000000E+00 0. -1.
         21   -1    0    0  501  503 -0.00000000000E+00 -0.00000000000E+00 -0.10153320119E+04  0.10153320119E+04  0.00000000000E+00 0.  1.
          6    1    1    2  501    0 -0.80736319163E+02 -0.21816720863E+03 -0.37097854987E+03  0.47045123936E+03  0.17200000000E+03 0. -1.
         -6    1    1    2    0  502  0.80736319163E+02  0.21816720863E+03 -0.55942670578E+03  0.62980752877E+03  0.17200000000E+03 0.  1.
</event>
<event>
 4    1  0.5743594E+000  0.2010577E+03  0.7818608E-02  0.1148850E+00
         21   -1    0    0  503  502  0.00000000000E+00  0.00000000000E+00  0.40950810589E+03  0.40950810589E+03  0.00000000000E+00 0.  1.
         21   -1    0    0  501  503 -0.00000000000E+00 -0.00000000000E+00 -0.25388019718E+03  0.25388019718E+03  0.00000000000E+00 0.  1.
          6    1    1    2  501    0 -0.55431239561E+02  0.88133746182E+02 -0.18149766142E+03  0.27086081414E+03  0.17200000000E+03 0.  1.
         -6    1    1    2    0  502  0.55431239561E+02 -0.88133746182E+02  0.33712557012E+03  0.39252748893E+03  0.17200000000E+03 0.  1.
</event>
<event>
 4    1  0.5743594E+000  0.2588267E+03  0.7818608E-02  0.1107850E+00
         21   -1    0    0  501  502  0.00000000000E+00  0.00000000000E+00  0.51060152470E+03  0.51060152470E+03  0.00000000000E+00 0. -1.
         21   -1    0    0  502  503 -0.00000000000E+00 -0.00000000000E+00 -0.22068620854E+03  0.22068620854E+03  0.00000000000E+00 0. -1.
          6    1    1    2  501    0  0.10146150795E+03 -0.16465968763E+03  0.37779207688E+03  0.45794989210E+03  0.17200000000E+03 0. -1.
         -6    1    1    2    0  503 -0.10146150795E+03  0.16465968763E+03 -0.87876760717E+02  0.27333784114E+03  0.17200000000E+03 0. -1.
</event>
<event>
 4    1  0.5743594E+000  0.2008145E+03  0.7818608E-02  0.1149054E+00
         21   -1    0    0  501  502  0.00000000000E+00  0.00000000000E+00  0.23895598020E+03  0.23895598020E+03  0.00000000000E+00 0. -1.
         21   -1    0    0  502  503 -0.00000000000E+00 -0.00000000000E+00 -0.26929315057E+03  0.26929315057E+03  0.00000000000E+00 0.  1.
          6    1    1    2  501    0  0.96565217278E+02 -0.37651291394E+02  0.14010099705E+03  0.24485659131E+03  0.17200000000E+03 0. -1.
         -6    1    1    2    0  503 -0.96565217278E+02  0.37651291394E+02 -0.17043816742E+03  0.26339253947E+03  0.17200000000E+03 0.  1.
</event>
<event>
 4    1  0.5743594E+000  0.2383783E+03  0.7818608E-02  0.1120878E+00
         21   -1    0    0  501  502  0.00000000000E+00  0.00000000000E+00  0.12624290344E+03  0.12624290344E+03  0.00000000000E+00 0.  1.
         21   -1    0    0  502  503 -0.00000000000E+00 -0.00000000000E+00 -0.57902293409E+03  0.57902293409E+03  0.00000000000E+00 0. -1.
          6    1    1    2  501    0  0.17550646545E+02 -0.16411030512E+03 -0.60006785846E+02  0.24581503573E+03  0.17200000000E+03 0.  1.
         -6    1    1    2    0  503 -0.17550646545E+02  0.16411030512E+03 -0.39277324480E+03  0.45945080180E+03  0.17200000000E+03 0. -1.
</event>
<event>
 4    1  0.5743594E+000  0.1920096E+03  0.7818608E-02  0.1156661E+00
         21   -1    0    0  503  502  0.00000000000E+00  0.00000000000E+00  0.20468007782E+03  0.20468007782E+03  0.00000000000E+00 0. -1.
         21   -1    0    0  501  503 -0.00000000000E+00 -0.00000000000E+00 -0.22496225063E+03  0.22496225063E+03  0.00000000000E+00 0.  1.
          6    1    1    2  501    0 -0.68881295282E+02  0.50388971013E+02 -0.10604785266E+03  0.21934864553E+03  0.17200000000E+03 0.  1.
         -6    1    1    2    0  502  0.68881295282E+02 -0.50388971013E+02  0.85765679846E+02  0.21029368293E+03  0.17200000000E+03 0. -1.
</event>
<event>
 4    1  0.5743594E+000  0.2413907E+03  0.7818608E-02  0.1118870E+00
         21   -1    0    0  503  502  0.00000000000E+00  0.00000000000E+00  0.49322337230E+03  0.49322337230E+03  0.00000000000E+00 0. -1.
         21   -1    0    0  501  503 -0.00000000000E+00 -0.00000000000E+00 -0.15191692416E+03  0.15191692416E+03  0.00000000000E+00 0.  1.
          6    1    1    2  501    0  0.11334534188E+03 -0.12585025710E+03  0.18552751544E+02  0.24210257811E+03  0.17200000000E+03 0.  1.
         -6    1    1    2    0  502 -0.11334534188E+03  0.12585025710E+03  0.32275369659E+03  0.40303771834E+03  0.17200000000E+03 0. -1.
</event>
<event>
 4    1  0.5743594E+000  0.2369022E+03  0.7818608E-02  0.1121874E+00
         21   -1    0    0  503  502  0.00000000000E+00  0.00000000000E+00  0.22255184628E+03  0.22255184628E+03  0.00000000000E+00 0.  1.
         21   -1    0    0  501  503 -0.00000000000E+00 -0.00000000000E+00 -0.38926805135E+03  0.38926805135E+03  0.00000000000E+00 0.  1.
          6    1    1    2  501    0  0.10078372927E+03 -0.12798936806E+03 -0.26489816589E+03  0.35537821643E+03  0.17200000000E+03 0.  1.
         -6    1    1    2    0  502 -0.10078372927E+03  0.12798936806E+03  0.98181960823E+02  0.25644168120E+03  0.17200000000E+03 0.  1.
</event>
<event>
 4    1  0.5743594E+000  0.2146244E+03  0.7818608E-02  0.1137955E+00
         21   -1    0    0  501  502  0.00000000000E+00  0.00000000000E+00  0.29644004328E+03  0.29644004328E+03  0.00000000000E+00 0.  1.
         21   -1    0    0  502  503 -0.00000000000E+00 -0.00000000000E+00 -0.56543814136E+03  0.56543814136E+03  0.00000000000E+00 0.  1.
          6    1    1    2  501    0  0.12553047244E+03 -0.26864903347E+02  0.23247986910E+03  0.31640245271E+03  0.17200000000E+03 0.  1.
         -6    1    1    2    0  503 -0.12553047244E+03  0.26864903347E+02 -0.50147796719E+03  0.54547573193E+03  0.17200000000E+03 0.  1.
</event>
<event>
 4    1  0.5743594E+000  0.1989003E+03  0.7818608E-02  0.1150670E+00
         21   -1    0    0  501  502  0.00000000000E+00  0.00000000000E+00  0.47645412598E+03  0.47645412598E+03  0.00000000000E+00 0. -1.
         21   -1    0    0  502  503 -0.00000000000E+00 -0.00000000000E+00 -0.10060935898E+03  0.10060935898E+03  0.00000000000E+00 0. -1.
          6    1    1    2  501    0  0.57889912522E+02  0.81400826193E+02  0.30852060750E+03  0.36707805945E+03  0.17200000000E+03 0.  1.
         -6    1    1    2    0  503 -0.57889912522E+02 -0.81400826193E+02  0.67324159504E+02  0.20998542552E+03  0.17200000000E+03 0.  1.
</event>
<event>
 4    1  0.5743594E+000  0.1902938E+03  0.7818608E-02  0.1158197E+00
         21   -1    0    0  501  502  0.00000000000E+00  0.00000000000E+00  0.30989305043E+03  0.30989305043E+03  0.00000000000E+00 0. -1.
         21   -1    0    0  502  503 -0.00000000000E+00 -0.00000000000E+00 -0.11839924344E+03  0.11839924344E+03  0.00000000000E+00 0. -1.
          6    1    1    2  501    0 -0.79650336394E+02  0.16838979689E+02  0.71269364516E+02  0.20320199222E+03  0.17200000000E+03 0. -1.
         -6    1    1    2    0  503  0.79650336394E+02 -0.16838979689E+02  0.12022444247E+03  0.22509030164E+03  0.17200000000E+03 0. -1.
</event>
<event>
 4    1  0.5743594E+000  0.2069182E+03  0.7818608E-02  0.1144030E+00
         21   -1    0    0  501  502  0.00000000000E+00  0.00000000000E+00  0.16574919548E+03  0.16574919548E+03  0.00000000000E+00 0.  1.
         21   -1    0    0  502  503 -0.00000000000E+00 -0.00000000000E+00 -0.75313272851E+03  0.75313272851E+03  0.00000000000E+00 0.  1.
          6    1    1    2  501    0 -0.11430207812E+03 -0.12890243288E+02  0.78715017593E+02  0.22138468201E+03  0.17200000000E+03 0.  1.
         -6    1    1    2    0  503  0.11430207812E+03  0.12890243288E+02 -0.66609855061E+03  0.69749724198E+03  0.17200000000E+03 0.  1.
</event>
<event>
 4    1  0.5743594E+000  0.1990523E+03  0.7818608E-02  0.1150541E+00
         21   -1    0    0  503  502  0.00000000000E+00  0.00000000000E+00  0.45072054071E+03  0.45072054071E+03  0.00000000000E+00 0. -1.
         21   -1    0    0  501  503 -0.00000000000E+00 -0.00000000000E+00 -0.88308244532E+02  0.88308244532E+02  0.00000000000E+00 0.  1.
          6    1    1    2  501    0  0.82598726197E+02 -0.56703436161E+02  0.19935624195E+03  0.28171748339E+03  0.17200000000E+03 0.  1.
         -6    1    1    2    0  502 -0.82598726197E+02  0.56703436161E+02  0.16305605423E+03  0.25731130186E+03  0.17200000000E+03 0.  1.
</event>
<event>
 4    1  0.5743594E+000  0.2010127E+03  0.7818608E-02  0.1148887E+00
         21   -1    0    0  501  502  0.00000000000E+00  0.00000000000E+00  0.61610402608E+02  0.61610402608E+02  0.00000000000E+00 0.  1.
         21   -1    0    0  502  503 -0.00000000000E+00 -0.00000000000E+00 -0.82964340555E+03  0.82964340555E+03  0.00000000000E+00 0. -1.
          6    1    1    2  501    0 -0.43963059096E+02  0.94283395780E+02 -0.18004754147E+03  0.26985778936E+03  0.17200000000E+03 0.  1.
         -6    1    1    2    0  503  0.43963059096E+02 -0.94283395780E+02 -0.58798546147E+03  0.62139601880E+03  0.17200000000E+03 0. -1.
</event>
<event>
 4    1  0.5743594E+000  0.1930777E+03  0.7818608E-02  0.1155714E+00
         21   -1    0    0  501  502  0.00000000000E+00  0.00000000000E+00  0.27287624437E+02  0.27287624437E+02  0.00000000000E+00 0. -1.
         21   -1    0    0  502  503 -0.00000000000E+00 -0.00000000000E+00 -0.22754840904E+04  0.22754840904E+04  0.00000000000E+00 0. -1.
          6    1    1    2  501    0 -0.70524574190E+02  0.52165766855E+02 -0.39624172079E+03  0.44077940525E+03  0.17200000000E+03 0. -1.
         -6    1    1    2    0  503  0.70524574190E+02 -0.52165766855E+02 -0.18519547452E+04  0.18619923096E+04  0.17200000000E+03 0. -1.
</event>
<event>
 4    1  0.5743594E+000  0.1988322E+03  0.7818608E-02  0.1150728E+00
         21   -1    0    0  501  502  0.00000000000E+00  0.00000000000E+00  0.28195755802E+03  0.28195755802E+03  0.00000000000E+00 0. -1.
         21   -1    0    0  502  503 -0.00000000000E+00 -0.00000000000E+00 -0.14027928306E+03  0.14027928306E+03  0.00000000000E+00 0. -1.
          6    1    1    2  501    0  0.77694808047E+02 -0.62560142122E+02  0.75411111428E+02  0.21265251070E+03  0.17200000000E+03 0. -1.
         -6    1    1    2    0  503 -0.77694808047E+02  0.62560142122E+02  0.66267163525E+02  0.20958433038E+03  0.17200000000E+03 0. -1.
</event>
<event>
 4    1  0.5743594E+000  0.1775821E+03  0.7818608E-02  0.1170164E+00
         21   -1    0    0  503  502  0.00000000000E+00  0.00000000000E+00  0.54435398580E+03  0.54435398580E+03  0.00000000000E+00 0.  1.
         21   -1    0    0  501  503 -0.00000000000E+00 -0.00000000000E+00 -0.67364571459E+02  0.67364571459E+02  0.00000000000E+00 0.  1.
          6    1    1    2  501    0 -0.28725845984E+02 -0.33559370558E+02  0.35294728218E+03  0.39510402374E+03  0.17200000000E+03 0.  1.
         -6    1    1    2    0  502  0.28725845984E+02  0.33559370558E+02  0.12404213217E+03  0.21661453352E+03  0.17200000000E+03 0.  1.
</event>
<event>
 4    1  0.5743594E+000  0.1729548E+03  0.7818608E-02  0.1174801E+00
         21   -1    0    0  501  502  0.00000000000E+00  0.00000000000E+00  0.14234548451E+03  0.14234548451E+03  0.00000000000E+00 0. -1.
         21   -1    0    0  502  503 -0.00000000000E+00 -0.00000000000E+00 -0.87379559201E+03  0.87379559201E+03  0.00000000000E+00 0. -1.
          6    1    1    2  501    0 -0.41396272031E+01 -0.17670114450E+02  0.77055380664E+02  0.18934334197E+03  0.17200000000E+03 0. -1.
         -6    1    1    2    0  503  0.41396272031E+01  0.17670114450E+02 -0.80850548817E+03  0.82679773455E+03  0.17200000000E+03 0. -1.
</event>
<event>
 4    1  0.5743594E+000  0.1746961E+03  0.7818608E-02  0.1173037E+00
         21   -1    0    0  503  502  0.00000000000E+00  0.00000000000E+00  0.32878434288E+02  0.32878434288E+02  0.00000000000E+00 0.  1.
         21   -1    0    0  501  503 -0.00000000000E+00 -0.00000000000E+00 -0.94450260226E+03  0.94450260226E+03  0.00000000000E+00 0.  1.
          6    1    1    2  501    0  0.22363723079E+02 -0.20846644874E+02 -0.39166555602E+03  0.42885968158E+03  0.17200000000E+03 0. -1.
         -6    1    1    2    0  502 -0.22363723079E+02  0.20846644874E+02 -0.51995861195E+03  0.54852135497E+03  0.17200000000E+03 0. -1.
</event>
<event>
 4    1  0.5743594E+000  0.1811023E+03  0.7818608E-02  0.1166740E+00
         21   -1    0    0  501  502  0.00000000000E+00  0.00000000000E+00  0.26926555343E+02  0.26926555343E+02  0.00000000000E+00 0. -1.
         21   -1    0    0  502  503 -0.00000000000E+00 -0.00000000000E+00 -0.13283393489E+04  0.13283393489E+04  0.00000000000E+00 0. -1.
          6    1    1    2  501    0  0.51526264978E+02  0.23645185665E+02 -0.45545458116E+03  0.49013970079E+03  0.17200000000E+03 0. -1.
         -6    1    1    2    0  503 -0.51526264978E+02 -0.23645185665E+02 -0.84595821242E+03  0.86512620348E+03  0.17200000000E+03 0. -1.
</event>
<event>
 4    1  0.5743594E+000  0.1933656E+03  0.7818608E-02  0.1155460E+00
         21   -1    0    0  501  502  0.00000000000E+00  0.00000000000E+00  0.91227518333E+02  0.91227518333E+02  0.00000000000E+00 0. -1.
         21   -1    0    0  502  503 -0.00000000000E+00 -0.00000000000E+00 -0.41364647528E+03  0.41364647528E+03  0.00000000000E+00 0.  1.
          6    1    1    2  501    0  0.80089435411E+02  0.37308822638E+02 -0.18537018930E+03  0.26786633419E+03  0.17200000000E+03 0. -1.
         -6    1    1    2    0  503 -0.80089435411E+02 -0.37308822638E+02 -0.13704876765E+03  0.23700765942E+03  0.17200000000E+03 0.  1.
</event>
<event>
 4    1  0.5743594E+000  0.2175403E+03  0.7818608E-02  0.1135730E+00
         21   -1    0    0  503  502  0.00000000000E+00  0.00000000000E+00  0.96419929480E+03  0.96419929480E+03  0.00000000000E+00 0. -1.
         21   -1    0    0  501  503 -0.00000000000E+00 -0.00000000000E+00 -0.60835200200E+02  0.60835200200E+02  0.00000000000E+00 0. -1.
          6    1    1    2  501    0  0.13243250892E+03  0.14191860739E+02  0.22639862867E+03  0.31397470821E+03  0.17200000000E+03 0. -1.
         -6    1    1    2    0  502 -0.13243250892E+03 -0.14191860739E+02  0.67696546593E+03  0.71105978679E+03  0.17200000000E+03 0. -1.
</event>
<event>
 4    1  0.5743594E+000  0.1822118E+03  0.7818608E-02  0.1165679E+00
         21   -1    0    0  501  502  0.00000000000E+00  0.00000000000E+00  0.37454431066E+03  0.37454431066E+03  0.00000000000E+00 0. -1.
         21   -1    0    0  502  503 -0.00000000000E+00 -0.00000000000E+00 -0.16510896961E+03  0.16510896961E+03  0.00000000000E+00 0. -1.
          6    1    1    2  501    0 -0.60140709458E+02  0.49520283752E+00  0.28834208180E+03  0.34108988008E+03  0.17200000000E+03 0. -1.
         -6    1    1    2    0  503  0.60140709458E+02 -0.49520283752E+00 -0.78906740742E+02  0.19856340019E+03  0.17200000000E+03 0. -1.
</event>
<event>
 4    1  0.5743594E+000  0.1775886E+03  0.7818608E-02  0.1170157E+00
         21   -1    0    0  501  502  0.00000000000E+00  0.00000000000E+00  0.27165878134E+02  0.27165878134E+02  0.00000000000E+00 0. -1.
         21   -1    0    0  502  503 -0.00000000000E+00 -0.00000000000E+00 -0.12146208067E+04  0.12146208067E+04  0.00000000000E+00 0. -1.
          6    1    1    2  501    0  0.44189254658E+02 -0.10049092865E+01 -0.46318733048E+03  0.49606471674E+03  0.17200000000E+03 0. -1.
         -6    1    1    2    0  503 -0.44189254658E+02  0.10049092865E+01 -0.72426759806E+03  0.74572196808E+03  0.17200000000E+03 0. -1.
</event>
<event>
 4    1  0.5743594E+000  0.1898699E+03  0.7818608E-02  0.1158579E+00
         21   -1    0    0  503  502  0.00000000000E+00  0.00000000000E+00  0.65306258926E+03  0.65306258926E+03  0.00000000000E+00 0. -1.
         21   -1    0    0  501  503 -0.00000000000E+00 -0.00000000000E+00 -0.60602635634E+02  0.60602635634E+02  0.00000000000E+00 0. -1.
          6    1    1    2  501    0  0.25907538213E+02  0.76127423952E+02  0.40274906020E+03  0.44526103659E+03  0.17200000000E+03 0. -1.
         -6    1    1    2    0  502 -0.25907538213E+02 -0.76127423952E+02  0.18971089343E+03  0.26840418830E+03  0.17200000000E+03 0. -1.
</event>
<event>
 4    1  0.5743594E+000  0.1773501E+03  0.7818608E-02  0.1170393E+00
         21   -1    0    0  503  502  0.00000000000E+00  0.00000000000E+00  0.24612072786E+02  0.24612072786E+02  0.00000000000E+00 0. -1.
         21   -1    0    0  501  503 -0.00000000000E+00 -0.00000000000E+00 -0.13564220405E+04  0.13564220405E+04  0.00000000000E+00 0. -1.
          6    1    1    2  501    0  0.26488835618E+02 -0.34167365217E+02 -0.83198857406E+03  0.85068093586E+03  0.17200000000E+03 0. -1.
         -6    1    1    2    0  502 -0.26488835618E+02  0.34167365217E+02 -0.49982139366E+03  0.53035317744E+03  0.17200000000E+03 0. -1.
</event>
<event>
 4    1  0.5743594E+000  0.2364913E+03  0.7818608E-02  0.1122153E+00
         21   -1    0    0  503  502  0.00000000000E+00  0.00000000000E+00  0.46065245392E+03  0.46065245392E+03  0.00000000000E+00 0.  1.
         21   -1    0    0  501  503 -0.00000000000E+00 -0.00000000000E+00 -0.13514216920E+03  0.13514216920E+03  0.00000000000E+00 0.  1.
          6    1    1    2  501    0  0.72823406118E+02  0.14505470203E+03  0.67797397092E+02  0.24601748334E+03  0.17200000000E+03 0.  1.
         -6    1    1    2    0  502 -0.72823406118E+02 -0.14505470203E+03  0.25771288763E+03  0.34977713978E+03  0.17200000000E+03 0.  1.
</event>
<event>
 4    1  0.5743594E+000  0.2047556E+03  0.7818608E-02  0.1145788E+00
         21   -1    0    0  501  502  0.00000000000E+00  0.00000000000E+00  0.63200035609E+03  0.63200035609E+03  0.00000000000E+00 0. -1.
         21   -1    0    0  502  503 -0.00000000000E+00 -0.00000000000E+00 -0.16367184969E+03  0.16367184969E+03  0.00000000000E+00 0. -1.
          6    1    1    2  501    0  0.34585890818E+01 -0.11103560881E+03  0.54096179106E+03  0.57841553199E+03  0.17200000000E+03 0. -1.
         -6    1    1    2    0  503 -0.34585890818E+01  0.11103560881E+03 -0.72633284664E+02  0.21725667378E+03  0.17200000000E+03 0. -1.
</event>
<event>
 4    1  0.5743594E+000  0.1871164E+03  0.7818608E-02  0.1161088E+00
         21   -1    0    0  503  502  0.00000000000E+00  0.00000000000E+00  0.28287973247E+03  0.28287973247E+03  0.00000000000E+00 0.  1.
         21   -1    0    0  501  503 -0.00000000000E+00 -0.00000000000E+00 -0.12463064628E+03  0.12463064628E+03  0.00000000000E+00 0.  1.
          6    1    1    2  501    0 -0.71495852234E+02 -0.17801308763E+02  0.62210586689E+02  0.19718696858E+03  0.17200000000E+03 0.  1.
         -6    1    1    2    0  502  0.71495852234E+02  0.17801308763E+02  0.96038499503E+02  0.21032341017E+03  0.17200000000E+03 0.  1.
</event>
<event>
 4    1  0.5743594E+000  0.1741177E+03  0.7818608E-02  0.1173621E+00
         21   -1    0    0  503  502  0.00000000000E+00  0.00000000000E+00  0.71133796819E+03  0.71133796819E+03  0.00000000000E+00 0. -1.
         21   -1    0    0  501  503 -0.00000000000E+00 -0.00000000000E+00 -0.55687700231E+02  0.55687700231E+02  0.00000000000E+00 0. -1.
          6    1    1    2  501    0  0.13482125310E+02  0.23477897768E+02  0.51360795849E+03  0.54231919974E+03  0.17200000000E+03 0. -1.
         -6    1    1    2    0  502 -0.13482125310E+02 -0.23477897768E+02  0.14204230947E+03  0.22470646868E+03  0.17200000000E+03 0. -1.
</event>
<event>
 4    1  0.5743594E+000  0.1948887E+03  0.7818608E-02  0.1154124E+00
         21   -1    0    0  501  502  0.00000000000E+00  0.00000000000E+00  0.43051111895E+02  0.43051111895E+02  0.00000000000E+00 0. -1.
         21   -1    0    0  502  503 -0.00000000000E+00 -0.00000000000E+00 -0.90482857276E+03  0.90482857276E+03  0.00000000000E+00 0. -1.
          6    1    1    2  501    0 -0.71360300350E+02  0.57491889996E+02 -0.35601310112E+03  0.40586566503E+03  0.17200000000E+03 0.  1.
         -6    1    1    2    0  503  0.71360300350E+02 -0.57491889996E+02 -0.50576435974E+03  0.54201401962E+03  0.17200000000E+03 0.  1.
</event>
<event>
 4    1  0.5743594E+000  0.1978321E+03  0.7818608E-02  0.1151581E+00
         21   -1    0    0  501  502  0.00000000000E+00  0.00000000000E+00  0.45742793773E+03  0.45742793773E+03  0.00000000000E+00 0. -1.
         21   -1    0    0  502  503 -0.00000000000E+00 -0.00000000000E+00 -0.10003858909E+03  0.10003858909E+03  0.00000000000E+00 0. -1.
          6    1    1    2  501    0  0.92825448155E+02  0.30610125060E+02  0.28473421536E+03  0.34671474872E+03  0.17200000000E+03 0.  1.
         -6    1    1    2    0  503 -0.92825448155E+02 -0.30610125060E+02  0.72655133278E+02  0.21075177810E+03  0.17200000000E+03 0.  1.
</event>
<event>
 4    1  0.5743594E+000  0.2618745E+03  0.7818608E-02  0.1106022E+00
         21   -1    0    0  503  502  0.00000000000E+00  0.00000000000E+00  0.45580102746E+03  0.45580102746E+03  0.00000000000E+00 0. -1.
         21   -1    0    0  501  503 -0.00000000000E+00 -0.00000000000E+00 -0.23788750819E+03  0.23788750819E+03  0.00000000000E+00 0. -1.
          6    1    1    2  501    0 -0.19714155970E+03 -0.11377343308E+02  0.31922873031E+03  0.41289855989E+03  0.17200000000E+03 0. -1.
         -6    1    1    2    0  502  0.19714155970E+03  0.11377343308E+02 -0.10131521104E+03  0.28078997577E+03  0.17200000000E+03 0. -1.
</event>
<event>
 4    1  0.5743594E+000  0.2143264E+03  0.7818608E-02  0.1138185E+00
         21   -1    0    0  501  502  0.00000000000E+00  0.00000000000E+00  0.29099826190E+03  0.29099826190E+03  0.00000000000E+00 0. -1.
         21   -1    0    0  502  503 -0.00000000000E+00 -0.00000000000E+00 -0.33175114434E+03  0.33175114434E+03  0.00000000000E+00 0.  1.
          6    1    1    2  501    0 -0.12422198753E+03 -0.30343342135E+02  0.20505829940E+03  0.29662219531E+03  0.17200000000E+03 0. -1.
         -6    1    1    2    0  503  0.12422198753E+03  0.30343342135E+02 -0.24581118184E+03  0.32612721094E+03  0.17200000000E+03 0.  1.
</event>
<event>
 4    1  0.5743594E+000  0.1950289E+03  0.7818608E-02  0.1154002E+00
         21   -1    0    0  503  502  0.00000000000E+00  0.00000000000E+00  0.41514668692E+03  0.41514668692E+03  0.00000000000E+00 0. -1.
         21   -1    0    0  501  503 -0.00000000000E+00 -0.00000000000E+00 -0.15755935612E+03  0.15755935612E+03  0.00000000000E+00 0. -1.
          6    1    1    2  501    0 -0.83588700724E+02 -0.38278167946E+02 -0.56451832898E+02  0.20303472232E+03  0.17200000000E+03 0. -1.
         -6    1    1    2    0  502  0.83588700724E+02  0.38278167946E+02  0.31403916370E+03  0.36967132072E+03  0.17200000000E+03 0. -1.
</event>
<event>
 4    1  0.5743594E+000  0.1904821E+03  0.7818608E-02  0.1158027E+00
         21   -1    0    0  501  502  0.00000000000E+00  0.00000000000E+00  0.16610119848E+04  0.16610119848E+04  0.00000000000E+00 0.  1.
         21   -1    0    0  502  503 -0.00000000000E+00 -0.00000000000E+00 -0.27060420628E+02  0.27060420628E+02  0.00000000000E+00 0.  1.
          6    1    1    2  501    0  0.53638382104E+02  0.61825071191E+02  0.11875484181E+04  0.12027280078E+04  0.17200000000E+03 0.  1.
         -6    1    1    2    0  503 -0.53638382104E+02 -0.61825071191E+02  0.44640314602E+03  0.48534439756E+03  0.17200000000E+03 0.  1.
</event>
<event>
 4    1  0.5743594E+000  0.1726734E+03  0.7818608E-02  0.1175088E+00
         21   -1    0    0  501  502  0.00000000000E+00  0.00000000000E+00  0.89672757576E+03  0.89672757576E+03  0.00000000000E+00 0.  1.
         21   -1    0    0  502  503 -0.00000000000E+00 -0.00000000000E+00 -0.41659297667E+02  0.41659297667E+02  0.00000000000E+00 0.  1.
          6    1    1    2  501    0  0.11381241333E+02  0.10127273303E+02  0.63833803307E+03  0.66128022712E+03  0.17200000000E+03 0.  1.
         -6    1    1    2    0  503 -0.11381241333E+02 -0.10127273303E+02  0.21673024502E+03  0.27710664630E+03  0.17200000000E+03 0.  1.
</event>
<event>
 4    1  0.5743594E+000  0.2541880E+03  0.7818608E-02  0.1110686E+00
         21   -1    0    0  501  502  0.00000000000E+00  0.00000000000E+00  0.41614378492E+02  0.41614378492E+02  0.00000000000E+00 0. -1.
         21   -1    0    0  502  503 -0.00000000000E+00 -0.00000000000E+00 -0.15919867925E+04  0.15919867925E+04  0.00000000000E+00 0.  1.
          6    1    1    2  501    0  0.18688360950E+03 -0.10102237378E+02 -0.64675166262E+03  0.69490952778E+03  0.17200000000E+03 0.  1.
         -6    1    1    2    0  503 -0.18688360950E+03  0.10102237378E+02 -0.90362075143E+03  0.93869164325E+03  0.17200000000E+03 0. -1.
</event>
<event>
 4    1  0.5743594E+000  0.2088174E+03  0.7818608E-02  0.1142506E+00
         21   -1    0    0  503  502  0.00000000000E+00  0.00000000000E+00  0.41796580464E+02  0.41796580464E+02  0.00000000000E+00 0. -1.
         21   -1    0    0  501  503 -0.00000000000E+00 -0.00000000000E+00 -0.10481403287E+04  0.10481403287E+04  0.00000000000E+00 0. -1.
          6    1    1    2  501    0  0.84383476779E+02 -0.83066963034E+02 -0.46598447516E+03  0.51063315854E+03  0.17200000000E+03 0. -1.
         -6    1    1    2    0  502 -0.84383476779E+02  0.83066963034E+02 -0.54035927310E+03  0.57930375066E+03  0.17200000000E+03 0. -1.
</event>
<event>
 4    1  0.5743594E+000  0.2440655E+03  0.7818608E-02  0.1117114E+00
         21   -1    0    0  503  502  0.00000000000E+00  0.00000000000E+00  0.37469661480E+03  0.37469661480E+03  0.00000000000E+00 0. -1.
         21   -1    0    0  501  503 -0.00000000000E+00 -0.00000000000E+00 -0.52151945933E+03  0.52151945933E+03  0.00000000000E+00 0.  1.
          6    1    1    2  501    0  0.17153031157E+03 -0.23691967860E+02 -0.44702892298E+03  0.50931602675E+03  0.17200000000E+03 0.  1.
         -6    1    1    2    0  502 -0.17153031157E+03  0.23691967860E+02  0.30020607845E+03  0.38690004739E+03  0.17200000000E+03 0. -1.
</event>
<event>
 4    1  0.5743594E+000  0.1886022E+03  0.7818608E-02  0.1159728E+00
         21   -1    0    0  501  502  0.00000000000E+00  0.00000000000E+00  0.15938417889E+03  0.15938417889E+03  0.00000000000E+00 0. -1.
         21   -1    0    0  502  503 -0.00000000000E+00 -0.00000000000E+00 -0.24821502209E+03  0.24821502209E+03  0.00000000000E+00 0. -1.
          6    1    1    2  501    0 -0.29945545575E+02  0.71344506630E+02  0.20313029377E+02  0.18969289256E+03  0.17200000000E+03 0. -1.
         -6    1    1    2    0  503  0.29945545575E+02 -0.71344506630E+02 -0.10914387259E+03  0.21790630842E+03  0.17200000000E+03 0. -1.
</event>
<event>
 4    1  0.5743594E+000  0.1862360E+03  0.7818608E-02  0.1161901E+00
         21   -1    0    0  501  502  0.00000000000E+00  0.00000000000E+00  0.38385373285E+02  0.38385373285E+02  0.00000000000E+00 0.  1.
         21   -1    0    0  502  503 -0.00000000000E+00 -0.00000000000E+00 -0.93098997696E+03  0.93098997696E+03  0.00000000000E+00 0.  1.
          6    1    1    2  501    0  0.69929717412E+02  0.14479876147E+02 -0.36311995375E+03  0.40809304454E+03  0.17200000000E+03 0.  1.
         -6    1    1    2    0  503 -0.69929717412E+02 -0.14479876147E+02 -0.52948464992E+03  0.56128230570E+03  0.17200000000E+03 0.  1.
</event>
<event>
 4    1  0.5743594E+000  0.1724073E+03  0.7818608E-02  0.1175360E+00
         21   -1    0    0  503  502  0.00000000000E+00  0.00000000000E+00  0.16902843951E+04  0.16902843951E+04  0.00000000000E+00 0.  1.
         21   -1    0    0  501  503 -0.00000000000E+00 -0.00000000000E+00 -0.27057093089E+02  0.27057093089E+02  0.00000000000E+00 0.  1.
          6    1    1    2  501    0  0.80670155007E+01 -0.86714862357E+01  0.32357042673E+03  0.36663618543E+03  0.17200000000E+03 0.  1.
         -6    1    1    2    0  502 -0.80670155007E+01  0.86714862357E+01  0.13396568753E+04  0.13507053028E+04  0.17200000000E+03 0.  1.
</event>
<event>
 4    1  0.5743594E+000  0.2718831E+03  0.7818608E-02  0.1100207E+00
         21   -1    0    0  501  502  0.00000000000E+00  0.00000000000E+00  0.45546716980E+03  0.45546716980E+03  0.00000000000E+00 0. -1.
         21   -1    0    0  502  503 -0.00000000000E+00 -0.00000000000E+00 -0.17446110667E+03  0.17446110667E+03  0.00000000000E+00 0. -1.
          6    1    1    2  501    0 -0.57380625379E+02  0.20259285710E+03  0.22367435130E+03  0.35206621159E+03  0.17200000000E+03 0. -1.
         -6    1    1    2    0  503  0.57380625379E+02 -0.20259285710E+03  0.57331711837E+02  0.27786206488E+03  0.17200000000E+03 0. -1.
</event>
<event>
 4    1  0.5743594E+000  0.1909324E+03  0.7818608E-02  0.1157623E+00
         21   -1    0    0  503  502  0.00000000000E+00  0.00000000000E+00  0.32712442723E+03  0.32712442723E+03  0.00000000000E+00 0. -1.
         21   -1    0    0  501  503 -0.00000000000E+00 -0.00000000000E+00 -0.15603915205E+03  0.15603915205E+03  0.00000000000E+00 0. -1.
          6    1    1    2  501    0  0.17665585034E+02 -0.80988355266E+02  0.21469553368E+03  0.28731404206E+03  0.17200000000E+03 0. -1.
         -6    1    1    2    0  502 -0.17665585034E+02  0.80988355266E+02 -0.43610258491E+02  0.19584953722E+03  0.17200000000E+03 0. -1.
</event>
<event>
 4    1  0.5743594E+000  0.1811364E+03  0.7818608E-02  0.1166708E+00
         21   -1    0    0  501  502  0.00000000000E+00  0.00000000000E+00  0.84050858500E+02  0.84050858500E+02  0.00000000000E+00 0.  1.
         21   -1    0    0  502  503 -0.00000000000E+00 -0.00000000000E+00 -0.45273971554E+03  0.45273971554E+03  0.00000000000E+00 0.  1.
          6    1    1    2  501    0 -0.14292188992E+02 -0.54974054528E+02 -0.84721564898E+02  0.19997039005E+03  0.17200000000E+03 0.  1.
         -6    1    1    2    0  503  0.14292188992E+02  0.54974054528E+02 -0.28396729214E+03  0.33682018399E+03  0.17200000000E+03 0.  1.
</event>
<event>
 4    1  0.5743594E+000  0.3758451E+03  0.7818608E-02  0.1052480E+00
         21   -1    0    0  503  502  0.00000000000E+00  0.00000000000E+00  0.41213559826E+03  0.41213559826E+03  0.00000000000E+00 0. -1.
         21   -1    0    0  501  503 -0.00000000000E+00 -0.00000000000E+00 -0.44882856409E+03  0.44882856409E+03  0.00000000000E+00 0. -1.
          6    1    1    2  501    0 -0.14747038555E+03  0.29988006378E+03 -0.22762671049E+03  0.43940128197E+03  0.17200000000E+03 0. -1.
         -6    1    1    2    0  502  0.14747038555E+03 -0.29988006378E+03  0.19093374467E+03  0.42156288039E+03  0.17200000000E+03 0. -1.
</event>
<event>
 4    1  0.5743594E+000  0.1919647E+03  0.7818608E-02  0.1156701E+00
         21   -1    0    0  501  502  0.00000000000E+00  0.00000000000E+00  0.52477071900E+02  0.52477071900E+02  0.00000000000E+00 0. -1.
         21   -1    0    0  502  503 -0.00000000000E+00 -0.00000000000E+00 -0.22776696728E+04  0.22776696728E+04  0.00000000000E+00 0. -1.
          6    1    1    2  501    0 -0.76111454563E+02  0.38385915368E+02 -0.14362654871E+03  0.23974782065E+03  0.17200000000E+03 0. -1.
         -6    1    1    2    0  503  0.76111454563E+02 -0.38385915368E+02 -0.20815660522E+04  0.20903989240E+04  0.17200000000E+03 0. -1.
</event>
<event>
 4    1  0.5743594E+000  0.1881775E+03  0.7818608E-02  0.1160115E+00
         21   -1    0    0  503  502  0.00000000000E+00  0.00000000000E+00  0.12739473452E+04  0.12739473452E+04  0.00000000000E+00 0. -1.
         21   -1    0    0  501  503 -0.00000000000E+00 -0.00000000000E+00 -0.29471136032E+02  0.29471136032E+02  0.00000000000E+00 0. -1.
          6    1    1    2  501    0  0.71788721078E+02 -0.25944899213E+02  0.46686763179E+03  0.50336482185E+03  0.17200000000E+03 0. -1.
         -6    1    1    2    0  502 -0.71788721078E+02  0.25944899213E+02  0.77760857737E+03  0.80005365937E+03  0.17200000000E+03 0. -1.
</event>
<event>
 4    1  0.5743594E+000  0.2906296E+03  0.7818608E-02  0.1090021E+00
         21   -1    0    0  501  502  0.00000000000E+00  0.00000000000E+00  0.61708802842E+03  0.61708802842E+03  0.00000000000E+00 0.  1.
         21   -1    0    0  502  503 -0.00000000000E+00 -0.00000000000E+00 -0.33626662705E+03  0.33626662705E+03  0.00000000000E+00 0.  1.
          6    1    1    2  501    0 -0.20926935485E+03 -0.10529913813E+03  0.50746740701E+03  0.58479803398E+03  0.17200000000E+03 0.  1.
         -6    1    1    2    0  503  0.20926935485E+03  0.10529913813E+03 -0.22664600564E+03  0.36855662149E+03  0.17200000000E+03 0.  1.
</event>
<event>
 4    1  0.5743594E+000  0.2492516E+03  0.7818608E-02  0.1113779E+00
         21   -1    0    0  503  502  0.00000000000E+00  0.00000000000E+00  0.52841470617E+03  0.52841470617E+03  0.00000000000E+00 0. -1.
         21   -1    0    0  501  503 -0.00000000000E+00 -0.00000000000E+00 -0.17261713601E+03  0.17261713601E+03  0.00000000000E+00 0.  1.
          6    1    1    2  501    0 -0.14735527957E+03  0.10406132386E+03 -0.20038918582E+02  0.25005578537E+03  0.17200000000E+03 0.  1.
         -6    1    1    2    0  502  0.14735527957E+03 -0.10406132386E+03  0.37583648874E+03  0.45097605680E+03  0.17200000000E+03 0.  1.
</event>
<event>
 4    1  0.5743594E+000  0.1850621E+03  0.7818608E-02  0.1162992E+00
         21   -1    0    0  501  502  0.00000000000E+00  0.00000000000E+00  0.14445705234E+03  0.14445705234E+03  0.00000000000E+00 0. -1.
         21   -1    0    0  502  503 -0.00000000000E+00 -0.00000000000E+00 -0.35521889907E+03  0.35521889907E+03  0.00000000000E+00 0. -1.
          6    1    1    2  501    0  0.43242217285E+00 -0.68292014321E+02  0.38699674810E+02  0.18906520314E+03  0.17200000000E+03 0. -1.
         -6    1    1    2    0  503 -0.43242217285E+00  0.68292014321E+02 -0.24946152154E+03  0.31061074827E+03  0.17200000000E+03 0. -1.
</event>
<event>
 4    1  0.5743594E+000  0.1902224E+03  0.7818608E-02  0.1158261E+00
         21   -1    0    0  503  502  0.00000000000E+00  0.00000000000E+00  0.45004493643E+02  0.45004493643E+02  0.00000000000E+00 0.  1.
         21   -1    0    0  501  503 -0.00000000000E+00 -0.00000000000E+00 -0.15151557793E+04  0.15151557793E+04  0.00000000000E+00 0.  1.
          6    1    1    2  501    0 -0.14668178559E+01 -0.81230504154E+02 -0.12695004564E+04  0.12836728381E+04  0.17200000000E+03 0.  1.
         -6    1    1    2    0  502  0.14668178559E+01  0.81230504154E+02 -0.20065082919E+03  0.27648743482E+03  0.17200000000E+03 0.  1.
</event>
<event>
 4    1  0.5743594E+000  0.1901519E+03  0.7818608E-02  0.1158324E+00
         21   -1    0    0  503  502  0.00000000000E+00  0.00000000000E+00  0.22340203540E+04  0.22340203540E+04  0.00000000000E+00 0.  1.
         21   -1    0    0  501  503 -0.00000000000E+00 -0.00000000000E+00 -0.45158881649E+02  0.45158881649E+02  0.00000000000E+00 0.  1.
          6    1    1    2  501    0 -0.43835663732E+02  0.68206910625E+02  0.18162196572E+03  0.26295301197E+03  0.17200000000E+03 0.  1.
         -6    1    1    2    0  502  0.43835663732E+02 -0.68206910625E+02  0.20072395066E+04  0.20162262237E+04  0.17200000000E+03 0.  1.
</event>
<event>
 4    1  0.5743594E+000  0.2904042E+03  0.7818608E-02  0.1090138E+00
         21   -1    0    0  503  502  0.00000000000E+00  0.00000000000E+00  0.69042208764E+03  0.69042208764E+03  0.00000000000E+00 0. -1.
         21   -1    0    0  501  503 -0.00000000000E+00 -0.00000000000E+00 -0.13234602542E+03  0.13234602542E+03  0.00000000000E+00 0.  1.
          6    1    1    2  501    0 -0.19631173098E+03  0.12732757181E+03  0.39322627495E+03  0.48883689465E+03  0.17200000000E+03 0.  1.
         -6    1    1    2    0  502  0.19631173098E+03 -0.12732757181E+03  0.16484978728E+03  0.33393121841E+03  0.17200000000E+03 0. -1.
</event>
<event>
 4    1  0.5743594E+000  0.1865743E+03  0.7818608E-02  0.1161588E+00
         21   -1    0    0  501  502  0.00000000000E+00  0.00000000000E+00  0.69665640037E+03  0.69665640037E+03  0.00000000000E+00 0. -1.
         21   -1    0    0  502  503 -0.00000000000E+00 -0.00000000000E+00 -0.54003347189E+02  0.54003347189E+02  0.00000000000E+00 0. -1.
          6    1    1    2  501    0 -0.55945252515E+00 -0.72288668400E+02  0.42393581760E+03  0.46317549807E+03  0.17200000000E+03 0. -1.
         -6    1    1    2    0  503  0.55945252515E+00  0.72288668400E+02  0.21871723559E+03  0.28748424950E+03  0.17200000000E+03 0. -1.
</event>
<event>
 4    1  0.5743594E+000  0.1772335E+03  0.7818608E-02  0.1170508E+00
         21   -1    0    0  501  502  0.00000000000E+00  0.00000000000E+00  0.40433629149E+03  0.40433629149E+03  0.00000000000E+00 0. -1.
         21   -1    0    0  502  503 -0.00000000000E+00 -0.00000000000E+00 -0.10260927729E+03  0.10260927729E+03  0.00000000000E+00 0. -1.
          6    1    1    2  501    0 -0.42717923771E+02 -0.17013413857E+01  0.27578321956E+03  0.32782327521E+03  0.17200000000E+03 0. -1.
         -6    1    1    2    0  503  0.42717923771E+02  0.17013413857E+01  0.25943794642E+02  0.17912229357E+03  0.17200000000E+03 0. -1.
</event>
<event>
 4    1  0.5743594E+000  0.1737357E+03  0.7818608E-02  0.1174007E+00
         21   -1    0    0  501  502  0.00000000000E+00  0.00000000000E+00  0.26322020972E+03  0.26322020972E+03  0.00000000000E+00 0.  1.
         21   -1    0    0  502  503 -0.00000000000E+00 -0.00000000000E+00 -0.29147176259E+03  0.29147176259E+03  0.00000000000E+00 0.  1.
          6    1    1    2  501    0 -0.18067321761E+02  0.16543279881E+02  0.20187928050E+03  0.26634442386E+03  0.17200000000E+03 0.  1.
         -6    1    1    2    0  503  0.18067321761E+02 -0.16543279881E+02 -0.23013083338E+03  0.28834754845E+03  0.17200000000E+03 0.  1.
</event>
<event>
 4    1  0.5743594E+000  0.2213995E+03  0.7818608E-02  0.1132844E+00
         21   -1    0    0  503  502  0.00000000000E+00  0.00000000000E+00  0.42294215760E+03  0.42294215760E+03  0.00000000000E+00 0.  1.
         21   -1    0    0  501  503 -0.00000000000E+00 -0.00000000000E+00 -0.12757563278E+03  0.12757563278E+03  0.00000000000E+00 0.  1.
          6    1    1    2  501    0 -0.12870253600E+03 -0.53566678083E+02  0.64400849585E+02  0.23057580359E+03  0.17200000000E+03 0.  1.
         -6    1    1    2    0  502  0.12870253600E+03  0.53566678083E+02  0.23096567524E+03  0.31994198679E+03  0.17200000000E+03 0.  1.
</event>
<event>
 4    1  0.5743594E+000  0.2173316E+03  0.7818608E-02  0.1135888E+00
         21   -1    0    0  503  502  0.00000000000E+00  0.00000000000E+00  0.83977117698E+02  0.83977117698E+02  0.00000000000E+00 0.  1.
         21   -1    0    0  501  503 -0.00000000000E+00 -0.00000000000E+00 -0.99461427141E+03  0.99461427141E+03  0.00000000000E+00 0. -1.
          6    1    1    2  501    0 -0.10995135604E+03  0.74563576843E+02 -0.81080535646E+03  0.83942739635E+03  0.17200000000E+03 0. -1.
         -6    1    1    2    0  502  0.10995135604E+03 -0.74563576843E+02 -0.99831797253E+02  0.23916399275E+03  0.17200000000E+03 0.  1.
</event>
<event>
 4    1  0.5743594E+000  0.2340004E+03  0.7818608E-02  0.1123855E+00
         21   -1    0    0  501  502  0.00000000000E+00  0.00000000000E+00  0.51165240354E+03  0.51165240354E+03  0.00000000000E+00 0. -1.
         21   -1    0    0  502  503 -0.00000000000E+00 -0.00000000000E+00 -0.11716055557E+03  0.11716055557E+03  0.00000000000E+00 0.  1.
          6    1    1    2  501    0  0.92649209820E+02  0.12879566798E+03  0.28975126457E+03  0.37244059324E+03  0.17200000000E+03 0.  1.
         -6    1    1    2    0  503 -0.92649209820E+02 -0.12879566798E+03  0.10474058339E+03  0.25637236587E+03  0.17200000000E+03 0. -1.
</event>
<event>
 4    1  0.5743594E+000  0.2144575E+03  0.7818608E-02  0.1138084E+00
         21   -1    0    0  503  502  0.00000000000E+00  0.00000000000E+00  0.75149816567E+03  0.75149816567E+03  0.00000000000E+00 0.  1.
         21   -1    0    0  501  503 -0.00000000000E+00 -0.00000000000E+00 -0.89715970436E+02  0.89715970436E+02  0.00000000000E+00 0.  1.
          6    1    1    2  501    0  0.28822779614E+02 -0.12480888699E+03  0.93763287710E+02  0.23405889220E+03  0.17200000000E+03 0.  1.
         -6    1    1    2    0  502 -0.28822779614E+02  0.12480888699E+03  0.56801890752E+03  0.60715524390E+03  0.17200000000E+03 0.  1.
</event>
<event>
 4    1  0.5743594E+000  0.1730525E+03  0.7818608E-02  0.1174701E+00
         21   -1    0    0  503  502  0.00000000000E+00  0.00000000000E+00  0.21901838262E+02  0.21901838262E+02  0.00000000000E+00 0. -1.
         21   -1    0    0  501  503 -0.00000000000E+00 -0.00000000000E+00 -0.15713746840E+04  0.15713746840E+04  0.00000000000E+00 0. -1.
          6    1    1    2  501    0  0.80989940241E+01 -0.17249915037E+02 -0.10618002350E+04  0.10758098774E+04  0.17200000000E+03 0. -1.
         -6    1    1    2    0  502 -0.80989940241E+01  0.17249915037E+02 -0.48767261065E+03  0.51746664477E+03  0.17200000000E+03 0. -1.
</event>
<event>
 4    1  0.5743594E+000  0.2552530E+03  0.7818608E-02  0.1110029E+00
         21   -1    0    0  503  502  0.00000000000E+00  0.00000000000E+00  0.38669350847E+03  0.38669350847E+03  0.00000000000E+00 0.  1.
         21   -1    0    0  501  503 -0.00000000000E+00 -0.00000000000E+00 -0.29141707066E+03  0.29141707066E+03  0.00000000000E+00 0.  1.
          6    1    1    2  501    0 -0.39188071856E+02 -0.18448413818E+03 -0.17257139739E+03  0.30811522100E+03  0.17200000000E+03 0.  1.
         -6    1    1    2    0  502  0.39188071856E+02  0.18448413818E+03  0.26784783520E+03  0.36999535813E+03  0.17200000000E+03 0.  1.
</event>
<event>
 4    1  0.5743594E+000  0.2011950E+03  0.7818608E-02  0.1148735E+00
         21   -1    0    0  501  502  0.00000000000E+00  0.00000000000E+00  0.12110648284E+04  0.12110648284E+04  0.00000000000E+00 0.  1.
         21   -1    0    0  502  503 -0.00000000000E+00 -0.00000000000E+00 -0.10189796678E+03  0.10189796678E+03  0.00000000000E+00 0. -1.
          6    1    1    2  501    0 -0.10313521758E+03 -0.16079169578E+02  0.10927297341E+04  0.11110975135E+04  0.17200000000E+03 0.  1.
         -6    1    1    2    0  503  0.10313521758E+03  0.16079169578E+02  0.16437127603E+02  0.20186528172E+03  0.17200000000E+03 0. -1.
</event>
<event>
 4    1  0.5743594E+000  0.1791836E+03  0.7818608E-02  0.1168596E+00
         21   -1    0    0  503  502  0.00000000000E+00  0.00000000000E+00  0.72835096493E+02  0.72835096493E+02  0.00000000000E+00 0.  1.
         21   -1    0    0  501  503 -0.00000000000E+00 -0.00000000000E+00 -0.63187210446E+03  0.63187210446E+03  0.00000000000E+00 0.  1.
          6    1    1    2  501    0  0.20990459907E+02  0.45630663187E+02 -0.47327061339E+03  0.50605516530E+03  0.17200000000E+03 0.  1.
         -6    1    1    2    0  502 -0.20990459907E+02 -0.45630663187E+02 -0.85766394579E+02  0.19865203565E+03  0.17200000000E+03 0.  1.
</event>
<event>
 4    1  0.5743594E+000  0.2045618E+03  0.7818608E-02  0.1145946E+00
         21   -1    0    0  501  502  0.00000000000E+00  0.00000000000E+00  0.88951328034E+02  0.88951328034E+02  0.00000000000E+00 0. -1.
         21   -1    0    0  502  503 -0.00000000000E+00 -0.00000000000E+00 -0.85084381863E+03  0.85084381863E+03  0.00000000000E+00 0. -1.
          6    1    1    2  501    0 -0.88440156184E+01 -0.11037800681E+03 -0.66746757855E+02  0.21517585990E+03  0.17200000000E+03 0. -1.
         -6    1    1    2    0  503  0.88440156184E+01  0.11037800681E+03 -0.69514573274E+03  0.72461928676E+03  0.17200000000E+03 0. -1.
</event>
<event>
 4    1  0.5743594E+000  0.1756500E+03  0.7818608E-02  0.1172081E+00
         21   -1    0    0  501  502  0.00000000000E+00  0.00000000000E+00  0.22064353500E+04  0.22064353500E+04  0.00000000000E+00 0.  1.
         21   -1    0    0  502  503 -0.00000000000E+00 -0.00000000000E+00 -0.44060428771E+02  0.44060428771E+02  0.00000000000E+00 0.  1.
          6    1    1    2  501    0 -0.30652760804E+02  0.18147219493E+02  0.15148682416E+03  0.23195079481E+03  0.17200000000E+03 0.  1.
         -6    1    1    2    0  503  0.30652760804E+02 -0.18147219493E+02  0.20108880971E+04  0.20185449840E+04  0.17200000000E+03 0.  1.
</event>
<event>
 4    1  0.5743594E+000  0.2074616E+03  0.7818608E-02  0.1143592E+00
         21   -1    0    0  501  502  0.00000000000E+00  0.00000000000E+00  0.30621319030E+03  0.30621319030E+03  0.00000000000E+00 0. -1.
         21   -1    0    0  502  503 -0.00000000000E+00 -0.00000000000E+00 -0.15391385622E+03  0.15391385622E+03  0.00000000000E+00 0. -1.
          6    1    1    2  501    0 -0.10711879625E+03 -0.44518239028E+02  0.83751866549E+01  0.20763057065E+03  0.17200000000E+03 0. -1.
         -6    1    1    2    0  503  0.10711879625E+03  0.44518239028E+02  0.14392414742E+03  0.25249647587E+03  0.17200000000E+03 0. -1.
</event>
<event>
 4    1  0.5743594E+000  0.1924507E+03  0.7818608E-02  0.1156269E+00
         21   -1    0    0  503  502  0.00000000000E+00  0.00000000000E+00  0.16568424220E+03  0.16568424220E+03  0.00000000000E+00 0. -1.
         21   -1    0    0  501  503 -0.00000000000E+00 -0.00000000000E+00 -0.30013475894E+03  0.30013475894E+03  0.00000000000E+00 0. -1.
          6    1    1    2  501    0  0.25327361013E+02 -0.82533720354E+02 -0.18488409978E+03  0.26686966962E+03  0.17200000000E+03 0. -1.
         -6    1    1    2    0  502 -0.25327361013E+02  0.82533720354E+02  0.50433583050E+02  0.19894933152E+03  0.17200000000E+03 0. -1.
</event>
<event>
 4    1  0.5743594E+000  0.2003744E+03  0.7818608E-02  0.1149423E+00
         21   -1    0    0  501  502  0.00000000000E+00  0.00000000000E+00  0.34982482181E+03  0.34982482181E+03  0.00000000000E+00 0.  1.
         21   -1    0    0  502  503 -0.00000000000E+00 -0.00000000000E+00 -0.13131392229E+03  0.13131392229E+03  0.00000000000E+00 0.  1.
          6    1    1    2  501    0 -0.91196561986E+02 -0.47424725670E+02  0.19464103803E+03  0.27934754555E+03  0.17200000000E+03 0. -1.
         -6    1    1    2    0  503  0.91196561986E+02  0.47424725670E+02  0.23869861487E+02  0.20179119855E+03  0.17200000000E+03 0. -1.
</event>
<event>
 4    1  0.5743594E+000  0.1740973E+03  0.7818608E-02  0.1173641E+00
         21   -1    0    0  503  502  0.00000000000E+00  0.00000000000E+00  0.16733078950E+03  0.16733078950E+03  0.00000000000E+00 0. -1.
         21   -1    0    0  501  503 -0.00000000000E+00 -0.00000000000E+00 -0.21572843020E+03  0.21572843020E+03  0.00000000000E+00 0. -1.
          6    1    1    2  501    0 -0.13195326340E+02  0.23489342260E+02 -0.10089326682E+03  0.20121957441E+03  0.17200000000E+03 0. -1.
         -6    1    1    2    0  502  0.13195326340E+02 -0.23489342260E+02  0.52495626126E+02  0.18183964529E+03  0.17200000000E+03 0. -1.
</event>
<event>
 4    1  0.5743594E+000  0.1943350E+03  0.7818608E-02  0.1154609E+00
         21   -1    0    0  501  502  0.00000000000E+00  0.00000000000E+00  0.31656447146E+03  0.31656447146E+03  0.00000000000E+00 0. -1.
         21   -1    0    0  502  503 -0.00000000000E+00 -0.00000000000E+00 -0.13068819877E+03  0.13068819877E+03  0.00000000000E+00 0. -1.
          6    1    1    2  501    0 -0.71055004096E+02 -0.55975755551E+02  0.26924318979E+02  0.19619127852E+03  0.17200000000E+03 0. -1.
         -6    1    1    2    0  503  0.71055004096E+02  0.55975755551E+02  0.15895195372E+03  0.25106139171E+03  0.17200000000E+03 0. -1.
</event>
<event>
 4    1  0.5743594E+000  0.1861051E+03  0.7818608E-02  0.1162022E+00
         21   -1    0    0  503  502  0.00000000000E+00  0.00000000000E+00  0.39789510543E+03  0.39789510543E+03  0.00000000000E+00 0. -1.
         21   -1    0    0  501  503 -0.00000000000E+00 -0.00000000000E+00 -0.89801882093E+02  0.89801882093E+02  0.00000000000E+00 0. -1.
          6    1    1    2  501    0 -0.69606604847E+02 -0.14353197451E+02  0.11132730110E+03  0.21686138819E+03  0.17200000000E+03 0. -1.
         -6    1    1    2    0  502  0.69606604847E+02  0.14353197451E+02  0.19676592224E+03  0.27083559934E+03  0.17200000000E+03 0. -1.
</event>
<event>
 4    1  0.5743594E+000  0.2376863E+03  0.7818608E-02  0.1121344E+00
         21   -1    0    0  503  502  0.00000000000E+00  0.00000000000E+00  0.24639319896E+03  0.24639319896E+03  0.00000000000E+00 0. -1.
         21   -1    0    0  501  503 -0.00000000000E+00 -0.00000000000E+00 -0.24006554669E+03  0.24006554669E+03  0.00000000000E+00 0. -1.
          6    1    1    2  501    0  0.12917448852E+03  0.10111737390E+03  0.54702119107E+02  0.24389976143E+03  0.17200000000E+03 0. -1.
         -6    1    1    2    0  502 -0.12917448852E+03 -0.10111737390E+03 -0.48374466841E+02  0.24255898423E+03  0.17200000000E+03 0. -1.
</event>
<event>
 4    1  0.5743594E+000  0.1778721E+03  0.7818608E-02  0.1169878E+00
         21   -1    0    0  503  502  0.00000000000E+00  0.00000000000E+00  0.53355716911E+02  0.53355716911E+02  0.00000000000E+00 0.  1.
         21   -1    0    0  501  503 -0.00000000000E+00 -0.00000000000E+00 -0.91806535289E+03  0.91806535289E+03  0.00000000000E+00 0.  1.
          6    1    1    2  501    0  0.44683615374E+02 -0.76058694970E+01 -0.72138580877E+03  0.74299122460E+03  0.17200000000E+03 0.  1.
         -6    1    1    2    0  502 -0.44683615374E+02  0.76058694970E+01 -0.14332382721E+03  0.22842984520E+03  0.17200000000E+03 0.  1.
</event>
<event>
 4    1  0.5743594E+000  0.1780877E+03  0.7818608E-02  0.1169667E+00
         21   -1    0    0  501  502  0.00000000000E+00  0.00000000000E+00  0.11855995881E+03  0.11855995881E+03  0.00000000000E+00 0. -1.
         21   -1    0    0  502  503 -0.00000000000E+00 -0.00000000000E+00 -0.27108361079E+03  0.27108361079E+03  0.00000000000E+00 0.  1.
          6    1    1    2  501    0 -0.47496883077E+01  0.45920441155E+02 -0.98649675037E+02  0.20358537482E+03  0.17200000000E+03 0. -1.
         -6    1    1    2    0  503  0.47496883077E+01 -0.45920441155E+02 -0.53873976947E+02  0.18605819479E+03  0.17200000000E+03 0.  1.
</event>
<event>
 4    1  0.5743594E+000  0.1819594E+03  0.7818608E-02  0.1165920E+00
         21   -1    0    0  501  502  0.00000000000E+00  0.00000000000E+00  0.26308652185E+03  0.26308652185E+03  0.00000000000E+00 0.  1.
         21   -1    0    0  502  503 -0.00000000000E+00 -0.00000000000E+00 -0.25635611325E+03  0.25635611325E+03  0.00000000000E+00 0.  1.
          6    1    1    2  501    0 -0.52374669311E+02  0.27966430971E+02  0.18867676929E+03  0.26212239606E+03  0.17200000000E+03 0.  1.
         -6    1    1    2    0  503  0.52374669311E+02 -0.27966430971E+02 -0.18194636070E+03  0.25732023904E+03  0.17200000000E+03 0.  1.
</event>
<event>
 4    1  0.5743594E+000  0.2214678E+03  0.7818608E-02  0.1132793E+00
         21   -1    0    0  503  502  0.00000000000E+00  0.00000000000E+00  0.79466131541E+02  0.79466131541E+02  0.00000000000E+00 0. -1.
         21   -1    0    0  501  503 -0.00000000000E+00 -0.00000000000E+00 -0.11337703982E+04  0.11337703982E+04  0.00000000000E+00 0.  1.
          6    1    1    2  501    0  0.13741669520E+03  0.24096690232E+02 -0.93661048778E+03  0.96243815615E+03  0.17200000000E+03 0.  1.
         -6    1    1    2    0  502 -0.13741669520E+03 -0.24096690232E+02 -0.11769377885E+03  0.25079837356E+03  0.17200000000E+03 0. -1.
</event>
<event>
 4    1  0.5743594E+000  0.1811267E+03  0.7818608E-02  0.1166717E+00
         21   -1    0    0  503  502  0.00000000000E+00  0.00000000000E+00  0.13160816692E+03  0.13160816692E+03  0.00000000000E+00 0. -1.
         21   -1    0    0  501  503 -0.00000000000E+00 -0.00000000000E+00 -0.24933081158E+03  0.24933081158E+03  0.00000000000E+00 0.  1.
          6    1    1    2  501    0 -0.11446835473E+02  0.55604577543E+02 -0.61657511755E+02  0.19133360354E+03  0.17200000000E+03 0. -1.
         -6    1    1    2    0  502  0.11446835473E+02 -0.55604577543E+02 -0.56065132902E+02  0.18960537496E+03  0.17200000000E+03 0.  1.
</event>
<event>
 4    1  0.5743594E+000  0.1863269E+03  0.7818608E-02  0.1161817E+00
         21   -1    0    0  503  502  0.00000000000E+00  0.00000000000E+00  0.18778125445E+03  0.18778125445E+03  0.00000000000E+00 0.  1.
         21   -1    0    0  501  503 -0.00000000000E+00 -0.00000000000E+00 -0.19842561081E+03  0.19842561081E+03  0.00000000000E+00 0.  1.
          6    1    1    2  501    0  0.69587161138E+02  0.17069102535E+02  0.45123990750E+02  0.19171307154E+03  0.17200000000E+03 0. -1.
         -6    1    1    2    0  502 -0.69587161138E+02 -0.17069102535E+02 -0.55768347115E+02  0.19449379372E+03  0.17200000000E+03 0. -1.
</event>
<event>
 4    1  0.5743594E+000  0.3344843E+03  0.7818608E-02  0.1069170E+00
         21   -1    0    0  501  502  0.00000000000E+00  0.00000000000E+00  0.64376032356E+03  0.64376032356E+03  0.00000000000E+00 0. -1.
         21   -1    0    0  502  503 -0.00000000000E+00 -0.00000000000E+00 -0.26516098555E+03  0.26516098555E+03  0.00000000000E+00 0.  1.
          6    1    1    2  501    0 -0.13596274157E+02 -0.28655001789E+03  0.45607347073E+03  0.56558180852E+03  0.17200000000E+03 0.  1.
         -6    1    1    2    0  503  0.13596274157E+02  0.28655001789E+03 -0.77474132725E+02  0.34333950059E+03  0.17200000000E+03 0. -1.
</event>
<event>
 4    1  0.5743594E+000  0.1842422E+03  0.7818608E-02  0.1163759E+00
         21   -1    0    0  501  502  0.00000000000E+00  0.00000000000E+00  0.70508196436E+02  0.70508196436E+02  0.00000000000E+00 0. -1.
         21   -1    0    0  502  503 -0.00000000000E+00 -0.00000000000E+00 -0.57427595775E+03  0.57427595775E+03  0.00000000000E+00 0. -1.
          6    1    1    2  501    0 -0.61523931706E+02  0.23999991767E+02 -0.12225815888E+03  0.22111592252E+03  0.17200000000E+03 0. -1.
         -6    1    1    2    0  503  0.61523931706E+02 -0.23999991767E+02 -0.38150960243E+03  0.42366823167E+03  0.17200000000E+03 0. -1.
</event>
<event>
 4    1  0.5743594E+000  0.2109529E+03  0.7818608E-02  0.1140814E+00
         21   -1    0    0  503  502  0.00000000000E+00  0.00000000000E+00  0.16290119995E+04  0.16290119995E+04  0.00000000000E+00 0. -1.
         21   -1    0    0  501  503 -0.00000000000E+00 -0.00000000000E+00 -0.27772987200E+02  0.27772987200E+02  0.00000000000E+00 0.  1.
          6    1    1    2  501    0  0.86235294373E+02 -0.86490426959E+02  0.69457412006E+03  0.72590242334E+03  0.17200000000E+03 0.  1.
         -6    1    1    2    0  502 -0.86235294373E+02  0.86490426959E+02  0.90666489224E+03  0.93088256337E+03  0.17200000000E+03 0. -1.
</event>
<event>
 4    1  0.5743594E+000  0.2328466E+03  0.7818608E-02  0.1124652E+00
         21   -1    0    0  503  502  0.00000000000E+00  0.00000000000E+00  0.22098795596E+04  0.22098795596E+04  0.00000000000E+00 0.  1.
         21   -1    0    0  501  503 -0.00000000000E+00 -0.00000000000E+00 -0.24630567665E+02  0.24630567665E+02  0.00000000000E+00 0.  1.
          6    1    1    2  501    0  0.23763208721E+02  0.15514141108E+03  0.11625220383E+04  0.11856116721E+04  0.17200000000E+03 0.  1.
         -6    1    1    2    0  502 -0.23763208721E+02 -0.15514141108E+03  0.10227269536E+04  0.10488984552E+04  0.17200000000E+03 0.  1.
</event>
<event>
 4    1  0.5743594E+000  0.2182431E+03  0.7818608E-02  0.1135200E+00
         21   -1    0    0  503  502  0.00000000000E+00  0.00000000000E+00  0.21286649924E+03  0.21286649924E+03  0.00000000000E+00 0. -1.
         21   -1    0    0  501  503 -0.00000000000E+00 -0.00000000000E+00 -0.16120992933E+04  0.16120992933E+04  0.00000000000E+00 0.  1.
          6    1    1    2  501    0 -0.23846817378E+02  0.13220198344E+03 -0.15464095961E+04  0.15617338678E+04  0.17200000000E+03 0.  1.
         -6    1    1    2    0  502  0.23846817378E+02 -0.13220198344E+03  0.14717680202E+03  0.26323192470E+03  0.17200000000E+03 0. -1.
</event>
<event>
 4    1  0.5743594E+000  0.1774420E+03  0.7818608E-02  0.1170302E+00
         21   -1    0    0  501  502  0.00000000000E+00  0.00000000000E+00  0.39785253278E+03  0.39785253278E+03  0.00000000000E+00 0.  1.
         21   -1    0    0  502  503 -0.00000000000E+00 -0.00000000000E+00 -0.10036076544E+03  0.10036076544E+03  0.00000000000E+00 0.  1.
          6    1    1    2  501    0 -0.21240875349E+02  0.38085445718E+02  0.34196313066E+02  0.18070712158E+03  0.17200000000E+03 0.  1.
         -6    1    1    2    0  503  0.21240875349E+02 -0.38085445718E+02  0.26329545427E+03  0.31750617664E+03  0.17200000000E+03 0.  1.
</event>
<event>
 4    1  0.5743594E+000  0.2009948E+03  0.7818608E-02  0.1148902E+00
         21   -1    0    0  503  502  0.00000000000E+00  0.00000000000E+00  0.14734599808E+03  0.14734599808E+03  0.00000000000E+00 0. -1.
         21   -1    0    0  501  503 -0.00000000000E+00 -0.00000000000E+00 -0.27681408487E+03  0.27681408487E+03  0.00000000000E+00 0. -1.
          6    1    1    2  501    0  0.10170972377E+03  0.21680870482E+02 -0.44035347594E+02  0.20576209537E+03  0.17200000000E+03 0. -1.
         -6    1    1    2    0  502 -0.10170972377E+03 -0.21680870482E+02 -0.85432739197E+02  0.21839798758E+03  0.17200000000E+03 0. -1.
</event>
<event>
 4    1  0.5743594E+000  0.1786077E+03  0.7818608E-02  0.1169157E+00
         21   -1    0    0  503  502  0.00000000000E+00  0.00000000000E+00  0.10679039918E+03  0.10679039918E+03  0.00000000000E+00 0. -1.
         21   -1    0    0  501  503 -0.00000000000E+00 -0.00000000000E+00 -0.39780443109E+03  0.39780443109E+03  0.00000000000E+00 0.  1.
          6    1    1    2  501    0 -0.25500253486E+02  0.40822084039E+02 -0.27142130264E+03  0.32491572599E+03  0.17200000000E+03 0.  1.
         -6    1    1    2    0  502  0.25500253486E+02 -0.40822084039E+02 -0.19592729268E+02  0.17967910428E+03  0.17200000000E+03 0. -1.
</event>
<event>
 4    1  0.5743594E+000  0.2546575E+03  0.7818608E-02  0.1110396E+00
         21   -1    0    0  503  502  0.00000000000E+00  0.00000000000E+00  0.12197168976E+04  0.12197168976E+04  0.00000000000E+00 0.  1.
         21   -1    0    0  501  503 -0.00000000000E+00 -0.00000000000E+00 -0.98984596226E+02  0.98984596226E+02  0.00000000000E+00 0.  1.
          6    1    1    2  501    0  0.97381848056E+02 -0.16057150253E+03  0.11178391580E+03  0.27811162433E+03  0.17200000000E+03 0.  1.
         -6    1    1    2    0  502 -0.97381848056E+02  0.16057150253E+03  0.10089483855E+04  0.10405898695E+04  0.17200000000E+03 0.  1.
</event>
<event>
 4    1  0.5743594E+000  0.2392931E+03  0.7818608E-02  0.1120265E+00
         21   -1    0    0  503  502  0.00000000000E+00  0.00000000000E+00  0.69197900145E+03  0.69197900145E+03  0.00000000000E+00 0.  1.
         21   -1    0    0  501  503 -0.00000000000E+00 -0.00000000000E+00 -0.18355388778E+03  0.18355388778E+03  0.00000000000E+00 0.  1.
          6    1    1    2  501    0 -0.14946847292E+03  0.73050412695E+02 -0.70201415382E+02  0.24937807825E+03  0.17200000000E+03 0.  1.
         -6    1    1    2    0  502  0.14946847292E+03 -0.73050412695E+02  0.57862652905E+03  0.62615481098E+03  0.17200000000E+03 0.  1.
</event>
<event>
 4    1  0.5743594E+000  0.1941459E+03  0.7818608E-02  0.1154774E+00
         21   -1    0    0  501  502  0.00000000000E+00  0.00000000000E+00  0.53133114740E+03  0.53133114740E+03  0.00000000000E+00 0.  1.
         21   -1    0    0  502  503 -0.00000000000E+00 -0.00000000000E+00 -0.14871526195E+03  0.14871526195E+03  0.00000000000E+00 0.  1.
          6    1    1    2  501    0 -0.52188554996E+02 -0.73382529137E+02  0.43720395093E+03  0.47837217264E+03  0.17200000000E+03 0.  1.
         -6    1    1    2    0  503  0.52188554996E+02  0.73382529137E+02 -0.54588065475E+02  0.20167423670E+03  0.17200000000E+03 0.  1.
</event>
<event>
 4    1  0.5743594E+000  0.2304709E+03  0.7818608E-02  0.1126309E+00
         21   -1    0    0  501  502  0.00000000000E+00  0.00000000000E+00  0.88181169059E+02  0.88181169059E+02  0.00000000000E+00 0.  1.
         21   -1    0    0  502  503 -0.00000000000E+00 -0.00000000000E+00 -0.12129003773E+04  0.12129003773E+04  0.00000000000E+00 0.  1.
          6    1    1    2  501    0  0.49061915665E+02 -0.14534710152E+03 -0.10080936541E+03  0.25155392989E+03  0.17200000000E+03 0.  1.
         -6    1    1    2    0  503 -0.49061915665E+02  0.14534710152E+03 -0.10239098429E+04  0.10495276165E+04  0.17200000000E+03 0.  1.
</event>
<event>
 4    1  0.5743594E+000  0.1832552E+03  0.7818608E-02  0.1164689E+00
         21   -1    0    0  501  502  0.00000000000E+00  0.00000000000E+00  0.18799627888E+03  0.18799627888E+03  0.00000000000E+00 0.  1.
         21   -1    0    0  502  503 -0.00000000000E+00 -0.00000000000E+00 -0.21014142280E+03  0.21014142280E+03  0.00000000000E+00 0.  1.
          6    1    1    2  501    0 -0.30554026379E+02 -0.55361882235E+02  0.66009860222E+02  0.19478138561E+03  0.17200000000E+03 0. -1.
         -6    1    1    2    0  503  0.30554026379E+02  0.55361882235E+02 -0.88155004135E+02  0.20335631607E+03  0.17200000000E+03 0. -1.
</event>
<event>
 4    1  0.5743594E+000  0.1721946E+03  0.7818608E-02  0.1175578E+00
         21   -1    0    0  501  502  0.00000000000E+00  0.00000000000E+00  0.54826849148E+02  0.54826849148E+02  0.00000000000E+00 0. -1.
         21   -1    0    0  502  503 -0.00000000000E+00 -0.00000000000E+00 -0.60943448699E+03  0.60943448699E+03  0.00000000000E+00 0. -1.
          6    1    1    2  501    0 -0.67136439456E+01 -0.46813427329E+01 -0.16585372945E+03  0.23907832933E+03  0.17200000000E+03 0.  1.
         -6    1    1    2    0  503  0.67136439456E+01  0.46813427329E+01 -0.38875390839E+03  0.42518300680E+03  0.17200000000E+03 0.  1.
</event>
<event>
 4    1  0.5743594E+000  0.2584502E+03  0.7818608E-02  0.1108078E+00
         21   -1    0    0  501  502  0.00000000000E+00  0.00000000000E+00  0.13300503334E+03  0.13300503334E+03  0.00000000000E+00 0.  1.
         21   -1    0    0  502  503 -0.00000000000E+00 -0.00000000000E+00 -0.61949692927E+03  0.61949692927E+03  0.00000000000E+00 0. -1.
          6    1    1    2  501    0  0.12223588098E+03 -0.14923428533E+03 -0.40695870642E+03  0.48209114413E+03  0.17200000000E+03 0. -1.
         -6    1    1    2    0  503 -0.12223588098E+03  0.14923428533E+03 -0.79533189507E+02  0.27041081848E+03  0.17200000000E+03 0.  1.
</event>
<event>
 4    1  0.5743594E+000  0.1758692E+03  0.7818608E-02  0.1171862E+00
         21   -1    0    0  501  502  0.00000000000E+00  0.00000000000E+00  0.39719171371E+02  0.39719171371E+02  0.00000000000E+00 0. -1.
         21   -1    0    0  502  503 -0.00000000000E+00 -0.00000000000E+00 -0.80560064083E+03  0.80560064083E+03  0.00000000000E+00 0. -1.
          6    1    1    2  501    0 -0.31115380592E+02 -0.19437747031E+02 -0.46015106449E+03  0.49261444870E+03  0.17200000000E+03 0.  1.
         -6    1    1    2    0  503  0.31115380592E+02  0.19437747031E+02 -0.30573040498E+03  0.35270536351E+03  0.17200000000E+03 0.  1.
</event>
<event>
 4    1  0.5743594E+000  0.2206420E+03  0.7818608E-02  0.1133405E+00
         21   -1    0    0  503  502  0.00000000000E+00  0.00000000000E+00  0.10733556648E+03  0.10733556648E+03  0.00000000000E+00 0.  1.
         21   -1    0    0  501  503 -0.00000000000E+00 -0.00000000000E+00 -0.45640149418E+03  0.45640149418E+03  0.00000000000E+00 0. -1.
          6    1    1    2  501    0  0.63919580751E+02 -0.12252827231E+03 -0.19678191700E+03  0.29564507974E+03  0.17200000000E+03 0.  1.
         -6    1    1    2    0  502 -0.63919580751E+02  0.12252827231E+03 -0.15228401069E+03  0.26809198091E+03  0.17200000000E+03 0. -1.
</event>
<event>
 4    1  0.5743594E+000  0.2366995E+03  0.7818608E-02  0.1122011E+00
         21   -1    0    0  503  502  0.00000000000E+00  0.00000000000E+00  0.12362401573E+04  0.12362401573E+04  0.00000000000E+00 0. -1.
         21   -1    0    0  501  503 -0.00000000000E+00 -0.00000000000E+00 -0.47730196198E+02  0.47730196198E+02  0.00000000000E+00 0. -1.
          6    1    1    2  501    0 -0.98170660471E+01  0.16231538866E+03  0.44999830713E+03  0.50845367203E+03  0.17200000000E+03 0. -1.
         -6    1    1    2    0  502  0.98170660471E+01 -0.16231538866E+03  0.73851165402E+03  0.77551668151E+03  0.17200000000E+03 0. -1.
</event>
<event>
 4    1  0.5743594E+000  0.1877357E+03  0.7818608E-02  0.1160520E+00
         21   -1    0    0  503  502  0.00000000000E+00  0.00000000000E+00  0.42473178381E+02  0.42473178381E+02  0.00000000000E+00 0.  1.
         21   -1    0    0  501  503 -0.00000000000E+00 -0.00000000000E+00 -0.12020138105E+04  0.12020138105E+04  0.00000000000E+00 0. -1.
          6    1    1    2  501    0 -0.62334396643E+02 -0.42132173785E+02 -0.92602499146E+03  0.94486347262E+03  0.17200000000E+03 0. -1.
         -6    1    1    2    0  502  0.62334396643E+02  0.42132173785E+02 -0.23351564070E+03  0.29962351630E+03  0.17200000000E+03 0.  1.
</event>
<event>
 4    1  0.5743594E+000  0.1958759E+03  0.7818608E-02  0.1153266E+00
         21   -1    0    0  501  502  0.00000000000E+00  0.00000000000E+00  0.21205277629E+03  0.21205277629E+03  0.00000000000E+00 0. -1.
         21   -1    0    0  502  503 -0.00000000000E+00 -0.00000000000E+00 -0.93128158073E+03  0.93128158073E+03  0.00000000000E+00 0.  1.
          6    1    1    2  501    0  0.67840038531E+02  0.64661495431E+02  0.15352366845E+03  0.24887124501E+03  0.17200000000E+03 0. -1.
         -6    1    1    2    0  503 -0.67840038531E+02 -0.64661495431E+02 -0.87275247288E+03  0.89446311201E+03  0.17200000000E+03 0.  1.
</event>
<event>
 4    1  0.5743594E+000  0.1787645E+03  0.7818608E-02  0.1169004E+00
         21   -1    0    0  501  502  0.00000000000E+00  0.00000000000E+00  0.50904725787E+03  0.50904725787E+03  0.00000000000E+00 0.  1.
         21   -1    0    0  502  503 -0.00000000000E+00 -0.00000000000E+00 -0.62880292108E+02  0.62880292108E+02  0.00000000000E+00 0.  1.
          6    1    1    2  501    0 -0.44886136059E+02 -0.18920594679E+02  0.23464109356E+03  0.29497999407E+03  0.17200000000E+03 0.  1.
         -6    1    1    2    0  503  0.44886136059E+02  0.18920594679E+02  0.21152587220E+03  0.27694755591E+03  0.17200000000E+03 0.  1.
</event>
<event>
 4    1  0.5743594E+000  0.1861023E+03  0.7818608E-02  0.1162025E+00
         21   -1    0    0  501  502  0.00000000000E+00  0.00000000000E+00  0.15893537366E+03  0.15893537366E+03  0.00000000000E+00 0. -1.
         21   -1    0    0  502  503 -0.00000000000E+00 -0.00000000000E+00 -0.21888420850E+03  0.21888420850E+03  0.00000000000E+00 0. -1.
          6    1    1    2  501    0 -0.55329497740E+02  0.44594897809E+02 -0.17389804780E+02  0.18691298387E+03  0.17200000000E+03 0.  1.
         -6    1    1    2    0  503  0.55329497740E+02 -0.44594897809E+02 -0.42559030053E+02  0.19090659829E+03  0.17200000000E+03 0.  1.
</event>
<event>
 4    1  0.5743594E+000  0.3399468E+03  0.7818608E-02  0.1066819E+00
         21   -1    0    0  503  502  0.00000000000E+00  0.00000000000E+00  0.12250796168E+04  0.12250796168E+04  0.00000000000E+00 0.  1.
         21   -1    0    0  501  503 -0.00000000000E+00 -0.00000000000E+00 -0.12450978989E+03  0.12450978989E+03  0.00000000000E+00 0. -1.
          6    1    1    2  501    0  0.18700413078E+03 -0.22585230120E+03  0.21807238985E+03  0.40388039579E+03  0.17200000000E+03 0. -1.
         -6    1    1    2    0  502 -0.18700413078E+03  0.22585230120E+03  0.88249743703E+03  0.94570901088E+03  0.17200000000E+03 0.  1.
</event>
<event>
 4    1  0.5743594E+000  0.2243136E+03  0.7818608E-02  0.1130707E+00
         21   -1    0    0  503  502  0.00000000000E+00  0.00000000000E+00  0.20821055746E+03  0.20821055746E+03  0.00000000000E+00 0.  1.
         21   -1    0    0  501  503 -0.00000000000E+00 -0.00000000000E+00 -0.26380830323E+03  0.26380830323E+03  0.00000000000E+00 0. -1.
          6    1    1    2  501    0 -0.10689784627E+03  0.96464809892E+02 -0.96179702472E+02  0.24406381185E+03  0.17200000000E+03 0. -1.
         -6    1    1    2    0  502  0.10689784627E+03 -0.96464809892E+02  0.40581956698E+02  0.22795504885E+03  0.17200000000E+03 0.  1.
</event>
<event>
 4    1  0.5743594E+000  0.1811938E+03  0.7818608E-02  0.1166653E+00
         21   -1    0    0  503  502  0.00000000000E+00  0.00000000000E+00  0.12364246954E+03  0.12364246954E+03  0.00000000000E+00 0.  1.
         21   -1    0    0  501  503 -0.00000000000E+00 -0.00000000000E+00 -0.31199827674E+03  0.31199827674E+03  0.00000000000E+00 0.  1.
          6    1    1    2  501    0 -0.54265712303E+02 -0.17390060443E+02 -0.17823718756E+03  0.25416466466E+03  0.17200000000E+03 0.  1.
         -6    1    1    2    0  502  0.54265712303E+02  0.17390060443E+02 -0.10118619643E+02  0.18147608161E+03  0.17200000000E+03 0.  1.
</event>
<event>
 4    1  0.5743594E+000  0.1989832E+03  0.7818608E-02  0.1150600E+00
         21   -1    0    0  501  502  0.00000000000E+00  0.00000000000E+00  0.25539545771E+03  0.25539545771E+03  0.00000000000E+00 0. -1.
         21   -1    0    0  502  503 -0.00000000000E+00 -0.00000000000E+00 -0.16966064260E+03  0.16966064260E+03  0.00000000000E+00 0. -1.
          6    1    1    2  501    0  0.98412554267E+02  0.18035336046E+02  0.10527497786E+03  0.22511580386E+03  0.17200000000E+03 0. -1.
         -6    1    1    2    0  503 -0.98412554267E+02 -0.18035336046E+02 -0.19540162750E+02  0.19994029645E+03  0.17200000000E+03 0. -1.
</event>
<event>
 4    1  0.5743594E+000  0.2734569E+03  0.7818608E-02  0.1099317E+00
         21   -1    0    0  501  502  0.00000000000E+00  0.00000000000E+00  0.47628230353E+03  0.47628230353E+03  0.00000000000E+00 0.  1.
         21   -1    0    0  502  503 -0.00000000000E+00 -0.00000000000E+00 -0.17027384942E+03  0.17027384942E+03  0.00000000000E+00 0.  1.
          6    1    1    2  501    0  0.10890196343E+03  0.18257889729E+03  0.24324842943E+03  0.36598974001E+03  0.17200000000E+03 0.  1.
         -6    1    1    2    0  503 -0.10890196343E+03 -0.18257889729E+03  0.62760024690E+02  0.28056641294E+03  0.17200000000E+03 0.  1.
</event>
<event>
 4    1  0.5743594E+000  0.2236691E+03  0.7818608E-02  0.1131177E+00
         21   -1    0    0  501  502  0.00000000000E+00  0.00000000000E+00  0.39711259945E+03  0.39711259945E+03  0.00000000000E+00 0. -1.
         21   -1    0    0  502  503 -0.00000000000E+00 -0.00000000000E+00 -0.12706571857E+03  0.12706571857E+03  0.00000000000E+00 0.  1.
          6    1    1    2  501    0  0.13446185092E+03  0.48619789552E+02  0.15926054640E+03  0.27457566339E+03  0.17200000000E+03 0. -1.
         -6    1    1    2    0  503 -0.13446185092E+03 -0.48619789552E+02  0.11078633448E+03  0.24960265462E+03  0.17200000000E+03 0.  1.
</event>
<event>
 4    1  0.5743594E+000  0.3135438E+03  0.7818608E-02  0.1078660E+00
         21   -1    0    0  501  502  0.00000000000E+00  0.00000000000E+00  0.99896582103E+02  0.99896582103E+02  0.00000000000E+00 0. -1.
         21   -1    0    0  502  503 -0.00000000000E+00 -0.00000000000E+00 -0.11936750093E+04  0.11936750093E+04  0.00000000000E+00 0.  1.
          6    1    1    2  501    0 -0.21455121529E+03  0.15064366153E+03 -0.27588783230E+03  0.41764079393E+03  0.17200000000E+03 0. -1.
         -6    1    1    2    0  503  0.21455121529E+03 -0.15064366153E+03 -0.81789059486E+03  0.87593079743E+03  0.17200000000E+03 0. -1.
</event>
<event>
 4    1  0.5743594E+000  0.1860741E+03  0.7818608E-02  0.1162051E+00
         21   -1    0    0  503  502  0.00000000000E+00  0.00000000000E+00  0.54953388295E+02  0.54953388295E+02  0.00000000000E+00 0. -1.
         21   -1    0    0  501  503 -0.00000000000E+00 -0.00000000000E+00 -0.94182647561E+03  0.94182647561E+03  0.00000000000E+00 0. -1.
          6    1    1    2  501    0 -0.63999984739E+02 -0.30717776549E+02 -0.73018624952E+03  0.75352208914E+03  0.17200000000E+03 0.  1.
         -6    1    1    2    0  502  0.63999984739E+02  0.30717776549E+02 -0.15668683779E+03  0.24325777476E+03  0.17200000000E+03 0.  1.
</event>
<event>
 4    1  0.5743594E+000  0.2168432E+03  0.7818608E-02  0.1136259E+00
         21   -1    0    0  501  502  0.00000000000E+00  0.00000000000E+00  0.76588748013E+03  0.76588748013E+03  0.00000000000E+00 0.  1.
         21   -1    0    0  502  503 -0.00000000000E+00 -0.00000000000E+00 -0.13751625038E+03  0.13751625038E+03  0.00000000000E+00 0.  1.
          6    1    1    2  501    0  0.30834155452E+02  0.12839877520E+03  0.65025606658E+03  0.68545892856E+03  0.17200000000E+03 0.  1.
         -6    1    1    2    0  503 -0.30834155452E+02 -0.12839877520E+03 -0.21884836825E+02  0.21794480195E+03  0.17200000000E+03 0.  1.
</event>
<event>
 4    1  0.5743594E+000  0.2140202E+03  0.7818608E-02  0.1138421E+00
         21   -1    0    0  501  502  0.00000000000E+00  0.00000000000E+00  0.54649489529E+03  0.54649489529E+03  0.00000000000E+00 0. -1.
         21   -1    0    0  502  503 -0.00000000000E+00 -0.00000000000E+00 -0.14374916000E+03  0.14374916000E+03  0.00000000000E+00 0.  1.
          6    1    1    2  501    0  0.87025414439E+02 -0.92990463171E+02  0.42421948384E+03  0.47514926020E+03  0.17200000000E+03 0. -1.
         -6    1    1    2    0  503 -0.87025414439E+02  0.92990463171E+02 -0.21473748555E+02  0.21509479509E+03  0.17200000000E+03 0.  1.
</event>
<event>
 4    1  0.5743594E+000  0.1919084E+03  0.7818608E-02  0.1156751E+00
         21   -1    0    0  501  502  0.00000000000E+00  0.00000000000E+00  0.27444015680E+03  0.27444015680E+03  0.00000000000E+00 0.  1.
         21   -1    0    0  502  503 -0.00000000000E+00 -0.00000000000E+00 -0.14250274033E+03  0.14250274033E+03  0.00000000000E+00 0.  1.
          6    1    1    2  501    0  0.24251978871E+02  0.81588353994E+02  0.11630090025E+03  0.22439856815E+03  0.17200000000E+03 0.  1.
         -6    1    1    2    0  503 -0.24251978871E+02 -0.81588353994E+02  0.15636516216E+02  0.19254432899E+03  0.17200000000E+03 0.  1.
</event>
<event>
 4    1  0.5743594E+000  0.2660490E+03  0.7818608E-02  0.1103562E+00
         21   -1    0    0  501  502  0.00000000000E+00  0.00000000000E+00  0.66084388780E+03  0.66084388780E+03  0.00000000000E+00 0. -1.
         21   -1    0    0  502  503 -0.00000000000E+00 -0.00000000000E+00 -0.32271852232E+03  0.32271852232E+03  0.00000000000E+00 0.  1.
          6    1    1    2  501    0 -0.89979246405E+02  0.18193901611E+03  0.57103333076E+03  0.62996915417E+03  0.17200000000E+03 0. -1.
         -6    1    1    2    0  503  0.89979246405E+02 -0.18193901611E+03 -0.23290796527E+03  0.35359325595E+03  0.17200000000E+03 0.  1.
</event>
<event>
 4    1  0.5743594E+000  0.2442739E+03  0.7818608E-02  0.1116978E+00
         21   -1    0    0  503  502  0.00000000000E+00  0.00000000000E+00  0.96273926668E+03  0.96273926668E+03  0.00000000000E+00 0. -1.
         21   -1    0    0  501  503 -0.00000000000E+00 -0.00000000000E+00 -0.62226447900E+02  0.62226447900E+02  0.00000000000E+00 0. -1.
          6    1    1    2  501    0  0.10569978741E+03  0.13752562914E+03  0.41794780589E+03  0.48409721356E+03  0.17200000000E+03 0. -1.
         -6    1    1    2    0  502 -0.10569978741E+03 -0.13752562914E+03  0.48256501290E+03  0.54086850103E+03  0.17200000000E+03 0. -1.
</event>
<event>
 4    1  0.5743594E+000  0.2179719E+03  0.7818608E-02  0.1135404E+00
         21   -1    0    0  503  502  0.00000000000E+00  0.00000000000E+00  0.63471599626E+03  0.63471599626E+03  0.00000000000E+00 0.  1.
         21   -1    0    0  501  503 -0.00000000000E+00 -0.00000000000E+00 -0.77236220014E+02  0.77236220014E+02  0.00000000000E+00 0.  1.
          6    1    1    2  501    0  0.86894390036E+02  0.10186808700E+03  0.21623713477E+03  0.30703459189E+03  0.17200000000E+03 0.  1.
         -6    1    1    2    0  502 -0.86894390036E+02 -0.10186808700E+03  0.34124264148E+03  0.40491762438E+03  0.17200000000E+03 0.  1.
</event>
<event>
 4    1  0.5743594E+000  0.1896153E+03  0.7818608E-02  0.1158809E+00
         21   -1    0    0  501  502  0.00000000000E+00  0.00000000000E+00  0.97710877621E+02  0.97710877621E+02  0.00000000000E+00 0.  1.
         21   -1    0    0  502  503 -0.00000000000E+00 -0.00000000000E+00 -0.39112954254E+03  0.39112954254E+03  0.00000000000E+00 0.  1.
          6    1    1    2  501    0  0.12637546330E+02  0.78805090635E+02 -0.20619482175E+03  0.28012542620E+03  0.17200000000E+03 0.  1.
         -6    1    1    2    0  503 -0.12637546330E+02 -0.78805090635E+02 -0.87223843170E+02  0.20871499396E+03  0.17200000000E+03 0.  1.
</event>
<event>
 4    1  0.5743594E+000  0.1985297E+03  0.7818608E-02  0.1150985E+00
         21   -1    0    0  503  502  0.00000000000E+00  0.00000000000E+00  0.21683981515E+03  0.21683981515E+03  0.00000000000E+00 0. -1.
         21   -1    0    0  501  503 -0.00000000000E+00 -0.00000000000E+00 -0.18492678540E+03  0.18492678540E+03  0.00000000000E+00 0. -1.
          6    1    1    2  501    0  0.97421402343E+02 -0.18415177731E+02  0.42220439672E+02  0.20296949015E+03  0.17200000000E+03 0. -1.
         -6    1    1    2    0  502 -0.97421402343E+02  0.18415177731E+02 -0.10307409928E+02  0.19879711040E+03  0.17200000000E+03 0. -1.
</event>
<event>
 4    1  0.5743594E+000  0.2646726E+03  0.7818608E-02  0.1104368E+00
         21   -1    0    0  503  502  0.00000000000E+00  0.00000000000E+00  0.48136654354E+03  0.48136654354E+03  0.00000000000E+00 0.  1.
         21   -1    0    0  501  503 -0.00000000000E+00 -0.00000000000E+00 -0.40057105366E+03  0.40057105366E+03  0.00000000000E+00 0. -1.
          6    1    1    2  501    0 -0.19881505014E+03 -0.30662311216E+02 -0.31146726629E+03  0.40873397151E+03  0.17200000000E+03 0. -1.
         -6    1    1    2    0  502  0.19881505014E+03  0.30662311216E+02  0.39226275617E+03  0.47320362569E+03  0.17200000000E+03 0.  1.
</event>
<event>
 4    1  0.5743594E+000  0.1875183E+03  0.7818608E-02  0.1160719E+00
         21   -1    0    0  503  502  0.00000000000E+00  0.00000000000E+00  0.91485024519E+02  0.91485024519E+02  0.00000000000E+00 0.  1.
         21   -1    0    0  501  503 -0.00000000000E+00 -0.00000000000E+00 -0.38438081996E+03  0.38438081996E+03  0.00000000000E+00 0. -1.
          6    1    1    2  501    0  0.73168024113E+02 -0.15018740479E+02 -0.14822714722E+03  0.23902805168E+03  0.17200000000E+03 0. -1.
         -6    1    1    2    0  502 -0.73168024113E+02  0.15018740479E+02 -0.14466864822E+03  0.23683779280E+03  0.17200000000E+03 0. -1.
</event>
<event>
 4    1  0.5743594E+000  0.2169691E+03  0.7818608E-02  0.1136163E+00
         21   -1    0    0  501  502  0.00000000000E+00  0.00000000000E+00  0.27066222309E+03  0.27066222309E+03  0.00000000000E+00 0. -1.
         21   -1    0    0  502  503 -0.00000000000E+00 -0.00000000000E+00 -0.33766915457E+03  0.33766915457E+03  0.00000000000E+00 0.  1.
          6    1    1    2  501    0 -0.73145612376E+02  0.11018761980E+03  0.17830541793E+03  0.28083520832E+03  0.17200000000E+03 0. -1.
         -6    1    1    2    0  503  0.73145612376E+02 -0.11018761980E+03 -0.24531234941E+03  0.32749616935E+03  0.17200000000E+03 0.  1.
</event>
<event>
 4    1  0.5743594E+000  0.1907419E+03  0.7818608E-02  0.1157794E+00
         21   -1    0    0  501  502  0.00000000000E+00  0.00000000000E+00  0.23277115301E+03  0.23277115301E+03  0.00000000000E+00 0. -1.
         21   -1    0    0  502  503 -0.00000000000E+00 -0.00000000000E+00 -0.27755409248E+03  0.27755409248E+03  0.00000000000E+00 0. -1.
          6    1    1    2  501    0  0.32065981528E+02  0.75962138989E+02  0.14625948630E+03  0.24036287372E+03  0.17200000000E+03 0. -1.
         -6    1    1    2    0  503 -0.32065981528E+02 -0.75962138989E+02 -0.19104242576E+03  0.26996237177E+03  0.17200000000E+03 0. -1.
</event>
<event>
 4    1  0.5743594E+000  0.1843571E+03  0.7818608E-02  0.1163652E+00
         21   -1    0    0  501  502  0.00000000000E+00  0.00000000000E+00  0.29206334041E+03  0.29206334041E+03  0.00000000000E+00 0. -1.
         21   -1    0    0  502  503 -0.00000000000E+00 -0.00000000000E+00 -0.16119405911E+03  0.16119405911E+03  0.00000000000E+00 0.  1.
          6    1    1    2  501    0 -0.38620520218E+02  0.53962806518E+02  0.18494182731E+03  0.26113408157E+03  0.17200000000E+03 0. -1.
         -6    1    1    2    0  503  0.38620520218E+02 -0.53962806518E+02 -0.54072546013E+02  0.19212331795E+03  0.17200000000E+03 0.  1.
</event>
<event>
 4    1  0.5743594E+000  0.2259670E+03  0.7818608E-02  0.1129511E+00
         21   -1    0    0  501  502  0.00000000000E+00  0.00000000000E+00  0.15288719858E+03  0.15288719858E+03  0.00000000000E+00 0.  1.
         21   -1    0    0  502  503 -0.00000000000E+00 -0.00000000000E+00 -0.37186283202E+03  0.37186283202E+03  0.00000000000E+00 0.  1.
          6    1    1    2  501    0  0.11634321574E+03 -0.89114082195E+02 -0.19323301667E+03  0.29732147959E+03  0.17200000000E+03 0.  1.
         -6    1    1    2    0  503 -0.11634321574E+03  0.89114082195E+02 -0.25742616767E+02  0.22742855101E+03  0.17200000000E+03 0.  1.
</event>
<event>
 4    1  0.5743594E+000  0.3390762E+03  0.7818608E-02  0.1067190E+00
         21   -1    0    0  501  502  0.00000000000E+00  0.00000000000E+00  0.18157088138E+03  0.18157088138E+03  0.00000000000E+00 0.  1.
         21   -1    0    0  502  503 -0.00000000000E+00 -0.00000000000E+00 -0.94963006327E+03  0.94963006327E+03  0.00000000000E+00 0. -1.
          6    1    1    2  501    0  0.16412856227E+03 -0.24176532556E+03 -0.71051512143E+03  0.78727656854E+03  0.17200000000E+03 0. -1.
         -6    1    1    2    0  503 -0.16412856227E+03  0.24176532556E+03 -0.57544060463E+02  0.34392437612E+03  0.17200000000E+03 0.  1.
</event>
<event>
 4    1  0.5743594E+000  0.1909855E+03  0.7818608E-02  0.1157575E+00
         21   -1    0    0  503  502  0.00000000000E+00  0.00000000000E+00  0.23158188629E+02  0.23158188629E+02  0.00000000000E+00 0. -1.
         21   -1    0    0  501  503 -0.00000000000E+00 -0.00000000000E+00 -0.16079263012E+04  0.16079263012E+04  0.00000000000E+00 0. -1.
          6    1    1    2  501    0  0.47401648801E+02 -0.68150941616E+02 -0.67578135399E+03  0.70225060025E+03  0.17200000000E+03 0. -1.
         -6    1    1    2    0  502 -0.47401648801E+02  0.68150941616E+02 -0.90898675857E+03  0.92883388957E+03  0.17200000000E+03 0. -1.
</event>
<event>
 4    1  0.5743594E+000  0.2768489E+03  0.7818608E-02  0.1097423E+00
         21   -1    0    0  501  502  0.00000000000E+00  0.00000000000E+00  0.27440420558E+03  0.27440420558E+03  0.00000000000E+00 0. -1.
         21   -1    0    0  502  503 -0.00000000000E+00 -0.00000000000E+00 -0.47675636603E+03  0.47675636603E+03  0.00000000000E+00 0.  1.
          6    1    1    2  501    0 -0.48283906921E+02 -0.21149459335E+03  0.14052203208E+03  0.31047019210E+03  0.17200000000E+03 0. -1.
         -6    1    1    2    0  503  0.48283906921E+02  0.21149459335E+03 -0.34287419253E+03  0.44069037951E+03  0.17200000000E+03 0.  1.
</event>
<event>
 4    1  0.5743594E+000  0.2630289E+03  0.7818608E-02  0.1105337E+00
         21   -1    0    0  503  502  0.00000000000E+00  0.00000000000E+00  0.11793239228E+03  0.11793239228E+03  0.00000000000E+00 0.  1.
         21   -1    0    0  501  503 -0.00000000000E+00 -0.00000000000E+00 -0.58664344147E+03  0.58664344147E+03  0.00000000000E+00 0.  1.
          6    1    1    2  501    0  0.10424230425E+03  0.16951027324E+03 -0.23471922410E+03  0.35252986383E+03  0.17200000000E+03 0.  1.
         -6    1    1    2    0  502 -0.10424230425E+03 -0.16951027324E+03 -0.23399182508E+03  0.35204596992E+03  0.17200000000E+03 0.  1.
</event>
<event>
 4    1  0.5743594E+000  0.2063778E+03  0.7818608E-02  0.1144467E+00
         21   -1    0    0  501  502  0.00000000000E+00  0.00000000000E+00  0.11685401820E+03  0.11685401820E+03  0.00000000000E+00 0. -1.
         21   -1    0    0  502  503 -0.00000000000E+00 -0.00000000000E+00 -0.38644368527E+03  0.38644368527E+03  0.00000000000E+00 0.  1.
          6    1    1    2  501    0  0.51044290261E+02  0.10199159935E+03 -0.74811273184E+02  0.21951886593E+03  0.17200000000E+03 0. -1.
         -6    1    1    2    0  503 -0.51044290261E+02 -0.10199159935E+03 -0.19477839389E+03  0.28377883753E+03  0.17200000000E+03 0.  1.
</event>
<event>
 4    1  0.5743594E+000  0.1803868E+03  0.7818608E-02  0.1167429E+00
         21   -1    0    0  503  502  0.00000000000E+00  0.00000000000E+00  0.15033177885E+04  0.15033177885E+04  0.00000000000E+00 0.  1.
         21   -1    0    0  501  503 -0.00000000000E+00 -0.00000000000E+00 -0.25556849331E+02  0.25556849331E+02  0.00000000000E+00 0.  1.
          6    1    1    2  501    0  0.23770562878E+02 -0.48891271341E+02  0.43980813833E+03  0.47536364461E+03  0.17200000000E+03 0. -1.
         -6    1    1    2    0  502 -0.23770562878E+02  0.48891271341E+02  0.10379528008E+04  0.10535109932E+04  0.17200000000E+03 0. -1.
</event>
<event>
 4    1  0.5743594E+000  0.1821108E+03  0.7818608E-02  0.1165776E+00
         21   -1    0    0  501  502  0.00000000000E+00  0.00000000000E+00  0.62883107978E+03  0.62883107978E+03  0.00000000000E+00 0.  1.
         21   -1    0    0  502  503 -0.00000000000E+00 -0.00000000000E+00 -0.12387462077E+03  0.12387462077E+03  0.00000000000E+00 0.  1.
          6    1    1    2  501    0  0.56985114881E+02 -0.18249603638E+02  0.53767560240E+03  0.56767896276E+03  0.17200000000E+03 0.  1.
         -6    1    1    2    0  503 -0.56985114881E+02  0.18249603638E+02 -0.32719143393E+02  0.18502673778E+03  0.17200000000E+03 0.  1.
</event>
<event>
 4    1  0.5743594E+000  0.2134711E+03  0.7818608E-02  0.1138846E+00
         21   -1    0    0  503  502  0.00000000000E+00  0.00000000000E+00  0.86973345321E+02  0.86973345321E+02  0.00000000000E+00 0.  1.
         21   -1    0    0  501  503 -0.00000000000E+00 -0.00000000000E+00 -0.55993763701E+03  0.55993763701E+03  0.00000000000E+00 0.  1.
          6    1    1    2  501    0 -0.11097560339E+03  0.60583044208E+02 -0.31848087198E+03  0.38340573237E+03  0.17200000000E+03 0. -1.
         -6    1    1    2    0  502  0.11097560339E+03 -0.60583044208E+02 -0.15448341971E+03  0.26350524997E+03  0.17200000000E+03 0. -1.
</event>
<event>
 4    1  0.5743594E+000  0.1932391E+03  0.7818608E-02  0.1155572E+00
         21   -1    0    0  501  502  0.00000000000E+00  0.00000000000E+00  0.50026836907E+03  0.50026836907E+03  0.00000000000E+00 0. -1.
         21   -1    0    0  502  503 -0.00000000000E+00 -0.00000000000E+00 -0.15825824775E+03  0.15825824775E+03  0.00000000000E+00 0. -1.
          6    1    1    2  501    0  0.71935579449E+02 -0.50819631329E+02  0.41033871983E+03  0.45356281540E+03  0.17200000000E+03 0. -1.
         -6    1    1    2    0  503 -0.71935579449E+02  0.50819631329E+02 -0.68328598505E+02  0.20496380142E+03  0.17200000000E+03 0. -1.
</event>
<event>
 4    1  0.5743594E+000  0.2232173E+03  0.7818608E-02  0.1131507E+00
         21   -1    0    0  501  502  0.00000000000E+00  0.00000000000E+00  0.35586933099E+02  0.35586933099E+02  0.00000000000E+00 0.  1.
         21   -1    0    0  502  503 -0.00000000000E+00 -0.00000000000E+00 -0.15341292772E+04  0.15341292772E+04  0.00000000000E+00 0. -1.
          6    1    1    2  501    0  0.62001816525E+02  0.12805372713E+03 -0.51730356100E+03  0.56340833905E+03  0.17200000000E+03 0.  1.
         -6    1    1    2    0  503 -0.62001816525E+02 -0.12805372713E+03 -0.98123878309E+03  0.10063078712E+04  0.17200000000E+03 0. -1.
</event>
<event>
 4    1  0.5743594E+000  0.2113428E+03  0.7818608E-02  0.1140507E+00
         21   -1    0    0  501  502  0.00000000000E+00  0.00000000000E+00  0.23838894349E+03  0.23838894349E+03  0.00000000000E+00 0.  1.
         21   -1    0    0  502  503 -0.00000000000E+00 -0.00000000000E+00 -0.71947189805E+03  0.71947189805E+03  0.00000000000E+00 0.  1.
          6    1    1    2  501    0 -0.18186802416E+02  0.12145384360E+03 -0.65241593686E+03  0.68579322727E+03  0.17200000000E+03 0.  1.
         -6    1    1    2    0  503  0.18186802416E+02 -0.12145384360E+03  0.17133298230E+03  0.27206761426E+03  0.17200000000E+03 0.  1.
</event>
<event>
 4    1  0.5743594E+000  0.1777559E+03  0.7818608E-02  0.1169993E+00
         21   -1    0    0  503  502  0.00000000000E+00  0.00000000000E+00  0.37336659432E+03  0.37336659432E+03  0.00000000000E+00 0.  1.
         21   -1    0    0  501  503 -0.00000000000E+00 -0.00000000000E+00 -0.22575165473E+03  0.22575165473E+03  0.00000000000E+00 0.  1.
          6    1    1    2  501    0  0.29751028054E+02  0.33586273501E+02 -0.16303927968E+03  0.24120316780E+03  0.17200000000E+03 0.  1.
         -6    1    1    2    0  502 -0.29751028054E+02 -0.33586273501E+02  0.31065421927E+03  0.35791508125E+03  0.17200000000E+03 0.  1.
</event>
<event>
 4    1  0.5743594E+000  0.2339100E+03  0.7818608E-02  0.1123918E+00
         21   -1    0    0  503  502  0.00000000000E+00  0.00000000000E+00  0.41252987303E+03  0.41252987303E+03  0.00000000000E+00 0. -1.
         21   -1    0    0  501  503 -0.00000000000E+00 -0.00000000000E+00 -0.17619603648E+03  0.17619603648E+03  0.00000000000E+00 0. -1.
          6    1    1    2  501    0 -0.15804053836E+03 -0.12371960365E+02 -0.28205290704E+02  0.23560436242E+03  0.17200000000E+03 0. -1.
         -6    1    1    2    0  502  0.15804053836E+03  0.12371960365E+02  0.26453912725E+03  0.35312154708E+03  0.17200000000E+03 0. -1.
</event>
<event>
 4    1  0.5743594E+000  0.2499145E+03  0.7818608E-02  0.1113359E+00
         21   -1    0    0  503  502  0.00000000000E+00  0.00000000000E+00  0.47632586389E+02  0.47632586389E+02  0.00000000000E+00 0.  1.
         21   -1    0    0  501  503 -0.00000000000E+00 -0.00000000000E+00 -0.16958747533E+04  0.16958747533E+04  0.00000000000E+00 0. -1.
          6    1    1    2  501    0 -0.18071541287E+03 -0.14669776197E+02 -0.40895012853E+03  0.47926763965E+03  0.17200000000E+03 0.  1.
         -6    1    1    2    0  502  0.18071541287E+03  0.14669776197E+02 -0.12392920384E+04  0.12642397000E+04  0.17200000000E+03 0. -1.
</event>
<event>
 4    1  0.5743594E+000  0.1924771E+03  0.7818608E-02  0.1156246E+00
         21   -1    0    0  503  502  0.00000000000E+00  0.00000000000E+00  0.19004711231E+02  0.19004711231E+02  0.00000000000E+00 0. -1.
         21   -1    0    0  501  503 -0.00000000000E+00 -0.00000000000E+00 -0.27648190739E+04  0.27648190739E+04  0.00000000000E+00 0. -1.
          6    1    1    2  501    0 -0.79207356636E+02 -0.34491192564E+02 -0.21288231733E+04  0.21375068539E+04  0.17200000000E+03 0. -1.
         -6    1    1    2    0  502  0.79207356636E+02  0.34491192564E+02 -0.61699118938E+03  0.64631693114E+03  0.17200000000E+03 0. -1.
</event>
<event>
 4    1  0.5743594E+000  0.1781454E+03  0.7818608E-02  0.1169610E+00
         21   -1    0    0  503  502  0.00000000000E+00  0.00000000000E+00  0.31222091810E+03  0.31222091810E+03  0.00000000000E+00 0.  1.
         21   -1    0    0  501  503 -0.00000000000E+00 -0.00000000000E+00 -0.18545556170E+03  0.18545556170E+03  0.00000000000E+00 0.  1.
          6    1    1    2  501    0  0.43312448092E+02 -0.16607254208E+02 -0.10389806632E+03  0.20622942864E+03  0.17200000000E+03 0.  1.
         -6    1    1    2    0  502 -0.43312448092E+02  0.16607254208E+02  0.23066342272E+03  0.29144705116E+03  0.17200000000E+03 0.  1.
</event>
<event>
 4    1  0.5743594E+000  0.2215645E+03  0.7818608E-02  0.1132722E+00
         21   -1    0    0  503  502  0.00000000000E+00  0.00000000000E+00  0.20055855259E+03  0.20055855259E+03  0.00000000000E+00 0.  1.
         21   -1    0    0  501  503 -0.00000000000E+00 -0.00000000000E+00 -0.27781143463E+03  0.27781143463E+03  0.00000000000E+00 0.  1.
          6    1    1    2  501    0  0.51355181257E+02  0.12988258519E+03 -0.12111320492E+03  0.25250593851E+03  0.17200000000E+03 0.  1.
         -6    1    1    2    0  502 -0.51355181257E+02 -0.12988258519E+03  0.43860322872E+02  0.22586404871E+03  0.17200000000E+03 0.  1.
</event>
<event>
 4    1  0.5743594E+000  0.1768316E+03  0.7818608E-02  0.1170905E+00
         21   -1    0    0  501  502  0.00000000000E+00  0.00000000000E+00  0.22250439798E+03  0.22250439798E+03  0.00000000000E+00 0. -1.
         21   -1    0    0  502  503 -0.00000000000E+00 -0.00000000000E+00 -0.14055481124E+03  0.14055481124E+03  0.00000000000E+00 0. -1.
          6    1    1    2  501    0  0.22306813342E+02 -0.34464591307E+02  0.43191083431E+02  0.18202986476E+03  0.17200000000E+03 0.  1.
         -6    1    1    2    0  503 -0.22306813342E+02  0.34464591307E+02  0.38758503310E+02  0.18102934446E+03  0.17200000000E+03 0.  1.
</event>
