<event>
 4    1  0.1232978E+000  0.1880339E+03  0.7818608E-02  0.1160247E+00
         21   -1    0    0  501  502  0.00000000000E+00  0.00000000000E+00  0.20241345821E+03  0.20241345821E+03  0.00000000000E+00 0. -1.
         21   -1    0    0  502  503 -0.00000000000E+00 -0.00000000000E+00 -0.32573780459E+03  0.32573780459E+03  0.00000000000E+00 0. -1.
          6    1    1    2  501    0  0.37312677225E+02 -0.66185457643E+02  0.11817179965E+03  0.22208404922E+03  0.17200000000E+03 0. -1.
         -6    1    1    2    0  503 -0.37312677225E+02  0.66185457643E+02 -0.24149614602E+03  0.30606721358E+03  0.17200000000E+03 0. -1.
</event>
<event>
 4    1  0.1232978E+000  0.2199794E+03  0.7818608E-02  0.1133898E+00
         21   -1    0    0  501  502  0.00000000000E+00  0.00000000000E+00  0.61148422479E+03  0.61148422479E+03  0.00000000000E+00 0.  1.
         21   -1    0    0  502  503 -0.00000000000E+00 -0.00000000000E+00 -0.79158406608E+02  0.79158406608E+02  0.00000000000E+00 0.  1.
          6    1    1    2  501    0 -0.74005379018E+02 -0.11545628690E+03  0.27185823928E+03  0.34971109873E+03  0.17200000000E+03 0.  1.
         -6    1    1    2    0  503  0.74005379018E+02  0.11545628690E+03  0.26046757890E+03  0.34093153266E+03  0.17200000000E+03 0.  1.
</event>
<event>
 4    1  0.1232978E+000  0.2020084E+03  0.7818608E-02  0.1148055E+00
         21   -1    0    0  503  502  0.00000000000E+00  0.00000000000E+00  0.11146980195E+04  0.11146980195E+04  0.00000000000E+00 0.  1.
         21   -1    0    0  501  503 -0.00000000000E+00 -0.00000000000E+00 -0.50930146892E+02  0.50930146892E+02  0.00000000000E+00 0.  1.
          6    1    1    2  501    0  0.42139327947E+02 -0.97199197541E+02  0.22282645234E+03  0.30076408500E+03  0.17200000000E+03 0.  1.
         -6    1    1    2    0  502 -0.42139327947E+02  0.97199197541E+02  0.84094142031E+03  0.86486408143E+03  0.17200000000E+03 0.  1.
</event>
<event>
 4    1  0.1232978E+000  0.1793019E+03  0.7818608E-02  0.1168480E+00
         21   -1    0    0  501  502  0.00000000000E+00  0.00000000000E+00  0.84055935285E+03  0.84055935285E+03  0.00000000000E+00 0. -1.
         21   -1    0    0  502  503 -0.00000000000E+00 -0.00000000000E+00 -0.53221969318E+02  0.53221969318E+02  0.00000000000E+00 0. -1.
          6    1    1    2  501    0 -0.41899220502E+02  0.28454101365E+02  0.63071515690E+03  0.65570632886E+03  0.17200000000E+03 0. -1.
         -6    1    1    2    0  503  0.41899220502E+02 -0.28454101365E+02  0.15662222663E+03  0.23807499331E+03  0.17200000000E+03 0. -1.
</event>
<event>
 4    1  0.1232978E+000  0.1830016E+03  0.7818608E-02  0.1164929E+00
         21   -1    0    0  501  502  0.00000000000E+00  0.00000000000E+00  0.87311913117E+03  0.87311913117E+03  0.00000000000E+00 0.  1.
         21   -1    0    0  502  503 -0.00000000000E+00 -0.00000000000E+00 -0.11269492012E+03  0.11269492012E+03  0.00000000000E+00 0.  1.
          6    1    1    2  501    0  0.12067170685E+02  0.61318575355E+02  0.78054401066E+03  0.80170975849E+03  0.17200000000E+03 0.  1.
         -6    1    1    2    0  503 -0.12067170685E+02 -0.61318575355E+02 -0.20119799608E+02  0.18410429280E+03  0.17200000000E+03 0.  1.
</event>
<event>
 4    1  0.1232978E+000  0.1895157E+03  0.7818608E-02  0.1158899E+00
         21   -1    0    0  501  502  0.00000000000E+00  0.00000000000E+00  0.16182613738E+03  0.16182613738E+03  0.00000000000E+00 0.  1.
         21   -1    0    0  502  503 -0.00000000000E+00 -0.00000000000E+00 -0.24080625075E+03  0.24080625075E+03  0.00000000000E+00 0.  1.
          6    1    1    2  501    0  0.76469137424E+02  0.22015675344E+02  0.16854273315E+02  0.19026372610E+03  0.17200000000E+03 0. -1.
         -6    1    1    2    0  503 -0.76469137424E+02 -0.22015675344E+02 -0.95834386685E+02  0.21236866203E+03  0.17200000000E+03 0. -1.
</event>
<event>
 4    1  0.1232978E+000  0.1767645E+03  0.7818608E-02  0.1170972E+00
         21   -1    0    0  501  502  0.00000000000E+00  0.00000000000E+00  0.64669153567E+02  0.64669153567E+02  0.00000000000E+00 0. -1.
         21   -1    0    0  502  503 -0.00000000000E+00 -0.00000000000E+00 -0.57816222326E+03  0.57816222326E+03  0.00000000000E+00 0. -1.
          6    1    1    2  501    0  0.18708895158E+02  0.36217013337E+02 -0.38703438527E+03  0.42548949481E+03  0.17200000000E+03 0. -1.
         -6    1    1    2    0  503 -0.18708895158E+02 -0.36217013337E+02 -0.12645868443E+03  0.21734188202E+03  0.17200000000E+03 0. -1.
</event>
<event>
 4    1  0.1232978E+000  0.2142444E+03  0.7818608E-02  0.1138248E+00
         21   -1    0    0  501  502  0.00000000000E+00  0.00000000000E+00  0.48957935329E+03  0.48957935329E+03  0.00000000000E+00 0.  1.
         21   -1    0    0  502  503 -0.00000000000E+00 -0.00000000000E+00 -0.93769702171E+02  0.93769702171E+02  0.00000000000E+00 0. -1.
          6    1    1    2  501    0  0.10717711513E+03 -0.69496301656E+02  0.20151682836E+03  0.29412531694E+03  0.17200000000E+03 0. -1.
         -6    1    1    2    0  503 -0.10717711513E+03  0.69496301656E+02  0.19429282276E+03  0.28922373853E+03  0.17200000000E+03 0.  1.
</event>
<event>
 4    1  0.1232978E+000  0.2439792E+03  0.7818608E-02  0.1117170E+00
         21   -1    0    0  501  502  0.00000000000E+00  0.00000000000E+00  0.64780659755E+02  0.64780659755E+02  0.00000000000E+00 0.  1.
         21   -1    0    0  502  503 -0.00000000000E+00 -0.00000000000E+00 -0.14655633591E+04  0.14655633591E+04  0.00000000000E+00 0. -1.
          6    1    1    2  501    0  0.16058366227E+03 -0.64457190015E+02 -0.23306147798E+03  0.33740701601E+03  0.17200000000E+03 0. -1.
         -6    1    1    2    0  503 -0.16058366227E+03  0.64457190015E+02 -0.11677212213E+04  0.11929370028E+04  0.17200000000E+03 0. -1.
</event>
<event>
 4    1  0.1232978E+000  0.1970338E+03  0.7818608E-02  0.1152266E+00
         21   -1    0    0  501  502  0.00000000000E+00  0.00000000000E+00  0.51238147051E+02  0.51238147051E+02  0.00000000000E+00 0. -1.
         21   -1    0    0  502  503 -0.00000000000E+00 -0.00000000000E+00 -0.93013744973E+03  0.93013744973E+03  0.00000000000E+00 0. -1.
          6    1    1    2  501    0  0.96115151026E+02  0.42049079535E+00 -0.22816485141E+03  0.30146558425E+03  0.17200000000E+03 0. -1.
         -6    1    1    2    0  503 -0.96115151026E+02 -0.42049079535E+00 -0.65073445127E+03  0.67991001253E+03  0.17200000000E+03 0. -1.
</event>
<event>
 4    1  0.1232978E+000  0.2643324E+03  0.7818608E-02  0.1104568E+00
         21   -1    0    0  503  502  0.00000000000E+00  0.00000000000E+00  0.80642997868E+02  0.80642997868E+02  0.00000000000E+00 0.  1.
         21   -1    0    0  501  503 -0.00000000000E+00 -0.00000000000E+00 -0.10577180342E+04  0.10577180342E+04  0.00000000000E+00 0.  1.
          6    1    1    2  501    0 -0.11323241366E+03  0.16572885674E+03 -0.73058873588E+03  0.77693727833E+03  0.17200000000E+03 0.  1.
         -6    1    1    2    0  502  0.11323241366E+03 -0.16572885674E+03 -0.24648630046E+03  0.36142375375E+03  0.17200000000E+03 0.  1.
</event>
<event>
 4    1  0.1232978E+000  0.2213673E+03  0.7818608E-02  0.1132868E+00
         21   -1    0    0  503  502  0.00000000000E+00  0.00000000000E+00  0.15234217636E+04  0.15234217636E+04  0.00000000000E+00 0. -1.
         21   -1    0    0  501  503 -0.00000000000E+00 -0.00000000000E+00 -0.36921751724E+02  0.36921751724E+02  0.00000000000E+00 0. -1.
          6    1    1    2  501    0  0.29048453656E+02 -0.13629250703E+03  0.46327038567E+03  0.51344221717E+03  0.17200000000E+03 0.  1.
         -6    1    1    2    0  502 -0.29048453656E+02  0.13629250703E+03  0.10232296262E+04  0.10469012981E+04  0.17200000000E+03 0.  1.
</event>
<event>
 4    1  0.1232978E+000  0.1886779E+03  0.7818608E-02  0.1159659E+00
         21   -1    0    0  501  502  0.00000000000E+00  0.00000000000E+00  0.15028984475E+03  0.15028984475E+03  0.00000000000E+00 0. -1.
         21   -1    0    0  502  503 -0.00000000000E+00 -0.00000000000E+00 -0.28390404118E+03  0.28390404118E+03  0.00000000000E+00 0. -1.
          6    1    1    2  501    0 -0.43955799123E+02 -0.63900212744E+02  0.21555425366E+02  0.18990520221E+03  0.17200000000E+03 0. -1.
         -6    1    1    2    0  503  0.43955799123E+02  0.63900212744E+02 -0.15516962179E+03  0.24428868372E+03  0.17200000000E+03 0. -1.
</event>
<event>
 4    1  0.1232978E+000  0.1756021E+03  0.7818608E-02  0.1172128E+00
         21   -1    0    0  503  502  0.00000000000E+00  0.00000000000E+00  0.14768801535E+03  0.14768801535E+03  0.00000000000E+00 0.  1.
         21   -1    0    0  501  503 -0.00000000000E+00 -0.00000000000E+00 -0.31809590674E+03  0.31809590674E+03  0.00000000000E+00 0.  1.
          6    1    1    2  501    0  0.31068806847E+02 -0.16936401205E+02 -0.22172285535E+03  0.28283765136E+03  0.17200000000E+03 0. -1.
         -6    1    1    2    0  502 -0.31068806847E+02  0.16936401205E+02  0.51314963957E+02  0.18294627072E+03  0.17200000000E+03 0. -1.
</event>
<event>
 4    1  0.1232978E+000  0.1846738E+03  0.7818608E-02  0.1163355E+00
         21   -1    0    0  501  502  0.00000000000E+00  0.00000000000E+00  0.44018630720E+02  0.44018630720E+02  0.00000000000E+00 0.  1.
         21   -1    0    0  502  503 -0.00000000000E+00 -0.00000000000E+00 -0.21276478545E+04  0.21276478545E+04  0.00000000000E+00 0.  1.
          6    1    1    2  501    0  0.23746823114E+02  0.62900652664E+02 -0.17596547741E+03  0.25508479561E+03  0.17200000000E+03 0.  1.
         -6    1    1    2    0  503 -0.23746823114E+02 -0.62900652664E+02 -0.19076637464E+04  0.19165816896E+04  0.17200000000E+03 0.  1.
</event>
<event>
 4    1  0.1232978E+000  0.2052290E+03  0.7818608E-02  0.1145401E+00
         21   -1    0    0  503  502  0.00000000000E+00  0.00000000000E+00  0.52228117499E+03  0.52228117499E+03  0.00000000000E+00 0. -1.
         21   -1    0    0  501  503 -0.00000000000E+00 -0.00000000000E+00 -0.94718041199E+02  0.94718041199E+02  0.00000000000E+00 0. -1.
          6    1    1    2  501    0 -0.29227728220E+02  0.10807728449E+03  0.94864488253E+02  0.22609341134E+03  0.17200000000E+03 0.  1.
         -6    1    1    2    0  502  0.29227728220E+02 -0.10807728449E+03  0.33269864554E+03  0.39090580485E+03  0.17200000000E+03 0.  1.
</event>
<event>
 4    1  0.1232978E+000  0.1754236E+03  0.7818608E-02  0.1172307E+00
         21   -1    0    0  501  502  0.00000000000E+00  0.00000000000E+00  0.10158176999E+04  0.10158176999E+04  0.00000000000E+00 0.  1.
         21   -1    0    0  502  503 -0.00000000000E+00 -0.00000000000E+00 -0.33764761162E+02  0.33764761162E+02  0.00000000000E+00 0.  1.
          6    1    1    2  501    0  0.47415708666E+01  0.34160717753E+02  0.65927502380E+03  0.68221477127E+03  0.17200000000E+03 0.  1.
         -6    1    1    2    0  503 -0.47415708666E+01 -0.34160717753E+02  0.32277791494E+03  0.36736768979E+03  0.17200000000E+03 0.  1.
</event>
<event>
 4    1  0.1232978E+000  0.2288754E+03  0.7818608E-02  0.1127434E+00
         21   -1    0    0  503  502  0.00000000000E+00  0.00000000000E+00  0.36115893659E+03  0.36115893659E+03  0.00000000000E+00 0.  1.
         21   -1    0    0  501  503 -0.00000000000E+00 -0.00000000000E+00 -0.14521443790E+03  0.14521443790E+03  0.00000000000E+00 0.  1.
          6    1    1    2  501    0  0.13653398449E+03  0.64485874061E+02  0.11664482762E+03  0.25688513520E+03  0.17200000000E+03 0. -1.
         -6    1    1    2    0  502 -0.13653398449E+03 -0.64485874061E+02  0.99299671066E+02  0.24948823930E+03  0.17200000000E+03 0. -1.
</event>
<event>
 4    1  0.1232978E+000  0.1942509E+03  0.7818608E-02  0.1154682E+00
         21   -1    0    0  503  502  0.00000000000E+00  0.00000000000E+00  0.19354161860E+03  0.19354161860E+03  0.00000000000E+00 0. -1.
         21   -1    0    0  501  503 -0.00000000000E+00 -0.00000000000E+00 -0.31360178569E+03  0.31360178569E+03  0.00000000000E+00 0. -1.
          6    1    1    2  501    0 -0.84023276884E+02  0.33007529522E+02 -0.21599442251E+03  0.29049440377E+03  0.17200000000E+03 0. -1.
         -6    1    1    2    0  502  0.84023276884E+02 -0.33007529522E+02  0.95934255429E+02  0.21664900052E+03  0.17200000000E+03 0. -1.
</event>
<event>
 4    1  0.1232978E+000  0.1809508E+03  0.7818608E-02  0.1166886E+00
         21   -1    0    0  501  502  0.00000000000E+00  0.00000000000E+00  0.37340483803E+03  0.37340483803E+03  0.00000000000E+00 0. -1.
         21   -1    0    0  502  503 -0.00000000000E+00 -0.00000000000E+00 -0.11742672976E+03  0.11742672976E+03  0.00000000000E+00 0. -1.
          6    1    1    2  501    0  0.39604472349E+02  0.39883091027E+02  0.25149253643E+03  0.30982522664E+03  0.17200000000E+03 0. -1.
         -6    1    1    2    0  503 -0.39604472349E+02 -0.39883091027E+02  0.44855718403E+01  0.18100634114E+03  0.17200000000E+03 0. -1.
</event>
<event>
 4    1  0.1232978E+000  0.2954199E+03  0.7818608E-02  0.1087553E+00
         21   -1    0    0  501  502  0.00000000000E+00  0.00000000000E+00  0.22391033939E+03  0.22391033939E+03  0.00000000000E+00 0. -1.
         21   -1    0    0  502  503 -0.00000000000E+00 -0.00000000000E+00 -0.39693254868E+03  0.39693254868E+03  0.00000000000E+00 0.  1.
          6    1    1    2  501    0 -0.42682758239E+02  0.23636216155E+03 -0.44803591715E+02  0.29879801052E+03  0.17200000000E+03 0. -1.
         -6    1    1    2    0  503  0.42682758239E+02 -0.23636216155E+03 -0.12821861757E+03  0.32204487755E+03  0.17200000000E+03 0.  1.
</event>
<event>
 4    1  0.1232978E+000  0.2633768E+03  0.7818608E-02  0.1105131E+00
         21   -1    0    0  503  502  0.00000000000E+00  0.00000000000E+00  0.75028184171E+03  0.75028184171E+03  0.00000000000E+00 0.  1.
         21   -1    0    0  501  503 -0.00000000000E+00 -0.00000000000E+00 -0.97597633032E+02  0.97597633032E+02  0.00000000000E+00 0.  1.
          6    1    1    2  501    0 -0.43882203228E+02 -0.19457059249E+03  0.42365583569E+03  0.49885030854E+03  0.17200000000E+03 0.  1.
         -6    1    1    2    0  502  0.43882203228E+02  0.19457059249E+03  0.22902837299E+03  0.34902916620E+03  0.17200000000E+03 0.  1.
</event>
<event>
 4    1  0.1232978E+000  0.2023049E+03  0.7818608E-02  0.1147809E+00
         21   -1    0    0  503  502  0.00000000000E+00  0.00000000000E+00  0.53491212225E+02  0.53491212225E+02  0.00000000000E+00 0. -1.
         21   -1    0    0  501  503 -0.00000000000E+00 -0.00000000000E+00 -0.80869798469E+03  0.80869798469E+03  0.00000000000E+00 0.  1.
          6    1    1    2  501    0  0.10320662331E+03  0.26299860148E+02 -0.27753330159E+03  0.34344144076E+03  0.17200000000E+03 0. -1.
         -6    1    1    2    0  502 -0.10320662331E+03 -0.26299860148E+02 -0.47767347088E+03  0.51874775616E+03  0.17200000000E+03 0. -1.
</event>
<event>
 4    1  0.1232978E+000  0.1884030E+03  0.7818608E-02  0.1159910E+00
         21   -1    0    0  503  502  0.00000000000E+00  0.00000000000E+00  0.66626822680E+03  0.66626822680E+03  0.00000000000E+00 0.  1.
         21   -1    0    0  501  503 -0.00000000000E+00 -0.00000000000E+00 -0.64076522783E+02  0.64076522783E+02  0.00000000000E+00 0. -1.
          6    1    1    2  501    0 -0.12281763188E+02  0.75900232078E+02  0.15116759805E+03  0.24155191913E+03  0.17200000000E+03 0. -1.
         -6    1    1    2    0  502  0.12281763188E+02 -0.75900232078E+02  0.45102410596E+03  0.48879283044E+03  0.17200000000E+03 0.  1.
</event>
<event>
 4    1  0.1232978E+000  0.1942501E+03  0.7818608E-02  0.1154683E+00
         21   -1    0    0  503  502  0.00000000000E+00  0.00000000000E+00  0.32353178561E+02  0.32353178561E+02  0.00000000000E+00 0.  1.
         21   -1    0    0  501  503 -0.00000000000E+00 -0.00000000000E+00 -0.13610857311E+04  0.13610857311E+04  0.00000000000E+00 0.  1.
          6    1    1    2  501    0 -0.71842204064E+02  0.54660604365E+02 -0.92794388959E+03  0.94805745933E+03  0.17200000000E+03 0.  1.
         -6    1    1    2    0  502  0.71842204064E+02 -0.54660604365E+02 -0.40078866294E+03  0.44538145033E+03  0.17200000000E+03 0.  1.
</event>
<event>
 4    1  0.1232978E+000  0.1939363E+03  0.7818608E-02  0.1154958E+00
         21   -1    0    0  503  502  0.00000000000E+00  0.00000000000E+00  0.99174425554E+03  0.99174425554E+03  0.00000000000E+00 0.  1.
         21   -1    0    0  501  503 -0.00000000000E+00 -0.00000000000E+00 -0.12754936722E+03  0.12754936722E+03  0.00000000000E+00 0.  1.
          6    1    1    2  501    0 -0.25968463899E+02  0.85749324411E+02 -0.37028422508E+02  0.19743964097E+03  0.17200000000E+03 0.  1.
         -6    1    1    2    0  502  0.25968463899E+02 -0.85749324411E+02  0.90122331083E+03  0.92185398178E+03  0.17200000000E+03 0.  1.
</event>
<event>
 4    1  0.1232978E+000  0.2327055E+03  0.7818608E-02  0.1124750E+00
         21   -1    0    0  501  502  0.00000000000E+00  0.00000000000E+00  0.18071443881E+03  0.18071443881E+03  0.00000000000E+00 0. -1.
         21   -1    0    0  502  503 -0.00000000000E+00 -0.00000000000E+00 -0.93772157996E+03  0.93772157996E+03  0.00000000000E+00 0.  1.
          6    1    1    2  501    0  0.14619624857E+03 -0.56519773593E+02  0.82790093065E+02  0.24699398254E+03  0.17200000000E+03 0. -1.
         -6    1    1    2    0  503 -0.14619624857E+03  0.56519773593E+02 -0.83979723422E+03  0.87144203622E+03  0.17200000000E+03 0.  1.
</event>
<event>
 4    1  0.1232978E+000  0.1746296E+03  0.7818608E-02  0.1173104E+00
         21   -1    0    0  503  502  0.00000000000E+00  0.00000000000E+00  0.42349437999E+02  0.42349437999E+02  0.00000000000E+00 0. -1.
         21   -1    0    0  501  503 -0.00000000000E+00 -0.00000000000E+00 -0.95325575183E+03  0.95325575183E+03  0.00000000000E+00 0. -1.
          6    1    1    2  501    0 -0.25450857914E+02  0.16240179495E+02 -0.70165029397E+03  0.72305506335E+03  0.17200000000E+03 0. -1.
         -6    1    1    2    0  502  0.25450857914E+02 -0.16240179495E+02 -0.20925601985E+03  0.27255012648E+03  0.17200000000E+03 0. -1.
</event>
<event>
 4    1  0.1232978E+000  0.2033338E+03  0.7818608E-02  0.1146956E+00
         21   -1    0    0  501  502  0.00000000000E+00  0.00000000000E+00  0.19192344985E+04  0.19192344985E+04  0.00000000000E+00 0. -1.
         21   -1    0    0  502  503 -0.00000000000E+00 -0.00000000000E+00 -0.21576510682E+02  0.21576510682E+02  0.00000000000E+00 0. -1.
          6    1    1    2  501    0 -0.10807671389E+03 -0.89470122754E+01  0.98749904321E+03  0.10082157435E+04  0.17200000000E+03 0.  1.
         -6    1    1    2    0  503  0.10807671389E+03  0.89470122754E+01  0.91015894465E+03  0.93259526572E+03  0.17200000000E+03 0.  1.
</event>
<event>
 4    1  0.1232978E+000  0.2224350E+03  0.7818608E-02  0.1132081E+00
         21   -1    0    0  501  502  0.00000000000E+00  0.00000000000E+00  0.10710919772E+04  0.10710919772E+04  0.00000000000E+00 0. -1.
         21   -1    0    0  502  503 -0.00000000000E+00 -0.00000000000E+00 -0.10250576511E+03  0.10250576511E+03  0.00000000000E+00 0. -1.
          6    1    1    2  501    0 -0.68483068241E+02  0.12330212812E+03  0.91922087075E+03  0.94575068314E+03  0.17200000000E+03 0. -1.
         -6    1    1    2    0  503  0.68483068241E+02 -0.12330212812E+03  0.49365341319E+02  0.22784705914E+03  0.17200000000E+03 0. -1.
</event>
<event>
 4    1  0.1232978E+000  0.2303443E+03  0.7818608E-02  0.1126398E+00
         21   -1    0    0  503  502  0.00000000000E+00  0.00000000000E+00  0.63021721962E+02  0.63021721962E+02  0.00000000000E+00 0.  1.
         21   -1    0    0  501  503 -0.00000000000E+00 -0.00000000000E+00 -0.85043027879E+03  0.85043027879E+03  0.00000000000E+00 0.  1.
          6    1    1    2  501    0 -0.10942937935E+03 -0.10723673181E+03 -0.34798402187E+03  0.41731449195E+03  0.17200000000E+03 0. -1.
         -6    1    1    2    0  502  0.10942937935E+03  0.10723673181E+03 -0.43942453495E+03  0.49613750880E+03  0.17200000000E+03 0. -1.
</event>
<event>
 4    1  0.1232978E+000  0.1913133E+03  0.7818608E-02  0.1157282E+00
         21   -1    0    0  501  502  0.00000000000E+00  0.00000000000E+00  0.59659356484E+03  0.59659356484E+03  0.00000000000E+00 0.  1.
         21   -1    0    0  502  503 -0.00000000000E+00 -0.00000000000E+00 -0.96853847531E+02  0.96853847531E+02  0.00000000000E+00 0.  1.
          6    1    1    2  501    0  0.79677681199E+02  0.25850678242E+02  0.45979531764E+03  0.49800855873E+03  0.17200000000E+03 0.  1.
         -6    1    1    2    0  503 -0.79677681199E+02 -0.25850678242E+02  0.39944399669E+02  0.19543885364E+03  0.17200000000E+03 0.  1.
</event>
<event>
 4    1  0.1232978E+000  0.1827814E+03  0.7818608E-02  0.1165138E+00
         21   -1    0    0  501  502  0.00000000000E+00  0.00000000000E+00  0.53215703883E+02  0.53215703883E+02  0.00000000000E+00 0. -1.
         21   -1    0    0  502  503 -0.00000000000E+00 -0.00000000000E+00 -0.64454418773E+03  0.64454418773E+03  0.00000000000E+00 0. -1.
          6    1    1    2  501    0  0.17941738428E+01 -0.61820805097E+02 -0.35188931192E+03  0.39652883734E+03  0.17200000000E+03 0.  1.
         -6    1    1    2    0  503 -0.17941738428E+01  0.61820805097E+02 -0.23943917193E+03  0.30123105427E+03  0.17200000000E+03 0.  1.
</event>
<event>
 4    1  0.1232978E+000  0.1872564E+03  0.7818608E-02  0.1160959E+00
         21   -1    0    0  501  502  0.00000000000E+00  0.00000000000E+00  0.11998596013E+04  0.11998596013E+04  0.00000000000E+00 0. -1.
         21   -1    0    0  502  503 -0.00000000000E+00 -0.00000000000E+00 -0.53287588066E+02  0.53287588066E+02  0.00000000000E+00 0. -1.
          6    1    1    2  501    0 -0.58241582055E+02 -0.45704088918E+02  0.99433960122E+03  0.10118182585E+04  0.17200000000E+03 0. -1.
         -6    1    1    2    0  503  0.58241582055E+02  0.45704088918E+02  0.15223241205E+03  0.24132893092E+03  0.17200000000E+03 0. -1.
</event>
<event>
 4    1  0.1232978E+000  0.2169589E+03  0.7818608E-02  0.1136171E+00
         21   -1    0    0  501  502  0.00000000000E+00  0.00000000000E+00  0.14693763708E+03  0.14693763708E+03  0.00000000000E+00 0.  1.
         21   -1    0    0  502  503 -0.00000000000E+00 -0.00000000000E+00 -0.43630876174E+03  0.43630876174E+03  0.00000000000E+00 0.  1.
          6    1    1    2  501    0 -0.19570903459E+02 -0.13078273404E+03  0.56566964872E+01  0.21703258281E+03  0.17200000000E+03 0.  1.
         -6    1    1    2    0  503  0.19570903459E+02  0.13078273404E+03 -0.29502782115E+03  0.36621381601E+03  0.17200000000E+03 0.  1.
</event>
<event>
 4    1  0.1232978E+000  0.1833534E+03  0.7818608E-02  0.1164596E+00
         21   -1    0    0  501  502  0.00000000000E+00  0.00000000000E+00  0.13297175007E+03  0.13297175007E+03  0.00000000000E+00 0. -1.
         21   -1    0    0  502  503 -0.00000000000E+00 -0.00000000000E+00 -0.39846531717E+03  0.39846531717E+03  0.00000000000E+00 0. -1.
          6    1    1    2  501    0  0.24140649072E+02  0.58751281720E+02  0.27898692001E+02  0.18546379986E+03  0.17200000000E+03 0. -1.
         -6    1    1    2    0  503 -0.24140649072E+02 -0.58751281720E+02 -0.29339225910E+03  0.34597326738E+03  0.17200000000E+03 0. -1.
</event>
<event>
 4    1  0.1232978E+000  0.3013576E+03  0.7818608E-02  0.1084564E+00
         21   -1    0    0  501  502  0.00000000000E+00  0.00000000000E+00  0.18544035737E+03  0.18544035737E+03  0.00000000000E+00 0. -1.
         21   -1    0    0  502  503 -0.00000000000E+00 -0.00000000000E+00 -0.50204686899E+03  0.50204686899E+03  0.00000000000E+00 0. -1.
          6    1    1    2  501    0  0.21158508283E+03  0.12831278434E+03 -0.21213581114E+03  0.36853496479E+03  0.17200000000E+03 0.  1.
         -6    1    1    2    0  503 -0.21158508283E+03 -0.12831278434E+03 -0.10447070048E+03  0.31895226157E+03  0.17200000000E+03 0.  1.
</event>
<event>
 4    1  0.1232978E+000  0.1774984E+03  0.7818608E-02  0.1170246E+00
         21   -1    0    0  501  502  0.00000000000E+00  0.00000000000E+00  0.17858798320E+03  0.17858798320E+03  0.00000000000E+00 0.  1.
         21   -1    0    0  502  503 -0.00000000000E+00 -0.00000000000E+00 -0.23056759463E+03  0.23056759463E+03  0.00000000000E+00 0.  1.
          6    1    1    2  501    0  0.20628007154E+01 -0.43788316081E+02  0.73154402383E+02  0.19198239075E+03  0.17200000000E+03 0.  1.
         -6    1    1    2    0  503 -0.20628007154E+01  0.43788316081E+02 -0.12513401382E+03  0.21717318708E+03  0.17200000000E+03 0.  1.
</event>
<event>
 4    1  0.1232978E+000  0.2249500E+03  0.7818608E-02  0.1130246E+00
         21   -1    0    0  501  502  0.00000000000E+00  0.00000000000E+00  0.34253606361E+03  0.34253606361E+03  0.00000000000E+00 0. -1.
         21   -1    0    0  502  503 -0.00000000000E+00 -0.00000000000E+00 -0.22488540276E+03  0.22488540276E+03  0.00000000000E+00 0.  1.
          6    1    1    2  501    0 -0.16484237304E+02 -0.14403737290E+03  0.22500628299E+03  0.31816712944E+03  0.17200000000E+03 0. -1.
         -6    1    1    2    0  503  0.16484237304E+02  0.14403737290E+03 -0.10735562214E+03  0.24925433693E+03  0.17200000000E+03 0.  1.
</event>
<event>
 4    1  0.1232978E+000  0.2844693E+03  0.7818608E-02  0.1093273E+00
         21   -1    0    0  501  502  0.00000000000E+00  0.00000000000E+00  0.45286837594E+03  0.45286837594E+03  0.00000000000E+00 0.  1.
         21   -1    0    0  502  503 -0.00000000000E+00 -0.00000000000E+00 -0.18362179360E+03  0.18362179360E+03  0.00000000000E+00 0. -1.
          6    1    1    2  501    0  0.13403546449E+03  0.18268348635E+03  0.18678238696E+03  0.34030930343E+03  0.17200000000E+03 0.  1.
         -6    1    1    2    0  503 -0.13403546449E+03 -0.18268348635E+03  0.82464195385E+02  0.29618086611E+03  0.17200000000E+03 0. -1.
</event>
<event>
 4    1  0.1232978E+000  0.1800597E+03  0.7818608E-02  0.1167745E+00
         21   -1    0    0  503  502  0.00000000000E+00  0.00000000000E+00  0.13546244922E+04  0.13546244922E+04  0.00000000000E+00 0.  1.
         21   -1    0    0  501  503 -0.00000000000E+00 -0.00000000000E+00 -0.61121972406E+02  0.61121972406E+02  0.00000000000E+00 0.  1.
          6    1    1    2  501    0 -0.52051772671E+02 -0.11318286172E+02  0.94599505684E+02  0.20339753468E+03  0.17200000000E+03 0.  1.
         -6    1    1    2    0  502  0.52051772671E+02  0.11318286172E+02  0.11989030141E+04  0.12123489299E+04  0.17200000000E+03 0.  1.
</event>
<event>
 4    1  0.1232978E+000  0.1888309E+03  0.7818608E-02  0.1159520E+00
         21   -1    0    0  503  502  0.00000000000E+00  0.00000000000E+00  0.67379100590E+02  0.67379100590E+02  0.00000000000E+00 0. -1.
         21   -1    0    0  501  503 -0.00000000000E+00 -0.00000000000E+00 -0.89924254277E+03  0.89924254277E+03  0.00000000000E+00 0. -1.
          6    1    1    2  501    0 -0.60614535585E+02 -0.48979512293E+02 -0.72596841852E+03  0.75012482910E+03  0.17200000000E+03 0.  1.
         -6    1    1    2    0  502  0.60614535585E+02  0.48979512293E+02 -0.10589502366E+03  0.21649681426E+03  0.17200000000E+03 0.  1.
</event>
<event>
 4    1  0.1232978E+000  0.1814355E+03  0.7818608E-02  0.1166421E+00
         21   -1    0    0  501  502  0.00000000000E+00  0.00000000000E+00  0.18763278506E+03  0.18763278506E+03  0.00000000000E+00 0.  1.
         21   -1    0    0  502  503 -0.00000000000E+00 -0.00000000000E+00 -0.19873169411E+03  0.19873169411E+03  0.00000000000E+00 0.  1.
          6    1    1    2  501    0  0.27781242230E+02 -0.50626529482E+02  0.60581833693E+02  0.19128251745E+03  0.17200000000E+03 0.  1.
         -6    1    1    2    0  503 -0.27781242230E+02  0.50626529482E+02 -0.71680742744E+02  0.19508196172E+03  0.17200000000E+03 0.  1.
</event>
<event>
 4    1  0.1232978E+000  0.2057539E+03  0.7818608E-02  0.1144973E+00
         21   -1    0    0  501  502  0.00000000000E+00  0.00000000000E+00  0.20659909535E+04  0.20659909535E+04  0.00000000000E+00 0.  1.
         21   -1    0    0  502  503 -0.00000000000E+00 -0.00000000000E+00 -0.25180076384E+02  0.25180076384E+02  0.00000000000E+00 0.  1.
          6    1    1    2  501    0 -0.57183511666E+02 -0.97368901694E+02  0.14716010930E+04  0.14859153522E+04  0.17200000000E+03 0. -1.
         -6    1    1    2    0  503  0.57183511666E+02  0.97368901694E+02  0.56920978418E+03  0.60525567773E+03  0.17200000000E+03 0. -1.
</event>
<event>
 4    1  0.1232978E+000  0.2164112E+03  0.7818608E-02  0.1136587E+00
         21   -1    0    0  503  502  0.00000000000E+00  0.00000000000E+00  0.20590484700E+03  0.20590484700E+03  0.00000000000E+00 0. -1.
         21   -1    0    0  501  503 -0.00000000000E+00 -0.00000000000E+00 -0.23745632089E+03  0.23745632089E+03  0.00000000000E+00 0. -1.
          6    1    1    2  501    0 -0.17693535169E+02  0.13014129141E+03 -0.61273803837E+02  0.22491842066E+03  0.17200000000E+03 0. -1.
         -6    1    1    2    0  502  0.17693535169E+02 -0.13014129141E+03  0.29722329946E+02  0.21844274722E+03  0.17200000000E+03 0. -1.
</event>
<event>
 4    1  0.1232978E+000  0.3280372E+03  0.7818608E-02  0.1072009E+00
         21   -1    0    0  501  502  0.00000000000E+00  0.00000000000E+00  0.27842668452E+03  0.27842668452E+03  0.00000000000E+00 0. -1.
         21   -1    0    0  502  503 -0.00000000000E+00 -0.00000000000E+00 -0.40854469871E+03  0.40854469871E+03  0.00000000000E+00 0.  1.
          6    1    1    2  501    0  0.24579432756E+03  0.13270108831E+03  0.14752248340E+02  0.32836878526E+03  0.17200000000E+03 0. -1.
         -6    1    1    2    0  503 -0.24579432756E+03 -0.13270108831E+03 -0.14487026253E+03  0.35860259796E+03  0.17200000000E+03 0. -1.
</event>
<event>
 4    1  0.1232978E+000  0.1739230E+03  0.7818608E-02  0.1173817E+00
         21   -1    0    0  501  502  0.00000000000E+00  0.00000000000E+00  0.15258576792E+04  0.15258576792E+04  0.00000000000E+00 0.  1.
         21   -1    0    0  502  503 -0.00000000000E+00 -0.00000000000E+00 -0.20520289202E+02  0.20520289202E+02  0.00000000000E+00 0.  1.
          6    1    1    2  501    0 -0.25770430836E+02  0.10411832616E+01  0.61028285823E+03  0.63458204057E+03  0.17200000000E+03 0.  1.
         -6    1    1    2    0  503  0.25770430836E+02 -0.10411832616E+01  0.89505453180E+03  0.91179592786E+03  0.17200000000E+03 0.  1.
</event>
<event>
 4    1  0.1232978E+000  0.2459143E+03  0.7818608E-02  0.1115914E+00
         21   -1    0    0  503  502  0.00000000000E+00  0.00000000000E+00  0.53463881874E+02  0.53463881874E+02  0.00000000000E+00 0.  1.
         21   -1    0    0  501  503 -0.00000000000E+00 -0.00000000000E+00 -0.11324708083E+04  0.11324708083E+04  0.00000000000E+00 0. -1.
          6    1    1    2  501    0  0.33802087196E+01 -0.17572248931E+03 -0.51898921724E+03  0.57430273085E+03  0.17200000000E+03 0. -1.
         -6    1    1    2    0  502 -0.33802087196E+01  0.17572248931E+03 -0.56001770923E+03  0.61163195936E+03  0.17200000000E+03 0.  1.
</event>
<event>
 4    1  0.1232978E+000  0.1970234E+03  0.7818608E-02  0.1152275E+00
         21   -1    0    0  503  502  0.00000000000E+00  0.00000000000E+00  0.33122959064E+03  0.33122959064E+03  0.00000000000E+00 0. -1.
         21   -1    0    0  501  503 -0.00000000000E+00 -0.00000000000E+00 -0.13712029461E+03  0.13712029461E+03  0.00000000000E+00 0.  1.
          6    1    1    2  501    0 -0.83293027106E+02 -0.47921563145E+02  0.77857721697E+01  0.19717713566E+03  0.17200000000E+03 0.  1.
         -6    1    1    2    0  502  0.83293027106E+02  0.47921563145E+02  0.18632352386E+03  0.27117274959E+03  0.17200000000E+03 0. -1.
</event>
<event>
 4    1  0.1232978E+000  0.1989026E+03  0.7818608E-02  0.1150668E+00
         21   -1    0    0  503  502  0.00000000000E+00  0.00000000000E+00  0.16743915738E+02  0.16743915738E+02  0.00000000000E+00 0.  1.
         21   -1    0    0  501  503 -0.00000000000E+00 -0.00000000000E+00 -0.24199231657E+04  0.24199231657E+04  0.00000000000E+00 0. -1.
          6    1    1    2  501    0 -0.79859457448E+02 -0.60005848452E+02 -0.13888031492E+04  0.14029741345E+04  0.17200000000E+03 0.  1.
         -6    1    1    2    0  502  0.79859457448E+02  0.60005848452E+02 -0.10143761008E+04  0.10336929470E+04  0.17200000000E+03 0.  1.
</event>
<event>
 4    1  0.1232978E+000  0.2759069E+03  0.7818608E-02  0.1097946E+00
         21   -1    0    0  503  502  0.00000000000E+00  0.00000000000E+00  0.10959382038E+04  0.10959382038E+04  0.00000000000E+00 0.  1.
         21   -1    0    0  501  503 -0.00000000000E+00 -0.00000000000E+00 -0.20458213934E+03  0.20458213934E+03  0.00000000000E+00 0. -1.
          6    1    1    2  501    0 -0.16231816724E+03 -0.14210361278E+03 -0.82786011196E+02  0.28805927833E+03  0.17200000000E+03 0. -1.
         -6    1    1    2    0  502  0.16231816724E+03  0.14210361278E+03  0.97414207568E+03  0.10124610648E+04  0.17200000000E+03 0.  1.
</event>
<event>
 4    1  0.1232978E+000  0.1780513E+03  0.7818608E-02  0.1169702E+00
         21   -1    0    0  503  502  0.00000000000E+00  0.00000000000E+00  0.86121188039E+03  0.86121188039E+03  0.00000000000E+00 0.  1.
         21   -1    0    0  501  503 -0.00000000000E+00 -0.00000000000E+00 -0.51372177938E+02  0.51372177938E+02  0.00000000000E+00 0.  1.
          6    1    1    2  501    0 -0.42000903752E+02 -0.18820112831E+02  0.16199404696E+03  0.24071631397E+03  0.17200000000E+03 0.  1.
         -6    1    1    2    0  502  0.42000903752E+02  0.18820112831E+02  0.64784565549E+03  0.67186774435E+03  0.17200000000E+03 0.  1.
</event>
<event>
 4    1  0.1232978E+000  0.1988816E+03  0.7818608E-02  0.1150686E+00
         21   -1    0    0  501  502  0.00000000000E+00  0.00000000000E+00  0.23641957815E+03  0.23641957815E+03  0.00000000000E+00 0.  1.
         21   -1    0    0  502  503 -0.00000000000E+00 -0.00000000000E+00 -0.16748143423E+03  0.16748143423E+03  0.00000000000E+00 0.  1.
          6    1    1    2  501    0 -0.85941966490E+02  0.50831583842E+02  0.41047773761E+02  0.20307336421E+03  0.17200000000E+03 0. -1.
         -6    1    1    2    0  503  0.85941966490E+02 -0.50831583842E+02  0.27890370160E+02  0.20082764817E+03  0.17200000000E+03 0. -1.
</event>
<event>
 4    1  0.1232978E+000  0.3126856E+03  0.7818608E-02  0.1079066E+00
         21   -1    0    0  501  502  0.00000000000E+00  0.00000000000E+00  0.56548879321E+02  0.56548879321E+02  0.00000000000E+00 0. -1.
         21   -1    0    0  502  503 -0.00000000000E+00 -0.00000000000E+00 -0.19841998666E+04  0.19841998666E+04  0.00000000000E+00 0.  1.
          6    1    1    2  501    0  0.22566222814E+03 -0.13139563255E+03 -0.59787825474E+03  0.67470783377E+03  0.17200000000E+03 0. -1.
         -6    1    1    2    0  503 -0.22566222814E+03  0.13139563255E+03 -0.13297727326E+04  0.13660409122E+04  0.17200000000E+03 0.  1.
</event>
<event>
 4    1  0.1232978E+000  0.1755176E+03  0.7818608E-02  0.1172213E+00
         21   -1    0    0  503  502  0.00000000000E+00  0.00000000000E+00  0.96554424524E+01  0.96554424524E+01  0.00000000000E+00 0. -1.
         21   -1    0    0  501  503 -0.00000000000E+00 -0.00000000000E+00 -0.34706771898E+04  0.34706771898E+04  0.00000000000E+00 0. -1.
          6    1    1    2  501    0 -0.33013051263E+02 -0.11514409040E+02 -0.22248665226E+04  0.22317789959E+04  0.17200000000E+03 0. -1.
         -6    1    1    2    0  502  0.33013051263E+02  0.11514409040E+02 -0.12361552247E+04  0.12485536363E+04  0.17200000000E+03 0. -1.
</event>
<event>
 4    1  0.1232978E+000  0.2037495E+03  0.7818608E-02  0.1146614E+00
         21   -1    0    0  501  502  0.00000000000E+00  0.00000000000E+00  0.12581244309E+03  0.12581244309E+03  0.00000000000E+00 0. -1.
         21   -1    0    0  502  503 -0.00000000000E+00 -0.00000000000E+00 -0.50636899084E+03  0.50636899084E+03  0.00000000000E+00 0. -1.
          6    1    1    2  501    0  0.17910951752E+02 -0.10774533166E+03 -0.37129750781E+01  0.20378332825E+03  0.17200000000E+03 0. -1.
         -6    1    1    2    0  503 -0.17910951752E+02  0.10774533166E+03 -0.37684357267E+03  0.42839810568E+03  0.17200000000E+03 0. -1.
</event>
<event>
 4    1  0.1232978E+000  0.1787359E+03  0.7818608E-02  0.1169032E+00
         21   -1    0    0  503  502  0.00000000000E+00  0.00000000000E+00  0.11666495335E+03  0.11666495335E+03  0.00000000000E+00 0.  1.
         21   -1    0    0  501  503 -0.00000000000E+00 -0.00000000000E+00 -0.37676297192E+03  0.37676297192E+03  0.00000000000E+00 0.  1.
          6    1    1    2  501    0 -0.26199185008E+02  0.40940622878E+02 -0.25900272040E+03  0.31468864147E+03  0.17200000000E+03 0.  1.
         -6    1    1    2    0  502  0.26199185008E+02 -0.40940622878E+02 -0.10952981736E+01  0.17873928380E+03  0.17200000000E+03 0.  1.
</event>
<event>
 4    1  0.1232978E+000  0.2311531E+03  0.7818608E-02  0.1125831E+00
         21   -1    0    0  503  502  0.00000000000E+00  0.00000000000E+00  0.15702406028E+03  0.15702406028E+03  0.00000000000E+00 0.  1.
         21   -1    0    0  501  503 -0.00000000000E+00 -0.00000000000E+00 -0.44553129331E+03  0.44553129331E+03  0.00000000000E+00 0.  1.
          6    1    1    2  501    0 -0.73781793348E+02 -0.13566139124E+03 -0.29068918418E+03  0.37139193301E+03  0.17200000000E+03 0.  1.
         -6    1    1    2    0  502  0.73781793348E+02  0.13566139124E+03  0.21819511495E+01  0.23116342058E+03  0.17200000000E+03 0.  1.
</event>
<event>
 4    1  0.1232978E+000  0.1800437E+03  0.7818608E-02  0.1167761E+00
         21   -1    0    0  503  502  0.00000000000E+00  0.00000000000E+00  0.11387505528E+04  0.11387505528E+04  0.00000000000E+00 0.  1.
         21   -1    0    0  501  503 -0.00000000000E+00 -0.00000000000E+00 -0.10873130057E+03  0.10873130057E+03  0.00000000000E+00 0.  1.
          6    1    1    2  501    0  0.43566304426E+02 -0.30556815382E+02 -0.20898947334E+02  0.18125260784E+03  0.17200000000E+03 0.  1.
         -6    1    1    2    0  502 -0.43566304426E+02  0.30556815382E+02  0.10509181995E+04  0.10662292455E+04  0.17200000000E+03 0.  1.
</event>
<event>
 4    1  0.1232978E+000  0.3065291E+03  0.7818608E-02  0.1082022E+00
         21   -1    0    0  501  502  0.00000000000E+00  0.00000000000E+00  0.25921354921E+03  0.25921354921E+03  0.00000000000E+00 0.  1.
         21   -1    0    0  502  503 -0.00000000000E+00 -0.00000000000E+00 -0.36378159695E+03  0.36378159695E+03  0.00000000000E+00 0. -1.
          6    1    1    2  501    0  0.22943568929E+03  0.10832985866E+03 -0.33661584556E+02  0.30837184708E+03  0.17200000000E+03 0.  1.
         -6    1    1    2    0  503 -0.22943568929E+03 -0.10832985866E+03 -0.70906463190E+02  0.31462329907E+03  0.17200000000E+03 0.  1.
</event>
<event>
 4    1  0.1232978E+000  0.2336812E+03  0.7818608E-02  0.1124075E+00
         21   -1    0    0  503  502  0.00000000000E+00  0.00000000000E+00  0.10574380184E+03  0.10574380184E+03  0.00000000000E+00 0. -1.
         21   -1    0    0  501  503 -0.00000000000E+00 -0.00000000000E+00 -0.52518746384E+03  0.52518746384E+03  0.00000000000E+00 0.  1.
          6    1    1    2  501    0  0.15304180857E+03 -0.40014129678E+02 -0.25050992686E+03  0.34258159495E+03  0.17200000000E+03 0. -1.
         -6    1    1    2    0  502 -0.15304180857E+03  0.40014129678E+02 -0.16893373514E+03  0.28834967073E+03  0.17200000000E+03 0. -1.
</event>
<event>
 4    1  0.1232978E+000  0.1804237E+03  0.7818608E-02  0.1167394E+00
         21   -1    0    0  503  502  0.00000000000E+00  0.00000000000E+00  0.20594241855E+04  0.20594241855E+04  0.00000000000E+00 0. -1.
         21   -1    0    0  501  503 -0.00000000000E+00 -0.00000000000E+00 -0.15821947567E+02  0.15821947567E+02  0.00000000000E+00 0. -1.
          6    1    1    2  501    0  0.28780877591E+02  0.46264211803E+02  0.10540043682E+04  0.10693352722E+04  0.17200000000E+03 0. -1.
         -6    1    1    2    0  502 -0.28780877591E+02 -0.46264211803E+02  0.98959786982E+03  0.10059108609E+04  0.17200000000E+03 0. -1.
</event>
<event>
 4    1  0.1232978E+000  0.2315177E+03  0.7818608E-02  0.1125576E+00
         21   -1    0    0  501  502  0.00000000000E+00  0.00000000000E+00  0.13190109213E+03  0.13190109213E+03  0.00000000000E+00 0.  1.
         21   -1    0    0  502  503 -0.00000000000E+00 -0.00000000000E+00 -0.40726606076E+03  0.40726606076E+03  0.00000000000E+00 0.  1.
          6    1    1    2  501    0 -0.11095100684E+03  0.10819577106E+03 -0.15033808844E+03  0.27604708227E+03  0.17200000000E+03 0.  1.
         -6    1    1    2    0  503  0.11095100684E+03 -0.10819577106E+03 -0.12502688018E+03  0.26312007062E+03  0.17200000000E+03 0.  1.
</event>
<event>
 4    1  0.1232978E+000  0.2077559E+03  0.7818608E-02  0.1143356E+00
         21   -1    0    0  503  502  0.00000000000E+00  0.00000000000E+00  0.47139907153E+03  0.47139907153E+03  0.00000000000E+00 0.  1.
         21   -1    0    0  501  503 -0.00000000000E+00 -0.00000000000E+00 -0.15025890815E+03  0.15025890815E+03  0.00000000000E+00 0. -1.
          6    1    1    2  501    0 -0.69876045340E+02  0.93251492789E+02 -0.33700467717E+02  0.21047143308E+03  0.17200000000E+03 0. -1.
         -6    1    1    2    0  502  0.69876045340E+02 -0.93251492789E+02  0.35484063110E+03  0.41118654660E+03  0.17200000000E+03 0.  1.
</event>
<event>
 4    1  0.1232978E+000  0.2159540E+03  0.7818608E-02  0.1136936E+00
         21   -1    0    0  501  502  0.00000000000E+00  0.00000000000E+00  0.22066085582E+04  0.22066085582E+04  0.00000000000E+00 0.  1.
         21   -1    0    0  502  503 -0.00000000000E+00 -0.00000000000E+00 -0.21161639917E+02  0.21161639917E+02  0.00000000000E+00 0.  1.
          6    1    1    2  501    0 -0.37759634704E+02 -0.12500538734E+03  0.10530226358E+04  0.10749385137E+04  0.17200000000E+03 0.  1.
         -6    1    1    2    0  503  0.37759634704E+02  0.12500538734E+03  0.11324242825E+04  0.11528316844E+04  0.17200000000E+03 0.  1.
</event>
<event>
 4    1  0.1232978E+000  0.2198390E+03  0.7818608E-02  0.1134003E+00
         21   -1    0    0  501  502  0.00000000000E+00  0.00000000000E+00  0.10311522464E+04  0.10311522464E+04  0.00000000000E+00 0. -1.
         21   -1    0    0  502  503 -0.00000000000E+00 -0.00000000000E+00 -0.70835627813E+02  0.70835627813E+02  0.00000000000E+00 0. -1.
          6    1    1    2  501    0 -0.12835743613E+03  0.47640040265E+02  0.80065479231E+03  0.83028748111E+03  0.17200000000E+03 0. -1.
         -6    1    1    2    0  503  0.12835743613E+03 -0.47640040265E+02  0.15966182630E+03  0.27170039312E+03  0.17200000000E+03 0. -1.
</event>
<event>
 4    1  0.1232978E+000  0.2564712E+03  0.7818608E-02  0.1109282E+00
         21   -1    0    0  503  502  0.00000000000E+00  0.00000000000E+00  0.32761743766E+03  0.32761743766E+03  0.00000000000E+00 0.  1.
         21   -1    0    0  501  503 -0.00000000000E+00 -0.00000000000E+00 -0.23655112166E+03  0.23655112166E+03  0.00000000000E+00 0.  1.
          6    1    1    2  501    0 -0.36130484950E+02 -0.18678343136E+03  0.15523443666E+03  0.29979191533E+03  0.17200000000E+03 0.  1.
         -6    1    1    2    0  502  0.36130484950E+02  0.18678343136E+03 -0.64168120652E+02  0.26437664398E+03  0.17200000000E+03 0.  1.
</event>
<event>
 4    1  0.1232978E+000  0.3358787E+03  0.7818608E-02  0.1068565E+00
         21   -1    0    0  501  502  0.00000000000E+00  0.00000000000E+00  0.84093139122E+03  0.84093139122E+03  0.00000000000E+00 0.  1.
         21   -1    0    0  502  503 -0.00000000000E+00 -0.00000000000E+00 -0.13861733447E+03  0.13861733447E+03  0.00000000000E+00 0. -1.
          6    1    1    2  501    0 -0.25874785260E+03  0.12759328087E+03  0.43904029514E+03  0.55278465726E+03  0.17200000000E+03 0.  1.
         -6    1    1    2    0  503  0.25874785260E+03 -0.12759328087E+03  0.26327376161E+03  0.42676406842E+03  0.17200000000E+03 0. -1.
</event>
<event>
 4    1  0.1232978E+000  0.3039873E+03  0.7818608E-02  0.1083264E+00
         21   -1    0    0  503  502  0.00000000000E+00  0.00000000000E+00  0.19955055294E+03  0.19955055294E+03  0.00000000000E+00 0.  1.
         21   -1    0    0  501  503 -0.00000000000E+00 -0.00000000000E+00 -0.10447301164E+04  0.10447301164E+04  0.00000000000E+00 0. -1.
          6    1    1    2  501    0  0.22767004934E+03 -0.10483605480E+03 -0.88680192899E+03  0.93745715156E+03  0.17200000000E+03 0. -1.
         -6    1    1    2    0  502 -0.22767004934E+03  0.10483605480E+03  0.41622365523E+02  0.30682351778E+03  0.17200000000E+03 0.  1.
</event>
<event>
 4    1  0.1232978E+000  0.1964738E+03  0.7818608E-02  0.1152749E+00
         21   -1    0    0  501  502  0.00000000000E+00  0.00000000000E+00  0.12728865757E+04  0.12728865757E+04  0.00000000000E+00 0. -1.
         21   -1    0    0  502  503 -0.00000000000E+00 -0.00000000000E+00 -0.34697347294E+02  0.34697347294E+02  0.00000000000E+00 0. -1.
          6    1    1    2  501    0  0.94907051022E+02 -0.32538748841E+01  0.85114610020E+03  0.87352825937E+03  0.17200000000E+03 0. -1.
         -6    1    1    2    0  503 -0.94907051022E+02  0.32538748841E+01  0.38704312825E+03  0.43405566366E+03  0.17200000000E+03 0. -1.
</event>
<event>
 4    1  0.1232978E+000  0.1815948E+03  0.7818608E-02  0.1166268E+00
         21   -1    0    0  501  502  0.00000000000E+00  0.00000000000E+00  0.12441363835E+03  0.12441363835E+03  0.00000000000E+00 0. -1.
         21   -1    0    0  502  503 -0.00000000000E+00 -0.00000000000E+00 -0.43465111980E+03  0.43465111980E+03  0.00000000000E+00 0. -1.
          6    1    1    2  501    0 -0.43994616502E+02 -0.38172383666E+02  0.19490657045E+02  0.18263773670E+03  0.17200000000E+03 0. -1.
         -6    1    1    2    0  503  0.43994616502E+02  0.38172383666E+02 -0.32972813850E+03  0.37642702145E+03  0.17200000000E+03 0. -1.
</event>
<event>
 4    1  0.1232978E+000  0.2286975E+03  0.7818608E-02  0.1127560E+00
         21   -1    0    0  503  502  0.00000000000E+00  0.00000000000E+00  0.11792207791E+04  0.11792207791E+04  0.00000000000E+00 0. -1.
         21   -1    0    0  501  503 -0.00000000000E+00 -0.00000000000E+00 -0.77355270073E+02  0.77355270073E+02  0.00000000000E+00 0.  1.
          6    1    1    2  501    0  0.12278505883E+03  0.87420573116E+02  0.14055607083E+03  0.26843721114E+03  0.17200000000E+03 0.  1.
         -6    1    1    2    0  502 -0.12278505883E+03 -0.87420573116E+02  0.96130943821E+03  0.98813883805E+03  0.17200000000E+03 0. -1.
</event>
<event>
 4    1  0.1232978E+000  0.2819072E+03  0.7818608E-02  0.1094652E+00
         21   -1    0    0  501  502  0.00000000000E+00  0.00000000000E+00  0.38785404764E+03  0.38785404764E+03  0.00000000000E+00 0. -1.
         21   -1    0    0  502  503 -0.00000000000E+00 -0.00000000000E+00 -0.24156811435E+03  0.24156811435E+03  0.00000000000E+00 0.  1.
          6    1    1    2  501    0 -0.10015776658E+03 -0.19963986109E+03  0.19575442349E+03  0.34320758537E+03  0.17200000000E+03 0. -1.
         -6    1    1    2    0  503  0.10015776658E+03  0.19963986109E+03 -0.49468490202E+02  0.28621457661E+03  0.17200000000E+03 0.  1.
</event>
<event>
 4    1  0.1232978E+000  0.2174458E+03  0.7818608E-02  0.1135802E+00
         21   -1    0    0  501  502  0.00000000000E+00  0.00000000000E+00  0.40342584131E+03  0.40342584131E+03  0.00000000000E+00 0. -1.
         21   -1    0    0  502  503 -0.00000000000E+00 -0.00000000000E+00 -0.12870001958E+03  0.12870001958E+03  0.00000000000E+00 0. -1.
          6    1    1    2  501    0 -0.82504733972E+02  0.10436305295E+03  0.21688533589E+03  0.30711875044E+03  0.17200000000E+03 0. -1.
         -6    1    1    2    0  503  0.82504733972E+02 -0.10436305295E+03  0.57840485834E+02  0.22500711045E+03  0.17200000000E+03 0. -1.
</event>
<event>
 4    1  0.1232978E+000  0.2033827E+03  0.7818608E-02  0.1146916E+00
         21   -1    0    0  503  502  0.00000000000E+00  0.00000000000E+00  0.23074415005E+03  0.23074415005E+03  0.00000000000E+00 0.  1.
         21   -1    0    0  501  503 -0.00000000000E+00 -0.00000000000E+00 -0.30523253784E+03  0.30523253784E+03  0.00000000000E+00 0.  1.
          6    1    1    2  501    0 -0.10540647538E+03  0.25884451848E+02 -0.20940269307E+03  0.29191440143E+03  0.17200000000E+03 0.  1.
         -6    1    1    2    0  502  0.10540647538E+03 -0.25884451848E+02  0.13491430527E+03  0.24406228645E+03  0.17200000000E+03 0.  1.
</event>
<event>
 4    1  0.1232978E+000  0.2923683E+03  0.7818608E-02  0.1089119E+00
         21   -1    0    0  503  502  0.00000000000E+00  0.00000000000E+00  0.86680853426E+02  0.86680853426E+02  0.00000000000E+00 0. -1.
         21   -1    0    0  501  503 -0.00000000000E+00 -0.00000000000E+00 -0.12252554383E+04  0.12252554383E+04  0.00000000000E+00 0.  1.
          6    1    1    2  501    0 -0.22723612903E+03  0.65260811518E+02 -0.85907208854E+03  0.90746023889E+03  0.17200000000E+03 0.  1.
         -6    1    1    2    0  502  0.22723612903E+03 -0.65260811518E+02 -0.27950249631E+03  0.40447605281E+03  0.17200000000E+03 0. -1.
</event>
<event>
 4    1  0.1232978E+000  0.2150871E+03  0.7818608E-02  0.1137600E+00
         21   -1    0    0  503  502  0.00000000000E+00  0.00000000000E+00  0.54103280738E+03  0.54103280738E+03  0.00000000000E+00 0.  1.
         21   -1    0    0  501  503 -0.00000000000E+00 -0.00000000000E+00 -0.10373097296E+03  0.10373097296E+03  0.00000000000E+00 0. -1.
          6    1    1    2  501    0 -0.65218650950E+02  0.11146749156E+03  0.83527838149E+02  0.23073658976E+03  0.17200000000E+03 0.  1.
         -6    1    1    2    0  502  0.65218650950E+02 -0.11146749156E+03  0.35377399627E+03  0.41402719059E+03  0.17200000000E+03 0.  1.
</event>
<event>
 4    1  0.1232978E+000  0.1957147E+03  0.7818608E-02  0.1153406E+00
         21   -1    0    0  501  502  0.00000000000E+00  0.00000000000E+00  0.34306057678E+03  0.34306057678E+03  0.00000000000E+00 0.  1.
         21   -1    0    0  502  503 -0.00000000000E+00 -0.00000000000E+00 -0.11913036273E+03  0.11913036273E+03  0.00000000000E+00 0.  1.
          6    1    1    2  501    0  0.16614809879E+01 -0.93367381999E+02  0.16985640450E+03  0.25914364104E+03  0.17200000000E+03 0.  1.
         -6    1    1    2    0  503 -0.16614809879E+01  0.93367381999E+02  0.54073809552E+02  0.20304729848E+03  0.17200000000E+03 0.  1.
</event>
<event>
 4    1  0.1232978E+000  0.3268738E+03  0.7818608E-02  0.1072529E+00
         21   -1    0    0  503  502  0.00000000000E+00  0.00000000000E+00  0.42068929060E+03  0.42068929060E+03  0.00000000000E+00 0.  1.
         21   -1    0    0  501  503 -0.00000000000E+00 -0.00000000000E+00 -0.25514862184E+03  0.25514862184E+03  0.00000000000E+00 0. -1.
          6    1    1    2  501    0 -0.13898431943E+03 -0.24071944258E+03  0.10564370671E+03  0.34352159153E+03  0.17200000000E+03 0.  1.
         -6    1    1    2    0  502  0.13898431943E+03  0.24071944258E+03  0.59896962044E+02  0.33231632091E+03  0.17200000000E+03 0.  1.
</event>
<event>
 4    1  0.1232978E+000  0.1891185E+03  0.7818608E-02  0.1159259E+00
         21   -1    0    0  503  502  0.00000000000E+00  0.00000000000E+00  0.18552183015E+03  0.18552183015E+03  0.00000000000E+00 0. -1.
         21   -1    0    0  501  503 -0.00000000000E+00 -0.00000000000E+00 -0.23963345465E+03  0.23963345465E+03  0.00000000000E+00 0. -1.
          6    1    1    2  501    0 -0.55980141197E+02 -0.55208811897E+02 -0.12104814293E+03  0.22454051311E+03  0.17200000000E+03 0.  1.
         -6    1    1    2    0  502  0.55980141197E+02  0.55208811897E+02  0.66936518431E+02  0.20061477169E+03  0.17200000000E+03 0.  1.
</event>
<event>
 4    1  0.1232978E+000  0.2372588E+03  0.7818608E-02  0.1121632E+00
         21   -1    0    0  501  502  0.00000000000E+00  0.00000000000E+00  0.50121958804E+02  0.50121958804E+02  0.00000000000E+00 0. -1.
         21   -1    0    0  502  503 -0.00000000000E+00 -0.00000000000E+00 -0.14823666522E+04  0.14823666522E+04  0.00000000000E+00 0.  1.
          6    1    1    2  501    0 -0.99720497959E+02  0.12947420819E+03 -0.33889723823E+03  0.41369443600E+03  0.17200000000E+03 0.  1.
         -6    1    1    2    0  503  0.99720497959E+02 -0.12947420819E+03 -0.10933474552E+04  0.11187941750E+04  0.17200000000E+03 0. -1.
</event>
<event>
 4    1  0.1232978E+000  0.1895181E+03  0.7818608E-02  0.1158897E+00
         21   -1    0    0  503  502  0.00000000000E+00  0.00000000000E+00  0.74690058956E+03  0.74690058956E+03  0.00000000000E+00 0. -1.
         21   -1    0    0  501  503 -0.00000000000E+00 -0.00000000000E+00 -0.78832402555E+02  0.78832402555E+02  0.00000000000E+00 0. -1.
          6    1    1    2  501    0  0.13323158457E+02  0.78457694423E+02  0.76200935244E+02  0.20426379732E+03  0.17200000000E+03 0. -1.
         -6    1    1    2    0  502 -0.13323158457E+02 -0.78457694423E+02  0.59186725176E+03  0.62146919479E+03  0.17200000000E+03 0. -1.
</event>
<event>
 4    1  0.1232978E+000  0.2254414E+03  0.7818608E-02  0.1129890E+00
         21   -1    0    0  503  502  0.00000000000E+00  0.00000000000E+00  0.27107501671E+02  0.27107501671E+02  0.00000000000E+00 0. -1.
         21   -1    0    0  501  503 -0.00000000000E+00 -0.00000000000E+00 -0.25153473117E+04  0.25153473117E+04  0.00000000000E+00 0. -1.
          6    1    1    2  501    0 -0.14550847102E+03  0.81919441038E+01 -0.60266464794E+03  0.64345046504E+03  0.17200000000E+03 0. -1.
         -6    1    1    2    0  502  0.14550847102E+03 -0.81919441038E+01 -0.18855751621E+04  0.18990043484E+04  0.17200000000E+03 0. -1.
</event>
<event>
 4    1  0.1232978E+000  0.1827082E+03  0.7818608E-02  0.1165208E+00
         21   -1    0    0  501  502  0.00000000000E+00  0.00000000000E+00  0.10932246718E+03  0.10932246718E+03  0.00000000000E+00 0.  1.
         21   -1    0    0  502  503 -0.00000000000E+00 -0.00000000000E+00 -0.30896079148E+03  0.30896079148E+03  0.00000000000E+00 0.  1.
          6    1    1    2  501    0  0.60299891007E+02  0.12735441068E+02 -0.77228419179E+02  0.19835951463E+03  0.17200000000E+03 0. -1.
         -6    1    1    2    0  503 -0.60299891007E+02 -0.12735441068E+02 -0.12240990512E+03  0.21992374403E+03  0.17200000000E+03 0. -1.
</event>
<event>
 4    1  0.1232978E+000  0.2099225E+03  0.7818608E-02  0.1141627E+00
         21   -1    0    0  501  502  0.00000000000E+00  0.00000000000E+00  0.11618848681E+04  0.11618848681E+04  0.00000000000E+00 0. -1.
         21   -1    0    0  502  503 -0.00000000000E+00 -0.00000000000E+00 -0.39230157844E+02  0.39230157844E+02  0.00000000000E+00 0. -1.
          6    1    1    2  501    0 -0.12020495301E+03 -0.58502779372E+01  0.67076077700E+03  0.70284242646E+03  0.17200000000E+03 0.  1.
         -6    1    1    2    0  503  0.12020495301E+03  0.58502779372E+01  0.45189393328E+03  0.49827259950E+03  0.17200000000E+03 0.  1.
</event>
<event>
 4    1  0.1232978E+000  0.2873793E+03  0.7818608E-02  0.1091725E+00
         21   -1    0    0  501  502  0.00000000000E+00  0.00000000000E+00  0.16881319493E+03  0.16881319493E+03  0.00000000000E+00 0.  1.
         21   -1    0    0  502  503 -0.00000000000E+00 -0.00000000000E+00 -0.58187272793E+03  0.58187272793E+03  0.00000000000E+00 0. -1.
          6    1    1    2  501    0 -0.14200974976E+03  0.18120725100E+03 -0.56753587509E+02  0.29292969555E+03  0.17200000000E+03 0. -1.
         -6    1    1    2    0  503  0.14200974976E+03 -0.18120725100E+03 -0.35630594550E+03  0.45775622731E+03  0.17200000000E+03 0. -1.
</event>
<event>
 4    1  0.1232978E+000  0.1980495E+03  0.7818608E-02  0.1151395E+00
         21   -1    0    0  503  502  0.00000000000E+00  0.00000000000E+00  0.12390659473E+04  0.12390659473E+04  0.00000000000E+00 0.  1.
         21   -1    0    0  501  503 -0.00000000000E+00 -0.00000000000E+00 -0.36199848463E+02  0.36199848463E+02  0.00000000000E+00 0.  1.
          6    1    1    2  501    0  0.97321870771E+02  0.12963709596E+02  0.37552090938E+03  0.42454629627E+03  0.17200000000E+03 0.  1.
         -6    1    1    2    0  502 -0.97321870771E+02 -0.12963709596E+02  0.82734518946E+03  0.85071949950E+03  0.17200000000E+03 0.  1.
</event>
<event>
 4    1  0.1232978E+000  0.1771344E+03  0.7818608E-02  0.1170606E+00
         21   -1    0    0  501  502  0.00000000000E+00  0.00000000000E+00  0.97805270453E+02  0.97805270453E+02  0.00000000000E+00 0.  1.
         21   -1    0    0  502  503 -0.00000000000E+00 -0.00000000000E+00 -0.51418794873E+03  0.51418794873E+03  0.00000000000E+00 0.  1.
          6    1    1    2  501    0 -0.41349252143E+02  0.91005451955E+01 -0.20535142112E+02  0.17832070165E+03  0.17200000000E+03 0. -1.
         -6    1    1    2    0  503  0.41349252143E+02 -0.91005451955E+01 -0.39584753617E+03  0.43367251753E+03  0.17200000000E+03 0. -1.
</event>
<event>
 4    1  0.1232978E+000  0.2280490E+03  0.7818608E-02  0.1128021E+00
         21   -1    0    0  501  502  0.00000000000E+00  0.00000000000E+00  0.10187452278E+04  0.10187452278E+04  0.00000000000E+00 0.  1.
         21   -1    0    0  502  503 -0.00000000000E+00 -0.00000000000E+00 -0.15112878580E+03  0.15112878580E+03  0.00000000000E+00 0. -1.
          6    1    1    2  501    0 -0.14234418402E+03  0.46481028872E+02  0.90980912190E+03  0.93795468497E+03  0.17200000000E+03 0.  1.
         -6    1    1    2    0  503  0.14234418402E+03 -0.46481028872E+02 -0.42192679865E+02  0.23191932865E+03  0.17200000000E+03 0. -1.
</event>
<event>
 4    1  0.1232978E+000  0.1728010E+03  0.7818608E-02  0.1174958E+00
         21   -1    0    0  501  502  0.00000000000E+00  0.00000000000E+00  0.45104235520E+03  0.45104235520E+03  0.00000000000E+00 0.  1.
         21   -1    0    0  502  503 -0.00000000000E+00 -0.00000000000E+00 -0.11650172856E+03  0.11650172856E+03  0.00000000000E+00 0.  1.
          6    1    1    2  501    0  0.16267728014E+02 -0.33955139003E+01  0.35372947569E+03  0.39368097549E+03  0.17200000000E+03 0.  1.
         -6    1    1    2    0  503 -0.16267728014E+02  0.33955139003E+01 -0.19188849055E+02  0.17386310827E+03  0.17200000000E+03 0.  1.
</event>
<event>
 4    1  0.1232978E+000  0.2188059E+03  0.7818608E-02  0.1134776E+00
         21   -1    0    0  501  502  0.00000000000E+00  0.00000000000E+00  0.12464413317E+03  0.12464413317E+03  0.00000000000E+00 0.  1.
         21   -1    0    0  502  503 -0.00000000000E+00 -0.00000000000E+00 -0.38982650935E+03  0.38982650935E+03  0.00000000000E+00 0. -1.
          6    1    1    2  501    0 -0.10824282100E+03  0.81089655289E+02 -0.10141878784E+03  0.24116759944E+03  0.17200000000E+03 0.  1.
         -6    1    1    2    0  503  0.10824282100E+03 -0.81089655289E+02 -0.16376358834E+03  0.27330304308E+03  0.17200000000E+03 0. -1.
</event>
<event>
 4    1  0.1232978E+000  0.2127206E+03  0.7818608E-02  0.1139429E+00
         21   -1    0    0  501  502  0.00000000000E+00  0.00000000000E+00  0.21148952492E+03  0.21148952492E+03  0.00000000000E+00 0. -1.
         21   -1    0    0  502  503 -0.00000000000E+00 -0.00000000000E+00 -0.22030785704E+03  0.22030785704E+03  0.00000000000E+00 0.  1.
          6    1    1    2  501    0  0.85277192544E+02  0.91618016118E+02 -0.41060275623E+02  0.21664719403E+03  0.17200000000E+03 0. -1.
         -6    1    1    2    0  503 -0.85277192544E+02 -0.91618016118E+02  0.32241943502E+02  0.21515018793E+03  0.17200000000E+03 0.  1.
</event>
<event>
 4    1  0.1232978E+000  0.2868953E+03  0.7818608E-02  0.1091981E+00
         21   -1    0    0  501  502  0.00000000000E+00  0.00000000000E+00  0.18832681579E+03  0.18832681579E+03  0.00000000000E+00 0.  1.
         21   -1    0    0  502  503 -0.00000000000E+00 -0.00000000000E+00 -0.43724203747E+03  0.43724203747E+03  0.00000000000E+00 0. -1.
          6    1    1    2  501    0  0.26830380769E+02  0.22804610936E+03 -0.13095236302E+03  0.31536870280E+03  0.17200000000E+03 0. -1.
         -6    1    1    2    0  503 -0.26830380769E+02 -0.22804610936E+03 -0.11796285866E+03  0.31020015046E+03  0.17200000000E+03 0.  1.
</event>
<event>
 4    1  0.1232978E+000  0.1773730E+03  0.7818608E-02  0.1170370E+00
         21   -1    0    0  501  502  0.00000000000E+00  0.00000000000E+00  0.19783429942E+04  0.19783429942E+04  0.00000000000E+00 0.  1.
         21   -1    0    0  502  503 -0.00000000000E+00 -0.00000000000E+00 -0.19702567329E+02  0.19702567329E+02  0.00000000000E+00 0.  1.
          6    1    1    2  501    0  0.15461175750E+02  0.40473810096E+02  0.14180457738E+04  0.14290958659E+04  0.17200000000E+03 0.  1.
         -6    1    1    2    0  503 -0.15461175750E+02 -0.40473810096E+02  0.54059465304E+03  0.56894969563E+03  0.17200000000E+03 0.  1.
</event>
<event>
 4    1  0.1232978E+000  0.1860815E+03  0.7818608E-02  0.1162044E+00
         21   -1    0    0  503  502  0.00000000000E+00  0.00000000000E+00  0.18801900330E+03  0.18801900330E+03  0.00000000000E+00 0.  1.
         21   -1    0    0  501  503 -0.00000000000E+00 -0.00000000000E+00 -0.22714279533E+03  0.22714279533E+03  0.00000000000E+00 0. -1.
          6    1    1    2  501    0 -0.39894643344E+02  0.58743082722E+02 -0.10985716764E+03  0.21609009607E+03  0.17200000000E+03 0.  1.
         -6    1    1    2    0  502  0.39894643344E+02 -0.58743082722E+02  0.70733375614E+02  0.19907170256E+03  0.17200000000E+03 0.  1.
</event>
<event>
 4    1  0.1232978E+000  0.2064867E+03  0.7818608E-02  0.1144379E+00
         21   -1    0    0  503  502  0.00000000000E+00  0.00000000000E+00  0.38572864426E+03  0.38572864426E+03  0.00000000000E+00 0. -1.
         21   -1    0    0  501  503 -0.00000000000E+00 -0.00000000000E+00 -0.12099761938E+03  0.12099761938E+03  0.00000000000E+00 0. -1.
          6    1    1    2  501    0 -0.93205723065E+02  0.66071489849E+02  0.20686661291E+03  0.29228503916E+03  0.17200000000E+03 0. -1.
         -6    1    1    2    0  502  0.93205723065E+02 -0.66071489849E+02  0.57864411969E+02  0.21444122448E+03  0.17200000000E+03 0. -1.
</event>
<event>
 4    1  0.1232978E+000  0.2338192E+03  0.7818608E-02  0.1123980E+00
         21   -1    0    0  503  502  0.00000000000E+00  0.00000000000E+00  0.31176115527E+02  0.31176115527E+02  0.00000000000E+00 0.  1.
         21   -1    0    0  501  503 -0.00000000000E+00 -0.00000000000E+00 -0.17964876265E+04  0.17964876265E+04  0.00000000000E+00 0.  1.
          6    1    1    2  501    0  0.12719916356E+03  0.94381085389E+02 -0.10237992699E+04  0.10501601599E+04  0.17200000000E+03 0.  1.
         -6    1    1    2    0  502 -0.12719916356E+03 -0.94381085389E+02 -0.74151224111E+03  0.77750358212E+03  0.17200000000E+03 0.  1.
</event>
<event>
 4    1  0.1232978E+000  0.1961744E+03  0.7818608E-02  0.1153007E+00
         21   -1    0    0  501  502  0.00000000000E+00  0.00000000000E+00  0.14584418092E+03  0.14584418092E+03  0.00000000000E+00 0. -1.
         21   -1    0    0  502  503 -0.00000000000E+00 -0.00000000000E+00 -0.41478549004E+03  0.41478549004E+03  0.00000000000E+00 0. -1.
          6    1    1    2  501    0 -0.66367467783E+02 -0.67050385635E+02  0.34610953892E+02  0.19920419956E+03  0.17200000000E+03 0. -1.
         -6    1    1    2    0  503  0.66367467783E+02  0.67050385635E+02 -0.30355226301E+03  0.36142547140E+03  0.17200000000E+03 0. -1.
</event>
<event>
 4    1  0.1232978E+000  0.1750272E+03  0.7818608E-02  0.1172704E+00
         21   -1    0    0  501  502  0.00000000000E+00  0.00000000000E+00  0.12147165757E+04  0.12147165757E+04  0.00000000000E+00 0.  1.
         21   -1    0    0  502  503 -0.00000000000E+00 -0.00000000000E+00 -0.39261044022E+02  0.39261044022E+02  0.00000000000E+00 0.  1.
          6    1    1    2  501    0 -0.32409500783E+02  0.40081181966E+00  0.96268903137E+03  0.97847059614E+03  0.17200000000E+03 0.  1.
         -6    1    1    2    0  503  0.32409500783E+02 -0.40081181966E+00  0.21276650032E+03  0.27550702360E+03  0.17200000000E+03 0.  1.
</event>
<event>
 4    1  0.1232978E+000  0.1826666E+03  0.7818608E-02  0.1165247E+00
         21   -1    0    0  501  502  0.00000000000E+00  0.00000000000E+00  0.23705076843E+02  0.23705076843E+02  0.00000000000E+00 0. -1.
         21   -1    0    0  502  503 -0.00000000000E+00 -0.00000000000E+00 -0.15213843602E+04  0.15213843602E+04  0.00000000000E+00 0.  1.
          6    1    1    2  501    0  0.22737956100E+01  0.61464621987E+02 -0.53755825440E+03  0.56774637540E+03  0.17200000000E+03 0.  1.
         -6    1    1    2    0  503 -0.22737956100E+01 -0.61464621987E+02 -0.96012102896E+03  0.97734306165E+03  0.17200000000E+03 0.  1.
</event>
<event>
 4    1  0.1232978E+000  0.2577617E+03  0.7818608E-02  0.1108496E+00
         21   -1    0    0  503  502  0.00000000000E+00  0.00000000000E+00  0.55503128134E+03  0.55503128134E+03  0.00000000000E+00 0. -1.
         21   -1    0    0  501  503 -0.00000000000E+00 -0.00000000000E+00 -0.12237641617E+03  0.12237641617E+03  0.00000000000E+00 0.  1.
          6    1    1    2  501    0 -0.17999001901E+03 -0.66788466805E+02  0.26635194136E+03  0.37065410143E+03  0.17200000000E+03 0.  1.
         -6    1    1    2    0  502  0.17999001901E+03  0.66788466805E+02  0.16630292381E+03  0.30675359608E+03  0.17200000000E+03 0.  1.
</event>
<event>
 4    1  0.1232978E+000  0.1992848E+03  0.7818608E-02  0.1150344E+00
         21   -1    0    0  501  502  0.00000000000E+00  0.00000000000E+00  0.75989345297E+03  0.75989345297E+03  0.00000000000E+00 0.  1.
         21   -1    0    0  502  503 -0.00000000000E+00 -0.00000000000E+00 -0.58317467597E+02  0.58317467597E+02  0.00000000000E+00 0.  1.
          6    1    1    2  501    0  0.10064755727E+03 -0.71539938591E+00  0.48260387529E+03  0.52213115501E+03  0.17200000000E+03 0.  1.
         -6    1    1    2    0  503 -0.10064755727E+03  0.71539938591E+00  0.21897211009E+03  0.29607976556E+03  0.17200000000E+03 0.  1.
</event>
<event>
 4    1  0.1232978E+000  0.2929474E+03  0.7818608E-02  0.1088820E+00
         21   -1    0    0  503  502  0.00000000000E+00  0.00000000000E+00  0.63389277464E+02  0.63389277464E+02  0.00000000000E+00 0.  1.
         21   -1    0    0  501  503 -0.00000000000E+00 -0.00000000000E+00 -0.25565760899E+04  0.25565760899E+04  0.00000000000E+00 0. -1.
          6    1    1    2  501    0  0.22742845371E+03 -0.67159883621E+02 -0.21451048417E+04  0.21650156890E+04  0.17200000000E+03 0. -1.
         -6    1    1    2    0  502 -0.22742845371E+03  0.67159883621E+02 -0.34808197069E+03  0.45494967836E+03  0.17200000000E+03 0.  1.
</event>
<event>
 4    1  0.1232978E+000  0.2097788E+03  0.7818608E-02  0.1141741E+00
         21   -1    0    0  503  502  0.00000000000E+00  0.00000000000E+00  0.85189879516E+02  0.85189879516E+02  0.00000000000E+00 0.  1.
         21   -1    0    0  501  503 -0.00000000000E+00 -0.00000000000E+00 -0.13757463904E+04  0.13757463904E+04  0.00000000000E+00 0.  1.
          6    1    1    2  501    0  0.10994306494E+03  0.48328742665E+02 -0.12225382294E+04  0.12404059284E+04  0.17200000000E+03 0.  1.
         -6    1    1    2    0  502 -0.10994306494E+03 -0.48328742665E+02 -0.68018281447E+02  0.22053034147E+03  0.17200000000E+03 0.  1.
</event>
<event>
 4    1  0.1232978E+000  0.1906026E+03  0.7818608E-02  0.1157919E+00
         21   -1    0    0  503  502  0.00000000000E+00  0.00000000000E+00  0.81211224338E+03  0.81211224338E+03  0.00000000000E+00 0.  1.
         21   -1    0    0  501  503 -0.00000000000E+00 -0.00000000000E+00 -0.68033056691E+02  0.68033056691E+02  0.00000000000E+00 0.  1.
          6    1    1    2  501    0  0.63887792757E+02  0.51611217936E+02  0.11450850241E+03  0.22235459295E+03  0.17200000000E+03 0.  1.
         -6    1    1    2    0  502 -0.63887792757E+02 -0.51611217936E+02  0.62957068428E+03  0.65779070713E+03  0.17200000000E+03 0.  1.
</event>
<event>
 4    1  0.1232978E+000  0.2859087E+03  0.7818608E-02  0.1092505E+00
         21   -1    0    0  503  502  0.00000000000E+00  0.00000000000E+00  0.37900302974E+03  0.37900302974E+03  0.00000000000E+00 0. -1.
         21   -1    0    0  501  503 -0.00000000000E+00 -0.00000000000E+00 -0.21929109579E+03  0.21929109579E+03  0.00000000000E+00 0.  1.
          6    1    1    2  501    0 -0.48551530571E+02  0.22316475957E+03  0.41473556482E+02  0.28890105040E+03  0.17200000000E+03 0. -1.
         -6    1    1    2    0  502  0.48551530571E+02 -0.22316475957E+03  0.11823837746E+03  0.30939307513E+03  0.17200000000E+03 0.  1.
</event>
<event>
 4    1  0.1232978E+000  0.1926329E+03  0.7818608E-02  0.1156108E+00
         21   -1    0    0  501  502  0.00000000000E+00  0.00000000000E+00  0.12273499975E+04  0.12273499975E+04  0.00000000000E+00 0. -1.
         21   -1    0    0  502  503 -0.00000000000E+00 -0.00000000000E+00 -0.30282960670E+02  0.30282960670E+02  0.00000000000E+00 0. -1.
          6    1    1    2  501    0 -0.56214526599E+02  0.66055651192E+02  0.62387604156E+03  0.65293854021E+03  0.17200000000E+03 0. -1.
         -6    1    1    2    0  503  0.56214526599E+02 -0.66055651192E+02  0.57319099523E+03  0.60469441792E+03  0.17200000000E+03 0. -1.
</event>
<event>
 4    1  0.1232978E+000  0.1777262E+03  0.7818608E-02  0.1170022E+00
         21   -1    0    0  503  502  0.00000000000E+00  0.00000000000E+00  0.44735249408E+03  0.44735249408E+03  0.00000000000E+00 0.  1.
         21   -1    0    0  501  503 -0.00000000000E+00 -0.00000000000E+00 -0.72107042485E+02  0.72107042485E+02  0.00000000000E+00 0.  1.
          6    1    1    2  501    0 -0.37568695312E+02 -0.24314527068E+02  0.22507341983E+03  0.28678327602E+03  0.17200000000E+03 0.  1.
         -6    1    1    2    0  502  0.37568695312E+02  0.24314527068E+02  0.15017203177E+03  0.23267626054E+03  0.17200000000E+03 0.  1.
</event>
<event>
 4    1  0.1232978E+000  0.2209993E+03  0.7818608E-02  0.1133140E+00
         21   -1    0    0  501  502  0.00000000000E+00  0.00000000000E+00  0.35907774425E+03  0.35907774425E+03  0.00000000000E+00 0. -1.
         21   -1    0    0  502  503 -0.00000000000E+00 -0.00000000000E+00 -0.14046935380E+03  0.14046935380E+03  0.00000000000E+00 0. -1.
          6    1    1    2  501    0 -0.12926266041E+03  0.50476354264E+02  0.15377221045E+03  0.26923333824E+03  0.17200000000E+03 0. -1.
         -6    1    1    2    0  503  0.12926266041E+03 -0.50476354264E+02  0.64836179999E+02  0.23031375980E+03  0.17200000000E+03 0. -1.
</event>
<event>
 4    1  0.1232978E+000  0.2600399E+03  0.7818608E-02  0.1107119E+00
         21   -1    0    0  503  502  0.00000000000E+00  0.00000000000E+00  0.19640085495E+04  0.19640085495E+04  0.00000000000E+00 0. -1.
         21   -1    0    0  501  503 -0.00000000000E+00 -0.00000000000E+00 -0.34431070424E+02  0.34431070424E+02  0.00000000000E+00 0. -1.
          6    1    1    2  501    0 -0.17874512914E+03 -0.78018862306E+02  0.97042637910E+03  0.10046631880E+04  0.17200000000E+03 0. -1.
         -6    1    1    2    0  502  0.17874512914E+03  0.78018862306E+02  0.95915109995E+03  0.99377643190E+03  0.17200000000E+03 0. -1.
</event>
<event>
 4    1  0.1232978E+000  0.2196758E+03  0.7818608E-02  0.1134125E+00
         21   -1    0    0  501  502  0.00000000000E+00  0.00000000000E+00  0.14769119024E+03  0.14769119024E+03  0.00000000000E+00 0. -1.
         21   -1    0    0  502  503 -0.00000000000E+00 -0.00000000000E+00 -0.46143462772E+03  0.46143462772E+03  0.00000000000E+00 0. -1.
          6    1    1    2  501    0  0.74470694024E+02  0.11457559429E+03  0.76745279497E+01  0.21980980291E+03  0.17200000000E+03 0. -1.
         -6    1    1    2    0  503 -0.74470694024E+02 -0.11457559429E+03 -0.32141796543E+03  0.38931601505E+03  0.17200000000E+03 0. -1.
</event>
<event>
 4    1  0.1232978E+000  0.2750942E+03  0.7818608E-02  0.1098399E+00
         21   -1    0    0  503  502  0.00000000000E+00  0.00000000000E+00  0.61808703129E+03  0.61808703129E+03  0.00000000000E+00 0. -1.
         21   -1    0    0  501  503 -0.00000000000E+00 -0.00000000000E+00 -0.17816229392E+03  0.17816229392E+03  0.00000000000E+00 0. -1.
          6    1    1    2  501    0 -0.63924948392E+02 -0.20495474205E+03 -0.26947523029E+01  0.27510744629E+03  0.17200000000E+03 0. -1.
         -6    1    1    2    0  502  0.63924948392E+02  0.20495474205E+03  0.44261948967E+03  0.52114187891E+03  0.17200000000E+03 0. -1.
</event>
<event>
 4    1  0.1232978E+000  0.1803222E+03  0.7818608E-02  0.1167492E+00
         21   -1    0    0  501  502  0.00000000000E+00  0.00000000000E+00  0.16860325923E+03  0.16860325923E+03  0.00000000000E+00 0. -1.
         21   -1    0    0  502  503 -0.00000000000E+00 -0.00000000000E+00 -0.20372341271E+03  0.20372341271E+03  0.00000000000E+00 0. -1.
          6    1    1    2  501    0  0.31925774650E+02  0.43735996862E+02  0.25437461770E+02  0.18210754232E+03  0.17200000000E+03 0. -1.
         -6    1    1    2    0  503 -0.31925774650E+02 -0.43735996862E+02 -0.60557615257E+02  0.19021912962E+03  0.17200000000E+03 0. -1.
</event>
<event>
 4    1  0.1232978E+000  0.2144099E+03  0.7818608E-02  0.1138121E+00
         21   -1    0    0  503  502  0.00000000000E+00  0.00000000000E+00  0.14216602784E+03  0.14216602784E+03  0.00000000000E+00 0.  1.
         21   -1    0    0  501  503 -0.00000000000E+00 -0.00000000000E+00 -0.35394426544E+03  0.35394426544E+03  0.00000000000E+00 0. -1.
          6    1    1    2  501    0  0.60209997485E+02 -0.11297060979E+03 -0.17879962051E+03  0.27917898697E+03  0.17200000000E+03 0. -1.
         -6    1    1    2    0  502 -0.60209997485E+02  0.11297060979E+03 -0.32978617090E+02  0.21693130631E+03  0.17200000000E+03 0.  1.
</event>
<event>
 4    1  0.1232978E+000  0.2241617E+03  0.7818608E-02  0.1130818E+00
         21   -1    0    0  501  502  0.00000000000E+00  0.00000000000E+00  0.26053848678E+03  0.26053848678E+03  0.00000000000E+00 0.  1.
         21   -1    0    0  502  503 -0.00000000000E+00 -0.00000000000E+00 -0.23965019619E+03  0.23965019619E+03  0.00000000000E+00 0. -1.
          6    1    1    2  501    0 -0.14346994631E+03  0.89918699680E+01  0.12094715737E+03  0.25470903811E+03  0.17200000000E+03 0. -1.
         -6    1    1    2    0  503  0.14346994631E+03 -0.89918699680E+01 -0.10005886677E+03  0.24547964486E+03  0.17200000000E+03 0. -1.
</event>
<event>
 4    1  0.1232978E+000  0.2300118E+03  0.7818608E-02  0.1126631E+00
         21   -1    0    0  501  502  0.00000000000E+00  0.00000000000E+00  0.15678861520E+04  0.15678861520E+04  0.00000000000E+00 0.  1.
         21   -1    0    0  502  503 -0.00000000000E+00 -0.00000000000E+00 -0.64998287825E+02  0.64998287825E+02  0.00000000000E+00 0. -1.
          6    1    1    2  501    0 -0.13921799757E+03  0.62767717486E+02  0.13175986346E+04  0.13375244293E+04  0.17200000000E+03 0.  1.
         -6    1    1    2    0  503  0.13921799757E+03 -0.62767717486E+02  0.18528922964E+03  0.29536001054E+03  0.17200000000E+03 0. -1.
</event>
<event>
 4    1  0.1232978E+000  0.1758693E+03  0.7818608E-02  0.1171862E+00
         21   -1    0    0  501  502  0.00000000000E+00  0.00000000000E+00  0.58979880689E+03  0.58979880689E+03  0.00000000000E+00 0. -1.
         21   -1    0    0  502  503 -0.00000000000E+00 -0.00000000000E+00 -0.56585405669E+02  0.56585405669E+02  0.00000000000E+00 0. -1.
          6    1    1    2  501    0 -0.28474436815E+02 -0.23134866635E+02  0.35406604541E+03  0.39533881687E+03  0.17200000000E+03 0. -1.
         -6    1    1    2    0  503  0.28474436815E+02  0.23134866635E+02  0.17914735581E+03  0.25104539570E+03  0.17200000000E+03 0. -1.
</event>
<event>
 4    1  0.1232978E+000  0.2375905E+03  0.7818608E-02  0.1121408E+00
         21   -1    0    0  503  502  0.00000000000E+00  0.00000000000E+00  0.92976186134E+02  0.92976186134E+02  0.00000000000E+00 0.  1.
         21   -1    0    0  501  503 -0.00000000000E+00 -0.00000000000E+00 -0.63192023093E+03  0.63192023093E+03  0.00000000000E+00 0. -1.
          6    1    1    2  501    0 -0.30023242976E+02  0.16113301900E+03 -0.34125101365E+03  0.41581426052E+03  0.17200000000E+03 0. -1.
         -6    1    1    2    0  502  0.30023242976E+02 -0.16113301900E+03 -0.19769303115E+03  0.30908215655E+03  0.17200000000E+03 0. -1.
</event>
<event>
 4    1  0.1232978E+000  0.1804178E+03  0.7818608E-02  0.1167399E+00
         21   -1    0    0  503  502  0.00000000000E+00  0.00000000000E+00  0.31979253760E+03  0.31979253760E+03  0.00000000000E+00 0.  1.
         21   -1    0    0  501  503 -0.00000000000E+00 -0.00000000000E+00 -0.20264488277E+03  0.20264488277E+03  0.00000000000E+00 0.  1.
          6    1    1    2  501    0 -0.28777428405E+02 -0.46243324912E+02  0.24285981298E+03  0.30254169010E+03  0.17200000000E+03 0.  1.
         -6    1    1    2    0  502  0.28777428405E+02  0.46243324912E+02 -0.12571215816E+03  0.21989573028E+03  0.17200000000E+03 0.  1.
</event>
<event>
 4    1  0.1232978E+000  0.1869156E+03  0.7818608E-02  0.1161273E+00
         21   -1    0    0  503  502  0.00000000000E+00  0.00000000000E+00  0.23417317348E+02  0.23417317348E+02  0.00000000000E+00 0.  1.
         21   -1    0    0  501  503 -0.00000000000E+00 -0.00000000000E+00 -0.14919511554E+04  0.14919511554E+04  0.00000000000E+00 0.  1.
          6    1    1    2  501    0  0.28361385393E+02 -0.67446893834E+02 -0.73509770731E+03  0.75848934796E+03  0.17200000000E+03 0.  1.
         -6    1    1    2    0  502 -0.28361385393E+02  0.67446893834E+02 -0.73343613076E+03  0.75687912481E+03  0.17200000000E+03 0.  1.
</event>
<event>
 4    1  0.1232978E+000  0.1735638E+03  0.7818608E-02  0.1174182E+00
         21   -1    0    0  501  502  0.00000000000E+00  0.00000000000E+00  0.23366440347E+02  0.23366440347E+02  0.00000000000E+00 0.  1.
         21   -1    0    0  502  503 -0.00000000000E+00 -0.00000000000E+00 -0.13319212562E+04  0.13319212562E+04  0.00000000000E+00 0.  1.
          6    1    1    2  501    0  0.20587751033E+02 -0.10794569357E+02 -0.77561774135E+03  0.79480013772E+03  0.17200000000E+03 0.  1.
         -6    1    1    2    0  503 -0.20587751033E+02  0.10794569357E+02 -0.53293707448E+03  0.56048755881E+03  0.17200000000E+03 0.  1.
</event>
<event>
 4    1  0.1232978E+000  0.3534034E+03  0.7818608E-02  0.1061227E+00
         21   -1    0    0  503  502  0.00000000000E+00  0.00000000000E+00  0.17612326950E+03  0.17612326950E+03  0.00000000000E+00 0.  1.
         21   -1    0    0  501  503 -0.00000000000E+00 -0.00000000000E+00 -0.95911929442E+03  0.95911929442E+03  0.00000000000E+00 0. -1.
          6    1    1    2  501    0 -0.26287417960E+03 -0.16188609885E+03 -0.68128894461E+03  0.76749499630E+03  0.17200000000E+03 0. -1.
         -6    1    1    2    0  502  0.26287417960E+03  0.16188609885E+03 -0.10170708031E+03  0.36774756762E+03  0.17200000000E+03 0. -1.
</event>
<event>
 4    1  0.1232978E+000  0.2624326E+03  0.7818608E-02  0.1105690E+00
         21   -1    0    0  503  502  0.00000000000E+00  0.00000000000E+00  0.59230543534E+03  0.59230543534E+03  0.00000000000E+00 0. -1.
         21   -1    0    0  501  503 -0.00000000000E+00 -0.00000000000E+00 -0.16176686960E+03  0.16176686960E+03  0.00000000000E+00 0.  1.
          6    1    1    2  501    0 -0.14385039813E+03 -0.13635965901E+03  0.15328941306E+02  0.26287995376E+03  0.17200000000E+03 0. -1.
         -6    1    1    2    0  502  0.14385039813E+03  0.13635965901E+03  0.41520962443E+03  0.49119235119E+03  0.17200000000E+03 0.  1.
</event>
<event>
 4    1  0.1232978E+000  0.2866098E+03  0.7818608E-02  0.1092133E+00
         21   -1    0    0  503  502  0.00000000000E+00  0.00000000000E+00  0.27563457130E+03  0.27563457130E+03  0.00000000000E+00 0. -1.
         21   -1    0    0  501  503 -0.00000000000E+00 -0.00000000000E+00 -0.37423147001E+03  0.37423147001E+03  0.00000000000E+00 0.  1.
          6    1    1    2  501    0 -0.75090238214E+02  0.21661627823E+03 -0.19593028542E+03  0.34717982749E+03  0.17200000000E+03 0.  1.
         -6    1    1    2    0  502  0.75090238214E+02 -0.21661627823E+03  0.97333386709E+02  0.30268621382E+03  0.17200000000E+03 0.  1.
</event>
<event>
 4    1  0.1232978E+000  0.1966831E+03  0.7818608E-02  0.1152568E+00
         21   -1    0    0  503  502  0.00000000000E+00  0.00000000000E+00  0.16323316725E+03  0.16323316725E+03  0.00000000000E+00 0.  1.
         21   -1    0    0  501  503 -0.00000000000E+00 -0.00000000000E+00 -0.23784352452E+03  0.23784352452E+03  0.00000000000E+00 0.  1.
          6    1    1    2  501    0 -0.20563200244E+02  0.93152626005E+02 -0.49334408025E+02  0.20277608525E+03  0.17200000000E+03 0. -1.
         -6    1    1    2    0  502  0.20563200244E+02 -0.93152626005E+02 -0.25275949249E+02  0.19830060652E+03  0.17200000000E+03 0. -1.
</event>
<event>
 4    1  0.1232978E+000  0.3744510E+03  0.7818608E-02  0.1053004E+00
         21   -1    0    0  503  502  0.00000000000E+00  0.00000000000E+00  0.60313415215E+03  0.60313415215E+03  0.00000000000E+00 0.  1.
         21   -1    0    0  501  503 -0.00000000000E+00 -0.00000000000E+00 -0.23591383022E+03  0.23591383022E+03  0.00000000000E+00 0. -1.
          6    1    1    2  501    0  0.27037240460E+03  0.19372219500E+03  0.23426191321E+03  0.44169239294E+03  0.17200000000E+03 0.  1.
         -6    1    1    2    0  502 -0.27037240460E+03 -0.19372219500E+03  0.13295840872E+03  0.39735558944E+03  0.17200000000E+03 0.  1.
</event>
<event>
 4    1  0.1232978E+000  0.2157539E+03  0.7818608E-02  0.1137089E+00
         21   -1    0    0  503  502  0.00000000000E+00  0.00000000000E+00  0.99957008413E+03  0.99957008413E+03  0.00000000000E+00 0.  1.
         21   -1    0    0  501  503 -0.00000000000E+00 -0.00000000000E+00 -0.58891329976E+02  0.58891329976E+02  0.00000000000E+00 0.  1.
          6    1    1    2  501    0  0.10039115812E+03  0.82990160813E+02  0.22826314147E+03  0.31409204570E+03  0.17200000000E+03 0.  1.
         -6    1    1    2    0  502 -0.10039115812E+03 -0.82990160813E+02  0.71241561268E+03  0.74436936840E+03  0.17200000000E+03 0.  1.
</event>
<event>
 4    1  0.1232978E+000  0.1998157E+03  0.7818608E-02  0.1149895E+00
         21   -1    0    0  503  502  0.00000000000E+00  0.00000000000E+00  0.58636365571E+02  0.58636365571E+02  0.00000000000E+00 0. -1.
         21   -1    0    0  501  503 -0.00000000000E+00 -0.00000000000E+00 -0.96056391202E+03  0.96056391202E+03  0.00000000000E+00 0.  1.
          6    1    1    2  501    0  0.39237695129E+02 -0.93822807449E+02 -0.72592650348E+03  0.75292470033E+03  0.17200000000E+03 0.  1.
         -6    1    1    2    0  502 -0.39237695129E+02  0.93822807449E+02 -0.17600104296E+03  0.26627557725E+03  0.17200000000E+03 0. -1.
</event>
<event>
 4    1  0.1232978E+000  0.1975181E+03  0.7818608E-02  0.1151850E+00
         21   -1    0    0  501  502  0.00000000000E+00  0.00000000000E+00  0.62613331078E+02  0.62613331078E+02  0.00000000000E+00 0.  1.
         21   -1    0    0  502  503 -0.00000000000E+00 -0.00000000000E+00 -0.10980672465E+04  0.10980672465E+04  0.00000000000E+00 0.  1.
          6    1    1    2  501    0 -0.31157564427E+01 -0.97055124348E+02 -0.13604018996E+03  0.23983398088E+03  0.17200000000E+03 0.  1.
         -6    1    1    2    0  503  0.31157564427E+01  0.97055124348E+02 -0.89941372546E+03  0.92084659670E+03  0.17200000000E+03 0.  1.
</event>
<event>
 4    1  0.1232978E+000  0.1967954E+03  0.7818608E-02  0.1152471E+00
         21   -1    0    0  503  502  0.00000000000E+00  0.00000000000E+00  0.23097397780E+02  0.23097397780E+02  0.00000000000E+00 0. -1.
         21   -1    0    0  501  503 -0.00000000000E+00 -0.00000000000E+00 -0.18521756274E+04  0.18521756274E+04  0.00000000000E+00 0. -1.
          6    1    1    2  501    0  0.50901412426E+02 -0.80953451840E+02 -0.12031068711E+04  0.12190957955E+04  0.17200000000E+03 0. -1.
         -6    1    1    2    0  502 -0.50901412426E+02  0.80953451840E+02 -0.62597135850E+03  0.65617722973E+03  0.17200000000E+03 0. -1.
</event>
<event>
 4    1  0.1232978E+000  0.1907704E+03  0.7818608E-02  0.1157768E+00
         21   -1    0    0  503  502  0.00000000000E+00  0.00000000000E+00  0.91534403329E+03  0.91534403329E+03  0.00000000000E+00 0. -1.
         21   -1    0    0  501  503 -0.00000000000E+00 -0.00000000000E+00 -0.40328234333E+02  0.40328234333E+02  0.00000000000E+00 0. -1.
          6    1    1    2  501    0 -0.55228438866E+02 -0.61311946381E+02  0.49426867406E+03  0.52980643388E+03  0.17200000000E+03 0. -1.
         -6    1    1    2    0  502  0.55228438866E+02  0.61311946381E+02  0.38074712490E+03  0.42586583374E+03  0.17200000000E+03 0. -1.
</event>
<event>
 4    1  0.1232978E+000  0.2147520E+03  0.7818608E-02  0.1137857E+00
         21   -1    0    0  501  502  0.00000000000E+00  0.00000000000E+00  0.12663923720E+03  0.12663923720E+03  0.00000000000E+00 0.  1.
         21   -1    0    0  502  503 -0.00000000000E+00 -0.00000000000E+00 -0.45686677690E+03  0.45686677690E+03  0.00000000000E+00 0.  1.
          6    1    1    2  501    0 -0.39926708023E+02 -0.12223048679E+03 -0.33697618040E+02  0.21737976764E+03  0.17200000000E+03 0.  1.
         -6    1    1    2    0  503  0.39926708023E+02  0.12223048679E+03 -0.29652992165E+03  0.36612624646E+03  0.17200000000E+03 0.  1.
</event>
<event>
 4    1  0.1232978E+000  0.1867180E+03  0.7818608E-02  0.1161455E+00
         21   -1    0    0  503  502  0.00000000000E+00  0.00000000000E+00  0.28183096492E+03  0.28183096492E+03  0.00000000000E+00 0.  1.
         21   -1    0    0  501  503 -0.00000000000E+00 -0.00000000000E+00 -0.31985921847E+03  0.31985921847E+03  0.00000000000E+00 0.  1.
          6    1    1    2  501    0 -0.63301332344E+02  0.35672994278E+02 -0.25460768632E+03  0.31573516613E+03  0.17200000000E+03 0.  1.
         -6    1    1    2    0  502  0.63301332344E+02 -0.35672994278E+02  0.21657943277E+03  0.28595501726E+03  0.17200000000E+03 0.  1.
</event>
<event>
 4    1  0.1232978E+000  0.1855049E+03  0.7818608E-02  0.1162579E+00
         21   -1    0    0  503  502  0.00000000000E+00  0.00000000000E+00  0.54217502587E+02  0.54217502587E+02  0.00000000000E+00 0.  1.
         21   -1    0    0  501  503 -0.00000000000E+00 -0.00000000000E+00 -0.63565419720E+03  0.63565419720E+03  0.00000000000E+00 0.  1.
          6    1    1    2  501    0  0.42375007918E+02  0.55067399776E+02 -0.27738129616E+03  0.33369513522E+03  0.17200000000E+03 0.  1.
         -6    1    1    2    0  502 -0.42375007918E+02 -0.55067399776E+02 -0.30405539845E+03  0.35617656456E+03  0.17200000000E+03 0.  1.
</event>
<event>
 4    1  0.1232978E+000  0.8776763E+03  0.7818608E-02  0.9453926E-01
         21   -1    0    0  501  502  0.00000000000E+00  0.00000000000E+00  0.16725606838E+04  0.16725606838E+04  0.00000000000E+00 0. -1.
         21   -1    0    0  502  503 -0.00000000000E+00 -0.00000000000E+00 -0.47857142333E+03  0.47857142333E+03  0.00000000000E+00 0.  1.
          6    1    1    2  501    0  0.73305826367E+03 -0.45095150010E+03  0.80565002322E+03  0.11913805577E+04  0.17200000000E+03 0.  1.
         -6    1    1    2    0  503 -0.73305826367E+03  0.45095150010E+03  0.38833923720E+03  0.95975154938E+03  0.17200000000E+03 0. -1.
</event>
<event>
 4    1  0.1232978E+000  0.3607182E+03  0.7818608E-02  0.1058300E+00
         21   -1    0    0  501  502  0.00000000000E+00  0.00000000000E+00  0.62927726418E+03  0.62927726418E+03  0.00000000000E+00 0.  1.
         21   -1    0    0  502  503 -0.00000000000E+00 -0.00000000000E+00 -0.28774863948E+03  0.28774863948E+03  0.00000000000E+00 0. -1.
          6    1    1    2  501    0  0.31301388678E+03  0.50556301911E+02  0.41399692146E+03  0.54910024946E+03  0.17200000000E+03 0.  1.
         -6    1    1    2    0  503 -0.31301388678E+03 -0.50556301911E+02 -0.72468296759E+02  0.36792565420E+03  0.17200000000E+03 0. -1.
</event>
<event>
 4    1  0.1232978E+000  0.2311947E+03  0.7818608E-02  0.1125802E+00
         21   -1    0    0  503  502  0.00000000000E+00  0.00000000000E+00  0.11698604181E+03  0.11698604181E+03  0.00000000000E+00 0.  1.
         21   -1    0    0  501  503 -0.00000000000E+00 -0.00000000000E+00 -0.47083279837E+03  0.47083279837E+03  0.00000000000E+00 0.  1.
          6    1    1    2  501    0  0.22894401443E+02  0.15278361814E+03 -0.22748146802E+03  0.32434365399E+03  0.17200000000E+03 0.  1.
         -6    1    1    2    0  502 -0.22894401443E+02 -0.15278361814E+03 -0.12636528854E+03  0.26347518619E+03  0.17200000000E+03 0.  1.
</event>
<event>
 4    1  0.1232978E+000  0.1967100E+03  0.7818608E-02  0.1152545E+00
         21   -1    0    0  501  502  0.00000000000E+00  0.00000000000E+00  0.83216172311E+02  0.83216172311E+02  0.00000000000E+00 0.  1.
         21   -1    0    0  502  503 -0.00000000000E+00 -0.00000000000E+00 -0.11557131666E+04  0.11557131666E+04  0.00000000000E+00 0.  1.
          6    1    1    2  501    0 -0.90086179134E+01  0.95024522047E+02 -0.57350475854E+02  0.20489971222E+03  0.17200000000E+03 0.  1.
         -6    1    1    2    0  503  0.90086179134E+01 -0.95024522047E+02 -0.10151465184E+04  0.10340296267E+04  0.17200000000E+03 0.  1.
</event>
<event>
 4    1  0.1232978E+000  0.1733028E+03  0.7818608E-02  0.1174447E+00
         21   -1    0    0  501  502  0.00000000000E+00  0.00000000000E+00  0.41736244989E+03  0.41736244989E+03  0.00000000000E+00 0.  1.
         21   -1    0    0  502  503 -0.00000000000E+00 -0.00000000000E+00 -0.18860392446E+03  0.18860392446E+03  0.00000000000E+00 0.  1.
          6    1    1    2  501    0  0.52890628987E+01 -0.20540179143E+02  0.35265077794E+03  0.39293312958E+03  0.17200000000E+03 0.  1.
         -6    1    1    2    0  503 -0.52890628987E+01  0.20540179143E+02 -0.12389225251E+03  0.21303324477E+03  0.17200000000E+03 0.  1.
</event>
<event>
 4    1  0.1232978E+000  0.1881465E+03  0.7818608E-02  0.1160144E+00
         21   -1    0    0  501  502  0.00000000000E+00  0.00000000000E+00  0.43120611148E+02  0.43120611148E+02  0.00000000000E+00 0.  1.
         21   -1    0    0  502  503 -0.00000000000E+00 -0.00000000000E+00 -0.10810847530E+04  0.10810847530E+04  0.00000000000E+00 0.  1.
          6    1    1    2  501    0  0.75356801812E+02  0.11681855065E+02 -0.24324221817E+03  0.30751567442E+03  0.17200000000E+03 0.  1.
         -6    1    1    2    0  503 -0.75356801812E+02 -0.11681855065E+02 -0.79472192368E+03  0.81668968972E+03  0.17200000000E+03 0.  1.
</event>
<event>
 4    1  0.1232978E+000  0.3961669E+03  0.7818608E-02  0.1045115E+00
         21   -1    0    0  503  502  0.00000000000E+00  0.00000000000E+00  0.50607626534E+03  0.50607626534E+03  0.00000000000E+00 0.  1.
         21   -1    0    0  501  503 -0.00000000000E+00 -0.00000000000E+00 -0.38889405494E+03  0.38889405494E+03  0.00000000000E+00 0. -1.
          6    1    1    2  501    0  0.34772741022E+03 -0.80310954843E+02  0.25997916782E+03  0.47385374219E+03  0.17200000000E+03 0.  1.
         -6    1    1    2    0  502 -0.34772741022E+03  0.80310954843E+02 -0.14279695742E+03  0.42111657809E+03  0.17200000000E+03 0. -1.
</event>
<event>
 4    1  0.1232978E+000  0.1800429E+03  0.7818608E-02  0.1167762E+00
         21   -1    0    0  503  502  0.00000000000E+00  0.00000000000E+00  0.60725827245E+02  0.60725827245E+02  0.00000000000E+00 0.  1.
         21   -1    0    0  501  503 -0.00000000000E+00 -0.00000000000E+00 -0.65830340607E+03  0.65830340607E+03  0.00000000000E+00 0. -1.
          6    1    1    2  501    0 -0.78118525284E+01 -0.52634775450E+02 -0.45513745304E+03  0.48945433473E+03  0.17200000000E+03 0. -1.
         -6    1    1    2    0  502  0.78118525284E+01  0.52634775450E+02 -0.14244012579E+03  0.22957489859E+03  0.17200000000E+03 0.  1.
</event>
<event>
 4    1  0.1232978E+000  0.2042319E+03  0.7818608E-02  0.1146217E+00
         21   -1    0    0  503  502  0.00000000000E+00  0.00000000000E+00  0.27294567761E+03  0.27294567761E+03  0.00000000000E+00 0.  1.
         21   -1    0    0  501  503 -0.00000000000E+00 -0.00000000000E+00 -0.18456496272E+03  0.18456496272E+03  0.00000000000E+00 0. -1.
          6    1    1    2  501    0 -0.11004907300E+03 -0.39854207660E+01 -0.50685550919E+02  0.21042743908E+03  0.17200000000E+03 0. -1.
         -6    1    1    2    0  502  0.11004907300E+03  0.39854207660E+01  0.13906626581E+03  0.24708320124E+03  0.17200000000E+03 0.  1.
</event>
<event>
 4    1  0.1232978E+000  0.1773655E+03  0.7818608E-02  0.1170377E+00
         21   -1    0    0  503  502  0.00000000000E+00  0.00000000000E+00  0.39670401452E+02  0.39670401452E+02  0.00000000000E+00 0. -1.
         21   -1    0    0  501  503 -0.00000000000E+00 -0.00000000000E+00 -0.79794716070E+03  0.79794716070E+03  0.00000000000E+00 0. -1.
          6    1    1    2  501    0 -0.14111266278E+02 -0.40931530735E+02 -0.34615244942E+03  0.38894734384E+03  0.17200000000E+03 0.  1.
         -6    1    1    2    0  502  0.14111266278E+02  0.40931530735E+02 -0.41212430983E+03  0.44867021831E+03  0.17200000000E+03 0.  1.
</event>
<event>
 4    1  0.1232978E+000  0.2039665E+03  0.7818608E-02  0.1146435E+00
         21   -1    0    0  501  502  0.00000000000E+00  0.00000000000E+00  0.15718301525E+03  0.15718301525E+03  0.00000000000E+00 0.  1.
         21   -1    0    0  502  503 -0.00000000000E+00 -0.00000000000E+00 -0.86490429310E+03  0.86490429310E+03  0.00000000000E+00 0.  1.
          6    1    1    2  501    0 -0.10086706964E+03 -0.42943731144E+02  0.71867897603E+02  0.21625754204E+03  0.17200000000E+03 0.  1.
         -6    1    1    2    0  503  0.10086706964E+03  0.42943731144E+02 -0.77958917545E+03  0.80582976631E+03  0.17200000000E+03 0.  1.
</event>
<event>
 4    1  0.1232978E+000  0.2109166E+03  0.7818608E-02  0.1140842E+00
         21   -1    0    0  503  502  0.00000000000E+00  0.00000000000E+00  0.11903930749E+03  0.11903930749E+03  0.00000000000E+00 0.  1.
         21   -1    0    0  501  503 -0.00000000000E+00 -0.00000000000E+00 -0.37657447157E+03  0.37657447157E+03  0.00000000000E+00 0. -1.
          6    1    1    2  501    0  0.60994815138E+01 -0.12192057681E+03 -0.15039139407E+03  0.25904324375E+03  0.17200000000E+03 0.  1.
         -6    1    1    2    0  502 -0.60994815138E+01  0.12192057681E+03 -0.10714377001E+03  0.23657053531E+03  0.17200000000E+03 0.  1.
</event>
<event>
 4    1  0.1232978E+000  0.1844044E+03  0.7818608E-02  0.1163607E+00
         21   -1    0    0  503  502  0.00000000000E+00  0.00000000000E+00  0.38962322476E+03  0.38962322476E+03  0.00000000000E+00 0.  1.
         21   -1    0    0  501  503 -0.00000000000E+00 -0.00000000000E+00 -0.12517978080E+03  0.12517978080E+03  0.00000000000E+00 0.  1.
          6    1    1    2  501    0 -0.54810705253E+02 -0.37639775739E+02 -0.94170553999E+01  0.18464465078E+03  0.17200000000E+03 0.  1.
         -6    1    1    2    0  502  0.54810705253E+02  0.37639775739E+02  0.27386049936E+03  0.33015835479E+03  0.17200000000E+03 0.  1.
</event>
<event>
 4    1  0.1232978E+000  0.2131935E+03  0.7818608E-02  0.1139062E+00
         21   -1    0    0  501  502  0.00000000000E+00  0.00000000000E+00  0.56311566289E+03  0.56311566289E+03  0.00000000000E+00 0.  1.
         21   -1    0    0  502  503 -0.00000000000E+00 -0.00000000000E+00 -0.80989115813E+02  0.80989115813E+02  0.00000000000E+00 0. -1.
          6    1    1    2  501    0  0.20559804991E+02 -0.12427699618E+03  0.22230266378E+03  0.30800966168E+03  0.17200000000E+03 0. -1.
         -6    1    1    2    0  503 -0.20559804991E+02  0.12427699618E+03  0.25982388330E+03  0.33609511703E+03  0.17200000000E+03 0.  1.
</event>
<event>
 4    1  0.1232978E+000  0.2048119E+03  0.7818608E-02  0.1145742E+00
         21   -1    0    0  503  502  0.00000000000E+00  0.00000000000E+00  0.96589506241E+02  0.96589506241E+02  0.00000000000E+00 0.  1.
         21   -1    0    0  501  503 -0.00000000000E+00 -0.00000000000E+00 -0.52820203726E+03  0.52820203726E+03  0.00000000000E+00 0. -1.
          6    1    1    2  501    0  0.47333116773E+02  0.10061554754E+03 -0.34753011350E+03  0.40339198324E+03  0.17200000000E+03 0. -1.
         -6    1    1    2    0  502 -0.47333116773E+02 -0.10061554754E+03 -0.84082417516E+02  0.22139956026E+03  0.17200000000E+03 0. -1.
</event>
<event>
 4    1  0.1232978E+000  0.1857500E+03  0.7818608E-02  0.1162351E+00
         21   -1    0    0  503  502  0.00000000000E+00  0.00000000000E+00  0.38953206209E+03  0.38953206209E+03  0.00000000000E+00 0.  1.
         21   -1    0    0  501  503 -0.00000000000E+00 -0.00000000000E+00 -0.17770559446E+03  0.17770559446E+03  0.00000000000E+00 0.  1.
          6    1    1    2  501    0  0.40817743578E+02  0.57034800040E+02 -0.94948089659E+02  0.20861015396E+03  0.17200000000E+03 0. -1.
         -6    1    1    2    0  502 -0.40817743578E+02 -0.57034800040E+02  0.30677455730E+03  0.35862750259E+03  0.17200000000E+03 0. -1.
</event>
<event>
 4    1  0.1232978E+000  0.1720300E+03  0.7818608E-02  0.1175747E+00
         21   -1    0    0  503  502  0.00000000000E+00  0.00000000000E+00  0.11764127931E+03  0.11764127931E+03  0.00000000000E+00 0. -1.
         21   -1    0    0  501  503 -0.00000000000E+00 -0.00000000000E+00 -0.25198361593E+03  0.25198361593E+03  0.00000000000E+00 0. -1.
          6    1    1    2  501    0 -0.22679832451E+01 -0.22777663878E+01 -0.74711281595E+02  0.18755294603E+03  0.17200000000E+03 0. -1.
         -6    1    1    2    0  502  0.22679832451E+01  0.22777663878E+01 -0.59631055022E+02  0.18207194921E+03  0.17200000000E+03 0. -1.
</event>
<event>
 4    1  0.1232978E+000  0.2550325E+03  0.7818608E-02  0.1110165E+00
         21   -1    0    0  503  502  0.00000000000E+00  0.00000000000E+00  0.10489739661E+03  0.10489739661E+03  0.00000000000E+00 0. -1.
         21   -1    0    0  501  503 -0.00000000000E+00 -0.00000000000E+00 -0.72067350249E+03  0.72067350249E+03  0.00000000000E+00 0.  1.
          6    1    1    2  501    0  0.13183328342E+03 -0.13445281031E+03 -0.46213124714E+03  0.52783222941E+03  0.17200000000E+03 0.  1.
         -6    1    1    2    0  502 -0.13183328342E+03  0.13445281031E+03 -0.15364485874E+03  0.29773866970E+03  0.17200000000E+03 0. -1.
</event>
<event>
 4    1  0.1232978E+000  0.2126067E+03  0.7818608E-02  0.1139518E+00
         21   -1    0    0  503  502  0.00000000000E+00  0.00000000000E+00  0.71832786003E+02  0.71832786003E+02  0.00000000000E+00 0. -1.
         21   -1    0    0  501  503 -0.00000000000E+00 -0.00000000000E+00 -0.63043688508E+03  0.63043688508E+03  0.00000000000E+00 0. -1.
          6    1    1    2  501    0  0.10152409724E+03 -0.72873021288E+02 -0.29446242876E+03  0.36319380708E+03  0.17200000000E+03 0. -1.
         -6    1    1    2    0  502 -0.10152409724E+03  0.72873021288E+02 -0.26414167032E+03  0.33907586400E+03  0.17200000000E+03 0. -1.
</event>
<event>
 4    1  0.1232978E+000  0.2004394E+03  0.7818608E-02  0.1149369E+00
         21   -1    0    0  503  502  0.00000000000E+00  0.00000000000E+00  0.52376836657E+02  0.52376836657E+02  0.00000000000E+00 0.  1.
         21   -1    0    0  501  503 -0.00000000000E+00 -0.00000000000E+00 -0.11768138617E+04  0.11768138617E+04  0.00000000000E+00 0.  1.
          6    1    1    2  501    0  0.91195054903E+02 -0.47701417838E+02 -0.92487801785E+03  0.94634840899E+03  0.17200000000E+03 0.  1.
         -6    1    1    2    0  502 -0.91195054903E+02  0.47701417838E+02 -0.19955900721E+03  0.28284228938E+03  0.17200000000E+03 0.  1.
</event>
<event>
 4    1  0.1232978E+000  0.1796378E+03  0.7818608E-02  0.1168154E+00
         21   -1    0    0  503  502  0.00000000000E+00  0.00000000000E+00  0.36079394276E+03  0.36079394276E+03  0.00000000000E+00 0. -1.
         21   -1    0    0  501  503 -0.00000000000E+00 -0.00000000000E+00 -0.18533971080E+03  0.18533971080E+03  0.00000000000E+00 0.  1.
          6    1    1    2  501    0 -0.51823152943E+02  0.33980781214E+00 -0.10869536412E+03  0.20996294157E+03  0.17200000000E+03 0.  1.
         -6    1    1    2    0  502  0.51823152943E+02 -0.33980781214E+00  0.28414959608E+03  0.33617071200E+03  0.17200000000E+03 0. -1.
</event>
<event>
 4    1  0.1232978E+000  0.2141967E+03  0.7818608E-02  0.1138285E+00
         21   -1    0    0  501  502  0.00000000000E+00  0.00000000000E+00  0.13414540557E+03  0.13414540557E+03  0.00000000000E+00 0. -1.
         21   -1    0    0  502  503 -0.00000000000E+00 -0.00000000000E+00 -0.40858381846E+03  0.40858381846E+03  0.00000000000E+00 0. -1.
          6    1    1    2  501    0 -0.12709816169E+03 -0.11928367682E+02 -0.27688423238E+02  0.21597888194E+03  0.17200000000E+03 0. -1.
         -6    1    1    2    0  503  0.12709816169E+03  0.11928367682E+02 -0.24674998965E+03  0.32675034209E+03  0.17200000000E+03 0. -1.
</event>
<event>
 4    1  0.1232978E+000  0.2124565E+03  0.7818608E-02  0.1139635E+00
         21   -1    0    0  501  502  0.00000000000E+00  0.00000000000E+00  0.15084552691E+04  0.15084552691E+04  0.00000000000E+00 0.  1.
         21   -1    0    0  502  503 -0.00000000000E+00 -0.00000000000E+00 -0.30777034451E+02  0.30777034451E+02  0.00000000000E+00 0.  1.
          6    1    1    2  501    0 -0.11443804064E+03 -0.49575181345E+02  0.86702942943E+03  0.89268011922E+03  0.17200000000E+03 0.  1.
         -6    1    1    2    0  503  0.11443804064E+03  0.49575181345E+02  0.61064880523E+03  0.64655218435E+03  0.17200000000E+03 0.  1.
</event>
<event>
 4    1  0.1232978E+000  0.2107373E+03  0.7818608E-02  0.1140983E+00
         21   -1    0    0  501  502  0.00000000000E+00  0.00000000000E+00  0.89786745745E+03  0.89786745745E+03  0.00000000000E+00 0. -1.
         21   -1    0    0  502  503 -0.00000000000E+00 -0.00000000000E+00 -0.68644388881E+02  0.68644388881E+02  0.00000000000E+00 0. -1.
          6    1    1    2  501    0  0.10358701710E+03  0.63999439346E+02  0.67007426247E+03  0.70243128886E+03  0.17200000000E+03 0. -1.
         -6    1    1    2    0  503 -0.10358701710E+03 -0.63999439346E+02  0.15914880610E+03  0.26408055747E+03  0.17200000000E+03 0. -1.
</event>
<event>
 4    1  0.1232978E+000  0.2133390E+03  0.7818608E-02  0.1138949E+00
         21   -1    0    0  501  502  0.00000000000E+00  0.00000000000E+00  0.22718710989E+04  0.22718710989E+04  0.00000000000E+00 0.  1.
         21   -1    0    0  502  503 -0.00000000000E+00 -0.00000000000E+00 -0.24425315337E+02  0.24425315337E+02  0.00000000000E+00 0.  1.
          6    1    1    2  501    0 -0.11579146917E+03  0.50218225231E+02  0.16105780694E+04  0.16246461929E+04  0.17200000000E+03 0.  1.
         -6    1    1    2    0  503  0.11579146917E+03 -0.50218225231E+02  0.63686771417E+03  0.67165022134E+03  0.17200000000E+03 0.  1.
</event>
<event>
 4    1  0.1232978E+000  0.1842820E+03  0.7818608E-02  0.1163722E+00
         21   -1    0    0  503  502  0.00000000000E+00  0.00000000000E+00  0.16484339505E+04  0.16484339505E+04  0.00000000000E+00 0.  1.
         21   -1    0    0  501  503 -0.00000000000E+00 -0.00000000000E+00 -0.44680015615E+02  0.44680015615E+02  0.00000000000E+00 0.  1.
          6    1    1    2  501    0 -0.55014192287E+02  0.36732872571E+02  0.18041251751E+03  0.25789250039E+03  0.17200000000E+03 0.  1.
         -6    1    1    2    0  502  0.55014192287E+02 -0.36732872571E+02  0.14233414173E+04  0.14352214657E+04  0.17200000000E+03 0.  1.
</event>
<event>
 4    1  0.1232978E+000  0.1885787E+03  0.7818608E-02  0.1159750E+00
         21   -1    0    0  503  502  0.00000000000E+00  0.00000000000E+00  0.10850837176E+04  0.10850837176E+04  0.00000000000E+00 0. -1.
         21   -1    0    0  501  503 -0.00000000000E+00 -0.00000000000E+00 -0.39436422747E+02  0.39436422747E+02  0.00000000000E+00 0. -1.
          6    1    1    2  501    0 -0.63628275145E+02  0.43924671705E+02  0.29171159856E+03  0.34735801548E+03  0.17200000000E+03 0.  1.
         -6    1    1    2    0  502  0.63628275145E+02 -0.43924671705E+02  0.75393569625E+03  0.77716212482E+03  0.17200000000E+03 0.  1.
</event>
<event>
 4    1  0.1232978E+000  0.2089428E+03  0.7818608E-02  0.1142406E+00
         21   -1    0    0  503  502  0.00000000000E+00  0.00000000000E+00  0.77349034274E+03  0.77349034274E+03  0.00000000000E+00 0. -1.
         21   -1    0    0  501  503 -0.00000000000E+00 -0.00000000000E+00 -0.90768044143E+02  0.90768044143E+02  0.00000000000E+00 0. -1.
          6    1    1    2  501    0  0.60444230375E+02 -0.10207642285E+03  0.75618679910E+02  0.22220550362E+03  0.17200000000E+03 0. -1.
         -6    1    1    2    0  502 -0.60444230375E+02  0.10207642285E+03  0.60710361869E+03  0.64205288327E+03  0.17200000000E+03 0. -1.
</event>
<event>
 4    1  0.1232978E+000  0.1740116E+03  0.7818608E-02  0.1173728E+00
         21   -1    0    0  503  502  0.00000000000E+00  0.00000000000E+00  0.22808745468E+03  0.22808745468E+03  0.00000000000E+00 0.  1.
         21   -1    0    0  501  503 -0.00000000000E+00 -0.00000000000E+00 -0.13397055559E+03  0.13397055559E+03  0.00000000000E+00 0.  1.
          6    1    1    2  501    0 -0.13855480661E+02  0.22451043206E+02  0.64293655415E+02  0.18550929306E+03  0.17200000000E+03 0.  1.
         -6    1    1    2    0  502  0.13855480661E+02 -0.22451043206E+02  0.29823243666E+02  0.17654871721E+03  0.17200000000E+03 0.  1.
</event>
<event>
 4    1  0.1232978E+000  0.1945923E+03  0.7818608E-02  0.1154383E+00
         21   -1    0    0  501  502  0.00000000000E+00  0.00000000000E+00  0.29257407056E+02  0.29257407056E+02  0.00000000000E+00 0. -1.
         21   -1    0    0  502  503 -0.00000000000E+00 -0.00000000000E+00 -0.15694133851E+04  0.15694133851E+04  0.00000000000E+00 0. -1.
          6    1    1    2  501    0 -0.72678939244E+02 -0.54771494818E+02 -0.43537272125E+03  0.47688106616E+03  0.17200000000E+03 0. -1.
         -6    1    1    2    0  503  0.72678939244E+02  0.54771494818E+02 -0.11047832568E+04  0.11217897260E+04  0.17200000000E+03 0. -1.
</event>
<event>
 4    1  0.1232978E+000  0.1796836E+03  0.7818608E-02  0.1168110E+00
         21   -1    0    0  501  502  0.00000000000E+00  0.00000000000E+00  0.24003274793E+02  0.24003274793E+02  0.00000000000E+00 0.  1.
         21   -1    0    0  502  503 -0.00000000000E+00 -0.00000000000E+00 -0.13863608366E+04  0.13863608366E+04  0.00000000000E+00 0.  1.
          6    1    1    2  501    0  0.51827635432E+02 -0.40107553056E+01 -0.55948541062E+03  0.58763093405E+03  0.17200000000E+03 0.  1.
         -6    1    1    2    0  503 -0.51827635432E+02  0.40107553056E+01 -0.80287215118E+03  0.82273317734E+03  0.17200000000E+03 0.  1.
</event>
<event>
 4    1  0.1232978E+000  0.1948600E+03  0.7818608E-02  0.1154150E+00
         21   -1    0    0  501  502  0.00000000000E+00  0.00000000000E+00  0.88887766091E+02  0.88887766091E+02  0.00000000000E+00 0.  1.
         21   -1    0    0  502  503 -0.00000000000E+00 -0.00000000000E+00 -0.47019013097E+03  0.47019013097E+03  0.00000000000E+00 0.  1.
          6    1    1    2  501    0 -0.34400692460E+02 -0.84870528346E+02 -0.10609827700E+03  0.22187216726E+03  0.17200000000E+03 0.  1.
         -6    1    1    2    0  503  0.34400692460E+02  0.84870528346E+02 -0.27520408788E+03  0.33720572980E+03  0.17200000000E+03 0.  1.
</event>
<event>
 4    1  0.1232978E+000  0.1956961E+03  0.7818608E-02  0.1153422E+00
         21   -1    0    0  503  502  0.00000000000E+00  0.00000000000E+00  0.59338852682E+03  0.59338852682E+03  0.00000000000E+00 0.  1.
         21   -1    0    0  501  503 -0.00000000000E+00 -0.00000000000E+00 -0.12096031770E+03  0.12096031770E+03  0.00000000000E+00 0. -1.
          6    1    1    2  501    0  0.15921777701E+02  0.91975427068E+02  0.48015167130E+03  0.51850034681E+03  0.17200000000E+03 0.  1.
         -6    1    1    2    0  502 -0.15921777701E+02 -0.91975427068E+02 -0.77234621693E+01  0.19584849772E+03  0.17200000000E+03 0. -1.
</event>
<event>
 4    1  0.1232978E+000  0.2362988E+03  0.7818608E-02  0.1122283E+00
         21   -1    0    0  501  502  0.00000000000E+00  0.00000000000E+00  0.32769528942E+03  0.32769528942E+03  0.00000000000E+00 0. -1.
         21   -1    0    0  502  503 -0.00000000000E+00 -0.00000000000E+00 -0.18570685868E+03  0.18570685868E+03  0.00000000000E+00 0.  1.
          6    1    1    2  501    0 -0.16200836520E+03 -0.25310963810E+01  0.14470826305E+03  0.27708770857E+03  0.17200000000E+03 0. -1.
         -6    1    1    2    0  503  0.16200836520E+03  0.25310963810E+01 -0.27198323048E+01  0.23631443953E+03  0.17200000000E+03 0. -1.
</event>
<event>
 4    1  0.1232978E+000  0.2407569E+03  0.7818608E-02  0.1119290E+00
         21   -1    0    0  503  502  0.00000000000E+00  0.00000000000E+00  0.16939539427E+03  0.16939539427E+03  0.00000000000E+00 0. -1.
         21   -1    0    0  501  503 -0.00000000000E+00 -0.00000000000E+00 -0.50797180198E+03  0.50797180198E+03  0.00000000000E+00 0.  1.
          6    1    1    2  501    0 -0.12754752246E+03 -0.11005232297E+03 -0.36277644977E+03  0.43539710241E+03  0.17200000000E+03 0. -1.
         -6    1    1    2    0  502  0.12754752246E+03  0.11005232297E+03  0.24200042066E+02  0.24197009384E+03  0.17200000000E+03 0. -1.
</event>
<event>
 4    1  0.1232978E+000  0.1899069E+03  0.7818608E-02  0.1158545E+00
         21   -1    0    0  501  502  0.00000000000E+00  0.00000000000E+00  0.10694640669E+03  0.10694640669E+03  0.00000000000E+00 0.  1.
         21   -1    0    0  502  503 -0.00000000000E+00 -0.00000000000E+00 -0.79288592148E+03  0.79288592148E+03  0.00000000000E+00 0.  1.
          6    1    1    2  501    0 -0.45461505223E+02 -0.66436913610E+02 -0.18955542936E+01  0.18991631071E+03  0.17200000000E+03 0.  1.
         -6    1    1    2    0  503  0.45461505223E+02  0.66436913610E+02 -0.68404396050E+03  0.70991601746E+03  0.17200000000E+03 0.  1.
</event>
<event>
 4    1  0.1232978E+000  0.1726890E+03  0.7818608E-02  0.1175072E+00
         21   -1    0    0  501  502  0.00000000000E+00  0.00000000000E+00  0.10101301351E+03  0.10101301351E+03  0.00000000000E+00 0. -1.
         21   -1    0    0  502  503 -0.00000000000E+00 -0.00000000000E+00 -0.39966496127E+03  0.39966496127E+03  0.00000000000E+00 0. -1.
          6    1    1    2  501    0  0.14432881189E+02  0.54029456534E+01 -0.21353906996E+02  0.17400427933E+03  0.17200000000E+03 0. -1.
         -6    1    1    2    0  503 -0.14432881189E+02 -0.54029456534E+01 -0.27729804076E+03  0.32667369544E+03  0.17200000000E+03 0. -1.
</event>
<event>
 4    1  0.1232978E+000  0.1729225E+03  0.7818608E-02  0.1174834E+00
         21   -1    0    0  501  502  0.00000000000E+00  0.00000000000E+00  0.26322653457E+02  0.26322653457E+02  0.00000000000E+00 0. -1.
         21   -1    0    0  502  503 -0.00000000000E+00 -0.00000000000E+00 -0.12708870766E+04  0.12708870766E+04  0.00000000000E+00 0. -1.
          6    1    1    2  501    0  0.14373117850E+02  0.10563971675E+02 -0.41096575737E+03  0.44586437147E+03  0.17200000000E+03 0. -1.
         -6    1    1    2    0  503 -0.14373117850E+02 -0.10563971675E+02 -0.83359866582E+03  0.85134535863E+03  0.17200000000E+03 0. -1.
</event>
<event>
 4    1  0.1232978E+000  0.1879714E+03  0.7818608E-02  0.1160304E+00
         21   -1    0    0  501  502  0.00000000000E+00  0.00000000000E+00  0.22241798464E+03  0.22241798464E+03  0.00000000000E+00 0. -1.
         21   -1    0    0  502  503 -0.00000000000E+00 -0.00000000000E+00 -0.16888548710E+03  0.16888548710E+03  0.00000000000E+00 0.  1.
          6    1    1    2  501    0 -0.44883941657E+02  0.61111876388E+02  0.74436690963E+02  0.20217331826E+03  0.17200000000E+03 0. -1.
         -6    1    1    2    0  503  0.44883941657E+02 -0.61111876388E+02 -0.20904193420E+02  0.18913015348E+03  0.17200000000E+03 0. -1.
</event>
<event>
 4    1  0.1232978E+000  0.1809070E+03  0.7818608E-02  0.1166928E+00
         21   -1    0    0  503  502  0.00000000000E+00  0.00000000000E+00  0.12602044386E+03  0.12602044386E+03  0.00000000000E+00 0.  1.
         21   -1    0    0  501  503 -0.00000000000E+00 -0.00000000000E+00 -0.26987116137E+03  0.26987116137E+03  0.00000000000E+00 0. -1.
          6    1    1    2  501    0  0.34577591715E+02 -0.44133252440E+02 -0.33494537623E+02  0.18398162373E+03  0.17200000000E+03 0.  1.
         -6    1    1    2    0  502 -0.34577591715E+02  0.44133252440E+02 -0.11035617989E+03  0.21190998150E+03  0.17200000000E+03 0.  1.
</event>
<event>
 4    1  0.1232978E+000  0.1963004E+03  0.7818608E-02  0.1152898E+00
         21   -1    0    0  503  502  0.00000000000E+00  0.00000000000E+00  0.56489679691E+02  0.56489679691E+02  0.00000000000E+00 0. -1.
         21   -1    0    0  501  503 -0.00000000000E+00 -0.00000000000E+00 -0.11545562423E+04  0.11545562423E+04  0.00000000000E+00 0. -1.
          6    1    1    2  501    0  0.51516953862E+02 -0.79346380375E+02 -0.93636734024E+03  0.95672234242E+03  0.17200000000E+03 0. -1.
         -6    1    1    2    0  502 -0.51516953862E+02  0.79346380375E+02 -0.16169922238E+03  0.25432357958E+03  0.17200000000E+03 0. -1.
</event>
<event>
 4    1  0.1232978E+000  0.1742738E+03  0.7818608E-02  0.1173463E+00
         21   -1    0    0  501  502  0.00000000000E+00  0.00000000000E+00  0.15874159907E+03  0.15874159907E+03  0.00000000000E+00 0.  1.
         21   -1    0    0  502  503 -0.00000000000E+00 -0.00000000000E+00 -0.19727047593E+03  0.19727047593E+03  0.00000000000E+00 0. -1.
          6    1    1    2  501    0  0.16525593057E+02  0.22677571256E+02  0.11636157243E+02  0.17466186653E+03  0.17200000000E+03 0.  1.
         -6    1    1    2    0  503 -0.16525593057E+02 -0.22677571256E+02 -0.50165034101E+02  0.18135020846E+03  0.17200000000E+03 0. -1.
</event>
<event>
 4    1  0.1232978E+000  0.1959657E+03  0.7818608E-02  0.1153188E+00
         21   -1    0    0  503  502  0.00000000000E+00  0.00000000000E+00  0.42467181310E+03  0.42467181310E+03  0.00000000000E+00 0. -1.
         21   -1    0    0  501  503 -0.00000000000E+00 -0.00000000000E+00 -0.24268824559E+03  0.24268824559E+03  0.00000000000E+00 0.  1.
          6    1    1    2  501    0  0.74885491924E+02  0.56663140787E+02 -0.17330873353E+03  0.26160746462E+03  0.17200000000E+03 0.  1.
         -6    1    1    2    0  502 -0.74885491924E+02 -0.56663140787E+02  0.35529230104E+03  0.40575259408E+03  0.17200000000E+03 0.  1.
</event>
<event>
 4    1  0.1232978E+000  0.2654731E+03  0.7818608E-02  0.1103899E+00
         21   -1    0    0  501  502  0.00000000000E+00  0.00000000000E+00  0.14576220062E+03  0.14576220062E+03  0.00000000000E+00 0. -1.
         21   -1    0    0  502  503 -0.00000000000E+00 -0.00000000000E+00 -0.75178276952E+03  0.75178276952E+03  0.00000000000E+00 0.  1.
          6    1    1    2  501    0 -0.20123487700E+03 -0.19911433592E+02 -0.34922583794E+02  0.26776020572E+03  0.17200000000E+03 0. -1.
         -6    1    1    2    0  503  0.20123487700E+03  0.19911433592E+02 -0.57109798511E+03  0.62978476442E+03  0.17200000000E+03 0.  1.
</event>
<event>
 4    1  0.1232978E+000  0.2045284E+03  0.7818608E-02  0.1145974E+00
         21   -1    0    0  501  502  0.00000000000E+00  0.00000000000E+00  0.24423809160E+03  0.24423809160E+03  0.00000000000E+00 0. -1.
         21   -1    0    0  502  503 -0.00000000000E+00 -0.00000000000E+00 -0.24744590092E+03  0.24744590092E+03  0.00000000000E+00 0. -1.
          6    1    1    2  501    0 -0.10918294845E+03 -0.18081595954E+02  0.13479494491E+03  0.24495211271E+03  0.17200000000E+03 0.  1.
         -6    1    1    2    0  503  0.10918294845E+03  0.18081595954E+02 -0.13800275423E+03  0.24673187982E+03  0.17200000000E+03 0.  1.
</event>
<event>
 4    1  0.1232978E+000  0.1911512E+03  0.7818608E-02  0.1157427E+00
         21   -1    0    0  503  502  0.00000000000E+00  0.00000000000E+00  0.34818187715E+03  0.34818187715E+03  0.00000000000E+00 0.  1.
         21   -1    0    0  501  503 -0.00000000000E+00 -0.00000000000E+00 -0.42839109030E+03  0.42839109030E+03  0.00000000000E+00 0.  1.
          6    1    1    2  501    0 -0.64365469742E+02  0.53027220083E+02 -0.37749695043E+03  0.42313443177E+03  0.17200000000E+03 0. -1.
         -6    1    1    2    0  502  0.64365469742E+02 -0.53027220083E+02  0.29728773728E+03  0.35343853568E+03  0.17200000000E+03 0. -1.
</event>
<event>
 4    1  0.1232978E+000  0.2260053E+03  0.7818608E-02  0.1129483E+00
         21   -1    0    0  503  502  0.00000000000E+00  0.00000000000E+00  0.39310573349E+03  0.39310573349E+03  0.00000000000E+00 0. -1.
         21   -1    0    0  501  503 -0.00000000000E+00 -0.00000000000E+00 -0.13014650473E+03  0.13014650473E+03  0.00000000000E+00 0. -1.
          6    1    1    2  501    0  0.95269819843E+01  0.14629979343E+03  0.12094537148E+03  0.25633215917E+03  0.17200000000E+03 0. -1.
         -6    1    1    2    0  502 -0.95269819843E+01 -0.14629979343E+03  0.14201385728E+03  0.26692007905E+03  0.17200000000E+03 0. -1.
</event>
<event>
 4    1  0.1232978E+000  0.1721056E+03  0.7818608E-02  0.1175670E+00
         21   -1    0    0  501  502  0.00000000000E+00  0.00000000000E+00  0.42844360942E+03  0.42844360942E+03  0.00000000000E+00 0.  1.
         21   -1    0    0  502  503 -0.00000000000E+00 -0.00000000000E+00 -0.12306811226E+03  0.12306811226E+03  0.00000000000E+00 0.  1.
          6    1    1    2  501    0 -0.45555674466E+01  0.39482315638E+01  0.33523728346E+03  0.37683468252E+03  0.17200000000E+03 0.  1.
         -6    1    1    2    0  503  0.45555674466E+01 -0.39482315638E+01 -0.29861786302E+02  0.17467703916E+03  0.17200000000E+03 0.  1.
</event>
<event>
 4    1  0.1232978E+000  0.1882636E+03  0.7818608E-02  0.1160037E+00
         21   -1    0    0  501  502  0.00000000000E+00  0.00000000000E+00  0.55504787995E+03  0.55504787995E+03  0.00000000000E+00 0. -1.
         21   -1    0    0  502  503 -0.00000000000E+00 -0.00000000000E+00 -0.11195626229E+03  0.11195626229E+03  0.00000000000E+00 0. -1.
          6    1    1    2  501    0  0.62001898465E+02  0.44888040219E+02  0.44014461430E+03  0.47871750863E+03  0.17200000000E+03 0. -1.
         -6    1    1    2    0  503 -0.62001898465E+02 -0.44888040219E+02  0.29470033566E+01  0.18828663361E+03  0.17200000000E+03 0. -1.
</event>
<event>
 4    1  0.1232978E+000  0.1923724E+03  0.7818608E-02  0.1156339E+00
         21   -1    0    0  503  502  0.00000000000E+00  0.00000000000E+00  0.98184235748E+02  0.98184235748E+02  0.00000000000E+00 0. -1.
         21   -1    0    0  501  503 -0.00000000000E+00 -0.00000000000E+00 -0.39379118286E+03  0.39379118286E+03  0.00000000000E+00 0. -1.
          6    1    1    2  501    0 -0.77324190844E+02  0.38001586832E+02 -0.19872627644E+03  0.27658503944E+03  0.17200000000E+03 0. -1.
         -6    1    1    2    0  502  0.77324190844E+02 -0.38001586832E+02 -0.96880670672E+02  0.21539037918E+03  0.17200000000E+03 0. -1.
</event>
<event>
 4    1  0.1232978E+000  0.1815726E+03  0.7818608E-02  0.1166290E+00
         21   -1    0    0  503  502  0.00000000000E+00  0.00000000000E+00  0.18321246055E+03  0.18321246055E+03  0.00000000000E+00 0.  1.
         21   -1    0    0  501  503 -0.00000000000E+00 -0.00000000000E+00 -0.23399428405E+03  0.23399428405E+03  0.00000000000E+00 0.  1.
          6    1    1    2  501    0  0.39072489492E+02  0.43103995925E+02 -0.12564540730E+03  0.22080620978E+03  0.17200000000E+03 0.  1.
         -6    1    1    2    0  502 -0.39072489492E+02 -0.43103995925E+02  0.74863583795E+02  0.19640053482E+03  0.17200000000E+03 0.  1.
</event>
<event>
 4    1  0.1232978E+000  0.2001659E+03  0.7818608E-02  0.1149599E+00
         21   -1    0    0  503  502  0.00000000000E+00  0.00000000000E+00  0.13525566909E+03  0.13525566909E+03  0.00000000000E+00 0.  1.
         21   -1    0    0  501  503 -0.00000000000E+00 -0.00000000000E+00 -0.30668649816E+03  0.30668649816E+03  0.00000000000E+00 0.  1.
          6    1    1    2  501    0  0.97198462260E+02  0.32169067865E+02 -0.12652311982E+03  0.23680052754E+03  0.17200000000E+03 0.  1.
         -6    1    1    2    0  502 -0.97198462260E+02 -0.32169067865E+02 -0.44907709257E+02  0.20514163971E+03  0.17200000000E+03 0.  1.
</event>
<event>
 4    1  0.1232978E+000  0.1769924E+03  0.7818608E-02  0.1170746E+00
         21   -1    0    0  503  502  0.00000000000E+00  0.00000000000E+00  0.73007443762E+03  0.73007443762E+03  0.00000000000E+00 0. -1.
         21   -1    0    0  501  503 -0.00000000000E+00 -0.00000000000E+00 -0.56061374208E+02  0.56061374208E+02  0.00000000000E+00 0. -1.
          6    1    1    2  501    0 -0.36128380334E+02 -0.20906056906E+02  0.52739812385E+03  0.55630486617E+03  0.17200000000E+03 0. -1.
         -6    1    1    2    0  502  0.36128380334E+02  0.20906056906E+02  0.14661493956E+03  0.22983094566E+03  0.17200000000E+03 0. -1.
</event>
<event>
 4    1  0.1232978E+000  0.2036251E+03  0.7818608E-02  0.1146716E+00
         21   -1    0    0  501  502  0.00000000000E+00  0.00000000000E+00  0.20765485415E+04  0.20765485415E+04  0.00000000000E+00 0.  1.
         21   -1    0    0  502  503 -0.00000000000E+00 -0.00000000000E+00 -0.21959784580E+02  0.21959784580E+02  0.00000000000E+00 0. -1.
          6    1    1    2  501    0 -0.10877303876E+03 -0.69003023835E+01  0.13433458572E+04  0.13586910172E+04  0.17200000000E+03 0.  1.
         -6    1    1    2    0  503  0.10877303876E+03  0.69003023835E+01  0.71124289975E+03  0.73981730892E+03  0.17200000000E+03 0. -1.
</event>
<event>
 4    1  0.1232978E+000  0.1736269E+03  0.7818608E-02  0.1174117E+00
         21   -1    0    0  501  502  0.00000000000E+00  0.00000000000E+00  0.14453590400E+03  0.14453590400E+03  0.00000000000E+00 0.  1.
         21   -1    0    0  502  503 -0.00000000000E+00 -0.00000000000E+00 -0.66703334672E+03  0.66703334672E+03  0.00000000000E+00 0.  1.
          6    1    1    2  501    0 -0.22746866882E+02 -0.66997499350E+01  0.75164178455E+02  0.18919820381E+03  0.17200000000E+03 0.  1.
         -6    1    1    2    0  503  0.22746866882E+02  0.66997499350E+01 -0.59766162117E+03  0.62237104691E+03  0.17200000000E+03 0.  1.
</event>
<event>
 4    1  0.1232978E+000  0.1939881E+03  0.7818608E-02  0.1154913E+00
         21   -1    0    0  503  502  0.00000000000E+00  0.00000000000E+00  0.66909184382E+03  0.66909184382E+03  0.00000000000E+00 0. -1.
         21   -1    0    0  501  503 -0.00000000000E+00 -0.00000000000E+00 -0.83662673717E+02  0.83662673717E+02  0.00000000000E+00 0. -1.
          6    1    1    2  501    0  0.66838387845E+02  0.59833260024E+02  0.77241657830E+02  0.20880053352E+03  0.17200000000E+03 0. -1.
         -6    1    1    2    0  502 -0.66838387845E+02 -0.59833260024E+02  0.50818751228E+03  0.54395398402E+03  0.17200000000E+03 0. -1.
</event>
<event>
 4    1  0.1232978E+000  0.1839874E+03  0.7818608E-02  0.1163999E+00
         21   -1    0    0  503  502  0.00000000000E+00  0.00000000000E+00  0.26378560260E+03  0.26378560260E+03  0.00000000000E+00 0.  1.
         21   -1    0    0  501  503 -0.00000000000E+00 -0.00000000000E+00 -0.15713479025E+03  0.15713479025E+03  0.00000000000E+00 0.  1.
          6    1    1    2  501    0 -0.51449615388E+02 -0.40252844861E+02 -0.36784669567E+02  0.18762853290E+03  0.17200000000E+03 0.  1.
         -6    1    1    2    0  502  0.51449615388E+02  0.40252844861E+02  0.14343548192E+03  0.23329185995E+03  0.17200000000E+03 0.  1.
</event>
<event>
 4    1  0.1232978E+000  0.1897285E+03  0.7818608E-02  0.1158706E+00
         21   -1    0    0  503  502  0.00000000000E+00  0.00000000000E+00  0.16777514223E+03  0.16777514223E+03  0.00000000000E+00 0. -1.
         21   -1    0    0  501  503 -0.00000000000E+00 -0.00000000000E+00 -0.23867106277E+03  0.23867106277E+03  0.00000000000E+00 0. -1.
          6    1    1    2  501    0 -0.58272982255E+02 -0.54928861385E+02  0.29151730845E+02  0.19195505642E+03  0.17200000000E+03 0. -1.
         -6    1    1    2    0  502  0.58272982255E+02  0.54928861385E+02 -0.10004765138E+03  0.21449114858E+03  0.17200000000E+03 0. -1.
</event>
<event>
 4    1  0.1232978E+000  0.1835210E+03  0.7818608E-02  0.1164438E+00
         21   -1    0    0  501  502  0.00000000000E+00  0.00000000000E+00  0.15157937827E+04  0.15157937827E+04  0.00000000000E+00 0. -1.
         21   -1    0    0  502  503 -0.00000000000E+00 -0.00000000000E+00 -0.26010099097E+02  0.26010099097E+02  0.00000000000E+00 0. -1.
          6    1    1    2  501    0  0.57132173315E+02  0.28842280385E+02  0.10391918582E+04  0.10552723253E+04  0.17200000000E+03 0. -1.
         -6    1    1    2    0  503 -0.57132173315E+02 -0.28842280385E+02  0.45059182547E+03  0.48653155658E+03  0.17200000000E+03 0. -1.
</event>
<event>
 4    1  0.1232978E+000  0.2514025E+03  0.7818608E-02  0.1112422E+00
         21   -1    0    0  503  502  0.00000000000E+00  0.00000000000E+00  0.59623268862E+03  0.59623268862E+03  0.00000000000E+00 0.  1.
         21   -1    0    0  501  503 -0.00000000000E+00 -0.00000000000E+00 -0.10637767976E+03  0.10637767976E+03  0.00000000000E+00 0. -1.
          6    1    1    2  501    0  0.23609397264E+02  0.18182905089E+03  0.26574150528E+03  0.36581655924E+03  0.17200000000E+03 0.  1.
         -6    1    1    2    0  502 -0.23609397264E+02 -0.18182905089E+03  0.22411350358E+03  0.33679380914E+03  0.17200000000E+03 0.  1.
</event>
<event>
 4    1  0.1232978E+000  0.3464751E+03  0.7818608E-02  0.1064071E+00
         21   -1    0    0  503  502  0.00000000000E+00  0.00000000000E+00  0.93508310625E+03  0.93508310625E+03  0.00000000000E+00 0.  1.
         21   -1    0    0  501  503 -0.00000000000E+00 -0.00000000000E+00 -0.57795666295E+03  0.57795666295E+03  0.00000000000E+00 0. -1.
          6    1    1    2  501    0  0.31196818136E+01 -0.30075119229E+03 -0.48866604007E+03  0.59903214504E+03  0.17200000000E+03 0. -1.
         -6    1    1    2    0  502 -0.31196818136E+01  0.30075119229E+03  0.84579248338E+03  0.91400762416E+03  0.17200000000E+03 0.  1.
</event>
<event>
 4    1  0.1232978E+000  0.3022025E+03  0.7818608E-02  0.1084145E+00
         21   -1    0    0  501  502  0.00000000000E+00  0.00000000000E+00  0.99894801519E+03  0.99894801519E+03  0.00000000000E+00 0. -1.
         21   -1    0    0  502  503 -0.00000000000E+00 -0.00000000000E+00 -0.93874032241E+02  0.93874032241E+02  0.00000000000E+00 0.  1.
          6    1    1    2  501    0 -0.15636991413E+03  0.19310832503E+03  0.54083706366E+03  0.61954104357E+03  0.17200000000E+03 0. -1.
         -6    1    1    2    0  503  0.15636991413E+03 -0.19310832503E+03  0.36423691929E+03  0.47328100386E+03  0.17200000000E+03 0.  1.
</event>
<event>
 4    1  0.1232978E+000  0.1736342E+03  0.7818608E-02  0.1174110E+00
         21   -1    0    0  501  502  0.00000000000E+00  0.00000000000E+00  0.25160474544E+03  0.25160474544E+03  0.00000000000E+00 0.  1.
         21   -1    0    0  502  503 -0.00000000000E+00 -0.00000000000E+00 -0.19093254775E+03  0.19093254775E+03  0.00000000000E+00 0. -1.
          6    1    1    2  501    0 -0.16471480469E+01 -0.23709422315E+02  0.16536724982E+03  0.23978151955E+03  0.17200000000E+03 0.  1.
         -6    1    1    2    0  503  0.16471480469E+01  0.23709422315E+02 -0.10469505214E+03  0.20275577364E+03  0.17200000000E+03 0. -1.
</event>
<event>
 4    1  0.1232978E+000  0.1926955E+03  0.7818608E-02  0.1156052E+00
         21   -1    0    0  503  502  0.00000000000E+00  0.00000000000E+00  0.72750817523E+02  0.72750817523E+02  0.00000000000E+00 0. -1.
         21   -1    0    0  501  503 -0.00000000000E+00 -0.00000000000E+00 -0.75823866259E+03  0.75823866259E+03  0.00000000000E+00 0. -1.
          6    1    1    2  501    0  0.48744422704E+02  0.71913481331E+02 -0.58029254268E+03  0.61144991833E+03  0.17200000000E+03 0. -1.
         -6    1    1    2    0  502 -0.48744422704E+02 -0.71913481331E+02 -0.10519530239E+03  0.21953956178E+03  0.17200000000E+03 0. -1.
</event>
<event>
 4    1  0.1232978E+000  0.2310973E+03  0.7818608E-02  0.1125870E+00
         21   -1    0    0  501  502  0.00000000000E+00  0.00000000000E+00  0.11376761355E+04  0.11376761355E+04  0.00000000000E+00 0. -1.
         21   -1    0    0  502  503 -0.00000000000E+00 -0.00000000000E+00 -0.50368707445E+02  0.50368707445E+02  0.00000000000E+00 0.  1.
          6    1    1    2  501    0  0.15393393487E+03  0.11238972140E+02  0.69856938177E+03  0.73580238648E+03  0.17200000000E+03 0. -1.
         -6    1    1    2    0  503 -0.15393393487E+03 -0.11238972140E+02  0.38873804626E+03  0.45224245644E+03  0.17200000000E+03 0. -1.
</event>
<event>
 4    1  0.1232978E+000  0.1772653E+03  0.7818608E-02  0.1170476E+00
         21   -1    0    0  501  502  0.00000000000E+00  0.00000000000E+00  0.99906792469E+03  0.99906792469E+03  0.00000000000E+00 0. -1.
         21   -1    0    0  502  503 -0.00000000000E+00 -0.00000000000E+00 -0.31933068748E+02  0.31933068748E+02  0.00000000000E+00 0. -1.
          6    1    1    2  501    0 -0.31347375697E+02 -0.29263350918E+02  0.42031620524E+03  0.45616741890E+03  0.17200000000E+03 0.  1.
         -6    1    1    2    0  503  0.31347375697E+02  0.29263350918E+02  0.54681865069E+03  0.57483357454E+03  0.17200000000E+03 0.  1.
</event>
<event>
 4    1  0.1232978E+000  0.1720661E+03  0.7818608E-02  0.1175710E+00
         21   -1    0    0  503  502  0.00000000000E+00  0.00000000000E+00  0.96427654442E+02  0.96427654442E+02  0.00000000000E+00 0. -1.
         21   -1    0    0  501  503 -0.00000000000E+00 -0.00000000000E+00 -0.45276097448E+03  0.45276097448E+03  0.00000000000E+00 0. -1.
          6    1    1    2  501    0  0.46412499190E+01  0.11027187023E+01 -0.33395111007E+03  0.37567286448E+03  0.17200000000E+03 0. -1.
         -6    1    1    2    0  502 -0.46412499190E+01 -0.11027187023E+01 -0.22382209976E+02  0.17351576445E+03  0.17200000000E+03 0. -1.
</event>
<event>
 4    1  0.1232978E+000  0.4051268E+03  0.7818608E-02  0.1042019E+00
         21   -1    0    0  503  502  0.00000000000E+00  0.00000000000E+00  0.14420424154E+03  0.14420424154E+03  0.00000000000E+00 0.  1.
         21   -1    0    0  501  503 -0.00000000000E+00 -0.00000000000E+00 -0.28774856389E+04  0.28774856389E+04  0.00000000000E+00 0. -1.
          6    1    1    2  501    0  0.29528619530E+03 -0.21760009618E+03 -0.25412773675E+04  0.25733671323E+04  0.17200000000E+03 0. -1.
         -6    1    1    2    0  502 -0.29528619530E+03  0.21760009618E+03 -0.19200402979E+03  0.44832274808E+03  0.17200000000E+03 0.  1.
</event>
<event>
 4    1  0.1232978E+000  0.2005306E+03  0.7818608E-02  0.1149292E+00
         21   -1    0    0  501  502  0.00000000000E+00  0.00000000000E+00  0.28814203866E+03  0.28814203866E+03  0.00000000000E+00 0.  1.
         21   -1    0    0  502  503 -0.00000000000E+00 -0.00000000000E+00 -0.19324564066E+03  0.19324564066E+03  0.00000000000E+00 0.  1.
          6    1    1    2  501    0  0.98791527123E+01 -0.10262034698E+03  0.17431476613E+03  0.26570316325E+03  0.17200000000E+03 0.  1.
         -6    1    1    2    0  503 -0.98791527123E+01  0.10262034698E+03 -0.79418368129E+02  0.21568451606E+03  0.17200000000E+03 0.  1.
</event>
<event>
 4    1  0.1232978E+000  0.1839729E+03  0.7818608E-02  0.1164013E+00
         21   -1    0    0  503  502  0.00000000000E+00  0.00000000000E+00  0.55995045734E+03  0.55995045734E+03  0.00000000000E+00 0.  1.
         21   -1    0    0  501  503 -0.00000000000E+00 -0.00000000000E+00 -0.10374944997E+03  0.10374944997E+03  0.00000000000E+00 0. -1.
          6    1    1    2  501    0  0.31702551182E+02  0.57069875686E+02  0.13704462712E+02  0.18448261371E+03  0.17200000000E+03 0. -1.
         -6    1    1    2    0  502 -0.31702551182E+02 -0.57069875686E+02  0.44249654466E+03  0.47921729361E+03  0.17200000000E+03 0.  1.
</event>
<event>
 4    1  0.1232978E+000  0.1869950E+03  0.7818608E-02  0.1161200E+00
         21   -1    0    0  503  502  0.00000000000E+00  0.00000000000E+00  0.12801272545E+04  0.12801272545E+04  0.00000000000E+00 0. -1.
         21   -1    0    0  501  503 -0.00000000000E+00 -0.00000000000E+00 -0.36719003064E+02  0.36719003064E+02  0.00000000000E+00 0. -1.
          6    1    1    2  501    0 -0.68262853169E+02 -0.26894769241E+02  0.28850216802E+03  0.34380320925E+03  0.17200000000E+03 0. -1.
         -6    1    1    2    0  502  0.68262853169E+02  0.26894769241E+02  0.95490608343E+03  0.97304304833E+03  0.17200000000E+03 0. -1.
</event>
<event>
 4    1  0.1232978E+000  0.1926081E+03  0.7818608E-02  0.1156130E+00
         21   -1    0    0  503  502  0.00000000000E+00  0.00000000000E+00  0.86747305434E+02  0.86747305434E+02  0.00000000000E+00 0. -1.
         21   -1    0    0  501  503 -0.00000000000E+00 -0.00000000000E+00 -0.47636707649E+03  0.47636707649E+03  0.00000000000E+00 0. -1.
          6    1    1    2  501    0  0.37742787210E+02  0.78034288289E+02 -0.28484598764E+03  0.34385331875E+03  0.17200000000E+03 0. -1.
         -6    1    1    2    0  502 -0.37742787210E+02 -0.78034288289E+02 -0.10477378341E+03  0.21926106317E+03  0.17200000000E+03 0. -1.
</event>
<event>
 4    1  0.1232978E+000  0.2666317E+03  0.7818608E-02  0.1103223E+00
         21   -1    0    0  501  502  0.00000000000E+00  0.00000000000E+00  0.13047283447E+04  0.13047283447E+04  0.00000000000E+00 0.  1.
         21   -1    0    0  502  503 -0.00000000000E+00 -0.00000000000E+00 -0.54964802417E+02  0.54964802417E+02  0.00000000000E+00 0.  1.
          6    1    1    2  501    0  0.32185549196E+02 -0.20117786488E+03  0.56158283084E+03  0.62166527874E+03  0.17200000000E+03 0.  1.
         -6    1    1    2    0  503 -0.32185549196E+02  0.20117786488E+03  0.68818071139E+03  0.73802786833E+03  0.17200000000E+03 0.  1.
</event>
<event>
 4    1  0.1232978E+000  0.2733914E+03  0.7818608E-02  0.1099354E+00
         21   -1    0    0  503  502  0.00000000000E+00  0.00000000000E+00  0.30116577396E+03  0.30116577396E+03  0.00000000000E+00 0.  1.
         21   -1    0    0  501  503 -0.00000000000E+00 -0.00000000000E+00 -0.29287997762E+03  0.29287997762E+03  0.00000000000E+00 0.  1.
          6    1    1    2  501    0 -0.92148028993E+02  0.19148785643E+03 -0.11189669147E+03  0.29540434657E+03  0.17200000000E+03 0.  1.
         -6    1    1    2    0  502  0.92148028993E+02 -0.19148785643E+03  0.12018248781E+03  0.29864140501E+03  0.17200000000E+03 0.  1.
</event>
<event>
 4    1  0.1232978E+000  0.1760213E+03  0.7818608E-02  0.1171710E+00
         21   -1    0    0  501  502  0.00000000000E+00  0.00000000000E+00  0.17615294154E+03  0.17615294154E+03  0.00000000000E+00 0. -1.
         21   -1    0    0  502  503 -0.00000000000E+00 -0.00000000000E+00 -0.17829395201E+03  0.17829395201E+03  0.00000000000E+00 0. -1.
          6    1    1    2  501    0  0.35754978498E+02 -0.11004043511E+02 -0.21649914773E+02  0.17734775519E+03  0.17200000000E+03 0. -1.
         -6    1    1    2    0  503 -0.35754978498E+02  0.11004043511E+02  0.19508904308E+02  0.17709913836E+03  0.17200000000E+03 0. -1.
</event>
<event>
 4    1  0.1232978E+000  0.1876856E+03  0.7818608E-02  0.1160565E+00
         21   -1    0    0  503  502  0.00000000000E+00  0.00000000000E+00  0.17203906080E+03  0.17203906080E+03  0.00000000000E+00 0. -1.
         21   -1    0    0  501  503 -0.00000000000E+00 -0.00000000000E+00 -0.22878256634E+03  0.22878256634E+03  0.00000000000E+00 0. -1.
          6    1    1    2  501    0  0.63871054556E+02 -0.39526943777E+02  0.36575808210E+02  0.19121631897E+03  0.17200000000E+03 0. -1.
         -6    1    1    2    0  502 -0.63871054556E+02  0.39526943777E+02 -0.93319313752E+02  0.20960530817E+03  0.17200000000E+03 0. -1.
</event>
<event>
 4    1  0.1232978E+000  0.3016104E+03  0.7818608E-02  0.1084438E+00
         21   -1    0    0  503  502  0.00000000000E+00  0.00000000000E+00  0.82775596863E+03  0.82775596863E+03  0.00000000000E+00 0.  1.
         21   -1    0    0  501  503 -0.00000000000E+00 -0.00000000000E+00 -0.16930144754E+03  0.16930144754E+03  0.00000000000E+00 0.  1.
          6    1    1    2  501    0  0.24431317818E+03  0.41181302570E+02  0.33926064513E+02  0.30351244879E+03  0.17200000000E+03 0.  1.
         -6    1    1    2    0  502 -0.24431317818E+03 -0.41181302570E+02  0.62452845657E+03  0.69354496738E+03  0.17200000000E+03 0.  1.
</event>
<event>
 4    1  0.1232978E+000  0.1898136E+03  0.7818608E-02  0.1158630E+00
         21   -1    0    0  503  502  0.00000000000E+00  0.00000000000E+00  0.25188523038E+03  0.25188523038E+03  0.00000000000E+00 0.  1.
         21   -1    0    0  501  503 -0.00000000000E+00 -0.00000000000E+00 -0.14971500596E+03  0.14971500596E+03  0.00000000000E+00 0.  1.
          6    1    1    2  501    0 -0.79103571312E+01  0.79891246324E+02  0.86799333305E+01  0.19001191076E+03  0.17200000000E+03 0.  1.
         -6    1    1    2    0  502  0.79103571312E+01 -0.79891246324E+02  0.93490291089E+02  0.21158832557E+03  0.17200000000E+03 0.  1.
</event>
<event>
 4    1  0.1232978E+000  0.2240708E+03  0.7818608E-02  0.1130884E+00
         21   -1    0    0  503  502  0.00000000000E+00  0.00000000000E+00  0.15791599815E+03  0.15791599815E+03  0.00000000000E+00 0. -1.
         21   -1    0    0  501  503 -0.00000000000E+00 -0.00000000000E+00 -0.46672125095E+03  0.46672125095E+03  0.00000000000E+00 0.  1.
          6    1    1    2  501    0  0.78682204899E+02 -0.12013666845E+03 -0.33073991529E+03  0.39949543181E+03  0.17200000000E+03 0.  1.
         -6    1    1    2    0  502 -0.78682204899E+02  0.12013666845E+03  0.21934662492E+02  0.22514181729E+03  0.17200000000E+03 0.  1.
</event>
<event>
 4    1  0.1232978E+000  0.1832316E+03  0.7818608E-02  0.1164712E+00
         21   -1    0    0  501  502  0.00000000000E+00  0.00000000000E+00  0.10320092423E+04  0.10320092423E+04  0.00000000000E+00 0.  1.
         21   -1    0    0  502  503 -0.00000000000E+00 -0.00000000000E+00 -0.41542890226E+02  0.41542890226E+02  0.00000000000E+00 0.  1.
          6    1    1    2  501    0  0.39834039428E+02  0.49021285509E+02  0.74521974274E+03  0.76741533872E+03  0.17200000000E+03 0.  1.
         -6    1    1    2    0  503 -0.39834039428E+02 -0.49021285509E+02  0.24524660930E+03  0.30613679378E+03  0.17200000000E+03 0.  1.
</event>
<event>
 4    1  0.1232978E+000  0.1894507E+03  0.7818608E-02  0.1158958E+00
         21   -1    0    0  501  502  0.00000000000E+00  0.00000000000E+00  0.28589103484E+02  0.28589103484E+02  0.00000000000E+00 0.  1.
         21   -1    0    0  502  503 -0.00000000000E+00 -0.00000000000E+00 -0.19512564821E+04  0.19512564821E+04  0.00000000000E+00 0.  1.
          6    1    1    2  501    0  0.79411266602E+02 -0.11876172165E+01 -0.37018700280E+03  0.41584850215E+03  0.17200000000E+03 0.  1.
         -6    1    1    2    0  503 -0.79411266602E+02  0.11876172165E+01 -0.15524803759E+04  0.15639970835E+04  0.17200000000E+03 0.  1.
</event>
<event>
 4    1  0.1232978E+000  0.1727186E+03  0.7818608E-02  0.1175042E+00
         21   -1    0    0  501  502  0.00000000000E+00  0.00000000000E+00  0.10186580266E+03  0.10186580266E+03  0.00000000000E+00 0.  1.
         21   -1    0    0  502  503 -0.00000000000E+00 -0.00000000000E+00 -0.29488049545E+03  0.29488049545E+03  0.00000000000E+00 0.  1.
          6    1    1    2  501    0  0.14749081566E+02 -0.54936752922E+01 -0.11295596107E+03  0.20637530137E+03  0.17200000000E+03 0. -1.
         -6    1    1    2    0  503 -0.14749081566E+02  0.54936752922E+01 -0.80058731725E+02  0.19037099674E+03  0.17200000000E+03 0. -1.
</event>
<event>
 4    1  0.1232978E+000  0.1988644E+03  0.7818608E-02  0.1150701E+00
         21   -1    0    0  501  502  0.00000000000E+00  0.00000000000E+00  0.51928547564E+03  0.51928547564E+03  0.00000000000E+00 0.  1.
         21   -1    0    0  502  503 -0.00000000000E+00 -0.00000000000E+00 -0.15543020801E+03  0.15543020801E+03  0.00000000000E+00 0.  1.
          6    1    1    2  501    0  0.99814484431E+02  0.32472002686E+00  0.42285564739E+03  0.46728357051E+03  0.17200000000E+03 0.  1.
         -6    1    1    2    0  503 -0.99814484431E+02 -0.32472002686E+00 -0.59000379760E+02  0.20743211313E+03  0.17200000000E+03 0.  1.
</event>
<event>
 4    1  0.1232978E+000  0.2081752E+03  0.7818608E-02  0.1143019E+00
         21   -1    0    0  503  502  0.00000000000E+00  0.00000000000E+00  0.14773538061E+03  0.14773538061E+03  0.00000000000E+00 0. -1.
         21   -1    0    0  501  503 -0.00000000000E+00 -0.00000000000E+00 -0.33104670884E+03  0.33104670884E+03  0.00000000000E+00 0.  1.
          6    1    1    2  501    0  0.11420302513E+03 -0.26656744433E+02 -0.10864449033E+02  0.20845850720E+03  0.17200000000E+03 0. -1.
         -6    1    1    2    0  502 -0.11420302513E+03  0.26656744433E+02 -0.17244687920E+03  0.27032358224E+03  0.17200000000E+03 0.  1.
</event>
<event>
 4    1  0.1232978E+000  0.1888325E+03  0.7818608E-02  0.1159519E+00
         21   -1    0    0  503  502  0.00000000000E+00  0.00000000000E+00  0.11924854424E+04  0.11924854424E+04  0.00000000000E+00 0. -1.
         21   -1    0    0  501  503 -0.00000000000E+00 -0.00000000000E+00 -0.17617170167E+03  0.17617170167E+03  0.00000000000E+00 0. -1.
          6    1    1    2  501    0  0.50864955437E+02 -0.59046194203E+02 -0.11539672812E+03  0.22130092996E+03  0.17200000000E+03 0. -1.
         -6    1    1    2    0  502 -0.50864955437E+02  0.59046194203E+02  0.11317104688E+04  0.11473562141E+04  0.17200000000E+03 0. -1.
</event>
<event>
 4    1  0.1232978E+000  0.1748055E+03  0.7818608E-02  0.1172927E+00
         21   -1    0    0  501  502  0.00000000000E+00  0.00000000000E+00  0.39961150354E+03  0.39961150354E+03  0.00000000000E+00 0. -1.
         21   -1    0    0  502  503 -0.00000000000E+00 -0.00000000000E+00 -0.12529653028E+03  0.12529653028E+03  0.00000000000E+00 0. -1.
          6    1    1    2  501    0 -0.30561364056E+02 -0.62434765292E+01  0.30099986868E+03  0.34807743236E+03  0.17200000000E+03 0. -1.
         -6    1    1    2    0  503  0.30561364056E+02  0.62434765292E+01 -0.26684895413E+02  0.17683060147E+03  0.17200000000E+03 0. -1.
</event>
<event>
 4    1  0.1232978E+000  0.2030171E+03  0.7818608E-02  0.1147218E+00
         21   -1    0    0  501  502  0.00000000000E+00  0.00000000000E+00  0.64910842757E+02  0.64910842757E+02  0.00000000000E+00 0.  1.
         21   -1    0    0  502  503 -0.00000000000E+00 -0.00000000000E+00 -0.10485163399E+04  0.10485163399E+04  0.00000000000E+00 0.  1.
          6    1    1    2  501    0 -0.10780861715E+03 -0.30372599850E+01 -0.14217130854E+03  0.24784794502E+03  0.17200000000E+03 0.  1.
         -6    1    1    2    0  503  0.10780861715E+03  0.30372599850E+01 -0.84143418863E+03  0.86557923766E+03  0.17200000000E+03 0.  1.
</event>
<event>
 4    1  0.1232978E+000  0.1792404E+03  0.7818608E-02  0.1168540E+00
         21   -1    0    0  501  502  0.00000000000E+00  0.00000000000E+00  0.44280795523E+03  0.44280795523E+03  0.00000000000E+00 0.  1.
         21   -1    0    0  502  503 -0.00000000000E+00 -0.00000000000E+00 -0.25401023724E+03  0.25401023724E+03  0.00000000000E+00 0.  1.
          6    1    1    2  501    0  0.37280156843E+02  0.33960581519E+02  0.38887545939E+03  0.42819534573E+03  0.17200000000E+03 0.  1.
         -6    1    1    2    0  503 -0.37280156843E+02 -0.33960581519E+02 -0.20007774139E+03  0.26862284674E+03  0.17200000000E+03 0.  1.
</event>
<event>
 4    1  0.1232978E+000  0.2171094E+03  0.7818608E-02  0.1136057E+00
         21   -1    0    0  503  502  0.00000000000E+00  0.00000000000E+00  0.32850511563E+03  0.32850511563E+03  0.00000000000E+00 0. -1.
         21   -1    0    0  501  503 -0.00000000000E+00 -0.00000000000E+00 -0.26871763313E+03  0.26871763313E+03  0.00000000000E+00 0.  1.
          6    1    1    2  501    0  0.12396830529E+03  0.46736854918E+02 -0.17395694374E+03  0.27820404849E+03  0.17200000000E+03 0.  1.
         -6    1    1    2    0  502 -0.12396830529E+03 -0.46736854918E+02  0.23374442624E+03  0.31901870027E+03  0.17200000000E+03 0. -1.
</event>
<event>
 4    1  0.1232978E+000  0.2013457E+03  0.7818608E-02  0.1148609E+00
         21   -1    0    0  501  502  0.00000000000E+00  0.00000000000E+00  0.64073031915E+03  0.64073031915E+03  0.00000000000E+00 0.  1.
         21   -1    0    0  502  503 -0.00000000000E+00 -0.00000000000E+00 -0.65385168864E+02  0.65385168864E+02  0.00000000000E+00 0.  1.
          6    1    1    2  501    0  0.97122398765E+02 -0.39029802808E+02  0.35114802060E+03  0.40477773929E+03  0.17200000000E+03 0.  1.
         -6    1    1    2    0  503 -0.97122398765E+02  0.39029802808E+02  0.22419712968E+03  0.30133774872E+03  0.17200000000E+03 0.  1.
</event>
<event>
 4    1  0.1232978E+000  0.2698554E+03  0.7818608E-02  0.1101362E+00
         21   -1    0    0  503  502  0.00000000000E+00  0.00000000000E+00  0.84269115794E+03  0.84269115794E+03  0.00000000000E+00 0. -1.
         21   -1    0    0  501  503 -0.00000000000E+00 -0.00000000000E+00 -0.94102776087E+02  0.94102776087E+02  0.00000000000E+00 0.  1.
          6    1    1    2  501    0  0.18790427709E+03 -0.89050145439E+02  0.24042311305E+03  0.36142111040E+03  0.17200000000E+03 0.  1.
         -6    1    1    2    0  502 -0.18790427709E+03  0.89050145439E+02  0.50816526880E+03  0.57537282363E+03  0.17200000000E+03 0. -1.
</event>
<event>
 4    1  0.1232978E+000  0.1825354E+03  0.7818608E-02  0.1165372E+00
         21   -1    0    0  503  502  0.00000000000E+00  0.00000000000E+00  0.19567210871E+04  0.19567210871E+04  0.00000000000E+00 0.  1.
         21   -1    0    0  501  503 -0.00000000000E+00 -0.00000000000E+00 -0.18809121003E+02  0.18809121003E+02  0.00000000000E+00 0.  1.
          6    1    1    2  501    0 -0.60985050962E+02  0.39981263157E+01  0.66500119459E+03  0.68959825280E+03  0.17200000000E+03 0.  1.
         -6    1    1    2    0  502  0.60985050962E+02 -0.39981263157E+01  0.12729107715E+04  0.12859319553E+04  0.17200000000E+03 0.  1.
</event>
<event>
 4    1  0.1232978E+000  0.1745961E+03  0.7818608E-02  0.1173138E+00
         21   -1    0    0  503  502  0.00000000000E+00  0.00000000000E+00  0.11622746961E+03  0.11622746961E+03  0.00000000000E+00 0. -1.
         21   -1    0    0  501  503 -0.00000000000E+00 -0.00000000000E+00 -0.33807952662E+03  0.33807952662E+03  0.00000000000E+00 0. -1.
          6    1    1    2  501    0 -0.24028456438E+02  0.17956720945E+02 -0.33658836795E+01  0.17462857647E+03  0.17200000000E+03 0. -1.
         -6    1    1    2    0  502  0.24028456438E+02 -0.17956720945E+02 -0.21848617333E+03  0.27967841977E+03  0.17200000000E+03 0. -1.
</event>
<event>
 4    1  0.1232978E+000  0.1720218E+03  0.7818608E-02  0.1175756E+00
         21   -1    0    0  501  502  0.00000000000E+00  0.00000000000E+00  0.60720859821E+03  0.60720859821E+03  0.00000000000E+00 0. -1.
         21   -1    0    0  502  503 -0.00000000000E+00 -0.00000000000E+00 -0.90365671643E+02  0.90365671643E+02  0.00000000000E+00 0. -1.
          6    1    1    2  501    0  0.22768877017E+01 -0.15225064548E+01  0.49516186132E+03  0.52419154052E+03  0.17200000000E+03 0. -1.
         -6    1    1    2    0  503 -0.22768877017E+01  0.15225064548E+01  0.21681065252E+02  0.17338272934E+03  0.17200000000E+03 0. -1.
</event>
<event>
 4    1  0.1232978E+000  0.2388570E+03  0.7818608E-02  0.1120557E+00
         21   -1    0    0  501  502  0.00000000000E+00  0.00000000000E+00  0.69035225785E+02  0.69035225785E+02  0.00000000000E+00 0.  1.
         21   -1    0    0  502  503 -0.00000000000E+00 -0.00000000000E+00 -0.11491195297E+04  0.11491195297E+04  0.00000000000E+00 0. -1.
          6    1    1    2  501    0  0.14869283712E+03  0.73205780188E+02 -0.21727923995E+03  0.32289768376E+03  0.17200000000E+03 0.  1.
         -6    1    1    2    0  503 -0.14869283712E+03 -0.73205780188E+02 -0.86280506394E+03  0.89525707170E+03  0.17200000000E+03 0. -1.
</event>
<event>
 4    1  0.1232978E+000  0.2675700E+03  0.7818608E-02  0.1102678E+00
         21   -1    0    0  503  502  0.00000000000E+00  0.00000000000E+00  0.24805227779E+03  0.24805227779E+03  0.00000000000E+00 0.  1.
         21   -1    0    0  501  503 -0.00000000000E+00 -0.00000000000E+00 -0.36007587372E+03  0.36007587372E+03  0.00000000000E+00 0. -1.
          6    1    1    2  501    0 -0.19202195797E+03 -0.71674890022E+02  0.79437376634E+02  0.27911291445E+03  0.17200000000E+03 0. -1.
         -6    1    1    2    0  502  0.19202195797E+03  0.71674890022E+02 -0.19146097257E+03  0.32901523707E+03  0.17200000000E+03 0. -1.
</event>
<event>
 4    1  0.1232978E+000  0.3677000E+03  0.7818608E-02  0.1055576E+00
         21   -1    0    0  503  502  0.00000000000E+00  0.00000000000E+00  0.11291017993E+04  0.11291017993E+04  0.00000000000E+00 0. -1.
         21   -1    0    0  501  503 -0.00000000000E+00 -0.00000000000E+00 -0.18073599549E+03  0.18073599549E+03  0.00000000000E+00 0.  1.
          6    1    1    2  501    0 -0.20752531442E+02  0.32432798221E+03  0.93729765674E+02  0.37945826725E+03  0.17200000000E+03 0.  1.
         -6    1    1    2    0  502  0.20752531442E+02 -0.32432798221E+03  0.85463603814E+03  0.93037952756E+03  0.17200000000E+03 0. -1.
</event>
<event>
 4    1  0.1232978E+000  0.1952834E+03  0.7818608E-02  0.1153781E+00
         21   -1    0    0  501  502  0.00000000000E+00  0.00000000000E+00  0.44444401314E+04  0.44444401314E+04  0.00000000000E+00 0. -1.
         21   -1    0    0  502  503 -0.00000000000E+00 -0.00000000000E+00 -0.97170036032E+01  0.97170036032E+01  0.00000000000E+00 0. -1.
          6    1    1    2  501    0 -0.81000203575E+02 -0.44615728867E+02  0.29790045113E+04  0.29853983779E+04  0.17200000000E+03 0. -1.
         -6    1    1    2    0  503  0.81000203575E+02  0.44615728867E+02  0.14557186165E+04  0.14687587572E+04  0.17200000000E+03 0. -1.
</event>
<event>
 4    1  0.1232978E+000  0.1769338E+03  0.7818608E-02  0.1170804E+00
         21   -1    0    0  501  502  0.00000000000E+00  0.00000000000E+00  0.10308079752E+04  0.10308079752E+04  0.00000000000E+00 0. -1.
         21   -1    0    0  502  503 -0.00000000000E+00 -0.00000000000E+00 -0.31159840669E+02  0.31159840669E+02  0.00000000000E+00 0. -1.
          6    1    1    2  501    0  0.40376366064E+02 -0.95569488135E+01  0.41528307138E+03  0.45140404914E+03  0.17200000000E+03 0. -1.
         -6    1    1    2    0  503 -0.40376366064E+02  0.95569488135E+01  0.58436506312E+03  0.61056376670E+03  0.17200000000E+03 0. -1.
</event>
<event>
 4    1  0.1232978E+000  0.2769363E+03  0.7818608E-02  0.1097374E+00
         21   -1    0    0  503  502  0.00000000000E+00  0.00000000000E+00  0.80552755522E+02  0.80552755522E+02  0.00000000000E+00 0.  1.
         21   -1    0    0  501  503 -0.00000000000E+00 -0.00000000000E+00 -0.10646789702E+04  0.10646789702E+04  0.00000000000E+00 0. -1.
          6    1    1    2  501    0  0.48159514597E+02  0.21163736326E+03 -0.30585601050E+03  0.41260345555E+03  0.17200000000E+03 0.  1.
         -6    1    1    2    0  502 -0.48159514597E+02 -0.21163736326E+03 -0.67827020415E+03  0.73262827014E+03  0.17200000000E+03 0. -1.
</event>
<event>
 4    1  0.1232978E+000  0.2622455E+03  0.7818608E-02  0.1105802E+00
         21   -1    0    0  503  502  0.00000000000E+00  0.00000000000E+00  0.11839201805E+03  0.11839201805E+03  0.00000000000E+00 0.  1.
         21   -1    0    0  501  503 -0.00000000000E+00 -0.00000000000E+00 -0.60657397171E+03  0.60657397171E+03  0.00000000000E+00 0.  1.
          6    1    1    2  501    0  0.29709244385E+02  0.19571937140E+03 -0.16950128196E+03  0.31225533803E+03  0.17200000000E+03 0.  1.
         -6    1    1    2    0  502 -0.29709244385E+02 -0.19571937140E+03 -0.31868067169E+03  0.41271065173E+03  0.17200000000E+03 0.  1.
</event>
<event>
 4    1  0.1232978E+000  0.2296489E+03  0.7818608E-02  0.1126887E+00
         21   -1    0    0  501  502  0.00000000000E+00  0.00000000000E+00  0.89019340512E+03  0.89019340512E+03  0.00000000000E+00 0.  1.
         21   -1    0    0  502  503 -0.00000000000E+00 -0.00000000000E+00 -0.66687078918E+02  0.66687078918E+02  0.00000000000E+00 0.  1.
          6    1    1    2  501    0 -0.14792125183E+03  0.35691734299E+02  0.57159257357E+03  0.61600054123E+03  0.17200000000E+03 0.  1.
         -6    1    1    2    0  503  0.14792125183E+03 -0.35691734299E+02  0.25191375264E+03  0.34087994281E+03  0.17200000000E+03 0.  1.
</event>
<event>
 4    1  0.1232978E+000  0.2100777E+03  0.7818608E-02  0.1141504E+00
         21   -1    0    0  501  502  0.00000000000E+00  0.00000000000E+00  0.20998902640E+03  0.20998902640E+03  0.00000000000E+00 0.  1.
         21   -1    0    0  502  503 -0.00000000000E+00 -0.00000000000E+00 -0.21212267980E+03  0.21212267980E+03  0.00000000000E+00 0.  1.
          6    1    1    2  501    0 -0.92381857492E+02  0.77551413533E+02  0.19201773900E+02  0.21095340115E+03  0.17200000000E+03 0.  1.
         -6    1    1    2    0  503  0.92381857492E+02 -0.77551413533E+02 -0.21335427297E+02  0.21115830505E+03  0.17200000000E+03 0.  1.
</event>
<event>
 4    1  0.1232978E+000  0.1862445E+03  0.7818608E-02  0.1161893E+00
         21   -1    0    0  501  502  0.00000000000E+00  0.00000000000E+00  0.18440202826E+03  0.18440202826E+03  0.00000000000E+00 0.  1.
         21   -1    0    0  502  503 -0.00000000000E+00 -0.00000000000E+00 -0.29002233063E+03  0.29002233063E+03  0.00000000000E+00 0.  1.
          6    1    1    2  501    0 -0.54194019054E+02  0.46540607621E+02  0.87808977564E+02  0.20590637775E+03  0.17200000000E+03 0.  1.
         -6    1    1    2    0  503  0.54194019054E+02 -0.46540607621E+02 -0.19342927994E+03  0.26851798114E+03  0.17200000000E+03 0.  1.
</event>
<event>
 4    1  0.1232978E+000  0.1930923E+03  0.7818608E-02  0.1155702E+00
         21   -1    0    0  501  502  0.00000000000E+00  0.00000000000E+00  0.64568475789E+03  0.64568475789E+03  0.00000000000E+00 0. -1.
         21   -1    0    0  502  503 -0.00000000000E+00 -0.00000000000E+00 -0.13170256110E+03  0.13170256110E+03  0.00000000000E+00 0. -1.
          6    1    1    2  501    0 -0.61082962217E+02 -0.63003908074E+02  0.54826640163E+03  0.58127503634E+03  0.17200000000E+03 0. -1.
         -6    1    1    2    0  503  0.61082962217E+02  0.63003908074E+02 -0.34284204842E+02  0.19611228265E+03  0.17200000000E+03 0. -1.
</event>
<event>
 4    1  0.1232978E+000  0.2840897E+03  0.7818608E-02  0.1093476E+00
         21   -1    0    0  503  502  0.00000000000E+00  0.00000000000E+00  0.15705368500E+03  0.15705368500E+03  0.00000000000E+00 0.  1.
         21   -1    0    0  501  503 -0.00000000000E+00 -0.00000000000E+00 -0.51388149387E+03  0.51388149387E+03  0.00000000000E+00 0. -1.
          6    1    1    2  501    0 -0.20569979897E+03 -0.93864646081E+02 -0.17834729034E+03  0.33543216163E+03  0.17200000000E+03 0. -1.
         -6    1    1    2    0  502  0.20569979897E+03  0.93864646081E+02 -0.17848051853E+03  0.33550301724E+03  0.17200000000E+03 0. -1.
</event>
<event>
 4    1  0.1232978E+000  0.1797987E+03  0.7818608E-02  0.1167998E+00
         21   -1    0    0  503  502  0.00000000000E+00  0.00000000000E+00  0.14282306365E+04  0.14282306365E+04  0.00000000000E+00 0. -1.
         21   -1    0    0  501  503 -0.00000000000E+00 -0.00000000000E+00 -0.11968629242E+03  0.11968629242E+03  0.00000000000E+00 0. -1.
          6    1    1    2  501    0  0.51993183928E+02 -0.63461970483E+01 -0.42670073878E+02  0.18479258805E+03  0.17200000000E+03 0. -1.
         -6    1    1    2    0  502 -0.51993183928E+02  0.63461970483E+01  0.13512144180E+04  0.13631243409E+04  0.17200000000E+03 0. -1.
</event>
<event>
 4    1  0.1232978E+000  0.4665755E+03  0.7818608E-02  0.1022891E+00
         21   -1    0    0  501  502  0.00000000000E+00  0.00000000000E+00  0.43274718479E+03  0.43274718479E+03  0.00000000000E+00 0. -1.
         21   -1    0    0  502  503 -0.00000000000E+00 -0.00000000000E+00 -0.74105871228E+03  0.74105871228E+03  0.00000000000E+00 0.  1.
          6    1    1    2  501    0 -0.32626571917E+03  0.28576107159E+03 -0.48676784210E+03  0.67426674368E+03  0.17200000000E+03 0.  1.
         -6    1    1    2    0  503  0.32626571917E+03 -0.28576107159E+03  0.17845631461E+03  0.49953915338E+03  0.17200000000E+03 0. -1.
</event>
<event>
 4    1  0.1232978E+000  0.2286942E+03  0.7818608E-02  0.1127562E+00
         21   -1    0    0  501  502  0.00000000000E+00  0.00000000000E+00  0.65288853487E+02  0.65288853487E+02  0.00000000000E+00 0. -1.
         21   -1    0    0  502  503 -0.00000000000E+00 -0.00000000000E+00 -0.10435848440E+04  0.10435848440E+04  0.00000000000E+00 0.  1.
          6    1    1    2  501    0 -0.13882956833E+03 -0.58680450024E+02 -0.22187445657E+03  0.31863665629E+03  0.17200000000E+03 0. -1.
         -6    1    1    2    0  503  0.13882956833E+03  0.58680450024E+02 -0.75642153392E+03  0.79023704116E+03  0.17200000000E+03 0.  1.
</event>
<event>
 4    1  0.1232978E+000  0.2184210E+03  0.7818608E-02  0.1135066E+00
         21   -1    0    0  501  502  0.00000000000E+00  0.00000000000E+00  0.95604735709E+02  0.95604735709E+02  0.00000000000E+00 0. -1.
         21   -1    0    0  502  503 -0.00000000000E+00 -0.00000000000E+00 -0.57985395788E+03  0.57985395788E+03  0.00000000000E+00 0.  1.
          6    1    1    2  501    0 -0.25533903460E+02  0.13218083993E+03 -0.36822960143E+03  0.42813641989E+03  0.17200000000E+03 0.  1.
         -6    1    1    2    0  503  0.25533903460E+02 -0.13218083993E+03 -0.11601962074E+03  0.24732227370E+03  0.17200000000E+03 0.  1.
</event>
<event>
 4    1  0.1232978E+000  0.1884700E+03  0.7818608E-02  0.1159849E+00
         21   -1    0    0  503  502  0.00000000000E+00  0.00000000000E+00  0.10114961018E+03  0.10114961018E+03  0.00000000000E+00 0. -1.
         21   -1    0    0  501  503 -0.00000000000E+00 -0.00000000000E+00 -0.35713329877E+03  0.35713329877E+03  0.00000000000E+00 0.  1.
          6    1    1    2  501    0  0.40840872732E+02  0.65337438478E+02 -0.15759527651E+03  0.24567708263E+03  0.17200000000E+03 0.  1.
         -6    1    1    2    0  502 -0.40840872732E+02 -0.65337438478E+02 -0.98388412075E+02  0.21260582631E+03  0.17200000000E+03 0. -1.
</event>
<event>
 4    1  0.1232978E+000  0.1954601E+03  0.7818608E-02  0.1153627E+00
         21   -1    0    0  503  502  0.00000000000E+00  0.00000000000E+00  0.12391292729E+03  0.12391292729E+03  0.00000000000E+00 0. -1.
         21   -1    0    0  501  503 -0.00000000000E+00 -0.00000000000E+00 -0.35302527127E+03  0.35302527127E+03  0.00000000000E+00 0. -1.
          6    1    1    2  501    0 -0.67469278021E+02  0.63785202517E+02 -0.19941862209E+03  0.27923546045E+03  0.17200000000E+03 0.  1.
         -6    1    1    2    0  502  0.67469278021E+02 -0.63785202517E+02 -0.29693721881E+02  0.19770273811E+03  0.17200000000E+03 0.  1.
</event>
<event>
 4    1  0.1232978E+000  0.2218242E+03  0.7818608E-02  0.1132530E+00
         21   -1    0    0  501  502  0.00000000000E+00  0.00000000000E+00  0.18975950410E+03  0.18975950410E+03  0.00000000000E+00 0. -1.
         21   -1    0    0  502  503 -0.00000000000E+00 -0.00000000000E+00 -0.31823480565E+03  0.31823480565E+03  0.00000000000E+00 0.  1.
          6    1    1    2  501    0  0.12486969114E+03  0.63478468339E+02  0.45061146101E+02  0.22635472736E+03  0.17200000000E+03 0. -1.
         -6    1    1    2    0  503 -0.12486969114E+03 -0.63478468339E+02 -0.17353644765E+03  0.28163958240E+03  0.17200000000E+03 0.  1.
</event>
<event>
 4    1  0.1232978E+000  0.2693816E+03  0.7818608E-02  0.1101634E+00
         21   -1    0    0  501  502  0.00000000000E+00  0.00000000000E+00  0.32553229568E+03  0.32553229568E+03  0.00000000000E+00 0. -1.
         21   -1    0    0  502  503 -0.00000000000E+00 -0.00000000000E+00 -0.38030830493E+03  0.38030830493E+03  0.00000000000E+00 0. -1.
          6    1    1    2  501    0  0.18788768914E+03 -0.87639345440E+02  0.19965082443E+03  0.33530119340E+03  0.17200000000E+03 0. -1.
         -6    1    1    2    0  503 -0.18788768914E+03  0.87639345440E+02 -0.25442683369E+03  0.37053940721E+03  0.17200000000E+03 0. -1.
</event>
<event>
 4    1  0.1232978E+000  0.2728883E+03  0.7818608E-02  0.1099638E+00
         21   -1    0    0  501  502  0.00000000000E+00  0.00000000000E+00  0.14836713087E+03  0.14836713087E+03  0.00000000000E+00 0. -1.
         21   -1    0    0  502  503 -0.00000000000E+00 -0.00000000000E+00 -0.51542915286E+03  0.51542915286E+03  0.00000000000E+00 0.  1.
          6    1    1    2  501    0  0.18597314588E+03 -0.10147909256E+03 -0.12979330269E+03  0.30218259156E+03  0.17200000000E+03 0.  1.
         -6    1    1    2    0  503 -0.18597314588E+03  0.10147909256E+03 -0.23726871929E+03  0.36161369218E+03  0.17200000000E+03 0.  1.
</event>
<event>
 4    1  0.1232978E+000  0.3001185E+03  0.7818608E-02  0.1085181E+00
         21   -1    0    0  501  502  0.00000000000E+00  0.00000000000E+00  0.33604312867E+03  0.33604312867E+03  0.00000000000E+00 0.  1.
         21   -1    0    0  502  503 -0.00000000000E+00 -0.00000000000E+00 -0.27170669473E+03  0.27170669473E+03  0.00000000000E+00 0. -1.
          6    1    1    2  501    0 -0.20143809973E+03  0.14110218749E+03 -0.31590836653E+01  0.30013516146E+03  0.17200000000E+03 0. -1.
         -6    1    1    2    0  503  0.20143809973E+03 -0.14110218749E+03  0.67495517606E+02  0.30761466193E+03  0.17200000000E+03 0.  1.
</event>
<event>
 4    1  0.1232978E+000  0.1808234E+03  0.7818608E-02  0.1167009E+00
         21   -1    0    0  501  502  0.00000000000E+00  0.00000000000E+00  0.15039296485E+03  0.15039296485E+03  0.00000000000E+00 0.  1.
         21   -1    0    0  502  503 -0.00000000000E+00 -0.00000000000E+00 -0.30491910125E+03  0.30491910125E+03  0.00000000000E+00 0.  1.
          6    1    1    2  501    0  0.37543081088E+02  0.41274973150E+02  0.44695024706E+02  0.18626527207E+03  0.17200000000E+03 0.  1.
         -6    1    1    2    0  503 -0.37543081088E+02 -0.41274973150E+02 -0.19922116111E+03  0.26904679403E+03  0.17200000000E+03 0.  1.
</event>
<event>
 4    1  0.1232978E+000  0.1847589E+03  0.7818608E-02  0.1163275E+00
         21   -1    0    0  501  502  0.00000000000E+00  0.00000000000E+00  0.15110924293E+03  0.15110924293E+03  0.00000000000E+00 0.  1.
         21   -1    0    0  502  503 -0.00000000000E+00 -0.00000000000E+00 -0.49748712936E+03  0.49748712936E+03  0.00000000000E+00 0.  1.
          6    1    1    2  501    0  0.10226214423E+02 -0.66687926150E+02  0.66422040232E+02  0.19633578987E+03  0.17200000000E+03 0. -1.
         -6    1    1    2    0  503 -0.10226214423E+02  0.66687926150E+02 -0.41279992666E+03  0.45226058241E+03  0.17200000000E+03 0. -1.
</event>
<event>
 4    1  0.1232978E+000  0.2542218E+03  0.7818608E-02  0.1110665E+00
         21   -1    0    0  503  502  0.00000000000E+00  0.00000000000E+00  0.32655160132E+03  0.32655160132E+03  0.00000000000E+00 0.  1.
         21   -1    0    0  501  503 -0.00000000000E+00 -0.00000000000E+00 -0.32560021928E+03  0.32560021928E+03  0.00000000000E+00 0. -1.
          6    1    1    2  501    0  0.18244994487E+03 -0.41913525607E+02 -0.20372184991E+03  0.32577801974E+03  0.17200000000E+03 0. -1.
         -6    1    1    2    0  502 -0.18244994487E+03  0.41913525607E+02  0.20467323195E+03  0.32637380086E+03  0.17200000000E+03 0. -1.
</event>
<event>
 4    1  0.1232978E+000  0.1852090E+03  0.7818608E-02  0.1162855E+00
         21   -1    0    0  503  502  0.00000000000E+00  0.00000000000E+00  0.24634394104E+03  0.24634394104E+03  0.00000000000E+00 0. -1.
         21   -1    0    0  501  503 -0.00000000000E+00 -0.00000000000E+00 -0.37562459017E+03  0.37562459017E+03  0.00000000000E+00 0. -1.
          6    1    1    2  501    0  0.30298507435E+02  0.61647134450E+02 -0.31133832276E+03  0.36226222541E+03  0.17200000000E+03 0. -1.
         -6    1    1    2    0  502 -0.30298507435E+02 -0.61647134450E+02  0.18205767363E+03  0.25970630579E+03  0.17200000000E+03 0. -1.
</event>
<event>
 4    1  0.1232978E+000  0.1827051E+03  0.7818608E-02  0.1165210E+00
         21   -1    0    0  501  502  0.00000000000E+00  0.00000000000E+00  0.39067844634E+03  0.39067844634E+03  0.00000000000E+00 0. -1.
         21   -1    0    0  502  503 -0.00000000000E+00 -0.00000000000E+00 -0.94973296164E+02  0.94973296164E+02  0.00000000000E+00 0. -1.
          6    1    1    2  501    0 -0.34235428855E+02 -0.51235524546E+02  0.22476982938E+03  0.28965948934E+03  0.17200000000E+03 0. -1.
         -6    1    1    2    0  503  0.34235428855E+02  0.51235524546E+02  0.70935320794E+02  0.19599225316E+03  0.17200000000E+03 0. -1.
</event>
<event>
 4    1  0.1232978E+000  0.1915323E+03  0.7818608E-02  0.1157086E+00
         21   -1    0    0  501  502  0.00000000000E+00  0.00000000000E+00  0.80772987272E+03  0.80772987272E+03  0.00000000000E+00 0.  1.
         21   -1    0    0  502  503 -0.00000000000E+00 -0.00000000000E+00 -0.52389766947E+02  0.52389766947E+02  0.00000000000E+00 0.  1.
          6    1    1    2  501    0  0.28927319853E+01  0.84215584527E+02  0.53456521846E+03  0.56784206023E+03  0.17200000000E+03 0. -1.
         -6    1    1    2    0  503 -0.28927319853E+01 -0.84215584527E+02  0.22077488731E+03  0.29227757944E+03  0.17200000000E+03 0. -1.
</event>
<event>
 4    1  0.1232978E+000  0.2937489E+03  0.7818608E-02  0.1088408E+00
         21   -1    0    0  501  502  0.00000000000E+00  0.00000000000E+00  0.20347131259E+03  0.20347131259E+03  0.00000000000E+00 0. -1.
         21   -1    0    0  502  503 -0.00000000000E+00 -0.00000000000E+00 -0.43498814822E+03  0.43498814822E+03  0.00000000000E+00 0.  1.
          6    1    1    2  501    0  0.15003661306E+03  0.18491458050E+03 -0.16630751622E+03  0.33755973885E+03  0.17200000000E+03 0. -1.
         -6    1    1    2    0  503 -0.15003661306E+03 -0.18491458050E+03 -0.65209319404E+02  0.30089972196E+03  0.17200000000E+03 0. -1.
</event>
<event>
 4    1  0.1232978E+000  0.1991515E+03  0.7818608E-02  0.1150457E+00
         21   -1    0    0  503  502  0.00000000000E+00  0.00000000000E+00  0.24823439955E+04  0.24823439955E+04  0.00000000000E+00 0. -1.
         21   -1    0    0  501  503 -0.00000000000E+00 -0.00000000000E+00 -0.25181123853E+02  0.25181123853E+02  0.00000000000E+00 0. -1.
          6    1    1    2  501    0 -0.64814086194E+02  0.76658022090E+02  0.47059691248E+03  0.51100173401E+03  0.17200000000E+03 0.  1.
         -6    1    1    2    0  502  0.64814086194E+02 -0.76658022090E+02  0.19865659592E+04  0.19965233853E+04  0.17200000000E+03 0.  1.
</event>
<event>
 4    1  0.1232978E+000  0.2545807E+03  0.7818608E-02  0.1110444E+00
         21   -1    0    0  503  502  0.00000000000E+00  0.00000000000E+00  0.38569932518E+02  0.38569932518E+02  0.00000000000E+00 0.  1.
         21   -1    0    0  501  503 -0.00000000000E+00 -0.00000000000E+00 -0.18299128148E+04  0.18299128148E+04  0.00000000000E+00 0. -1.
          6    1    1    2  501    0 -0.47797001508E+02  0.18150144812E+03 -0.62859055800E+03  0.67818686115E+03  0.17200000000E+03 0.  1.
         -6    1    1    2    0  502  0.47797001508E+02 -0.18150144812E+03 -0.11627523243E+04  0.11902958862E+04  0.17200000000E+03 0.  1.
</event>
<event>
 4    1  0.1232978E+000  0.3700584E+03  0.7818608E-02  0.1054671E+00
         21   -1    0    0  501  502  0.00000000000E+00  0.00000000000E+00  0.58082005281E+03  0.58082005281E+03  0.00000000000E+00 0.  1.
         21   -1    0    0  502  503 -0.00000000000E+00 -0.00000000000E+00 -0.24938304511E+03  0.24938304511E+03  0.00000000000E+00 0.  1.
          6    1    1    2  501    0  0.24293747810E+03  0.21986490507E+03  0.26268221615E+03  0.45381179076E+03  0.17200000000E+03 0. -1.
         -6    1    1    2    0  503 -0.24293747810E+03 -0.21986490507E+03  0.68754791547E+02  0.37639130717E+03  0.17200000000E+03 0. -1.
</event>
<event>
 4    1  0.1232978E+000  0.1900661E+03  0.7818608E-02  0.1158402E+00
         21   -1    0    0  501  502  0.00000000000E+00  0.00000000000E+00  0.88941549342E+03  0.88941549342E+03  0.00000000000E+00 0. -1.
         21   -1    0    0  502  503 -0.00000000000E+00 -0.00000000000E+00 -0.70682072804E+02  0.70682072804E+02  0.00000000000E+00 0. -1.
          6    1    1    2  501    0  0.63032664877E+02  0.50675349070E+02  0.72245307103E+03  0.74703651028E+03  0.17200000000E+03 0. -1.
         -6    1    1    2    0  503 -0.63032664877E+02 -0.50675349070E+02  0.96280349583E+02  0.21306105595E+03  0.17200000000E+03 0. -1.
</event>
<event>
 4    1  0.1232978E+000  0.1808262E+03  0.7818608E-02  0.1167006E+00
         21   -1    0    0  503  502  0.00000000000E+00  0.00000000000E+00  0.92117158406E+02  0.92117158406E+02  0.00000000000E+00 0. -1.
         21   -1    0    0  501  503 -0.00000000000E+00 -0.00000000000E+00 -0.79101561174E+03  0.79101561174E+03  0.00000000000E+00 0. -1.
          6    1    1    2  501    0  0.28429304052E+02  0.48019600526E+02 -0.67729782521E+03  0.70102100639E+03  0.17200000000E+03 0. -1.
         -6    1    1    2    0  502 -0.28429304052E+02 -0.48019600526E+02 -0.21600628124E+02  0.18211176376E+03  0.17200000000E+03 0. -1.
</event>
<event>
 4    1  0.1232978E+000  0.2606957E+03  0.7818608E-02  0.1106726E+00
         21   -1    0    0  501  502  0.00000000000E+00  0.00000000000E+00  0.43151178768E+02  0.43151178768E+02  0.00000000000E+00 0.  1.
         21   -1    0    0  502  503 -0.00000000000E+00 -0.00000000000E+00 -0.16593756593E+04  0.16593756593E+04  0.00000000000E+00 0. -1.
          6    1    1    2  501    0  0.14580422418E+03 -0.13084094769E+03 -0.61613367082E+03  0.66901638672E+03  0.17200000000E+03 0.  1.
         -6    1    1    2    0  503 -0.14580422418E+03  0.13084094769E+03 -0.10000908098E+04  0.10335104514E+04  0.17200000000E+03 0. -1.
</event>
<event>
 4    1  0.1232978E+000  0.1869531E+03  0.7818608E-02  0.1161238E+00
         21   -1    0    0  501  502  0.00000000000E+00  0.00000000000E+00  0.19402664944E+03  0.19402664944E+03  0.00000000000E+00 0. -1.
         21   -1    0    0  502  503 -0.00000000000E+00 -0.00000000000E+00 -0.20491802071E+03  0.20491802071E+03  0.00000000000E+00 0. -1.
          6    1    1    2  501    0 -0.44820151260E+02  0.57953540483E+02  0.63920620126E+02  0.19757860332E+03  0.17200000000E+03 0.  1.
         -6    1    1    2    0  503  0.44820151260E+02 -0.57953540483E+02 -0.74811991394E+02  0.20136606683E+03  0.17200000000E+03 0.  1.
</event>
<event>
 4    1  0.1232978E+000  0.2067538E+03  0.7818608E-02  0.1144163E+00
         21   -1    0    0  501  502  0.00000000000E+00  0.00000000000E+00  0.36916735086E+03  0.36916735086E+03  0.00000000000E+00 0.  1.
         21   -1    0    0  502  503 -0.00000000000E+00 -0.00000000000E+00 -0.16136103319E+03  0.16136103319E+03  0.00000000000E+00 0.  1.
          6    1    1    2  501    0  0.10545784324E+03  0.45185945828E+02  0.24486700542E+03  0.32047929223E+03  0.17200000000E+03 0.  1.
         -6    1    1    2    0  503 -0.10545784324E+03 -0.45185945828E+02 -0.37060687753E+02  0.21004909183E+03  0.17200000000E+03 0.  1.
</event>
<event>
 4    1  0.1232978E+000  0.1727983E+03  0.7818608E-02  0.1174961E+00
         21   -1    0    0  503  502  0.00000000000E+00  0.00000000000E+00  0.47206124870E+03  0.47206124870E+03  0.00000000000E+00 0.  1.
         21   -1    0    0  501  503 -0.00000000000E+00 -0.00000000000E+00 -0.72946826840E+02  0.72946826840E+02  0.00000000000E+00 0.  1.
          6    1    1    2  501    0  0.12517992146E+02  0.10887558263E+02  0.10021820873E+03  0.19975717362E+03  0.17200000000E+03 0.  1.
         -6    1    1    2    0  502 -0.12517992146E+02 -0.10887558263E+02  0.29889621313E+03  0.34525090192E+03  0.17200000000E+03 0.  1.
</event>
<event>
 4    1  0.1232978E+000  0.1790087E+03  0.7818608E-02  0.1168766E+00
         21   -1    0    0  503  502  0.00000000000E+00  0.00000000000E+00  0.82627324682E+03  0.82627324682E+03  0.00000000000E+00 0. -1.
         21   -1    0    0  501  503 -0.00000000000E+00 -0.00000000000E+00 -0.81889876672E+02  0.81889876672E+02  0.00000000000E+00 0. -1.
          6    1    1    2  501    0  0.49520505638E+02 -0.27987370110E+01  0.42734025631E+02  0.18403888272E+03  0.17200000000E+03 0. -1.
         -6    1    1    2    0  502 -0.49520505638E+02  0.27987370110E+01  0.70164934452E+03  0.72412424077E+03  0.17200000000E+03 0. -1.
</event>
<event>
 4    1  0.1232978E+000  0.2002046E+03  0.7818608E-02  0.1149567E+00
         21   -1    0    0  501  502  0.00000000000E+00  0.00000000000E+00  0.10757930502E+03  0.10757930502E+03  0.00000000000E+00 0. -1.
         21   -1    0    0  502  503 -0.00000000000E+00 -0.00000000000E+00 -0.48721360692E+03  0.48721360692E+03  0.00000000000E+00 0.  1.
          6    1    1    2  501    0  0.55574678774E+02  0.86077496271E+02 -0.45561655827E+02  0.20532351245E+03  0.17200000000E+03 0. -1.
         -6    1    1    2    0  503 -0.55574678774E+02 -0.86077496271E+02 -0.33407264607E+03  0.38946939949E+03  0.17200000000E+03 0.  1.
</event>
<event>
 4    1  0.1232978E+000  0.2119688E+03  0.7818608E-02  0.1140016E+00
         21   -1    0    0  501  502  0.00000000000E+00  0.00000000000E+00  0.14829583351E+04  0.14829583351E+04  0.00000000000E+00 0. -1.
         21   -1    0    0  502  503 -0.00000000000E+00 -0.00000000000E+00 -0.30902903404E+02  0.30902903404E+02  0.00000000000E+00 0. -1.
          6    1    1    2  501    0  0.11431622981E+03  0.47734558170E+02  0.62013376088E+03  0.65535995439E+03  0.17200000000E+03 0.  1.
         -6    1    1    2    0  503 -0.11431622981E+03 -0.47734558170E+02  0.83192167080E+03  0.85850128409E+03  0.17200000000E+03 0.  1.
</event>
<event>
 4    1  0.1232978E+000  0.2071411E+03  0.7818608E-02  0.1143850E+00
         21   -1    0    0  503  502  0.00000000000E+00  0.00000000000E+00  0.10955622074E+04  0.10955622074E+04  0.00000000000E+00 0.  1.
         21   -1    0    0  501  503 -0.00000000000E+00 -0.00000000000E+00 -0.40141881657E+02  0.40141881657E+02  0.00000000000E+00 0. -1.
          6    1    1    2  501    0  0.77931906209E+02 -0.85147265100E+02  0.43911519408E+03  0.48551991971E+03  0.17200000000E+03 0.  1.
         -6    1    1    2    0  502 -0.77931906209E+02  0.85147265100E+02  0.61630513164E+03  0.65018416933E+03  0.17200000000E+03 0.  1.
</event>
<event>
 4    1  0.1232978E+000  0.1962252E+03  0.7818608E-02  0.1152963E+00
         21   -1    0    0  503  502  0.00000000000E+00  0.00000000000E+00  0.56685377659E+03  0.56685377659E+03  0.00000000000E+00 0.  1.
         21   -1    0    0  501  503 -0.00000000000E+00 -0.00000000000E+00 -0.11058051034E+03  0.11058051034E+03  0.00000000000E+00 0. -1.
          6    1    1    2  501    0 -0.59606359352E+02  0.73262650457E+02  0.17769277293E+02  0.19702812297E+03  0.17200000000E+03 0. -1.
         -6    1    1    2    0  502  0.59606359352E+02 -0.73262650457E+02  0.43850398896E+03  0.48040616395E+03  0.17200000000E+03 0.  1.
</event>
<event>
 4    1  0.1232978E+000  0.1767778E+03  0.7818608E-02  0.1170958E+00
         21   -1    0    0  501  502  0.00000000000E+00  0.00000000000E+00  0.20277465100E+03  0.20277465100E+03  0.00000000000E+00 0.  1.
         21   -1    0    0  502  503 -0.00000000000E+00 -0.00000000000E+00 -0.19049253494E+03  0.19049253494E+03  0.00000000000E+00 0.  1.
          6    1    1    2  501    0 -0.15471285720E+02  0.37775930524E+02  0.92070550760E+02  0.19931725446E+03  0.17200000000E+03 0.  1.
         -6    1    1    2    0  503  0.15471285720E+02 -0.37775930524E+02 -0.79788434701E+02  0.19394993148E+03  0.17200000000E+03 0.  1.
</event>
<event>
 4    1  0.1232978E+000  0.2050699E+03  0.7818608E-02  0.1145531E+00
         21   -1    0    0  501  502  0.00000000000E+00  0.00000000000E+00  0.25559554496E+03  0.25559554496E+03  0.00000000000E+00 0.  1.
         21   -1    0    0  502  503 -0.00000000000E+00 -0.00000000000E+00 -0.23148062472E+03  0.23148062472E+03  0.00000000000E+00 0.  1.
          6    1    1    2  501    0 -0.40498749831E+02  0.10406487818E+03  0.14303003804E+03  0.25002247777E+03  0.17200000000E+03 0.  1.
         -6    1    1    2    0  503  0.40498749831E+02 -0.10406487818E+03 -0.11891511779E+03  0.23705369191E+03  0.17200000000E+03 0.  1.
</event>
<event>
 4    1  0.1232978E+000  0.1868486E+03  0.7818608E-02  0.1161335E+00
         21   -1    0    0  503  502  0.00000000000E+00  0.00000000000E+00  0.25445394156E+03  0.25445394156E+03  0.00000000000E+00 0. -1.
         21   -1    0    0  501  503 -0.00000000000E+00 -0.00000000000E+00 -0.21116074790E+03  0.21116074790E+03  0.00000000000E+00 0. -1.
          6    1    1    2  501    0 -0.65405177141E+02 -0.32412576311E+02 -0.11612997195E+03  0.21999677881E+03  0.17200000000E+03 0. -1.
         -6    1    1    2    0  502  0.65405177141E+02  0.32412576311E+02  0.15942316561E+03  0.24561791065E+03  0.17200000000E+03 0. -1.
</event>
<event>
 4    1  0.1232978E+000  0.4158468E+03  0.7818608E-02  0.1038427E+00
         21   -1    0    0  501  502  0.00000000000E+00  0.00000000000E+00  0.23805835411E+04  0.23805835411E+04  0.00000000000E+00 0. -1.
         21   -1    0    0  502  503 -0.00000000000E+00 -0.00000000000E+00 -0.20139608438E+03  0.20139608438E+03  0.00000000000E+00 0.  1.
          6    1    1    2  501    0  0.11599835480E+03 -0.36040107129E+03  0.21218299293E+04  0.21621958282E+04  0.17200000000E+03 0. -1.
         -6    1    1    2    0  503 -0.11599835480E+03  0.36040107129E+03  0.57357527378E+02  0.41978379727E+03  0.17200000000E+03 0.  1.
</event>
<event>
 4    1  0.1232978E+000  0.2317888E+03  0.7818608E-02  0.1125387E+00
         21   -1    0    0  501  502  0.00000000000E+00  0.00000000000E+00  0.13821772760E+03  0.13821772760E+03  0.00000000000E+00 0.  1.
         21   -1    0    0  502  503 -0.00000000000E+00 -0.00000000000E+00 -0.18083104092E+04  0.18083104092E+04  0.00000000000E+00 0.  1.
          6    1    1    2  501    0 -0.22770622967E+02  0.15369958623E+03  0.27292334360E+02  0.23339009317E+03  0.17200000000E+03 0.  1.
         -6    1    1    2    0  503  0.22770622967E+02 -0.15369958623E+03 -0.16973850160E+04  0.17131380436E+04  0.17200000000E+03 0.  1.
</event>
<event>
 4    1  0.1232978E+000  0.2590728E+03  0.7818608E-02  0.1107702E+00
         21   -1    0    0  501  502  0.00000000000E+00  0.00000000000E+00  0.26156506744E+03  0.26156506744E+03  0.00000000000E+00 0.  1.
         21   -1    0    0  502  503 -0.00000000000E+00 -0.00000000000E+00 -0.82134198610E+03  0.82134198610E+03  0.00000000000E+00 0.  1.
          6    1    1    2  501    0  0.11439543264E+03 -0.15635977212E+03  0.16908699702E+03  0.30936888323E+03  0.17200000000E+03 0.  1.
         -6    1    1    2    0  503 -0.11439543264E+03  0.15635977212E+03 -0.72886391568E+03  0.77353817031E+03  0.17200000000E+03 0.  1.
</event>
<event>
 4    1  0.1232978E+000  0.1907380E+03  0.7818608E-02  0.1157797E+00
         21   -1    0    0  501  502  0.00000000000E+00  0.00000000000E+00  0.12546678966E+03  0.12546678966E+03  0.00000000000E+00 0.  1.
         21   -1    0    0  502  503 -0.00000000000E+00 -0.00000000000E+00 -0.50376106218E+03  0.50376106218E+03  0.00000000000E+00 0.  1.
          6    1    1    2  501    0  0.81641356902E+02  0.11475468800E+02  0.15811080642E+02  0.19139223551E+03  0.17200000000E+03 0.  1.
         -6    1    1    2    0  503 -0.81641356902E+02 -0.11475468800E+02 -0.39410535316E+03  0.43783561634E+03  0.17200000000E+03 0.  1.
</event>
<event>
 4    1  0.1232978E+000  0.1735499E+03  0.7818608E-02  0.1174196E+00
         21   -1    0    0  501  502  0.00000000000E+00  0.00000000000E+00  0.20033459569E+03  0.20033459569E+03  0.00000000000E+00 0.  1.
         21   -1    0    0  502  503 -0.00000000000E+00 -0.00000000000E+00 -0.16809871472E+03  0.16809871472E+03  0.00000000000E+00 0.  1.
          6    1    1    2  501    0 -0.65005265004E+01  0.22210334994E+02 -0.43747473145E+02  0.17897876196E+03  0.17200000000E+03 0.  1.
         -6    1    1    2    0  503  0.65005265004E+01 -0.22210334994E+02  0.75983354116E+02  0.18945454845E+03  0.17200000000E+03 0.  1.
</event>
<event>
 4    1  0.1232978E+000  0.2129018E+03  0.7818608E-02  0.1139289E+00
         21   -1    0    0  503  502  0.00000000000E+00  0.00000000000E+00  0.60436190130E+03  0.60436190130E+03  0.00000000000E+00 0.  1.
         21   -1    0    0  501  503 -0.00000000000E+00 -0.00000000000E+00 -0.75226653314E+02  0.75226653314E+02  0.00000000000E+00 0.  1.
          6    1    1    2  501    0  0.80938536654E+02 -0.95875496247E+02  0.24591724733E+03  0.32527288549E+03  0.17200000000E+03 0.  1.
         -6    1    1    2    0  502 -0.80938536654E+02  0.95875496247E+02  0.28321800066E+03  0.35431566913E+03  0.17200000000E+03 0.  1.
</event>
<event>
 4    1  0.1232978E+000  0.2566922E+03  0.7818608E-02  0.1109147E+00
         21   -1    0    0  501  502  0.00000000000E+00  0.00000000000E+00  0.11847909668E+03  0.11847909668E+03  0.00000000000E+00 0. -1.
         21   -1    0    0  502  503 -0.00000000000E+00 -0.00000000000E+00 -0.61714073975E+03  0.61714073975E+03  0.00000000000E+00 0. -1.
          6    1    1    2  501    0  0.16189354079E+03 -0.10048568450E+03 -0.13369268446E+03  0.28942118999E+03  0.17200000000E+03 0. -1.
         -6    1    1    2    0  503 -0.16189354079E+03  0.10048568450E+03 -0.36496895861E+03  0.44619864645E+03  0.17200000000E+03 0. -1.
</event>
<event>
 4    1  0.1232978E+000  0.2264540E+03  0.7818608E-02  0.1129161E+00
         21   -1    0    0  501  502  0.00000000000E+00  0.00000000000E+00  0.58415673044E+03  0.58415673044E+03  0.00000000000E+00 0. -1.
         21   -1    0    0  502  503 -0.00000000000E+00 -0.00000000000E+00 -0.16679856759E+03  0.16679856759E+03  0.00000000000E+00 0.  1.
          6    1    1    2  501    0 -0.13373028496E+03 -0.61754547928E+02  0.46710320518E+03  0.51910193372E+03  0.17200000000E+03 0.  1.
         -6    1    1    2    0  503  0.13373028496E+03  0.61754547928E+02 -0.49745042323E+02  0.23185336431E+03  0.17200000000E+03 0.  1.
</event>
<event>
 4    1  0.1232978E+000  0.1847871E+03  0.7818608E-02  0.1163249E+00
         21   -1    0    0  503  502  0.00000000000E+00  0.00000000000E+00  0.51481245525E+03  0.51481245525E+03  0.00000000000E+00 0. -1.
         21   -1    0    0  501  503 -0.00000000000E+00 -0.00000000000E+00 -0.10435846954E+03  0.10435846954E+03  0.00000000000E+00 0. -1.
          6    1    1    2  501    0  0.50546409093E+02 -0.44803352942E+02  0.18337546739E+02  0.18569476441E+03  0.17200000000E+03 0. -1.
         -6    1    1    2    0  502 -0.50546409093E+02  0.44803352942E+02  0.39211643897E+03  0.43347616038E+03  0.17200000000E+03 0. -1.
</event>
<event>
 4    1  0.1232978E+000  0.1896665E+03  0.7818608E-02  0.1158763E+00
         21   -1    0    0  501  502  0.00000000000E+00  0.00000000000E+00  0.45607612920E+02  0.45607612920E+02  0.00000000000E+00 0. -1.
         21   -1    0    0  502  503 -0.00000000000E+00 -0.00000000000E+00 -0.87428264625E+03  0.87428264625E+03  0.00000000000E+00 0. -1.
          6    1    1    2  501    0 -0.47633477939E+02  0.64190500949E+02 -0.55819279107E+03  0.58953588579E+03  0.17200000000E+03 0. -1.
         -6    1    1    2    0  503  0.47633477939E+02 -0.64190500949E+02 -0.27048224226E+03  0.33035437338E+03  0.17200000000E+03 0. -1.
</event>
<event>
 4    1  0.1232978E+000  0.1838674E+03  0.7818608E-02  0.1164112E+00
         21   -1    0    0  503  502  0.00000000000E+00  0.00000000000E+00  0.12686657269E+04  0.12686657269E+04  0.00000000000E+00 0.  1.
         21   -1    0    0  501  503 -0.00000000000E+00 -0.00000000000E+00 -0.27900774220E+02  0.27900774220E+02  0.00000000000E+00 0.  1.
          6    1    1    2  501    0 -0.62589630218E+02  0.17485592623E+02  0.48300361038E+03  0.51681688769E+03  0.17200000000E+03 0. -1.
         -6    1    1    2    0  502  0.62589630218E+02 -0.17485592623E+02  0.75776134226E+03  0.77974961340E+03  0.17200000000E+03 0. -1.
</event>
<event>
 4    1  0.1232978E+000  0.2028229E+03  0.7818608E-02  0.1147379E+00
         21   -1    0    0  503  502  0.00000000000E+00  0.00000000000E+00  0.13894991179E+03  0.13894991179E+03  0.00000000000E+00 0. -1.
         21   -1    0    0  501  503 -0.00000000000E+00 -0.00000000000E+00 -0.37400649428E+03  0.37400649428E+03  0.00000000000E+00 0. -1.
          6    1    1    2  501    0 -0.10732084166E+03 -0.59467139345E+01 -0.23461750544E+03  0.31013303649E+03  0.17200000000E+03 0. -1.
         -6    1    1    2    0  502  0.10732084166E+03  0.59467139345E+01 -0.43907704776E+00  0.20282336958E+03  0.17200000000E+03 0. -1.
</event>
<event>
 4    1  0.1232978E+000  0.2413540E+03  0.7818608E-02  0.1118894E+00
         21   -1    0    0  503  502  0.00000000000E+00  0.00000000000E+00  0.32500956925E+03  0.32500956925E+03  0.00000000000E+00 0.  1.
         21   -1    0    0  501  503 -0.00000000000E+00 -0.00000000000E+00 -0.18009022571E+03  0.18009022571E+03  0.00000000000E+00 0. -1.
          6    1    1    2  501    0 -0.96603181256E+02 -0.13905239210E+03  0.89905551263E+02  0.25755533488E+03  0.17200000000E+03 0. -1.
         -6    1    1    2    0  502  0.96603181256E+02  0.13905239210E+03  0.55013792273E+02  0.24754446008E+03  0.17200000000E+03 0.  1.
</event>
<event>
 4    1  0.1232978E+000  0.1911079E+03  0.7818608E-02  0.1157466E+00
         21   -1    0    0  503  502  0.00000000000E+00  0.00000000000E+00  0.94611131619E+03  0.94611131619E+03  0.00000000000E+00 0. -1.
         21   -1    0    0  501  503 -0.00000000000E+00 -0.00000000000E+00 -0.13261890904E+03  0.13261890904E+03  0.00000000000E+00 0. -1.
          6    1    1    2  501    0 -0.70337293900E+02  0.44619305038E+02 -0.47385754805E+02  0.19689496452E+03  0.17200000000E+03 0. -1.
         -6    1    1    2    0  502  0.70337293900E+02 -0.44619305038E+02  0.86087816196E+03  0.88183526071E+03  0.17200000000E+03 0. -1.
</event>
<event>
 4    1  0.1232978E+000  0.2965755E+03  0.7818608E-02  0.1086965E+00
         21   -1    0    0  503  502  0.00000000000E+00  0.00000000000E+00  0.18702642039E+03  0.18702642039E+03  0.00000000000E+00 0. -1.
         21   -1    0    0  501  503 -0.00000000000E+00 -0.00000000000E+00 -0.51946773041E+03  0.51946773041E+03  0.00000000000E+00 0.  1.
          6    1    1    2  501    0  0.20312648685E+03 -0.13081546554E+03 -0.27490677234E+03  0.40438940288E+03  0.17200000000E+03 0. -1.
         -6    1    1    2    0  502 -0.20312648685E+03  0.13081546554E+03 -0.57534537680E+02  0.30210474791E+03  0.17200000000E+03 0. -1.
</event>
<event>
 4    1  0.1232978E+000  0.1864611E+03  0.7818608E-02  0.1161693E+00
         21   -1    0    0  501  502  0.00000000000E+00  0.00000000000E+00  0.91982244555E+02  0.91982244555E+02  0.00000000000E+00 0. -1.
         21   -1    0    0  502  503 -0.00000000000E+00 -0.00000000000E+00 -0.39748570810E+03  0.39748570810E+03  0.00000000000E+00 0. -1.
          6    1    1    2  501    0 -0.69883906340E+02 -0.17319485295E+02 -0.98541539884E+02  0.21089845902E+03  0.17200000000E+03 0. -1.
         -6    1    1    2    0  503  0.69883906340E+02  0.17319485295E+02 -0.20696192366E+03  0.27856949363E+03  0.17200000000E+03 0. -1.
</event>
<event>
 4    1  0.1232978E+000  0.1758205E+03  0.7818608E-02  0.1171910E+00
         21   -1    0    0  501  502  0.00000000000E+00  0.00000000000E+00  0.15642895017E+03  0.15642895017E+03  0.00000000000E+00 0.  1.
         21   -1    0    0  502  503 -0.00000000000E+00 -0.00000000000E+00 -0.21653166313E+03  0.21653166313E+03  0.00000000000E+00 0.  1.
          6    1    1    2  501    0  0.34050352499E+02  0.13016150107E+02  0.25065480100E+02  0.17759821216E+03  0.17200000000E+03 0.  1.
         -6    1    1    2    0  503 -0.34050352499E+02 -0.13016150107E+02 -0.85168193068E+02  0.19536240114E+03  0.17200000000E+03 0.  1.
</event>
<event>
 4    1  0.1232978E+000  0.2193840E+03  0.7818608E-02  0.1134343E+00
         21   -1    0    0  501  502  0.00000000000E+00  0.00000000000E+00  0.16445154714E+03  0.16445154714E+03  0.00000000000E+00 0.  1.
         21   -1    0    0  502  503 -0.00000000000E+00 -0.00000000000E+00 -0.12725439688E+04  0.12725439688E+04  0.00000000000E+00 0.  1.
          6    1    1    2  501    0 -0.46339507573E+02  0.12805466491E+03  0.76439219339E+02  0.23231939527E+03  0.17200000000E+03 0.  1.
         -6    1    1    2    0  503  0.46339507573E+02 -0.12805466491E+03 -0.11845316410E+04  0.12046761207E+04  0.17200000000E+03 0.  1.
</event>
<event>
 4    1  0.1232978E+000  0.1751706E+03  0.7818608E-02  0.1172560E+00
         21   -1    0    0  503  502  0.00000000000E+00  0.00000000000E+00  0.41199142795E+03  0.41199142795E+03  0.00000000000E+00 0. -1.
         21   -1    0    0  501  503 -0.00000000000E+00 -0.00000000000E+00 -0.20311556390E+03  0.20311556390E+03  0.00000000000E+00 0. -1.
          6    1    1    2  501    0  0.32345948868E+02  0.73818826894E+01 -0.14031680480E+03  0.22444054516E+03  0.17200000000E+03 0. -1.
         -6    1    1    2    0  502 -0.32345948868E+02 -0.73818826894E+01  0.34919266885E+03  0.39066644670E+03  0.17200000000E+03 0. -1.
</event>
<event>
 4    1  0.1232978E+000  0.1774312E+03  0.7818608E-02  0.1170313E+00
         21   -1    0    0  503  502  0.00000000000E+00  0.00000000000E+00  0.55305315682E+02  0.55305315682E+02  0.00000000000E+00 0.  1.
         21   -1    0    0  501  503 -0.00000000000E+00 -0.00000000000E+00 -0.11264650491E+04  0.11264650491E+04  0.00000000000E+00 0.  1.
          6    1    1    2  501    0  0.42720722879E+02  0.85313048371E+01 -0.95116561260E+03  0.96757318375E+03  0.17200000000E+03 0.  1.
         -6    1    1    2    0  502 -0.42720722879E+02 -0.85313048371E+01 -0.11999412080E+03  0.21419718101E+03  0.17200000000E+03 0.  1.
</event>
<event>
 4    1  0.1232978E+000  0.1731878E+03  0.7818608E-02  0.1174564E+00
         21   -1    0    0  501  502  0.00000000000E+00  0.00000000000E+00  0.23231539753E+03  0.23231539753E+03  0.00000000000E+00 0. -1.
         21   -1    0    0  502  503 -0.00000000000E+00 -0.00000000000E+00 -0.12917615960E+03  0.12917615960E+03  0.00000000000E+00 0. -1.
          6    1    1    2  501    0  0.10772381901E+02  0.17145617988E+02  0.47449375230E+02  0.17957020810E+03  0.17200000000E+03 0.  1.
         -6    1    1    2    0  503 -0.10772381901E+02 -0.17145617988E+02  0.55689862699E+02  0.18192134904E+03  0.17200000000E+03 0.  1.
</event>
<event>
 4    1  0.1232978E+000  0.1935836E+03  0.7818608E-02  0.1155268E+00
         21   -1    0    0  501  502  0.00000000000E+00  0.00000000000E+00  0.40199621596E+03  0.40199621596E+03  0.00000000000E+00 0. -1.
         21   -1    0    0  502  503 -0.00000000000E+00 -0.00000000000E+00 -0.12527278196E+03  0.12527278196E+03  0.00000000000E+00 0.  1.
          6    1    1    2  501    0  0.81578718973E+02 -0.35149989944E+02  0.27171323031E+03  0.33362057597E+03  0.17200000000E+03 0. -1.
         -6    1    1    2    0  503 -0.81578718973E+02  0.35149989944E+02  0.50102036899E+01  0.19364842195E+03  0.17200000000E+03 0.  1.
</event>
<event>
 4    1  0.1232978E+000  0.1759394E+03  0.7818608E-02  0.1171792E+00
         21   -1    0    0  503  502  0.00000000000E+00  0.00000000000E+00  0.27866966628E+04  0.27866966628E+04  0.00000000000E+00 0. -1.
         21   -1    0    0  501  503 -0.00000000000E+00 -0.00000000000E+00 -0.17436795900E+02  0.17436795900E+02  0.00000000000E+00 0. -1.
          6    1    1    2  501    0 -0.72168700443E+01  0.36312374252E+02  0.53994386732E+03  0.56788559727E+03  0.17200000000E+03 0. -1.
         -6    1    1    2    0  502  0.72168700443E+01 -0.36312374252E+02  0.22293159996E+04  0.22362478615E+04  0.17200000000E+03 0. -1.
</event>
<event>
 4    1  0.1232978E+000  0.2015799E+03  0.7818608E-02  0.1148413E+00
         21   -1    0    0  501  502  0.00000000000E+00  0.00000000000E+00  0.10338373632E+03  0.10338373632E+03  0.00000000000E+00 0.  1.
         21   -1    0    0  502  503 -0.00000000000E+00 -0.00000000000E+00 -0.39439824610E+03  0.39439824610E+03  0.00000000000E+00 0.  1.
          6    1    1    2  501    0  0.10502402089E+03  0.45162639485E+01 -0.16008732563E+03  0.25741482753E+03  0.17200000000E+03 0. -1.
         -6    1    1    2    0  503 -0.10502402089E+03 -0.45162639485E+01 -0.13092718415E+03  0.24036715490E+03  0.17200000000E+03 0. -1.
</event>
<event>
 4    1  0.1232978E+000  0.1823861E+03  0.7818608E-02  0.1165514E+00
         21   -1    0    0  501  502  0.00000000000E+00  0.00000000000E+00  0.84680742156E+02  0.84680742156E+02  0.00000000000E+00 0. -1.
         21   -1    0    0  502  503 -0.00000000000E+00 -0.00000000000E+00 -0.70940123254E+03  0.70940123254E+03  0.00000000000E+00 0. -1.
          6    1    1    2  501    0 -0.15533024304E+02 -0.58646385856E+02 -0.47126460189E+02  0.18837615738E+03  0.17200000000E+03 0. -1.
         -6    1    1    2    0  503  0.15533024304E+02  0.58646385856E+02 -0.57759403019E+03  0.60570581731E+03  0.17200000000E+03 0. -1.
</event>
<event>
 4    1  0.1232978E+000  0.2174865E+03  0.7818608E-02  0.1135771E+00
         21   -1    0    0  501  502  0.00000000000E+00  0.00000000000E+00  0.74235588897E+03  0.74235588897E+03  0.00000000000E+00 0. -1.
         21   -1    0    0  502  503 -0.00000000000E+00 -0.00000000000E+00 -0.65350346639E+02  0.65350346639E+02  0.00000000000E+00 0.  1.
          6    1    1    2  501    0 -0.12284759358E+02  0.13253483326E+03  0.40235721272E+03  0.45737481781E+03  0.17200000000E+03 0. -1.
         -6    1    1    2    0  503  0.12284759358E+02 -0.13253483326E+03  0.27464832961E+03  0.35033141780E+03  0.17200000000E+03 0.  1.
</event>
<event>
 4    1  0.1232978E+000  0.2178434E+03  0.7818608E-02  0.1135501E+00
         21   -1    0    0  501  502  0.00000000000E+00  0.00000000000E+00  0.17094826496E+03  0.17094826496E+03  0.00000000000E+00 0.  1.
         21   -1    0    0  502  503 -0.00000000000E+00 -0.00000000000E+00 -0.76175831673E+03  0.76175831673E+03  0.00000000000E+00 0.  1.
          6    1    1    2  501    0 -0.10445856197E+03  0.83427433709E+02  0.76385961177E+02  0.23084744514E+03  0.17200000000E+03 0.  1.
         -6    1    1    2    0  503  0.10445856197E+03 -0.83427433709E+02 -0.66719601294E+03  0.70185913655E+03  0.17200000000E+03 0.  1.
</event>
<event>
 4    1  0.1232978E+000  0.2193591E+03  0.7818608E-02  0.1134362E+00
         21   -1    0    0  503  502  0.00000000000E+00  0.00000000000E+00  0.10585484541E+04  0.10585484541E+04  0.00000000000E+00 0. -1.
         21   -1    0    0  501  503 -0.00000000000E+00 -0.00000000000E+00 -0.46816927985E+02  0.46816927985E+02  0.00000000000E+00 0. -1.
          6    1    1    2  501    0  0.69819687510E+02  0.11687445884E+03  0.41166948389E+03  0.46646563845E+03  0.17200000000E+03 0. -1.
         -6    1    1    2    0  502 -0.69819687510E+02 -0.11687445884E+03  0.60006204224E+03  0.63889974364E+03  0.17200000000E+03 0. -1.
</event>
<event>
 4    1  0.1232978E+000  0.2187720E+03  0.7818608E-02  0.1134802E+00
         21   -1    0    0  501  502  0.00000000000E+00  0.00000000000E+00  0.68501046569E+02  0.68501046569E+02  0.00000000000E+00 0.  1.
         21   -1    0    0  502  503 -0.00000000000E+00 -0.00000000000E+00 -0.71262388276E+03  0.71262388276E+03  0.00000000000E+00 0.  1.
          6    1    1    2  501    0 -0.13264323347E+03  0.26133619116E+02 -0.37666882104E+03  0.43559223384E+03  0.17200000000E+03 0. -1.
         -6    1    1    2    0  503  0.13264323347E+03 -0.26133619116E+02 -0.26745401515E+03  0.34553269549E+03  0.17200000000E+03 0. -1.
</event>
<event>
 4    1  0.1232978E+000  0.1881196E+03  0.7818608E-02  0.1160168E+00
         21   -1    0    0  503  502  0.00000000000E+00  0.00000000000E+00  0.23568885110E+03  0.23568885110E+03  0.00000000000E+00 0.  1.
         21   -1    0    0  501  503 -0.00000000000E+00 -0.00000000000E+00 -0.15016397777E+03  0.15016397777E+03  0.00000000000E+00 0.  1.
          6    1    1    2  501    0 -0.41601900197E+02  0.63829937536E+02  0.40987278503E+02  0.19253294789E+03  0.17200000000E+03 0. -1.
         -6    1    1    2    0  502  0.41601900197E+02 -0.63829937536E+02  0.44537594834E+02  0.19331988097E+03  0.17200000000E+03 0. -1.
</event>
<event>
 4    1  0.1232978E+000  0.2697937E+03  0.7818608E-02  0.1101398E+00
         21   -1    0    0  501  502  0.00000000000E+00  0.00000000000E+00  0.48544817289E+03  0.48544817289E+03  0.00000000000E+00 0. -1.
         21   -1    0    0  502  503 -0.00000000000E+00 -0.00000000000E+00 -0.16903667303E+03  0.16903667303E+03  0.00000000000E+00 0.  1.
          6    1    1    2  501    0  0.18348530549E+03  0.97661625040E+02  0.26819369140E+03  0.38041622789E+03  0.17200000000E+03 0.  1.
         -6    1    1    2    0  503 -0.18348530549E+03 -0.97661625040E+02  0.48217808462E+02  0.27406861803E+03  0.17200000000E+03 0.  1.
</event>
<event>
 4    1  0.1232978E+000  0.1941646E+03  0.7818608E-02  0.1154758E+00
         21   -1    0    0  501  502  0.00000000000E+00  0.00000000000E+00  0.47796887964E+03  0.47796887964E+03  0.00000000000E+00 0.  1.
         21   -1    0    0  502  503 -0.00000000000E+00 -0.00000000000E+00 -0.11476364004E+03  0.11476364004E+03  0.00000000000E+00 0.  1.
          6    1    1    2  501    0  0.84508734421E+02  0.31211864305E+02  0.34733359813E+03  0.39792026218E+03  0.17200000000E+03 0.  1.
         -6    1    1    2    0  503 -0.84508734421E+02 -0.31211864305E+02  0.15871641464E+02  0.19481225749E+03  0.17200000000E+03 0.  1.
</event>
<event>
 4    1  0.1232978E+000  0.1773616E+03  0.7818608E-02  0.1170381E+00
         21   -1    0    0  501  502  0.00000000000E+00  0.00000000000E+00  0.13495441091E+04  0.13495441091E+04  0.00000000000E+00 0. -1.
         21   -1    0    0  502  503 -0.00000000000E+00 -0.00000000000E+00 -0.23419603294E+02  0.23419603294E+02  0.00000000000E+00 0. -1.
          6    1    1    2  501    0 -0.15653925937E+02 -0.40349428026E+02  0.61598062508E+03  0.64100643695E+03  0.17200000000E+03 0.  1.
         -6    1    1    2    0  503  0.15653925937E+02  0.40349428026E+02  0.71014388068E+03  0.73195727540E+03  0.17200000000E+03 0.  1.
</event>
<event>
 4    1  0.1232978E+000  0.1873900E+03  0.7818608E-02  0.1160837E+00
         21   -1    0    0  503  502  0.00000000000E+00  0.00000000000E+00  0.51899267197E+03  0.51899267197E+03  0.00000000000E+00 0. -1.
         21   -1    0    0  501  503 -0.00000000000E+00 -0.00000000000E+00 -0.79923014469E+02  0.79923014469E+02  0.00000000000E+00 0. -1.
          6    1    1    2  501    0 -0.29209413547E+02 -0.68394741954E+02  0.10223460260E+03  0.21346415281E+03  0.17200000000E+03 0. -1.
         -6    1    1    2    0  502  0.29209413547E+02  0.68394741954E+02  0.33683505490E+03  0.38545153363E+03  0.17200000000E+03 0. -1.
</event>
<event>
 4    1  0.1232978E+000  0.1742331E+03  0.7818608E-02  0.1173504E+00
         21   -1    0    0  503  502  0.00000000000E+00  0.00000000000E+00  0.33000404424E+03  0.33000404424E+03  0.00000000000E+00 0. -1.
         21   -1    0    0  501  503 -0.00000000000E+00 -0.00000000000E+00 -0.10362061963E+03  0.10362061963E+03  0.00000000000E+00 0. -1.
          6    1    1    2  501    0 -0.17665087232E+02 -0.21473493042E+02  0.40554865015E+02  0.17889064617E+03  0.17200000000E+03 0. -1.
         -6    1    1    2    0  502  0.17665087232E+02  0.21473493042E+02  0.18582855959E+03  0.25473401769E+03  0.17200000000E+03 0. -1.
</event>
<event>
 4    1  0.1232978E+000  0.2037767E+03  0.7818608E-02  0.1146591E+00
         21   -1    0    0  501  502  0.00000000000E+00  0.00000000000E+00  0.23705179819E+03  0.23705179819E+03  0.00000000000E+00 0. -1.
         21   -1    0    0  502  503 -0.00000000000E+00 -0.00000000000E+00 -0.30849150582E+03  0.30849150582E+03  0.00000000000E+00 0.  1.
          6    1    1    2  501    0  0.10466550679E+03 -0.31401509414E+02  0.14359814718E+03  0.24928969289E+03  0.17200000000E+03 0. -1.
         -6    1    1    2    0  503 -0.10466550679E+03  0.31401509414E+02 -0.21503785481E+03  0.29625361113E+03  0.17200000000E+03 0.  1.
</event>
<event>
 4    1  0.1232978E+000  0.2059071E+03  0.7818608E-02  0.1144849E+00
         21   -1    0    0  503  502  0.00000000000E+00  0.00000000000E+00  0.38708767695E+02  0.38708767695E+02  0.00000000000E+00 0.  1.
         21   -1    0    0  501  503 -0.00000000000E+00 -0.00000000000E+00 -0.11277287238E+04  0.11277287238E+04  0.00000000000E+00 0.  1.
          6    1    1    2  501    0  0.11319757247E+03 -0.17084417925E+00 -0.44561073110E+03  0.49088353330E+03  0.17200000000E+03 0. -1.
         -6    1    1    2    0  502 -0.11319757247E+03  0.17084417925E+00 -0.64340922500E+03  0.67555395819E+03  0.17200000000E+03 0. -1.
</event>
<event>
 4    1  0.1232978E+000  0.1799617E+03  0.7818608E-02  0.1167840E+00
         21   -1    0    0  503  502  0.00000000000E+00  0.00000000000E+00  0.23778424046E+03  0.23778424046E+03  0.00000000000E+00 0. -1.
         21   -1    0    0  501  503 -0.00000000000E+00 -0.00000000000E+00 -0.31274342299E+03  0.31274342299E+03  0.00000000000E+00 0. -1.
          6    1    1    2  501    0 -0.48596816065E+02  0.20989220187E+02 -0.24429405625E+03  0.30342343979E+03  0.17200000000E+03 0. -1.
         -6    1    1    2    0  502  0.48596816065E+02 -0.20989220187E+02  0.16933487371E+03  0.24710422366E+03  0.17200000000E+03 0. -1.
</event>
<event>
 4    1  0.1232978E+000  0.2593348E+03  0.7818608E-02  0.1107544E+00
         21   -1    0    0  503  502  0.00000000000E+00  0.00000000000E+00  0.32169122688E+03  0.32169122688E+03  0.00000000000E+00 0.  1.
         21   -1    0    0  501  503 -0.00000000000E+00 -0.00000000000E+00 -0.43972581988E+03  0.43972581988E+03  0.00000000000E+00 0. -1.
          6    1    1    2  501    0  0.50838668385E+02 -0.18731253731E+03 -0.33474982529E+03  0.42345247947E+03  0.17200000000E+03 0. -1.
         -6    1    1    2    0  502 -0.50838668385E+02  0.18731253731E+03  0.21671523229E+03  0.33796456729E+03  0.17200000000E+03 0.  1.
</event>
<event>
 4    1  0.1232978E+000  0.1884785E+03  0.7818608E-02  0.1159841E+00
         21   -1    0    0  503  502  0.00000000000E+00  0.00000000000E+00  0.23029055048E+03  0.23029055048E+03  0.00000000000E+00 0. -1.
         21   -1    0    0  501  503 -0.00000000000E+00 -0.00000000000E+00 -0.15429802075E+03  0.15429802075E+03  0.00000000000E+00 0. -1.
          6    1    1    2  501    0  0.33942995021E+02  0.69195457444E+02  0.41096785831E+02  0.19290693105E+03  0.17200000000E+03 0. -1.
         -6    1    1    2    0  502 -0.33942995021E+02 -0.69195457444E+02  0.34895743897E+02  0.19168164018E+03  0.17200000000E+03 0. -1.
</event>
<event>
 4    1  0.1232978E+000  0.2543440E+03  0.7818608E-02  0.1110590E+00
         21   -1    0    0  503  502  0.00000000000E+00  0.00000000000E+00  0.87887600674E+03  0.87887600674E+03  0.00000000000E+00 0. -1.
         21   -1    0    0  501  503 -0.00000000000E+00 -0.00000000000E+00 -0.12303555382E+03  0.12303555382E+03  0.00000000000E+00 0.  1.
          6    1    1    2  501    0  0.18186283067E+03  0.45086572344E+02  0.60396838880E+02  0.26141665275E+03  0.17200000000E+03 0.  1.
         -6    1    1    2    0  502 -0.18186283067E+03 -0.45086572344E+02  0.69544361405E+03  0.74049490782E+03  0.17200000000E+03 0. -1.
</event>
<event>
 4    1  0.1232978E+000  0.3938612E+03  0.7818608E-02  0.1045926E+00
         21   -1    0    0  501  502  0.00000000000E+00  0.00000000000E+00  0.19978911420E+03  0.19978911420E+03  0.00000000000E+00 0. -1.
         21   -1    0    0  502  503 -0.00000000000E+00 -0.00000000000E+00 -0.98957238099E+03  0.98957238099E+03  0.00000000000E+00 0.  1.
          6    1    1    2  501    0  0.20554842196E+03  0.28860439932E+03 -0.11891481131E+03  0.41142117766E+03  0.17200000000E+03 0. -1.
         -6    1    1    2    0  503 -0.20554842196E+03 -0.28860439932E+03 -0.67086845548E+03  0.77794031753E+03  0.17200000000E+03 0.  1.
</event>
<event>
 4    1  0.1232978E+000  0.1912412E+03  0.7818608E-02  0.1157347E+00
         21   -1    0    0  503  502  0.00000000000E+00  0.00000000000E+00  0.13666403793E+03  0.13666403793E+03  0.00000000000E+00 0.  1.
         21   -1    0    0  501  503 -0.00000000000E+00 -0.00000000000E+00 -0.27080429529E+03  0.27080429529E+03  0.00000000000E+00 0.  1.
          6    1    1    2  501    0 -0.71222704948E+02  0.43778204589E+02 -0.89183451161E+02  0.21101396366E+03  0.17200000000E+03 0. -1.
         -6    1    1    2    0  502  0.71222704948E+02 -0.43778204589E+02 -0.44956806202E+02  0.19645436956E+03  0.17200000000E+03 0. -1.
</event>
<event>
 4    1  0.1232978E+000  0.2143724E+03  0.7818608E-02  0.1138150E+00
         21   -1    0    0  501  502  0.00000000000E+00  0.00000000000E+00  0.18696561221E+03  0.18696561221E+03  0.00000000000E+00 0. -1.
         21   -1    0    0  502  503 -0.00000000000E+00 -0.00000000000E+00 -0.28705120753E+03  0.28705120753E+03  0.00000000000E+00 0. -1.
          6    1    1    2  501    0  0.12794217791E+03 -0.15274403703E+01  0.39807531695E+02  0.21803709213E+03  0.17200000000E+03 0. -1.
         -6    1    1    2    0  503 -0.12794217791E+03  0.15274403703E+01 -0.13989312701E+03  0.25597972761E+03  0.17200000000E+03 0. -1.
</event>
<event>
 4    1  0.1232978E+000  0.1758214E+03  0.7818608E-02  0.1171909E+00
         21   -1    0    0  503  502  0.00000000000E+00  0.00000000000E+00  0.59946373469E+03  0.59946373469E+03  0.00000000000E+00 0.  1.
         21   -1    0    0  501  503 -0.00000000000E+00 -0.00000000000E+00 -0.52386236889E+02  0.52386236889E+02  0.00000000000E+00 0.  1.
          6    1    1    2  501    0  0.22634925482E+02  0.28580404461E+02  0.23280693505E+03  0.29174003561E+03  0.17200000000E+03 0.  1.
         -6    1    1    2    0  502 -0.22634925482E+02 -0.28580404461E+02  0.31427056275E+03  0.36010993597E+03  0.17200000000E+03 0.  1.
</event>
<event>
 4    1  0.1232978E+000  0.1833569E+03  0.7818608E-02  0.1164593E+00
         21   -1    0    0  501  502  0.00000000000E+00  0.00000000000E+00  0.47052284710E+02  0.47052284710E+02  0.00000000000E+00 0. -1.
         21   -1    0    0  502  503 -0.00000000000E+00 -0.00000000000E+00 -0.89727087578E+03  0.89727087578E+03  0.00000000000E+00 0. -1.
          6    1    1    2  501    0  0.62606415297E+02  0.10779002148E+02 -0.21202089265E+03  0.28030806096E+03  0.17200000000E+03 0. -1.
         -6    1    1    2    0  503 -0.62606415297E+02 -0.10779002148E+02 -0.63819769842E+03  0.66401509953E+03  0.17200000000E+03 0. -1.
</event>
<event>
 4    1  0.1232978E+000  0.2668265E+03  0.7818608E-02  0.1103110E+00
         21   -1    0    0  501  502  0.00000000000E+00  0.00000000000E+00  0.29140431953E+03  0.29140431953E+03  0.00000000000E+00 0.  1.
         21   -1    0    0  502  503 -0.00000000000E+00 -0.00000000000E+00 -0.24508574421E+03  0.24508574421E+03  0.00000000000E+00 0.  1.
          6    1    1    2  501    0 -0.64638459521E+01 -0.20388870803E+03  0.38136940920E+02  0.26953814726E+03  0.17200000000E+03 0. -1.
         -6    1    1    2    0  503  0.64638459521E+01  0.20388870803E+03  0.81816343999E+01  0.26695191647E+03  0.17200000000E+03 0. -1.
</event>
<event>
 4    1  0.1232978E+000  0.3096912E+03  0.7818608E-02  0.1080494E+00
         21   -1    0    0  501  502  0.00000000000E+00  0.00000000000E+00  0.71379865157E+03  0.71379865157E+03  0.00000000000E+00 0.  1.
         21   -1    0    0  502  503 -0.00000000000E+00 -0.00000000000E+00 -0.13686938232E+03  0.13686938232E+03  0.00000000000E+00 0.  1.
          6    1    1    2  501    0  0.59159774065E+02  0.25064872339E+03  0.34601338504E+03  0.46436399950E+03  0.17200000000E+03 0.  1.
         -6    1    1    2    0  503 -0.59159774065E+02 -0.25064872339E+03  0.23091588421E+03  0.38630403439E+03  0.17200000000E+03 0.  1.
</event>
<event>
 4    1  0.1232978E+000  0.2990374E+03  0.7818608E-02  0.1085723E+00
         21   -1    0    0  501  502  0.00000000000E+00  0.00000000000E+00  0.50343905134E+03  0.50343905134E+03  0.00000000000E+00 0.  1.
         21   -1    0    0  502  503 -0.00000000000E+00 -0.00000000000E+00 -0.20209049098E+03  0.20209049098E+03  0.00000000000E+00 0.  1.
          6    1    1    2  501    0 -0.19663997892E+03 -0.14550637496E+03  0.27341503676E+03  0.40519028713E+03  0.17200000000E+03 0.  1.
         -6    1    1    2    0  503  0.19663997892E+03  0.14550637496E+03  0.27933523601E+02  0.30033925518E+03  0.17200000000E+03 0.  1.
</event>
<event>
 4    1  0.1232978E+000  0.1844693E+03  0.7818608E-02  0.1163546E+00
         21   -1    0    0  503  502  0.00000000000E+00  0.00000000000E+00  0.57698642124E+02  0.57698642124E+02  0.00000000000E+00 0.  1.
         21   -1    0    0  501  503 -0.00000000000E+00 -0.00000000000E+00 -0.71008667754E+03  0.71008667754E+03  0.00000000000E+00 0.  1.
          6    1    1    2  501    0  0.84696690950E+00  0.66664918840E+02 -0.16817221101E+03  0.24962135588E+03  0.17200000000E+03 0.  1.
         -6    1    1    2    0  502 -0.84696690950E+00 -0.66664918840E+02 -0.48421582441E+03  0.51816396378E+03  0.17200000000E+03 0.  1.
</event>
<event>
 4    1  0.1232978E+000  0.1894892E+03  0.7818608E-02  0.1158923E+00
         21   -1    0    0  501  502  0.00000000000E+00  0.00000000000E+00  0.11389473855E+03  0.11389473855E+03  0.00000000000E+00 0.  1.
         21   -1    0    0  502  503 -0.00000000000E+00 -0.00000000000E+00 -0.45666651945E+03  0.45666651945E+03  0.00000000000E+00 0.  1.
          6    1    1    2  501    0  0.74832511345E+02 -0.26875076274E+02 -0.12636816902E+02  0.18991014618E+03  0.17200000000E+03 0.  1.
         -6    1    1    2    0  503 -0.74832511345E+02  0.26875076274E+02 -0.33013496399E+03  0.38065111182E+03  0.17200000000E+03 0.  1.
</event>
<event>
 4    1  0.1232978E+000  0.1796063E+03  0.7818608E-02  0.1168185E+00
         21   -1    0    0  503  502  0.00000000000E+00  0.00000000000E+00  0.17760046972E+03  0.17760046972E+03  0.00000000000E+00 0. -1.
         21   -1    0    0  501  503 -0.00000000000E+00 -0.00000000000E+00 -0.18213796623E+03  0.18213796623E+03  0.00000000000E+00 0. -1.
          6    1    1    2  501    0 -0.97653896494E+01 -0.50784339289E+02  0.71859133589E+01  0.17974996329E+03  0.17200000000E+03 0. -1.
         -6    1    1    2    0  502  0.97653896494E+01  0.50784339289E+02 -0.11723409867E+02  0.17998847266E+03  0.17200000000E+03 0. -1.
</event>
<event>
 4    1  0.1232978E+000  0.1781986E+03  0.7818608E-02  0.1169558E+00
         21   -1    0    0  503  502  0.00000000000E+00  0.00000000000E+00  0.23404696331E+04  0.23404696331E+04  0.00000000000E+00 0. -1.
         21   -1    0    0  501  503 -0.00000000000E+00 -0.00000000000E+00 -0.13613643991E+02  0.13613643991E+02  0.00000000000E+00 0. -1.
          6    1    1    2  501    0  0.89818458130E+01  0.45717215920E+02  0.12318230794E+04  0.12446456670E+04  0.17200000000E+03 0.  1.
         -6    1    1    2    0  502 -0.89818458130E+01 -0.45717215920E+02  0.10950329097E+04  0.11094376101E+04  0.17200000000E+03 0.  1.
</event>
<event>
 4    1  0.1232978E+000  0.2354851E+03  0.7818608E-02  0.1122838E+00
         21   -1    0    0  503  502  0.00000000000E+00  0.00000000000E+00  0.10900958300E+04  0.10900958300E+04  0.00000000000E+00 0.  1.
         21   -1    0    0  501  503 -0.00000000000E+00 -0.00000000000E+00 -0.57489858833E+02  0.57489858833E+02  0.00000000000E+00 0. -1.
          6    1    1    2  501    0  0.48621640691E+02  0.15331390800E+03  0.32159553814E+03  0.39859366337E+03  0.17200000000E+03 0. -1.
         -6    1    1    2    0  502 -0.48621640691E+02 -0.15331390800E+03  0.71101043301E+03  0.74899202544E+03  0.17200000000E+03 0. -1.
</event>
<event>
 4    1  0.1232978E+000  0.2026613E+03  0.7818608E-02  0.1147513E+00
         21   -1    0    0  501  502  0.00000000000E+00  0.00000000000E+00  0.10272199970E+04  0.10272199970E+04  0.00000000000E+00 0. -1.
         21   -1    0    0  502  503 -0.00000000000E+00 -0.00000000000E+00 -0.40065864705E+02  0.40065864705E+02  0.00000000000E+00 0. -1.
          6    1    1    2  501    0  0.40217817560E+02 -0.99348533707E+02  0.46934633851E+03  0.51123144413E+03  0.17200000000E+03 0. -1.
         -6    1    1    2    0  503 -0.40217817560E+02  0.99348533707E+02  0.51780779383E+03  0.55605441761E+03  0.17200000000E+03 0. -1.
</event>
<event>
 4    1  0.1232978E+000  0.1898372E+03  0.7818608E-02  0.1158608E+00
         21   -1    0    0  503  502  0.00000000000E+00  0.00000000000E+00  0.40888465310E+03  0.40888465310E+03  0.00000000000E+00 0. -1.
         21   -1    0    0  501  503 -0.00000000000E+00 -0.00000000000E+00 -0.29459095478E+03  0.29459095478E+03  0.00000000000E+00 0.  1.
          6    1    1    2  501    0 -0.26155397625E+02  0.75960986437E+02 -0.23730897620E+03  0.30389755917E+03  0.17200000000E+03 0.  1.
         -6    1    1    2    0  502  0.26155397625E+02 -0.75960986437E+02  0.35160267452E+03  0.39957804871E+03  0.17200000000E+03 0. -1.
</event>
<event>
 4    1  0.1232978E+000  0.1969980E+03  0.7818608E-02  0.1152297E+00
         21   -1    0    0  503  502  0.00000000000E+00  0.00000000000E+00  0.58504859616E+02  0.58504859616E+02  0.00000000000E+00 0.  1.
         21   -1    0    0  501  503 -0.00000000000E+00 -0.00000000000E+00 -0.66749756934E+03  0.66749756934E+03  0.00000000000E+00 0.  1.
          6    1    1    2  501    0  0.89936293970E+02  0.33699872459E+02 -0.33316819114E+03  0.38705201454E+03  0.17200000000E+03 0. -1.
         -6    1    1    2    0  502 -0.89936293970E+02 -0.33699872459E+02 -0.27582451859E+03  0.33895041442E+03  0.17200000000E+03 0. -1.
</event>
<event>
 4    1  0.1232978E+000  0.3144887E+03  0.7818608E-02  0.1078214E+00
         21   -1    0    0  501  502  0.00000000000E+00  0.00000000000E+00  0.43055940178E+03  0.43055940178E+03  0.00000000000E+00 0.  1.
         21   -1    0    0  502  503 -0.00000000000E+00 -0.00000000000E+00 -0.73171943106E+03  0.73171943106E+03  0.00000000000E+00 0. -1.
          6    1    1    2  501    0 -0.84655446646E+02 -0.24930420541E+03  0.33077405595E+03  0.45641495109E+03  0.17200000000E+03 0.  1.
         -6    1    1    2    0  503  0.84655446646E+02  0.24930420541E+03 -0.63193408523E+03  0.70586388175E+03  0.17200000000E+03 0. -1.
</event>
<event>
 4    1  0.1232978E+000  0.2412339E+03  0.7818608E-02  0.1118974E+00
         21   -1    0    0  501  502  0.00000000000E+00  0.00000000000E+00  0.18609440268E+03  0.18609440268E+03  0.00000000000E+00 0.  1.
         21   -1    0    0  502  503 -0.00000000000E+00 -0.00000000000E+00 -0.32767126068E+03  0.32767126068E+03  0.00000000000E+00 0. -1.
          6    1    1    2  501    0 -0.15732388419E+03 -0.62120845033E+02 -0.15899774408E+02  0.24175733029E+03  0.17200000000E+03 0. -1.
         -6    1    1    2    0  503  0.15732388419E+03  0.62120845033E+02 -0.12567708359E+03  0.27200833308E+03  0.17200000000E+03 0. -1.
</event>
<event>
 4    1  0.1232978E+000  0.1739120E+03  0.7818608E-02  0.1173829E+00
         21   -1    0    0  501  502  0.00000000000E+00  0.00000000000E+00  0.26082685617E+03  0.26082685617E+03  0.00000000000E+00 0. -1.
         21   -1    0    0  502  503 -0.00000000000E+00 -0.00000000000E+00 -0.12697580729E+03  0.12697580729E+03  0.00000000000E+00 0. -1.
          6    1    1    2  501    0 -0.25469776228E+02  0.35610421967E+01  0.12403858020E+03  0.21361404425E+03  0.17200000000E+03 0. -1.
         -6    1    1    2    0  503  0.25469776228E+02 -0.35610421967E+01  0.98124686874E+01  0.17418861922E+03  0.17200000000E+03 0. -1.
</event>
<event>
 4    1  0.1232978E+000  0.1781123E+03  0.7818608E-02  0.1169643E+00
         21   -1    0    0  503  502  0.00000000000E+00  0.00000000000E+00  0.28465955060E+03  0.28465955060E+03  0.00000000000E+00 0. -1.
         21   -1    0    0  501  503 -0.00000000000E+00 -0.00000000000E+00 -0.11168664381E+03  0.11168664381E+03  0.00000000000E+00 0. -1.
          6    1    1    2  501    0 -0.29240075851E+02 -0.35847011659E+02  0.77275704731E+02  0.19415335388E+03  0.17200000000E+03 0. -1.
         -6    1    1    2    0  502  0.29240075851E+02  0.35847011659E+02  0.95697202064E+02  0.20219284053E+03  0.17200000000E+03 0. -1.
</event>
<event>
 4    1  0.1232978E+000  0.1951112E+03  0.7818608E-02  0.1153930E+00
         21   -1    0    0  503  502  0.00000000000E+00  0.00000000000E+00  0.22446011057E+03  0.22446011057E+03  0.00000000000E+00 0.  1.
         21   -1    0    0  501  503 -0.00000000000E+00 -0.00000000000E+00 -0.24688909937E+03  0.24688909937E+03  0.00000000000E+00 0.  1.
          6    1    1    2  501    0 -0.19310565689E+02  0.90063845931E+02 -0.14307704131E+03  0.24194923856E+03  0.17200000000E+03 0.  1.
         -6    1    1    2    0  502  0.19310565689E+02 -0.90063845931E+02  0.12064805251E+03  0.22939997137E+03  0.17200000000E+03 0.  1.
</event>
<event>
 4    1  0.1232978E+000  0.2046716E+03  0.7818608E-02  0.1145856E+00
         21   -1    0    0  501  502  0.00000000000E+00  0.00000000000E+00  0.40302420980E+02  0.40302420980E+02  0.00000000000E+00 0.  1.
         21   -1    0    0  502  503 -0.00000000000E+00 -0.00000000000E+00 -0.10551296329E+04  0.10551296329E+04  0.00000000000E+00 0.  1.
          6    1    1    2  501    0  0.10824868217E+03  0.24262546650E+02 -0.57428239627E+03  0.60966443150E+03  0.17200000000E+03 0. -1.
         -6    1    1    2    0  503 -0.10824868217E+03 -0.24262546650E+02 -0.44054481560E+03  0.48576762234E+03  0.17200000000E+03 0. -1.
</event>
<event>
 4    1  0.1232978E+000  0.2139702E+03  0.7818608E-02  0.1138460E+00
         21   -1    0    0  501  502  0.00000000000E+00  0.00000000000E+00  0.22407438068E+03  0.22407438068E+03  0.00000000000E+00 0. -1.
         21   -1    0    0  502  503 -0.00000000000E+00 -0.00000000000E+00 -0.27305595563E+03  0.27305595563E+03  0.00000000000E+00 0.  1.
          6    1    1    2  501    0  0.12579851757E+03  0.19339023097E+02 -0.14920069851E+03  0.26085266583E+03  0.17200000000E+03 0.  1.
         -6    1    1    2    0  503 -0.12579851757E+03 -0.19339023097E+02  0.10021912357E+03  0.23627767048E+03  0.17200000000E+03 0. -1.
</event>
<event>
 4    1  0.1232978E+000  0.1766060E+03  0.7818608E-02  0.1171129E+00
         21   -1    0    0  501  502  0.00000000000E+00  0.00000000000E+00  0.19333762409E+03  0.19333762409E+03  0.00000000000E+00 0. -1.
         21   -1    0    0  502  503 -0.00000000000E+00 -0.00000000000E+00 -0.32196030196E+03  0.32196030196E+03  0.00000000000E+00 0. -1.
          6    1    1    2  501    0 -0.96241783038E+00 -0.40059423577E+02  0.11768023817E+03  0.21222234124E+03  0.17200000000E+03 0. -1.
         -6    1    1    2    0  503  0.96241783038E+00  0.40059423577E+02 -0.24630291603E+03  0.30307558482E+03  0.17200000000E+03 0. -1.
</event>
<event>
 4    1  0.1232978E+000  0.2165180E+03  0.7818608E-02  0.1136506E+00
         21   -1    0    0  503  502  0.00000000000E+00  0.00000000000E+00  0.10696944060E+03  0.10696944060E+03  0.00000000000E+00 0.  1.
         21   -1    0    0  501  503 -0.00000000000E+00 -0.00000000000E+00 -0.56073857698E+03  0.56073857698E+03  0.00000000000E+00 0.  1.
          6    1    1    2  501    0 -0.73349962354E+02  0.10915956253E+03 -0.38291635175E+03  0.43989198619E+03  0.17200000000E+03 0.  1.
         -6    1    1    2    0  502  0.73349962354E+02 -0.10915956253E+03 -0.70852784628E+02  0.22781603139E+03  0.17200000000E+03 0.  1.
</event>
<event>
 4    1  0.1232978E+000  0.2315203E+03  0.7818608E-02  0.1125574E+00
         21   -1    0    0  503  502  0.00000000000E+00  0.00000000000E+00  0.44947318677E+03  0.44947318677E+03  0.00000000000E+00 0. -1.
         21   -1    0    0  501  503 -0.00000000000E+00 -0.00000000000E+00 -0.19941473957E+03  0.19941473957E+03  0.00000000000E+00 0.  1.
          6    1    1    2  501    0  0.31738787673E+02 -0.15169145352E+03 -0.80673901294E+02  0.24517325723E+03  0.17200000000E+03 0.  1.
         -6    1    1    2    0  502 -0.31738787673E+02  0.15169145352E+03  0.33073234849E+03  0.40371466911E+03  0.17200000000E+03 0. -1.
</event>
<event>
 4    1  0.1232978E+000  0.1730442E+03  0.7818608E-02  0.1174710E+00
         21   -1    0    0  503  502  0.00000000000E+00  0.00000000000E+00  0.19501951357E+03  0.19501951357E+03  0.00000000000E+00 0.  1.
         21   -1    0    0  501  503 -0.00000000000E+00 -0.00000000000E+00 -0.15961443710E+03  0.15961443710E+03  0.00000000000E+00 0.  1.
          6    1    1    2  501    0 -0.20602980129E+01  0.18868978133E+02 -0.16874376876E+02  0.17386496990E+03  0.17200000000E+03 0.  1.
         -6    1    1    2    0  502  0.20602980129E+01 -0.18868978133E+02  0.52279453345E+02  0.18076898076E+03  0.17200000000E+03 0.  1.
</event>
<event>
 4    1  0.1232978E+000  0.2083962E+03  0.7818608E-02  0.1142842E+00
         21   -1    0    0  501  502  0.00000000000E+00  0.00000000000E+00  0.38147003461E+03  0.38147003461E+03  0.00000000000E+00 0. -1.
         21   -1    0    0  502  503 -0.00000000000E+00 -0.00000000000E+00 -0.11903995496E+03  0.11903995496E+03  0.00000000000E+00 0. -1.
          6    1    1    2  501    0 -0.11702072236E+03  0.12293400183E+02  0.18348716629E+03  0.27766259622E+03  0.17200000000E+03 0. -1.
         -6    1    1    2    0  503  0.11702072236E+03 -0.12293400183E+02  0.78942913360E+02  0.22284739334E+03  0.17200000000E+03 0. -1.
</event>
<event>
 4    1  0.1232978E+000  0.2580771E+03  0.7818608E-02  0.1108304E+00
         21   -1    0    0  503  502  0.00000000000E+00  0.00000000000E+00  0.70646416236E+03  0.70646416236E+03  0.00000000000E+00 0.  1.
         21   -1    0    0  501  503 -0.00000000000E+00 -0.00000000000E+00 -0.25856100316E+03  0.25856100316E+03  0.00000000000E+00 0.  1.
          6    1    1    2  501    0 -0.16131613444E+03  0.10486603707E+03 -0.16066137717E+03  0.30399976822E+03  0.17200000000E+03 0.  1.
         -6    1    1    2    0  502  0.16131613444E+03 -0.10486603707E+03  0.60856453637E+03  0.66102539731E+03  0.17200000000E+03 0.  1.
</event>
<event>
 4    1  0.1232978E+000  0.1762550E+03  0.7818608E-02  0.1171477E+00
         21   -1    0    0  501  502  0.00000000000E+00  0.00000000000E+00  0.11251402907E+03  0.11251402907E+03  0.00000000000E+00 0.  1.
         21   -1    0    0  502  503 -0.00000000000E+00 -0.00000000000E+00 -0.30846215912E+03  0.30846215912E+03  0.00000000000E+00 0.  1.
          6    1    1    2  501    0 -0.38487760119E+02  0.72067159670E+00 -0.16614564631E+03  0.24221932795E+03  0.17200000000E+03 0.  1.
         -6    1    1    2    0  503  0.38487760119E+02 -0.72067159670E+00 -0.29802483735E+02  0.17875686024E+03  0.17200000000E+03 0.  1.
</event>
<event>
 4    1  0.1232978E+000  0.2089425E+03  0.7818608E-02  0.1142406E+00
         21   -1    0    0  501  502  0.00000000000E+00  0.00000000000E+00  0.10466423857E+04  0.10466423857E+04  0.00000000000E+00 0.  1.
         21   -1    0    0  502  503 -0.00000000000E+00 -0.00000000000E+00 -0.42969228464E+02  0.42969228464E+02  0.00000000000E+00 0.  1.
          6    1    1    2  501    0  0.65031262923E+02  0.99216473299E+02  0.40862611549E+03  0.45894692067E+03  0.17200000000E+03 0.  1.
         -6    1    1    2    0  503 -0.65031262923E+02 -0.99216473299E+02  0.59504704177E+03  0.63066469352E+03  0.17200000000E+03 0.  1.
</event>
<event>
 4    1  0.1232978E+000  0.1830080E+03  0.7818608E-02  0.1164923E+00
         21   -1    0    0  503  502  0.00000000000E+00  0.00000000000E+00  0.16828838330E+03  0.16828838330E+03  0.00000000000E+00 0. -1.
         21   -1    0    0  501  503 -0.00000000000E+00 -0.00000000000E+00 -0.48577831162E+03  0.48577831162E+03  0.00000000000E+00 0. -1.
          6    1    1    2  501    0  0.44879485046E+02  0.43517268804E+02 -0.41001154820E+03  0.44900043488E+03  0.17200000000E+03 0. -1.
         -6    1    1    2    0  502 -0.44879485046E+02 -0.43517268804E+02  0.92521619885E+02  0.20506626004E+03  0.17200000000E+03 0. -1.
</event>
<event>
 4    1  0.1232978E+000  0.1722845E+03  0.7818608E-02  0.1175486E+00
         21   -1    0    0  501  502  0.00000000000E+00  0.00000000000E+00  0.38312362264E+03  0.38312362264E+03  0.00000000000E+00 0.  1.
         21   -1    0    0  502  503 -0.00000000000E+00 -0.00000000000E+00 -0.79112555116E+02  0.79112555116E+02  0.00000000000E+00 0.  1.
          6    1    1    2  501    0  0.60983700391E+01 -0.77955429131E+01  0.18527123846E+03  0.25299682292E+03  0.17200000000E+03 0. -1.
         -6    1    1    2    0  503 -0.60983700391E+01  0.77955429131E+01  0.11873982906E+03  0.20923935484E+03  0.17200000000E+03 0. -1.
</event>
<event>
 4    1  0.1232978E+000  0.2505661E+03  0.7818608E-02  0.1112948E+00
         21   -1    0    0  503  502  0.00000000000E+00  0.00000000000E+00  0.99223748287E+02  0.99223748287E+02  0.00000000000E+00 0.  1.
         21   -1    0    0  501  503 -0.00000000000E+00 -0.00000000000E+00 -0.63275011590E+03  0.63275011590E+03  0.00000000000E+00 0. -1.
          6    1    1    2  501    0 -0.34552761273E+02 -0.17890069224E+03 -0.26574363205E+03  0.36524379389E+03  0.17200000000E+03 0. -1.
         -6    1    1    2    0  502  0.34552761273E+02  0.17890069224E+03 -0.26778273556E+03  0.36673007030E+03  0.17200000000E+03 0. -1.
</event>
<event>
 4    1  0.1232978E+000  0.1722280E+03  0.7818608E-02  0.1175544E+00
         21   -1    0    0  501  502  0.00000000000E+00  0.00000000000E+00  0.62461594018E+03  0.62461594018E+03  0.00000000000E+00 0.  1.
         21   -1    0    0  502  503 -0.00000000000E+00 -0.00000000000E+00 -0.49318733070E+02  0.49318733070E+02  0.00000000000E+00 0.  1.
          6    1    1    2  501    0 -0.87290125378E+01 -0.15145040558E+01  0.22274689237E+03  0.28156467720E+03  0.17200000000E+03 0.  1.
         -6    1    1    2    0  503  0.87290125378E+01  0.15145040558E+01  0.35255031473E+03  0.39236999605E+03  0.17200000000E+03 0.  1.
</event>
<event>
 4    1  0.1232978E+000  0.1781506E+03  0.7818608E-02  0.1169605E+00
         21   -1    0    0  501  502  0.00000000000E+00  0.00000000000E+00  0.62256051020E+03  0.62256051020E+03  0.00000000000E+00 0. -1.
         21   -1    0    0  502  503 -0.00000000000E+00 -0.00000000000E+00 -0.72179511665E+02  0.72179511665E+02  0.00000000000E+00 0. -1.
          6    1    1    2  501    0 -0.36676183182E+00 -0.46405798571E+02  0.46344984407E+03  0.49651121904E+03  0.17200000000E+03 0. -1.
         -6    1    1    2    0  503  0.36676183182E+00  0.46405798571E+02  0.86931154461E+02  0.19822880283E+03  0.17200000000E+03 0. -1.
</event>
<event>
 4    1  0.1232978E+000  0.1987635E+03  0.7818608E-02  0.1150786E+00
         21   -1    0    0  501  502  0.00000000000E+00  0.00000000000E+00  0.59359761329E+03  0.59359761329E+03  0.00000000000E+00 0. -1.
         21   -1    0    0  502  503 -0.00000000000E+00 -0.00000000000E+00 -0.18238638128E+03  0.18238638128E+03  0.00000000000E+00 0. -1.
          6    1    1    2  501    0  0.86014173057E+02 -0.50244185588E+02  0.51480569558E+03  0.55184401814E+03  0.17200000000E+03 0. -1.
         -6    1    1    2    0  503 -0.86014173057E+02  0.50244185588E+02 -0.10359446358E+03  0.22413997643E+03  0.17200000000E+03 0. -1.
</event>
<event>
 4    1  0.1232978E+000  0.1787766E+03  0.7818608E-02  0.1168992E+00
         21   -1    0    0  501  502  0.00000000000E+00  0.00000000000E+00  0.16864996688E+03  0.16864996688E+03  0.00000000000E+00 0. -1.
         21   -1    0    0  502  503 -0.00000000000E+00 -0.00000000000E+00 -0.27419719137E+03  0.27419719137E+03  0.00000000000E+00 0. -1.
          6    1    1    2  501    0 -0.41155059393E+02  0.26140461078E+02 -0.17582827576E+03  0.25075215887E+03  0.17200000000E+03 0. -1.
         -6    1    1    2    0  503  0.41155059393E+02 -0.26140461078E+02  0.70281051272E+02  0.19209499938E+03  0.17200000000E+03 0. -1.
</event>
<event>
 4    1  0.1232978E+000  0.1911781E+03  0.7818608E-02  0.1157403E+00
         21   -1    0    0  501  502  0.00000000000E+00  0.00000000000E+00  0.62298819098E+02  0.62298819098E+02  0.00000000000E+00 0. -1.
         21   -1    0    0  502  503 -0.00000000000E+00 -0.00000000000E+00 -0.72337908624E+03  0.72337908624E+03  0.00000000000E+00 0.  1.
          6    1    1    2  501    0  0.48632260216E+02 -0.67823098778E+02 -0.15976500576E+03  0.24914639578E+03  0.17200000000E+03 0. -1.
         -6    1    1    2    0  503 -0.48632260216E+02  0.67823098778E+02 -0.50131526138E+03  0.53653150956E+03  0.17200000000E+03 0.  1.
</event>
<event>
 4    1  0.1232978E+000  0.2013602E+03  0.7818608E-02  0.1148596E+00
         21   -1    0    0  501  502  0.00000000000E+00  0.00000000000E+00  0.55318566904E+03  0.55318566904E+03  0.00000000000E+00 0. -1.
         21   -1    0    0  502  503 -0.00000000000E+00 -0.00000000000E+00 -0.88640205002E+02  0.88640205002E+02  0.00000000000E+00 0.  1.
          6    1    1    2  501    0 -0.24395193991E+02 -0.10181750261E+03  0.36579492172E+03  0.41755461209E+03  0.17200000000E+03 0. -1.
         -6    1    1    2    0  503  0.24395193991E+02  0.10181750261E+03  0.98750542320E+02  0.22427126195E+03  0.17200000000E+03 0.  1.
</event>
<event>
 4    1  0.1232978E+000  0.2494782E+03  0.7818608E-02  0.1113635E+00
         21   -1    0    0  501  502  0.00000000000E+00  0.00000000000E+00  0.27227672660E+03  0.27227672660E+03  0.00000000000E+00 0.  1.
         21   -1    0    0  502  503 -0.00000000000E+00 -0.00000000000E+00 -0.27115287742E+03  0.27115287742E+03  0.00000000000E+00 0. -1.
          6    1    1    2  501    0 -0.16242879955E+03  0.79197673328E+02  0.10821544777E+03  0.27193743678E+03  0.17200000000E+03 0. -1.
         -6    1    1    2    0  503  0.16242879955E+03 -0.79197673328E+02 -0.10709159859E+03  0.27149216724E+03  0.17200000000E+03 0. -1.
</event>
<event>
 4    1  0.1232978E+000  0.1917324E+03  0.7818608E-02  0.1156908E+00
         21   -1    0    0  503  502  0.00000000000E+00  0.00000000000E+00  0.32372425859E+03  0.32372425859E+03  0.00000000000E+00 0. -1.
         21   -1    0    0  501  503 -0.00000000000E+00 -0.00000000000E+00 -0.11498075343E+03  0.11498075343E+03  0.00000000000E+00 0. -1.
          6    1    1    2  501    0 -0.27582463712E+02  0.80103213572E+02  0.79967173719E+02  0.20774038125E+03  0.17200000000E+03 0. -1.
         -6    1    1    2    0  502  0.27582463712E+02 -0.80103213572E+02  0.12877633143E+03  0.23096463077E+03  0.17200000000E+03 0. -1.
</event>
<event>
 4    1  0.1232978E+000  0.1804943E+03  0.7818608E-02  0.1167325E+00
         21   -1    0    0  501  502  0.00000000000E+00  0.00000000000E+00  0.82999648753E+03  0.82999648753E+03  0.00000000000E+00 0. -1.
         21   -1    0    0  502  503 -0.00000000000E+00 -0.00000000000E+00 -0.40672425607E+02  0.40672425607E+02  0.00000000000E+00 0. -1.
          6    1    1    2  501    0 -0.53782956549E+02  0.10079338454E+02  0.47604503587E+03  0.50911401047E+03  0.17200000000E+03 0. -1.
         -6    1    1    2    0  503  0.53782956549E+02 -0.10079338454E+02  0.31327902606E+03  0.36155490267E+03  0.17200000000E+03 0. -1.
</event>
<event>
 4    1  0.1232978E+000  0.2915017E+03  0.7818608E-02  0.1089568E+00
         21   -1    0    0  501  502  0.00000000000E+00  0.00000000000E+00  0.42575275419E+03  0.42575275419E+03  0.00000000000E+00 0.  1.
         21   -1    0    0  502  503 -0.00000000000E+00 -0.00000000000E+00 -0.37194714584E+03  0.37194714584E+03  0.00000000000E+00 0. -1.
          6    1    1    2  501    0  0.21405743420E+03 -0.97819597907E+02  0.29841645027E+03  0.41716380075E+03  0.17200000000E+03 0.  1.
         -6    1    1    2    0  503 -0.21405743420E+03  0.97819597907E+02 -0.24461084192E+03  0.38053609928E+03  0.17200000000E+03 0. -1.
</event>
<event>
 4    1  0.1232978E+000  0.2381063E+03  0.7818608E-02  0.1121061E+00
         21   -1    0    0  503  502  0.00000000000E+00  0.00000000000E+00  0.87826093953E+02  0.87826093953E+02  0.00000000000E+00 0.  1.
         21   -1    0    0  501  503 -0.00000000000E+00 -0.00000000000E+00 -0.69653470432E+03  0.69653470432E+03  0.00000000000E+00 0.  1.
          6    1    1    2  501    0  0.15844480868E+03 -0.44786872065E+02 -0.19823171352E+03  0.30982322953E+03  0.17200000000E+03 0.  1.
         -6    1    1    2    0  502 -0.15844480868E+03  0.44786872065E+02 -0.41047689684E+03  0.47453756874E+03  0.17200000000E+03 0.  1.
</event>
<event>
 4    1  0.1232978E+000  0.2712142E+03  0.7818608E-02  0.1100587E+00
         21   -1    0    0  503  502  0.00000000000E+00  0.00000000000E+00  0.97908777922E+03  0.97908777922E+03  0.00000000000E+00 0.  1.
         21   -1    0    0  501  503 -0.00000000000E+00 -0.00000000000E+00 -0.95810796241E+02  0.95810796241E+02  0.00000000000E+00 0. -1.
          6    1    1    2  501    0  0.60455672377E+02 -0.20079404263E+03  0.19193050317E+03  0.33225660855E+03  0.17200000000E+03 0. -1.
         -6    1    1    2    0  502 -0.60455672377E+02  0.20079404263E+03  0.69134647981E+03  0.74264196691E+03  0.17200000000E+03 0. -1.
</event>
<event>
 4    1  0.1232978E+000  0.2343356E+03  0.7818608E-02  0.1123625E+00
         21   -1    0    0  501  502  0.00000000000E+00  0.00000000000E+00  0.48110242623E+03  0.48110242623E+03  0.00000000000E+00 0.  1.
         21   -1    0    0  502  503 -0.00000000000E+00 -0.00000000000E+00 -0.52155267343E+03  0.52155267343E+03  0.00000000000E+00 0.  1.
          6    1    1    2  501    0  0.14405874958E+03  0.67648154670E+02  0.42286244718E+03  0.48345200940E+03  0.17200000000E+03 0.  1.
         -6    1    1    2    0  503 -0.14405874958E+03 -0.67648154670E+02 -0.46331269438E+03  0.51920309026E+03  0.17200000000E+03 0.  1.
</event>
<event>
 4    1  0.1232978E+000  0.1729850E+03  0.7818608E-02  0.1174770E+00
         21   -1    0    0  503  502  0.00000000000E+00  0.00000000000E+00  0.15105546557E+03  0.15105546557E+03  0.00000000000E+00 0. -1.
         21   -1    0    0  501  503 -0.00000000000E+00 -0.00000000000E+00 -0.34381473989E+03  0.34381473989E+03  0.00000000000E+00 0. -1.
          6    1    1    2  501    0 -0.26253796275E+01  0.18246312371E+02 -0.25746402251E+03  0.31017985657E+03  0.17200000000E+03 0. -1.
         -6    1    1    2    0  502  0.26253796275E+01 -0.18246312371E+02  0.64704748190E+02  0.18469034889E+03  0.17200000000E+03 0. -1.
</event>
<event>
 4    1  0.1232978E+000  0.1883186E+03  0.7818608E-02  0.1159987E+00
         21   -1    0    0  503  502  0.00000000000E+00  0.00000000000E+00  0.90624020432E+02  0.90624020432E+02  0.00000000000E+00 0. -1.
         21   -1    0    0  501  503 -0.00000000000E+00 -0.00000000000E+00 -0.40360511891E+03  0.40360511891E+03  0.00000000000E+00 0. -1.
          6    1    1    2  501    0 -0.73567390660E+01 -0.76326685150E+02 -0.19958640376E+03  0.27440593478E+03  0.17200000000E+03 0. -1.
         -6    1    1    2    0  502  0.73567390660E+01  0.76326685150E+02 -0.11339469472E+03  0.21982320457E+03  0.17200000000E+03 0. -1.
</event>
<event>
 4    1  0.1232978E+000  0.1793889E+03  0.7818608E-02  0.1168396E+00
         21   -1    0    0  503  502  0.00000000000E+00  0.00000000000E+00  0.38641676997E+02  0.38641676997E+02  0.00000000000E+00 0. -1.
         21   -1    0    0  501  503 -0.00000000000E+00 -0.00000000000E+00 -0.13713143384E+04  0.13713143384E+04  0.00000000000E+00 0. -1.
          6    1    1    2  501    0  0.15878448934E+02  0.48417446498E+02 -0.11081203681E+04  0.11225467137E+04  0.17200000000E+03 0. -1.
         -6    1    1    2    0  502 -0.15878448934E+02 -0.48417446498E+02 -0.22455229329E+03  0.28740930167E+03  0.17200000000E+03 0. -1.
</event>
<event>
 4    1  0.1232978E+000  0.2102840E+03  0.7818608E-02  0.1141341E+00
         21   -1    0    0  501  502  0.00000000000E+00  0.00000000000E+00  0.16160984388E+03  0.16160984388E+03  0.00000000000E+00 0.  1.
         21   -1    0    0  502  503 -0.00000000000E+00 -0.00000000000E+00 -0.92604217455E+03  0.92604217455E+03  0.00000000000E+00 0. -1.
          6    1    1    2  501    0 -0.48838243428E+02 -0.11068064968E+03  0.74251035233E+02  0.22300806368E+03  0.17200000000E+03 0.  1.
         -6    1    1    2    0  503  0.48838243428E+02  0.11068064968E+03 -0.83868336591E+03  0.86464395475E+03  0.17200000000E+03 0. -1.
</event>
<event>
 4    1  0.1232978E+000  0.1766554E+03  0.7818608E-02  0.1171080E+00
         21   -1    0    0  503  502  0.00000000000E+00  0.00000000000E+00  0.21142164081E+04  0.21142164081E+04  0.00000000000E+00 0. -1.
         21   -1    0    0  501  503 -0.00000000000E+00 -0.00000000000E+00 -0.14886288506E+02  0.14886288506E+02  0.00000000000E+00 0. -1.
          6    1    1    2  501    0  0.35799784136E+02 -0.18480256317E+02  0.11474759244E+04  0.11609944623E+04  0.17200000000E+03 0. -1.
         -6    1    1    2    0  502 -0.35799784136E+02  0.18480256317E+02  0.95185419514E+03  0.96810823425E+03  0.17200000000E+03 0. -1.
</event>
<event>
 4    1  0.1232978E+000  0.2621575E+03  0.7818608E-02  0.1105854E+00
         21   -1    0    0  503  502  0.00000000000E+00  0.00000000000E+00  0.14722224892E+03  0.14722224892E+03  0.00000000000E+00 0. -1.
         21   -1    0    0  501  503 -0.00000000000E+00 -0.00000000000E+00 -0.66145850273E+03  0.66145850273E+03  0.00000000000E+00 0.  1.
          6    1    1    2  501    0 -0.16556901468E+03  0.10830249837E+03 -0.47645334509E+03  0.54381460060E+03  0.17200000000E+03 0.  1.
         -6    1    1    2    0  502  0.16556901468E+03 -0.10830249837E+03 -0.37782908720E+02  0.26486615104E+03  0.17200000000E+03 0. -1.
</event>
<event>
 4    1  0.1232978E+000  0.1923702E+03  0.7818608E-02  0.1156341E+00
         21   -1    0    0  503  502  0.00000000000E+00  0.00000000000E+00  0.38649670552E+02  0.38649670552E+02  0.00000000000E+00 0. -1.
         21   -1    0    0  501  503 -0.00000000000E+00 -0.00000000000E+00 -0.95754161043E+03  0.95754161043E+03  0.00000000000E+00 0. -1.
          6    1    1    2  501    0  0.37973786612E+02 -0.77332221844E+02 -0.46344603496E+03  0.50178532095E+03  0.17200000000E+03 0. -1.
         -6    1    1    2    0  502 -0.37973786612E+02  0.77332221844E+02 -0.45544590492E+03  0.49440596003E+03  0.17200000000E+03 0. -1.
</event>
<event>
 4    1  0.1232978E+000  0.1799407E+03  0.7818608E-02  0.1167860E+00
         21   -1    0    0  503  502  0.00000000000E+00  0.00000000000E+00  0.15692462210E+03  0.15692462210E+03  0.00000000000E+00 0.  1.
         21   -1    0    0  501  503 -0.00000000000E+00 -0.00000000000E+00 -0.57964395268E+03  0.57964395268E+03  0.00000000000E+00 0.  1.
          6    1    1    2  501    0  0.40202375663E+02  0.34328288634E+02 -0.50691455244E+03  0.53790429064E+03  0.17200000000E+03 0. -1.
         -6    1    1    2    0  502 -0.40202375663E+02 -0.34328288634E+02  0.84195221855E+02  0.19866428414E+03  0.17200000000E+03 0. -1.
</event>
<event>
 4    1  0.1232978E+000  0.1920455E+03  0.7818608E-02  0.1156629E+00
         21   -1    0    0  501  502  0.00000000000E+00  0.00000000000E+00  0.29248198700E+03  0.29248198700E+03  0.00000000000E+00 0.  1.
         21   -1    0    0  502  503 -0.00000000000E+00 -0.00000000000E+00 -0.16771507137E+03  0.16771507137E+03  0.00000000000E+00 0.  1.
          6    1    1    2  501    0  0.77120292700E+02  0.36741309365E+02  0.17700396082E+03  0.26117401384E+03  0.17200000000E+03 0.  1.
         -6    1    1    2    0  503 -0.77120292700E+02 -0.36741309365E+02 -0.52237045192E+02  0.19902304452E+03  0.17200000000E+03 0.  1.
</event>
<event>
 4    1  0.1232978E+000  0.1948351E+03  0.7818608E-02  0.1154171E+00
         21   -1    0    0  501  502  0.00000000000E+00  0.00000000000E+00  0.10501613907E+04  0.10501613907E+04  0.00000000000E+00 0.  1.
         21   -1    0    0  502  503 -0.00000000000E+00 -0.00000000000E+00 -0.48504898094E+02  0.48504898094E+02  0.00000000000E+00 0.  1.
          6    1    1    2  501    0  0.91191014335E+02  0.78060245551E+01  0.77810029078E+03  0.80212268240E+03  0.17200000000E+03 0.  1.
         -6    1    1    2    0  503 -0.91191014335E+02 -0.78060245551E+01  0.22355620182E+03  0.29654360638E+03  0.17200000000E+03 0.  1.
</event>
<event>
 4    1  0.1232978E+000  0.1726400E+03  0.7818608E-02  0.1175122E+00
         21   -1    0    0  503  502  0.00000000000E+00  0.00000000000E+00  0.50588232226E+03  0.50588232226E+03  0.00000000000E+00 0. -1.
         21   -1    0    0  501  503 -0.00000000000E+00 -0.00000000000E+00 -0.60499252691E+02  0.60499252691E+02  0.00000000000E+00 0. -1.
          6    1    1    2  501    0  0.33035198501E+01  0.14479134019E+02  0.26850365675E+03  0.31921587093E+03  0.17200000000E+03 0.  1.
         -6    1    1    2    0  502 -0.33035198501E+01 -0.14479134019E+02  0.17687941282E+03  0.24716570402E+03  0.17200000000E+03 0.  1.
</event>
<event>
 4    1  0.1232978E+000  0.2144266E+03  0.7818608E-02  0.1138108E+00
         21   -1    0    0  501  502  0.00000000000E+00  0.00000000000E+00  0.25709460603E+03  0.25709460603E+03  0.00000000000E+00 0.  1.
         21   -1    0    0  502  503 -0.00000000000E+00 -0.00000000000E+00 -0.18443549326E+03  0.18443549326E+03  0.00000000000E+00 0.  1.
          6    1    1    2  501    0 -0.41321153709E+02 -0.12119128004E+03  0.74782764326E+02  0.22709298964E+03  0.17200000000E+03 0.  1.
         -6    1    1    2    0  503  0.41321153709E+02  0.12119128004E+03 -0.21236515593E+01  0.21443710966E+03  0.17200000000E+03 0.  1.
</event>
<event>
 4    1  0.1232978E+000  0.1759334E+03  0.7818608E-02  0.1171798E+00
         21   -1    0    0  501  502  0.00000000000E+00  0.00000000000E+00  0.33613396448E+03  0.33613396448E+03  0.00000000000E+00 0. -1.
         21   -1    0    0  502  503 -0.00000000000E+00 -0.00000000000E+00 -0.18968849072E+03  0.18968849072E+03  0.00000000000E+00 0. -1.
          6    1    1    2  501    0 -0.15320845469E+02 -0.33672535132E+02  0.26181483398E+03  0.31543553259E+03  0.17200000000E+03 0. -1.
         -6    1    1    2    0  503  0.15320845469E+02  0.33672535132E+02 -0.11536936021E+03  0.21038692261E+03  0.17200000000E+03 0. -1.
</event>
<event>
 4    1  0.1232978E+000  0.2209491E+03  0.7818608E-02  0.1133177E+00
         21   -1    0    0  503  502  0.00000000000E+00  0.00000000000E+00  0.12604159340E+03  0.12604159340E+03  0.00000000000E+00 0. -1.
         21   -1    0    0  501  503 -0.00000000000E+00 -0.00000000000E+00 -0.51994365453E+03  0.51994365453E+03  0.00000000000E+00 0.  1.
          6    1    1    2  501    0 -0.10374492059E+03  0.92040682273E+02 -0.36007737514E+03  0.42246208330E+03  0.17200000000E+03 0.  1.
         -6    1    1    2    0  502  0.10374492059E+03 -0.92040682273E+02 -0.33824685995E+02  0.22352316462E+03  0.17200000000E+03 0. -1.
</event>
<event>
 4    1  0.1232978E+000  0.2062587E+03  0.7818608E-02  0.1144563E+00
         21   -1    0    0  501  502  0.00000000000E+00  0.00000000000E+00  0.38985609117E+03  0.38985609117E+03  0.00000000000E+00 0. -1.
         21   -1    0    0  502  503 -0.00000000000E+00 -0.00000000000E+00 -0.14208382825E+03  0.14208382825E+03  0.00000000000E+00 0.  1.
          6    1    1    2  501    0  0.21945781461E+02 -0.11170062824E+03  0.25198723609E+03  0.32563816549E+03  0.17200000000E+03 0. -1.
         -6    1    1    2    0  503 -0.21945781461E+02  0.11170062824E+03 -0.42149731677E+01  0.20630175392E+03  0.17200000000E+03 0.  1.
</event>
<event>
 4    1  0.1232978E+000  0.2647838E+03  0.7818608E-02  0.1104303E+00
         21   -1    0    0  503  502  0.00000000000E+00  0.00000000000E+00  0.15612466352E+03  0.15612466352E+03  0.00000000000E+00 0. -1.
         21   -1    0    0  501  503 -0.00000000000E+00 -0.00000000000E+00 -0.45372416536E+03  0.45372416536E+03  0.00000000000E+00 0. -1.
          6    1    1    2  501    0 -0.20044098936E+03  0.18704149173E+02 -0.17969251241E+03  0.31999974130E+03  0.17200000000E+03 0. -1.
         -6    1    1    2    0  502  0.20044098936E+03 -0.18704149173E+02 -0.11790698943E+03  0.28984908758E+03  0.17200000000E+03 0. -1.
</event>
<event>
 4    1  0.1232978E+000  0.1903755E+03  0.7818608E-02  0.1158123E+00
         21   -1    0    0  501  502  0.00000000000E+00  0.00000000000E+00  0.40823498689E+03  0.40823498689E+03  0.00000000000E+00 0. -1.
         21   -1    0    0  502  503 -0.00000000000E+00 -0.00000000000E+00 -0.18865890795E+03  0.18865890795E+03  0.00000000000E+00 0. -1.
          6    1    1    2  501    0  0.11114669568E+02 -0.80841089436E+02  0.32694156815E+03  0.37833002340E+03  0.17200000000E+03 0. -1.
         -6    1    1    2    0  503 -0.11114669568E+02  0.80841089436E+02 -0.10736548921E+03  0.21856387143E+03  0.17200000000E+03 0. -1.
</event>
<event>
 4    1  0.1232978E+000  0.1757920E+03  0.7818608E-02  0.1171939E+00
         21   -1    0    0  501  502  0.00000000000E+00  0.00000000000E+00  0.14098596325E+04  0.14098596325E+04  0.00000000000E+00 0.  1.
         21   -1    0    0  502  503 -0.00000000000E+00 -0.00000000000E+00 -0.22021279255E+02  0.22021279255E+02  0.00000000000E+00 0.  1.
          6    1    1    2  501    0  0.15548727242E+02  0.32818397817E+02  0.74269487401E+03  0.76321588429E+03  0.17200000000E+03 0.  1.
         -6    1    1    2    0  503 -0.15548727242E+02 -0.32818397817E+02  0.64514347926E+03  0.66866502749E+03  0.17200000000E+03 0.  1.
</event>
<event>
 4    1  0.1232978E+000  0.1744224E+03  0.7818608E-02  0.1173313E+00
         21   -1    0    0  503  502  0.00000000000E+00  0.00000000000E+00  0.19415230467E+04  0.19415230467E+04  0.00000000000E+00 0. -1.
         21   -1    0    0  501  503 -0.00000000000E+00 -0.00000000000E+00 -0.23623936688E+02  0.23623936688E+02  0.00000000000E+00 0. -1.
          6    1    1    2  501    0  0.27436809571E+02 -0.92945263211E+01  0.38880235556E+03  0.42613429623E+03  0.17200000000E+03 0. -1.
         -6    1    1    2    0  502 -0.27436809571E+02  0.92945263211E+01  0.15290967545E+04  0.15390126872E+04  0.17200000000E+03 0. -1.
</event>
<event>
 4    1  0.1232978E+000  0.1832593E+03  0.7818608E-02  0.1164685E+00
         21   -1    0    0  503  502  0.00000000000E+00  0.00000000000E+00  0.10484118437E+03  0.10484118437E+03  0.00000000000E+00 0.  1.
         21   -1    0    0  501  503 -0.00000000000E+00 -0.00000000000E+00 -0.32283307704E+03  0.32283307704E+03  0.00000000000E+00 0.  1.
          6    1    1    2  501    0 -0.63089986643E+02  0.44292262848E+01 -0.12781837687E+03  0.22343120177E+03  0.17200000000E+03 0.  1.
         -6    1    1    2    0  502  0.63089986643E+02 -0.44292262848E+01 -0.90173515793E+02  0.20424305964E+03  0.17200000000E+03 0.  1.
</event>
<event>
 4    1  0.1232978E+000  0.1781846E+03  0.7818608E-02  0.1169572E+00
         21   -1    0    0  503  502  0.00000000000E+00  0.00000000000E+00  0.34003776076E+02  0.34003776076E+02  0.00000000000E+00 0. -1.
         21   -1    0    0  501  503 -0.00000000000E+00 -0.00000000000E+00 -0.95767413041E+03  0.95767413041E+03  0.00000000000E+00 0. -1.
          6    1    1    2  501    0  0.19575705974E+02  0.42220065078E+02 -0.38340336651E+03  0.42278586023E+03  0.17200000000E+03 0.  1.
         -6    1    1    2    0  502 -0.19575705974E+02 -0.42220065078E+02 -0.54026698783E+03  0.56889204626E+03  0.17200000000E+03 0.  1.
</event>
<event>
 4    1  0.1232978E+000  0.1762499E+03  0.7818608E-02  0.1171483E+00
         21   -1    0    0  503  502  0.00000000000E+00  0.00000000000E+00  0.42046337740E+03  0.42046337740E+03  0.00000000000E+00 0. -1.
         21   -1    0    0  501  503 -0.00000000000E+00 -0.00000000000E+00 -0.21042378094E+03  0.21042378094E+03  0.00000000000E+00 0. -1.
          6    1    1    2  501    0  0.27355180069E+02  0.27050657780E+02 -0.14908300209E+03  0.23084580454E+03  0.17200000000E+03 0. -1.
         -6    1    1    2    0  502 -0.27355180069E+02 -0.27050657780E+02  0.35912259855E+03  0.40004135380E+03  0.17200000000E+03 0. -1.
</event>
<event>
 4    1  0.1232978E+000  0.1751903E+03  0.7818608E-02  0.1172541E+00
         21   -1    0    0  501  502  0.00000000000E+00  0.00000000000E+00  0.30202559482E+02  0.30202559482E+02  0.00000000000E+00 0. -1.
         21   -1    0    0  502  503 -0.00000000000E+00 -0.00000000000E+00 -0.11065867978E+04  0.11065867978E+04  0.00000000000E+00 0. -1.
          6    1    1    2  501    0  0.15055307694E+02  0.29681208259E+02 -0.37573975723E+03  0.41457448255E+03  0.17200000000E+03 0.  1.
         -6    1    1    2    0  503 -0.15055307694E+02 -0.29681208259E+02 -0.70064448108E+03  0.72221487473E+03  0.17200000000E+03 0.  1.
</event>
<event>
 4    1  0.1232978E+000  0.1789547E+03  0.7818608E-02  0.1168819E+00
         21   -1    0    0  501  502  0.00000000000E+00  0.00000000000E+00  0.94224387931E+03  0.94224387931E+03  0.00000000000E+00 0.  1.
         21   -1    0    0  502  503 -0.00000000000E+00 -0.00000000000E+00 -0.36026239752E+02  0.36026239752E+02  0.00000000000E+00 0.  1.
          6    1    1    2  501    0 -0.16687891365E+02  0.46500557264E+02  0.56945959470E+03  0.59691625672E+03  0.17200000000E+03 0.  1.
         -6    1    1    2    0  503  0.16687891365E+02 -0.46500557264E+02  0.33675804485E+03  0.38135386234E+03  0.17200000000E+03 0.  1.
</event>
<event>
 4    1  0.1232978E+000  0.2119135E+03  0.7818608E-02  0.1140060E+00
         21   -1    0    0  503  502  0.00000000000E+00  0.00000000000E+00  0.10938448030E+03  0.10938448030E+03  0.00000000000E+00 0. -1.
         21   -1    0    0  501  503 -0.00000000000E+00 -0.00000000000E+00 -0.54376204182E+03  0.54376204182E+03  0.00000000000E+00 0.  1.
          6    1    1    2  501    0  0.39768053413E+01  0.12372354709E+03 -0.37883103017E+03  0.43407404957E+03  0.17200000000E+03 0.  1.
         -6    1    1    2    0  502 -0.39768053413E+01 -0.12372354709E+03 -0.55546531343E+02  0.21907247255E+03  0.17200000000E+03 0. -1.
</event>
<event>
 4    1  0.1232978E+000  0.2048924E+03  0.7818608E-02  0.1145676E+00
         21   -1    0    0  501  502  0.00000000000E+00  0.00000000000E+00  0.39942548426E+02  0.39942548426E+02  0.00000000000E+00 0.  1.
         21   -1    0    0  502  503 -0.00000000000E+00 -0.00000000000E+00 -0.10584845920E+04  0.10584845920E+04  0.00000000000E+00 0.  1.
          6    1    1    2  501    0 -0.10647799045E+03 -0.32547408665E+02 -0.46318673403E+03  0.50648084548E+03  0.17200000000E+03 0. -1.
         -6    1    1    2    0  503  0.10647799045E+03  0.32547408665E+02 -0.55535530959E+03  0.59194629499E+03  0.17200000000E+03 0. -1.
</event>
<event>
 4    1  0.1232978E+000  0.4702852E+03  0.7818608E-02  0.1021840E+00
         21   -1    0    0  501  502  0.00000000000E+00  0.00000000000E+00  0.42835791000E+03  0.42835791000E+03  0.00000000000E+00 0.  1.
         21   -1    0    0  502  503 -0.00000000000E+00 -0.00000000000E+00 -0.86240394004E+03  0.86240394004E+03  0.00000000000E+00 0. -1.
          6    1    1    2  501    0 -0.24481726408E+03 -0.36283425073E+03  0.19181736354E+03  0.50789968227E+03  0.17200000000E+03 0.  1.
         -6    1    1    2    0  503  0.24481726408E+03  0.36283425073E+03 -0.62586339358E+03  0.78286216776E+03  0.17200000000E+03 0. -1.
</event>
<event>
 4    1  0.1232978E+000  0.1784153E+03  0.7818608E-02  0.1169346E+00
         21   -1    0    0  501  502  0.00000000000E+00  0.00000000000E+00  0.68138226519E+03  0.68138226519E+03  0.00000000000E+00 0. -1.
         21   -1    0    0  502  503 -0.00000000000E+00 -0.00000000000E+00 -0.86739837587E+02  0.86739837587E+02  0.00000000000E+00 0. -1.
          6    1    1    2  501    0 -0.35920063148E+02 -0.30947815207E+02  0.55820424668E+03  0.58602388963E+03  0.17200000000E+03 0. -1.
         -6    1    1    2    0  503  0.35920063148E+02  0.30947815207E+02  0.36438180920E+02  0.18209821315E+03  0.17200000000E+03 0. -1.
</event>
<event>
 4    1  0.1232978E+000  0.1742940E+03  0.7818608E-02  0.1173442E+00
         21   -1    0    0  501  502  0.00000000000E+00  0.00000000000E+00  0.53945166337E+02  0.53945166337E+02  0.00000000000E+00 0. -1.
         21   -1    0    0  502  503 -0.00000000000E+00 -0.00000000000E+00 -0.57535892786E+03  0.57535892786E+03  0.00000000000E+00 0. -1.
          6    1    1    2  501    0  0.51786193321E+01  0.27705386550E+02 -0.21484328814E+03  0.27665148653E+03  0.17200000000E+03 0. -1.
         -6    1    1    2    0  503 -0.51786193321E+01 -0.27705386550E+02 -0.30657047338E+03  0.35265260766E+03  0.17200000000E+03 0. -1.
</event>
<event>
 4    1  0.1232978E+000  0.1954939E+03  0.7818608E-02  0.1153597E+00
         21   -1    0    0  503  502  0.00000000000E+00  0.00000000000E+00  0.10335107364E+04  0.10335107364E+04  0.00000000000E+00 0.  1.
         21   -1    0    0  501  503 -0.00000000000E+00 -0.00000000000E+00 -0.36995780661E+02  0.36995780661E+02  0.00000000000E+00 0.  1.
          6    1    1    2  501    0  0.91652631313E+02 -0.15285704643E+02  0.50976690244E+03  0.54596717155E+03  0.17200000000E+03 0.  1.
         -6    1    1    2    0  502 -0.91652631313E+02  0.15285704643E+02  0.48674805329E+03  0.52453934550E+03  0.17200000000E+03 0.  1.
</event>
<event>
 4    1  0.1232978E+000  0.2154201E+03  0.7818608E-02  0.1137344E+00
         21   -1    0    0  501  502  0.00000000000E+00  0.00000000000E+00  0.19970874592E+03  0.19970874592E+03  0.00000000000E+00 0.  1.
         21   -1    0    0  502  503 -0.00000000000E+00 -0.00000000000E+00 -0.45427702418E+03  0.45427702418E+03  0.00000000000E+00 0.  1.
          6    1    1    2  501    0 -0.38652181382E+01  0.12964137381E+03  0.10125778000E+03  0.23803143432E+03  0.17200000000E+03 0.  1.
         -6    1    1    2    0  503  0.38652181382E+01 -0.12964137381E+03 -0.35582605826E+03  0.41595433578E+03  0.17200000000E+03 0.  1.
</event>
<event>
 4    1  0.1232978E+000  0.2171849E+03  0.7818608E-02  0.1135999E+00
         21   -1    0    0  503  502  0.00000000000E+00  0.00000000000E+00  0.55912461089E+03  0.55912461089E+03  0.00000000000E+00 0. -1.
         21   -1    0    0  501  503 -0.00000000000E+00 -0.00000000000E+00 -0.84489921446E+02  0.84489921446E+02  0.00000000000E+00 0. -1.
          6    1    1    2  501    0  0.57890165949E+02 -0.11930631324E+03  0.22483041700E+03  0.31259875895E+03  0.17200000000E+03 0. -1.
         -6    1    1    2    0  502 -0.57890165949E+02  0.11930631324E+03  0.24980427245E+03  0.33101577338E+03  0.17200000000E+03 0. -1.
</event>
<event>
 4    1  0.1232978E+000  0.2270842E+03  0.7818608E-02  0.1128709E+00
         21   -1    0    0  503  502  0.00000000000E+00  0.00000000000E+00  0.33086773184E+03  0.33086773184E+03  0.00000000000E+00 0.  1.
         21   -1    0    0  501  503 -0.00000000000E+00 -0.00000000000E+00 -0.15884346130E+03  0.15884346130E+03  0.00000000000E+00 0. -1.
          6    1    1    2  501    0 -0.11069038359E+03 -0.98645263859E+02  0.52424440456E+02  0.23305701246E+03  0.17200000000E+03 0.  1.
         -6    1    1    2    0  502  0.11069038359E+03  0.98645263859E+02  0.11959983009E+03  0.25665418068E+03  0.17200000000E+03 0.  1.
</event>
<event>
 4    1  0.1232978E+000  0.2240808E+03  0.7818608E-02  0.1130877E+00
         21   -1    0    0  503  502  0.00000000000E+00  0.00000000000E+00  0.37284087440E+03  0.37284087440E+03  0.00000000000E+00 0. -1.
         21   -1    0    0  501  503 -0.00000000000E+00 -0.00000000000E+00 -0.14352588826E+03  0.14352588826E+03  0.00000000000E+00 0. -1.
          6    1    1    2  501    0  0.14212330865E+03  0.20716253357E+02  0.50541518532E+02  0.22970991078E+03  0.17200000000E+03 0.  1.
         -6    1    1    2    0  502 -0.14212330865E+03 -0.20716253357E+02  0.17877346760E+03  0.28665685189E+03  0.17200000000E+03 0.  1.
</event>
<event>
 4    1  0.1232978E+000  0.3493601E+03  0.7818608E-02  0.1062878E+00
         21   -1    0    0  503  502  0.00000000000E+00  0.00000000000E+00  0.24865329469E+03  0.24865329469E+03  0.00000000000E+00 0. -1.
         21   -1    0    0  501  503 -0.00000000000E+00 -0.00000000000E+00 -0.49413127561E+03  0.49413127561E+03  0.00000000000E+00 0.  1.
          6    1    1    2  501    0  0.92650841702E+02 -0.28962787998E+03 -0.15298458003E+03  0.38138795086E+03  0.17200000000E+03 0.  1.
         -6    1    1    2    0  502 -0.92650841702E+02  0.28962787998E+03 -0.92493400894E+02  0.36139661944E+03  0.17200000000E+03 0.  1.
</event>
<event>
 4    1  0.1232978E+000  0.1871805E+03  0.7818608E-02  0.1161029E+00
         21   -1    0    0  503  502  0.00000000000E+00  0.00000000000E+00  0.25503333385E+03  0.25503333385E+03  0.00000000000E+00 0. -1.
         21   -1    0    0  501  503 -0.00000000000E+00 -0.00000000000E+00 -0.19540002066E+03  0.19540002066E+03  0.00000000000E+00 0.  1.
          6    1    1    2  501    0 -0.72375916645E+02  0.14637846192E+02 -0.92906437631E+02  0.20896924655E+03  0.17200000000E+03 0.  1.
         -6    1    1    2    0  502  0.72375916645E+02 -0.14637846192E+02  0.15253975082E+03  0.24146410796E+03  0.17200000000E+03 0. -1.
</event>
<event>
 4    1  0.1232978E+000  0.1834502E+03  0.7818608E-02  0.1164505E+00
         21   -1    0    0  503  502  0.00000000000E+00  0.00000000000E+00  0.67398399642E+03  0.67398399642E+03  0.00000000000E+00 0. -1.
         21   -1    0    0  501  503 -0.00000000000E+00 -0.00000000000E+00 -0.82131538438E+02  0.82131538438E+02  0.00000000000E+00 0.  1.
          6    1    1    2  501    0 -0.25481239113E+02  0.58486647386E+02  0.59213353923E+02  0.19276981805E+03  0.17200000000E+03 0.  1.
         -6    1    1    2    0  502  0.25481239113E+02 -0.58486647386E+02  0.53263910406E+03  0.56334571681E+03  0.17200000000E+03 0. -1.
</event>
<event>
 4    1  0.1232978E+000  0.2067772E+03  0.7818608E-02  0.1144144E+00
         21   -1    0    0  501  502  0.00000000000E+00  0.00000000000E+00  0.15352531655E+03  0.15352531655E+03  0.00000000000E+00 0. -1.
         21   -1    0    0  502  503 -0.00000000000E+00 -0.00000000000E+00 -0.30875135941E+03  0.30875135941E+03  0.00000000000E+00 0. -1.
          6    1    1    2  501    0 -0.10944390507E+03 -0.34566630944E+02 -0.52629315780E+01  0.20684418962E+03  0.17200000000E+03 0. -1.
         -6    1    1    2    0  503  0.10944390507E+03  0.34566630944E+02 -0.14996311128E+03  0.25543248634E+03  0.17200000000E+03 0. -1.
</event>
<event>
 4    1  0.1232978E+000  0.1933866E+03  0.7818608E-02  0.1155442E+00
         21   -1    0    0  503  502  0.00000000000E+00  0.00000000000E+00  0.46533179271E+02  0.46533179271E+02  0.00000000000E+00 0. -1.
         21   -1    0    0  501  503 -0.00000000000E+00 -0.00000000000E+00 -0.92771736654E+03  0.92771736654E+03  0.00000000000E+00 0. -1.
          6    1    1    2  501    0  0.88374553734E+02  0.20809009486E+01 -0.61870126089E+03  0.64822036540E+03  0.17200000000E+03 0.  1.
         -6    1    1    2    0  502 -0.88374553734E+02 -0.20809009486E+01 -0.26248292638E+03  0.32603018041E+03  0.17200000000E+03 0.  1.
</event>
<event>
 4    1  0.1232978E+000  0.1931735E+03  0.7818608E-02  0.1155630E+00
         21   -1    0    0  501  502  0.00000000000E+00  0.00000000000E+00  0.39034877411E+02  0.39034877411E+02  0.00000000000E+00 0. -1.
         21   -1    0    0  502  503 -0.00000000000E+00 -0.00000000000E+00 -0.97537950033E+03  0.97537950033E+03  0.00000000000E+00 0. -1.
          6    1    1    2  501    0 -0.54905890517E+02  0.68682873628E+02 -0.39661455375E+03  0.44115654613E+03  0.17200000000E+03 0. -1.
         -6    1    1    2    0  503  0.54905890517E+02 -0.68682873628E+02 -0.53973006917E+03  0.57325783162E+03  0.17200000000E+03 0. -1.
</event>
<event>
 4    1  0.1232978E+000  0.1769290E+03  0.7818608E-02  0.1170809E+00
         21   -1    0    0  501  502  0.00000000000E+00  0.00000000000E+00  0.43463016506E+03  0.43463016506E+03  0.00000000000E+00 0.  1.
         21   -1    0    0  502  503 -0.00000000000E+00 -0.00000000000E+00 -0.72780021011E+02  0.72780021011E+02  0.00000000000E+00 0.  1.
          6    1    1    2  501    0 -0.26623607479E+02  0.31796858912E+02  0.20678066708E+03  0.27214353013E+03  0.17200000000E+03 0.  1.
         -6    1    1    2    0  503  0.26623607479E+02 -0.31796858912E+02  0.15506947697E+03  0.23526665594E+03  0.17200000000E+03 0.  1.
</event>
<event>
 4    1  0.1232978E+000  0.2013487E+03  0.7818608E-02  0.1148606E+00
         21   -1    0    0  501  502  0.00000000000E+00  0.00000000000E+00  0.74749035477E+02  0.74749035477E+02  0.00000000000E+00 0.  1.
         21   -1    0    0  502  503 -0.00000000000E+00 -0.00000000000E+00 -0.84806055300E+03  0.84806055300E+03  0.00000000000E+00 0.  1.
          6    1    1    2  501    0  0.10764482448E+02  0.10412219227E+03 -0.10963468381E+03  0.22926200928E+03  0.17200000000E+03 0.  1.
         -6    1    1    2    0  503 -0.10764482448E+02 -0.10412219227E+03 -0.66367683371E+03  0.69354757919E+03  0.17200000000E+03 0.  1.
</event>
<event>
 4    1  0.1232978E+000  0.2309040E+03  0.7818608E-02  0.1126005E+00
         21   -1    0    0  501  502  0.00000000000E+00  0.00000000000E+00  0.15011122668E+03  0.15011122668E+03  0.00000000000E+00 0.  1.
         21   -1    0    0  502  503 -0.00000000000E+00 -0.00000000000E+00 -0.37220068634E+03  0.37220068634E+03  0.00000000000E+00 0.  1.
          6    1    1    2  501    0 -0.80659171102E+02 -0.13125076941E+03 -0.55199483172E+02  0.23741029736E+03  0.17200000000E+03 0. -1.
         -6    1    1    2    0  503  0.80659171102E+02  0.13125076941E+03 -0.16688997648E+03  0.28490161565E+03  0.17200000000E+03 0. -1.
</event>
<event>
 4    1  0.1232978E+000  0.1825337E+03  0.7818608E-02  0.1165373E+00
         21   -1    0    0  503  502  0.00000000000E+00  0.00000000000E+00  0.20858700212E+03  0.20858700212E+03  0.00000000000E+00 0. -1.
         21   -1    0    0  501  503 -0.00000000000E+00 -0.00000000000E+00 -0.15976216033E+03  0.15976216033E+03  0.00000000000E+00 0. -1.
          6    1    1    2  501    0  0.16583848599E+02  0.58817883897E+02  0.21994720772E+02  0.18385411402E+03  0.17200000000E+03 0. -1.
         -6    1    1    2    0  502 -0.16583848599E+02 -0.58817883897E+02  0.26830121024E+02  0.18449504843E+03  0.17200000000E+03 0. -1.
</event>
<event>
 4    1  0.1232978E+000  0.2037649E+03  0.7818608E-02  0.1146601E+00
         21   -1    0    0  503  502  0.00000000000E+00  0.00000000000E+00  0.10202121122E+04  0.10202121122E+04  0.00000000000E+00 0.  1.
         21   -1    0    0  501  503 -0.00000000000E+00 -0.00000000000E+00 -0.51518183784E+02  0.51518183784E+02  0.00000000000E+00 0.  1.
          6    1    1    2  501    0 -0.92860872841E+02 -0.57558574081E+02  0.23876207880E+03  0.31389084317E+03  0.17200000000E+03 0.  1.
         -6    1    1    2    0  502  0.92860872841E+02  0.57558574081E+02  0.72993184966E+03  0.75783945286E+03  0.17200000000E+03 0.  1.
</event>
<event>
 4    1  0.1232978E+000  0.2036274E+03  0.7818608E-02  0.1146714E+00
         21   -1    0    0  501  502  0.00000000000E+00  0.00000000000E+00  0.39855610233E+02  0.39855610233E+02  0.00000000000E+00 0. -1.
         21   -1    0    0  502  503 -0.00000000000E+00 -0.00000000000E+00 -0.12130809699E+04  0.12130809699E+04  0.00000000000E+00 0.  1.
          6    1    1    2  501    0 -0.94989128219E+02  0.53452626870E+02 -0.82300250440E+03  0.84781910810E+03  0.17200000000E+03 0. -1.
         -6    1    1    2    0  503  0.94989128219E+02 -0.53452626870E+02 -0.35022285525E+03  0.40511747202E+03  0.17200000000E+03 0. -1.
</event>
<event>
 4    1  0.1232978E+000  0.1953495E+03  0.7818608E-02  0.1153723E+00
         21   -1    0    0  503  502  0.00000000000E+00  0.00000000000E+00  0.69426623052E+02  0.69426623052E+02  0.00000000000E+00 0. -1.
         21   -1    0    0  501  503 -0.00000000000E+00 -0.00000000000E+00 -0.55355529296E+03  0.55355529296E+03  0.00000000000E+00 0. -1.
          6    1    1    2  501    0 -0.64060348610E+02 -0.66885771346E+02 -0.26817488145E+03  0.33178185863E+03  0.17200000000E+03 0. -1.
         -6    1    1    2    0  502  0.64060348610E+02  0.66885771346E+02 -0.21595378846E+03  0.29120005739E+03  0.17200000000E+03 0. -1.
</event>
<event>
 4    1  0.1232978E+000  0.1746576E+03  0.7818608E-02  0.1173076E+00
         21   -1    0    0  503  502  0.00000000000E+00  0.00000000000E+00  0.10316038445E+03  0.10316038445E+03  0.00000000000E+00 0.  1.
         21   -1    0    0  501  503 -0.00000000000E+00 -0.00000000000E+00 -0.36455890760E+03  0.36455890760E+03  0.00000000000E+00 0.  1.
          6    1    1    2  501    0  0.29201014523E+02 -0.82820698658E+01 -0.23233069957E+03  0.29065932962E+03  0.17200000000E+03 0.  1.
         -6    1    1    2    0  502 -0.29201014523E+02  0.82820698658E+01 -0.29067823586E+02  0.17705996244E+03  0.17200000000E+03 0.  1.
</event>
<event>
 4    1  0.1232978E+000  0.1865767E+03  0.7818608E-02  0.1161586E+00
         21   -1    0    0  501  502  0.00000000000E+00  0.00000000000E+00  0.38598568106E+03  0.38598568106E+03  0.00000000000E+00 0.  1.
         21   -1    0    0  502  503 -0.00000000000E+00 -0.00000000000E+00 -0.13680266522E+03  0.13680266522E+03  0.00000000000E+00 0.  1.
          6    1    1    2  501    0 -0.17513779873E+01  0.72275899087E+02  0.27717754007E+03  0.33412312346E+03  0.17200000000E+03 0.  1.
         -6    1    1    2    0  503  0.17513779873E+01 -0.72275899087E+02 -0.27994524227E+02  0.18866522282E+03  0.17200000000E+03 0.  1.
</event>
<event>
 4    1  0.1232978E+000  0.2454612E+03  0.7818608E-02  0.1116207E+00
         21   -1    0    0  501  502  0.00000000000E+00  0.00000000000E+00  0.11008176152E+03  0.11008176152E+03  0.00000000000E+00 0. -1.
         21   -1    0    0  502  503 -0.00000000000E+00 -0.00000000000E+00 -0.58905100454E+03  0.58905100454E+03  0.00000000000E+00 0.  1.
          6    1    1    2  501    0  0.17262888317E+03 -0.29435563363E+02 -0.33251489394E+03  0.41330054245E+03  0.17200000000E+03 0. -1.
         -6    1    1    2    0  503 -0.17262888317E+03  0.29435563363E+02 -0.14645434907E+03  0.28583222361E+03  0.17200000000E+03 0.  1.
</event>
<event>
 4    1  0.1232978E+000  0.2429181E+03  0.7818608E-02  0.1117864E+00
         21   -1    0    0  501  502  0.00000000000E+00  0.00000000000E+00  0.11166708410E+03  0.11166708410E+03  0.00000000000E+00 0. -1.
         21   -1    0    0  502  503 -0.00000000000E+00 -0.00000000000E+00 -0.52882994692E+03  0.52882994692E+03  0.00000000000E+00 0.  1.
          6    1    1    2  501    0 -0.50424495472E+02  0.16395906949E+03 -0.19987044727E+03  0.31457495435E+03  0.17200000000E+03 0. -1.
         -6    1    1    2    0  503  0.50424495472E+02 -0.16395906949E+03 -0.21729241554E+03  0.32592207667E+03  0.17200000000E+03 0. -1.
</event>
<event>
 4    1  0.1232978E+000  0.3104483E+03  0.7818608E-02  0.1080131E+00
         21   -1    0    0  503  502  0.00000000000E+00  0.00000000000E+00  0.69680881777E+02  0.69680881777E+02  0.00000000000E+00 0. -1.
         21   -1    0    0  501  503 -0.00000000000E+00 -0.00000000000E+00 -0.17834920348E+04  0.17834920348E+04  0.00000000000E+00 0.  1.
          6    1    1    2  501    0 -0.24019897178E+03 -0.95386706491E+02 -0.12959144403E+04  0.13325811069E+04  0.17200000000E+03 0.  1.
         -6    1    1    2    0  502  0.24019897178E+03  0.95386706491E+02 -0.41789671270E+03  0.52059180968E+03  0.17200000000E+03 0. -1.
</event>
<event>
 4    1  0.1232978E+000  0.2522698E+03  0.7818608E-02  0.1111879E+00
         21   -1    0    0  501  502  0.00000000000E+00  0.00000000000E+00  0.43772599688E+03  0.43772599688E+03  0.00000000000E+00 0.  1.
         21   -1    0    0  502  503 -0.00000000000E+00 -0.00000000000E+00 -0.19084152371E+03  0.19084152371E+03  0.00000000000E+00 0.  1.
          6    1    1    2  501    0  0.13238713874E+03  0.12856779431E+03  0.27682271919E+03  0.37452750246E+03  0.17200000000E+03 0.  1.
         -6    1    1    2    0  503 -0.13238713874E+03 -0.12856779431E+03 -0.29938246018E+02  0.25404001813E+03  0.17200000000E+03 0.  1.
</event>
<event>
 4    1  0.1232978E+000  0.2595893E+03  0.7818608E-02  0.1107390E+00
         21   -1    0    0  503  502  0.00000000000E+00  0.00000000000E+00  0.13211433786E+04  0.13211433786E+04  0.00000000000E+00 0.  1.
         21   -1    0    0  501  503 -0.00000000000E+00 -0.00000000000E+00 -0.96186868486E+02  0.96186868486E+02  0.00000000000E+00 0. -1.
          6    1    1    2  501    0  0.68738218801E+02  0.18187266310E+03  0.12678831136E+03  0.28889770543E+03  0.17200000000E+03 0. -1.
         -6    1    1    2    0  502 -0.68738218801E+02 -0.18187266310E+03  0.10981681987E+04  0.11284325416E+04  0.17200000000E+03 0.  1.
</event>
<event>
 4    1  0.1232978E+000  0.1741778E+03  0.7818608E-02  0.1173560E+00
         21   -1    0    0  503  502  0.00000000000E+00  0.00000000000E+00  0.28879267186E+02  0.28879267186E+02  0.00000000000E+00 0. -1.
         21   -1    0    0  501  503 -0.00000000000E+00 -0.00000000000E+00 -0.16950519680E+04  0.16950519680E+04  0.00000000000E+00 0. -1.
          6    1    1    2  501    0 -0.18044739193E+02 -0.20695089918E+02 -0.13646126156E+04  0.13756836446E+04  0.17200000000E+03 0. -1.
         -6    1    1    2    0  502  0.18044739193E+02  0.20695089918E+02 -0.30156008525E+03  0.34824759063E+03  0.17200000000E+03 0. -1.
</event>
<event>
 4    1  0.1232978E+000  0.3923751E+03  0.7818608E-02  0.1046452E+00
         21   -1    0    0  501  502  0.00000000000E+00  0.00000000000E+00  0.95385166963E+03  0.95385166963E+03  0.00000000000E+00 0. -1.
         21   -1    0    0  502  503 -0.00000000000E+00 -0.00000000000E+00 -0.17314182920E+03  0.17314182920E+03  0.00000000000E+00 0.  1.
          6    1    1    2  501    0 -0.42476035567E+02  0.35010004774E+03  0.53705499711E+03  0.66512128740E+03  0.17200000000E+03 0. -1.
         -6    1    1    2    0  503  0.42476035567E+02 -0.35010004774E+03  0.24365484331E+03  0.46187221143E+03  0.17200000000E+03 0. -1.
</event>
<event>
 4    1  0.1232978E+000  0.1961665E+03  0.7818608E-02  0.1153014E+00
         21   -1    0    0  501  502  0.00000000000E+00  0.00000000000E+00  0.16659135741E+03  0.16659135741E+03  0.00000000000E+00 0. -1.
         21   -1    0    0  502  503 -0.00000000000E+00 -0.00000000000E+00 -0.27338674811E+03  0.27338674811E+03  0.00000000000E+00 0.  1.
          6    1    1    2  501    0  0.88407405927E+02 -0.32884805417E+02  0.33232260369E+02  0.19896146104E+03  0.17200000000E+03 0. -1.
         -6    1    1    2    0  503 -0.88407405927E+02  0.32884805417E+02 -0.14002765107E+03  0.24101664448E+03  0.17200000000E+03 0.  1.
</event>
<event>
 4    1  0.1232978E+000  0.3263393E+03  0.7818608E-02  0.1072768E+00
         21   -1    0    0  501  502  0.00000000000E+00  0.00000000000E+00  0.76246115887E+03  0.76246115887E+03  0.00000000000E+00 0. -1.
         21   -1    0    0  502  503 -0.00000000000E+00 -0.00000000000E+00 -0.23869379382E+03  0.23869379382E+03  0.00000000000E+00 0.  1.
          6    1    1    2  501    0 -0.37021406755E+01 -0.27730785132E+03  0.58429320908E+03  0.66925025545E+03  0.17200000000E+03 0. -1.
         -6    1    1    2    0  503  0.37021406755E+01  0.27730785132E+03 -0.60525844024E+02  0.33190469723E+03  0.17200000000E+03 0. -1.
</event>
<event>
 4    1  0.1232978E+000  0.2244506E+03  0.7818608E-02  0.1130608E+00
         21   -1    0    0  501  502  0.00000000000E+00  0.00000000000E+00  0.34509678558E+03  0.34509678558E+03  0.00000000000E+00 0.  1.
         21   -1    0    0  502  503 -0.00000000000E+00 -0.00000000000E+00 -0.25419599626E+03  0.25419599626E+03  0.00000000000E+00 0. -1.
          6    1    1    2  501    0  0.10974623484E+03  0.93540593491E+02  0.24095882420E+03  0.32930112914E+03  0.17200000000E+03 0.  1.
         -6    1    1    2    0  503 -0.10974623484E+03 -0.93540593491E+02 -0.15005803488E+03  0.26999165270E+03  0.17200000000E+03 0.  1.
</event>
<event>
 4    1  0.1232978E+000  0.1962827E+03  0.7818608E-02  0.1152914E+00
         21   -1    0    0  501  502  0.00000000000E+00  0.00000000000E+00  0.25419663612E+03  0.25419663612E+03  0.00000000000E+00 0.  1.
         21   -1    0    0  502  503 -0.00000000000E+00 -0.00000000000E+00 -0.10784189250E+04  0.10784189250E+04  0.00000000000E+00 0.  1.
          6    1    1    2  501    0  0.88836406528E+02 -0.32419205958E+02  0.20560243783E+03  0.28425213188E+03  0.17200000000E+03 0.  1.
         -6    1    1    2    0  503 -0.88836406528E+02  0.32419205958E+02 -0.10298247267E+04  0.10483634293E+04  0.17200000000E+03 0.  1.
</event>
<event>
 4    1  0.1232978E+000  0.1990411E+03  0.7818608E-02  0.1150551E+00
         21   -1    0    0  501  502  0.00000000000E+00  0.00000000000E+00  0.35960309285E+03  0.35960309285E+03  0.00000000000E+00 0.  1.
         21   -1    0    0  502  503 -0.00000000000E+00 -0.00000000000E+00 -0.11475948240E+03  0.11475948240E+03  0.00000000000E+00 0.  1.
          6    1    1    2  501    0 -0.61200021987E+02 -0.79296410342E+02  0.16985499970E+03  0.26166406767E+03  0.17200000000E+03 0. -1.
         -6    1    1    2    0  503  0.61200021987E+02  0.79296410342E+02  0.74988610756E+02  0.21269850758E+03  0.17200000000E+03 0. -1.
</event>
<event>
 4    1  0.1232978E+000  0.2044856E+03  0.7818608E-02  0.1146009E+00
         21   -1    0    0  503  502  0.00000000000E+00  0.00000000000E+00  0.28056995835E+03  0.28056995835E+03  0.00000000000E+00 0.  1.
         21   -1    0    0  501  503 -0.00000000000E+00 -0.00000000000E+00 -0.15079931350E+03  0.15079931350E+03  0.00000000000E+00 0. -1.
          6    1    1    2  501    0 -0.40282047442E+02 -0.10299374701E+03  0.88224080966E+02  0.22270573349E+03  0.17200000000E+03 0. -1.
         -6    1    1    2    0  502  0.40282047442E+02  0.10299374701E+03  0.41546563880E+02  0.20866353836E+03  0.17200000000E+03 0.  1.
</event>
<event>
 4    1  0.1232978E+000  0.2468887E+03  0.7818608E-02  0.1115287E+00
         21   -1    0    0  501  502  0.00000000000E+00  0.00000000000E+00  0.13114483042E+04  0.13114483042E+04  0.00000000000E+00 0. -1.
         21   -1    0    0  502  503 -0.00000000000E+00 -0.00000000000E+00 -0.69695373851E+02  0.69695373851E+02  0.00000000000E+00 0.  1.
          6    1    1    2  501    0  0.16036227662E+03 -0.75192813181E+02  0.10194511339E+04  0.10489206993E+04  0.17200000000E+03 0.  1.
         -6    1    1    2    0  503 -0.16036227662E+03  0.75192813181E+02  0.22230179636E+03  0.33222297871E+03  0.17200000000E+03 0.  1.
</event>
<event>
 4    1  0.1232978E+000  0.2299248E+03  0.7818608E-02  0.1126693E+00
         21   -1    0    0  503  502  0.00000000000E+00  0.00000000000E+00  0.11561842893E+03  0.11561842893E+03  0.00000000000E+00 0. -1.
         21   -1    0    0  501  503 -0.00000000000E+00 -0.00000000000E+00 -0.87522526722E+03  0.87522526722E+03  0.00000000000E+00 0. -1.
          6    1    1    2  501    0  0.93647715982E+02  0.12046371770E+03 -0.72217331994E+03  0.75789161891E+03  0.17200000000E+03 0. -1.
         -6    1    1    2    0  502 -0.93647715982E+02 -0.12046371770E+03 -0.37433518359E+02  0.23295207724E+03  0.17200000000E+03 0. -1.
</event>
<event>
 4    1  0.1232978E+000  0.1858687E+03  0.7818608E-02  0.1162241E+00
         21   -1    0    0  501  502  0.00000000000E+00  0.00000000000E+00  0.22817005022E+03  0.22817005022E+03  0.00000000000E+00 0. -1.
         21   -1    0    0  502  503 -0.00000000000E+00 -0.00000000000E+00 -0.41726359822E+03  0.41726359822E+03  0.00000000000E+00 0. -1.
          6    1    1    2  501    0 -0.66903087400E+02 -0.22071271077E+02 -0.35214202683E+03  0.39818484548E+03  0.17200000000E+03 0. -1.
         -6    1    1    2    0  503  0.66903087400E+02  0.22071271077E+02  0.16304847883E+03  0.24724880295E+03  0.17200000000E+03 0. -1.
</event>
<event>
 4    1  0.1232978E+000  0.1891722E+03  0.7818608E-02  0.1159210E+00
         21   -1    0    0  503  502  0.00000000000E+00  0.00000000000E+00  0.49985693779E+03  0.49985693779E+03  0.00000000000E+00 0.  1.
         21   -1    0    0  501  503 -0.00000000000E+00 -0.00000000000E+00 -0.71737047405E+02  0.71737047405E+02  0.00000000000E+00 0.  1.
          6    1    1    2  501    0 -0.32425571710E+02  0.71768509351E+02  0.20124243808E+03  0.27619676957E+03  0.17200000000E+03 0. -1.
         -6    1    1    2    0  502  0.32425571710E+02 -0.71768509351E+02  0.22687745230E+03  0.29539721562E+03  0.17200000000E+03 0. -1.
</event>
<event>
 4    1  0.1232978E+000  0.2378382E+03  0.7818608E-02  0.1121241E+00
         21   -1    0    0  503  502  0.00000000000E+00  0.00000000000E+00  0.15943168533E+03  0.15943168533E+03  0.00000000000E+00 0.  1.
         21   -1    0    0  501  503 -0.00000000000E+00 -0.00000000000E+00 -0.44856385207E+03  0.44856385207E+03  0.00000000000E+00 0.  1.
          6    1    1    2  501    0  0.19067189838E+02  0.16315465642E+03 -0.28355069473E+03  0.37009187524E+03  0.17200000000E+03 0.  1.
         -6    1    1    2    0  502 -0.19067189838E+02 -0.16315465642E+03 -0.55814720064E+01  0.23790366216E+03  0.17200000000E+03 0.  1.
</event>
<event>
 4    1  0.1232978E+000  0.1808190E+03  0.7818608E-02  0.1167013E+00
         21   -1    0    0  503  502  0.00000000000E+00  0.00000000000E+00  0.34592757735E+03  0.34592757735E+03  0.00000000000E+00 0. -1.
         21   -1    0    0  501  503 -0.00000000000E+00 -0.00000000000E+00 -0.10532743895E+03  0.10532743895E+03  0.00000000000E+00 0. -1.
          6    1    1    2  501    0 -0.22264081756E+02  0.51145045463E+02  0.48010801107E+02  0.18708431798E+03  0.17200000000E+03 0. -1.
         -6    1    1    2    0  502  0.22264081756E+02 -0.51145045463E+02  0.19258933729E+03  0.26417069832E+03  0.17200000000E+03 0. -1.
</event>
<event>
 4    1  0.1232978E+000  0.1780977E+03  0.7818608E-02  0.1169657E+00
         21   -1    0    0  503  502  0.00000000000E+00  0.00000000000E+00  0.23291591146E+03  0.23291591146E+03  0.00000000000E+00 0. -1.
         21   -1    0    0  501  503 -0.00000000000E+00 -0.00000000000E+00 -0.23892193201E+03  0.23892193201E+03  0.00000000000E+00 0. -1.
          6    1    1    2  501    0 -0.43994473120E+02 -0.14117183499E+02 -0.15770850130E+03  0.23788816683E+03  0.17200000000E+03 0. -1.
         -6    1    1    2    0  502  0.43994473120E+02  0.14117183499E+02  0.15170248075E+03  0.23394967664E+03  0.17200000000E+03 0. -1.
</event>
<event>
 4    1  0.1232978E+000  0.2028446E+03  0.7818608E-02  0.1147361E+00
         21   -1    0    0  503  502  0.00000000000E+00  0.00000000000E+00  0.63952139938E+03  0.63952139938E+03  0.00000000000E+00 0.  1.
         21   -1    0    0  501  503 -0.00000000000E+00 -0.00000000000E+00 -0.68039029070E+02  0.68039029070E+02  0.00000000000E+00 0.  1.
          6    1    1    2  501    0 -0.96410037169E+02  0.47613543520E+02  0.36824565433E+03  0.42041741963E+03  0.17200000000E+03 0.  1.
         -6    1    1    2    0  502  0.96410037169E+02 -0.47613543520E+02  0.20323671598E+03  0.28714300882E+03  0.17200000000E+03 0.  1.
</event>
<event>
 4    1  0.1232978E+000  0.1781324E+03  0.7818608E-02  0.1169623E+00
         21   -1    0    0  503  502  0.00000000000E+00  0.00000000000E+00  0.38428595321E+02  0.38428595321E+02  0.00000000000E+00 0.  1.
         21   -1    0    0  501  503 -0.00000000000E+00 -0.00000000000E+00 -0.17648084763E+04  0.17648084763E+04  0.00000000000E+00 0.  1.
          6    1    1    2  501    0  0.16294798106E+02  0.43377658072E+02 -0.15208901907E+04  0.15312864245E+04  0.17200000000E+03 0.  1.
         -6    1    1    2    0  502 -0.16294798106E+02 -0.43377658072E+02 -0.20548969030E+03  0.27195064715E+03  0.17200000000E+03 0.  1.
</event>
<event>
 4    1  0.1232978E+000  0.1839372E+03  0.7818608E-02  0.1164046E+00
         21   -1    0    0  501  502  0.00000000000E+00  0.00000000000E+00  0.15620063906E+03  0.15620063906E+03  0.00000000000E+00 0. -1.
         21   -1    0    0  502  503 -0.00000000000E+00 -0.00000000000E+00 -0.21715966313E+03  0.21715966313E+03  0.00000000000E+00 0. -1.
          6    1    1    2  501    0 -0.38124256667E+01 -0.65072064043E+02 -0.39964678539E+02  0.18822880661E+03  0.17200000000E+03 0.  1.
         -6    1    1    2    0  503  0.38124256667E+01  0.65072064043E+02 -0.20994345534E+02  0.18513149557E+03  0.17200000000E+03 0.  1.
</event>
<event>
 4    1  0.1232978E+000  0.1883673E+03  0.7818608E-02  0.1159942E+00
         21   -1    0    0  501  502  0.00000000000E+00  0.00000000000E+00  0.72777215166E+03  0.72777215166E+03  0.00000000000E+00 0.  1.
         21   -1    0    0  502  503 -0.00000000000E+00 -0.00000000000E+00 -0.48758434461E+02  0.48758434461E+02  0.00000000000E+00 0.  1.
          6    1    1    2  501    0 -0.26189807813E+01  0.76755330887E+02  0.34295017144E+03  0.39127619397E+03  0.17200000000E+03 0.  1.
         -6    1    1    2    0  503  0.26189807813E+01 -0.76755330887E+02  0.33606354576E+03  0.38525439215E+03  0.17200000000E+03 0.  1.
</event>
<event>
 4    1  0.1232978E+000  0.2089228E+03  0.7818608E-02  0.1142422E+00
         21   -1    0    0  503  502  0.00000000000E+00  0.00000000000E+00  0.61847159548E+02  0.61847159548E+02  0.00000000000E+00 0. -1.
         21   -1    0    0  501  503 -0.00000000000E+00 -0.00000000000E+00 -0.16278873063E+04  0.16278873063E+04  0.00000000000E+00 0. -1.
          6    1    1    2  501    0 -0.67619738181E+00 -0.11859286409E+03 -0.14188979937E+04  0.14341967233E+04  0.17200000000E+03 0. -1.
         -6    1    1    2    0  502  0.67619738181E+00  0.11859286409E+03 -0.14714215307E+03  0.25553774254E+03  0.17200000000E+03 0. -1.
</event>
<event>
 4    1  0.1232978E+000  0.1988514E+03  0.7818608E-02  0.1150712E+00
         21   -1    0    0  503  502  0.00000000000E+00  0.00000000000E+00  0.12394777757E+03  0.12394777757E+03  0.00000000000E+00 0. -1.
         21   -1    0    0  501  503 -0.00000000000E+00 -0.00000000000E+00 -0.46718463575E+03  0.46718463575E+03  0.00000000000E+00 0. -1.
          6    1    1    2  501    0 -0.64661738485E+02  0.76004958656E+02 -0.33806770256E+03  0.39221380098E+03  0.17200000000E+03 0. -1.
         -6    1    1    2    0  502  0.64661738485E+02 -0.76004958656E+02 -0.51691556138E+01  0.19891861234E+03  0.17200000000E+03 0. -1.
</event>
<event>
 4    1  0.1232978E+000  0.1763185E+03  0.7818608E-02  0.1171414E+00
         21   -1    0    0  501  502  0.00000000000E+00  0.00000000000E+00  0.15863616433E+04  0.15863616433E+04  0.00000000000E+00 0.  1.
         21   -1    0    0  502  503 -0.00000000000E+00 -0.00000000000E+00 -0.19698722866E+02  0.19698722866E+02  0.00000000000E+00 0.  1.
          6    1    1    2  501    0  0.38733600722E+02  0.19794861613E+01  0.84098733695E+03  0.85927173298E+03  0.17200000000E+03 0. -1.
         -6    1    1    2    0  503 -0.38733600722E+02 -0.19794861613E+01  0.72567558350E+03  0.74678863320E+03  0.17200000000E+03 0. -1.
</event>
<event>
 4    1  0.1232978E+000  0.1754271E+03  0.7818608E-02  0.1172304E+00
         21   -1    0    0  503  502  0.00000000000E+00  0.00000000000E+00  0.54178348324E+02  0.54178348324E+02  0.00000000000E+00 0.  1.
         21   -1    0    0  501  503 -0.00000000000E+00 -0.00000000000E+00 -0.57947236457E+03  0.57947236457E+03  0.00000000000E+00 0.  1.
          6    1    1    2  501    0 -0.27650120056E+02 -0.20643076127E+02 -0.30717704197E+03  0.35374058411E+03  0.17200000000E+03 0.  1.
         -6    1    1    2    0  502  0.27650120056E+02  0.20643076127E+02 -0.21811697428E+03  0.27991012879E+03  0.17200000000E+03 0.  1.
</event>
<event>
 4    1  0.1232978E+000  0.2187857E+03  0.7818608E-02  0.1134792E+00
         21   -1    0    0  503  502  0.00000000000E+00  0.00000000000E+00  0.92436470906E+02  0.92436470906E+02  0.00000000000E+00 0.  1.
         21   -1    0    0  501  503 -0.00000000000E+00 -0.00000000000E+00 -0.53391916610E+03  0.53391916610E+03  0.00000000000E+00 0. -1.
          6    1    1    2  501    0  0.46990335230E+02 -0.12678764332E+03 -0.27509142817E+03  0.35148611915E+03  0.17200000000E+03 0. -1.
         -6    1    1    2    0  502 -0.46990335230E+02  0.12678764332E+03 -0.16639126702E+03  0.27486951785E+03  0.17200000000E+03 0.  1.
</event>
<event>
 4    1  0.1232978E+000  0.2050524E+03  0.7818608E-02  0.1145545E+00
         21   -1    0    0  501  502  0.00000000000E+00  0.00000000000E+00  0.41602833732E+03  0.41602833732E+03  0.00000000000E+00 0. -1.
         21   -1    0    0  502  503 -0.00000000000E+00 -0.00000000000E+00 -0.10259485300E+03  0.10259485300E+03  0.00000000000E+00 0. -1.
          6    1    1    2  501    0  0.10577117144E+03  0.35706266516E+02  0.12506570209E+03  0.24018307188E+03  0.17200000000E+03 0. -1.
         -6    1    1    2    0  503 -0.10577117144E+03 -0.35706266516E+02  0.18836778223E+03  0.27844011844E+03  0.17200000000E+03 0. -1.
</event>
<event>
 4    1  0.1232978E+000  0.1987004E+03  0.7818608E-02  0.1150840E+00
         21   -1    0    0  501  502  0.00000000000E+00  0.00000000000E+00  0.49154165895E+03  0.49154165895E+03  0.00000000000E+00 0. -1.
         21   -1    0    0  502  503 -0.00000000000E+00 -0.00000000000E+00 -0.18775817979E+03  0.18775817979E+03  0.00000000000E+00 0. -1.
          6    1    1    2  501    0 -0.75109220182E+02 -0.65241415810E+02  0.40881677383E+03  0.45454701832E+03  0.17200000000E+03 0.  1.
         -6    1    1    2    0  503  0.75109220182E+02  0.65241415810E+02 -0.10503329468E+03  0.22475282041E+03  0.17200000000E+03 0.  1.
</event>
<event>
 4    1  0.1232978E+000  0.2653520E+03  0.7818608E-02  0.1103970E+00
         21   -1    0    0  501  502  0.00000000000E+00  0.00000000000E+00  0.27145354143E+02  0.27145354143E+02  0.00000000000E+00 0. -1.
         21   -1    0    0  502  503 -0.00000000000E+00 -0.00000000000E+00 -0.27803604624E+04  0.27803604624E+04  0.00000000000E+00 0. -1.
          6    1    1    2  501    0 -0.14519113261E+03  0.14052476830E+03 -0.17401555453E+04  0.17602707170E+04  0.17200000000E+03 0. -1.
         -6    1    1    2    0  503  0.14519113261E+03 -0.14052476830E+03 -0.10130595630E+04  0.10472350995E+04  0.17200000000E+03 0. -1.
</event>
<event>
 4    1  0.1232978E+000  0.2307299E+03  0.7818608E-02  0.1126127E+00
         21   -1    0    0  503  502  0.00000000000E+00  0.00000000000E+00  0.53063011188E+03  0.53063011188E+03  0.00000000000E+00 0.  1.
         21   -1    0    0  501  503 -0.00000000000E+00 -0.00000000000E+00 -0.16331688723E+03  0.16331688723E+03  0.00000000000E+00 0.  1.
          6    1    1    2  501    0 -0.15354986463E+03 -0.86449153679E+01 -0.31828703405E+02  0.23291492406E+03  0.17200000000E+03 0.  1.
         -6    1    1    2    0  502  0.15354986463E+03  0.86449153679E+01  0.39914192806E+03  0.46103207505E+03  0.17200000000E+03 0.  1.
</event>
<event>
 4    1  0.1232978E+000  0.1795157E+03  0.7818608E-02  0.1168273E+00
         21   -1    0    0  501  502  0.00000000000E+00  0.00000000000E+00  0.12849403667E+03  0.12849403667E+03  0.00000000000E+00 0. -1.
         21   -1    0    0  502  503 -0.00000000000E+00 -0.00000000000E+00 -0.29030040237E+03  0.29030040237E+03  0.00000000000E+00 0. -1.
          6    1    1    2  501    0 -0.49632529897E+02  0.13360465188E+02 -0.15814732913E+03  0.23924144241E+03  0.17200000000E+03 0. -1.
         -6    1    1    2    0  503  0.49632529897E+02 -0.13360465188E+02 -0.36590365688E+01  0.17955299664E+03  0.17200000000E+03 0. -1.
</event>
<event>
 4    1  0.1232978E+000  0.2285932E+03  0.7818608E-02  0.1127634E+00
         21   -1    0    0  501  502  0.00000000000E+00  0.00000000000E+00  0.49632200379E+03  0.49632200379E+03  0.00000000000E+00 0.  1.
         21   -1    0    0  502  503 -0.00000000000E+00 -0.00000000000E+00 -0.12589756220E+03  0.12589756220E+03  0.00000000000E+00 0.  1.
          6    1    1    2  501    0 -0.12630831150E+03  0.81957690748E+02  0.31109887460E+03  0.38605357452E+03  0.17200000000E+03 0.  1.
         -6    1    1    2    0  503  0.12630831150E+03 -0.81957690748E+02  0.59325566988E+02  0.23616599147E+03  0.17200000000E+03 0.  1.
</event>
<event>
 4    1  0.1232978E+000  0.1740685E+03  0.7818608E-02  0.1173670E+00
         21   -1    0    0  503  502  0.00000000000E+00  0.00000000000E+00  0.64345302230E+02  0.64345302230E+02  0.00000000000E+00 0. -1.
         21   -1    0    0  501  503 -0.00000000000E+00 -0.00000000000E+00 -0.48060295661E+03  0.48060295661E+03  0.00000000000E+00 0. -1.
          6    1    1    2  501    0  0.12268117215E+02 -0.23776727881E+02 -0.24685552174E+03  0.30205543879E+03  0.17200000000E+03 0. -1.
         -6    1    1    2    0  502 -0.12268117215E+02  0.23776727881E+02 -0.16940213264E+03  0.24289282005E+03  0.17200000000E+03 0. -1.
</event>
<event>
 4    1  0.1232978E+000  0.1892536E+03  0.7818608E-02  0.1159136E+00
         21   -1    0    0  501  502  0.00000000000E+00  0.00000000000E+00  0.73409819188E+02  0.73409819188E+02  0.00000000000E+00 0. -1.
         21   -1    0    0  502  503 -0.00000000000E+00 -0.00000000000E+00 -0.62553747988E+03  0.62553747988E+03  0.00000000000E+00 0.  1.
          6    1    1    2  501    0  0.42650579581E+02  0.66436881677E+02 -0.11213697906E+03  0.21998098386E+03  0.17200000000E+03 0. -1.
         -6    1    1    2    0  503 -0.42650579581E+02 -0.66436881677E+02 -0.43999068163E+03  0.47896631521E+03  0.17200000000E+03 0. -1.
</event>
<event>
 4    1  0.1232978E+000  0.2840087E+03  0.7818608E-02  0.1093519E+00
         21   -1    0    0  501  502  0.00000000000E+00  0.00000000000E+00  0.27785476418E+03  0.27785476418E+03  0.00000000000E+00 0. -1.
         21   -1    0    0  502  503 -0.00000000000E+00 -0.00000000000E+00 -0.29646795604E+03  0.29646795604E+03  0.00000000000E+00 0.  1.
          6    1    1    2  501    0 -0.22548606288E+03 -0.15264166654E+02  0.32116548918E+02  0.28581887980E+03  0.17200000000E+03 0.  1.
         -6    1    1    2    0  503  0.22548606288E+03  0.15264166654E+02 -0.50729740774E+02  0.28850384042E+03  0.17200000000E+03 0. -1.
</event>
<event>
 4    1  0.1232978E+000  0.1833699E+03  0.7818608E-02  0.1164581E+00
         21   -1    0    0  501  502  0.00000000000E+00  0.00000000000E+00  0.14089345990E+03  0.14089345990E+03  0.00000000000E+00 0.  1.
         21   -1    0    0  502  503 -0.00000000000E+00 -0.00000000000E+00 -0.24680491314E+03  0.24680491314E+03  0.00000000000E+00 0.  1.
          6    1    1    2  501    0 -0.28590799616E+02  0.56772290904E+02 -0.17723543898E+02  0.18422445778E+03  0.17200000000E+03 0.  1.
         -6    1    1    2    0  503  0.28590799616E+02 -0.56772290904E+02 -0.88187909340E+02  0.20347391526E+03  0.17200000000E+03 0.  1.
</event>
<event>
 4    1  0.1232978E+000  0.1973429E+03  0.7818608E-02  0.1152000E+00
         21   -1    0    0  501  502  0.00000000000E+00  0.00000000000E+00  0.61530215350E+02  0.61530215350E+02  0.00000000000E+00 0.  1.
         21   -1    0    0  502  503 -0.00000000000E+00 -0.00000000000E+00 -0.65422609951E+03  0.65422609951E+03  0.00000000000E+00 0.  1.
          6    1    1    2  501    0  0.84926505761E+02 -0.46343210892E+02 -0.23177652940E+03  0.30440854810E+03  0.17200000000E+03 0. -1.
         -6    1    1    2    0  503 -0.84926505761E+02  0.46343210892E+02 -0.36091935476E+03  0.41134776676E+03  0.17200000000E+03 0. -1.
</event>
<event>
 4    1  0.1232978E+000  0.2343898E+03  0.7818608E-02  0.1123588E+00
         21   -1    0    0  501  502  0.00000000000E+00  0.00000000000E+00  0.29718340769E+03  0.29718340769E+03  0.00000000000E+00 0. -1.
         21   -1    0    0  502  503 -0.00000000000E+00 -0.00000000000E+00 -0.23668219941E+03  0.23668219941E+03  0.00000000000E+00 0.  1.
          6    1    1    2  501    0  0.15595395410E+03  0.32139187376E+02  0.15514979014E+03  0.28108721164E+03  0.17200000000E+03 0. -1.
         -6    1    1    2    0  503 -0.15595395410E+03 -0.32139187376E+02 -0.94648581866E+02  0.25277839547E+03  0.17200000000E+03 0.  1.
</event>
<event>
 4    1  0.1232978E+000  0.3919462E+03  0.7818608E-02  0.1046605E+00
         21   -1    0    0  503  502  0.00000000000E+00  0.00000000000E+00  0.34527148194E+03  0.34527148194E+03  0.00000000000E+00 0.  1.
         21   -1    0    0  501  503 -0.00000000000E+00 -0.00000000000E+00 -0.55654074189E+03  0.55654074189E+03  0.00000000000E+00 0. -1.
          6    1    1    2  501    0 -0.68554828656E+02 -0.34545335993E+03 -0.30755949651E+03  0.49821143334E+03  0.17200000000E+03 0. -1.
         -6    1    1    2    0  502  0.68554828656E+02  0.34545335993E+03  0.96290236558E+02  0.40360079048E+03  0.17200000000E+03 0.  1.
</event>
<event>
 4    1  0.1232978E+000  0.1812671E+03  0.7818608E-02  0.1166582E+00
         21   -1    0    0  501  502  0.00000000000E+00  0.00000000000E+00  0.47406482742E+03  0.47406482742E+03  0.00000000000E+00 0. -1.
         21   -1    0    0  502  503 -0.00000000000E+00 -0.00000000000E+00 -0.84110408121E+02  0.84110408121E+02  0.00000000000E+00 0. -1.
          6    1    1    2  501    0  0.50687758331E+02 -0.26542826996E+02  0.31204626236E+03  0.36087482645E+03  0.17200000000E+03 0. -1.
         -6    1    1    2    0  503 -0.50687758331E+02  0.26542826996E+02  0.77908156931E+02  0.19730040909E+03  0.17200000000E+03 0. -1.
</event>
<event>
 4    1  0.1232978E+000  0.1764046E+03  0.7818608E-02  0.1171329E+00
         21   -1    0    0  501  502  0.00000000000E+00  0.00000000000E+00  0.10747038077E+03  0.10747038077E+03  0.00000000000E+00 0. -1.
         21   -1    0    0  502  503 -0.00000000000E+00 -0.00000000000E+00 -0.29209989678E+03  0.29209989678E+03  0.00000000000E+00 0. -1.
          6    1    1    2  501    0 -0.35829455312E+02  0.15837177703E+02 -0.73666061820E+02  0.19116813210E+03  0.17200000000E+03 0.  1.
         -6    1    1    2    0  503  0.35829455312E+02 -0.15837177703E+02 -0.11096345419E+03  0.20840214546E+03  0.17200000000E+03 0.  1.
</event>
<event>
 4    1  0.1232978E+000  0.1896180E+03  0.7818608E-02  0.1158806E+00
         21   -1    0    0  503  502  0.00000000000E+00  0.00000000000E+00  0.40806836806E+03  0.40806836806E+03  0.00000000000E+00 0.  1.
         21   -1    0    0  501  503 -0.00000000000E+00 -0.00000000000E+00 -0.10078917767E+03  0.10078917767E+03  0.00000000000E+00 0.  1.
          6    1    1    2  501    0 -0.45887243042E+02  0.65309640174E+02  0.63399139511E+02  0.19993608745E+03  0.17200000000E+03 0.  1.
         -6    1    1    2    0  502  0.45887243042E+02 -0.65309640174E+02  0.24388005088E+03  0.30892145829E+03  0.17200000000E+03 0.  1.
</event>
<event>
 4    1  0.1232978E+000  0.1743536E+03  0.7818608E-02  0.1173382E+00
         21   -1    0    0  501  502  0.00000000000E+00  0.00000000000E+00  0.38040611815E+03  0.38040611815E+03  0.00000000000E+00 0. -1.
         21   -1    0    0  502  503 -0.00000000000E+00 -0.00000000000E+00 -0.93001666405E+02  0.93001666405E+02  0.00000000000E+00 0. -1.
          6    1    1    2  501    0 -0.11564570764E+02  0.26104308550E+02  0.23250311694E+03  0.29061464796E+03  0.17200000000E+03 0. -1.
         -6    1    1    2    0  503  0.11564570764E+02 -0.26104308550E+02  0.54901334798E+02  0.18279313659E+03  0.17200000000E+03 0. -1.
</event>
<event>
 4    1  0.1232978E+000  0.1965524E+03  0.7818608E-02  0.1152681E+00
         21   -1    0    0  503  502  0.00000000000E+00  0.00000000000E+00  0.46061114066E+03  0.46061114066E+03  0.00000000000E+00 0. -1.
         21   -1    0    0  501  503 -0.00000000000E+00 -0.00000000000E+00 -0.94731612246E+02  0.94731612246E+02  0.00000000000E+00 0. -1.
          6    1    1    2  501    0 -0.42851933158E+02  0.84926772996E+02  0.27694899917E+03  0.33960799915E+03  0.17200000000E+03 0. -1.
         -6    1    1    2    0  502  0.42851933158E+02 -0.84926772996E+02  0.88930529248E+02  0.21573475376E+03  0.17200000000E+03 0. -1.
</event>
<event>
 4    1  0.1232978E+000  0.2837234E+03  0.7818608E-02  0.1093673E+00
         21   -1    0    0  503  502  0.00000000000E+00  0.00000000000E+00  0.11679694015E+03  0.11679694015E+03  0.00000000000E+00 0. -1.
         21   -1    0    0  501  503 -0.00000000000E+00 -0.00000000000E+00 -0.89936408314E+03  0.89936408314E+03  0.00000000000E+00 0.  1.
          6    1    1    2  501    0 -0.21681196132E+03  0.62510312002E+02 -0.63687984363E+03  0.69721940657E+03  0.17200000000E+03 0.  1.
         -6    1    1    2    0  502  0.21681196132E+03 -0.62510312002E+02 -0.14568729937E+03  0.31894161672E+03  0.17200000000E+03 0. -1.
</event>
<event>
 4    1  0.1232978E+000  0.2183200E+03  0.7818608E-02  0.1135142E+00
         21   -1    0    0  501  502  0.00000000000E+00  0.00000000000E+00  0.11245836900E+04  0.11245836900E+04  0.00000000000E+00 0.  1.
         21   -1    0    0  502  503 -0.00000000000E+00 -0.00000000000E+00 -0.46614419763E+02  0.46614419763E+02  0.00000000000E+00 0. -1.
          6    1    1    2  501    0  0.90472361713E+02  0.99470370219E+02  0.71541214050E+03  0.74798270940E+03  0.17200000000E+03 0.  1.
         -6    1    1    2    0  503 -0.90472361713E+02 -0.99470370219E+02  0.36255712977E+03  0.42321540039E+03  0.17200000000E+03 0. -1.
</event>
<event>
 4    1  0.1232978E+000  0.1964399E+03  0.7818608E-02  0.1152778E+00
         21   -1    0    0  501  502  0.00000000000E+00  0.00000000000E+00  0.13738870741E+03  0.13738870741E+03  0.00000000000E+00 0.  1.
         21   -1    0    0  502  503 -0.00000000000E+00 -0.00000000000E+00 -0.28310899709E+03  0.28310899709E+03  0.00000000000E+00 0.  1.
          6    1    1    2  501    0  0.54409363708E+02  0.77744891136E+02 -0.91549112783E+02  0.21672537232E+03  0.17200000000E+03 0. -1.
         -6    1    1    2    0  503 -0.54409363708E+02 -0.77744891136E+02 -0.54171176897E+02  0.20377233218E+03  0.17200000000E+03 0. -1.
</event>
<event>
 4    1  0.1232978E+000  0.3273460E+03  0.7818608E-02  0.1072317E+00
         21   -1    0    0  501  502  0.00000000000E+00  0.00000000000E+00  0.69503805971E+03  0.69503805971E+03  0.00000000000E+00 0.  1.
         21   -1    0    0  502  503 -0.00000000000E+00 -0.00000000000E+00 -0.15438075362E+03  0.15438075362E+03  0.00000000000E+00 0.  1.
          6    1    1    2  501    0  0.23151642073E+03  0.15482744023E+03  0.25471013271E+03  0.41476817744E+03  0.17200000000E+03 0. -1.
         -6    1    1    2    0  503 -0.23151642073E+03 -0.15482744023E+03  0.28594717338E+03  0.43465063589E+03  0.17200000000E+03 0. -1.
</event>
<event>
 4    1  0.1232978E+000  0.2423878E+03  0.7818608E-02  0.1118212E+00
         21   -1    0    0  503  502  0.00000000000E+00  0.00000000000E+00  0.72928175069E+03  0.72928175069E+03  0.00000000000E+00 0.  1.
         21   -1    0    0  501  503 -0.00000000000E+00 -0.00000000000E+00 -0.13700309233E+03  0.13700309233E+03  0.00000000000E+00 0.  1.
          6    1    1    2  501    0 -0.14311164785E+02 -0.17018537009E+03  0.18125743344E+02  0.24306462557E+03  0.17200000000E+03 0.  1.
         -6    1    1    2    0  502  0.14311164785E+02  0.17018537009E+03  0.57415291501E+03  0.62322021746E+03  0.17200000000E+03 0.  1.
</event>
<event>
 4    1  0.1232978E+000  0.1875602E+03  0.7818608E-02  0.1160680E+00
         21   -1    0    0  503  502  0.00000000000E+00  0.00000000000E+00  0.42174046796E+03  0.42174046796E+03  0.00000000000E+00 0.  1.
         21   -1    0    0  501  503 -0.00000000000E+00 -0.00000000000E+00 -0.30100510882E+03  0.30100510882E+03  0.00000000000E+00 0.  1.
          6    1    1    2  501    0  0.70223341815E+02 -0.25759024066E+02 -0.24688069446E+03  0.31004664545E+03  0.17200000000E+03 0.  1.
         -6    1    1    2    0  502 -0.70223341815E+02  0.25759024066E+02  0.36761605360E+03  0.41269893133E+03  0.17200000000E+03 0.  1.
</event>
<event>
 4    1  0.1232978E+000  0.1740071E+03  0.7818608E-02  0.1173732E+00
         21   -1    0    0  501  502  0.00000000000E+00  0.00000000000E+00  0.10886151915E+04  0.10886151915E+04  0.00000000000E+00 0.  1.
         21   -1    0    0  502  503 -0.00000000000E+00 -0.00000000000E+00 -0.27855499135E+02  0.27855499135E+02  0.00000000000E+00 0.  1.
          6    1    1    2  501    0  0.20822104701E+02 -0.16152257837E+02  0.55199501942E+03  0.57877193863E+03  0.17200000000E+03 0. -1.
         -6    1    1    2    0  503 -0.20822104701E+02  0.16152257837E+02  0.50876467299E+03  0.53769875206E+03  0.17200000000E+03 0. -1.
</event>
<event>
 4    1  0.1232978E+000  0.2409409E+03  0.7818608E-02  0.1119168E+00
         21   -1    0    0  501  502  0.00000000000E+00  0.00000000000E+00  0.93505987721E+03  0.93505987721E+03  0.00000000000E+00 0.  1.
         21   -1    0    0  502  503 -0.00000000000E+00 -0.00000000000E+00 -0.99716287030E+02  0.99716287030E+02  0.00000000000E+00 0.  1.
          6    1    1    2  501    0 -0.38754410988E+01  0.16868163461E+03  0.73551439229E+03  0.77397282521E+03  0.17200000000E+03 0.  1.
         -6    1    1    2    0  503  0.38754410988E+01 -0.16868163461E+03  0.99829197891E+02  0.26080333903E+03  0.17200000000E+03 0.  1.
</event>
<event>
 4    1  0.1232978E+000  0.1731896E+03  0.7818608E-02  0.1174562E+00
         21   -1    0    0  503  502  0.00000000000E+00  0.00000000000E+00  0.35726606560E+02  0.35726606560E+02  0.00000000000E+00 0.  1.
         21   -1    0    0  501  503 -0.00000000000E+00 -0.00000000000E+00 -0.91904741223E+03  0.91904741223E+03  0.00000000000E+00 0.  1.
          6    1    1    2  501    0 -0.41748085795E+01 -0.19829534193E+02 -0.30126590753E+03  0.34749933308E+03  0.17200000000E+03 0.  1.
         -6    1    1    2    0  502  0.41748085795E+01  0.19829534193E+02 -0.58205489814E+03  0.60727468571E+03  0.17200000000E+03 0.  1.
</event>
<event>
 4    1  0.1232978E+000  0.2535285E+03  0.7818608E-02  0.1111095E+00
         21   -1    0    0  503  502  0.00000000000E+00  0.00000000000E+00  0.12008435586E+04  0.12008435586E+04  0.00000000000E+00 0.  1.
         21   -1    0    0  501  503 -0.00000000000E+00 -0.00000000000E+00 -0.68875169635E+02  0.68875169635E+02  0.00000000000E+00 0. -1.
          6    1    1    2  501    0 -0.18092650522E+03 -0.44252593784E+02  0.26628565535E+03  0.36767477829E+03  0.17200000000E+03 0.  1.
         -6    1    1    2    0  502  0.18092650522E+03  0.44252593784E+02  0.86568273365E+03  0.90204394997E+03  0.17200000000E+03 0.  1.
</event>
<event>
 4    1  0.1232978E+000  0.1878259E+03  0.7818608E-02  0.1160437E+00
         21   -1    0    0  503  502  0.00000000000E+00  0.00000000000E+00  0.27555425186E+03  0.27555425186E+03  0.00000000000E+00 0.  1.
         21   -1    0    0  501  503 -0.00000000000E+00 -0.00000000000E+00 -0.13634634406E+03  0.13634634406E+03  0.00000000000E+00 0.  1.
          6    1    1    2  501    0  0.62625080080E+02 -0.42103221190E+02  0.12047451081E+03  0.22314275620E+03  0.17200000000E+03 0. -1.
         -6    1    1    2    0  502 -0.62625080080E+02  0.42103221190E+02  0.18733396986E+02  0.18875783971E+03  0.17200000000E+03 0. -1.
</event>
<event>
 4    1  0.1232978E+000  0.1848261E+03  0.7818608E-02  0.1163212E+00
         21   -1    0    0  503  502  0.00000000000E+00  0.00000000000E+00  0.21812019424E+03  0.21812019424E+03  0.00000000000E+00 0. -1.
         21   -1    0    0  501  503 -0.00000000000E+00 -0.00000000000E+00 -0.15734619327E+03  0.15734619327E+03  0.00000000000E+00 0. -1.
          6    1    1    2  501    0 -0.45770090461E+02  0.49817596597E+02  0.17581359395E+02  0.18566043819E+03  0.17200000000E+03 0. -1.
         -6    1    1    2    0  502  0.45770090461E+02 -0.49817596597E+02  0.43192641570E+02  0.18980594932E+03  0.17200000000E+03 0. -1.
</event>
<event>
 4    1  0.1232978E+000  0.2336707E+03  0.7818608E-02  0.1124083E+00
         21   -1    0    0  503  502  0.00000000000E+00  0.00000000000E+00  0.84294788987E+03  0.84294788987E+03  0.00000000000E+00 0. -1.
         21   -1    0    0  501  503 -0.00000000000E+00 -0.00000000000E+00 -0.64790590889E+02  0.64790590889E+02  0.00000000000E+00 0.  1.
          6    1    1    2  501    0  0.14420093988E+03 -0.64992958101E+02  0.39610689980E+03  0.45989419624E+03  0.17200000000E+03 0.  1.
         -6    1    1    2    0  502 -0.14420093988E+03  0.64992958101E+02  0.38205039918E+03  0.44784428452E+03  0.17200000000E+03 0.  1.
</event>
<event>
 4    1  0.1232978E+000  0.1762969E+03  0.7818608E-02  0.1171436E+00
         21   -1    0    0  503  502  0.00000000000E+00  0.00000000000E+00  0.11670597331E+04  0.11670597331E+04  0.00000000000E+00 0.  1.
         21   -1    0    0  501  503 -0.00000000000E+00 -0.00000000000E+00 -0.27453729092E+02  0.27453729092E+02  0.00000000000E+00 0.  1.
          6    1    1    2  501    0 -0.86508836530E+01 -0.37706337758E+02  0.46644490918E+03  0.49864963551E+03  0.17200000000E+03 0.  1.
         -6    1    1    2    0  502  0.86508836530E+01  0.37706337758E+02  0.67316109485E+03  0.69586382671E+03  0.17200000000E+03 0.  1.
</event>
<event>
 4    1  0.1232978E+000  0.1968563E+03  0.7818608E-02  0.1152419E+00
         21   -1    0    0  501  502  0.00000000000E+00  0.00000000000E+00  0.59627931913E+03  0.59627931913E+03  0.00000000000E+00 0.  1.
         21   -1    0    0  502  503 -0.00000000000E+00 -0.00000000000E+00 -0.78474919575E+02  0.78474919575E+02  0.00000000000E+00 0.  1.
          6    1    1    2  501    0 -0.88183189272E+02  0.37311041860E+02  0.39875432796E+03  0.44469922733E+03  0.17200000000E+03 0.  1.
         -6    1    1    2    0  503  0.88183189272E+02 -0.37311041860E+02  0.11905007159E+03  0.23005501138E+03  0.17200000000E+03 0.  1.
</event>
<event>
 4    1  0.1232978E+000  0.1884981E+03  0.7818608E-02  0.1159823E+00
         21   -1    0    0  503  502  0.00000000000E+00  0.00000000000E+00  0.39349302261E+03  0.39349302261E+03  0.00000000000E+00 0.  1.
         21   -1    0    0  501  503 -0.00000000000E+00 -0.00000000000E+00 -0.98242506891E+02  0.98242506891E+02  0.00000000000E+00 0.  1.
          6    1    1    2  501    0 -0.19836209007E+02 -0.74525629276E+02  0.21754365841E+03  0.28784855032E+03  0.17200000000E+03 0.  1.
         -6    1    1    2    0  502  0.19836209007E+02  0.74525629276E+02  0.77706857307E+02  0.20388697918E+03  0.17200000000E+03 0.  1.
</event>
<event>
 4    1  0.1232978E+000  0.1856736E+03  0.7818608E-02  0.1162422E+00
         21   -1    0    0  503  502  0.00000000000E+00  0.00000000000E+00  0.93935168677E+02  0.93935168677E+02  0.00000000000E+00 0. -1.
         21   -1    0    0  501  503 -0.00000000000E+00 -0.00000000000E+00 -0.51404456089E+03  0.51404456089E+03  0.00000000000E+00 0. -1.
          6    1    1    2  501    0 -0.24118742527E+01 -0.69891903136E+02 -0.37263784286E+03  0.41633358883E+03  0.17200000000E+03 0. -1.
         -6    1    1    2    0  502  0.24118742527E+01  0.69891903136E+02 -0.47471549360E+02  0.19164614074E+03  0.17200000000E+03 0. -1.
</event>
<event>
 4    1  0.1232978E+000  0.1797054E+03  0.7818608E-02  0.1168088E+00
         21   -1    0    0  501  502  0.00000000000E+00  0.00000000000E+00  0.10426223449E+03  0.10426223449E+03  0.00000000000E+00 0. -1.
         21   -1    0    0  502  503 -0.00000000000E+00 -0.00000000000E+00 -0.33688177865E+03  0.33688177865E+03  0.00000000000E+00 0. -1.
          6    1    1    2  501    0  0.17114674348E+02 -0.49164135970E+02 -0.17891968149E+03  0.25358682294E+03  0.17200000000E+03 0.  1.
         -6    1    1    2    0  503 -0.17114674348E+02  0.49164135970E+02 -0.53699862667E+02  0.18755719020E+03  0.17200000000E+03 0.  1.
</event>
<event>
 4    1  0.1232978E+000  0.2101691E+03  0.7818608E-02  0.1141432E+00
         21   -1    0    0  503  502  0.00000000000E+00  0.00000000000E+00  0.12789913413E+03  0.12789913413E+03  0.00000000000E+00 0. -1.
         21   -1    0    0  501  503 -0.00000000000E+00 -0.00000000000E+00 -0.35173035902E+03  0.35173035902E+03  0.00000000000E+00 0. -1.
          6    1    1    2  501    0  0.16910026077E+02  0.11958715326E+03 -0.14419375545E+03  0.25487815779E+03  0.17200000000E+03 0. -1.
         -6    1    1    2    0  502 -0.16910026077E+02 -0.11958715326E+03 -0.79637469438E+02  0.22475133536E+03  0.17200000000E+03 0. -1.
</event>
<event>
 4    1  0.1232978E+000  0.1743792E+03  0.7818608E-02  0.1173357E+00
         21   -1    0    0  503  502  0.00000000000E+00  0.00000000000E+00  0.29489035659E+02  0.29489035659E+02  0.00000000000E+00 0.  1.
         21   -1    0    0  501  503 -0.00000000000E+00 -0.00000000000E+00 -0.10936025183E+04  0.10936025183E+04  0.00000000000E+00 0.  1.
          6    1    1    2  501    0  0.55141682527E+01  0.28172503836E+02 -0.39788095339E+03  0.43441610133E+03  0.17200000000E+03 0.  1.
         -6    1    1    2    0  502 -0.55141682527E+01 -0.28172503836E+02 -0.66623252929E+03  0.68867545266E+03  0.17200000000E+03 0.  1.
</event>
<event>
 4    1  0.1232978E+000  0.2015368E+03  0.7818608E-02  0.1148449E+00
         21   -1    0    0  503  502  0.00000000000E+00  0.00000000000E+00  0.39301343186E+03  0.39301343186E+03  0.00000000000E+00 0.  1.
         21   -1    0    0  501  503 -0.00000000000E+00 -0.00000000000E+00 -0.10506184237E+03  0.10506184237E+03  0.00000000000E+00 0.  1.
          6    1    1    2  501    0 -0.98407897607E+02  0.36728532993E+02  0.17578442081E+03  0.26742711539E+03  0.17200000000E+03 0.  1.
         -6    1    1    2    0  502  0.98407897607E+02 -0.36728532993E+02  0.11216716868E+03  0.23064815884E+03  0.17200000000E+03 0.  1.
</event>
<event>
 4    1  0.1232978E+000  0.3001203E+03  0.7818608E-02  0.1085181E+00
         21   -1    0    0  501  502  0.00000000000E+00  0.00000000000E+00  0.22223686502E+03  0.22223686502E+03  0.00000000000E+00 0.  1.
         21   -1    0    0  502  503 -0.00000000000E+00 -0.00000000000E+00 -0.11771930244E+04  0.11771930244E+04  0.00000000000E+00 0. -1.
          6    1    1    2  501    0  0.23896371771E+03 -0.58176516785E+02  0.89121724000E+02  0.31307322973E+03  0.17200000000E+03 0.  1.
         -6    1    1    2    0  503 -0.23896371771E+03  0.58176516785E+02 -0.10440778834E+04  0.10863566597E+04  0.17200000000E+03 0.  1.
</event>
<event>
 4    1  0.1232978E+000  0.1941457E+03  0.7818608E-02  0.1154774E+00
         21   -1    0    0  501  502  0.00000000000E+00  0.00000000000E+00  0.20460770498E+03  0.20460770498E+03  0.00000000000E+00 0.  1.
         21   -1    0    0  502  503 -0.00000000000E+00 -0.00000000000E+00 -0.23227006544E+03  0.23227006544E+03  0.00000000000E+00 0. -1.
          6    1    1    2  501    0  0.87819704479E+02 -0.19905983027E+02 -0.11318545720E+03  0.22472982975E+03  0.17200000000E+03 0. -1.
         -6    1    1    2    0  503 -0.87819704479E+02  0.19905983027E+02  0.85523096744E+02  0.21214794067E+03  0.17200000000E+03 0.  1.
</event>
<event>
 4    1  0.1232978E+000  0.2423255E+03  0.7818608E-02  0.1118253E+00
         21   -1    0    0  503  502  0.00000000000E+00  0.00000000000E+00  0.24095027552E+04  0.24095027552E+04  0.00000000000E+00 0.  1.
         21   -1    0    0  501  503 -0.00000000000E+00 -0.00000000000E+00 -0.26197134458E+02  0.26197134458E+02  0.00000000000E+00 0. -1.
          6    1    1    2  501    0 -0.16603185015E+03  0.39636493365E+02  0.87010077477E+03  0.90321480563E+03  0.17200000000E+03 0. -1.
         -6    1    1    2    0  502  0.16603185015E+03 -0.39636493365E+02  0.15132048459E+04  0.15324850840E+04  0.17200000000E+03 0.  1.
</event>
<event>
 4    1  0.1232978E+000  0.2418086E+03  0.7818608E-02  0.1118594E+00
         21   -1    0    0  501  502  0.00000000000E+00  0.00000000000E+00  0.22259237970E+03  0.22259237970E+03  0.00000000000E+00 0.  1.
         21   -1    0    0  502  503 -0.00000000000E+00 -0.00000000000E+00 -0.37805259208E+03  0.37805259208E+03  0.00000000000E+00 0.  1.
          6    1    1    2  501    0 -0.16970122426E+03  0.94271301394E+01  0.88173648895E+02  0.25738292223E+03  0.17200000000E+03 0.  1.
         -6    1    1    2    0  503  0.16970122426E+03 -0.94271301394E+01 -0.24363386128E+03  0.34326204954E+03  0.17200000000E+03 0.  1.
</event>
<event>
 4    1  0.1232978E+000  0.3761353E+03  0.7818608E-02  0.1052371E+00
         21   -1    0    0  501  502  0.00000000000E+00  0.00000000000E+00  0.63273057972E+03  0.63273057972E+03  0.00000000000E+00 0.  1.
         21   -1    0    0  502  503 -0.00000000000E+00 -0.00000000000E+00 -0.28238519346E+03  0.28238519346E+03  0.00000000000E+00 0. -1.
          6    1    1    2  501    0 -0.17190948931E+03  0.28695107175E+03 -0.33595119774E+02  0.37763265506E+03  0.17200000000E+03 0. -1.
         -6    1    1    2    0  503  0.17190948931E+03 -0.28695107175E+03  0.38394050604E+03  0.53748311813E+03  0.17200000000E+03 0.  1.
</event>
<event>
 4    1  0.1232978E+000  0.5402929E+03  0.7818608E-02  0.1003766E+00
         21   -1    0    0  503  502  0.00000000000E+00  0.00000000000E+00  0.41272891941E+03  0.41272891941E+03  0.00000000000E+00 0.  1.
         21   -1    0    0  501  503 -0.00000000000E+00 -0.00000000000E+00 -0.89517932969E+03  0.89517932969E+03  0.00000000000E+00 0. -1.
          6    1    1    2  501    0 -0.22007321634E+03  0.46249343350E+03 -0.54083134815E+03  0.76447036811E+03  0.17200000000E+03 0. -1.
         -6    1    1    2    0  502  0.22007321634E+03 -0.46249343350E+03  0.58380937870E+02  0.54343788098E+03  0.17200000000E+03 0.  1.
</event>
<event>
 4    1  0.1232978E+000  0.3032769E+03  0.7818608E-02  0.1083614E+00
         21   -1    0    0  503  502  0.00000000000E+00  0.00000000000E+00  0.13657392384E+04  0.13657392384E+04  0.00000000000E+00 0. -1.
         21   -1    0    0  501  503 -0.00000000000E+00 -0.00000000000E+00 -0.78884110444E+02  0.78884110444E+02  0.00000000000E+00 0.  1.
          6    1    1    2  501    0  0.82568857296E+02  0.23574404177E+03  0.36717899098E+03  0.47623238114E+03  0.17200000000E+03 0.  1.
         -6    1    1    2    0  502 -0.82568857296E+02 -0.23574404177E+03  0.91967613699E+03  0.96839096772E+03  0.17200000000E+03 0.  1.
</event>
<event>
 4    1  0.1232978E+000  0.1933315E+03  0.7818608E-02  0.1155490E+00
         21   -1    0    0  501  502  0.00000000000E+00  0.00000000000E+00  0.19648849645E+03  0.19648849645E+03  0.00000000000E+00 0. -1.
         21   -1    0    0  502  503 -0.00000000000E+00 -0.00000000000E+00 -0.19049146406E+03  0.19049146406E+03  0.00000000000E+00 0. -1.
          6    1    1    2  501    0 -0.60740468040E+02 -0.64059979154E+02  0.10230980188E+02  0.19360206182E+03  0.17200000000E+03 0.  1.
         -6    1    1    2    0  503  0.60740468040E+02  0.64059979154E+02 -0.42339478029E+01  0.19337789869E+03  0.17200000000E+03 0.  1.
</event>
<event>
 4    1  0.1232978E+000  0.2350674E+03  0.7818608E-02  0.1123123E+00
         21   -1    0    0  501  502  0.00000000000E+00  0.00000000000E+00  0.15161136023E+03  0.15161136023E+03  0.00000000000E+00 0.  1.
         21   -1    0    0  502  503 -0.00000000000E+00 -0.00000000000E+00 -0.42064837746E+03  0.42064837746E+03  0.00000000000E+00 0.  1.
          6    1    1    2  501    0 -0.12121300769E+03 -0.10478597584E+03 -0.29946322556E+02  0.23696724710E+03  0.17200000000E+03 0.  1.
         -6    1    1    2    0  503  0.12121300769E+03  0.10478597584E+03 -0.23909069467E+03  0.33529249059E+03  0.17200000000E+03 0.  1.
</event>
<event>
 4    1  0.1232978E+000  0.2489049E+03  0.7818608E-02  0.1113999E+00
         21   -1    0    0  503  502  0.00000000000E+00  0.00000000000E+00  0.13393196929E+04  0.13393196929E+04  0.00000000000E+00 0. -1.
         21   -1    0    0  501  503 -0.00000000000E+00 -0.00000000000E+00 -0.48274928783E+02  0.48274928783E+02  0.00000000000E+00 0. -1.
          6    1    1    2  501    0  0.17050403670E+03 -0.57428537708E+02  0.50369364204E+03  0.56183711920E+03  0.17200000000E+03 0. -1.
         -6    1    1    2    0  502 -0.17050403670E+03  0.57428537708E+02  0.78735112207E+03  0.82575750247E+03  0.17200000000E+03 0. -1.
</event>
<event>
 4    1  0.1232978E+000  0.2388622E+03  0.7818608E-02  0.1120553E+00
         21   -1    0    0  501  502  0.00000000000E+00  0.00000000000E+00  0.24580943863E+03  0.24580943863E+03  0.00000000000E+00 0. -1.
         21   -1    0    0  502  503 -0.00000000000E+00 -0.00000000000E+00 -0.24339550849E+03  0.24339550849E+03  0.00000000000E+00 0.  1.
          6    1    1    2  501    0 -0.12188933603E+03  0.11231259679E+03 -0.51460398731E+02  0.24434259202E+03  0.17200000000E+03 0.  1.
         -6    1    1    2    0  503  0.12188933603E+03 -0.11231259679E+03  0.53874328875E+02  0.24486235511E+03  0.17200000000E+03 0.  1.
</event>
<event>
 4    1  0.1232978E+000  0.2376926E+03  0.7818608E-02  0.1121340E+00
         21   -1    0    0  503  502  0.00000000000E+00  0.00000000000E+00  0.32715014236E+03  0.32715014236E+03  0.00000000000E+00 0. -1.
         21   -1    0    0  501  503 -0.00000000000E+00 -0.00000000000E+00 -0.23764480184E+03  0.23764480184E+03  0.00000000000E+00 0.  1.
          6    1    1    2  501    0 -0.23247515602E+02  0.16239869400E+03 -0.10287900279E+03  0.25900168341E+03  0.17200000000E+03 0.  1.
         -6    1    1    2    0  502  0.23247515602E+02 -0.16239869400E+03  0.19238434331E+03  0.30579326079E+03  0.17200000000E+03 0.  1.
</event>
<event>
 4    1  0.1232978E+000  0.2218102E+03  0.7818608E-02  0.1132541E+00
         21   -1    0    0  503  502  0.00000000000E+00  0.00000000000E+00  0.59347837287E+02  0.59347837287E+02  0.00000000000E+00 0. -1.
         21   -1    0    0  501  503 -0.00000000000E+00 -0.00000000000E+00 -0.90854563301E+03  0.90854563301E+03  0.00000000000E+00 0.  1.
          6    1    1    2  501    0  0.12104860808E+03 -0.70448537854E+02 -0.56778924369E+03  0.60957722009E+03  0.17200000000E+03 0.  1.
         -6    1    1    2    0  502 -0.12104860808E+03  0.70448537854E+02 -0.28140855203E+03  0.35831625021E+03  0.17200000000E+03 0. -1.
</event>
<event>
 4    1  0.1232978E+000  0.2261164E+03  0.7818608E-02  0.1129403E+00
         21   -1    0    0  503  502  0.00000000000E+00  0.00000000000E+00  0.86197143585E+03  0.86197143585E+03  0.00000000000E+00 0. -1.
         21   -1    0    0  501  503 -0.00000000000E+00 -0.00000000000E+00 -0.62378648627E+02  0.62378648627E+02  0.00000000000E+00 0.  1.
          6    1    1    2  501    0 -0.12014789910E+03 -0.84315585904E+02  0.29738643384E+03  0.37358710727E+03  0.17200000000E+03 0. -1.
         -6    1    1    2    0  502  0.12014789910E+03  0.84315585904E+02  0.50220635338E+03  0.55076297721E+03  0.17200000000E+03 0. -1.
</event>
<event>
 4    1  0.1232978E+000  0.1993999E+03  0.7818608E-02  0.1150246E+00
         21   -1    0    0  501  502  0.00000000000E+00  0.00000000000E+00  0.27781780999E+03  0.27781780999E+03  0.00000000000E+00 0.  1.
         21   -1    0    0  502  503 -0.00000000000E+00 -0.00000000000E+00 -0.25869007048E+03  0.25869007048E+03  0.00000000000E+00 0. -1.
          6    1    1    2  501    0 -0.97073215005E+02  0.27442888704E+02  0.18886599498E+03  0.27464647326E+03  0.17200000000E+03 0.  1.
         -6    1    1    2    0  503  0.97073215005E+02 -0.27442888704E+02 -0.16973825548E+03  0.26186140721E+03  0.17200000000E+03 0. -1.
</event>
<event>
 4    1  0.1232978E+000  0.2305195E+03  0.7818608E-02  0.1126275E+00
         21   -1    0    0  501  502  0.00000000000E+00  0.00000000000E+00  0.86066504124E+03  0.86066504124E+03  0.00000000000E+00 0.  1.
         21   -1    0    0  502  503 -0.00000000000E+00 -0.00000000000E+00 -0.62189010058E+02  0.62189010058E+02  0.00000000000E+00 0.  1.
          6    1    1    2  501    0 -0.14787016760E+03 -0.41105605759E+02  0.43835467645E+03  0.49527172306E+03  0.17200000000E+03 0. -1.
         -6    1    1    2    0  503  0.14787016760E+03  0.41105605759E+02  0.36012135473E+03  0.42758232824E+03  0.17200000000E+03 0. -1.
</event>
<event>
 4    1  0.1232978E+000  0.2366606E+03  0.7818608E-02  0.1122038E+00
         21   -1    0    0  503  502  0.00000000000E+00  0.00000000000E+00  0.15829325406E+03  0.15829325406E+03  0.00000000000E+00 0.  1.
         21   -1    0    0  501  503 -0.00000000000E+00 -0.00000000000E+00 -0.38135722871E+03  0.38135722871E+03  0.00000000000E+00 0. -1.
          6    1    1    2  501    0  0.10026450382E+03 -0.12795030400E+03 -0.18403069605E+03  0.29979250843E+03  0.17200000000E+03 0.  1.
         -6    1    1    2    0  502 -0.10026450382E+03  0.12795030400E+03 -0.39033278602E+02  0.23985797435E+03  0.17200000000E+03 0. -1.
</event>
<event>
 4    1  0.1232978E+000  0.2169035E+03  0.7818608E-02  0.1136213E+00
         21   -1    0    0  501  502  0.00000000000E+00  0.00000000000E+00  0.33297888980E+03  0.33297888980E+03  0.00000000000E+00 0. -1.
         21   -1    0    0  502  503 -0.00000000000E+00 -0.00000000000E+00 -0.16393458156E+03  0.16393458156E+03  0.00000000000E+00 0. -1.
          6    1    1    2  501    0  0.11359002515E+03  0.67531078722E+02  0.17686041878E+03  0.27986916254E+03  0.17200000000E+03 0. -1.
         -6    1    1    2    0  503 -0.11359002515E+03 -0.67531078722E+02 -0.78161105454E+01  0.21704430882E+03  0.17200000000E+03 0. -1.
</event>
<event>
 4    1  0.1232978E+000  0.1944464E+03  0.7818608E-02  0.1154511E+00
         21   -1    0    0  501  502  0.00000000000E+00  0.00000000000E+00  0.98070009568E+02  0.98070009568E+02  0.00000000000E+00 0. -1.
         21   -1    0    0  502  503 -0.00000000000E+00 -0.00000000000E+00 -0.38684479426E+03  0.38684479426E+03  0.00000000000E+00 0. -1.
          6    1    1    2  501    0 -0.88887926858E+02 -0.18009584520E+02 -0.13027860532E+03  0.23405538592E+03  0.17200000000E+03 0. -1.
         -6    1    1    2    0  503  0.88887926858E+02  0.18009584520E+02 -0.15849617937E+03  0.25085941791E+03  0.17200000000E+03 0. -1.
</event>
<event>
 4    1  0.1232978E+000  0.1836643E+03  0.7818608E-02  0.1164303E+00
         21   -1    0    0  503  502  0.00000000000E+00  0.00000000000E+00  0.71743275467E+03  0.71743275467E+03  0.00000000000E+00 0.  1.
         21   -1    0    0  501  503 -0.00000000000E+00 -0.00000000000E+00 -0.56263099246E+02  0.56263099246E+02  0.00000000000E+00 0.  1.
          6    1    1    2  501    0 -0.46103198898E+02 -0.44978717786E+02  0.17377502366E+03  0.25284451517E+03  0.17200000000E+03 0.  1.
         -6    1    1    2    0  502  0.46103198898E+02  0.44978717786E+02  0.48739463177E+03  0.52085133875E+03  0.17200000000E+03 0.  1.
</event>
<event>
 4    1  0.1232978E+000  0.1848489E+03  0.7818608E-02  0.1163191E+00
         21   -1    0    0  501  502  0.00000000000E+00  0.00000000000E+00  0.63043419140E+02  0.63043419140E+02  0.00000000000E+00 0. -1.
         21   -1    0    0  502  503 -0.00000000000E+00 -0.00000000000E+00 -0.63247239530E+03  0.63247239530E+03  0.00000000000E+00 0. -1.
          6    1    1    2  501    0 -0.57623373903E+02  0.35562067846E+02 -0.15318284887E+03  0.24007102924E+03  0.17200000000E+03 0. -1.
         -6    1    1    2    0  503  0.57623373903E+02 -0.35562067846E+02 -0.41624612729E+03  0.45544478520E+03  0.17200000000E+03 0. -1.
</event>
<event>
 4    1  0.1232978E+000  0.1877290E+03  0.7818608E-02  0.1160526E+00
         21   -1    0    0  501  502  0.00000000000E+00  0.00000000000E+00  0.10331075513E+03  0.10331075513E+03  0.00000000000E+00 0.  1.
         21   -1    0    0  502  503 -0.00000000000E+00 -0.00000000000E+00 -0.40425926064E+03  0.40425926064E+03  0.00000000000E+00 0.  1.
          6    1    1    2  501    0 -0.23289954981E+02 -0.71524379634E+02 -0.50183871220E+02  0.19432081673E+03  0.17200000000E+03 0.  1.
         -6    1    1    2    0  503  0.23289954981E+02  0.71524379634E+02 -0.25076463430E+03  0.31324919904E+03  0.17200000000E+03 0.  1.
</event>
<event>
 4    1  0.1232978E+000  0.2246789E+03  0.7818608E-02  0.1130442E+00
         21   -1    0    0  503  502  0.00000000000E+00  0.00000000000E+00  0.41748612530E+03  0.41748612530E+03  0.00000000000E+00 0. -1.
         21   -1    0    0  501  503 -0.00000000000E+00 -0.00000000000E+00 -0.14689677982E+03  0.14689677982E+03  0.00000000000E+00 0.  1.
          6    1    1    2  501    0 -0.12269583695E+03  0.76435115977E+02  0.16617565745E+02  0.22529256280E+03  0.17200000000E+03 0.  1.
         -6    1    1    2    0  502  0.12269583695E+03 -0.76435115977E+02  0.25397177973E+03  0.33909034233E+03  0.17200000000E+03 0. -1.
</event>
<event>
 4    1  0.1232978E+000  0.1754661E+03  0.7818608E-02  0.1172264E+00
         21   -1    0    0  503  502  0.00000000000E+00  0.00000000000E+00  0.10991137574E+03  0.10991137574E+03  0.00000000000E+00 0. -1.
         21   -1    0    0  501  503 -0.00000000000E+00 -0.00000000000E+00 -0.34531326991E+03  0.34531326991E+03  0.00000000000E+00 0. -1.
          6    1    1    2  501    0 -0.27699555534E+02  0.20906879647E+02 -0.18802181698E+02  0.17647063504E+03  0.17200000000E+03 0.  1.
         -6    1    1    2    0  502  0.27699555534E+02 -0.20906879647E+02 -0.21659971247E+03  0.27875401062E+03  0.17200000000E+03 0.  1.
</event>
<event>
 4    1  0.1232978E+000  0.2260724E+03  0.7818608E-02  0.1129435E+00
         21   -1    0    0  501  502  0.00000000000E+00  0.00000000000E+00  0.18941745403E+03  0.18941745403E+03  0.00000000000E+00 0. -1.
         21   -1    0    0  502  503 -0.00000000000E+00 -0.00000000000E+00 -0.27540959019E+03  0.27540959019E+03  0.00000000000E+00 0.  1.
          6    1    1    2  501    0  0.14037932740E+03 -0.42642368081E+02 -0.98875796864E+01  0.22628851352E+03  0.17200000000E+03 0. -1.
         -6    1    1    2    0  503 -0.14037932740E+03  0.42642368081E+02 -0.76104556466E+02  0.23853853071E+03  0.17200000000E+03 0. -1.
</event>
<event>
 4    1  0.1232978E+000  0.1911032E+03  0.7818608E-02  0.1157470E+00
         21   -1    0    0  501  502  0.00000000000E+00  0.00000000000E+00  0.61751751030E+03  0.61751751030E+03  0.00000000000E+00 0. -1.
         21   -1    0    0  502  503 -0.00000000000E+00 -0.00000000000E+00 -0.68611498809E+02  0.68611498809E+02  0.00000000000E+00 0.  1.
          6    1    1    2  501    0  0.70386215818E+02  0.44521969643E+02  0.40191196426E+03  0.44503219229E+03  0.17200000000E+03 0. -1.
         -6    1    1    2    0  503 -0.70386215818E+02 -0.44521969643E+02  0.14699404723E+03  0.24109681681E+03  0.17200000000E+03 0.  1.
</event>
<event>
 4    1  0.1232978E+000  0.1789681E+03  0.7818608E-02  0.1168805E+00
         21   -1    0    0  501  502  0.00000000000E+00  0.00000000000E+00  0.15016085600E+03  0.15016085600E+03  0.00000000000E+00 0.  1.
         21   -1    0    0  502  503 -0.00000000000E+00 -0.00000000000E+00 -0.42246535429E+03  0.42246535429E+03  0.00000000000E+00 0.  1.
          6    1    1    2  501    0 -0.36031376646E+02  0.33872282496E+02  0.65307648892E+02  0.19051162859E+03  0.17200000000E+03 0.  1.
         -6    1    1    2    0  503  0.36031376646E+02 -0.33872282496E+02 -0.33761214718E+03  0.38211458170E+03  0.17200000000E+03 0.  1.
</event>
<event>
 4    1  0.1232978E+000  0.2879938E+03  0.7818608E-02  0.1091401E+00
         21   -1    0    0  501  502  0.00000000000E+00  0.00000000000E+00  0.16382847859E+03  0.16382847859E+03  0.00000000000E+00 0. -1.
         21   -1    0    0  502  503 -0.00000000000E+00 -0.00000000000E+00 -0.72517137418E+03  0.72517137418E+03  0.00000000000E+00 0.  1.
          6    1    1    2  501    0  0.73900295141E+02 -0.21884960310E+03 -0.36451059608E+02  0.29029137456E+03  0.17200000000E+03 0. -1.
         -6    1    1    2    0  503 -0.73900295141E+02  0.21884960310E+03 -0.52489183598E+03  0.59870847820E+03  0.17200000000E+03 0.  1.
</event>
<event>
 4    1  0.1232978E+000  0.1829490E+03  0.7818608E-02  0.1164979E+00
         21   -1    0    0  503  502  0.00000000000E+00  0.00000000000E+00  0.53167219999E+02  0.53167219999E+02  0.00000000000E+00 0.  1.
         21   -1    0    0  501  503 -0.00000000000E+00 -0.00000000000E+00 -0.85912410219E+03  0.85912410219E+03  0.00000000000E+00 0.  1.
          6    1    1    2  501    0  0.82209155629E+01 -0.61795992347E+02 -0.63878535126E+03  0.66446749590E+03  0.17200000000E+03 0.  1.
         -6    1    1    2    0  502 -0.82209155629E+01  0.61795992347E+02 -0.16717153093E+03  0.24782382629E+03  0.17200000000E+03 0.  1.
</event>
<event>
 4    1  0.1232978E+000  0.2127236E+03  0.7818608E-02  0.1139427E+00
         21   -1    0    0  501  502  0.00000000000E+00  0.00000000000E+00  0.21528906484E+03  0.21528906484E+03  0.00000000000E+00 0. -1.
         21   -1    0    0  502  503 -0.00000000000E+00 -0.00000000000E+00 -0.21647074628E+03  0.21647074628E+03  0.00000000000E+00 0. -1.
          6    1    1    2  501    0  0.11222695367E+03 -0.55429479536E+02  0.36185215783E+02  0.21577925334E+03  0.17200000000E+03 0.  1.
         -6    1    1    2    0  503 -0.11222695367E+03  0.55429479536E+02 -0.37366897216E+02  0.21598055778E+03  0.17200000000E+03 0.  1.
</event>
<event>
 4    1  0.1232978E+000  0.1870826E+03  0.7818608E-02  0.1161119E+00
         21   -1    0    0  501  502  0.00000000000E+00  0.00000000000E+00  0.52135764919E+02  0.52135764919E+02  0.00000000000E+00 0.  1.
         21   -1    0    0  502  503 -0.00000000000E+00 -0.00000000000E+00 -0.85157931375E+03  0.85157931375E+03  0.00000000000E+00 0.  1.
          6    1    1    2  501    0 -0.68746883953E+02  0.26263595506E+02 -0.19183116991E+03  0.26795355615E+03  0.17200000000E+03 0. -1.
         -6    1    1    2    0  503  0.68746883953E+02 -0.26263595506E+02 -0.60761237892E+03  0.63576152252E+03  0.17200000000E+03 0. -1.
</event>
<event>
 4    1  0.1232978E+000  0.2068910E+03  0.7818608E-02  0.1144052E+00
         21   -1    0    0  501  502  0.00000000000E+00  0.00000000000E+00  0.90000559319E+02  0.90000559319E+02  0.00000000000E+00 0.  1.
         21   -1    0    0  502  503 -0.00000000000E+00 -0.00000000000E+00 -0.89592929573E+03  0.89592929573E+03  0.00000000000E+00 0.  1.
          6    1    1    2  501    0  0.57925060471E+02  0.99320584215E+02 -0.65307074416E+02  0.21695369333E+03  0.17200000000E+03 0. -1.
         -6    1    1    2    0  503 -0.57925060471E+02 -0.99320584215E+02 -0.74062166199E+03  0.76897616172E+03  0.17200000000E+03 0. -1.
</event>
<event>
 4    1  0.1232978E+000  0.1944112E+03  0.7818608E-02  0.1154542E+00
         21   -1    0    0  503  502  0.00000000000E+00  0.00000000000E+00  0.14375104092E+03  0.14375104092E+03  0.00000000000E+00 0. -1.
         21   -1    0    0  501  503 -0.00000000000E+00 -0.00000000000E+00 -0.28701501913E+03  0.28701501913E+03  0.00000000000E+00 0. -1.
          6    1    1    2  501    0 -0.74503981287E+01 -0.90311795582E+02 -0.13403112775E+03  0.23613570687E+03  0.17200000000E+03 0. -1.
         -6    1    1    2    0  502  0.74503981287E+01  0.90311795582E+02 -0.92328504598E+01  0.19463035319E+03  0.17200000000E+03 0. -1.
</event>
<event>
 4    1  0.1232978E+000  0.1985157E+03  0.7818608E-02  0.1150997E+00
         21   -1    0    0  501  502  0.00000000000E+00  0.00000000000E+00  0.66018625260E+03  0.66018625260E+03  0.00000000000E+00 0. -1.
         21   -1    0    0  502  503 -0.00000000000E+00 -0.00000000000E+00 -0.61743200754E+02  0.61743200754E+02  0.00000000000E+00 0. -1.
          6    1    1    2  501    0  0.82091471096E+02 -0.55547072361E+02  0.23344511528E+03  0.30643940465E+03  0.17200000000E+03 0.  1.
         -6    1    1    2    0  503 -0.82091471096E+02  0.55547072361E+02  0.36499793657E+03  0.41549004870E+03  0.17200000000E+03 0.  1.
</event>
<event>
 4    1  0.1232978E+000  0.1940949E+03  0.7818608E-02  0.1154819E+00
         21   -1    0    0  503  502  0.00000000000E+00  0.00000000000E+00  0.13315797025E+03  0.13315797025E+03  0.00000000000E+00 0.  1.
         21   -1    0    0  501  503 -0.00000000000E+00 -0.00000000000E+00 -0.28675820539E+03  0.28675820539E+03  0.00000000000E+00 0.  1.
          6    1    1    2  501    0  0.77453939796E+02 -0.45713523090E+02 -0.10109583198E+03  0.21884516496E+03  0.17200000000E+03 0.  1.
         -6    1    1    2    0  502 -0.77453939796E+02  0.45713523090E+02 -0.52504403157E+02  0.20107101068E+03  0.17200000000E+03 0.  1.
</event>
<event>
 4    1  0.1232978E+000  0.2231642E+03  0.7818608E-02  0.1131546E+00
         21   -1    0    0  501  502  0.00000000000E+00  0.00000000000E+00  0.61849254688E+03  0.61849254688E+03  0.00000000000E+00 0.  1.
         21   -1    0    0  502  503 -0.00000000000E+00 -0.00000000000E+00 -0.19041686629E+03  0.19041686629E+03  0.00000000000E+00 0.  1.
          6    1    1    2  501    0 -0.12659249758E+03  0.64750273626E+02  0.52129773996E+03  0.56705695663E+03  0.17200000000E+03 0.  1.
         -6    1    1    2    0  503  0.12659249758E+03 -0.64750273626E+02 -0.93222059364E+02  0.24185245653E+03  0.17200000000E+03 0.  1.
</event>
<event>
 4    1  0.1232978E+000  0.2482995E+03  0.7818608E-02  0.1114384E+00
         21   -1    0    0  503  502  0.00000000000E+00  0.00000000000E+00  0.30589402367E+03  0.30589402367E+03  0.00000000000E+00 0. -1.
         21   -1    0    0  501  503 -0.00000000000E+00 -0.00000000000E+00 -0.22534876345E+03  0.22534876345E+03  0.00000000000E+00 0. -1.
          6    1    1    2  501    0 -0.16216629469E+03 -0.75965309082E+02 -0.46049422635E+02  0.25253353172E+03  0.17200000000E+03 0. -1.
         -6    1    1    2    0  502  0.16216629469E+03  0.75965309082E+02  0.12659468285E+03  0.27870925540E+03  0.17200000000E+03 0. -1.
</event>
<event>
 4    1  0.1232978E+000  0.2769480E+03  0.7818608E-02  0.1097368E+00
         21   -1    0    0  503  502  0.00000000000E+00  0.00000000000E+00  0.29940619765E+03  0.29940619765E+03  0.00000000000E+00 0.  1.
         21   -1    0    0  501  503 -0.00000000000E+00 -0.00000000000E+00 -0.27407888776E+03  0.27407888776E+03  0.00000000000E+00 0.  1.
          6    1    1    2  501    0 -0.16945089177E+03 -0.13565622081E+03  0.85951981904E+02  0.28997923746E+03  0.17200000000E+03 0. -1.
         -6    1    1    2    0  502  0.16945089177E+03  0.13565622081E+03 -0.60624672015E+02  0.28350584795E+03  0.17200000000E+03 0. -1.
</event>
<event>
 4    1  0.1232978E+000  0.3368511E+03  0.7818608E-02  0.1068145E+00
         21   -1    0    0  503  502  0.00000000000E+00  0.00000000000E+00  0.17935249562E+03  0.17935249562E+03  0.00000000000E+00 0.  1.
         21   -1    0    0  501  503 -0.00000000000E+00 -0.00000000000E+00 -0.66445721487E+03  0.66445721487E+03  0.00000000000E+00 0. -1.
          6    1    1    2  501    0 -0.28054669163E+03  0.71959637196E+02 -0.33485096433E+03  0.47496716084E+03  0.17200000000E+03 0.  1.
         -6    1    1    2    0  502  0.28054669163E+03 -0.71959637196E+02 -0.15025375492E+03  0.36884254965E+03  0.17200000000E+03 0.  1.
</event>
<event>
 4    1  0.1232978E+000  0.1819001E+03  0.7818608E-02  0.1165977E+00
         21   -1    0    0  501  502  0.00000000000E+00  0.00000000000E+00  0.99743531867E+02  0.99743531867E+02  0.00000000000E+00 0. -1.
         21   -1    0    0  502  503 -0.00000000000E+00 -0.00000000000E+00 -0.48271309117E+03  0.48271309117E+03  0.00000000000E+00 0. -1.
          6    1    1    2  501    0  0.71745798027E+01  0.58755165879E+02 -0.28608734896E+02  0.18413610136E+03  0.17200000000E+03 0. -1.
         -6    1    1    2    0  503 -0.71745798027E+01 -0.58755165879E+02 -0.35436082441E+03  0.39832052167E+03  0.17200000000E+03 0. -1.
</event>
<event>
 4    1  0.1232978E+000  0.1830896E+03  0.7818608E-02  0.1164846E+00
         21   -1    0    0  503  502  0.00000000000E+00  0.00000000000E+00  0.12734040949E+04  0.12734040949E+04  0.00000000000E+00 0. -1.
         21   -1    0    0  501  503 -0.00000000000E+00 -0.00000000000E+00 -0.41359554823E+02  0.41359554823E+02  0.00000000000E+00 0. -1.
          6    1    1    2  501    0  0.52452619412E+02 -0.34445966425E+02  0.21966994214E+03  0.28596623116E+03  0.17200000000E+03 0. -1.
         -6    1    1    2    0  502 -0.52452619412E+02  0.34445966425E+02  0.10123745980E+04  0.10287974186E+04  0.17200000000E+03 0. -1.
</event>
<event>
 4    1  0.1232978E+000  0.2100850E+03  0.7818608E-02  0.1141499E+00
         21   -1    0    0  503  502  0.00000000000E+00  0.00000000000E+00  0.72712931125E+03  0.72712931125E+03  0.00000000000E+00 0.  1.
         21   -1    0    0  501  503 -0.00000000000E+00 -0.00000000000E+00 -0.70319970609E+02  0.70319970609E+02  0.00000000000E+00 0. -1.
          6    1    1    2  501    0  0.97243205129E+02 -0.71382453904E+02  0.18091781683E+03  0.27724889922E+03  0.17200000000E+03 0. -1.
         -6    1    1    2    0  502 -0.97243205129E+02  0.71382453904E+02  0.47589152381E+03  0.52020038264E+03  0.17200000000E+03 0. -1.
</event>
<event>
 4    1  0.1232978E+000  0.1887647E+03  0.7818608E-02  0.1159580E+00
         21   -1    0    0  501  502  0.00000000000E+00  0.00000000000E+00  0.27791032541E+03  0.27791032541E+03  0.00000000000E+00 0. -1.
         21   -1    0    0  502  503 -0.00000000000E+00 -0.00000000000E+00 -0.20605100020E+03  0.20605100020E+03  0.00000000000E+00 0. -1.
          6    1    1    2  501    0 -0.63838475959E+02 -0.44415816528E+02  0.18465505580E+03  0.26406363892E+03  0.17200000000E+03 0. -1.
         -6    1    1    2    0  503  0.63838475959E+02  0.44415816528E+02 -0.11279573059E+03  0.21989768669E+03  0.17200000000E+03 0. -1.
</event>
<event>
 4    1  0.1232978E+000  0.2344818E+03  0.7818608E-02  0.1123524E+00
         21   -1    0    0  501  502  0.00000000000E+00  0.00000000000E+00  0.87359881878E+03  0.87359881878E+03  0.00000000000E+00 0. -1.
         21   -1    0    0  502  503 -0.00000000000E+00 -0.00000000000E+00 -0.63560222936E+02  0.63560222936E+02  0.00000000000E+00 0. -1.
          6    1    1    2  501    0 -0.15639037757E+03 -0.30655733970E+02  0.45141718540E+03  0.50868379126E+03  0.17200000000E+03 0.  1.
         -6    1    1    2    0  503  0.15639037757E+03  0.30655733970E+02  0.35862141045E+03  0.42847525045E+03  0.17200000000E+03 0.  1.
</event>
<event>
 4    1  0.1232978E+000  0.1801185E+03  0.7818608E-02  0.1167688E+00
         21   -1    0    0  501  502  0.00000000000E+00  0.00000000000E+00  0.16472284722E+04  0.16472284722E+04  0.00000000000E+00 0.  1.
         21   -1    0    0  502  503 -0.00000000000E+00 -0.00000000000E+00 -0.20775356207E+02  0.20775356207E+02  0.00000000000E+00 0.  1.
          6    1    1    2  501    0  0.52924999332E+02  0.75901798980E+01  0.10033847663E+04  0.10194231975E+04  0.17200000000E+03 0.  1.
         -6    1    1    2    0  503 -0.52924999332E+02 -0.75901798980E+01  0.62306834977E+03  0.64858063097E+03  0.17200000000E+03 0.  1.
</event>
<event>
 4    1  0.1232978E+000  0.2095158E+03  0.7818608E-02  0.1141950E+00
         21   -1    0    0  501  502  0.00000000000E+00  0.00000000000E+00  0.48155626835E+02  0.48155626835E+02  0.00000000000E+00 0. -1.
         21   -1    0    0  502  503 -0.00000000000E+00 -0.00000000000E+00 -0.11655019684E+04  0.11655019684E+04  0.00000000000E+00 0. -1.
          6    1    1    2  501    0  0.86968031848E+02  0.82154860806E+02 -0.27541995537E+03  0.34605348075E+03  0.17200000000E+03 0.  1.
         -6    1    1    2    0  503 -0.86968031848E+02 -0.82154860806E+02 -0.84192638623E+03  0.86760411452E+03  0.17200000000E+03 0.  1.
</event>
<event>
 4    1  0.1232978E+000  0.2098723E+03  0.7818608E-02  0.1141667E+00
         21   -1    0    0  501  502  0.00000000000E+00  0.00000000000E+00  0.67887330013E+02  0.67887330013E+02  0.00000000000E+00 0.  1.
         21   -1    0    0  502  503 -0.00000000000E+00 -0.00000000000E+00 -0.65003366604E+03  0.65003366604E+03  0.00000000000E+00 0.  1.
          6    1    1    2  501    0  0.11860220913E+03 -0.19896719798E+02 -0.27553492999E+03  0.34636088277E+03  0.17200000000E+03 0. -1.
         -6    1    1    2    0  503 -0.11860220913E+03  0.19896719798E+02 -0.30661140603E+03  0.37156011328E+03  0.17200000000E+03 0. -1.
</event>
<event>
 4    1  0.1232978E+000  0.1723164E+03  0.7818608E-02  0.1175453E+00
         21   -1    0    0  503  502  0.00000000000E+00  0.00000000000E+00  0.69721893772E+03  0.69721893772E+03  0.00000000000E+00 0. -1.
         21   -1    0    0  501  503 -0.00000000000E+00 -0.00000000000E+00 -0.10751753998E+03  0.10751753998E+03  0.00000000000E+00 0. -1.
          6    1    1    2  501    0 -0.59552927381E+01  0.85728249120E+01 -0.17833662589E+02  0.17323682738E+03  0.17200000000E+03 0. -1.
         -6    1    1    2    0  502  0.59552927381E+01 -0.85728249120E+01  0.60753506033E+03  0.63149965033E+03  0.17200000000E+03 0. -1.
</event>
<event>
 4    1  0.1232978E+000  0.2549234E+03  0.7818608E-02  0.1110232E+00
         21   -1    0    0  503  502  0.00000000000E+00  0.00000000000E+00  0.50243077615E+02  0.50243077615E+02  0.00000000000E+00 0.  1.
         21   -1    0    0  501  503 -0.00000000000E+00 -0.00000000000E+00 -0.13178365065E+04  0.13178365065E+04  0.00000000000E+00 0.  1.
          6    1    1    2  501    0  0.18782699751E+03  0.11089461942E+02 -0.72688477324E+03  0.77029048464E+03  0.17200000000E+03 0.  1.
         -6    1    1    2    0  502 -0.18782699751E+03 -0.11089461942E+02 -0.54070865565E+03  0.59778909948E+03  0.17200000000E+03 0.  1.
</event>
<event>
 4    1  0.1232978E+000  0.2436407E+03  0.7818608E-02  0.1117391E+00
         21   -1    0    0  501  502  0.00000000000E+00  0.00000000000E+00  0.78145501318E+03  0.78145501318E+03  0.00000000000E+00 0. -1.
         21   -1    0    0  502  503 -0.00000000000E+00 -0.00000000000E+00 -0.83046447903E+02  0.83046447903E+02  0.00000000000E+00 0.  1.
          6    1    1    2  501    0 -0.14442245596E+03  0.94440285974E+02  0.47545418385E+03  0.53424478879E+03  0.17200000000E+03 0.  1.
         -6    1    1    2    0  503  0.14442245596E+03 -0.94440285974E+02  0.22295438143E+03  0.33025667230E+03  0.17200000000E+03 0.  1.
</event>
<event>
 4    1  0.1232978E+000  0.2410347E+03  0.7818608E-02  0.1119105E+00
         21   -1    0    0  501  502  0.00000000000E+00  0.00000000000E+00  0.30102300689E+03  0.30102300689E+03  0.00000000000E+00 0. -1.
         21   -1    0    0  502  503 -0.00000000000E+00 -0.00000000000E+00 -0.35195270001E+03  0.35195270001E+03  0.00000000000E+00 0. -1.
          6    1    1    2  501    0  0.23041476414E+02 -0.16728069826E+03  0.19394568276E+03  0.30937464264E+03  0.17200000000E+03 0.  1.
         -6    1    1    2    0  503 -0.23041476414E+02  0.16728069826E+03 -0.24487537589E+03  0.34360106426E+03  0.17200000000E+03 0.  1.
</event>
<event>
 4    1  0.1232978E+000  0.2425023E+03  0.7818608E-02  0.1118137E+00
         21   -1    0    0  503  502  0.00000000000E+00  0.00000000000E+00  0.69954727403E+03  0.69954727403E+03  0.00000000000E+00 0. -1.
         21   -1    0    0  501  503 -0.00000000000E+00 -0.00000000000E+00 -0.94490548327E+02  0.94490548327E+02  0.00000000000E+00 0.  1.
          6    1    1    2  501    0  0.11575209488E+03 -0.12579677707E+03  0.43440516200E+03  0.49750901636E+03  0.17200000000E+03 0. -1.
         -6    1    1    2    0  502 -0.11575209488E+03  0.12579677707E+03  0.17065156371E+03  0.29652880600E+03  0.17200000000E+03 0.  1.
</event>
<event>
 4    1  0.1232978E+000  0.5544241E+03  0.7818608E-02  0.1000475E+00
         21   -1    0    0  501  502  0.00000000000E+00  0.00000000000E+00  0.52871224984E+03  0.52871224984E+03  0.00000000000E+00 0. -1.
         21   -1    0    0  502  503 -0.00000000000E+00 -0.00000000000E+00 -0.77172198396E+03  0.77172198396E+03  0.00000000000E+00 0.  1.
          6    1    1    2  501    0  0.52660638510E+03 -0.22086091857E+02  0.20140998773E+03  0.58987461671E+03  0.17200000000E+03 0.  1.
         -6    1    1    2    0  503 -0.52660638510E+03  0.22086091857E+02 -0.44441972185E+03  0.71055961710E+03  0.17200000000E+03 0.  1.
</event>
<event>
 4    1  0.1232978E+000  0.3107774E+03  0.7818608E-02  0.1079974E+00
         21   -1    0    0  501  502  0.00000000000E+00  0.00000000000E+00  0.46516126692E+03  0.46516126692E+03  0.00000000000E+00 0. -1.
         21   -1    0    0  502  503 -0.00000000000E+00 -0.00000000000E+00 -0.22664278753E+03  0.22664278753E+03  0.00000000000E+00 0. -1.
          6    1    1    2  501    0  0.25619886720E+03 -0.36888491502E+02  0.21943806133E+03  0.38044143192E+03  0.17200000000E+03 0. -1.
         -6    1    1    2    0  503 -0.25619886720E+03  0.36888491502E+02  0.19080418055E+02  0.31136262253E+03  0.17200000000E+03 0. -1.
</event>
<event>
 4    1  0.1232978E+000  0.2081214E+03  0.7818608E-02  0.1143062E+00
         21   -1    0    0  501  502  0.00000000000E+00  0.00000000000E+00  0.49840589694E+03  0.49840589694E+03  0.00000000000E+00 0.  1.
         21   -1    0    0  502  503 -0.00000000000E+00 -0.00000000000E+00 -0.87845642985E+02  0.87845642985E+02  0.00000000000E+00 0. -1.
          6    1    1    2  501    0 -0.91787164121E+02  0.72839898878E+02  0.17496620159E+03  0.27189649881E+03  0.17200000000E+03 0. -1.
         -6    1    1    2    0  503  0.91787164121E+02 -0.72839898878E+02  0.23559405237E+03  0.31435504112E+03  0.17200000000E+03 0.  1.
</event>
<event>
 4    1  0.1232978E+000  0.2361248E+03  0.7818608E-02  0.1122402E+00
         21   -1    0    0  501  502  0.00000000000E+00  0.00000000000E+00  0.54310601110E+03  0.54310601110E+03  0.00000000000E+00 0. -1.
         21   -1    0    0  502  503 -0.00000000000E+00 -0.00000000000E+00 -0.10293908459E+03  0.10293908459E+03  0.00000000000E+00 0.  1.
          6    1    1    2  501    0  0.15655026610E+03  0.40779321684E+02  0.20324608048E+03  0.31155081147E+03  0.17200000000E+03 0.  1.
         -6    1    1    2    0  503 -0.15655026610E+03 -0.40779321684E+02  0.23692084603E+03  0.33449428422E+03  0.17200000000E+03 0.  1.
</event>
<event>
 4    1  0.1232978E+000  0.1869245E+03  0.7818608E-02  0.1161265E+00
         21   -1    0    0  503  502  0.00000000000E+00  0.00000000000E+00  0.41983218901E+02  0.41983218901E+02  0.00000000000E+00 0. -1.
         21   -1    0    0  501  503 -0.00000000000E+00 -0.00000000000E+00 -0.90027366415E+03  0.90027366415E+03  0.00000000000E+00 0.  1.
          6    1    1    2  501    0  0.14686081614E+02 -0.71701328584E+02 -0.55864372793E+03  0.58908707019E+03  0.17200000000E+03 0.  1.
         -6    1    1    2    0  502 -0.14686081614E+02  0.71701328584E+02 -0.29964671732E+03  0.35316981286E+03  0.17200000000E+03 0.  1.
</event>
<event>
 4    1  0.1232978E+000  0.1761499E+03  0.7818608E-02  0.1171582E+00
         21   -1    0    0  501  502  0.00000000000E+00  0.00000000000E+00  0.34863455745E+03  0.34863455745E+03  0.00000000000E+00 0. -1.
         21   -1    0    0  502  503 -0.00000000000E+00 -0.00000000000E+00 -0.15879038357E+03  0.15879038357E+03  0.00000000000E+00 0.  1.
          6    1    1    2  501    0  0.34284966061E+02 -0.16411084374E+02  0.26312161323E+03  0.31664138380E+03  0.17200000000E+03 0. -1.
         -6    1    1    2    0  503 -0.34284966061E+02  0.16411084374E+02 -0.73277439347E+02  0.19078355722E+03  0.17200000000E+03 0.  1.
</event>
<event>
 4    1  0.1232978E+000  0.2425612E+03  0.7818608E-02  0.1118098E+00
         21   -1    0    0  501  502  0.00000000000E+00  0.00000000000E+00  0.21787627344E+03  0.21787627344E+03  0.00000000000E+00 0. -1.
         21   -1    0    0  502  503 -0.00000000000E+00 -0.00000000000E+00 -0.48961458883E+03  0.48961458883E+03  0.00000000000E+00 0.  1.
          6    1    1    2  501    0 -0.48214711092E+02  0.16409538458E+03  0.10102359643E+03  0.26275791261E+03  0.17200000000E+03 0.  1.
         -6    1    1    2    0  503  0.48214711092E+02 -0.16409538458E+03 -0.37276191182E+03  0.44473294965E+03  0.17200000000E+03 0.  1.
</event>
<event>
 4    1  0.1232978E+000  0.2546037E+03  0.7818608E-02  0.1110429E+00
         21   -1    0    0  503  502  0.00000000000E+00  0.00000000000E+00  0.14021155183E+04  0.14021155183E+04  0.00000000000E+00 0. -1.
         21   -1    0    0  501  503 -0.00000000000E+00 -0.00000000000E+00 -0.77457300765E+02  0.77457300765E+02  0.00000000000E+00 0. -1.
          6    1    1    2  501    0 -0.64189369019E+02  0.17640507910E+03  0.19262280409E+03  0.31925941127E+03  0.17200000000E+03 0. -1.
         -6    1    1    2    0  502  0.64189369019E+02 -0.17640507910E+03  0.11320354134E+04  0.11603134078E+04  0.17200000000E+03 0. -1.
</event>
<event>
 4    1  0.1232978E+000  0.1920864E+03  0.7818608E-02  0.1156593E+00
         21   -1    0    0  501  502  0.00000000000E+00  0.00000000000E+00  0.17239554188E+03  0.17239554188E+03  0.00000000000E+00 0. -1.
         21   -1    0    0  502  503 -0.00000000000E+00 -0.00000000000E+00 -0.23386644242E+03  0.23386644242E+03  0.00000000000E+00 0. -1.
          6    1    1    2  501    0  0.46444032630E+01 -0.85390895454E+02  0.28429555432E+02  0.19417882256E+03  0.17200000000E+03 0. -1.
         -6    1    1    2    0  503 -0.46444032630E+01  0.85390895454E+02 -0.89900455977E+02  0.21208316174E+03  0.17200000000E+03 0. -1.
</event>
<event>
 4    1  0.1232978E+000  0.1746529E+03  0.7818608E-02  0.1173081E+00
         21   -1    0    0  501  502  0.00000000000E+00  0.00000000000E+00  0.48944018926E+02  0.48944018926E+02  0.00000000000E+00 0. -1.
         21   -1    0    0  502  503 -0.00000000000E+00 -0.00000000000E+00 -0.64858705752E+03  0.64858705752E+03  0.00000000000E+00 0. -1.
          6    1    1    2  501    0 -0.30310460122E+02  0.95877741474E+00 -0.23086855360E+03  0.28948908838E+03  0.17200000000E+03 0. -1.
         -6    1    1    2    0  503  0.30310460122E+02 -0.95877741474E+00 -0.36877448499E+03  0.40804198807E+03  0.17200000000E+03 0. -1.
</event>
<event>
 4    1  0.1232978E+000  0.1903440E+03  0.7818608E-02  0.1158151E+00
         21   -1    0    0  503  502  0.00000000000E+00  0.00000000000E+00  0.29849829565E+03  0.29849829565E+03  0.00000000000E+00 0.  1.
         21   -1    0    0  501  503 -0.00000000000E+00 -0.00000000000E+00 -0.12182022157E+03  0.12182022157E+03  0.00000000000E+00 0.  1.
          6    1    1    2  501    0  0.14213978403E+01  0.81515730383E+02  0.75662876755E+02  0.20483091952E+03  0.17200000000E+03 0. -1.
         -6    1    1    2    0  502 -0.14213978403E+01 -0.81515730383E+02  0.10101519733E+03  0.21548759770E+03  0.17200000000E+03 0. -1.
</event>
<event>
 4    1  0.1232978E+000  0.2194912E+03  0.7818608E-02  0.1134263E+00
         21   -1    0    0  503  502  0.00000000000E+00  0.00000000000E+00  0.30437869444E+03  0.30437869444E+03  0.00000000000E+00 0.  1.
         21   -1    0    0  501  503 -0.00000000000E+00 -0.00000000000E+00 -0.19385457722E+03  0.19385457722E+03  0.00000000000E+00 0.  1.
          6    1    1    2  501    0 -0.40651539242E+01 -0.13629322241E+03  0.16198270503E+03  0.27279069757E+03  0.17200000000E+03 0.  1.
         -6    1    1    2    0  502  0.40651539242E+01  0.13629322241E+03 -0.51458587816E+02  0.22544257409E+03  0.17200000000E+03 0.  1.
</event>
<event>
 4    1  0.1232978E+000  0.3250389E+03  0.7818608E-02  0.1073353E+00
         21   -1    0    0  503  502  0.00000000000E+00  0.00000000000E+00  0.36108162269E+03  0.36108162269E+03  0.00000000000E+00 0. -1.
         21   -1    0    0  501  503 -0.00000000000E+00 -0.00000000000E+00 -0.36018146963E+03  0.36018146963E+03  0.00000000000E+00 0. -1.
          6    1    1    2  501    0 -0.14730536509E+03  0.23316818184E+03 -0.15576988352E+03  0.36043658003E+03  0.17200000000E+03 0. -1.
         -6    1    1    2    0  502  0.14730536509E+03 -0.23316818184E+03  0.15667003658E+03  0.36082651229E+03  0.17200000000E+03 0. -1.
</event>
<event>
 4    1  0.1232978E+000  0.1735979E+03  0.7818608E-02  0.1174147E+00
         21   -1    0    0  503  502  0.00000000000E+00  0.00000000000E+00  0.93546882442E+02  0.93546882442E+02  0.00000000000E+00 0.  1.
         21   -1    0    0  501  503 -0.00000000000E+00 -0.00000000000E+00 -0.33630312832E+03  0.33630312832E+03  0.00000000000E+00 0.  1.
          6    1    1    2  501    0  0.13627401081E+02 -0.19145267511E+02 -0.16546691213E+03  0.23982399033E+03  0.17200000000E+03 0. -1.
         -6    1    1    2    0  502 -0.13627401081E+02  0.19145267511E+02 -0.77289333739E+02  0.19002602042E+03  0.17200000000E+03 0. -1.
</event>
<event>
 4    1  0.1232978E+000  0.2213819E+03  0.7818608E-02  0.1132857E+00
         21   -1    0    0  501  502  0.00000000000E+00  0.00000000000E+00  0.16431528744E+04  0.16431528744E+04  0.00000000000E+00 0.  1.
         21   -1    0    0  502  503 -0.00000000000E+00 -0.00000000000E+00 -0.29919062992E+02  0.29919062992E+02  0.00000000000E+00 0.  1.
          6    1    1    2  501    0  0.10675902241E+03 -0.89601573703E+02  0.76015338157E+03  0.79173423217E+03  0.17200000000E+03 0.  1.
         -6    1    1    2    0  503 -0.10675902241E+03  0.89601573703E+02  0.85308042983E+03  0.88133770521E+03  0.17200000000E+03 0.  1.
</event>
<event>
 4    1  0.1232978E+000  0.1830756E+03  0.7818608E-02  0.1164859E+00
         21   -1    0    0  501  502  0.00000000000E+00  0.00000000000E+00  0.30154614643E+02  0.30154614643E+02  0.00000000000E+00 0. -1.
         21   -1    0    0  502  503 -0.00000000000E+00 -0.00000000000E+00 -0.14861965813E+04  0.14861965813E+04  0.00000000000E+00 0. -1.
          6    1    1    2  501    0 -0.57021559831E+02 -0.26099902670E+02 -0.34732770487E+03  0.39262348093E+03  0.17200000000E+03 0.  1.
         -6    1    1    2    0  503  0.57021559831E+02  0.26099902670E+02 -0.11087142618E+04  0.11237277151E+04  0.17200000000E+03 0.  1.
</event>
<event>
 4    1  0.1232978E+000  0.2366605E+03  0.7818608E-02  0.1122038E+00
         21   -1    0    0  503  502  0.00000000000E+00  0.00000000000E+00  0.20328810970E+03  0.20328810970E+03  0.00000000000E+00 0.  1.
         21   -1    0    0  501  503 -0.00000000000E+00 -0.00000000000E+00 -0.27625295387E+03  0.27625295387E+03  0.00000000000E+00 0.  1.
          6    1    1    2  501    0 -0.51864422179E+02  0.15405937996E+03 -0.48904267738E+02  0.24166058480E+03  0.17200000000E+03 0. -1.
         -6    1    1    2    0  502  0.51864422179E+02 -0.15405937996E+03 -0.24060576424E+02  0.23788047877E+03  0.17200000000E+03 0. -1.
</event>
<event>
 4    1  0.1232978E+000  0.3019748E+03  0.7818608E-02  0.1084258E+00
         21   -1    0    0  501  502  0.00000000000E+00  0.00000000000E+00  0.90758191821E+03  0.90758191821E+03  0.00000000000E+00 0. -1.
         21   -1    0    0  502  503 -0.00000000000E+00 -0.00000000000E+00 -0.84098847418E+03  0.84098847418E+03  0.00000000000E+00 0. -1.
          6    1    1    2  501    0  0.23262364203E+03 -0.86550631530E+02  0.85369502687E+03  0.90552966244E+03  0.17200000000E+03 0. -1.
         -6    1    1    2    0  503 -0.23262364203E+03  0.86550631530E+02 -0.78710158284E+03  0.84304072995E+03  0.17200000000E+03 0. -1.
</event>
<event>
 4    1  0.1232978E+000  0.3331640E+03  0.7818608E-02  0.1069745E+00
         21   -1    0    0  501  502  0.00000000000E+00  0.00000000000E+00  0.62272342878E+03  0.62272342878E+03  0.00000000000E+00 0.  1.
         21   -1    0    0  502  503 -0.00000000000E+00 -0.00000000000E+00 -0.22007332691E+03  0.22007332691E+03  0.00000000000E+00 0.  1.
          6    1    1    2  501    0  0.37540617234E+02  0.28285146975E+03  0.38503673545E+03  0.50916749654E+03  0.17200000000E+03 0.  1.
         -6    1    1    2    0  503 -0.37540617234E+02 -0.28285146975E+03  0.17613366411E+02  0.33362925915E+03  0.17200000000E+03 0.  1.
</event>
<event>
 4    1  0.1232978E+000  0.1921332E+03  0.7818608E-02  0.1156551E+00
         21   -1    0    0  501  502  0.00000000000E+00  0.00000000000E+00  0.19154545141E+03  0.19154545141E+03  0.00000000000E+00 0. -1.
         21   -1    0    0  502  503 -0.00000000000E+00 -0.00000000000E+00 -0.29449113492E+03  0.29449113492E+03  0.00000000000E+00 0. -1.
          6    1    1    2  501    0 -0.54524687828E+01  0.85448466424E+02  0.91386700250E+02  0.21275972084E+03  0.17200000000E+03 0.  1.
         -6    1    1    2    0  503  0.54524687828E+01 -0.85448466424E+02 -0.19433238376E+03  0.27327686548E+03  0.17200000000E+03 0.  1.
</event>
<event>
 4    1  0.1232978E+000  0.1756402E+03  0.7818608E-02  0.1172090E+00
         21   -1    0    0  503  502  0.00000000000E+00  0.00000000000E+00  0.70713734770E+02  0.70713734770E+02  0.00000000000E+00 0. -1.
         21   -1    0    0  501  503 -0.00000000000E+00 -0.00000000000E+00 -0.53974237248E+03  0.53974237248E+03  0.00000000000E+00 0. -1.
          6    1    1    2  501    0  0.35163937255E+02 -0.53828117837E+01 -0.36816379196E+03  0.40791427390E+03  0.17200000000E+03 0. -1.
         -6    1    1    2    0  502 -0.35163937255E+02  0.53828117837E+01 -0.10086484575E+03  0.20254183334E+03  0.17200000000E+03 0. -1.
</event>
<event>
 4    1  0.1232978E+000  0.1939766E+03  0.7818608E-02  0.1154923E+00
         21   -1    0    0  503  502  0.00000000000E+00  0.00000000000E+00  0.10899441773E+03  0.10899441773E+03  0.00000000000E+00 0. -1.
         21   -1    0    0  501  503 -0.00000000000E+00 -0.00000000000E+00 -0.59639044351E+03  0.59639044351E+03  0.00000000000E+00 0. -1.
          6    1    1    2  501    0 -0.26297104470E+02  0.85740142486E+02 -0.47258241778E+03  0.51084347048E+03  0.17200000000E+03 0. -1.
         -6    1    1    2    0  502  0.26297104470E+02 -0.85740142486E+02 -0.14813607996E+02  0.19454139076E+03  0.17200000000E+03 0. -1.
</event>
<event>
 4    1  0.1232978E+000  0.1882949E+03  0.7818608E-02  0.1160008E+00
         21   -1    0    0  503  502  0.00000000000E+00  0.00000000000E+00  0.38035260706E+03  0.38035260706E+03  0.00000000000E+00 0. -1.
         21   -1    0    0  501  503 -0.00000000000E+00 -0.00000000000E+00 -0.93216088641E+02  0.93216088641E+02  0.00000000000E+00 0. -1.
          6    1    1    2  501    0 -0.76181683340E+02 -0.82045951091E+01  0.14339918463E+03  0.23668183371E+03  0.17200000000E+03 0. -1.
         -6    1    1    2    0  502  0.76181683340E+02  0.82045951091E+01  0.14373733379E+03  0.23688686199E+03  0.17200000000E+03 0. -1.
</event>
<event>
 4    1  0.1232978E+000  0.2198197E+03  0.7818608E-02  0.1134018E+00
         21   -1    0    0  501  502  0.00000000000E+00  0.00000000000E+00  0.13874762634E+03  0.13874762634E+03  0.00000000000E+00 0. -1.
         21   -1    0    0  502  503 -0.00000000000E+00 -0.00000000000E+00 -0.35688161692E+03  0.35688161692E+03  0.00000000000E+00 0. -1.
          6    1    1    2  501    0 -0.12856292780E+03 -0.46992439183E+02 -0.70556922649E+02  0.23086575120E+03  0.17200000000E+03 0. -1.
         -6    1    1    2    0  503  0.12856292780E+03  0.46992439183E+02 -0.14757706793E+03  0.26476349205E+03  0.17200000000E+03 0. -1.
</event>
<event>
 4    1  0.1232978E+000  0.2275328E+03  0.7818608E-02  0.1128388E+00
         21   -1    0    0  503  502  0.00000000000E+00  0.00000000000E+00  0.16238946952E+03  0.16238946952E+03  0.00000000000E+00 0.  1.
         21   -1    0    0  501  503 -0.00000000000E+00 -0.00000000000E+00 -0.40366145569E+03  0.40366145569E+03  0.00000000000E+00 0. -1.
          6    1    1    2  501    0  0.14567130058E+01 -0.14894651577E+03 -0.25039863280E+03  0.33833513249E+03  0.17200000000E+03 0. -1.
         -6    1    1    2    0  502 -0.14567130058E+01  0.14894651577E+03  0.91266466263E+01  0.22771579271E+03  0.17200000000E+03 0.  1.
</event>
<event>
 4    1  0.1232978E+000  0.5322224E+03  0.7818608E-02  0.1005695E+00
         21   -1    0    0  503  502  0.00000000000E+00  0.00000000000E+00  0.46609977031E+03  0.46609977031E+03  0.00000000000E+00 0.  1.
         21   -1    0    0  501  503 -0.00000000000E+00 -0.00000000000E+00 -0.62708446251E+03  0.62708446251E+03  0.00000000000E+00 0.  1.
          6    1    1    2  501    0 -0.16172603916E+03 -0.47699201632E+03 -0.17653007431E+03  0.56073484154E+03  0.17200000000E+03 0.  1.
         -6    1    1    2    0  502  0.16172603916E+03  0.47699201632E+03  0.15545382106E+02  0.53244939129E+03  0.17200000000E+03 0.  1.
</event>
<event>
 4    1  0.1232978E+000  0.2851318E+03  0.7818608E-02  0.1092919E+00
         21   -1    0    0  503  502  0.00000000000E+00  0.00000000000E+00  0.76595528003E+03  0.76595528003E+03  0.00000000000E+00 0.  1.
         21   -1    0    0  501  503 -0.00000000000E+00 -0.00000000000E+00 -0.10653226218E+03  0.10653226218E+03  0.00000000000E+00 0. -1.
          6    1    1    2  501    0 -0.46910131885E+02 -0.22252091478E+03  0.30331177311E+03  0.41629094356E+03  0.17200000000E+03 0. -1.
         -6    1    1    2    0  502  0.46910131885E+02  0.22252091478E+03  0.35611124474E+03  0.45619659865E+03  0.17200000000E+03 0. -1.
</event>
<event>
 4    1  0.1232978E+000  0.1807868E+03  0.7818608E-02  0.1167044E+00
         21   -1    0    0  501  502  0.00000000000E+00  0.00000000000E+00  0.71042957808E+02  0.71042957808E+02  0.00000000000E+00 0.  1.
         21   -1    0    0  502  503 -0.00000000000E+00 -0.00000000000E+00 -0.46042557184E+03  0.46042557184E+03  0.00000000000E+00 0.  1.
          6    1    1    2  501    0  0.30534190166E+02  0.46556922951E+02 -0.20219916418E+03  0.27123492740E+03  0.17200000000E+03 0. -1.
         -6    1    1    2    0  503 -0.30534190166E+02 -0.46556922951E+02 -0.18718344985E+03  0.26023360225E+03  0.17200000000E+03 0. -1.
</event>
<event>
 4    1  0.1232978E+000  0.2121733E+03  0.7818608E-02  0.1139856E+00
         21   -1    0    0  503  502  0.00000000000E+00  0.00000000000E+00  0.11185154906E+03  0.11185154906E+03  0.00000000000E+00 0. -1.
         21   -1    0    0  501  503 -0.00000000000E+00 -0.00000000000E+00 -0.54373090423E+03  0.54373090423E+03  0.00000000000E+00 0.  1.
          6    1    1    2  501    0  0.12384636139E+03 -0.97773310610E+01 -0.38301323691E+03  0.43785460724E+03  0.17200000000E+03 0.  1.
         -6    1    1    2    0  502 -0.12384636139E+03  0.97773310610E+01 -0.48866118262E+02  0.21772784605E+03  0.17200000000E+03 0. -1.
</event>
<event>
 4    1  0.1232978E+000  0.2269913E+03  0.7818608E-02  0.1128775E+00
         21   -1    0    0  501  502  0.00000000000E+00  0.00000000000E+00  0.17140551654E+04  0.17140551654E+04  0.00000000000E+00 0. -1.
         21   -1    0    0  502  503 -0.00000000000E+00 -0.00000000000E+00 -0.66706531707E+02  0.66706531707E+02  0.00000000000E+00 0. -1.
          6    1    1    2  501    0  0.14709046788E+03  0.17477534657E+02  0.14836168092E+04  0.15008810434E+04  0.17200000000E+03 0. -1.
         -6    1    1    2    0  503 -0.14709046788E+03 -0.17477534657E+02  0.16373182450E+03  0.27988065370E+03  0.17200000000E+03 0. -1.
</event>
<event>
 4    1  0.1232978E+000  0.1789778E+03  0.7818608E-02  0.1168796E+00
         21   -1    0    0  501  502  0.00000000000E+00  0.00000000000E+00  0.19918034879E+03  0.19918034879E+03  0.00000000000E+00 0.  1.
         21   -1    0    0  502  503 -0.00000000000E+00 -0.00000000000E+00 -0.41793026180E+03  0.41793026180E+03  0.00000000000E+00 0.  1.
          6    1    1    2  501    0  0.13927947918E+02  0.47487629413E+02  0.13263714715E+03  0.22276821022E+03  0.17200000000E+03 0.  1.
         -6    1    1    2    0  503 -0.13927947918E+02 -0.47487629413E+02 -0.35138706016E+03  0.39434240037E+03  0.17200000000E+03 0.  1.
</event>
<event>
 4    1  0.1232978E+000  0.2150817E+03  0.7818608E-02  0.1137604E+00
         21   -1    0    0  501  502  0.00000000000E+00  0.00000000000E+00  0.79595302958E+02  0.79595302958E+02  0.00000000000E+00 0. -1.
         21   -1    0    0  502  503 -0.00000000000E+00 -0.00000000000E+00 -0.58143193559E+03  0.58143193559E+03  0.00000000000E+00 0. -1.
          6    1    1    2  501    0 -0.12644569854E+03  0.26222545714E+02 -0.25763534847E+03  0.33561303516E+03  0.17200000000E+03 0.  1.
         -6    1    1    2    0  503  0.12644569854E+03 -0.26222545714E+02 -0.24420128416E+03  0.32541420339E+03  0.17200000000E+03 0.  1.
</event>
<event>
 4    1  0.1232978E+000  0.1902176E+03  0.7818608E-02  0.1158265E+00
         21   -1    0    0  503  502  0.00000000000E+00  0.00000000000E+00  0.29673709505E+02  0.29673709505E+02  0.00000000000E+00 0.  1.
         21   -1    0    0  501  503 -0.00000000000E+00 -0.00000000000E+00 -0.15425582817E+04  0.15425582817E+04  0.00000000000E+00 0.  1.
          6    1    1    2  501    0 -0.81213253850E+02 -0.17763869426E+01 -0.11162782620E+04  0.11323691564E+04  0.17200000000E+03 0.  1.
         -6    1    1    2    0  502  0.81213253850E+02  0.17763869426E+01 -0.39660631012E+03  0.43986283473E+03  0.17200000000E+03 0.  1.
</event>
<event>
 4    1  0.1232978E+000  0.2578306E+03  0.7818608E-02  0.1108454E+00
         21   -1    0    0  501  502  0.00000000000E+00  0.00000000000E+00  0.13236585060E+03  0.13236585060E+03  0.00000000000E+00 0.  1.
         21   -1    0    0  502  503 -0.00000000000E+00 -0.00000000000E+00 -0.70654037251E+03  0.70654037251E+03  0.00000000000E+00 0. -1.
          6    1    1    2  501    0 -0.10485349669E+03  0.16092960608E+03 -0.51265253420E+03  0.57383727197E+03  0.17200000000E+03 0. -1.
         -6    1    1    2    0  503  0.10485349669E+03 -0.16092960608E+03 -0.61521987714E+02  0.26506895113E+03  0.17200000000E+03 0.  1.
</event>
<event>
 4    1  0.1232978E+000  0.3029890E+03  0.7818608E-02  0.1083756E+00
         21   -1    0    0  503  502  0.00000000000E+00  0.00000000000E+00  0.23068891179E+03  0.23068891179E+03  0.00000000000E+00 0. -1.
         21   -1    0    0  501  503 -0.00000000000E+00 -0.00000000000E+00 -0.71858451504E+03  0.71858451504E+03  0.00000000000E+00 0.  1.
          6    1    1    2  501    0 -0.24922669470E+03 -0.10217634237E+02 -0.56099829817E+03  0.63759033552E+03  0.17200000000E+03 0.  1.
         -6    1    1    2    0  502  0.24922669470E+03  0.10217634237E+02  0.73102694918E+02  0.31168309131E+03  0.17200000000E+03 0. -1.
</event>
<event>
 4    1  0.1232978E+000  0.3130623E+03  0.7818608E-02  0.1078887E+00
         21   -1    0    0  501  502  0.00000000000E+00  0.00000000000E+00  0.13105321331E+03  0.13105321331E+03  0.00000000000E+00 0. -1.
         21   -1    0    0  502  503 -0.00000000000E+00 -0.00000000000E+00 -0.12465694661E+04  0.12465694661E+04  0.00000000000E+00 0.  1.
          6    1    1    2  501    0  0.18665874334E+03 -0.18325537718E+03 -0.12207511701E+03  0.33602135932E+03  0.17200000000E+03 0. -1.
         -6    1    1    2    0  503 -0.18665874334E+03  0.18325537718E+03 -0.99344113579E+03  0.10416013201E+04  0.17200000000E+03 0. -1.
</event>
<event>
 4    1  0.1232978E+000  0.2703304E+03  0.7818608E-02  0.1101091E+00
         21   -1    0    0  503  502  0.00000000000E+00  0.00000000000E+00  0.23037602822E+03  0.23037602822E+03  0.00000000000E+00 0. -1.
         21   -1    0    0  501  503 -0.00000000000E+00 -0.00000000000E+00 -0.33001019452E+03  0.33001019452E+03  0.00000000000E+00 0.  1.
          6    1    1    2  501    0 -0.20855338522E+03  0.10758988709E+00  0.53566508886E+01  0.27038346800E+03  0.17200000000E+03 0. -1.
         -6    1    1    2    0  502  0.20855338522E+03 -0.10758988709E+00 -0.10499081719E+03  0.29000275474E+03  0.17200000000E+03 0.  1.
</event>
<event>
 4    1  0.1232978E+000  0.4749628E+03  0.7818608E-02  0.1020529E+00
         21   -1    0    0  503  502  0.00000000000E+00  0.00000000000E+00  0.21410132558E+03  0.21410132558E+03  0.00000000000E+00 0. -1.
         21   -1    0    0  501  503 -0.00000000000E+00 -0.00000000000E+00 -0.11043586827E+04  0.11043586827E+04  0.00000000000E+00 0. -1.
          6    1    1    2  501    0  0.42749522062E+03  0.11512401922E+03 -0.30387940773E+03  0.56385494402E+03  0.17200000000E+03 0. -1.
         -6    1    1    2    0  502 -0.42749522062E+03 -0.11512401922E+03 -0.58637794935E+03  0.75460506421E+03  0.17200000000E+03 0. -1.
</event>
<event>
 4    1  0.1232978E+000  0.1897008E+03  0.7818608E-02  0.1158731E+00
         21   -1    0    0  503  502  0.00000000000E+00  0.00000000000E+00  0.81547794360E+02  0.81547794360E+02  0.00000000000E+00 0. -1.
         21   -1    0    0  501  503 -0.00000000000E+00 -0.00000000000E+00 -0.82977026745E+03  0.82977026745E+03  0.00000000000E+00 0. -1.
          6    1    1    2  501    0 -0.74154543085E+02  0.30058272323E+02 -0.68588844603E+03  0.71163850120E+03  0.17200000000E+03 0. -1.
         -6    1    1    2    0  502  0.74154543085E+02 -0.30058272323E+02 -0.62334027060E+02  0.19967956061E+03  0.17200000000E+03 0. -1.
</event>
<event>
 4    1  0.1232978E+000  0.2002331E+03  0.7818608E-02  0.1149543E+00
         21   -1    0    0  503  502  0.00000000000E+00  0.00000000000E+00  0.12238632633E+03  0.12238632633E+03  0.00000000000E+00 0.  1.
         21   -1    0    0  501  503 -0.00000000000E+00 -0.00000000000E+00 -0.34247725562E+03  0.34247725562E+03  0.00000000000E+00 0.  1.
          6    1    1    2  501    0 -0.28602098131E+02 -0.98443928145E+02 -0.61595045726E+02  0.20949280814E+03  0.17200000000E+03 0. -1.
         -6    1    1    2    0  502  0.28602098131E+02  0.98443928145E+02 -0.15849588357E+03  0.25537077381E+03  0.17200000000E+03 0. -1.
</event>
<event>
 4    1  0.1232978E+000  0.1752627E+03  0.7818608E-02  0.1172468E+00
         21   -1    0    0  501  502  0.00000000000E+00  0.00000000000E+00  0.56189921185E+03  0.56189921185E+03  0.00000000000E+00 0.  1.
         21   -1    0    0  502  503 -0.00000000000E+00 -0.00000000000E+00 -0.16122142690E+03  0.16122142690E+03  0.00000000000E+00 0.  1.
          6    1    1    2  501    0  0.33228261382E+02 -0.53764716508E+01  0.49427726951E+03  0.52443020790E+03  0.17200000000E+03 0.  1.
         -6    1    1    2    0  503 -0.33228261382E+02  0.53764716508E+01 -0.93599484558E+02  0.19869043085E+03  0.17200000000E+03 0.  1.
</event>
<event>
 4    1  0.1232978E+000  0.1785447E+03  0.7818608E-02  0.1169219E+00
         21   -1    0    0  503  502  0.00000000000E+00  0.00000000000E+00  0.12320112844E+03  0.12320112844E+03  0.00000000000E+00 0. -1.
         21   -1    0    0  501  503 -0.00000000000E+00 -0.00000000000E+00 -0.29193135500E+03  0.29193135500E+03  0.00000000000E+00 0.  1.
          6    1    1    2  501    0 -0.30012108228E+02  0.37329323285E+02 -0.15434416101E+03  0.23600916307E+03  0.17200000000E+03 0.  1.
         -6    1    1    2    0  502  0.30012108228E+02 -0.37329323285E+02 -0.14386065551E+02  0.17912332037E+03  0.17200000000E+03 0. -1.
</event>
<event>
 4    1  0.1232978E+000  0.1906686E+03  0.7818608E-02  0.1157860E+00
         21   -1    0    0  503  502  0.00000000000E+00  0.00000000000E+00  0.25281732914E+02  0.25281732914E+02  0.00000000000E+00 0. -1.
         21   -1    0    0  501  503 -0.00000000000E+00 -0.00000000000E+00 -0.18618913674E+04  0.18618913674E+04  0.00000000000E+00 0. -1.
          6    1    1    2  501    0  0.24312601294E+02 -0.78609255435E+02 -0.13685450557E+04  0.13817633977E+04  0.17200000000E+03 0. -1.
         -6    1    1    2    0  502 -0.24312601294E+02  0.78609255435E+02 -0.46806457871E+03  0.50540970259E+03  0.17200000000E+03 0. -1.
</event>
<event>
 4    1  0.1232978E+000  0.1917945E+03  0.7818608E-02  0.1156853E+00
         21   -1    0    0  503  502  0.00000000000E+00  0.00000000000E+00  0.24328572406E+02  0.24328572406E+02  0.00000000000E+00 0. -1.
         21   -1    0    0  501  503 -0.00000000000E+00 -0.00000000000E+00 -0.16238086382E+04  0.16238086382E+04  0.00000000000E+00 0. -1.
          6    1    1    2  501    0  0.47164570160E+02 -0.70545158575E+02 -0.58351373694E+03  0.61422585201E+03  0.17200000000E+03 0. -1.
         -6    1    1    2    0  502 -0.47164570160E+02  0.70545158575E+02 -0.10159663289E+04  0.10339113586E+04  0.17200000000E+03 0. -1.
</event>
<event>
 4    1  0.1232978E+000  0.3246377E+03  0.7818608E-02  0.1073534E+00
         21   -1    0    0  501  502  0.00000000000E+00  0.00000000000E+00  0.27475092910E+03  0.27475092910E+03  0.00000000000E+00 0. -1.
         21   -1    0    0  502  503 -0.00000000000E+00 -0.00000000000E+00 -0.39123351853E+03  0.39123351853E+03  0.00000000000E+00 0.  1.
          6    1    1    2  501    0  0.27478639077E+03 -0.17265433264E+02 -0.10480793642E+03  0.34113686297E+03  0.17200000000E+03 0.  1.
         -6    1    1    2    0  503 -0.27478639077E+03  0.17265433264E+02 -0.11674653001E+02  0.32484758466E+03  0.17200000000E+03 0. -1.
</event>
<event>
 4    1  0.1232978E+000  0.1811233E+03  0.7818608E-02  0.1166720E+00
         21   -1    0    0  503  502  0.00000000000E+00  0.00000000000E+00  0.10013075205E+04  0.10013075205E+04  0.00000000000E+00 0. -1.
         21   -1    0    0  501  503 -0.00000000000E+00 -0.00000000000E+00 -0.40279003427E+02  0.40279003427E+02  0.00000000000E+00 0.  1.
          6    1    1    2  501    0 -0.25928296824E+01  0.56700358063E+02  0.25554414959E+03  0.31322270952E+03  0.17200000000E+03 0.  1.
         -6    1    1    2    0  502  0.25928296824E+01 -0.56700358063E+02  0.70548436743E+03  0.72836381436E+03  0.17200000000E+03 0. -1.
</event>
<event>
 4    1  0.1232978E+000  0.1741970E+03  0.7818608E-02  0.1173540E+00
         21   -1    0    0  501  502  0.00000000000E+00  0.00000000000E+00  0.11150879488E+03  0.11150879488E+03  0.00000000000E+00 0. -1.
         21   -1    0    0  502  503 -0.00000000000E+00 -0.00000000000E+00 -0.52291571109E+03  0.52291571109E+03  0.00000000000E+00 0. -1.
          6    1    1    2  501    0 -0.77237600667E+00  0.27567802578E+02  0.13975214331E+02  0.17475665057E+03  0.17200000000E+03 0. -1.
         -6    1    1    2    0  503  0.77237600667E+00 -0.27567802578E+02 -0.42538213054E+03  0.45966785540E+03  0.17200000000E+03 0. -1.
</event>
<event>
 4    1  0.1232978E+000  0.1985386E+03  0.7818608E-02  0.1150978E+00
         21   -1    0    0  501  502  0.00000000000E+00  0.00000000000E+00  0.52852273019E+03  0.52852273019E+03  0.00000000000E+00 0.  1.
         21   -1    0    0  502  503 -0.00000000000E+00 -0.00000000000E+00 -0.77585004821E+02  0.77585004821E+02  0.00000000000E+00 0. -1.
          6    1    1    2  501    0 -0.88819479981E+02 -0.44098283622E+02  0.28510478351E+03  0.34742235999E+03  0.17200000000E+03 0.  1.
         -6    1    1    2    0  503  0.88819479981E+02  0.44098283622E+02  0.16583294186E+03  0.25868537502E+03  0.17200000000E+03 0.  1.
</event>
<event>
 4    1  0.1232978E+000  0.1798699E+03  0.7818608E-02  0.1167929E+00
         21   -1    0    0  503  502  0.00000000000E+00  0.00000000000E+00  0.15547705715E+03  0.15547705715E+03  0.00000000000E+00 0.  1.
         21   -1    0    0  501  503 -0.00000000000E+00 -0.00000000000E+00 -0.22044927432E+03  0.22044927432E+03  0.00000000000E+00 0.  1.
          6    1    1    2  501    0  0.47270748436E+02 -0.23122929579E+02 -0.76992049221E+02  0.19565523038E+03  0.17200000000E+03 0.  1.
         -6    1    1    2    0  502 -0.47270748436E+02  0.23122929579E+02  0.12019832050E+02  0.18027110110E+03  0.17200000000E+03 0.  1.
</event>
<event>
 4    1  0.1232978E+000  0.2302250E+03  0.7818608E-02  0.1126482E+00
         21   -1    0    0  503  502  0.00000000000E+00  0.00000000000E+00  0.33014280501E+03  0.33014280501E+03  0.00000000000E+00 0. -1.
         21   -1    0    0  501  503 -0.00000000000E+00 -0.00000000000E+00 -0.16823717738E+03  0.16823717738E+03  0.00000000000E+00 0. -1.
          6    1    1    2  501    0 -0.13702302402E+03 -0.68148652831E+02  0.27677221629E+02  0.23188267851E+03  0.17200000000E+03 0. -1.
         -6    1    1    2    0  502  0.13702302402E+03  0.68148652831E+02  0.13422840600E+03  0.26649730388E+03  0.17200000000E+03 0. -1.
</event>
<event>
 4    1  0.1232978E+000  0.1872681E+03  0.7818608E-02  0.1160949E+00
         21   -1    0    0  501  502  0.00000000000E+00  0.00000000000E+00  0.93976211835E+03  0.93976211835E+03  0.00000000000E+00 0. -1.
         21   -1    0    0  502  503 -0.00000000000E+00 -0.00000000000E+00 -0.38006168406E+02  0.38006168406E+02  0.00000000000E+00 0. -1.
          6    1    1    2  501    0 -0.29905988174E+02  0.67756841703E+02  0.51669771385E+03  0.54958701333E+03  0.17200000000E+03 0. -1.
         -6    1    1    2    0  503  0.29905988174E+02 -0.67756841703E+02  0.38505823609E+03  0.42818127342E+03  0.17200000000E+03 0. -1.
</event>
<event>
 4    1  0.1232978E+000  0.1739779E+03  0.7818608E-02  0.1173762E+00
         21   -1    0    0  503  502  0.00000000000E+00  0.00000000000E+00  0.51211249399E+03  0.51211249399E+03  0.00000000000E+00 0.  1.
         21   -1    0    0  501  503 -0.00000000000E+00 -0.00000000000E+00 -0.75462510675E+02  0.75462510675E+02  0.00000000000E+00 0.  1.
          6    1    1    2  501    0  0.25380058537E+02 -0.63366239565E+01  0.81542938639E+02  0.19213940516E+03  0.17200000000E+03 0.  1.
         -6    1    1    2    0  502 -0.25380058537E+02  0.63366239565E+01  0.35510704468E+03  0.39543559950E+03  0.17200000000E+03 0.  1.
</event>
<event>
 4    1  0.1232978E+000  0.2290125E+03  0.7818608E-02  0.1127337E+00
         21   -1    0    0  501  502  0.00000000000E+00  0.00000000000E+00  0.13754611489E+03  0.13754611489E+03  0.00000000000E+00 0.  1.
         21   -1    0    0  502  503 -0.00000000000E+00 -0.00000000000E+00 -0.43566804665E+03  0.43566804665E+03  0.00000000000E+00 0.  1.
          6    1    1    2  501    0 -0.30018747355E+02 -0.14819446287E+03 -0.47816897300E+02  0.23395123356E+03  0.17200000000E+03 0.  1.
         -6    1    1    2    0  503  0.30018747355E+02  0.14819446287E+03 -0.25030503446E+03  0.33926292797E+03  0.17200000000E+03 0.  1.
</event>
<event>
 4    1  0.1232978E+000  0.1762777E+03  0.7818608E-02  0.1171455E+00
         21   -1    0    0  503  502  0.00000000000E+00  0.00000000000E+00  0.20832062529E+04  0.20832062529E+04  0.00000000000E+00 0. -1.
         21   -1    0    0  501  503 -0.00000000000E+00 -0.00000000000E+00 -0.64057548154E+02  0.64057548154E+02  0.00000000000E+00 0.  1.
          6    1    1    2  501    0 -0.18858875809E+02  0.33677636079E+02  0.69216603955E+02  0.18937998477E+03  0.17200000000E+03 0.  1.
         -6    1    1    2    0  502  0.18858875809E+02 -0.33677636079E+02  0.19499321007E+04  0.19578838162E+04  0.17200000000E+03 0. -1.
</event>
<event>
 4    1  0.1232978E+000  0.2074378E+03  0.7818608E-02  0.1143611E+00
         21   -1    0    0  501  502  0.00000000000E+00  0.00000000000E+00  0.14408590522E+03  0.14408590522E+03  0.00000000000E+00 0. -1.
         21   -1    0    0  502  503 -0.00000000000E+00 -0.00000000000E+00 -0.50608689740E+03  0.50608689740E+03  0.00000000000E+00 0.  1.
          6    1    1    2  501    0 -0.97335600544E+02  0.63025505858E+02  0.27129766724E+02  0.20920434452E+03  0.17200000000E+03 0. -1.
         -6    1    1    2    0  503  0.97335600544E+02 -0.63025505858E+02 -0.38913075890E+03  0.44096845811E+03  0.17200000000E+03 0.  1.
</event>
<event>
 4    1  0.1232978E+000  0.4384875E+03  0.7818608E-02  0.1031212E+00
         21   -1    0    0  503  502  0.00000000000E+00  0.00000000000E+00  0.14922909064E+04  0.14922909064E+04  0.00000000000E+00 0. -1.
         21   -1    0    0  501  503 -0.00000000000E+00 -0.00000000000E+00 -0.22077641171E+03  0.22077641171E+03  0.00000000000E+00 0.  1.
          6    1    1    2  501    0  0.39751127226E+03 -0.68352742193E+02  0.83037890891E+02  0.44628085357E+03  0.17200000000E+03 0.  1.
         -6    1    1    2    0  502 -0.39751127226E+03  0.68352742193E+02  0.11884766038E+04  0.12667864645E+04  0.17200000000E+03 0. -1.
</event>
<event>
 4    1  0.1232978E+000  0.2067992E+03  0.7818608E-02  0.1144126E+00
         21   -1    0    0  503  502  0.00000000000E+00  0.00000000000E+00  0.76401200611E+02  0.76401200611E+02  0.00000000000E+00 0.  1.
         21   -1    0    0  501  503 -0.00000000000E+00 -0.00000000000E+00 -0.56340641211E+03  0.56340641211E+03  0.00000000000E+00 0.  1.
          6    1    1    2  501    0 -0.40315488542E+00 -0.11481175658E+03 -0.26925866781E+03  0.33950866289E+03  0.17200000000E+03 0.  1.
         -6    1    1    2    0  502  0.40315488542E+00  0.11481175658E+03 -0.21774654369E+03  0.30029894984E+03  0.17200000000E+03 0.  1.
</event>
<event>
 4    1  0.1232978E+000  0.1806438E+03  0.7818608E-02  0.1167181E+00
         21   -1    0    0  501  502  0.00000000000E+00  0.00000000000E+00  0.18263162464E+03  0.18263162464E+03  0.00000000000E+00 0. -1.
         21   -1    0    0  502  503 -0.00000000000E+00 -0.00000000000E+00 -0.18075545781E+03  0.18075545781E+03  0.00000000000E+00 0. -1.
          6    1    1    2  501    0 -0.49791071851E+02  0.23854098327E+02  0.20418950803E+02  0.18179412090E+03  0.17200000000E+03 0. -1.
         -6    1    1    2    0  503  0.49791071851E+02 -0.23854098327E+02 -0.18542783972E+02  0.18159296154E+03  0.17200000000E+03 0. -1.
</event>
<event>
 4    1  0.1232978E+000  0.2465174E+03  0.7818608E-02  0.1115526E+00
         21   -1    0    0  503  502  0.00000000000E+00  0.00000000000E+00  0.77629816418E+03  0.77629816418E+03  0.00000000000E+00 0. -1.
         21   -1    0    0  501  503 -0.00000000000E+00 -0.00000000000E+00 -0.78283916409E+02  0.78283916409E+02  0.00000000000E+00 0. -1.
          6    1    1    2  501    0 -0.10405063088E+03  0.14268951139E+03  0.34742787531E+03  0.42600112557E+03  0.17200000000E+03 0. -1.
         -6    1    1    2    0  502  0.10405063088E+03 -0.14268951139E+03  0.35058637247E+03  0.42858095502E+03  0.17200000000E+03 0. -1.
</event>
<event>
 4    1  0.1232978E+000  0.1986236E+03  0.7818608E-02  0.1150906E+00
         21   -1    0    0  503  502  0.00000000000E+00  0.00000000000E+00  0.15791424152E+03  0.15791424152E+03  0.00000000000E+00 0. -1.
         21   -1    0    0  501  503 -0.00000000000E+00 -0.00000000000E+00 -0.25368082720E+03  0.25368082720E+03  0.00000000000E+00 0. -1.
          6    1    1    2  501    0 -0.64235710009E+02 -0.75770027159E+02 -0.22519563043E+02  0.19989610846E+03  0.17200000000E+03 0. -1.
         -6    1    1    2    0  502  0.64235710009E+02  0.75770027159E+02 -0.73247022636E+02  0.21169896027E+03  0.17200000000E+03 0. -1.
</event>
<event>
 4    1  0.1232978E+000  0.2034984E+03  0.7818608E-02  0.1146820E+00
         21   -1    0    0  501  502  0.00000000000E+00  0.00000000000E+00  0.88937654370E+02  0.88937654370E+02  0.00000000000E+00 0. -1.
         21   -1    0    0  502  503 -0.00000000000E+00 -0.00000000000E+00 -0.53056023733E+03  0.53056023733E+03  0.00000000000E+00 0. -1.
          6    1    1    2  501    0 -0.68823882077E+02 -0.84207407912E+02 -0.32917453361E+03  0.38699804634E+03  0.17200000000E+03 0. -1.
         -6    1    1    2    0  503  0.68823882077E+02  0.84207407912E+02 -0.11244804935E+03  0.23249984536E+03  0.17200000000E+03 0. -1.
</event>
<event>
 4    1  0.1232978E+000  0.2469375E+03  0.7818608E-02  0.1115256E+00
         21   -1    0    0  503  502  0.00000000000E+00  0.00000000000E+00  0.28402486981E+03  0.28402486981E+03  0.00000000000E+00 0. -1.
         21   -1    0    0  501  503 -0.00000000000E+00 -0.00000000000E+00 -0.26232666980E+03  0.26232666980E+03  0.00000000000E+00 0. -1.
          6    1    1    2  501    0 -0.13504421270E+03 -0.11470472132E+03 -0.10555776621E+03  0.26855270337E+03  0.17200000000E+03 0. -1.
         -6    1    1    2    0  502  0.13504421270E+03  0.11470472132E+03  0.12725596622E+03  0.27779883624E+03  0.17200000000E+03 0. -1.
</event>
<event>
 4    1  0.1232978E+000  0.2113943E+03  0.7818608E-02  0.1140467E+00
         21   -1    0    0  503  502  0.00000000000E+00  0.00000000000E+00  0.65422117221E+02  0.65422117221E+02  0.00000000000E+00 0. -1.
         21   -1    0    0  501  503 -0.00000000000E+00 -0.00000000000E+00 -0.10559297633E+04  0.10559297633E+04  0.00000000000E+00 0. -1.
          6    1    1    2  501    0 -0.35234369422E+02 -0.11773739840E+03 -0.82842705383E+03  0.85497306348E+03  0.17200000000E+03 0. -1.
         -6    1    1    2    0  502  0.35234369422E+02  0.11773739840E+03 -0.16208059221E+03  0.26637881699E+03  0.17200000000E+03 0. -1.
</event>
<event>
 4    1  0.1232978E+000  0.1720312E+03  0.7818608E-02  0.1175746E+00
         21   -1    0    0  501  502  0.00000000000E+00  0.00000000000E+00  0.17650148127E+03  0.17650148127E+03  0.00000000000E+00 0.  1.
         21   -1    0    0  502  503 -0.00000000000E+00 -0.00000000000E+00 -0.74887900876E+03  0.74887900876E+03  0.00000000000E+00 0.  1.
          6    1    1    2  501    0  0.21552266124E+01 -0.24646528186E+01  0.12142530695E+03  0.21056786242E+03  0.17200000000E+03 0.  1.
         -6    1    1    2    0  503 -0.21552266124E+01  0.24646528186E+01 -0.69380283444E+03  0.71481262761E+03  0.17200000000E+03 0.  1.
</event>
<event>
 4    1  0.1232978E+000  0.1809424E+03  0.7818608E-02  0.1166894E+00
         21   -1    0    0  501  502  0.00000000000E+00  0.00000000000E+00  0.32976786178E+02  0.32976786178E+02  0.00000000000E+00 0.  1.
         21   -1    0    0  502  503 -0.00000000000E+00 -0.00000000000E+00 -0.13675407647E+04  0.13675407647E+04  0.00000000000E+00 0.  1.
          6    1    1    2  501    0 -0.54587347347E+02 -0.13280577633E+02 -0.30072639663E+03  0.35096512342E+03  0.17200000000E+03 0.  1.
         -6    1    1    2    0  503  0.54587347347E+02  0.13280577633E+02 -0.10338375819E+04  0.10495524274E+04  0.17200000000E+03 0.  1.
</event>
<event>
 4    1  0.1232978E+000  0.1730857E+03  0.7818608E-02  0.1174668E+00
         21   -1    0    0  501  502  0.00000000000E+00  0.00000000000E+00  0.24595412461E+03  0.24595412461E+03  0.00000000000E+00 0.  1.
         21   -1    0    0  502  503 -0.00000000000E+00 -0.00000000000E+00 -0.18127861069E+03  0.18127861069E+03  0.00000000000E+00 0.  1.
          6    1    1    2  501    0  0.55420753868E+01 -0.18545565171E+02 -0.90016834936E+02  0.19509403671E+03  0.17200000000E+03 0.  1.
         -6    1    1    2    0  503 -0.55420753868E+01  0.18545565171E+02  0.15469234886E+03  0.23213869859E+03  0.17200000000E+03 0.  1.
</event>
<event>
 4    1  0.1232978E+000  0.1758314E+03  0.7818608E-02  0.1171900E+00
         21   -1    0    0  501  502  0.00000000000E+00  0.00000000000E+00  0.28013410368E+02  0.28013410368E+02  0.00000000000E+00 0. -1.
         21   -1    0    0  502  503 -0.00000000000E+00 -0.00000000000E+00 -0.11608667978E+04  0.11608667978E+04  0.00000000000E+00 0. -1.
          6    1    1    2  501    0 -0.27685083438E+02  0.23795081278E+02 -0.43444203110E+03  0.46867531205E+03  0.17200000000E+03 0. -1.
         -6    1    1    2    0  503  0.27685083438E+02 -0.23795081278E+02 -0.69841135631E+03  0.72020489610E+03  0.17200000000E+03 0. -1.
</event>
<event>
 4    1  0.1232978E+000  0.1807847E+03  0.7818608E-02  0.1167046E+00
         21   -1    0    0  501  502  0.00000000000E+00  0.00000000000E+00  0.70132409863E+03  0.70132409863E+03  0.00000000000E+00 0. -1.
         21   -1    0    0  502  503 -0.00000000000E+00 -0.00000000000E+00 -0.97816753217E+02  0.97816753217E+02  0.00000000000E+00 0.  1.
          6    1    1    2  501    0 -0.20854625570E+02 -0.51615685716E+02  0.59087779337E+03  0.61791557766E+03  0.17200000000E+03 0. -1.
         -6    1    1    2    0  503  0.20854625570E+02  0.51615685716E+02  0.12629552045E+02  0.18122527419E+03  0.17200000000E+03 0.  1.
</event>
<event>
 4    1  0.1232978E+000  0.2565661E+03  0.7818608E-02  0.1109224E+00
         21   -1    0    0  503  502  0.00000000000E+00  0.00000000000E+00  0.13421108634E+03  0.13421108634E+03  0.00000000000E+00 0. -1.
         21   -1    0    0  501  503 -0.00000000000E+00 -0.00000000000E+00 -0.49228994353E+03  0.49228994353E+03  0.00000000000E+00 0.  1.
          6    1    1    2  501    0 -0.16353952224E+03  0.97452567588E+02 -0.15998015560E+03  0.30235712072E+03  0.17200000000E+03 0.  1.
         -6    1    1    2    0  502  0.16353952224E+03 -0.97452567588E+02 -0.19809870159E+03  0.32414390914E+03  0.17200000000E+03 0. -1.
</event>
<event>
 4    1  0.1232978E+000  0.3054424E+03  0.7818608E-02  0.1082551E+00
         21   -1    0    0  501  502  0.00000000000E+00  0.00000000000E+00  0.24948174649E+03  0.24948174649E+03  0.00000000000E+00 0. -1.
         21   -1    0    0  502  503 -0.00000000000E+00 -0.00000000000E+00 -0.37439058948E+03  0.37439058948E+03  0.00000000000E+00 0.  1.
          6    1    1    2  501    0 -0.73132818853E+02 -0.24158365279E+03 -0.73088358649E+02  0.31406524586E+03  0.17200000000E+03 0. -1.
         -6    1    1    2    0  503  0.73132818853E+02  0.24158365279E+03 -0.51820484343E+02  0.30980709011E+03  0.17200000000E+03 0. -1.
</event>
<event>
 4    1  0.1232978E+000  0.2008445E+03  0.7818608E-02  0.1149028E+00
         21   -1    0    0  501  502  0.00000000000E+00  0.00000000000E+00  0.11190307123E+04  0.11190307123E+04  0.00000000000E+00 0. -1.
         21   -1    0    0  502  503 -0.00000000000E+00 -0.00000000000E+00 -0.36060659768E+02  0.36060659768E+02  0.00000000000E+00 0. -1.
          6    1    1    2  501    0  0.16997394341E+02  0.10230153457E+03  0.53054826534E+03  0.56729179198E+03  0.17200000000E+03 0.  1.
         -6    1    1    2    0  503 -0.16997394341E+02 -0.10230153457E+03  0.55242178721E+03  0.58779958011E+03  0.17200000000E+03 0.  1.
</event>
<event>
 4    1  0.1232978E+000  0.1776023E+03  0.7818608E-02  0.1170144E+00
         21   -1    0    0  503  502  0.00000000000E+00  0.00000000000E+00  0.80735312128E+02  0.80735312128E+02  0.00000000000E+00 0. -1.
         21   -1    0    0  501  503 -0.00000000000E+00 -0.00000000000E+00 -0.41548806155E+03  0.41548806155E+03  0.00000000000E+00 0. -1.
          6    1    1    2  501    0 -0.37373299169E+02 -0.23702294501E+02 -0.22798965580E+03  0.28900146264E+03  0.17200000000E+03 0. -1.
         -6    1    1    2    0  502  0.37373299169E+02  0.23702294501E+02 -0.10676309362E+03  0.20722191104E+03  0.17200000000E+03 0. -1.
</event>
<event>
 4    1  0.1232978E+000  0.1832092E+03  0.7818608E-02  0.1164733E+00
         21   -1    0    0  501  502  0.00000000000E+00  0.00000000000E+00  0.49333325660E+03  0.49333325660E+03  0.00000000000E+00 0.  1.
         21   -1    0    0  502  503 -0.00000000000E+00 -0.00000000000E+00 -0.68164324565E+02  0.68164324565E+02  0.00000000000E+00 0.  1.
          6    1    1    2  501    0 -0.45899346872E+01  0.62932987265E+02  0.20051982641E+03  0.27161338179E+03  0.17200000000E+03 0.  1.
         -6    1    1    2    0  503  0.45899346872E+01 -0.62932987265E+02  0.22464910563E+03  0.28988419938E+03  0.17200000000E+03 0.  1.
</event>
<event>
 4    1  0.1232978E+000  0.1742655E+03  0.7818608E-02  0.1173471E+00
         21   -1    0    0  501  502  0.00000000000E+00  0.00000000000E+00  0.63988674780E+02  0.63988674780E+02  0.00000000000E+00 0.  1.
         21   -1    0    0  502  503 -0.00000000000E+00 -0.00000000000E+00 -0.51938447500E+03  0.51938447500E+03  0.00000000000E+00 0.  1.
          6    1    1    2  501    0  0.27994619168E+02  0.86672429187E+00 -0.31335813856E+03  0.35855511838E+03  0.17200000000E+03 0.  1.
         -6    1    1    2    0  503 -0.27994619168E+02 -0.86672429187E+00 -0.14203766166E+03  0.22481803140E+03  0.17200000000E+03 0.  1.
</event>
<event>
 4    1  0.1232978E+000  0.3077262E+03  0.7818608E-02  0.1081441E+00
         21   -1    0    0  503  502  0.00000000000E+00  0.00000000000E+00  0.11751898222E+04  0.11751898222E+04  0.00000000000E+00 0.  1.
         21   -1    0    0  501  503 -0.00000000000E+00 -0.00000000000E+00 -0.81178037719E+02  0.81178037719E+02  0.00000000000E+00 0. -1.
          6    1    1    2  501    0  0.25512323143E+03  0.48550169046E+01  0.60097585050E+03  0.67517953708E+03  0.17200000000E+03 0. -1.
         -6    1    1    2    0  502 -0.25512323143E+03 -0.48550169046E+01  0.49303593393E+03  0.58118832279E+03  0.17200000000E+03 0. -1.
</event>
<event>
 4    1  0.1232978E+000  0.1971740E+03  0.7818608E-02  0.1152145E+00
         21   -1    0    0  501  502  0.00000000000E+00  0.00000000000E+00  0.43036539611E+02  0.43036539611E+02  0.00000000000E+00 0. -1.
         21   -1    0    0  502  503 -0.00000000000E+00 -0.00000000000E+00 -0.11902008373E+04  0.11902008373E+04  0.00000000000E+00 0. -1.
          6    1    1    2  501    0 -0.16003515461E+02  0.95065619107E+02 -0.27087313087E+03  0.33503706880E+03  0.17200000000E+03 0.  1.
         -6    1    1    2    0  503  0.16003515461E+02 -0.95065619107E+02 -0.87629116686E+03  0.89820030815E+03  0.17200000000E+03 0.  1.
</event>
<event>
 4    1  0.1232978E+000  0.1746886E+03  0.7818608E-02  0.1173045E+00
         21   -1    0    0  501  502  0.00000000000E+00  0.00000000000E+00  0.10325624706E+03  0.10325624706E+03  0.00000000000E+00 0.  1.
         21   -1    0    0  502  503 -0.00000000000E+00 -0.00000000000E+00 -0.32805308870E+03  0.32805308870E+03  0.00000000000E+00 0.  1.
          6    1    1    2  501    0 -0.30466462077E+02  0.19714337506E+01 -0.44504218680E+02  0.18026845909E+03  0.17200000000E+03 0. -1.
         -6    1    1    2    0  503  0.30466462077E+02 -0.19714337506E+01 -0.18029262296E+03  0.25104087666E+03  0.17200000000E+03 0. -1.
</event>
<event>
 4    1  0.1232978E+000  0.1796390E+03  0.7818608E-02  0.1168153E+00
         21   -1    0    0  501  502  0.00000000000E+00  0.00000000000E+00  0.11652203179E+03  0.11652203179E+03  0.00000000000E+00 0. -1.
         21   -1    0    0  502  503 -0.00000000000E+00 -0.00000000000E+00 -0.65796660498E+03  0.65796660498E+03  0.00000000000E+00 0. -1.
          6    1    1    2  501    0 -0.50963411000E+02  0.94284929378E+01  0.23962739481E+02  0.18123018133E+03  0.17200000000E+03 0. -1.
         -6    1    1    2    0  503  0.50963411000E+02 -0.94284929378E+01 -0.56540731267E+03  0.59325845545E+03  0.17200000000E+03 0. -1.
</event>
<event>
 4    1  0.1232978E+000  0.1911044E+03  0.7818608E-02  0.1157469E+00
         21   -1    0    0  501  502  0.00000000000E+00  0.00000000000E+00  0.16465636723E+03  0.16465636723E+03  0.00000000000E+00 0.  1.
         21   -1    0    0  502  503 -0.00000000000E+00 -0.00000000000E+00 -0.29439700411E+03  0.29439700411E+03  0.00000000000E+00 0.  1.
          6    1    1    2  501    0  0.83024602483E+02  0.66193197022E+01  0.49108382476E+02  0.19731328703E+03  0.17200000000E+03 0. -1.
         -6    1    1    2    0  503 -0.83024602483E+02 -0.66193197022E+01 -0.17884901935E+03  0.26174008431E+03  0.17200000000E+03 0. -1.
</event>
<event>
 4    1  0.1232978E+000  0.3489560E+03  0.7818608E-02  0.1063044E+00
         21   -1    0    0  501  502  0.00000000000E+00  0.00000000000E+00  0.41903954290E+03  0.41903954290E+03  0.00000000000E+00 0.  1.
         21   -1    0    0  502  503 -0.00000000000E+00 -0.00000000000E+00 -0.36112611377E+03  0.36112611377E+03  0.00000000000E+00 0.  1.
          6    1    1    2  501    0  0.24493784308E+03 -0.17942058068E+03  0.20135044252E+03  0.40287999758E+03  0.17200000000E+03 0.  1.
         -6    1    1    2    0  503 -0.24493784308E+03  0.17942058068E+03 -0.14343701340E+03  0.37728565909E+03  0.17200000000E+03 0.  1.
</event>
<event>
 4    1  0.1232978E+000  0.2018290E+03  0.7818608E-02  0.1148205E+00
         21   -1    0    0  503  502  0.00000000000E+00  0.00000000000E+00  0.19807905369E+03  0.19807905369E+03  0.00000000000E+00 0. -1.
         21   -1    0    0  501  503 -0.00000000000E+00 -0.00000000000E+00 -0.20796729037E+03  0.20796729037E+03  0.00000000000E+00 0.  1.
          6    1    1    2  501    0 -0.10012024114E+03 -0.33569126488E+02 -0.26375112583E+02  0.20354506996E+03  0.17200000000E+03 0.  1.
         -6    1    1    2    0  502  0.10012024114E+03  0.33569126488E+02  0.16486875904E+02  0.20250127411E+03  0.17200000000E+03 0. -1.
</event>
<event>
 4    1  0.1232978E+000  0.2458242E+03  0.7818608E-02  0.1115973E+00
         21   -1    0    0  503  502  0.00000000000E+00  0.00000000000E+00  0.31800621144E+03  0.31800621144E+03  0.00000000000E+00 0.  1.
         21   -1    0    0  501  503 -0.00000000000E+00 -0.00000000000E+00 -0.30935550991E+03  0.30935550991E+03  0.00000000000E+00 0. -1.
          6    1    1    2  501    0  0.77462766028E+02 -0.15762321891E+03 -0.19049413238E+03  0.31099449148E+03  0.17200000000E+03 0. -1.
         -6    1    1    2    0  502 -0.77462766028E+02  0.15762321891E+03  0.19914483391E+03  0.31636722987E+03  0.17200000000E+03 0.  1.
</event>
<event>
 4    1  0.1232978E+000  0.1728573E+03  0.7818608E-02  0.1174900E+00
         21   -1    0    0  503  502  0.00000000000E+00  0.00000000000E+00  0.27791393834E+03  0.27791393834E+03  0.00000000000E+00 0.  1.
         21   -1    0    0  501  503 -0.00000000000E+00 -0.00000000000E+00 -0.32857326312E+03  0.32857326312E+03  0.00000000000E+00 0.  1.
          6    1    1    2  501    0 -0.13570808040E+02 -0.10558403659E+02 -0.27406063422E+03  0.32401987277E+03  0.17200000000E+03 0.  1.
         -6    1    1    2    0  502  0.13570808040E+02  0.10558403659E+02  0.22340130944E+03  0.28246732869E+03  0.17200000000E+03 0.  1.
</event>
<event>
 4    1  0.1232978E+000  0.1855081E+03  0.7818608E-02  0.1162576E+00
         21   -1    0    0  501  502  0.00000000000E+00  0.00000000000E+00  0.55247165998E+02  0.55247165998E+02  0.00000000000E+00 0.  1.
         21   -1    0    0  502  503 -0.00000000000E+00 -0.00000000000E+00 -0.10771203619E+04  0.10771203619E+04  0.00000000000E+00 0.  1.
          6    1    1    2  501    0  0.37175593084E+02 -0.58713115074E+02 -0.14326475877E+03  0.23438866378E+03  0.17200000000E+03 0. -1.
         -6    1    1    2    0  503 -0.37175593084E+02  0.58713115074E+02 -0.87860843711E+03  0.89797886410E+03  0.17200000000E+03 0. -1.
</event>
<event>
 4    1  0.1232978E+000  0.1866207E+03  0.7818608E-02  0.1161545E+00
         21   -1    0    0  501  502  0.00000000000E+00  0.00000000000E+00  0.20689914047E+03  0.20689914047E+03  0.00000000000E+00 0. -1.
         21   -1    0    0  502  503 -0.00000000000E+00 -0.00000000000E+00 -0.17857055027E+03  0.17857055027E+03  0.00000000000E+00 0.  1.
          6    1    1    2  501    0 -0.34571941355E+02  0.63624364882E+02  0.60319686588E+02  0.19612685570E+03  0.17200000000E+03 0. -1.
         -6    1    1    2    0  503  0.34571941355E+02 -0.63624364882E+02 -0.31991096388E+02  0.18934283505E+03  0.17200000000E+03 0.  1.
</event>
<event>
 4    1  0.1232978E+000  0.2084319E+03  0.7818608E-02  0.1142814E+00
         21   -1    0    0  501  502  0.00000000000E+00  0.00000000000E+00  0.52808987740E+03  0.52808987740E+03  0.00000000000E+00 0. -1.
         21   -1    0    0  502  503 -0.00000000000E+00 -0.00000000000E+00 -0.22051323184E+03  0.22051323184E+03  0.00000000000E+00 0. -1.
          6    1    1    2  501    0  0.11406805521E+03  0.29126343923E+02  0.45015710563E+03  0.49606983871E+03  0.17200000000E+03 0. -1.
         -6    1    1    2    0  503 -0.11406805521E+03 -0.29126343923E+02 -0.14258046007E+03  0.25253327053E+03  0.17200000000E+03 0. -1.
</event>
<event>
 4    1  0.1232978E+000  0.1773617E+03  0.7818608E-02  0.1170381E+00
         21   -1    0    0  503  502  0.00000000000E+00  0.00000000000E+00  0.68013992035E+03  0.68013992035E+03  0.00000000000E+00 0. -1.
         21   -1    0    0  501  503 -0.00000000000E+00 -0.00000000000E+00 -0.38766302007E+03  0.38766302007E+03  0.00000000000E+00 0. -1.
          6    1    1    2  501    0  0.42962186759E+02 -0.52378553315E+01 -0.35480259198E+03  0.39666366596E+03  0.17200000000E+03 0. -1.
         -6    1    1    2    0  502 -0.42962186759E+02  0.52378553315E+01  0.64727949226E+03  0.67113927446E+03  0.17200000000E+03 0. -1.
</event>
<event>
 4    1  0.1232978E+000  0.2450556E+03  0.7818608E-02  0.1116470E+00
         21   -1    0    0  503  502  0.00000000000E+00  0.00000000000E+00  0.18852731024E+03  0.18852731024E+03  0.00000000000E+00 0.  1.
         21   -1    0    0  501  503 -0.00000000000E+00 -0.00000000000E+00 -0.15123672629E+04  0.15123672629E+04  0.00000000000E+00 0.  1.
          6    1    1    2  501    0 -0.96529580196E+02 -0.14543135020E+03 -0.14175178375E+04  0.14385440755E+04  0.17200000000E+03 0.  1.
         -6    1    1    2    0  502  0.96529580196E+02  0.14543135020E+03  0.93677884902E+02  0.26235049760E+03  0.17200000000E+03 0.  1.
</event>
<event>
 4    1  0.1232978E+000  0.1865385E+03  0.7818608E-02  0.1161621E+00
         21   -1    0    0  503  502  0.00000000000E+00  0.00000000000E+00  0.68719898366E+02  0.68719898366E+02  0.00000000000E+00 0. -1.
         21   -1    0    0  501  503 -0.00000000000E+00 -0.00000000000E+00 -0.50639360359E+03  0.50639360359E+03  0.00000000000E+00 0.  1.
          6    1    1    2  501    0  0.31459233083E+02 -0.64984185669E+02 -0.22136471190E+03  0.28948050609E+03  0.17200000000E+03 0.  1.
         -6    1    1    2    0  502 -0.31459233083E+02  0.64984185669E+02 -0.21630899333E+03  0.28563299587E+03  0.17200000000E+03 0.  1.
</event>
<event>
 4    1  0.1232978E+000  0.3099792E+03  0.7818608E-02  0.1080356E+00
         21   -1    0    0  503  502  0.00000000000E+00  0.00000000000E+00  0.18489399023E+03  0.18489399023E+03  0.00000000000E+00 0. -1.
         21   -1    0    0  501  503 -0.00000000000E+00 -0.00000000000E+00 -0.65826078953E+03  0.65826078953E+03  0.00000000000E+00 0.  1.
          6    1    1    2  501    0 -0.20367532604E+03 -0.15817543132E+03 -0.43011080063E+03  0.53017205351E+03  0.17200000000E+03 0. -1.
         -6    1    1    2    0  502  0.20367532604E+03  0.15817543132E+03 -0.43255998666E+02  0.31298272625E+03  0.17200000000E+03 0.  1.
</event>
<event>
 4    1  0.1232978E+000  0.2255648E+03  0.7818608E-02  0.1129801E+00
         21   -1    0    0  501  502  0.00000000000E+00  0.00000000000E+00  0.11540640968E+04  0.11540640968E+04  0.00000000000E+00 0.  1.
         21   -1    0    0  502  503 -0.00000000000E+00 -0.00000000000E+00 -0.44091464679E+02  0.44091464679E+02  0.00000000000E+00 0.  1.
          6    1    1    2  501    0  0.13624774873E+03 -0.52268972117E+02  0.54911839111E+03  0.59364172860E+03  0.17200000000E+03 0. -1.
         -6    1    1    2    0  503 -0.13624774873E+03  0.52268972117E+02  0.56085424100E+03  0.60451383287E+03  0.17200000000E+03 0. -1.
</event>
<event>
 4    1  0.1232978E+000  0.1869698E+03  0.7818608E-02  0.1161223E+00
         21   -1    0    0  501  502  0.00000000000E+00  0.00000000000E+00  0.14923942938E+03  0.14923942938E+03  0.00000000000E+00 0. -1.
         21   -1    0    0  502  503 -0.00000000000E+00 -0.00000000000E+00 -0.12554891560E+04  0.12554891560E+04  0.00000000000E+00 0. -1.
          6    1    1    2  501    0 -0.51283119777E+01 -0.73126072841E+02  0.80339182760E+02  0.20349964717E+03  0.17200000000E+03 0. -1.
         -6    1    1    2    0  503  0.51283119777E+01  0.73126072841E+02 -0.11865889094E+04  0.12012289382E+04  0.17200000000E+03 0. -1.
</event>
<event>
 4    1  0.1232978E+000  0.2089217E+03  0.7818608E-02  0.1142423E+00
         21   -1    0    0  503  502  0.00000000000E+00  0.00000000000E+00  0.72817011626E+03  0.72817011626E+03  0.00000000000E+00 0. -1.
         21   -1    0    0  501  503 -0.00000000000E+00 -0.00000000000E+00 -0.84472983058E+02  0.84472983058E+02  0.00000000000E+00 0.  1.
          6    1    1    2  501    0 -0.48545956818E+02 -0.10820151219E+03  0.10288859874E+03  0.23288267629E+03  0.17200000000E+03 0.  1.
         -6    1    1    2    0  502  0.48545956818E+02  0.10820151219E+03  0.54080853446E+03  0.57976042303E+03  0.17200000000E+03 0. -1.
</event>
<event>
 4    1  0.1232978E+000  0.2592428E+03  0.7818608E-02  0.1107599E+00
         21   -1    0    0  503  502  0.00000000000E+00  0.00000000000E+00  0.90413629498E+03  0.90413629498E+03  0.00000000000E+00 0. -1.
         21   -1    0    0  501  503 -0.00000000000E+00 -0.00000000000E+00 -0.84501542646E+02  0.84501542646E+02  0.00000000000E+00 0.  1.
          6    1    1    2  501    0  0.72539118549E+02  0.17989143868E+03  0.23833812139E+03  0.35215325291E+03  0.17200000000E+03 0. -1.
         -6    1    1    2    0  502 -0.72539118549E+02 -0.17989143868E+03  0.58129663094E+03  0.63648458471E+03  0.17200000000E+03 0.  1.
</event>
<event>
 4    1  0.1232978E+000  0.1800752E+03  0.7818608E-02  0.1167730E+00
         21   -1    0    0  501  502  0.00000000000E+00  0.00000000000E+00  0.50532236967E+02  0.50532236967E+02  0.00000000000E+00 0.  1.
         21   -1    0    0  502  503 -0.00000000000E+00 -0.00000000000E+00 -0.10552233371E+04  0.10552233371E+04  0.00000000000E+00 0. -1.
          6    1    1    2  501    0  0.11935736787E+02  0.51967464093E+02 -0.15624577224E+03  0.23841103263E+03  0.17200000000E+03 0.  1.
         -6    1    1    2    0  503 -0.11935736787E+02 -0.51967464093E+02 -0.84844532793E+03  0.86734454147E+03  0.17200000000E+03 0. -1.
</event>
<event>
 4    1  0.1232978E+000  0.1986751E+03  0.7818608E-02  0.1150862E+00
         21   -1    0    0  503  502  0.00000000000E+00  0.00000000000E+00  0.86539643495E+02  0.86539643495E+02  0.00000000000E+00 0.  1.
         21   -1    0    0  501  503 -0.00000000000E+00 -0.00000000000E+00 -0.10900018407E+04  0.10900018407E+04  0.00000000000E+00 0.  1.
          6    1    1    2  501    0  0.63510102268E+01 -0.99234392654E+02 -0.95034260631E+03  0.97088767084E+03  0.17200000000E+03 0.  1.
         -6    1    1    2    0  502 -0.63510102268E+01  0.99234392654E+02 -0.53119590910E+02  0.20565381337E+03  0.17200000000E+03 0.  1.
</event>
<event>
 4    1  0.1232978E+000  0.2099993E+03  0.7818608E-02  0.1141567E+00
         21   -1    0    0  503  502  0.00000000000E+00  0.00000000000E+00  0.12932693618E+03  0.12932693618E+03  0.00000000000E+00 0. -1.
         21   -1    0    0  501  503 -0.00000000000E+00 -0.00000000000E+00 -0.37359565543E+03  0.37359565543E+03  0.00000000000E+00 0.  1.
          6    1    1    2  501    0 -0.10669508918E+03  0.55963072699E+02 -0.19641748285E+03  0.28754049303E+03  0.17200000000E+03 0.  1.
         -6    1    1    2    0  502  0.10669508918E+03 -0.55963072699E+02 -0.47851236399E+02  0.21538209857E+03  0.17200000000E+03 0. -1.
</event>
<event>
 4    1  0.1232978E+000  0.1784372E+03  0.7818608E-02  0.1169324E+00
         21   -1    0    0  501  502  0.00000000000E+00  0.00000000000E+00  0.22549671220E+03  0.22549671220E+03  0.00000000000E+00 0. -1.
         21   -1    0    0  502  503 -0.00000000000E+00 -0.00000000000E+00 -0.18756269763E+03  0.18756269763E+03  0.00000000000E+00 0. -1.
          6    1    1    2  501    0 -0.45159211620E+02 -0.14713216088E+02  0.12165033248E+03  0.21595980301E+03  0.17200000000E+03 0. -1.
         -6    1    1    2    0  503  0.45159211620E+02  0.14713216088E+02 -0.83716317917E+02  0.19709960682E+03  0.17200000000E+03 0. -1.
</event>
<event>
 4    1  0.1232978E+000  0.1791300E+03  0.7818608E-02  0.1168648E+00
         21   -1    0    0  501  502  0.00000000000E+00  0.00000000000E+00  0.76007586792E+03  0.76007586792E+03  0.00000000000E+00 0.  1.
         21   -1    0    0  502  503 -0.00000000000E+00 -0.00000000000E+00 -0.48691082711E+02  0.48691082711E+02  0.00000000000E+00 0. -1.
          6    1    1    2  501    0 -0.90429662582E+01  0.49211605800E+02  0.50315528934E+03  0.53409063142E+03  0.17200000000E+03 0.  1.
         -6    1    1    2    0  503  0.90429662582E+01 -0.49211605800E+02  0.20822949588E+03  0.27467631921E+03  0.17200000000E+03 0. -1.
</event>
<event>
 4    1  0.1232978E+000  0.2649992E+03  0.7818608E-02  0.1104176E+00
         21   -1    0    0  501  502  0.00000000000E+00  0.00000000000E+00  0.31970281381E+03  0.31970281381E+03  0.00000000000E+00 0. -1.
         21   -1    0    0  502  503 -0.00000000000E+00 -0.00000000000E+00 -0.31614480278E+03  0.31614480278E+03  0.00000000000E+00 0. -1.
          6    1    1    2  501    0 -0.72868041371E+02 -0.18796495220E+03  0.17741719682E+03  0.31890662652E+03  0.17200000000E+03 0.  1.
         -6    1    1    2    0  503  0.72868041371E+02  0.18796495220E+03 -0.17385918579E+03  0.31694099008E+03  0.17200000000E+03 0.  1.
</event>
<event>
 4    1  0.1232978E+000  0.2199107E+03  0.7818608E-02  0.1133950E+00
         21   -1    0    0  503  502  0.00000000000E+00  0.00000000000E+00  0.62339012453E+03  0.62339012453E+03  0.00000000000E+00 0. -1.
         21   -1    0    0  501  503 -0.00000000000E+00 -0.00000000000E+00 -0.78303813999E+02  0.78303813999E+02  0.00000000000E+00 0. -1.
          6    1    1    2  501    0 -0.71275833374E-01 -0.13702819839E+03  0.23874137537E+03  0.32458924281E+03  0.17200000000E+03 0. -1.
         -6    1    1    2    0  502  0.71275833374E-01  0.13702819839E+03  0.30634493516E+03  0.37710469571E+03  0.17200000000E+03 0. -1.
</event>
<event>
 4    1  0.1232978E+000  0.1941742E+03  0.7818608E-02  0.1154749E+00
         21   -1    0    0  503  502  0.00000000000E+00  0.00000000000E+00  0.18971812820E+04  0.18971812820E+04  0.00000000000E+00 0. -1.
         21   -1    0    0  501  503 -0.00000000000E+00 -0.00000000000E+00 -0.22997360213E+02  0.22997360213E+02  0.00000000000E+00 0. -1.
          6    1    1    2  501    0 -0.76649209328E+02  0.47376273379E+02  0.58324199286E+03  0.61471524693E+03  0.17200000000E+03 0. -1.
         -6    1    1    2    0  502  0.76649209328E+02 -0.47376273379E+02  0.12909419289E+04  0.13054633953E+04  0.17200000000E+03 0. -1.
</event>
<event>
 4    1  0.1232978E+000  0.1864480E+03  0.7818608E-02  0.1161705E+00
         21   -1    0    0  503  502  0.00000000000E+00  0.00000000000E+00  0.26719379698E+03  0.26719379698E+03  0.00000000000E+00 0. -1.
         21   -1    0    0  501  503 -0.00000000000E+00 -0.00000000000E+00 -0.20677370147E+03  0.20677370147E+03  0.00000000000E+00 0. -1.
          6    1    1    2  501    0 -0.70304447007E+02 -0.15366315052E+02 -0.11409592785E+03  0.21858801353E+03  0.17200000000E+03 0. -1.
         -6    1    1    2    0  502  0.70304447007E+02  0.15366315052E+02  0.17451602336E+03  0.25537948492E+03  0.17200000000E+03 0. -1.
</event>
<event>
 4    1  0.1232978E+000  0.1835922E+03  0.7818608E-02  0.1164371E+00
         21   -1    0    0  503  502  0.00000000000E+00  0.00000000000E+00  0.98374522254E+02  0.98374522254E+02  0.00000000000E+00 0.  1.
         21   -1    0    0  501  503 -0.00000000000E+00 -0.00000000000E+00 -0.35725814934E+03  0.35725814934E+03  0.00000000000E+00 0.  1.
          6    1    1    2  501    0 -0.16281306493E+01 -0.64183009575E+02 -0.17553974052E+03  0.25400848417E+03  0.17200000000E+03 0.  1.
         -6    1    1    2    0  502  0.16281306493E+01  0.64183009575E+02 -0.83343886568E+02  0.20162418743E+03  0.17200000000E+03 0.  1.
</event>
<event>
 4    1  0.1232978E+000  0.2739229E+03  0.7818608E-02  0.1099055E+00
         21   -1    0    0  503  502  0.00000000000E+00  0.00000000000E+00  0.30005182820E+03  0.30005182820E+03  0.00000000000E+00 0.  1.
         21   -1    0    0  501  503 -0.00000000000E+00 -0.00000000000E+00 -0.28102679406E+03  0.28102679406E+03  0.00000000000E+00 0.  1.
          6    1    1    2  501    0  0.16948991483E+03 -0.12931724299E+03 -0.86917720699E+02  0.28738209884E+03  0.17200000000E+03 0. -1.
         -6    1    1    2    0  502 -0.16948991483E+03  0.12931724299E+03  0.10594275485E+03  0.29369652342E+03  0.17200000000E+03 0. -1.
</event>
<event>
 4    1  0.1232978E+000  0.1795418E+03  0.7818608E-02  0.1168247E+00
         21   -1    0    0  503  502  0.00000000000E+00  0.00000000000E+00  0.54035922786E+03  0.54035922786E+03  0.00000000000E+00 0.  1.
         21   -1    0    0  501  503 -0.00000000000E+00 -0.00000000000E+00 -0.64262344883E+02  0.64262344883E+02  0.00000000000E+00 0.  1.
          6    1    1    2  501    0 -0.41746386971E+02  0.30141147510E+02  0.15710339713E+03  0.23857226785E+03  0.17200000000E+03 0.  1.
         -6    1    1    2    0  502  0.41746386971E+02 -0.30141147510E+02  0.31899348585E+03  0.36604930489E+03  0.17200000000E+03 0.  1.
</event>
<event>
 4    1  0.1232978E+000  0.1810859E+03  0.7818608E-02  0.1166756E+00
         21   -1    0    0  501  502  0.00000000000E+00  0.00000000000E+00  0.41087799468E+03  0.41087799468E+03  0.00000000000E+00 0. -1.
         21   -1    0    0  502  503 -0.00000000000E+00 -0.00000000000E+00 -0.11588442874E+03  0.11588442874E+03  0.00000000000E+00 0. -1.
          6    1    1    2  501    0  0.49428138726E+02  0.27658124279E+02  0.29444788922E+03  0.34567567488E+03  0.17200000000E+03 0. -1.
         -6    1    1    2    0  503 -0.49428138726E+02 -0.27658124279E+02  0.54567671653E+00  0.18108674855E+03  0.17200000000E+03 0. -1.
</event>
<event>
 4    1  0.1232978E+000  0.1722045E+03  0.7818608E-02  0.1175568E+00
         21   -1    0    0  503  502  0.00000000000E+00  0.00000000000E+00  0.47095212967E+03  0.47095212967E+03  0.00000000000E+00 0. -1.
         21   -1    0    0  501  503 -0.00000000000E+00 -0.00000000000E+00 -0.63086770558E+02  0.63086770558E+02  0.00000000000E+00 0. -1.
          6    1    1    2  501    0 -0.75661974850E+01  0.36244969051E+01  0.21557323206E+03  0.27590977275E+03  0.17200000000E+03 0.  1.
         -6    1    1    2    0  502  0.75661974850E+01 -0.36244969051E+01  0.19229212705E+03  0.25812912747E+03  0.17200000000E+03 0.  1.
</event>
<event>
 4    1  0.1232978E+000  0.2643049E+03  0.7818608E-02  0.1104584E+00
         21   -1    0    0  501  502  0.00000000000E+00  0.00000000000E+00  0.44161016173E+03  0.44161016173E+03  0.00000000000E+00 0.  1.
         21   -1    0    0  502  503 -0.00000000000E+00 -0.00000000000E+00 -0.47605594733E+03  0.47605594733E+03  0.00000000000E+00 0. -1.
          6    1    1    2  501    0  0.19832052459E+03 -0.30692649017E+02  0.35770661674E+03  0.44475958993E+03  0.17200000000E+03 0.  1.
         -6    1    1    2    0  503 -0.19832052459E+03  0.30692649017E+02 -0.39215240234E+03  0.47290651913E+03  0.17200000000E+03 0. -1.
</event>
<event>
 4    1  0.1232978E+000  0.1928424E+03  0.7818608E-02  0.1155922E+00
         21   -1    0    0  503  502  0.00000000000E+00  0.00000000000E+00  0.37979410067E+02  0.37979410067E+02  0.00000000000E+00 0. -1.
         21   -1    0    0  501  503 -0.00000000000E+00 -0.00000000000E+00 -0.14191697374E+04  0.14191697374E+04  0.00000000000E+00 0. -1.
          6    1    1    2  501    0  0.70973669433E+02  0.50664938885E+02 -0.10962758791E+04  0.11131078118E+04  0.17200000000E+03 0. -1.
         -6    1    1    2    0  502 -0.70973669433E+02 -0.50664938885E+02 -0.28491444831E+03  0.34404133565E+03  0.17200000000E+03 0. -1.
</event>
<event>
 4    1  0.1232978E+000  0.1797299E+03  0.7818608E-02  0.1168065E+00
         21   -1    0    0  503  502  0.00000000000E+00  0.00000000000E+00  0.23689764909E+03  0.23689764909E+03  0.00000000000E+00 0.  1.
         21   -1    0    0  501  503 -0.00000000000E+00 -0.00000000000E+00 -0.15271998102E+03  0.15271998102E+03  0.00000000000E+00 0.  1.
          6    1    1    2  501    0  0.51473296698E+02  0.83278940060E+01 -0.21675908051E+02  0.18103231502E+03  0.17200000000E+03 0.  1.
         -6    1    1    2    0  502 -0.51473296698E+02 -0.83278940060E+01  0.10585357612E+03  0.20858531508E+03  0.17200000000E+03 0.  1.
</event>
<event>
 4    1  0.1232978E+000  0.1771094E+03  0.7818608E-02  0.1170630E+00
         21   -1    0    0  501  502  0.00000000000E+00  0.00000000000E+00  0.35372340145E+02  0.35372340145E+02  0.00000000000E+00 0.  1.
         21   -1    0    0  502  503 -0.00000000000E+00 -0.00000000000E+00 -0.97908535683E+03  0.97908535683E+03  0.00000000000E+00 0.  1.
          6    1    1    2  501    0 -0.42178483356E+02 -0.21750321873E+01 -0.31612048948E+03  0.36235330700E+03  0.17200000000E+03 0.  1.
         -6    1    1    2    0  503  0.42178483356E+02  0.21750321873E+01 -0.62759252720E+03  0.65210438997E+03  0.17200000000E+03 0.  1.
</event>
<event>
 4    1  0.1232978E+000  0.1781135E+03  0.7818608E-02  0.1169641E+00
         21   -1    0    0  503  502  0.00000000000E+00  0.00000000000E+00  0.32703219518E+03  0.32703219518E+03  0.00000000000E+00 0.  1.
         21   -1    0    0  501  503 -0.00000000000E+00 -0.00000000000E+00 -0.10027526374E+03  0.10027526374E+03  0.00000000000E+00 0.  1.
          6    1    1    2  501    0 -0.37588884165E+02 -0.26971842376E+02  0.15195060056E+03  0.23412259503E+03  0.17200000000E+03 0. -1.
         -6    1    1    2    0  502  0.37588884165E+02  0.26971842376E+02  0.74806330886E+02  0.19318486389E+03  0.17200000000E+03 0. -1.
</event>
<event>
 4    1  0.1232978E+000  0.2017951E+03  0.7818608E-02  0.1148233E+00
         21   -1    0    0  503  502  0.00000000000E+00  0.00000000000E+00  0.10874615594E+03  0.10874615594E+03  0.00000000000E+00 0. -1.
         21   -1    0    0  501  503 -0.00000000000E+00 -0.00000000000E+00 -0.44580517276E+03  0.44580517276E+03  0.00000000000E+00 0.  1.
          6    1    1    2  501    0 -0.25020659450E+02 -0.10252429211E+03 -0.27945120635E+03  0.34469441626E+03  0.17200000000E+03 0.  1.
         -6    1    1    2    0  502  0.25020659450E+02  0.10252429211E+03 -0.57607810474E+02  0.20985691244E+03  0.17200000000E+03 0. -1.
</event>
<event>
 4    1  0.1232978E+000  0.2263739E+03  0.7818608E-02  0.1129218E+00
         21   -1    0    0  501  502  0.00000000000E+00  0.00000000000E+00  0.12583422113E+03  0.12583422113E+03  0.00000000000E+00 0.  1.
         21   -1    0    0  502  503 -0.00000000000E+00 -0.00000000000E+00 -0.49791374586E+03  0.49791374586E+03  0.00000000000E+00 0. -1.
          6    1    1    2  501    0  0.11326300986E+03  0.93982028919E+02 -0.52952896009E+02  0.23248470994E+03  0.17200000000E+03 0.  1.
         -6    1    1    2    0  503 -0.11326300986E+03 -0.93982028919E+02 -0.31912662872E+03  0.39126325705E+03  0.17200000000E+03 0. -1.
</event>
<event>
 4    1  0.1232978E+000  0.1803553E+03  0.7818608E-02  0.1167460E+00
         21   -1    0    0  503  502  0.00000000000E+00  0.00000000000E+00  0.11936366007E+04  0.11936366007E+04  0.00000000000E+00 0.  1.
         21   -1    0    0  501  503 -0.00000000000E+00 -0.00000000000E+00 -0.38604028817E+02  0.38604028817E+02  0.00000000000E+00 0.  1.
          6    1    1    2  501    0  0.37025066946E+02  0.39663109834E+02  0.24339707435E+03  0.30293589036E+03  0.17200000000E+03 0.  1.
         -6    1    1    2    0  502 -0.37025066946E+02 -0.39663109834E+02  0.91163549756E+03  0.92930473919E+03  0.17200000000E+03 0.  1.
</event>
<event>
 4    1  0.1232978E+000  0.1738685E+03  0.7818608E-02  0.1173873E+00
         21   -1    0    0  501  502  0.00000000000E+00  0.00000000000E+00  0.70157903515E+02  0.70157903515E+02  0.00000000000E+00 0.  1.
         21   -1    0    0  502  503 -0.00000000000E+00 -0.00000000000E+00 -0.10170985564E+04  0.10170985564E+04  0.00000000000E+00 0.  1.
          6    1    1    2  501    0 -0.18729651180E+02  0.17188736541E+02 -0.60758403374E+02  0.18417881550E+03  0.17200000000E+03 0.  1.
         -6    1    1    2    0  503  0.18729651180E+02 -0.17188736541E+02 -0.88618224948E+03  0.90307764438E+03  0.17200000000E+03 0.  1.
</event>
<event>
 4    1  0.1232978E+000  0.2182271E+03  0.7818608E-02  0.1135212E+00
         21   -1    0    0  503  502  0.00000000000E+00  0.00000000000E+00  0.11854855991E+04  0.11854855991E+04  0.00000000000E+00 0. -1.
         21   -1    0    0  501  503 -0.00000000000E+00 -0.00000000000E+00 -0.43606379413E+02  0.43606379413E+02  0.00000000000E+00 0.  1.
          6    1    1    2  501    0  0.95327630119E+02 -0.94613364359E+02  0.39846763569E+03  0.45431212010E+03  0.17200000000E+03 0.  1.
         -6    1    1    2    0  502 -0.95327630119E+02  0.94613364359E+02  0.74341158403E+03  0.77477985845E+03  0.17200000000E+03 0. -1.
</event>
<event>
 4    1  0.1232978E+000  0.2065141E+03  0.7818608E-02  0.1144357E+00
         21   -1    0    0  501  502  0.00000000000E+00  0.00000000000E+00  0.34678328217E+03  0.34678328217E+03  0.00000000000E+00 0.  1.
         21   -1    0    0  502  503 -0.00000000000E+00 -0.00000000000E+00 -0.12979051163E+03  0.12979051163E+03  0.00000000000E+00 0.  1.
          6    1    1    2  501    0 -0.56767030550E+02 -0.99204735302E+02  0.16307307669E+03  0.26313666336E+03  0.17200000000E+03 0. -1.
         -6    1    1    2    0  503  0.56767030550E+02  0.99204735302E+02  0.53919693846E+02  0.21343713043E+03  0.17200000000E+03 0. -1.
</event>
<event>
 4    1  0.1232978E+000  0.1873556E+03  0.7818608E-02  0.1160868E+00
         21   -1    0    0  503  502  0.00000000000E+00  0.00000000000E+00  0.17124181121E+03  0.17124181121E+03  0.00000000000E+00 0. -1.
         21   -1    0    0  501  503 -0.00000000000E+00 -0.00000000000E+00 -0.36173886593E+03  0.36173886593E+03  0.00000000000E+00 0. -1.
          6    1    1    2  501    0 -0.71646996183E+02 -0.19617360006E+02 -0.27067371879E+03  0.32919051462E+03  0.17200000000E+03 0. -1.
         -6    1    1    2    0  502  0.71646996183E+02  0.19617360006E+02  0.80176664068E+02  0.20379016251E+03  0.17200000000E+03 0. -1.
</event>
<event>
 4    1  0.1232978E+000  0.1938016E+03  0.7818608E-02  0.1155077E+00
         21   -1    0    0  503  502  0.00000000000E+00  0.00000000000E+00  0.25780917339E+03  0.25780917339E+03  0.00000000000E+00 0.  1.
         21   -1    0    0  501  503 -0.00000000000E+00 -0.00000000000E+00 -0.14860943836E+03  0.14860943836E+03  0.00000000000E+00 0.  1.
          6    1    1    2  501    0 -0.22255488449E+02 -0.86485591586E+02  0.26096066527E+02  0.19555068143E+03  0.17200000000E+03 0.  1.
         -6    1    1    2    0  502  0.22255488449E+02  0.86485591586E+02  0.83103668507E+02  0.21086793032E+03  0.17200000000E+03 0.  1.
</event>
<event>
 4    1  0.1232978E+000  0.1827713E+03  0.7818608E-02  0.1165148E+00
         21   -1    0    0  503  502  0.00000000000E+00  0.00000000000E+00  0.14505482424E+03  0.14505482424E+03  0.00000000000E+00 0. -1.
         21   -1    0    0  501  503 -0.00000000000E+00 -0.00000000000E+00 -0.55226481353E+03  0.55226481353E+03  0.00000000000E+00 0. -1.
          6    1    1    2  501    0 -0.21744965037E+02 -0.57866379396E+02 -0.46982211072E+03  0.50412119286E+03  0.17200000000E+03 0. -1.
         -6    1    1    2    0  502  0.21744965037E+02  0.57866379396E+02  0.62612121426E+02  0.19319844492E+03  0.17200000000E+03 0. -1.
</event>
<event>
 4    1  0.1232978E+000  0.2392182E+03  0.7818608E-02  0.1120315E+00
         21   -1    0    0  503  502  0.00000000000E+00  0.00000000000E+00  0.14385200384E+03  0.14385200384E+03  0.00000000000E+00 0. -1.
         21   -1    0    0  501  503 -0.00000000000E+00 -0.00000000000E+00 -0.65664353154E+03  0.65664353154E+03  0.00000000000E+00 0. -1.
          6    1    1    2  501    0  0.12529803170E+03  0.10927838393E+03 -0.51048958228E+01  0.23927269360E+03  0.17200000000E+03 0. -1.
         -6    1    1    2    0  502 -0.12529803170E+03 -0.10927838393E+03 -0.50768663188E+03  0.56122284178E+03  0.17200000000E+03 0. -1.
</event>
<event>
 4    1  0.1232978E+000  0.1793750E+03  0.7818608E-02  0.1168409E+00
         21   -1    0    0  503  502  0.00000000000E+00  0.00000000000E+00  0.75572855633E+02  0.75572855633E+02  0.00000000000E+00 0. -1.
         21   -1    0    0  501  503 -0.00000000000E+00 -0.00000000000E+00 -0.69165681155E+03  0.69165681155E+03  0.00000000000E+00 0. -1.
          6    1    1    2  501    0  0.37837782706E+02  0.34054338004E+02 -0.54589685800E+03  0.57461184752E+03  0.17200000000E+03 0. -1.
         -6    1    1    2    0  502 -0.37837782706E+02 -0.34054338004E+02 -0.70187097914E+02  0.19261781966E+03  0.17200000000E+03 0. -1.
</event>
<event>
 4    1  0.1232978E+000  0.1735885E+03  0.7818608E-02  0.1174156E+00
         21   -1    0    0  503  502  0.00000000000E+00  0.00000000000E+00  0.10485617416E+03  0.10485617416E+03  0.00000000000E+00 0. -1.
         21   -1    0    0  501  503 -0.00000000000E+00 -0.00000000000E+00 -0.30274345317E+03  0.30274345317E+03  0.00000000000E+00 0. -1.
          6    1    1    2  501    0 -0.23170367340E+02  0.34794762659E+01 -0.14486248535E+03  0.22609314970E+03  0.17200000000E+03 0. -1.
         -6    1    1    2    0  502  0.23170367340E+02 -0.34794762659E+01 -0.53024793659E+02  0.18150647763E+03  0.17200000000E+03 0. -1.
</event>
<event>
 4    1  0.1232978E+000  0.2403459E+03  0.7818608E-02  0.1119563E+00
         21   -1    0    0  501  502  0.00000000000E+00  0.00000000000E+00  0.22548668621E+03  0.22548668621E+03  0.00000000000E+00 0.  1.
         21   -1    0    0  502  503 -0.00000000000E+00 -0.00000000000E+00 -0.28131772688E+03  0.28131772688E+03  0.00000000000E+00 0. -1.
          6    1    1    2  501    0 -0.16409703875E+02 -0.16707143870E+03  0.47826673898E+02  0.24505822725E+03  0.17200000000E+03 0.  1.
         -6    1    1    2    0  503  0.16409703875E+02  0.16707143870E+03 -0.10365771457E+03  0.26174618584E+03  0.17200000000E+03 0. -1.
</event>
<event>
 4    1  0.1232978E+000  0.1811136E+03  0.7818608E-02  0.1166730E+00
         21   -1    0    0  503  502  0.00000000000E+00  0.00000000000E+00  0.15422289148E+03  0.15422289148E+03  0.00000000000E+00 0. -1.
         21   -1    0    0  501  503 -0.00000000000E+00 -0.00000000000E+00 -0.28865427207E+03  0.28865427207E+03  0.00000000000E+00 0. -1.
          6    1    1    2  501    0 -0.25621390593E+02 -0.50612996988E+02 -0.18081099485E+03  0.25591941501E+03  0.17200000000E+03 0. -1.
         -6    1    1    2    0  502  0.25621390593E+02  0.50612996988E+02  0.46379614254E+02  0.18695774854E+03  0.17200000000E+03 0. -1.
</event>
<event>
 4    1  0.1232978E+000  0.2332426E+03  0.7818608E-02  0.1124378E+00
         21   -1    0    0  503  502  0.00000000000E+00  0.00000000000E+00  0.85206251869E+02  0.85206251869E+02  0.00000000000E+00 0.  1.
         21   -1    0    0  501  503 -0.00000000000E+00 -0.00000000000E+00 -0.64085989060E+03  0.64085989060E+03  0.00000000000E+00 0.  1.
          6    1    1    2  501    0 -0.15667136982E+03 -0.16498855705E+02 -0.25568438073E+03  0.34608760872E+03  0.17200000000E+03 0.  1.
         -6    1    1    2    0  502  0.15667136982E+03  0.16498855705E+02 -0.29996925800E+03  0.37997853375E+03  0.17200000000E+03 0.  1.
</event>
<event>
 4    1  0.1232978E+000  0.2757175E+03  0.7818608E-02  0.1098051E+00
         21   -1    0    0  501  502  0.00000000000E+00  0.00000000000E+00  0.16089606745E+03  0.16089606745E+03  0.00000000000E+00 0.  1.
         21   -1    0    0  502  503 -0.00000000000E+00 -0.00000000000E+00 -0.48013074613E+03  0.48013074613E+03  0.00000000000E+00 0.  1.
          6    1    1    2  501    0  0.21169870893E+03  0.40246615745E+02 -0.11915737620E+03  0.30036413525E+03  0.17200000000E+03 0.  1.
         -6    1    1    2    0  503 -0.21169870893E+03 -0.40246615745E+02 -0.20007730248E+03  0.34066267833E+03  0.17200000000E+03 0.  1.
</event>
<event>
 4    1  0.1232978E+000  0.1725190E+03  0.7818608E-02  0.1175246E+00
         21   -1    0    0  503  502  0.00000000000E+00  0.00000000000E+00  0.17076055723E+04  0.17076055723E+04  0.00000000000E+00 0. -1.
         21   -1    0    0  501  503 -0.00000000000E+00 -0.00000000000E+00 -0.18026887504E+02  0.18026887504E+02  0.00000000000E+00 0. -1.
          6    1    1    2  501    0  0.11544200362E+02  0.67468310053E+01  0.68772788839E+03  0.70903627323E+03  0.17200000000E+03 0. -1.
         -6    1    1    2    0  502 -0.11544200362E+02 -0.67468310053E+01  0.10018507964E+04  0.10165961866E+04  0.17200000000E+03 0. -1.
</event>
<event>
 4    1  0.1232978E+000  0.2250596E+03  0.7818608E-02  0.1130166E+00
         21   -1    0    0  503  502  0.00000000000E+00  0.00000000000E+00  0.12400755479E+03  0.12400755479E+03  0.00000000000E+00 0.  1.
         21   -1    0    0  501  503 -0.00000000000E+00 -0.00000000000E+00 -0.41210253021E+03  0.41210253021E+03  0.00000000000E+00 0. -1.
          6    1    1    2  501    0 -0.13170552089E+03 -0.61004095112E+02 -0.16925665113E+03  0.28160194922E+03  0.17200000000E+03 0.  1.
         -6    1    1    2    0  502  0.13170552089E+03  0.61004095112E+02 -0.11883832429E+03  0.25450813577E+03  0.17200000000E+03 0.  1.
</event>
<event>
 4    1  0.1232978E+000  0.1770864E+03  0.7818608E-02  0.1170653E+00
         21   -1    0    0  503  502  0.00000000000E+00  0.00000000000E+00  0.50758627871E+03  0.50758627871E+03  0.00000000000E+00 0.  1.
         21   -1    0    0  501  503 -0.00000000000E+00 -0.00000000000E+00 -0.64016138978E+02  0.64016138978E+02  0.00000000000E+00 0.  1.
          6    1    1    2  501    0  0.18775040258E+02 -0.37723771113E+02  0.16839068840E+03  0.24436654637E+03  0.17200000000E+03 0.  1.
         -6    1    1    2    0  502 -0.18775040258E+02  0.37723771113E+02  0.27517945133E+03  0.32723587132E+03  0.17200000000E+03 0.  1.
</event>
<event>
 4    1  0.1232978E+000  0.1813415E+03  0.7818608E-02  0.1166511E+00
         21   -1    0    0  501  502  0.00000000000E+00  0.00000000000E+00  0.65949252180E+03  0.65949252180E+03  0.00000000000E+00 0. -1.
         21   -1    0    0  502  503 -0.00000000000E+00 -0.00000000000E+00 -0.73708949568E+02  0.73708949568E+02  0.00000000000E+00 0. -1.
          6    1    1    2  501    0  0.42958111096E+02 -0.38148953863E+02  0.50140524468E+03  0.53319036130E+03  0.17200000000E+03 0. -1.
         -6    1    1    2    0  503 -0.42958111096E+02  0.38148953863E+02  0.84378327548E+02  0.20001111007E+03  0.17200000000E+03 0. -1.
</event>
<event>
 4    1  0.1232978E+000  0.1901755E+03  0.7818608E-02  0.1158303E+00
         21   -1    0    0  501  502  0.00000000000E+00  0.00000000000E+00  0.23818927729E+02  0.23818927729E+02  0.00000000000E+00 0. -1.
         21   -1    0    0  502  503 -0.00000000000E+00 -0.00000000000E+00 -0.16410099645E+04  0.16410099645E+04  0.00000000000E+00 0. -1.
          6    1    1    2  501    0  0.80670809398E+02  0.86575474108E+01 -0.58106404800E+03  0.61139362157E+03  0.17200000000E+03 0. -1.
         -6    1    1    2    0  503 -0.80670809398E+02 -0.86575474108E+01 -0.10361269888E+04  0.10534352707E+04  0.17200000000E+03 0. -1.
</event>
<event>
 4    1  0.1232978E+000  0.1899195E+03  0.7818608E-02  0.1158534E+00
         21   -1    0    0  503  502  0.00000000000E+00  0.00000000000E+00  0.83119816699E+02  0.83119816699E+02  0.00000000000E+00 0. -1.
         21   -1    0    0  501  503 -0.00000000000E+00 -0.00000000000E+00 -0.45322054247E+03  0.45322054247E+03  0.00000000000E+00 0. -1.
          6    1    1    2  501    0 -0.65500568220E+02  0.46851704496E+02 -0.24035505818E+03  0.30633308774E+03  0.17200000000E+03 0. -1.
         -6    1    1    2    0  502  0.65500568220E+02 -0.46851704496E+02 -0.12974566759E+03  0.23000727143E+03  0.17200000000E+03 0. -1.
</event>
<event>
 4    1  0.1232978E+000  0.1894975E+03  0.7818608E-02  0.1158915E+00
         21   -1    0    0  503  502  0.00000000000E+00  0.00000000000E+00  0.25254139226E+02  0.25254139226E+02  0.00000000000E+00 0. -1.
         21   -1    0    0  501  503 -0.00000000000E+00 -0.00000000000E+00 -0.16608638648E+04  0.16608638648E+04  0.00000000000E+00 0.  1.
          6    1    1    2  501    0  0.71834254419E+02 -0.34134100189E+02 -0.11375775509E+04  0.11532527829E+04  0.17200000000E+03 0.  1.
         -6    1    1    2    0  502 -0.71834254419E+02  0.34134100189E+02 -0.49803217475E+03  0.53286522122E+03  0.17200000000E+03 0. -1.
</event>
<event>
 4    1  0.1232978E+000  0.1801436E+03  0.7818608E-02  0.1167664E+00
         21   -1    0    0  501  502  0.00000000000E+00  0.00000000000E+00  0.10169037299E+04  0.10169037299E+04  0.00000000000E+00 0. -1.
         21   -1    0    0  502  503 -0.00000000000E+00 -0.00000000000E+00 -0.17862248111E+03  0.17862248111E+03  0.00000000000E+00 0. -1.
          6    1    1    2  501    0 -0.18946632115E+02  0.50087503670E+02  0.96088096964E+03  0.97762158870E+03  0.17200000000E+03 0. -1.
         -6    1    1    2    0  503  0.18946632115E+02 -0.50087503670E+02 -0.12259972082E+03  0.21790462234E+03  0.17200000000E+03 0. -1.
</event>
<event>
 4    1  0.1232978E+000  0.2086876E+03  0.7818608E-02  0.1142610E+00
         21   -1    0    0  501  502  0.00000000000E+00  0.00000000000E+00  0.10404198698E+03  0.10404198698E+03  0.00000000000E+00 0.  1.
         21   -1    0    0  502  503 -0.00000000000E+00 -0.00000000000E+00 -0.43410305466E+03  0.43410305466E+03  0.00000000000E+00 0. -1.
          6    1    1    2  501    0 -0.63795564576E+02  0.99481809138E+02 -0.21590262096E+03  0.30027395183E+03  0.17200000000E+03 0. -1.
         -6    1    1    2    0  503  0.63795564576E+02 -0.99481809138E+02 -0.11415844672E+03  0.23787108981E+03  0.17200000000E+03 0.  1.
</event>
<event>
 4    1  0.1232978E+000  0.1978348E+03  0.7818608E-02  0.1151579E+00
         21   -1    0    0  501  502  0.00000000000E+00  0.00000000000E+00  0.11297018329E+03  0.11297018329E+03  0.00000000000E+00 0. -1.
         21   -1    0    0  502  503 -0.00000000000E+00 -0.00000000000E+00 -0.35011439093E+03  0.35011439093E+03  0.00000000000E+00 0. -1.
          6    1    1    2  501    0  0.71691480538E+02  0.66444867788E+02 -0.14225801667E+03  0.24367177133E+03  0.17200000000E+03 0.  1.
         -6    1    1    2    0  503 -0.71691480538E+02 -0.66444867788E+02 -0.94886190966E+02  0.21941280289E+03  0.17200000000E+03 0.  1.
</event>
<event>
 4    1  0.1232978E+000  0.3610431E+03  0.7818608E-02  0.1058172E+00
         21   -1    0    0  503  502  0.00000000000E+00  0.00000000000E+00  0.92636844904E+03  0.92636844904E+03  0.00000000000E+00 0. -1.
         21   -1    0    0  501  503 -0.00000000000E+00 -0.00000000000E+00 -0.14275725588E+03  0.14275725588E+03  0.00000000000E+00 0.  1.
          6    1    1    2  501    0  0.14622759799E+03  0.28175449074E+03  0.45577392852E+03  0.58144817257E+03  0.17200000000E+03 0.  1.
         -6    1    1    2    0  502 -0.14622759799E+03 -0.28175449074E+03  0.32783726465E+03  0.48767753235E+03  0.17200000000E+03 0.  1.
</event>
<event>
 4    1  0.1232978E+000  0.2252576E+03  0.7818608E-02  0.1130023E+00
         21   -1    0    0  501  502  0.00000000000E+00  0.00000000000E+00  0.71522578562E+03  0.71522578562E+03  0.00000000000E+00 0. -1.
         21   -1    0    0  502  503 -0.00000000000E+00 -0.00000000000E+00 -0.78569004099E+02  0.78569004099E+02  0.00000000000E+00 0. -1.
          6    1    1    2  501    0 -0.13524422603E+03  0.53534745235E+02  0.44197237864E+03  0.49606506942E+03  0.17200000000E+03 0.  1.
         -6    1    1    2    0  503  0.13524422603E+03 -0.53534745235E+02  0.19468440288E+03  0.29772972030E+03  0.17200000000E+03 0.  1.
</event>
<event>
 4    1  0.1232978E+000  0.2046010E+03  0.7818608E-02  0.1145914E+00
         21   -1    0    0  503  502  0.00000000000E+00  0.00000000000E+00  0.39372852523E+02  0.39372852523E+02  0.00000000000E+00 0.  1.
         21   -1    0    0  501  503 -0.00000000000E+00 -0.00000000000E+00 -0.15231666446E+04  0.15231666446E+04  0.00000000000E+00 0. -1.
          6    1    1    2  501    0  0.13350383490E+02  0.10999704218E+03 -0.11712218069E+04  0.11889584109E+04  0.17200000000E+03 0.  1.
         -6    1    1    2    0  502 -0.13350383490E+02 -0.10999704218E+03 -0.31257198521E+03  0.37358108620E+03  0.17200000000E+03 0.  1.
</event>
<event>
 4    1  0.1232978E+000  0.2168742E+03  0.7818608E-02  0.1136235E+00
         21   -1    0    0  503  502  0.00000000000E+00  0.00000000000E+00  0.10012454858E+03  0.10012454858E+03  0.00000000000E+00 0. -1.
         21   -1    0    0  501  503 -0.00000000000E+00 -0.00000000000E+00 -0.47720708362E+03  0.47720708362E+03  0.00000000000E+00 0. -1.
          6    1    1    2  501    0 -0.18179735162E+02  0.13084306518E+03 -0.15247813785E+03  0.26511128418E+03  0.17200000000E+03 0.  1.
         -6    1    1    2    0  502  0.18179735162E+02 -0.13084306518E+03 -0.22460439719E+03  0.31222034802E+03  0.17200000000E+03 0.  1.
</event>
<event>
 4    1  0.1232978E+000  0.2344129E+03  0.7818608E-02  0.1123572E+00
         21   -1    0    0  503  502  0.00000000000E+00  0.00000000000E+00  0.41735202077E+03  0.41735202077E+03  0.00000000000E+00 0. -1.
         21   -1    0    0  501  503 -0.00000000000E+00 -0.00000000000E+00 -0.17592992939E+03  0.17592992939E+03  0.00000000000E+00 0. -1.
          6    1    1    2  501    0  0.15031583453E+03  0.52636212858E+02 -0.28089887129E+02  0.23608994636E+03  0.17200000000E+03 0. -1.
         -6    1    1    2    0  502 -0.15031583453E+03 -0.52636212858E+02  0.26951197851E+03  0.35719200379E+03  0.17200000000E+03 0. -1.
</event>
<event>
 4    1  0.1232978E+000  0.1939208E+03  0.7818608E-02  0.1154972E+00
         21   -1    0    0  501  502  0.00000000000E+00  0.00000000000E+00  0.16994997416E+03  0.16994997416E+03  0.00000000000E+00 0. -1.
         21   -1    0    0  502  503 -0.00000000000E+00 -0.00000000000E+00 -0.22328119490E+03  0.22328119490E+03  0.00000000000E+00 0. -1.
          6    1    1    2  501    0 -0.25471497461E+02 -0.85863220396E+02 -0.80178304950E+01  0.19408651526E+03  0.17200000000E+03 0.  1.
         -6    1    1    2    0  503  0.25471497461E+02  0.85863220396E+02 -0.45313390249E+02  0.19914465380E+03  0.17200000000E+03 0.  1.
</event>
<event>
 4    1  0.1232978E+000  0.1750909E+03  0.7818608E-02  0.1172641E+00
         21   -1    0    0  501  502  0.00000000000E+00  0.00000000000E+00  0.30826273955E+03  0.30826273955E+03  0.00000000000E+00 0. -1.
         21   -1    0    0  502  503 -0.00000000000E+00 -0.00000000000E+00 -0.10499171254E+03  0.10499171254E+03  0.00000000000E+00 0. -1.
          6    1    1    2  501    0 -0.32293548657E+02 -0.54716118312E+01  0.54165258815E+02  0.18327762298E+03  0.17200000000E+03 0.  1.
         -6    1    1    2    0  503  0.32293548657E+02  0.54716118312E+01  0.14910576819E+03  0.22997682911E+03  0.17200000000E+03 0.  1.
</event>
<event>
 4    1  0.1232978E+000  0.2118349E+03  0.7818608E-02  0.1140121E+00
         21   -1    0    0  503  502  0.00000000000E+00  0.00000000000E+00  0.61454724073E+03  0.61454724073E+03  0.00000000000E+00 0. -1.
         21   -1    0    0  501  503 -0.00000000000E+00 -0.00000000000E+00 -0.84743575550E+02  0.84743575550E+02  0.00000000000E+00 0.  1.
          6    1    1    2  501    0  0.83883696537E+02  0.90848986403E+02  0.13485154674E+03  0.25111541676E+03  0.17200000000E+03 0.  1.
         -6    1    1    2    0  502 -0.83883696537E+02 -0.90848986403E+02  0.39495211844E+03  0.44817539952E+03  0.17200000000E+03 0. -1.
</event>
<event>
 4    1  0.1232978E+000  0.2126664E+03  0.7818608E-02  0.1139472E+00
         21   -1    0    0  503  502  0.00000000000E+00  0.00000000000E+00  0.12236645423E+04  0.12236645423E+04  0.00000000000E+00 0.  1.
         21   -1    0    0  501  503 -0.00000000000E+00 -0.00000000000E+00 -0.37117516785E+02  0.37117516785E+02  0.00000000000E+00 0.  1.
          6    1    1    2  501    0 -0.12037561849E+03 -0.33951435478E+02  0.55224445298E+03  0.59177776686E+03  0.17200000000E+03 0.  1.
         -6    1    1    2    0  502  0.12037561849E+03  0.33951435478E+02  0.63430257254E+03  0.66900429223E+03  0.17200000000E+03 0.  1.
</event>
<event>
 4    1  0.1232978E+000  0.1750009E+03  0.7818608E-02  0.1172731E+00
         21   -1    0    0  501  502  0.00000000000E+00  0.00000000000E+00  0.14294804691E+03  0.14294804691E+03  0.00000000000E+00 0. -1.
         21   -1    0    0  502  503 -0.00000000000E+00 -0.00000000000E+00 -0.27950659226E+03  0.27950659226E+03  0.00000000000E+00 0. -1.
          6    1    1    2  501    0  0.21655585985E+02 -0.23924168608E+02  0.33790290209E+02  0.17823331327E+03  0.17200000000E+03 0. -1.
         -6    1    1    2    0  503 -0.21655585985E+02  0.23924168608E+02 -0.17034883556E+03  0.24422132590E+03  0.17200000000E+03 0. -1.
</event>
<event>
 4    1  0.1232978E+000  0.2128208E+03  0.7818608E-02  0.1139352E+00
         21   -1    0    0  501  502  0.00000000000E+00  0.00000000000E+00  0.12608725196E+04  0.12608725196E+04  0.00000000000E+00 0. -1.
         21   -1    0    0  502  503 -0.00000000000E+00 -0.00000000000E+00 -0.16857541188E+03  0.16857541188E+03  0.00000000000E+00 0.  1.
          6    1    1    2  501    0 -0.23131620372E+02  0.12318122685E+03  0.11801655947E+04  0.11992011997E+04  0.17200000000E+03 0. -1.
         -6    1    1    2    0  503  0.23131620372E+02 -0.12318122685E+03 -0.87868486934E+02  0.23024673180E+03  0.17200000000E+03 0.  1.
</event>
<event>
 4    1  0.1232978E+000  0.2303788E+03  0.7818608E-02  0.1126373E+00
         21   -1    0    0  501  502  0.00000000000E+00  0.00000000000E+00  0.18849272046E+03  0.18849272046E+03  0.00000000000E+00 0.  1.
         21   -1    0    0  502  503 -0.00000000000E+00 -0.00000000000E+00 -0.40022147839E+03  0.40022147839E+03  0.00000000000E+00 0. -1.
          6    1    1    2  501    0 -0.52117005300E+02 -0.14413258406E+03  0.54407065292E+02  0.23671610166E+03  0.17200000000E+03 0.  1.
         -6    1    1    2    0  503  0.52117005300E+02  0.14413258406E+03 -0.26613582322E+03  0.35199809720E+03  0.17200000000E+03 0. -1.
</event>
<event>
 4    1  0.1232978E+000  0.4297503E+03  0.7818608E-02  0.1033939E+00
         21   -1    0    0  503  502  0.00000000000E+00  0.00000000000E+00  0.53734702913E+03  0.53734702913E+03  0.00000000000E+00 0. -1.
         21   -1    0    0  501  503 -0.00000000000E+00 -0.00000000000E+00 -0.36457554707E+03  0.36457554707E+03  0.00000000000E+00 0.  1.
          6    1    1    2  501    0  0.39221096576E+03  0.35663225901E+02 -0.21529106514E+02  0.43028921642E+03  0.17200000000E+03 0. -1.
         -6    1    1    2    0  502 -0.39221096576E+03 -0.35663225901E+02  0.19430058858E+03  0.47163335978E+03  0.17200000000E+03 0. -1.
</event>
<event>
 4    1  0.1232978E+000  0.2591429E+03  0.7818608E-02  0.1107659E+00
         21   -1    0    0  501  502  0.00000000000E+00  0.00000000000E+00  0.33005031738E+03  0.33005031738E+03  0.00000000000E+00 0. -1.
         21   -1    0    0  502  503 -0.00000000000E+00 -0.00000000000E+00 -0.21461464548E+03  0.21461464548E+03  0.00000000000E+00 0.  1.
          6    1    1    2  501    0  0.19335101805E+03  0.13653411341E+02  0.11977915095E+03  0.28548568585E+03  0.17200000000E+03 0. -1.
         -6    1    1    2    0  503 -0.19335101805E+03 -0.13653411341E+02 -0.43434790544E+01  0.25917927701E+03  0.17200000000E+03 0.  1.
</event>
<event>
 4    1  0.1232978E+000  0.2108583E+03  0.7818608E-02  0.1140888E+00
         21   -1    0    0  503  502  0.00000000000E+00  0.00000000000E+00  0.10886353690E+04  0.10886353690E+04  0.00000000000E+00 0. -1.
         21   -1    0    0  501  503 -0.00000000000E+00 -0.00000000000E+00 -0.85512296468E+02  0.85512296468E+02  0.00000000000E+00 0. -1.
          6    1    1    2  501    0  0.72137542570E+02  0.98353512410E+02  0.77243531166E+02  0.22456135366E+03  0.17200000000E+03 0. -1.
         -6    1    1    2    0  502 -0.72137542570E+02 -0.98353512410E+02  0.92587954139E+03  0.94958631183E+03  0.17200000000E+03 0. -1.
</event>
<event>
 4    1  0.1232978E+000  0.2938454E+03  0.7818608E-02  0.1088358E+00
         21   -1    0    0  501  502  0.00000000000E+00  0.00000000000E+00  0.69457042241E+03  0.69457042241E+03  0.00000000000E+00 0. -1.
         21   -1    0    0  502  503 -0.00000000000E+00 -0.00000000000E+00 -0.12801537379E+03  0.12801537379E+03  0.00000000000E+00 0. -1.
          6    1    1    2  501    0 -0.23001676646E+03  0.62075995315E+02  0.35320937932E+03  0.45945838515E+03  0.17200000000E+03 0. -1.
         -6    1    1    2    0  503  0.23001676646E+03 -0.62075995315E+02  0.21334566930E+03  0.36312741105E+03  0.17200000000E+03 0. -1.
</event>
<event>
 4    1  0.1232978E+000  0.1721244E+03  0.7818608E-02  0.1175650E+00
         21   -1    0    0  503  502  0.00000000000E+00  0.00000000000E+00  0.40156174152E+03  0.40156174152E+03  0.00000000000E+00 0. -1.
         21   -1    0    0  501  503 -0.00000000000E+00 -0.00000000000E+00 -0.10898376611E+03  0.10898376611E+03  0.00000000000E+00 0. -1.
          6    1    1    2  501    0 -0.21554167897E+01  0.61785501960E+01  0.29137459835E+03  0.33841686847E+03  0.17200000000E+03 0. -1.
         -6    1    1    2    0  502  0.21554167897E+01 -0.61785501960E+01  0.12033770625E+01  0.17212863916E+03  0.17200000000E+03 0. -1.
</event>
<event>
 4    1  0.1232978E+000  0.1863882E+03  0.7818608E-02  0.1161760E+00
         21   -1    0    0  503  502  0.00000000000E+00  0.00000000000E+00  0.10016643315E+03  0.10016643315E+03  0.00000000000E+00 0.  1.
         21   -1    0    0  501  503 -0.00000000000E+00 -0.00000000000E+00 -0.40578223971E+03  0.40578223971E+03  0.00000000000E+00 0.  1.
          6    1    1    2  501    0 -0.52235359776E+02  0.49275004825E+02 -0.24923213201E+03  0.31121891739E+03  0.17200000000E+03 0.  1.
         -6    1    1    2    0  502  0.52235359776E+02 -0.49275004825E+02 -0.56383674554E+02  0.19472975548E+03  0.17200000000E+03 0.  1.
</event>
<event>
 4    1  0.1232978E+000  0.2716564E+03  0.7818608E-02  0.1100335E+00
         21   -1    0    0  503  502  0.00000000000E+00  0.00000000000E+00  0.38410684023E+03  0.38410684023E+03  0.00000000000E+00 0.  1.
         21   -1    0    0  501  503 -0.00000000000E+00 -0.00000000000E+00 -0.20044948865E+03  0.20044948865E+03  0.00000000000E+00 0. -1.
          6    1    1    2  501    0 -0.12921981111E+03  0.16587771698E+03  0.32272262149E+02  0.27356658327E+03  0.17200000000E+03 0. -1.
         -6    1    1    2    0  502  0.12921981111E+03 -0.16587771698E+03  0.15138508943E+03  0.31098974562E+03  0.17200000000E+03 0.  1.
</event>
<event>
 4    1  0.1232978E+000  0.1881665E+03  0.7818608E-02  0.1160126E+00
         21   -1    0    0  503  502  0.00000000000E+00  0.00000000000E+00  0.16360401134E+04  0.16360401134E+04  0.00000000000E+00 0.  1.
         21   -1    0    0  501  503 -0.00000000000E+00 -0.00000000000E+00 -0.33426538938E+02  0.33426538938E+02  0.00000000000E+00 0.  1.
          6    1    1    2  501    0  0.50454289035E+02 -0.57244921544E+02  0.30566867397E+03  0.35894282911E+03  0.17200000000E+03 0.  1.
         -6    1    1    2    0  502 -0.50454289035E+02  0.57244921544E+02  0.12969449005E+04  0.13105238232E+04  0.17200000000E+03 0.  1.
</event>
<event>
 4    1  0.1232978E+000  0.2115063E+03  0.7818608E-02  0.1140379E+00
         21   -1    0    0  501  502  0.00000000000E+00  0.00000000000E+00  0.64300951049E+02  0.64300951049E+02  0.00000000000E+00 0.  1.
         21   -1    0    0  502  503 -0.00000000000E+00 -0.00000000000E+00 -0.14163423032E+04  0.14163423032E+04  0.00000000000E+00 0. -1.
          6    1    1    2  501    0 -0.83431876817E+02  0.90498715498E+02 -0.14794908150E+03  0.25811591639E+03  0.17200000000E+03 0.  1.
         -6    1    1    2    0  503  0.83431876817E+02 -0.90498715498E+02 -0.12040922706E+04  0.12225273378E+04  0.17200000000E+03 0.  1.
</event>
<event>
 4    1  0.1232978E+000  0.1859606E+03  0.7818608E-02  0.1162156E+00
         21   -1    0    0  503  502  0.00000000000E+00  0.00000000000E+00  0.16700327564E+03  0.16700327564E+03  0.00000000000E+00 0.  1.
         21   -1    0    0  501  503 -0.00000000000E+00 -0.00000000000E+00 -0.21834891260E+03  0.21834891260E+03  0.00000000000E+00 0. -1.
          6    1    1    2  501    0 -0.34767089752E+02 -0.61551535310E+02  0.18118594648E+02  0.18684117721E+03  0.17200000000E+03 0. -1.
         -6    1    1    2    0  502  0.34767089752E+02  0.61551535310E+02 -0.69464231603E+02  0.19851101103E+03  0.17200000000E+03 0. -1.
</event>
<event>
 4    1  0.1232978E+000  0.2241025E+03  0.7818608E-02  0.1130861E+00
         21   -1    0    0  501  502  0.00000000000E+00  0.00000000000E+00  0.43993480372E+03  0.43993480372E+03  0.00000000000E+00 0.  1.
         21   -1    0    0  502  503 -0.00000000000E+00 -0.00000000000E+00 -0.39412837217E+03  0.39412837217E+03  0.00000000000E+00 0. -1.
          6    1    1    2  501    0 -0.14248736872E+03  0.18311003133E+02  0.37438787597E+03  0.43633499144E+03  0.17200000000E+03 0.  1.
         -6    1    1    2    0  503  0.14248736872E+03 -0.18311003133E+02 -0.32858144443E+03  0.39772818445E+03  0.17200000000E+03 0. -1.
</event>
<event>
 4    1  0.1232978E+000  0.2073235E+03  0.7818608E-02  0.1143703E+00
         21   -1    0    0  503  502  0.00000000000E+00  0.00000000000E+00  0.55019109807E+03  0.55019109807E+03  0.00000000000E+00 0.  1.
         21   -1    0    0  501  503 -0.00000000000E+00 -0.00000000000E+00 -0.10895402912E+03  0.10895402912E+03  0.00000000000E+00 0. -1.
          6    1    1    2  501    0 -0.10550494217E+02  0.11527240444E+03  0.45304165873E+02  0.21221571006E+03  0.17200000000E+03 0. -1.
         -6    1    1    2    0  502  0.10550494217E+02 -0.11527240444E+03  0.39593290308E+03  0.44692941713E+03  0.17200000000E+03 0.  1.
</event>
<event>
 4    1  0.1232978E+000  0.2297955E+03  0.7818608E-02  0.1126784E+00
         21   -1    0    0  503  502  0.00000000000E+00  0.00000000000E+00  0.32591482843E+03  0.32591482843E+03  0.00000000000E+00 0.  1.
         21   -1    0    0  501  503 -0.00000000000E+00 -0.00000000000E+00 -0.21849653479E+03  0.21849653479E+03  0.00000000000E+00 0.  1.
          6    1    1    2  501    0  0.11919624219E+02 -0.15192072877E+03 -0.84677443364E+02  0.24490049956E+03  0.17200000000E+03 0.  1.
         -6    1    1    2    0  502 -0.11919624219E+02  0.15192072877E+03  0.19209573700E+03  0.29951086365E+03  0.17200000000E+03 0.  1.
</event>
<event>
 4    1  0.1232978E+000  0.1809449E+03  0.7818608E-02  0.1166892E+00
         21   -1    0    0  503  502  0.00000000000E+00  0.00000000000E+00  0.43841881737E+03  0.43841881737E+03  0.00000000000E+00 0.  1.
         21   -1    0    0  501  503 -0.00000000000E+00 -0.00000000000E+00 -0.75912369984E+02  0.75912369984E+02  0.00000000000E+00 0.  1.
          6    1    1    2  501    0 -0.54794432541E+02  0.12434957628E+02  0.14848514596E+03  0.23407028128E+03  0.17200000000E+03 0.  1.
         -6    1    1    2    0  502  0.54794432541E+02 -0.12434957628E+02  0.21402130143E+03  0.28026090607E+03  0.17200000000E+03 0.  1.
</event>
<event>
 4    1  0.1232978E+000  0.1912277E+03  0.7818608E-02  0.1157359E+00
         21   -1    0    0  501  502  0.00000000000E+00  0.00000000000E+00  0.65241931837E+03  0.65241931837E+03  0.00000000000E+00 0.  1.
         21   -1    0    0  502  503 -0.00000000000E+00 -0.00000000000E+00 -0.68301512052E+02  0.68301512052E+02  0.00000000000E+00 0.  1.
          6    1    1    2  501    0  0.80594237153E+02  0.22104253444E+02  0.13943633121E+03  0.23666541688E+03  0.17200000000E+03 0.  1.
         -6    1    1    2    0  503 -0.80594237153E+02 -0.22104253444E+02  0.44468147511E+03  0.48405541355E+03  0.17200000000E+03 0.  1.
</event>
<event>
 4    1  0.1232978E+000  0.1725249E+03  0.7818608E-02  0.1175240E+00
         21   -1    0    0  503  502  0.00000000000E+00  0.00000000000E+00  0.21609267139E+02  0.21609267139E+02  0.00000000000E+00 0. -1.
         21   -1    0    0  501  503 -0.00000000000E+00 -0.00000000000E+00 -0.15978844037E+04  0.15978844037E+04  0.00000000000E+00 0. -1.
          6    1    1    2  501    0 -0.12180540196E+02  0.56998250406E+01 -0.10889211791E+04  0.11025035999E+04  0.17200000000E+03 0.  1.
         -6    1    1    2    0  502  0.12180540196E+02 -0.56998250406E+01 -0.48735395745E+03  0.51699007090E+03  0.17200000000E+03 0.  1.
</event>
<event>
 4    1  0.1232978E+000  0.2188681E+03  0.7818608E-02  0.1134730E+00
         21   -1    0    0  501  502  0.00000000000E+00  0.00000000000E+00  0.12821939091E+04  0.12821939091E+04  0.00000000000E+00 0.  1.
         21   -1    0    0  502  503 -0.00000000000E+00 -0.00000000000E+00 -0.37746319543E+02  0.37746319543E+02  0.00000000000E+00 0. -1.
          6    1    1    2  501    0  0.13327091167E+03 -0.23624426336E+02  0.68895786201E+03  0.72288739444E+03  0.17200000000E+03 0. -1.
         -6    1    1    2    0  503 -0.13327091167E+03  0.23624426336E+02  0.55548972754E+03  0.59705283419E+03  0.17200000000E+03 0. -1.
</event>
<event>
 4    1  0.1232978E+000  0.1846390E+03  0.7818608E-02  0.1163387E+00
         21   -1    0    0  503  502  0.00000000000E+00  0.00000000000E+00  0.23845492972E+02  0.23845492972E+02  0.00000000000E+00 0. -1.
         21   -1    0    0  501  503 -0.00000000000E+00 -0.00000000000E+00 -0.14305599016E+04  0.14305599016E+04  0.00000000000E+00 0. -1.
          6    1    1    2  501    0  0.62214547468E+02  0.25237138248E+02 -0.72133264620E+03  0.74458871166E+03  0.17200000000E+03 0. -1.
         -6    1    1    2    0  502 -0.62214547468E+02 -0.25237138248E+02 -0.68538176240E+03  0.70981668288E+03  0.17200000000E+03 0. -1.
</event>
<event>
 4    1  0.1232978E+000  0.1910222E+03  0.7818608E-02  0.1157543E+00
         21   -1    0    0  503  502  0.00000000000E+00  0.00000000000E+00  0.48254991427E+03  0.48254991427E+03  0.00000000000E+00 0. -1.
         21   -1    0    0  501  503 -0.00000000000E+00 -0.00000000000E+00 -0.14263707994E+03  0.14263707994E+03  0.00000000000E+00 0. -1.
          6    1    1    2  501    0 -0.80476237128E+01  0.82708558220E+02 -0.44314328065E+02  0.19609495027E+03  0.17200000000E+03 0. -1.
         -6    1    1    2    0  502  0.80476237128E+01 -0.82708558220E+02  0.38422716239E+03  0.42909204394E+03  0.17200000000E+03 0. -1.
</event>
<event>
 4    1  0.1232978E+000  0.1733816E+03  0.7818608E-02  0.1174367E+00
         21   -1    0    0  503  502  0.00000000000E+00  0.00000000000E+00  0.42461191443E+02  0.42461191443E+02  0.00000000000E+00 0.  1.
         21   -1    0    0  501  503 -0.00000000000E+00 -0.00000000000E+00 -0.99194650867E+03  0.99194650867E+03  0.00000000000E+00 0.  1.
          6    1    1    2  501    0  0.21310263051E+02 -0.48009628380E+01 -0.75147514654E+03  0.77121726668E+03  0.17200000000E+03 0. -1.
         -6    1    1    2    0  502 -0.21310263051E+02  0.48009628380E+01 -0.19801017068E+03  0.26319043343E+03  0.17200000000E+03 0. -1.
</event>
<event>
 4    1  0.1232978E+000  0.2751048E+03  0.7818608E-02  0.1098393E+00
         21   -1    0    0  503  502  0.00000000000E+00  0.00000000000E+00  0.14461519558E+04  0.14461519558E+04  0.00000000000E+00 0.  1.
         21   -1    0    0  501  503 -0.00000000000E+00 -0.00000000000E+00 -0.15105255435E+03  0.15105255435E+03  0.00000000000E+00 0.  1.
          6    1    1    2  501    0  0.14087614815E+03 -0.16202645758E+03  0.19456067821E+01  0.27511169996E+03  0.17200000000E+03 0.  1.
         -6    1    1    2    0  502 -0.14087614815E+03  0.16202645758E+03  0.12931537947E+04  0.13220928102E+04  0.17200000000E+03 0.  1.
</event>
<event>
 4    1  0.1232978E+000  0.2085387E+03  0.7818608E-02  0.1142728E+00
         21   -1    0    0  503  502  0.00000000000E+00  0.00000000000E+00  0.91298698041E+02  0.91298698041E+02  0.00000000000E+00 0. -1.
         21   -1    0    0  501  503 -0.00000000000E+00 -0.00000000000E+00 -0.73458851858E+03  0.73458851858E+03  0.00000000000E+00 0. -1.
          6    1    1    2  501    0 -0.10597570636E+02 -0.11743965783E+03 -0.56649222006E+03  0.60365703601E+03  0.17200000000E+03 0. -1.
         -6    1    1    2    0  502  0.10597570636E+02  0.11743965783E+03 -0.76797600477E+02  0.22223018061E+03  0.17200000000E+03 0. -1.
</event>
<event>
 4    1  0.1232978E+000  0.2092265E+03  0.7818608E-02  0.1142180E+00
         21   -1    0    0  503  502  0.00000000000E+00  0.00000000000E+00  0.15812710571E+03  0.15812710571E+03  0.00000000000E+00 0. -1.
         21   -1    0    0  501  503 -0.00000000000E+00 -0.00000000000E+00 -0.28025424185E+03  0.28025424185E+03  0.00000000000E+00 0. -1.
          6    1    1    2  501    0  0.38135190700E+02  0.11286030698E+03 -0.85260482339E+02  0.22593160804E+03  0.17200000000E+03 0. -1.
         -6    1    1    2    0  502 -0.38135190700E+02 -0.11286030698E+03 -0.36866653808E+02  0.21244973952E+03  0.17200000000E+03 0. -1.
</event>
<event>
 4    1  0.1232978E+000  0.1807033E+03  0.7818608E-02  0.1167124E+00
         21   -1    0    0  503  502  0.00000000000E+00  0.00000000000E+00  0.30514402152E+03  0.30514402152E+03  0.00000000000E+00 0.  1.
         21   -1    0    0  501  503 -0.00000000000E+00 -0.00000000000E+00 -0.11129669941E+03  0.11129669941E+03  0.00000000000E+00 0. -1.
          6    1    1    2  501    0 -0.53179448401E+02 -0.15544920505E+02  0.13778421928E+03  0.22724037794E+03  0.17200000000E+03 0.  1.
         -6    1    1    2    0  502  0.53179448401E+02  0.15544920505E+02  0.56063102835E+02  0.18920034298E+03  0.17200000000E+03 0. -1.
</event>
<event>
 4    1  0.1232978E+000  0.1859611E+03  0.7818608E-02  0.1162155E+00
         21   -1    0    0  501  502  0.00000000000E+00  0.00000000000E+00  0.14839441954E+04  0.14839441954E+04  0.00000000000E+00 0.  1.
         21   -1    0    0  502  503 -0.00000000000E+00 -0.00000000000E+00 -0.23572325178E+02  0.23572325178E+02  0.00000000000E+00 0.  1.
          6    1    1    2  501    0 -0.10773686607E+01  0.70684881610E+02  0.81063801764E+03  0.83169436024E+03  0.17200000000E+03 0. -1.
         -6    1    1    2    0  503  0.10773686607E+01 -0.70684881610E+02  0.64973385257E+03  0.67582216033E+03  0.17200000000E+03 0. -1.
</event>
<event>
 4    1  0.1232978E+000  0.2090601E+03  0.7818608E-02  0.1142312E+00
         21   -1    0    0  503  502  0.00000000000E+00  0.00000000000E+00  0.10828036805E+03  0.10828036805E+03  0.00000000000E+00 0. -1.
         21   -1    0    0  501  503 -0.00000000000E+00 -0.00000000000E+00 -0.41078169534E+03  0.41078169534E+03  0.00000000000E+00 0. -1.
          6    1    1    2  501    0 -0.11773861014E+03 -0.16116029266E+02 -0.18547501631E+03  0.27947645409E+03  0.17200000000E+03 0. -1.
         -6    1    1    2    0  502  0.11773861014E+03  0.16116029266E+02 -0.11702631099E+03  0.23958560930E+03  0.17200000000E+03 0. -1.
</event>
<event>
 4    1  0.1232978E+000  0.3562563E+03  0.7818608E-02  0.1060076E+00
         21   -1    0    0  501  502  0.00000000000E+00  0.00000000000E+00  0.21069473616E+03  0.21069473616E+03  0.00000000000E+00 0.  1.
         21   -1    0    0  502  503 -0.00000000000E+00 -0.00000000000E+00 -0.66765911530E+03  0.66765911530E+03  0.00000000000E+00 0.  1.
          6    1    1    2  501    0  0.20372088747E+03 -0.23628871725E+03 -0.91158613294E+02  0.36773421199E+03  0.17200000000E+03 0.  1.
         -6    1    1    2    0  503 -0.20372088747E+03  0.23628871725E+03 -0.36580576584E+03  0.51061963947E+03  0.17200000000E+03 0.  1.
</event>
<event>
 4    1  0.1232978E+000  0.3504173E+03  0.7818608E-02  0.1062444E+00
         21   -1    0    0  503  502  0.00000000000E+00  0.00000000000E+00  0.89515080777E+02  0.89515080777E+02  0.00000000000E+00 0.  1.
         21   -1    0    0  501  503 -0.00000000000E+00 -0.00000000000E+00 -0.13717700775E+04  0.13717700775E+04  0.00000000000E+00 0. -1.
          6    1    1    2  501    0 -0.30529494366E+03 -0.18035123286E+01 -0.64396654600E+03  0.73313379928E+03  0.17200000000E+03 0. -1.
         -6    1    1    2    0  502  0.30529494366E+03  0.18035123286E+01 -0.63828845076E+03  0.72815135903E+03  0.17200000000E+03 0.  1.
</event>
<event>
 4    1  0.1232978E+000  0.1860536E+03  0.7818608E-02  0.1162070E+00
         21   -1    0    0  503  502  0.00000000000E+00  0.00000000000E+00  0.18248954403E+03  0.18248954403E+03  0.00000000000E+00 0.  1.
         21   -1    0    0  501  503 -0.00000000000E+00 -0.00000000000E+00 -0.10868208195E+04  0.10868208195E+04  0.00000000000E+00 0.  1.
          6    1    1    2  501    0 -0.43438749769E+02  0.56080606816E+02 -0.10287825595E+04  0.10454709533E+04  0.17200000000E+03 0.  1.
         -6    1    1    2    0  502  0.43438749769E+02 -0.56080606816E+02  0.12445128409E+03  0.22383941019E+03  0.17200000000E+03 0.  1.
</event>
<event>
 4    1  0.1232978E+000  0.1943542E+03  0.7818608E-02  0.1154592E+00
         21   -1    0    0  501  502  0.00000000000E+00  0.00000000000E+00  0.22054491150E+03  0.22054491150E+03  0.00000000000E+00 0. -1.
         21   -1    0    0  502  503 -0.00000000000E+00 -0.00000000000E+00 -0.18450035369E+03  0.18450035369E+03  0.00000000000E+00 0. -1.
          6    1    1    2  501    0  0.73033698841E+02  0.53438032894E+02  0.72247313920E+02  0.20734806219E+03  0.17200000000E+03 0. -1.
         -6    1    1    2    0  503 -0.73033698841E+02 -0.53438032894E+02 -0.36202756112E+02  0.19769720301E+03  0.17200000000E+03 0. -1.
</event>
<event>
 4    1  0.1232978E+000  0.1737976E+03  0.7818608E-02  0.1173944E+00
         21   -1    0    0  501  502  0.00000000000E+00  0.00000000000E+00  0.57577032063E+02  0.57577032063E+02  0.00000000000E+00 0. -1.
         21   -1    0    0  502  503 -0.00000000000E+00 -0.00000000000E+00 -0.81408718012E+03  0.81408718012E+03  0.00000000000E+00 0. -1.
          6    1    1    2  501    0  0.24466467805E+02  0.47956255368E+01 -0.11836519037E+03  0.21027582924E+03  0.17200000000E+03 0. -1.
         -6    1    1    2    0  503 -0.24466467805E+02 -0.47956255368E+01 -0.63814495769E+03  0.66138838294E+03  0.17200000000E+03 0. -1.
</event>
<event>
 4    1  0.1232978E+000  0.2243176E+03  0.7818608E-02  0.1130704E+00
         21   -1    0    0  503  502  0.00000000000E+00  0.00000000000E+00  0.71071414777E+03  0.71071414777E+03  0.00000000000E+00 0. -1.
         21   -1    0    0  501  503 -0.00000000000E+00 -0.00000000000E+00 -0.82734512434E+02  0.82734512434E+02  0.00000000000E+00 0. -1.
          6    1    1    2  501    0  0.53853249503E+01  0.14389369433E+03  0.16331105827E+03  0.27746873471E+03  0.17200000000E+03 0.  1.
         -6    1    1    2    0  502 -0.53853249503E+01 -0.14389369433E+03  0.46466857707E+03  0.51597992549E+03  0.17200000000E+03 0.  1.
</event>
<event>
 4    1  0.1232978E+000  0.1816096E+03  0.7818608E-02  0.1166254E+00
         21   -1    0    0  501  502  0.00000000000E+00  0.00000000000E+00  0.10065396687E+04  0.10065396687E+04  0.00000000000E+00 0. -1.
         21   -1    0    0  502  503 -0.00000000000E+00 -0.00000000000E+00 -0.63259011636E+02  0.63259011636E+02  0.00000000000E+00 0. -1.
          6    1    1    2  501    0 -0.54026513400E+02  0.21890062917E+02  0.84300327339E+03  0.86234364261E+03  0.17200000000E+03 0. -1.
         -6    1    1    2    0  503  0.54026513400E+02 -0.21890062917E+02  0.10027738369E+03  0.20745503774E+03  0.17200000000E+03 0. -1.
</event>
<event>
 4    1  0.1232978E+000  0.2233542E+03  0.7818608E-02  0.1131407E+00
         21   -1    0    0  503  502  0.00000000000E+00  0.00000000000E+00  0.26073469983E+03  0.26073469983E+03  0.00000000000E+00 0. -1.
         21   -1    0    0  501  503 -0.00000000000E+00 -0.00000000000E+00 -0.19173039892E+03  0.19173039892E+03  0.00000000000E+00 0. -1.
          6    1    1    2  501    0 -0.11601096545E+03  0.82731883255E+02  0.44803983984E+02  0.22780365579E+03  0.17200000000E+03 0. -1.
         -6    1    1    2    0  502  0.11601096545E+03 -0.82731883255E+02  0.24200316936E+02  0.22466144296E+03  0.17200000000E+03 0. -1.
</event>
<event>
 4    1  0.1232978E+000  0.2093654E+03  0.7818608E-02  0.1142069E+00
         21   -1    0    0  501  502  0.00000000000E+00  0.00000000000E+00  0.15645096384E+02  0.15645096384E+02  0.00000000000E+00 0.  1.
         21   -1    0    0  502  503 -0.00000000000E+00 -0.00000000000E+00 -0.38474450280E+04  0.38474450280E+04  0.00000000000E+00 0.  1.
          6    1    1    2  501    0  0.10827362626E+03 -0.50266272946E+02 -0.90892625132E+03  0.93272761655E+03  0.17200000000E+03 0. -1.
         -6    1    1    2    0  503 -0.10827362626E+03  0.50266272946E+02 -0.29228736803E+04  0.29303625078E+04  0.17200000000E+03 0. -1.
</event>
<event>
 4    1  0.1232978E+000  0.1953973E+03  0.7818608E-02  0.1153681E+00
         21   -1    0    0  501  502  0.00000000000E+00  0.00000000000E+00  0.17733584810E+03  0.17733584810E+03  0.00000000000E+00 0.  1.
         21   -1    0    0  502  503 -0.00000000000E+00 -0.00000000000E+00 -0.54156177869E+03  0.54156177869E+03  0.00000000000E+00 0.  1.
          6    1    1    2  501    0 -0.57075900399E+02 -0.73064697196E+02  0.96882584454E+02  0.21809709662E+03  0.17200000000E+03 0.  1.
         -6    1    1    2    0  503  0.57075900399E+02  0.73064697196E+02 -0.46110851504E+03  0.50080053018E+03  0.17200000000E+03 0.  1.
</event>
<event>
 4    1  0.1232978E+000  0.2330573E+03  0.7818608E-02  0.1124506E+00
         21   -1    0    0  503  502  0.00000000000E+00  0.00000000000E+00  0.23647303997E+04  0.23647303997E+04  0.00000000000E+00 0.  1.
         21   -1    0    0  501  503 -0.00000000000E+00 -0.00000000000E+00 -0.25395630230E+02  0.25395630230E+02  0.00000000000E+00 0. -1.
          6    1    1    2  501    0  0.26810037289E+02  0.15496103238E+03  0.80026025533E+03  0.83350595433E+03  0.17200000000E+03 0. -1.
         -6    1    1    2    0  502 -0.26810037289E+02 -0.15496103238E+03  0.15390745142E+04  0.15566200756E+04  0.17200000000E+03 0.  1.
</event>
<event>
 4    1  0.1232978E+000  0.2330583E+03  0.7818608E-02  0.1124506E+00
         21   -1    0    0  501  502  0.00000000000E+00  0.00000000000E+00  0.65707022593E+03  0.65707022593E+03  0.00000000000E+00 0.  1.
         21   -1    0    0  502  503 -0.00000000000E+00 -0.00000000000E+00 -0.88408345782E+02  0.88408345782E+02  0.00000000000E+00 0.  1.
          6    1    1    2  501    0 -0.14153697195E+03 -0.68552664126E+02  0.37934139563E+03  0.44521464107E+03  0.17200000000E+03 0.  1.
         -6    1    1    2    0  503  0.14153697195E+03  0.68552664126E+02  0.18932048452E+03  0.30026393065E+03  0.17200000000E+03 0.  1.
</event>
<event>
 4    1  0.1232978E+000  0.1834063E+03  0.7818608E-02  0.1164547E+00
         21   -1    0    0  501  502  0.00000000000E+00  0.00000000000E+00  0.12727844286E+03  0.12727844286E+03  0.00000000000E+00 0. -1.
         21   -1    0    0  502  503 -0.00000000000E+00 -0.00000000000E+00 -0.26560540834E+03  0.26560540834E+03  0.00000000000E+00 0. -1.
          6    1    1    2  501    0  0.63318320957E+02  0.66825150336E+01 -0.55316242514E+02  0.19156657449E+03  0.17200000000E+03 0. -1.
         -6    1    1    2    0  503 -0.63318320957E+02 -0.66825150336E+01 -0.83010722967E+02  0.20131727671E+03  0.17200000000E+03 0. -1.
</event>
<event>
 4    1  0.1232978E+000  0.1906144E+03  0.7818608E-02  0.1157908E+00
         21   -1    0    0  501  502  0.00000000000E+00  0.00000000000E+00  0.40863078886E+03  0.40863078886E+03  0.00000000000E+00 0.  1.
         21   -1    0    0  502  503 -0.00000000000E+00 -0.00000000000E+00 -0.89997800617E+02  0.89997800617E+02  0.00000000000E+00 0.  1.
          6    1    1    2  501    0  0.21038450586E+02  0.79417984150E+02  0.18665006068E+03  0.26678095464E+03  0.17200000000E+03 0.  1.
         -6    1    1    2    0  503 -0.21038450586E+02 -0.79417984150E+02  0.13198292756E+03  0.23184763483E+03  0.17200000000E+03 0.  1.
</event>
<event>
 4    1  0.1232978E+000  0.1908224E+03  0.7818608E-02  0.1157722E+00
         21   -1    0    0  503  502  0.00000000000E+00  0.00000000000E+00  0.10856326373E+04  0.10856326373E+04  0.00000000000E+00 0.  1.
         21   -1    0    0  501  503 -0.00000000000E+00 -0.00000000000E+00 -0.98753912653E+02  0.98753912653E+02  0.00000000000E+00 0.  1.
          6    1    1    2  501    0 -0.44529051451E+02  0.69615758486E+02  0.12208848321E+02  0.19121256818E+03  0.17200000000E+03 0.  1.
         -6    1    1    2    0  502  0.44529051451E+02 -0.69615758486E+02  0.97466987628E+03  0.99317398173E+03  0.17200000000E+03 0.  1.
</event>
<event>
 4    1  0.1232978E+000  0.2201527E+03  0.7818608E-02  0.1133769E+00
         21   -1    0    0  501  502  0.00000000000E+00  0.00000000000E+00  0.65212617524E+02  0.65212617524E+02  0.00000000000E+00 0.  1.
         21   -1    0    0  502  503 -0.00000000000E+00 -0.00000000000E+00 -0.12494534783E+04  0.12494534783E+04  0.00000000000E+00 0. -1.
          6    1    1    2  501    0  0.34303011635E+02 -0.13306581289E+03 -0.17371086348E+03  0.28043300672E+03  0.17200000000E+03 0.  1.
         -6    1    1    2    0  503 -0.34303011635E+02  0.13306581289E+03 -0.10105299973E+04  0.10342330891E+04  0.17200000000E+03 0. -1.
</event>
<event>
 4    1  0.1232978E+000  0.2019366E+03  0.7818608E-02  0.1148115E+00
         21   -1    0    0  501  502  0.00000000000E+00  0.00000000000E+00  0.77900992144E+03  0.77900992144E+03  0.00000000000E+00 0.  1.
         21   -1    0    0  502  503 -0.00000000000E+00 -0.00000000000E+00 -0.54943700967E+02  0.54943700967E+02  0.00000000000E+00 0.  1.
          6    1    1    2  501    0 -0.53606417634E+02 -0.91218176428E+02  0.45269190193E+03  0.49568978383E+03  0.17200000000E+03 0.  1.
         -6    1    1    2    0  503  0.53606417634E+02  0.91218176428E+02  0.27137431854E+03  0.33826383858E+03  0.17200000000E+03 0.  1.
</event>
<event>
 4    1  0.1232978E+000  0.1730766E+03  0.7818608E-02  0.1174677E+00
         21   -1    0    0  503  502  0.00000000000E+00  0.00000000000E+00  0.11003159863E+03  0.11003159863E+03  0.00000000000E+00 0.  1.
         21   -1    0    0  501  503 -0.00000000000E+00 -0.00000000000E+00 -0.28121943840E+03  0.28121943840E+03  0.00000000000E+00 0.  1.
          6    1    1    2  501    0  0.98574344050E+01 -0.16563353160E+02 -0.12054133266E+03  0.21091639709E+03  0.17200000000E+03 0.  1.
         -6    1    1    2    0  502 -0.98574344050E+01  0.16563353160E+02 -0.50646507108E+02  0.18033463994E+03  0.17200000000E+03 0.  1.
</event>
<event>
 4    1  0.1232978E+000  0.2283363E+03  0.7818608E-02  0.1127816E+00
         21   -1    0    0  503  502  0.00000000000E+00  0.00000000000E+00  0.20069828829E+03  0.20069828829E+03  0.00000000000E+00 0.  1.
         21   -1    0    0  501  503 -0.00000000000E+00 -0.00000000000E+00 -0.31951402986E+03  0.31951402986E+03  0.00000000000E+00 0. -1.
          6    1    1    2  501    0  0.85869973220E+02 -0.12320639715E+03 -0.17187234536E+03  0.28579288252E+03  0.17200000000E+03 0. -1.
         -6    1    1    2    0  502 -0.85869973220E+02  0.12320639715E+03  0.53056603783E+02  0.23441943564E+03  0.17200000000E+03 0.  1.
</event>
<event>
 4    1  0.1232978E+000  0.1755409E+03  0.7818608E-02  0.1172190E+00
         21   -1    0    0  503  502  0.00000000000E+00  0.00000000000E+00  0.63291333656E+03  0.63291333656E+03  0.00000000000E+00 0.  1.
         21   -1    0    0  501  503 -0.00000000000E+00 -0.00000000000E+00 -0.50945612113E+02  0.50945612113E+02  0.00000000000E+00 0.  1.
          6    1    1    2  501    0  0.84002583143E+01 -0.34059530398E+02  0.21898769276E+03  0.28066033837E+03  0.17200000000E+03 0.  1.
         -6    1    1    2    0  502 -0.84002583143E+01  0.34059530398E+02  0.36298003169E+03  0.40319861031E+03  0.17200000000E+03 0.  1.
</event>
<event>
 4    1  0.1232978E+000  0.2226505E+03  0.7818608E-02  0.1131922E+00
         21   -1    0    0  501  502  0.00000000000E+00  0.00000000000E+00  0.42248319050E+03  0.42248319050E+03  0.00000000000E+00 0.  1.
         21   -1    0    0  502  503 -0.00000000000E+00 -0.00000000000E+00 -0.65565714426E+03  0.65565714426E+03  0.00000000000E+00 0.  1.
          6    1    1    2  501    0  0.12368279757E+03  0.68496632570E+02 -0.60504462763E+03  0.64471096199E+03  0.17200000000E+03 0.  1.
         -6    1    1    2    0  503 -0.12368279757E+03 -0.68496632570E+02  0.37187067388E+03  0.43342937277E+03  0.17200000000E+03 0.  1.
</event>
<event>
 4    1  0.1232978E+000  0.2481916E+03  0.7818608E-02  0.1114453E+00
         21   -1    0    0  503  502  0.00000000000E+00  0.00000000000E+00  0.20546802008E+03  0.20546802008E+03  0.00000000000E+00 0.  1.
         21   -1    0    0  501  503 -0.00000000000E+00 -0.00000000000E+00 -0.31896198520E+03  0.31896198520E+03  0.00000000000E+00 0. -1.
          6    1    1    2  501    0  0.16742317890E+03 -0.63123102441E+02 -0.12101915323E+03  0.27612439650E+03  0.17200000000E+03 0. -1.
         -6    1    1    2    0  502 -0.16742317890E+03  0.63123102441E+02  0.75251881119E+01  0.24830560878E+03  0.17200000000E+03 0.  1.
</event>
<event>
 4    1  0.1232978E+000  0.2079820E+03  0.7818608E-02  0.1143174E+00
         21   -1    0    0  503  502  0.00000000000E+00  0.00000000000E+00  0.26893003246E+03  0.26893003246E+03  0.00000000000E+00 0.  1.
         21   -1    0    0  501  503 -0.00000000000E+00 -0.00000000000E+00 -0.16774047075E+03  0.16774047075E+03  0.00000000000E+00 0.  1.
          6    1    1    2  501    0 -0.51573876334E+02  0.10494116744E+03  0.94856956188E+02  0.22859211596E+03  0.17200000000E+03 0.  1.
         -6    1    1    2    0  502  0.51573876334E+02 -0.10494116744E+03  0.63326055247E+01  0.20807838724E+03  0.17200000000E+03 0.  1.
</event>
<event>
 4    1  0.1232978E+000  0.1943201E+03  0.7818608E-02  0.1154622E+00
         21   -1    0    0  503  502  0.00000000000E+00  0.00000000000E+00  0.10184143107E+03  0.10184143107E+03  0.00000000000E+00 0. -1.
         21   -1    0    0  501  503 -0.00000000000E+00 -0.00000000000E+00 -0.37327065146E+03  0.37327065146E+03  0.00000000000E+00 0. -1.
          6    1    1    2  501    0 -0.28125319673E+02  0.85937668199E+02 -0.11629256272E+03  0.22646032007E+03  0.17200000000E+03 0.  1.
         -6    1    1    2    0  502  0.28125319673E+02 -0.85937668199E+02 -0.15513665767E+03  0.24865176246E+03  0.17200000000E+03 0.  1.
</event>
<event>
 4    1  0.1232978E+000  0.2100354E+03  0.7818608E-02  0.1141538E+00
         21   -1    0    0  503  502  0.00000000000E+00  0.00000000000E+00  0.14509857682E+03  0.14509857682E+03  0.00000000000E+00 0. -1.
         21   -1    0    0  501  503 -0.00000000000E+00 -0.00000000000E+00 -0.41140238555E+03  0.41140238555E+03  0.00000000000E+00 0.  1.
          6    1    1    2  501    0  0.12047851971E+03  0.39761094732E+01 -0.27529997756E+03  0.34627295708E+03  0.17200000000E+03 0.  1.
         -6    1    1    2    0  502 -0.12047851971E+03 -0.39761094732E+01  0.89961688230E+01  0.21022800530E+03  0.17200000000E+03 0. -1.
</event>
<event>
 4    1  0.1232978E+000  0.2582867E+03  0.7818608E-02  0.1108177E+00
         21   -1    0    0  501  502  0.00000000000E+00  0.00000000000E+00  0.24084428065E+03  0.24084428065E+03  0.00000000000E+00 0. -1.
         21   -1    0    0  502  503 -0.00000000000E+00 -0.00000000000E+00 -0.37659075656E+03  0.37659075656E+03  0.00000000000E+00 0.  1.
          6    1    1    2  501    0  0.87016394218E+02  0.17191914144E+03  0.90890916194E+02  0.27381234943E+03  0.17200000000E+03 0. -1.
         -6    1    1    2    0  503 -0.87016394218E+02 -0.17191914144E+03 -0.22663739211E+03  0.34362268778E+03  0.17200000000E+03 0.  1.
</event>
<event>
 4    1  0.1232978E+000  0.2851493E+03  0.7818608E-02  0.1092909E+00
         21   -1    0    0  503  502  0.00000000000E+00  0.00000000000E+00  0.22690239555E+04  0.22690239555E+04  0.00000000000E+00 0. -1.
         21   -1    0    0  501  503 -0.00000000000E+00 -0.00000000000E+00 -0.43295672881E+02  0.43295672881E+02  0.00000000000E+00 0.  1.
          6    1    1    2  501    0  0.22174973606E+03  0.50528747324E+02  0.63292141304E+03  0.69418989825E+03  0.17200000000E+03 0. -1.
         -6    1    1    2    0  502 -0.22174973606E+03 -0.50528747324E+02  0.15928068696E+04  0.16181297302E+04  0.17200000000E+03 0. -1.
</event>
<event>
 4    1  0.1232978E+000  0.2715617E+03  0.7818608E-02  0.1100389E+00
         21   -1    0    0  501  502  0.00000000000E+00  0.00000000000E+00  0.11064873331E+03  0.11064873331E+03  0.00000000000E+00 0.  1.
         21   -1    0    0  502  503 -0.00000000000E+00 -0.00000000000E+00 -0.83975504922E+03  0.83975504922E+03  0.00000000000E+00 0.  1.
          6    1    1    2  501    0  0.12086016131E+03 -0.17191445542E+03 -0.14869763135E+03  0.30960740325E+03  0.17200000000E+03 0. -1.
         -6    1    1    2    0  503 -0.12086016131E+03  0.17191445542E+03 -0.58040868457E+03  0.64079637928E+03  0.17200000000E+03 0. -1.
</event>
<event>
 4    1  0.1232978E+000  0.2032927E+03  0.7818608E-02  0.1146990E+00
         21   -1    0    0  501  502  0.00000000000E+00  0.00000000000E+00  0.74943474516E+02  0.74943474516E+02  0.00000000000E+00 0. -1.
         21   -1    0    0  502  503 -0.00000000000E+00 -0.00000000000E+00 -0.97099471375E+03  0.97099471375E+03  0.00000000000E+00 0. -1.
          6    1    1    2  501    0  0.78035970671E+02  0.75195040046E+02 -0.10426632100E+03  0.22847181984E+03  0.17200000000E+03 0. -1.
         -6    1    1    2    0  503 -0.78035970671E+02 -0.75195040046E+02 -0.79178491824E+03  0.81746636843E+03  0.17200000000E+03 0. -1.
</event>
<event>
 4    1  0.1232978E+000  0.2468083E+03  0.7818608E-02  0.1115339E+00
         21   -1    0    0  503  502  0.00000000000E+00  0.00000000000E+00  0.13495492568E+03  0.13495492568E+03  0.00000000000E+00 0. -1.
         21   -1    0    0  501  503 -0.00000000000E+00 -0.00000000000E+00 -0.48183713237E+03  0.48183713237E+03  0.00000000000E+00 0.  1.
          6    1    1    2  501    0 -0.12090764830E+03  0.12927363484E+03 -0.25099235948E+03  0.35201064842E+03  0.17200000000E+03 0.  1.
         -6    1    1    2    0  502  0.12090764830E+03 -0.12927363484E+03 -0.95889847211E+02  0.26478140962E+03  0.17200000000E+03 0. -1.
</event>
<event>
 4    1  0.1232978E+000  0.2838808E+03  0.7818608E-02  0.1093588E+00
         21   -1    0    0  503  502  0.00000000000E+00  0.00000000000E+00  0.10111295094E+04  0.10111295094E+04  0.00000000000E+00 0.  1.
         21   -1    0    0  501  503 -0.00000000000E+00 -0.00000000000E+00 -0.83806738869E+02  0.83806738869E+02  0.00000000000E+00 0. -1.
          6    1    1    2  501    0 -0.15621154295E+03 -0.16310193739E+03  0.58483322034E+03  0.65009090422E+03  0.17200000000E+03 0.  1.
         -6    1    1    2    0  502  0.15621154295E+03  0.16310193739E+03  0.34248955018E+03  0.44484534404E+03  0.17200000000E+03 0. -1.
</event>
<event>
 4    1  0.1232978E+000  0.1874212E+03  0.7818608E-02  0.1160808E+00
         21   -1    0    0  503  502  0.00000000000E+00  0.00000000000E+00  0.10400631932E+04  0.10400631932E+04  0.00000000000E+00 0. -1.
         21   -1    0    0  501  503 -0.00000000000E+00 -0.00000000000E+00 -0.40774041454E+02  0.40774041454E+02  0.00000000000E+00 0. -1.
          6    1    1    2  501    0 -0.62239516677E+02  0.40852636782E+02  0.27572058502E+03  0.33338946650E+03  0.17200000000E+03 0. -1.
         -6    1    1    2    0  502  0.62239516677E+02 -0.40852636782E+02  0.72356856674E+03  0.74744776817E+03  0.17200000000E+03 0. -1.
</event>
<event>
 4    1  0.1232978E+000  0.2448725E+03  0.7818608E-02  0.1116589E+00
         21   -1    0    0  503  502  0.00000000000E+00  0.00000000000E+00  0.14325175941E+03  0.14325175941E+03  0.00000000000E+00 0.  1.
         21   -1    0    0  501  503 -0.00000000000E+00 -0.00000000000E+00 -0.51326016163E+03  0.51326016163E+03  0.00000000000E+00 0.  1.
          6    1    1    2  501    0  0.15573222118E+03 -0.78268883912E+02 -0.32598818951E+03  0.40771416778E+03  0.17200000000E+03 0.  1.
         -6    1    1    2    0  502 -0.15573222118E+03  0.78268883912E+02 -0.44020212705E+02  0.24879775326E+03  0.17200000000E+03 0.  1.
</event>
<event>
 4    1  0.1232978E+000  0.1902884E+03  0.7818608E-02  0.1158201E+00
         21   -1    0    0  503  502  0.00000000000E+00  0.00000000000E+00  0.74724879776E+02  0.74724879776E+02  0.00000000000E+00 0.  1.
         21   -1    0    0  501  503 -0.00000000000E+00 -0.00000000000E+00 -0.54628662439E+03  0.54628662439E+03  0.00000000000E+00 0.  1.
          6    1    1    2  501    0 -0.35755935073E+02  0.73124580213E+02 -0.34014431283E+03  0.38975356917E+03  0.17200000000E+03 0.  1.
         -6    1    1    2    0  502  0.35755935073E+02 -0.73124580213E+02 -0.13141743178E+03  0.23125793500E+03  0.17200000000E+03 0.  1.
</event>
<event>
 4    1  0.1232978E+000  0.2360230E+03  0.7818608E-02  0.1122471E+00
         21   -1    0    0  503  502  0.00000000000E+00  0.00000000000E+00  0.65677816727E+03  0.65677816727E+03  0.00000000000E+00 0.  1.
         21   -1    0    0  501  503 -0.00000000000E+00 -0.00000000000E+00 -0.85939683054E+02  0.85939683054E+02  0.00000000000E+00 0. -1.
          6    1    1    2  501    0 -0.16064850165E+03  0.17746306381E+02  0.24300078515E+03  0.33875692473E+03  0.17200000000E+03 0. -1.
         -6    1    1    2    0  502  0.16064850165E+03 -0.17746306381E+02  0.32783769907E+03  0.40396092559E+03  0.17200000000E+03 0. -1.
</event>
<event>
 4    1  0.1232978E+000  0.2109006E+03  0.7818608E-02  0.1140855E+00
         21   -1    0    0  503  502  0.00000000000E+00  0.00000000000E+00  0.32824149179E+03  0.32824149179E+03  0.00000000000E+00 0.  1.
         21   -1    0    0  501  503 -0.00000000000E+00 -0.00000000000E+00 -0.22505670739E+03  0.22505670739E+03  0.00000000000E+00 0. -1.
          6    1    1    2  501    0  0.51868731330E+02 -0.11047489057E+03 -0.12291547861E+03  0.24410506266E+03  0.17200000000E+03 0. -1.
         -6    1    1    2    0  502 -0.51868731330E+02  0.11047489057E+03  0.22610026301E+03  0.30919313651E+03  0.17200000000E+03 0.  1.
</event>
<event>
 4    1  0.1232978E+000  0.1837538E+03  0.7818608E-02  0.1164219E+00
         21   -1    0    0  503  502  0.00000000000E+00  0.00000000000E+00  0.33722132331E+03  0.33722132331E+03  0.00000000000E+00 0.  1.
         21   -1    0    0  501  503 -0.00000000000E+00 -0.00000000000E+00 -0.11195096828E+03  0.11195096828E+03  0.00000000000E+00 0.  1.
          6    1    1    2  501    0  0.72139979262E+01  0.64260454436E+02  0.18561857338E+03  0.26118901691E+03  0.17200000000E+03 0. -1.
         -6    1    1    2    0  502 -0.72139979262E+01 -0.64260454436E+02  0.39651781648E+02  0.18798327468E+03  0.17200000000E+03 0. -1.
</event>
<event>
 4    1  0.1232978E+000  0.2008434E+03  0.7818608E-02  0.1149029E+00
         21   -1    0    0  501  502  0.00000000000E+00  0.00000000000E+00  0.30438770020E+02  0.30438770020E+02  0.00000000000E+00 0. -1.
         21   -1    0    0  502  503 -0.00000000000E+00 -0.00000000000E+00 -0.24280329223E+04  0.24280329223E+04  0.00000000000E+00 0. -1.
          6    1    1    2  501    0  0.14199535177E+02 -0.10272516078E+03 -0.37036151439E+03  0.42131429693E+03  0.17200000000E+03 0. -1.
         -6    1    1    2    0  503 -0.14199535177E+02  0.10272516078E+03 -0.20272326379E+04  0.20371573954E+04  0.17200000000E+03 0. -1.
</event>
<event>
 4    1  0.1232978E+000  0.2228572E+03  0.7818608E-02  0.1131771E+00
         21   -1    0    0  503  502  0.00000000000E+00  0.00000000000E+00  0.10373980778E+03  0.10373980778E+03  0.00000000000E+00 0. -1.
         21   -1    0    0  501  503 -0.00000000000E+00 -0.00000000000E+00 -0.71603728748E+03  0.71603728748E+03  0.00000000000E+00 0.  1.
          6    1    1    2  501    0  0.14084286356E+03  0.15640374205E+02 -0.54210748509E+03  0.58612785202E+03  0.17200000000E+03 0. -1.
         -6    1    1    2    0  502 -0.14084286356E+03 -0.15640374205E+02 -0.70189994615E+02  0.23364924324E+03  0.17200000000E+03 0. -1.
</event>
<event>
 4    1  0.1232978E+000  0.2622053E+03  0.7818608E-02  0.1105825E+00
         21   -1    0    0  501  502  0.00000000000E+00  0.00000000000E+00  0.93363828973E+02  0.93363828973E+02  0.00000000000E+00 0.  1.
         21   -1    0    0  502  503 -0.00000000000E+00 -0.00000000000E+00 -0.13701347805E+04  0.13701347805E+04  0.00000000000E+00 0. -1.
          6    1    1    2  501    0 -0.12600704221E+03 -0.15261011878E+03 -0.14071720649E+03  0.29757848586E+03  0.17200000000E+03 0.  1.
         -6    1    1    2    0  503  0.12600704221E+03  0.15261011878E+03 -0.11360537450E+04  0.11659201236E+04  0.17200000000E+03 0. -1.
</event>
<event>
 4    1  0.1232978E+000  0.2110325E+03  0.7818608E-02  0.1140751E+00
         21   -1    0    0  501  502  0.00000000000E+00  0.00000000000E+00  0.19699815327E+03  0.19699815327E+03  0.00000000000E+00 0. -1.
         21   -1    0    0  502  503 -0.00000000000E+00 -0.00000000000E+00 -0.23322117783E+03  0.23322117783E+03  0.00000000000E+00 0. -1.
          6    1    1    2  501    0 -0.11786110697E+03  0.32549607410E+02  0.19564563727E+02  0.21193746633E+03  0.17200000000E+03 0. -1.
         -6    1    1    2    0  503  0.11786110697E+03 -0.32549607410E+02 -0.55787588289E+02  0.21828186477E+03  0.17200000000E+03 0. -1.
</event>
<event>
 4    1  0.1232978E+000  0.1959739E+03  0.7818608E-02  0.1153181E+00
         21   -1    0    0  501  502  0.00000000000E+00  0.00000000000E+00  0.10778506813E+04  0.10778506813E+04  0.00000000000E+00 0.  1.
         21   -1    0    0  502  503 -0.00000000000E+00 -0.00000000000E+00 -0.23106728384E+03  0.23106728384E+03  0.00000000000E+00 0.  1.
          6    1    1    2  501    0  0.66491920773E+02 -0.66336926533E+02  0.10252786233E+04  0.10438400351E+04  0.17200000000E+03 0.  1.
         -6    1    1    2    0  503 -0.66491920773E+02  0.66336926533E+02 -0.17849522588E+03  0.26507793007E+03  0.17200000000E+03 0.  1.
</event>
<event>
 4    1  0.1232978E+000  0.2016369E+03  0.7818608E-02  0.1148365E+00
         21   -1    0    0  501  502  0.00000000000E+00  0.00000000000E+00  0.22158695241E+03  0.22158695241E+03  0.00000000000E+00 0. -1.
         21   -1    0    0  502  503 -0.00000000000E+00 -0.00000000000E+00 -0.19518771956E+03  0.19518771956E+03  0.00000000000E+00 0. -1.
          6    1    1    2  501    0 -0.35860493585E+02  0.98931538722E+02  0.64229760263E+02  0.21161967408E+03  0.17200000000E+03 0.  1.
         -6    1    1    2    0  503  0.35860493585E+02 -0.98931538722E+02 -0.37830527422E+02  0.20515499789E+03  0.17200000000E+03 0.  1.
</event>
<event>
 4    1  0.1232978E+000  0.1806175E+03  0.7818608E-02  0.1167207E+00
         21   -1    0    0  501  502  0.00000000000E+00  0.00000000000E+00  0.13458389522E+03  0.13458389522E+03  0.00000000000E+00 0. -1.
         21   -1    0    0  502  503 -0.00000000000E+00 -0.00000000000E+00 -0.34330298345E+03  0.34330298345E+03  0.00000000000E+00 0. -1.
          6    1    1    2  501    0 -0.12387415335E+02  0.53714322969E+02  0.25183970419E+02  0.18236476885E+03  0.17200000000E+03 0. -1.
         -6    1    1    2    0  503  0.12387415335E+02 -0.53714322969E+02 -0.23390305864E+03  0.29552210982E+03  0.17200000000E+03 0. -1.
</event>
<event>
 4    1  0.1232978E+000  0.1839831E+03  0.7818608E-02  0.1164003E+00
         21   -1    0    0  503  502  0.00000000000E+00  0.00000000000E+00  0.72193384351E+03  0.72193384351E+03  0.00000000000E+00 0. -1.
         21   -1    0    0  501  503 -0.00000000000E+00 -0.00000000000E+00 -0.54761416382E+02  0.54761416382E+02  0.00000000000E+00 0. -1.
          6    1    1    2  501    0 -0.59417423981E+02 -0.27117313616E+02  0.18632964462E+03  0.26185590586E+03  0.17200000000E+03 0. -1.
         -6    1    1    2    0  502  0.59417423981E+02  0.27117313616E+02  0.48084278251E+03  0.51483935403E+03  0.17200000000E+03 0. -1.
</event>
<event>
 4    1  0.1232978E+000  0.1882353E+03  0.7818608E-02  0.1160063E+00
         21   -1    0    0  501  502  0.00000000000E+00  0.00000000000E+00  0.75454185237E+03  0.75454185237E+03  0.00000000000E+00 0. -1.
         21   -1    0    0  502  503 -0.00000000000E+00 -0.00000000000E+00 -0.81321068676E+02  0.81321068676E+02  0.00000000000E+00 0. -1.
          6    1    1    2  501    0  0.28247478505E+02  0.71067645536E+02  0.60828132936E+03  0.63674068971E+03  0.17200000000E+03 0. -1.
         -6    1    1    2    0  503 -0.28247478505E+02 -0.71067645536E+02  0.64939454338E+02  0.19912223134E+03  0.17200000000E+03 0. -1.
</event>
<event>
 4    1  0.1232978E+000  0.2296585E+03  0.7818608E-02  0.1126880E+00
         21   -1    0    0  503  502  0.00000000000E+00  0.00000000000E+00  0.52448008931E+03  0.52448008931E+03  0.00000000000E+00 0. -1.
         21   -1    0    0  501  503 -0.00000000000E+00 -0.00000000000E+00 -0.10584916410E+03  0.10584916410E+03  0.00000000000E+00 0. -1.
          6    1    1    2  501    0 -0.15042350928E+03 -0.23060309656E+02  0.13888085585E+03  0.26838573387E+03  0.17200000000E+03 0.  1.
         -6    1    1    2    0  502  0.15042350928E+03  0.23060309656E+02  0.27975006937E+03  0.36194351954E+03  0.17200000000E+03 0.  1.
</event>
<event>
 4    1  0.1232978E+000  0.1809484E+03  0.7818608E-02  0.1166888E+00
         21   -1    0    0  501  502  0.00000000000E+00  0.00000000000E+00  0.14523007379E+03  0.14523007379E+03  0.00000000000E+00 0. -1.
         21   -1    0    0  502  503 -0.00000000000E+00 -0.00000000000E+00 -0.35624743506E+03  0.35624743506E+03  0.00000000000E+00 0. -1.
          6    1    1    2  501    0 -0.39980026210E+02  0.39495797580E+02  0.46421101167E+02  0.18680802755E+03  0.17200000000E+03 0. -1.
         -6    1    1    2    0  503  0.39980026210E+02 -0.39495797580E+02 -0.25743846244E+03  0.31466948131E+03  0.17200000000E+03 0. -1.
</event>
<event>
 4    1  0.1232978E+000  0.2356077E+03  0.7818608E-02  0.1122754E+00
         21   -1    0    0  503  502  0.00000000000E+00  0.00000000000E+00  0.29155524593E+03  0.29155524593E+03  0.00000000000E+00 0. -1.
         21   -1    0    0  501  503 -0.00000000000E+00 -0.00000000000E+00 -0.23209265748E+03  0.23209265748E+03  0.00000000000E+00 0.  1.
          6    1    1    2  501    0  0.25669798976E+01 -0.16099813628E+03  0.14070718479E+03  0.27442576614E+03  0.17200000000E+03 0. -1.
         -6    1    1    2    0  502 -0.25669798976E+01  0.16099813628E+03 -0.81244596340E+02  0.24922213727E+03  0.17200000000E+03 0.  1.
</event>
<event>
 4    1  0.1232978E+000  0.1956302E+03  0.7818608E-02  0.1153479E+00
         21   -1    0    0  503  502  0.00000000000E+00  0.00000000000E+00  0.92675424016E+03  0.92675424016E+03  0.00000000000E+00 0. -1.
         21   -1    0    0  501  503 -0.00000000000E+00 -0.00000000000E+00 -0.41349621847E+02  0.41349621847E+02  0.00000000000E+00 0.  1.
          6    1    1    2  501    0 -0.46776268598E+02 -0.80617457224E+02  0.46014216030E+03  0.50000200139E+03  0.17200000000E+03 0. -1.
         -6    1    1    2    0  502  0.46776268598E+02  0.80617457224E+02  0.42526245801E+03  0.46810186061E+03  0.17200000000E+03 0. -1.
</event>
<event>
 4    1  0.1232978E+000  0.2402720E+03  0.7818608E-02  0.1119612E+00
         21   -1    0    0  501  502  0.00000000000E+00  0.00000000000E+00  0.11289499403E+03  0.11289499403E+03  0.00000000000E+00 0.  1.
         21   -1    0    0  502  503 -0.00000000000E+00 -0.00000000000E+00 -0.15043629620E+04  0.15043629620E+04  0.00000000000E+00 0.  1.
          6    1    1    2  501    0 -0.75815635751E+02  0.14966162477E+03 -0.38761713532E+02  0.24337847684E+03  0.17200000000E+03 0.  1.
         -6    1    1    2    0  503  0.75815635751E+02 -0.14966162477E+03 -0.13527062544E+04  0.13738794792E+04  0.17200000000E+03 0.  1.
</event>
<event>
 4    1  0.1232978E+000  0.1948058E+03  0.7818608E-02  0.1154197E+00
         21   -1    0    0  503  502  0.00000000000E+00  0.00000000000E+00  0.14523517789E+04  0.14523517789E+04  0.00000000000E+00 0.  1.
         21   -1    0    0  501  503 -0.00000000000E+00 -0.00000000000E+00 -0.26919477265E+02  0.26919477265E+02  0.00000000000E+00 0. -1.
          6    1    1    2  501    0  0.40554082864E+02 -0.81979643158E+02  0.58601556819E+03  0.61754638829E+03  0.17200000000E+03 0. -1.
         -6    1    1    2    0  502 -0.40554082864E+02  0.81979643158E+02  0.83941673348E+03  0.86172486791E+03  0.17200000000E+03 0. -1.
</event>
<event>
 4    1  0.1232978E+000  0.1838959E+03  0.7818608E-02  0.1164085E+00
         21   -1    0    0  503  502  0.00000000000E+00  0.00000000000E+00  0.46584856642E+03  0.46584856642E+03  0.00000000000E+00 0.  1.
         21   -1    0    0  501  503 -0.00000000000E+00 -0.00000000000E+00 -0.83605668530E+02  0.83605668530E+02  0.00000000000E+00 0.  1.
          6    1    1    2  501    0 -0.48899316838E+02 -0.42925177781E+02  0.91417048079E+02  0.20536501833E+03  0.17200000000E+03 0.  1.
         -6    1    1    2    0  502  0.48899316838E+02  0.42925177781E+02  0.29082584981E+03  0.34408921662E+03  0.17200000000E+03 0.  1.
</event>
<event>
 4    1  0.1232978E+000  0.2124904E+03  0.7818608E-02  0.1139609E+00
         21   -1    0    0  501  502  0.00000000000E+00  0.00000000000E+00  0.23074058654E+04  0.23074058654E+04  0.00000000000E+00 0. -1.
         21   -1    0    0  502  503 -0.00000000000E+00 -0.00000000000E+00 -0.24454320502E+02  0.24454320502E+02  0.00000000000E+00 0. -1.
          6    1    1    2  501    0  0.12066981031E+03 -0.31732414162E+02  0.16626340936E+04  0.16761575935E+04  0.17200000000E+03 0. -1.
         -6    1    1    2    0  503 -0.12066981031E+03  0.31732414162E+02  0.62031745131E+03  0.65570259236E+03  0.17200000000E+03 0. -1.
</event>
<event>
 4    1  0.1232978E+000  0.4245838E+03  0.7818608E-02  0.1035585E+00
         21   -1    0    0  501  502  0.00000000000E+00  0.00000000000E+00  0.43636258132E+03  0.43636258132E+03  0.00000000000E+00 0. -1.
         21   -1    0    0  502  503 -0.00000000000E+00 -0.00000000000E+00 -0.50738993889E+03  0.50738993889E+03  0.00000000000E+00 0.  1.
          6    1    1    2  501    0  0.84355869703E+01  0.38809303910E+03  0.16787987417E+03  0.45656874430E+03  0.17200000000E+03 0.  1.
         -6    1    1    2    0  503 -0.84355869703E+01 -0.38809303910E+03 -0.23890723175E+03  0.48718377590E+03  0.17200000000E+03 0.  1.
</event>
<event>
 4    1  0.1232978E+000  0.2024986E+03  0.7818608E-02  0.1147648E+00
         21   -1    0    0  501  502  0.00000000000E+00  0.00000000000E+00  0.34168200532E+03  0.34168200532E+03  0.00000000000E+00 0. -1.
         21   -1    0    0  502  503 -0.00000000000E+00 -0.00000000000E+00 -0.12006458144E+03  0.12006458144E+03  0.00000000000E+00 0. -1.
          6    1    1    2  501    0  0.85412864020E+02 -0.64236473923E+02  0.11567490510E+03  0.23320884544E+03  0.17200000000E+03 0.  1.
         -6    1    1    2    0  503 -0.85412864020E+02  0.64236473923E+02  0.10594251877E+03  0.22853774132E+03  0.17200000000E+03 0.  1.
</event>
<event>
 4    1  0.1232978E+000  0.2136197E+03  0.7818608E-02  0.1138731E+00
         21   -1    0    0  501  502  0.00000000000E+00  0.00000000000E+00  0.10817467066E+03  0.10817467066E+03  0.00000000000E+00 0.  1.
         21   -1    0    0  502  503 -0.00000000000E+00 -0.00000000000E+00 -0.48070085872E+03  0.48070085872E+03  0.00000000000E+00 0.  1.
          6    1    1    2  501    0  0.43217545563E+02 -0.11908655817E+03 -0.83239530864E+02  0.22926444138E+03  0.17200000000E+03 0. -1.
         -6    1    1    2    0  503 -0.43217545563E+02  0.11908655817E+03 -0.28928665720E+03  0.35961108800E+03  0.17200000000E+03 0. -1.
</event>
<event>
 4    1  0.1232978E+000  0.2259472E+03  0.7818608E-02  0.1129525E+00
         21   -1    0    0  503  502  0.00000000000E+00  0.00000000000E+00  0.30364550444E+03  0.30364550444E+03  0.00000000000E+00 0. -1.
         21   -1    0    0  501  503 -0.00000000000E+00 -0.00000000000E+00 -0.23320759903E+03  0.23320759903E+03  0.00000000000E+00 0. -1.
          6    1    1    2  501    0 -0.81910914175E+02  0.12148554042E+03 -0.10657820112E+03  0.24982203135E+03  0.17200000000E+03 0. -1.
         -6    1    1    2    0  502  0.81910914175E+02 -0.12148554042E+03  0.17701610653E+03  0.28703107212E+03  0.17200000000E+03 0. -1.
</event>
<event>
 4    1  0.1232978E+000  0.2003083E+03  0.7818608E-02  0.1149479E+00
         21   -1    0    0  503  502  0.00000000000E+00  0.00000000000E+00  0.70261021543E+03  0.70261021543E+03  0.00000000000E+00 0. -1.
         21   -1    0    0  501  503 -0.00000000000E+00 -0.00000000000E+00 -0.76795099395E+02  0.76795099395E+02  0.00000000000E+00 0. -1.
          6    1    1    2  501    0 -0.67104672083E+02 -0.77694084214E+02  0.11558478764E+03  0.23126446089E+03  0.17200000000E+03 0. -1.
         -6    1    1    2    0  502  0.67104672083E+02  0.77694084214E+02  0.51023032840E+03  0.54814085394E+03  0.17200000000E+03 0. -1.
</event>
<event>
 4    1  0.1232978E+000  0.2068445E+03  0.7818608E-02  0.1144089E+00
         21   -1    0    0  501  502  0.00000000000E+00  0.00000000000E+00  0.62728670345E+02  0.62728670345E+02  0.00000000000E+00 0. -1.
         21   -1    0    0  502  503 -0.00000000000E+00 -0.00000000000E+00 -0.73394297610E+03  0.73394297610E+03  0.00000000000E+00 0. -1.
          6    1    1    2  501    0 -0.18879964098E+02  0.11333230227E+03 -0.22969783041E+03  0.30910476716E+03  0.17200000000E+03 0. -1.
         -6    1    1    2    0  503  0.18879964098E+02 -0.11333230227E+03 -0.44151647535E+03  0.48756687929E+03  0.17200000000E+03 0. -1.
</event>
<event>
 4    1  0.1232978E+000  0.1846772E+03  0.7818608E-02  0.1163352E+00
         21   -1    0    0  503  502  0.00000000000E+00  0.00000000000E+00  0.16354795174E+03  0.16354795174E+03  0.00000000000E+00 0.  1.
         21   -1    0    0  501  503 -0.00000000000E+00 -0.00000000000E+00 -0.23717417486E+03  0.23717417486E+03  0.00000000000E+00 0. -1.
          6    1    1    2  501    0  0.14026524846E+02 -0.65764114661E+02  0.32809621519E+02  0.18756900981E+03  0.17200000000E+03 0. -1.
         -6    1    1    2    0  502 -0.14026524846E+02  0.65764114661E+02 -0.10643584464E+03  0.21315311680E+03  0.17200000000E+03 0. -1.
</event>
<event>
 4    1  0.1232978E+000  0.1869121E+03  0.7818608E-02  0.1161276E+00
         21   -1    0    0  503  502  0.00000000000E+00  0.00000000000E+00  0.23190016243E+04  0.23190016243E+04  0.00000000000E+00 0. -1.
         21   -1    0    0  501  503 -0.00000000000E+00 -0.00000000000E+00 -0.17052973486E+02  0.17052973486E+02  0.00000000000E+00 0. -1.
          6    1    1    2  501    0  0.72662789500E+02 -0.85001901105E+01  0.75218770697E+03  0.77506288824E+03  0.17200000000E+03 0. -1.
         -6    1    1    2    0  502 -0.72662789500E+02  0.85001901105E+01  0.15497609438E+04  0.15609917095E+04  0.17200000000E+03 0. -1.
</event>
<event>
 4    1  0.1232978E+000  0.1755794E+03  0.7818608E-02  0.1172151E+00
         21   -1    0    0  501  502  0.00000000000E+00  0.00000000000E+00  0.36111375328E+03  0.36111375328E+03  0.00000000000E+00 0. -1.
         21   -1    0    0  502  503 -0.00000000000E+00 -0.00000000000E+00 -0.97168846440E+02  0.97168846440E+02  0.00000000000E+00 0. -1.
          6    1    1    2  501    0  0.26688020011E+02  0.23062695653E+02  0.21182097874E+03  0.27512954290E+03  0.17200000000E+03 0. -1.
         -6    1    1    2    0  503 -0.26688020011E+02 -0.23062695653E+02  0.52123928106E+02  0.18315305682E+03  0.17200000000E+03 0. -1.
</event>
<event>
 4    1  0.1232978E+000  0.1733341E+03  0.7818608E-02  0.1174415E+00
         21   -1    0    0  503  502  0.00000000000E+00  0.00000000000E+00  0.15946662178E+03  0.15946662178E+03  0.00000000000E+00 0.  1.
         21   -1    0    0  501  503 -0.00000000000E+00 -0.00000000000E+00 -0.19741150460E+03  0.19741150460E+03  0.00000000000E+00 0.  1.
          6    1    1    2  501    0 -0.20967490268E+02  0.45914042067E+01 -0.57080794763E+02  0.18249091422E+03  0.17200000000E+03 0.  1.
         -6    1    1    2    0  502  0.20967490268E+02 -0.45914042067E+01  0.19135911944E+02  0.17438721216E+03  0.17200000000E+03 0.  1.
</event>
<event>
 4    1  0.1232978E+000  0.1824166E+03  0.7818608E-02  0.1165485E+00
         21   -1    0    0  503  502  0.00000000000E+00  0.00000000000E+00  0.26544195193E+03  0.26544195193E+03  0.00000000000E+00 0. -1.
         21   -1    0    0  501  503 -0.00000000000E+00 -0.00000000000E+00 -0.16355328550E+03  0.16355328550E+03  0.00000000000E+00 0. -1.
          6    1    1    2  501    0 -0.52893880082E+02  0.29900476857E+02 -0.52709744513E+02  0.18987922012E+03  0.17200000000E+03 0. -1.
         -6    1    1    2    0  502  0.52893880082E+02 -0.29900476857E+02  0.15459841095E+03  0.23911601731E+03  0.17200000000E+03 0. -1.
</event>
<event>
 4    1  0.1232978E+000  0.1984477E+03  0.7818608E-02  0.1151055E+00
         21   -1    0    0  501  502  0.00000000000E+00  0.00000000000E+00  0.26075739590E+03  0.26075739590E+03  0.00000000000E+00 0.  1.
         21   -1    0    0  502  503 -0.00000000000E+00 -0.00000000000E+00 -0.33130293395E+03  0.33130293395E+03  0.00000000000E+00 0. -1.
          6    1    1    2  501    0 -0.46517997162E+02  0.87370307155E+02  0.18309664037E+03  0.27001087820E+03  0.17200000000E+03 0.  1.
         -6    1    1    2    0  503  0.46517997162E+02 -0.87370307155E+02 -0.25364217842E+03  0.32204945165E+03  0.17200000000E+03 0. -1.
</event>
<event>
 4    1  0.1232978E+000  0.2328800E+03  0.7818608E-02  0.1124629E+00
         21   -1    0    0  503  502  0.00000000000E+00  0.00000000000E+00  0.14827739751E+03  0.14827739751E+03  0.00000000000E+00 0. -1.
         21   -1    0    0  501  503 -0.00000000000E+00 -0.00000000000E+00 -0.50770576680E+03  0.50770576680E+03  0.00000000000E+00 0. -1.
          6    1    1    2  501    0  0.14813482907E+03  0.52011429150E+02 -0.35314504524E+03  0.42301836760E+03  0.17200000000E+03 0. -1.
         -6    1    1    2    0  502 -0.14813482907E+03 -0.52011429150E+02 -0.62833240517E+01  0.23296479671E+03  0.17200000000E+03 0. -1.
</event>
<event>
 4    1  0.1232978E+000  0.3616651E+03  0.7818608E-02  0.1057926E+00
         21   -1    0    0  501  502  0.00000000000E+00  0.00000000000E+00  0.74962285404E+02  0.74962285404E+02  0.00000000000E+00 0.  1.
         21   -1    0    0  502  503 -0.00000000000E+00 -0.00000000000E+00 -0.28272622196E+04  0.28272622196E+04  0.00000000000E+00 0. -1.
          6    1    1    2  501    0 -0.23386689860E+03  0.21569408665E+03 -0.22740011258E+04  0.23025817652E+04  0.17200000000E+03 0. -1.
         -6    1    1    2    0  503  0.23386689860E+03 -0.21569408665E+03 -0.47829880835E+03  0.59964273976E+03  0.17200000000E+03 0.  1.
</event>
<event>
 4    1  0.1232978E+000  0.2179597E+03  0.7818608E-02  0.1135413E+00
         21   -1    0    0  501  502  0.00000000000E+00  0.00000000000E+00  0.18012443686E+04  0.18012443686E+04  0.00000000000E+00 0.  1.
         21   -1    0    0  502  503 -0.00000000000E+00 -0.00000000000E+00 -0.56005695355E+02  0.56005695355E+02  0.00000000000E+00 0.  1.
          6    1    1    2  501    0 -0.13144325009E+03 -0.25398943791E+02  0.15480812246E+04  0.15633495810E+04  0.17200000000E+03 0.  1.
         -6    1    1    2    0  503  0.13144325009E+03  0.25398943791E+02  0.19715744861E+03  0.29390048296E+03  0.17200000000E+03 0.  1.
</event>
<event>
 4    1  0.1232978E+000  0.1767391E+03  0.7818608E-02  0.1170997E+00
         21   -1    0    0  501  502  0.00000000000E+00  0.00000000000E+00  0.88220919540E+02  0.88220919540E+02  0.00000000000E+00 0.  1.
         21   -1    0    0  502  503 -0.00000000000E+00 -0.00000000000E+00 -0.40160309767E+03  0.40160309767E+03  0.00000000000E+00 0. -1.
          6    1    1    2  501    0 -0.38547318972E+02 -0.12915568248E+02 -0.72436669186E+02  0.19100727407E+03  0.17200000000E+03 0.  1.
         -6    1    1    2    0  503  0.38547318972E+02  0.12915568248E+02 -0.24094550894E+03  0.29881674314E+03  0.17200000000E+03 0. -1.
</event>
<event>
 4    1  0.1232978E+000  0.1808957E+03  0.7818608E-02  0.1166939E+00
         21   -1    0    0  501  502  0.00000000000E+00  0.00000000000E+00  0.47570343965E+02  0.47570343965E+02  0.00000000000E+00 0.  1.
         21   -1    0    0  502  503 -0.00000000000E+00 -0.00000000000E+00 -0.98071901508E+03  0.98071901508E+03  0.00000000000E+00 0.  1.
          6    1    1    2  501    0 -0.37803614412E+02  0.41353988946E+02 -0.74751752936E+03  0.76909409201E+03  0.17200000000E+03 0. -1.
         -6    1    1    2    0  503  0.37803614412E+02 -0.41353988946E+02 -0.18563114175E+03  0.25919526704E+03  0.17200000000E+03 0. -1.
</event>
<event>
 4    1  0.1232978E+000  0.2638926E+03  0.7818608E-02  0.1104827E+00
         21   -1    0    0  501  502  0.00000000000E+00  0.00000000000E+00  0.51573799070E+03  0.51573799070E+03  0.00000000000E+00 0. -1.
         21   -1    0    0  502  503 -0.00000000000E+00 -0.00000000000E+00 -0.14756695873E+03  0.14756695873E+03  0.00000000000E+00 0. -1.
          6    1    1    2  501    0  0.20010621770E+03 -0.35786088181E+01  0.28075992166E+03  0.38531213115E+03  0.17200000000E+03 0.  1.
         -6    1    1    2    0  503 -0.20010621770E+03  0.35786088181E+01  0.87411110307E+02  0.27799281827E+03  0.17200000000E+03 0.  1.
</event>
<event>
 4    1  0.1232978E+000  0.2052570E+03  0.7818608E-02  0.1145378E+00
         21   -1    0    0  503  502  0.00000000000E+00  0.00000000000E+00  0.41610942687E+03  0.41610942687E+03  0.00000000000E+00 0. -1.
         21   -1    0    0  501  503 -0.00000000000E+00 -0.00000000000E+00 -0.10562204180E+03  0.10562204180E+03  0.00000000000E+00 0.  1.
          6    1    1    2  501    0 -0.10819239205E+03 -0.28997603419E+02  0.10216056891E+03  0.22927545996E+03  0.17200000000E+03 0.  1.
         -6    1    1    2    0  502  0.10819239205E+03  0.28997603419E+02  0.20832681616E+03  0.29245600871E+03  0.17200000000E+03 0. -1.
</event>
<event>
 4    1  0.1232978E+000  0.2617213E+03  0.7818608E-02  0.1106113E+00
         21   -1    0    0  501  502  0.00000000000E+00  0.00000000000E+00  0.85001677668E+03  0.85001677668E+03  0.00000000000E+00 0. -1.
         21   -1    0    0  502  503 -0.00000000000E+00 -0.00000000000E+00 -0.10701897526E+03  0.10701897526E+03  0.00000000000E+00 0.  1.
          6    1    1    2  501    0 -0.19643668899E+03 -0.18073814081E+02  0.60932224708E+03  0.66315280013E+03  0.17200000000E+03 0. -1.
         -6    1    1    2    0  503  0.19643668899E+03  0.18073814081E+02  0.13367555434E+03  0.29388295181E+03  0.17200000000E+03 0.  1.
</event>
<event>
 4    1  0.1232978E+000  0.1974903E+03  0.7818608E-02  0.1151874E+00
         21   -1    0    0  501  502  0.00000000000E+00  0.00000000000E+00  0.16463427595E+03  0.16463427595E+03  0.00000000000E+00 0.  1.
         21   -1    0    0  502  503 -0.00000000000E+00 -0.00000000000E+00 -0.48263940907E+03  0.48263940907E+03  0.00000000000E+00 0.  1.
          6    1    1    2  501    0  0.12424043077E+02 -0.96250083638E+02  0.71927712918E+02  0.21018094902E+03  0.17200000000E+03 0.  1.
         -6    1    1    2    0  503 -0.12424043077E+02  0.96250083638E+02 -0.38993284603E+03  0.43709273600E+03  0.17200000000E+03 0.  1.
</event>
<event>
 4    1  0.1232978E+000  0.2700071E+03  0.7818608E-02  0.1101276E+00
         21   -1    0    0  501  502  0.00000000000E+00  0.00000000000E+00  0.28941881453E+03  0.28941881453E+03  0.00000000000E+00 0. -1.
         21   -1    0    0  502  503 -0.00000000000E+00 -0.00000000000E+00 -0.31894923261E+03  0.31894923261E+03  0.00000000000E+00 0.  1.
          6    1    1    2  501    0 -0.21713782243E+02  0.20699843721E+03 -0.15423527539E+03  0.31095395402E+03  0.17200000000E+03 0.  1.
         -6    1    1    2    0  503  0.21713782243E+02 -0.20699843721E+03  0.12470485731E+03  0.29741409311E+03  0.17200000000E+03 0. -1.
</event>
<event>
 4    1  0.1232978E+000  0.2095699E+03  0.7818608E-02  0.1141907E+00
         21   -1    0    0  503  502  0.00000000000E+00  0.00000000000E+00  0.83133742717E+02  0.83133742717E+02  0.00000000000E+00 0. -1.
         21   -1    0    0  501  503 -0.00000000000E+00 -0.00000000000E+00 -0.91267124652E+03  0.91267124652E+03  0.00000000000E+00 0.  1.
          6    1    1    2  501    0 -0.27889455376E+02  0.11643755965E+03 -0.73788795041E+03  0.76707115340E+03  0.17200000000E+03 0. -1.
         -6    1    1    2    0  502  0.27889455376E+02 -0.11643755965E+03 -0.91649553387E+02  0.22873383583E+03  0.17200000000E+03 0. -1.
</event>
<event>
 4    1  0.1232978E+000  0.1898830E+03  0.7818608E-02  0.1158567E+00
         21   -1    0    0  501  502  0.00000000000E+00  0.00000000000E+00  0.51852195041E+02  0.51852195041E+02  0.00000000000E+00 0. -1.
         21   -1    0    0  502  503 -0.00000000000E+00 -0.00000000000E+00 -0.70307840852E+03  0.70307840852E+03  0.00000000000E+00 0. -1.
          6    1    1    2  501    0  0.22589879258E+02  0.77209055115E+02 -0.28604395191E+03  0.34333173937E+03  0.17200000000E+03 0.  1.
         -6    1    1    2    0  503 -0.22589879258E+02 -0.77209055115E+02 -0.36518226157E+03  0.41159886419E+03  0.17200000000E+03 0.  1.
</event>
<event>
 4    1  0.1232978E+000  0.2415389E+03  0.7818608E-02  0.1118772E+00
         21   -1    0    0  503  502  0.00000000000E+00  0.00000000000E+00  0.52007469845E+03  0.52007469845E+03  0.00000000000E+00 0.  1.
         21   -1    0    0  501  503 -0.00000000000E+00 -0.00000000000E+00 -0.28918720704E+03  0.28918720704E+03  0.00000000000E+00 0. -1.
          6    1    1    2  501    0 -0.16941831321E+03  0.73820226309E+01 -0.20112439780E+03  0.31431207820E+03  0.17200000000E+03 0. -1.
         -6    1    1    2    0  502  0.16941831321E+03 -0.73820226309E+01  0.43201188921E+03  0.49494982728E+03  0.17200000000E+03 0.  1.
</event>
<event>
 4    1  0.1232978E+000  0.1850829E+03  0.7818608E-02  0.1162973E+00
         21   -1    0    0  503  502  0.00000000000E+00  0.00000000000E+00  0.19401973704E+03  0.19401973704E+03  0.00000000000E+00 0.  1.
         21   -1    0    0  501  503 -0.00000000000E+00 -0.00000000000E+00 -0.21723142830E+03  0.21723142830E+03  0.00000000000E+00 0. -1.
          6    1    1    2  501    0  0.51004384358E+02 -0.45499783988E+02 -0.10058183690E+03  0.21064753376E+03  0.17200000000E+03 0. -1.
         -6    1    1    2    0  502 -0.51004384358E+02  0.45499783988E+02  0.77370145643E+02  0.20060363158E+03  0.17200000000E+03 0.  1.
</event>
<event>
 4    1  0.1232978E+000  0.2172516E+03  0.7818608E-02  0.1135949E+00
         21   -1    0    0  501  502  0.00000000000E+00  0.00000000000E+00  0.15658022109E+03  0.15658022109E+03  0.00000000000E+00 0.  1.
         21   -1    0    0  502  503 -0.00000000000E+00 -0.00000000000E+00 -0.67731111799E+03  0.67731111799E+03  0.00000000000E+00 0. -1.
          6    1    1    2  501    0 -0.64345937874E+02  0.11607688354E+03  0.50240405606E+02  0.22298506894E+03  0.17200000000E+03 0.  1.
         -6    1    1    2    0  503  0.64345937874E+02 -0.11607688354E+03 -0.57097130251E+03  0.61090627014E+03  0.17200000000E+03 0. -1.
</event>
<event>
 4    1  0.1232978E+000  0.1842563E+03  0.7818608E-02  0.1163746E+00
         21   -1    0    0  503  502  0.00000000000E+00  0.00000000000E+00  0.13224032625E+03  0.13224032625E+03  0.00000000000E+00 0. -1.
         21   -1    0    0  501  503 -0.00000000000E+00 -0.00000000000E+00 -0.25978488927E+03  0.25978488927E+03  0.00000000000E+00 0. -1.
          6    1    1    2  501    0 -0.56927115710E+02 -0.33551437143E+02 -0.85019097676E+02  0.20292521383E+03  0.17200000000E+03 0.  1.
         -6    1    1    2    0  502  0.56927115710E+02  0.33551437143E+02 -0.42525465346E+02  0.18910000169E+03  0.17200000000E+03 0.  1.
</event>
<event>
 4    1  0.1232978E+000  0.1721784E+03  0.7818608E-02  0.1175595E+00
         21   -1    0    0  503  502  0.00000000000E+00  0.00000000000E+00  0.55109948988E+03  0.55109948988E+03  0.00000000000E+00 0.  1.
         21   -1    0    0  501  503 -0.00000000000E+00 -0.00000000000E+00 -0.14448513278E+03  0.14448513278E+03  0.00000000000E+00 0.  1.
          6    1    1    2  501    0 -0.75052840036E-01  0.78366436217E+01 -0.72237904712E+02  0.18671832661E+03  0.17200000000E+03 0.  1.
         -6    1    1    2    0  502  0.75052840036E-01 -0.78366436217E+01  0.47885226181E+03  0.50886629605E+03  0.17200000000E+03 0.  1.
</event>
<event>
 4    1  0.1232978E+000  0.1740122E+03  0.7818608E-02  0.1173727E+00
         21   -1    0    0  501  502  0.00000000000E+00  0.00000000000E+00  0.25536298254E+03  0.25536298254E+03  0.00000000000E+00 0. -1.
         21   -1    0    0  502  503 -0.00000000000E+00 -0.00000000000E+00 -0.22472549874E+03  0.22472549874E+03  0.00000000000E+00 0. -1.
          6    1    1    2  501    0  0.18131745301E+02 -0.19169674276E+02  0.18029504208E+03  0.25057242226E+03  0.17200000000E+03 0. -1.
         -6    1    1    2    0  503 -0.18131745301E+02  0.19169674276E+02 -0.14965755827E+03  0.22951605902E+03  0.17200000000E+03 0. -1.
</event>
<event>
 4    1  0.1232978E+000  0.1732098E+03  0.7818608E-02  0.1174541E+00
         21   -1    0    0  503  502  0.00000000000E+00  0.00000000000E+00  0.36849111641E+03  0.36849111641E+03  0.00000000000E+00 0.  1.
         21   -1    0    0  501  503 -0.00000000000E+00 -0.00000000000E+00 -0.81420094683E+02  0.81420094683E+02  0.00000000000E+00 0.  1.
          6    1    1    2  501    0  0.14736469132E+02 -0.14158875761E+02  0.14479755108E+03  0.22576086482E+03  0.17200000000E+03 0.  1.
         -6    1    1    2    0  502 -0.14736469132E+02  0.14158875761E+02  0.14227347065E+03  0.22415034628E+03  0.17200000000E+03 0.  1.
</event>
<event>
 4    1  0.1232978E+000  0.1771415E+03  0.7818608E-02  0.1170598E+00
         21   -1    0    0  501  502  0.00000000000E+00  0.00000000000E+00  0.54487227565E+03  0.54487227565E+03  0.00000000000E+00 0.  1.
         21   -1    0    0  502  503 -0.00000000000E+00 -0.00000000000E+00 -0.66942116941E+02  0.66942116941E+02  0.00000000000E+00 0. -1.
          6    1    1    2  501    0  0.82909976416E+01  0.41549787210E+02  0.35330499641E+03  0.39522594290E+03  0.17200000000E+03 0.  1.
         -6    1    1    2    0  503 -0.82909976416E+01 -0.41549787210E+02  0.12462516230E+03  0.21658844969E+03  0.17200000000E+03 0. -1.
</event>
<event>
 4    1  0.1232978E+000  0.1835003E+03  0.7818608E-02  0.1164458E+00
         21   -1    0    0  503  502  0.00000000000E+00  0.00000000000E+00  0.90237352479E+02  0.90237352479E+02  0.00000000000E+00 0.  1.
         21   -1    0    0  501  503 -0.00000000000E+00 -0.00000000000E+00 -0.37316549383E+03  0.37316549383E+03  0.00000000000E+00 0.  1.
          6    1    1    2  501    0  0.44267784216E+02  0.46137921180E+02 -0.14012678273E+03  0.23088494912E+03  0.17200000000E+03 0.  1.
         -6    1    1    2    0  502 -0.44267784216E+02 -0.46137921180E+02 -0.14280135862E+03  0.23251789719E+03  0.17200000000E+03 0.  1.
</event>
<event>
 4    1  0.1232978E+000  0.2053360E+03  0.7818608E-02  0.1145314E+00
         21   -1    0    0  501  502  0.00000000000E+00  0.00000000000E+00  0.31966224168E+03  0.31966224168E+03  0.00000000000E+00 0.  1.
         21   -1    0    0  502  503 -0.00000000000E+00 -0.00000000000E+00 -0.32849301325E+03  0.32849301325E+03  0.00000000000E+00 0. -1.
          6    1    1    2  501    0 -0.43368056684E+02 -0.10343146491E+03  0.24629485407E+03  0.32066183342E+03  0.17200000000E+03 0.  1.
         -6    1    1    2    0  503  0.43368056684E+02  0.10343146491E+03 -0.25512562564E+03  0.32749342151E+03  0.17200000000E+03 0. -1.
</event>
<event>
 4    1  0.1232978E+000  0.1731184E+03  0.7818608E-02  0.1174634E+00
         21   -1    0    0  501  502  0.00000000000E+00  0.00000000000E+00  0.22479280606E+03  0.22479280606E+03  0.00000000000E+00 0.  1.
         21   -1    0    0  502  503 -0.00000000000E+00 -0.00000000000E+00 -0.13575228990E+03  0.13575228990E+03  0.00000000000E+00 0.  1.
          6    1    1    2  501    0 -0.18031580009E+02 -0.78010555305E+01  0.68636982858E+02  0.18622843435E+03  0.17200000000E+03 0.  1.
         -6    1    1    2    0  503  0.18031580009E+02  0.78010555305E+01  0.20403533299E+02  0.17431666161E+03  0.17200000000E+03 0.  1.
</event>
<event>
 4    1  0.1232978E+000  0.2042726E+03  0.7818608E-02  0.1146183E+00
         21   -1    0    0  501  502  0.00000000000E+00  0.00000000000E+00  0.52439851792E+03  0.52439851792E+03  0.00000000000E+00 0. -1.
         21   -1    0    0  502  503 -0.00000000000E+00 -0.00000000000E+00 -0.14964757225E+03  0.14964757225E+03  0.00000000000E+00 0. -1.
          6    1    1    2  501    0 -0.92404375094E+02 -0.60039360697E+02  0.41800183397E+03  0.46524491032E+03  0.17200000000E+03 0. -1.
         -6    1    1    2    0  503  0.92404375094E+02  0.60039360697E+02 -0.43250888299E+02  0.20880117985E+03  0.17200000000E+03 0. -1.
</event>
<event>
 4    1  0.1232978E+000  0.1788930E+03  0.7818608E-02  0.1168879E+00
         21   -1    0    0  503  502  0.00000000000E+00  0.00000000000E+00  0.53629576817E+03  0.53629576817E+03  0.00000000000E+00 0.  1.
         21   -1    0    0  501  503 -0.00000000000E+00 -0.00000000000E+00 -0.10762997204E+03  0.10762997204E+03  0.00000000000E+00 0.  1.
          6    1    1    2  501    0 -0.28924339854E+02 -0.39775659416E+02 -0.57983960273E+00  0.17889398182E+03  0.17200000000E+03 0.  1.
         -6    1    1    2    0  502  0.28924339854E+02  0.39775659416E+02  0.42924563573E+03  0.46503175839E+03  0.17200000000E+03 0.  1.
</event>
<event>
 4    1  0.1232978E+000  0.2171189E+03  0.7818608E-02  0.1136049E+00
         21   -1    0    0  503  502  0.00000000000E+00  0.00000000000E+00  0.84575355281E+02  0.84575355281E+02  0.00000000000E+00 0.  1.
         21   -1    0    0  501  503 -0.00000000000E+00 -0.00000000000E+00 -0.61769884331E+03  0.61769884331E+03  0.00000000000E+00 0.  1.
          6    1    1    2  501    0 -0.70299268619E+02 -0.11231485363E+03 -0.37628905615E+03  0.43443534305E+03  0.17200000000E+03 0. -1.
         -6    1    1    2    0  502  0.70299268619E+02  0.11231485363E+03 -0.15683443188E+03  0.26783885554E+03  0.17200000000E+03 0. -1.
</event>
<event>
 4    1  0.1232978E+000  0.2653202E+03  0.7818608E-02  0.1103988E+00
         21   -1    0    0  501  502  0.00000000000E+00  0.00000000000E+00  0.29855226804E+03  0.29855226804E+03  0.00000000000E+00 0. -1.
         21   -1    0    0  502  503 -0.00000000000E+00 -0.00000000000E+00 -0.27872241672E+03  0.27872241672E+03  0.00000000000E+00 0.  1.
          6    1    1    2  501    0  0.19395192785E+03  0.56510701031E+02 -0.10337030425E+03  0.28474590330E+03  0.17200000000E+03 0.  1.
         -6    1    1    2    0  503 -0.19395192785E+03 -0.56510701031E+02  0.12320015557E+03  0.29252878145E+03  0.17200000000E+03 0.  1.
</event>
<event>
 4    1  0.1232978E+000  0.1759749E+03  0.7818608E-02  0.1171756E+00
         21   -1    0    0  503  502  0.00000000000E+00  0.00000000000E+00  0.41747698984E+02  0.41747698984E+02  0.00000000000E+00 0. -1.
         21   -1    0    0  501  503 -0.00000000000E+00 -0.00000000000E+00 -0.97227999912E+03  0.97227999912E+03  0.00000000000E+00 0. -1.
          6    1    1    2  501    0 -0.35220103663E+02 -0.11946659456E+02 -0.71213671357E+03  0.73355700337E+03  0.17200000000E+03 0. -1.
         -6    1    1    2    0  502  0.35220103663E+02  0.11946659456E+02 -0.21839558656E+03  0.28047069473E+03  0.17200000000E+03 0. -1.
</event>
<event>
 4    1  0.1232978E+000  0.1726500E+03  0.7818608E-02  0.1175112E+00
         21   -1    0    0  503  502  0.00000000000E+00  0.00000000000E+00  0.12797825110E+03  0.12797825110E+03  0.00000000000E+00 0. -1.
         21   -1    0    0  501  503 -0.00000000000E+00 -0.00000000000E+00 -0.37988797922E+03  0.37988797922E+03  0.00000000000E+00 0. -1.
          6    1    1    2  501    0  0.94635899928E+01  0.11595381476E+02 -0.28390165181E+03  0.33227723411E+03  0.17200000000E+03 0. -1.
         -6    1    1    2    0  502 -0.94635899928E+01 -0.11595381476E+02  0.31991923696E+02  0.17558899621E+03  0.17200000000E+03 0. -1.
</event>
<event>
 4    1  0.1232978E+000  0.1724244E+03  0.7818608E-02  0.1175343E+00
         21   -1    0    0  503  502  0.00000000000E+00  0.00000000000E+00  0.21591828819E+02  0.21591828819E+02  0.00000000000E+00 0. -1.
         21   -1    0    0  501  503 -0.00000000000E+00 -0.00000000000E+00 -0.14112204860E+04  0.14112204860E+04  0.00000000000E+00 0. -1.
          6    1    1    2  501    0  0.11687246965E+02  0.30930568281E+01 -0.58312022542E+03  0.60807841274E+03  0.17200000000E+03 0.  1.
         -6    1    1    2    0  502 -0.11687246965E+02 -0.30930568281E+01 -0.80650843173E+03  0.82473390205E+03  0.17200000000E+03 0.  1.
</event>
<event>
 4    1  0.1232978E+000  0.1753864E+03  0.7818608E-02  0.1172344E+00
         21   -1    0    0  501  502  0.00000000000E+00  0.00000000000E+00  0.32253297729E+03  0.32253297729E+03  0.00000000000E+00 0.  1.
         21   -1    0    0  502  503 -0.00000000000E+00 -0.00000000000E+00 -0.10481229809E+03  0.10481229809E+03  0.00000000000E+00 0.  1.
          6    1    1    2  501    0 -0.24750300053E+02  0.23744588202E+02  0.17298900608E+03  0.24634443173E+03  0.17200000000E+03 0.  1.
         -6    1    1    2    0  503  0.24750300053E+02 -0.23744588202E+02  0.44731673123E+02  0.18100084365E+03  0.17200000000E+03 0.  1.
</event>
<event>
 4    1  0.1232978E+000  0.2112096E+03  0.7818608E-02  0.1140612E+00
         21   -1    0    0  503  502  0.00000000000E+00  0.00000000000E+00  0.13769559988E+03  0.13769559988E+03  0.00000000000E+00 0.  1.
         21   -1    0    0  501  503 -0.00000000000E+00 -0.00000000000E+00 -0.34970026806E+03  0.34970026806E+03  0.00000000000E+00 0.  1.
          6    1    1    2  501    0 -0.83826862124E+02 -0.89434632983E+02 -0.17210371304E+03  0.27245033388E+03  0.17200000000E+03 0. -1.
         -6    1    1    2    0  502  0.83826862124E+02  0.89434632983E+02 -0.39900955137E+02  0.21494553406E+03  0.17200000000E+03 0. -1.
</event>
<event>
 4    1  0.1232978E+000  0.1768728E+03  0.7818608E-02  0.1170864E+00
         21   -1    0    0  501  502  0.00000000000E+00  0.00000000000E+00  0.10448865399E+03  0.10448865399E+03  0.00000000000E+00 0. -1.
         21   -1    0    0  502  503 -0.00000000000E+00 -0.00000000000E+00 -0.47774075408E+03  0.47774075408E+03  0.00000000000E+00 0. -1.
          6    1    1    2  501    0 -0.41125641726E+02  0.29414794309E+01 -0.87602267332E+01  0.17708956006E+03  0.17200000000E+03 0. -1.
         -6    1    1    2    0  503  0.41125641726E+02 -0.29414794309E+01 -0.36449187335E+03  0.40513984802E+03  0.17200000000E+03 0. -1.
</event>
<event>
 4    1  0.1232978E+000  0.2753864E+03  0.7818608E-02  0.1098236E+00
         21   -1    0    0  501  502  0.00000000000E+00  0.00000000000E+00  0.59675377763E+03  0.59675377763E+03  0.00000000000E+00 0. -1.
         21   -1    0    0  502  503 -0.00000000000E+00 -0.00000000000E+00 -0.30287242848E+03  0.30287242848E+03  0.00000000000E+00 0. -1.
          6    1    1    2  501    0 -0.21425902856E+03 -0.18620691374E+02  0.48962779257E+03  0.56175887775E+03  0.17200000000E+03 0. -1.
         -6    1    1    2    0  503  0.21425902856E+03  0.18620691374E+02 -0.19574644342E+03  0.33786732836E+03  0.17200000000E+03 0. -1.
</event>
<event>
 4    1  0.1232978E+000  0.2250001E+03  0.7818608E-02  0.1130209E+00
         21   -1    0    0  503  502  0.00000000000E+00  0.00000000000E+00  0.51510547423E+03  0.51510547423E+03  0.00000000000E+00 0.  1.
         21   -1    0    0  501  503 -0.00000000000E+00 -0.00000000000E+00 -0.12750553317E+03  0.12750553317E+03  0.00000000000E+00 0.  1.
          6    1    1    2  501    0 -0.50277009430E+02  0.13606350694E+03  0.39974657242E+02  0.22852358482E+03  0.17200000000E+03 0.  1.
         -6    1    1    2    0  502  0.50277009430E+02 -0.13606350694E+03  0.34762528381E+03  0.41408742258E+03  0.17200000000E+03 0.  1.
</event>
<event>
 4    1  0.1232978E+000  0.2556132E+03  0.7818608E-02  0.1109808E+00
         21   -1    0    0  501  502  0.00000000000E+00  0.00000000000E+00  0.31780206696E+03  0.31780206696E+03  0.00000000000E+00 0.  1.
         21   -1    0    0  502  503 -0.00000000000E+00 -0.00000000000E+00 -0.57143310560E+03  0.57143310560E+03  0.00000000000E+00 0.  1.
          6    1    1    2  501    0  0.18623052860E+03 -0.32746305323E+02  0.22893793690E+03  0.34314823218E+03  0.17200000000E+03 0.  1.
         -6    1    1    2    0  503 -0.18623052860E+03  0.32746305323E+02 -0.48256897554E+03  0.54608694037E+03  0.17200000000E+03 0.  1.
</event>
<event>
 4    1  0.1232978E+000  0.2564924E+03  0.7818608E-02  0.1109269E+00
         21   -1    0    0  501  502  0.00000000000E+00  0.00000000000E+00  0.13775698820E+04  0.13775698820E+04  0.00000000000E+00 0. -1.
         21   -1    0    0  502  503 -0.00000000000E+00 -0.00000000000E+00 -0.59305989215E+02  0.59305989215E+02  0.00000000000E+00 0. -1.
          6    1    1    2  501    0  0.13732690509E+03  0.13170288920E+03  0.97617315871E+03  0.10093078647E+04  0.17200000000E+03 0. -1.
         -6    1    1    2    0  503 -0.13732690509E+03 -0.13170288920E+03  0.34209073406E+03  0.42756800654E+03  0.17200000000E+03 0. -1.
</event>
<event>
 4    1  0.1232978E+000  0.1937058E+03  0.7818608E-02  0.1155161E+00
         21   -1    0    0  501  502  0.00000000000E+00  0.00000000000E+00  0.19299762983E+02  0.19299762983E+02  0.00000000000E+00 0. -1.
         21   -1    0    0  502  503 -0.00000000000E+00 -0.00000000000E+00 -0.22344247248E+04  0.22344247248E+04  0.00000000000E+00 0. -1.
          6    1    1    2  501    0  0.69296493339E+02 -0.55999458755E+02 -0.70141796745E+03  0.72767376511E+03  0.17200000000E+03 0. -1.
         -6    1    1    2    0  503 -0.69296493339E+02  0.55999458755E+02 -0.15137069943E+04  0.15260507226E+04  0.17200000000E+03 0. -1.
</event>
<event>
 4    1  0.1232978E+000  0.1791078E+03  0.7818608E-02  0.1168669E+00
         21   -1    0    0  501  502  0.00000000000E+00  0.00000000000E+00  0.79189029874E+02  0.79189029874E+02  0.00000000000E+00 0.  1.
         21   -1    0    0  502  503 -0.00000000000E+00 -0.00000000000E+00 -0.43623202382E+03  0.43623202382E+03  0.00000000000E+00 0.  1.
          6    1    1    2  501    0  0.49494130891E+02  0.67776038840E+01 -0.24736543571E+03  0.30540016976E+03  0.17200000000E+03 0. -1.
         -6    1    1    2    0  503 -0.49494130891E+02 -0.67776038840E+01 -0.10967755824E+03  0.21002088393E+03  0.17200000000E+03 0. -1.
</event>
<event>
 4    1  0.1232978E+000  0.2618316E+03  0.7818608E-02  0.1106048E+00
         21   -1    0    0  501  502  0.00000000000E+00  0.00000000000E+00  0.26533147664E+03  0.26533147664E+03  0.00000000000E+00 0. -1.
         21   -1    0    0  502  503 -0.00000000000E+00 -0.00000000000E+00 -0.26758452460E+03  0.26758452460E+03  0.00000000000E+00 0. -1.
          6    1    1    2  501    0 -0.19602751656E+03 -0.23345324676E+02  0.48298664626E+02  0.26624904213E+03  0.17200000000E+03 0. -1.
         -6    1    1    2    0  503  0.19602751656E+03  0.23345324676E+02 -0.50551712593E+02  0.26666695911E+03  0.17200000000E+03 0. -1.
</event>
<event>
 4    1  0.1232978E+000  0.2097614E+03  0.7818608E-02  0.1141755E+00
         21   -1    0    0  503  502  0.00000000000E+00  0.00000000000E+00  0.46177379247E+02  0.46177379247E+02  0.00000000000E+00 0. -1.
         21   -1    0    0  501  503 -0.00000000000E+00 -0.00000000000E+00 -0.97157300813E+03  0.97157300813E+03  0.00000000000E+00 0. -1.
          6    1    1    2  501    0  0.11959733981E+03  0.10599038031E+02 -0.39204576138E+03  0.44463439173E+03  0.17200000000E+03 0. -1.
         -6    1    1    2    0  502 -0.11959733981E+03 -0.10599038031E+02 -0.53334986750E+03  0.57311599564E+03  0.17200000000E+03 0. -1.
</event>
<event>
 4    1  0.1232978E+000  0.1894991E+03  0.7818608E-02  0.1158914E+00
         21   -1    0    0  501  502  0.00000000000E+00  0.00000000000E+00  0.23856067242E+03  0.23856067242E+03  0.00000000000E+00 0. -1.
         21   -1    0    0  502  503 -0.00000000000E+00 -0.00000000000E+00 -0.25719495098E+03  0.25719495098E+03  0.00000000000E+00 0. -1.
          6    1    1    2  501    0  0.50092995563E+02  0.61778539288E+02 -0.16895017802E+03  0.25387803918E+03  0.17200000000E+03 0. -1.
         -6    1    1    2    0  503 -0.50092995563E+02 -0.61778539288E+02  0.15031589946E+03  0.24187758423E+03  0.17200000000E+03 0. -1.
</event>
<event>
 4    1  0.1232978E+000  0.2375373E+03  0.7818608E-02  0.1121444E+00
         21   -1    0    0  503  502  0.00000000000E+00  0.00000000000E+00  0.67824751790E+03  0.67824751790E+03  0.00000000000E+00 0.  1.
         21   -1    0    0  501  503 -0.00000000000E+00 -0.00000000000E+00 -0.96710771764E+02  0.96710771764E+02  0.00000000000E+00 0.  1.
          6    1    1    2  501    0  0.23673911928E+02  0.16210951190E+03  0.14589154320E+03  0.27876206760E+03  0.17200000000E+03 0.  1.
         -6    1    1    2    0  502 -0.23673911928E+02 -0.16210951190E+03  0.43564520293E+03  0.49619622207E+03  0.17200000000E+03 0.  1.
</event>
<event>
 4    1  0.1232978E+000  0.1981183E+03  0.7818608E-02  0.1151336E+00
         21   -1    0    0  503  502  0.00000000000E+00  0.00000000000E+00  0.41505991370E+03  0.41505991370E+03  0.00000000000E+00 0. -1.
         21   -1    0    0  501  503 -0.00000000000E+00 -0.00000000000E+00 -0.13135170621E+03  0.13135170621E+03  0.00000000000E+00 0. -1.
          6    1    1    2  501    0  0.98213605639E+02  0.45789140635E+01 -0.27254989185E+01  0.19813709176E+03  0.17200000000E+03 0. -1.
         -6    1    1    2    0  502 -0.98213605639E+02 -0.45789140635E+01  0.28643370641E+03  0.34827452815E+03  0.17200000000E+03 0. -1.
</event>
<event>
 4    1  0.1232978E+000  0.3065154E+03  0.7818608E-02  0.1082028E+00
         21   -1    0    0  503  502  0.00000000000E+00  0.00000000000E+00  0.46658032539E+03  0.46658032539E+03  0.00000000000E+00 0. -1.
         21   -1    0    0  501  503 -0.00000000000E+00 -0.00000000000E+00 -0.20574403622E+03  0.20574403622E+03  0.00000000000E+00 0. -1.
          6    1    1    2  501    0  0.20896774768E+03  0.14387560133E+03  0.17947572598E+03  0.35519465712E+03  0.17200000000E+03 0. -1.
         -6    1    1    2    0  502 -0.20896774768E+03 -0.14387560133E+03  0.81360563192E+02  0.31712970449E+03  0.17200000000E+03 0. -1.
</event>
<event>
 4    1  0.1232978E+000  0.1963126E+03  0.7818608E-02  0.1152888E+00
         21   -1    0    0  503  502  0.00000000000E+00  0.00000000000E+00  0.11629811830E+04  0.11629811830E+04  0.00000000000E+00 0. -1.
         21   -1    0    0  501  503 -0.00000000000E+00 -0.00000000000E+00 -0.16891104957E+03  0.16891104957E+03  0.00000000000E+00 0. -1.
          6    1    1    2  501    0 -0.58063749488E+02  0.74721022959E+02 -0.10002383381E+03  0.22032566261E+03  0.17200000000E+03 0. -1.
         -6    1    1    2    0  502  0.58063749488E+02 -0.74721022959E+02  0.10940939672E+04  0.11115665699E+04  0.17200000000E+03 0. -1.
</event>
<event>
 4    1  0.1232978E+000  0.2027448E+03  0.7818608E-02  0.1147444E+00
         21   -1    0    0  501  502  0.00000000000E+00  0.00000000000E+00  0.17816651145E+04  0.17816651145E+04  0.00000000000E+00 0. -1.
         21   -1    0    0  502  503 -0.00000000000E+00 -0.00000000000E+00 -0.23335632986E+02  0.23335632986E+02  0.00000000000E+00 0. -1.
          6    1    1    2  501    0  0.93703184011E+02 -0.52356316726E+02  0.97520395723E+03  0.99605633816E+03  0.17200000000E+03 0. -1.
         -6    1    1    2    0  503 -0.93703184011E+02  0.52356316726E+02  0.78312552432E+03  0.80894440936E+03  0.17200000000E+03 0. -1.
</event>
<event>
 4    1  0.1232978E+000  0.1751624E+03  0.7818608E-02  0.1172569E+00
         21   -1    0    0  503  502  0.00000000000E+00  0.00000000000E+00  0.11048577129E+04  0.11048577129E+04  0.00000000000E+00 0.  1.
         21   -1    0    0  501  503 -0.00000000000E+00 -0.00000000000E+00 -0.34651691246E+02  0.34651691246E+02  0.00000000000E+00 0.  1.
          6    1    1    2  501    0  0.38371337979E+01 -0.32911292225E+02  0.28119645276E+03  0.33129038893E+03  0.17200000000E+03 0. -1.
         -6    1    1    2    0  502 -0.38371337979E+01  0.32911292225E+02  0.78900956887E+03  0.80821901519E+03  0.17200000000E+03 0. -1.
</event>
<event>
 4    1  0.1232978E+000  0.1965841E+03  0.7818608E-02  0.1152653E+00
         21   -1    0    0  503  502  0.00000000000E+00  0.00000000000E+00  0.13891884895E+04  0.13891884895E+04  0.00000000000E+00 0.  1.
         21   -1    0    0  501  503 -0.00000000000E+00 -0.00000000000E+00 -0.74819417340E+02  0.74819417340E+02  0.00000000000E+00 0.  1.
          6    1    1    2  501    0  0.69218938657E+02  0.65345686294E+02  0.77009772931E+02  0.21112987783E+03  0.17200000000E+03 0.  1.
         -6    1    1    2    0  502 -0.69218938657E+02 -0.65345686294E+02  0.12373592992E+04  0.12528780290E+04  0.17200000000E+03 0.  1.
</event>
<event>
 4    1  0.1232978E+000  0.2565743E+03  0.7818608E-02  0.1109219E+00
         21   -1    0    0  501  502  0.00000000000E+00  0.00000000000E+00  0.79091112608E+02  0.79091112608E+02  0.00000000000E+00 0.  1.
         21   -1    0    0  502  503 -0.00000000000E+00 -0.00000000000E+00 -0.84441201794E+03  0.84441201794E+03  0.00000000000E+00 0.  1.
          6    1    1    2  501    0 -0.10605448943E+03 -0.15811015631E+03 -0.43788014319E+03  0.50751295162E+03  0.17200000000E+03 0.  1.
         -6    1    1    2    0  503  0.10605448943E+03  0.15811015631E+03 -0.32744076214E+03  0.41599017893E+03  0.17200000000E+03 0.  1.
</event>
<event>
 4    1  0.1232978E+000  0.1895679E+03  0.7818608E-02  0.1158852E+00
         21   -1    0    0  503  502  0.00000000000E+00  0.00000000000E+00  0.11131006210E+04  0.11131006210E+04  0.00000000000E+00 0. -1.
         21   -1    0    0  501  503 -0.00000000000E+00 -0.00000000000E+00 -0.33183516133E+02  0.33183516133E+02  0.00000000000E+00 0. -1.
          6    1    1    2  501    0 -0.71673678558E+02 -0.34855074149E+02  0.44562544791E+03  0.48427061879E+03  0.17200000000E+03 0. -1.
         -6    1    1    2    0  502  0.71673678558E+02  0.34855074149E+02  0.63429165693E+03  0.66201351832E+03  0.17200000000E+03 0. -1.
</event>
<event>
 4    1  0.1232978E+000  0.1932611E+03  0.7818608E-02  0.1155553E+00
         21   -1    0    0  503  502  0.00000000000E+00  0.00000000000E+00  0.42893978318E+02  0.42893978318E+02  0.00000000000E+00 0. -1.
         21   -1    0    0  501  503 -0.00000000000E+00 -0.00000000000E+00 -0.10506403363E+04  0.10506403363E+04  0.00000000000E+00 0. -1.
          6    1    1    2  501    0  0.43111288828E+02  0.76858722362E+02 -0.73011959025E+03  0.75526449837E+03  0.17200000000E+03 0. -1.
         -6    1    1    2    0  502 -0.43111288828E+02 -0.76858722362E+02 -0.27762676776E+03  0.33826981628E+03  0.17200000000E+03 0. -1.
</event>
<event>
 4    1  0.1232978E+000  0.2417672E+03  0.7818608E-02  0.1118621E+00
         21   -1    0    0  503  502  0.00000000000E+00  0.00000000000E+00  0.73200565172E+03  0.73200565172E+03  0.00000000000E+00 0.  1.
         21   -1    0    0  501  503 -0.00000000000E+00 -0.00000000000E+00 -0.85541008935E+02  0.85541008935E+02  0.00000000000E+00 0. -1.
          6    1    1    2  501    0 -0.15036105351E+03  0.79113297444E+02  0.21780503094E+03  0.32540803885E+03  0.17200000000E+03 0. -1.
         -6    1    1    2    0  502  0.15036105351E+03 -0.79113297444E+02  0.42865961184E+03  0.49213862181E+03  0.17200000000E+03 0.  1.
</event>
<event>
 4    1  0.1232978E+000  0.2449851E+03  0.7818608E-02  0.1116516E+00
         21   -1    0    0  503  502  0.00000000000E+00  0.00000000000E+00  0.62407680696E+03  0.62407680696E+03  0.00000000000E+00 0.  1.
         21   -1    0    0  501  503 -0.00000000000E+00 -0.00000000000E+00 -0.12995348913E+03  0.12995348913E+03  0.00000000000E+00 0. -1.
          6    1    1    2  501    0 -0.10693915992E+03  0.13783214478E+03  0.43928885799E+03  0.50298348364E+03  0.17200000000E+03 0.  1.
         -6    1    1    2    0  502  0.10693915992E+03 -0.13783214478E+03  0.54834459835E+02  0.25104681246E+03  0.17200000000E+03 0. -1.
</event>
<event>
 4    1  0.1232978E+000  0.2204946E+03  0.7818608E-02  0.1133515E+00
         21   -1    0    0  503  502  0.00000000000E+00  0.00000000000E+00  0.23431769094E+04  0.23431769094E+04  0.00000000000E+00 0.  1.
         21   -1    0    0  501  503 -0.00000000000E+00 -0.00000000000E+00 -0.44728801639E+02  0.44728801639E+02  0.00000000000E+00 0.  1.
          6    1    1    2  501    0 -0.56476903130E+02  0.12587386137E+03  0.27500739732E+03  0.35248679144E+03  0.17200000000E+03 0.  1.
         -6    1    1    2    0  502  0.56476903130E+02 -0.12587386137E+03  0.20234407104E+04  0.20354189196E+04  0.17200000000E+03 0.  1.
</event>
<event>
 4    1  0.1232978E+000  0.2292921E+03  0.7818608E-02  0.1127139E+00
         21   -1    0    0  501  502  0.00000000000E+00  0.00000000000E+00  0.33744208062E+02  0.33744208062E+02  0.00000000000E+00 0.  1.
         21   -1    0    0  502  503 -0.00000000000E+00 -0.00000000000E+00 -0.15582648658E+04  0.15582648658E+04  0.00000000000E+00 0.  1.
          6    1    1    2  501    0 -0.88921273858E+02 -0.12281650201E+03 -0.77178450699E+03  0.80512496629E+03  0.17200000000E+03 0.  1.
         -6    1    1    2    0  503  0.88921273858E+02  0.12281650201E+03 -0.75273615079E+03  0.78688410761E+03  0.17200000000E+03 0.  1.
</event>
<event>
 4    1  0.1232978E+000  0.1722410E+03  0.7818608E-02  0.1175531E+00
         21   -1    0    0  503  502  0.00000000000E+00  0.00000000000E+00  0.63544690540E+02  0.63544690540E+02  0.00000000000E+00 0. -1.
         21   -1    0    0  501  503 -0.00000000000E+00 -0.00000000000E+00 -0.10494298037E+04  0.10494298037E+04  0.00000000000E+00 0. -1.
          6    1    1    2  501    0 -0.90114701626E+01 -0.13258167751E+01 -0.90756196636E+03  0.92376170475E+03  0.17200000000E+03 0. -1.
         -6    1    1    2    0  502  0.90114701626E+01  0.13258167751E+01 -0.78323146816E+02  0.18921278950E+03  0.17200000000E+03 0. -1.
</event>
<event>
 4    1  0.1232978E+000  0.2485221E+03  0.7818608E-02  0.1114242E+00
         21   -1    0    0  503  502  0.00000000000E+00  0.00000000000E+00  0.11727825018E+03  0.11727825018E+03  0.00000000000E+00 0. -1.
         21   -1    0    0  501  503 -0.00000000000E+00 -0.00000000000E+00 -0.72409632886E+03  0.72409632886E+03  0.00000000000E+00 0.  1.
          6    1    1    2  501    0 -0.67502764789E+02  0.16620046202E+03 -0.52309314186E+03  0.57912835528E+03  0.17200000000E+03 0.  1.
         -6    1    1    2    0  502  0.67502764789E+02 -0.16620046202E+03 -0.83724936814E+02  0.26224622375E+03  0.17200000000E+03 0. -1.
</event>
<event>
 4    1  0.1232978E+000  0.2101662E+03  0.7818608E-02  0.1141434E+00
         21   -1    0    0  501  502  0.00000000000E+00  0.00000000000E+00  0.56675978910E+02  0.56675978910E+02  0.00000000000E+00 0. -1.
         21   -1    0    0  502  503 -0.00000000000E+00 -0.00000000000E+00 -0.82260124158E+03  0.82260124158E+03  0.00000000000E+00 0.  1.
          6    1    1    2  501    0 -0.11160203409E+03 -0.46160576129E+02 -0.28214079905E+03  0.35181421701E+03  0.17200000000E+03 0.  1.
         -6    1    1    2    0  503  0.11160203409E+03  0.46160576129E+02 -0.48378446362E+03  0.52746300348E+03  0.17200000000E+03 0.  1.
</event>
<event>
 4    1  0.1232978E+000  0.2062592E+03  0.7818608E-02  0.1144563E+00
         21   -1    0    0  501  502  0.00000000000E+00  0.00000000000E+00  0.11096611441E+04  0.11096611441E+04  0.00000000000E+00 0. -1.
         21   -1    0    0  502  503 -0.00000000000E+00 -0.00000000000E+00 -0.38376187906E+02  0.38376187906E+02  0.00000000000E+00 0. -1.
          6    1    1    2  501    0 -0.28350951456E+02  0.11025009372E+03  0.51767886068E+03  0.55725601155E+03  0.17200000000E+03 0.  1.
         -6    1    1    2    0  503  0.28350951456E+02 -0.11025009372E+03  0.55360609556E+03  0.59078132050E+03  0.17200000000E+03 0.  1.
</event>
<event>
 4    1  0.1232978E+000  0.1897697E+03  0.7818608E-02  0.1158669E+00
         21   -1    0    0  503  502  0.00000000000E+00  0.00000000000E+00  0.13288227603E+04  0.13288227603E+04  0.00000000000E+00 0.  1.
         21   -1    0    0  501  503 -0.00000000000E+00 -0.00000000000E+00 -0.14122414096E+03  0.14122414096E+03  0.00000000000E+00 0.  1.
          6    1    1    2  501    0  0.29522429805E+02 -0.74544964085E+02 -0.66945011791E+02  0.20123160819E+03  0.17200000000E+03 0.  1.
         -6    1    1    2    0  502 -0.29522429805E+02  0.74544964085E+02  0.12545436311E+04  0.12688152931E+04  0.17200000000E+03 0.  1.
</event>
<event>
 4    1  0.1232978E+000  0.2383962E+03  0.7818608E-02  0.1120866E+00
         21   -1    0    0  503  502  0.00000000000E+00  0.00000000000E+00  0.53474255657E+02  0.53474255657E+02  0.00000000000E+00 0.  1.
         21   -1    0    0  501  503 -0.00000000000E+00 -0.00000000000E+00 -0.12156208923E+04  0.12156208923E+04  0.00000000000E+00 0. -1.
          6    1    1    2  501    0 -0.93855786094E+02 -0.13579330374E+03 -0.80605582067E+03  0.84057047055E+03  0.17200000000E+03 0. -1.
         -6    1    1    2    0  502  0.93855786094E+02  0.13579330374E+03 -0.35609081595E+03  0.42852467738E+03  0.17200000000E+03 0.  1.
</event>
<event>
 4    1  0.1232978E+000  0.1886053E+03  0.7818608E-02  0.1159725E+00
         21   -1    0    0  501  502  0.00000000000E+00  0.00000000000E+00  0.12718110177E+03  0.12718110177E+03  0.00000000000E+00 0.  1.
         21   -1    0    0  502  503 -0.00000000000E+00 -0.00000000000E+00 -0.28200529459E+03  0.28200529459E+03  0.00000000000E+00 0.  1.
          6    1    1    2  501    0  0.72103299042E+02  0.28090626668E+02 -0.58895604487E+02  0.19758709793E+03  0.17200000000E+03 0. -1.
         -6    1    1    2    0  503 -0.72103299042E+02 -0.28090626668E+02 -0.95928588335E+02  0.21159929844E+03  0.17200000000E+03 0. -1.
</event>
<event>
 4    1  0.1232978E+000  0.1733874E+03  0.7818608E-02  0.1174361E+00
         21   -1    0    0  503  502  0.00000000000E+00  0.00000000000E+00  0.45904150497E+03  0.45904150497E+03  0.00000000000E+00 0. -1.
         21   -1    0    0  501  503 -0.00000000000E+00 -0.00000000000E+00 -0.73887906488E+02  0.73887906488E+02  0.00000000000E+00 0. -1.
          6    1    1    2  501    0 -0.32828746473E+01 -0.21642483118E+02  0.28240397838E+03  0.33138373730E+03  0.17200000000E+03 0. -1.
         -6    1    1    2    0  502  0.32828746473E+01  0.21642483118E+02  0.10274962010E+03  0.20154567416E+03  0.17200000000E+03 0. -1.
</event>
<event>
 4    1  0.1232978E+000  0.1968394E+03  0.7818608E-02  0.1152433E+00
         21   -1    0    0  501  502  0.00000000000E+00  0.00000000000E+00  0.19641165896E+03  0.19641165896E+03  0.00000000000E+00 0. -1.
         21   -1    0    0  502  503 -0.00000000000E+00 -0.00000000000E+00 -0.19874511487E+03  0.19874511487E+03  0.00000000000E+00 0. -1.
          6    1    1    2  501    0  0.10519367632E+02 -0.95137223781E+02  0.15866163589E+02  0.19747780531E+03  0.17200000000E+03 0. -1.
         -6    1    1    2    0  503 -0.10519367632E+02  0.95137223781E+02 -0.18199619492E+02  0.19767896852E+03  0.17200000000E+03 0. -1.
</event>
<event>
 4    1  0.1232978E+000  0.2681741E+03  0.7818608E-02  0.1102329E+00
         21   -1    0    0  503  502  0.00000000000E+00  0.00000000000E+00  0.42879468064E+03  0.42879468064E+03  0.00000000000E+00 0. -1.
         21   -1    0    0  501  503 -0.00000000000E+00 -0.00000000000E+00 -0.16907437883E+03  0.16907437883E+03  0.00000000000E+00 0.  1.
          6    1    1    2  501    0  0.13696900864E+03  0.15353446804E+03  0.10310266790E+03  0.28731081137E+03  0.17200000000E+03 0.  1.
         -6    1    1    2    0  502 -0.13696900864E+03 -0.15353446804E+03  0.15661763391E+03  0.31055824809E+03  0.17200000000E+03 0. -1.
</event>
<event>
 4    1  0.1232978E+000  0.2915800E+03  0.7818608E-02  0.1089527E+00
         21   -1    0    0  501  502  0.00000000000E+00  0.00000000000E+00  0.53278676068E+03  0.53278676068E+03  0.00000000000E+00 0.  1.
         21   -1    0    0  502  503 -0.00000000000E+00 -0.00000000000E+00 -0.19204381051E+03  0.19204381051E+03  0.00000000000E+00 0. -1.
          6    1    1    2  501    0  0.52880628892E+02 -0.22943092294E+03  0.31939206976E+03  0.43246988744E+03  0.17200000000E+03 0.  1.
         -6    1    1    2    0  503 -0.52880628892E+02  0.22943092294E+03  0.21350880412E+02  0.29236068375E+03  0.17200000000E+03 0. -1.
</event>
<event>
 4    1  0.1232978E+000  0.1769936E+03  0.7818608E-02  0.1170745E+00
         21   -1    0    0  503  502  0.00000000000E+00  0.00000000000E+00  0.10551092938E+03  0.10551092938E+03  0.00000000000E+00 0.  1.
         21   -1    0    0  501  503 -0.00000000000E+00 -0.00000000000E+00 -0.33366248181E+03  0.33366248181E+03  0.00000000000E+00 0.  1.
          6    1    1    2  501    0 -0.10058579934E+02  0.40516131279E+02 -0.41193034362E+02  0.18172396101E+03  0.17200000000E+03 0. -1.
         -6    1    1    2    0  502  0.10058579934E+02 -0.40516131279E+02 -0.18695851807E+03  0.25744945019E+03  0.17200000000E+03 0. -1.
</event>
<event>
 4    1  0.1232978E+000  0.1743222E+03  0.7818608E-02  0.1173414E+00
         21   -1    0    0  503  502  0.00000000000E+00  0.00000000000E+00  0.11735401357E+04  0.11735401357E+04  0.00000000000E+00 0. -1.
         21   -1    0    0  501  503 -0.00000000000E+00 -0.00000000000E+00 -0.50730373875E+02  0.50730373875E+02  0.00000000000E+00 0. -1.
          6    1    1    2  501    0  0.42642622723E+01 -0.28036192711E+02  0.13309977143E+03  0.21932569660E+03  0.17200000000E+03 0. -1.
         -6    1    1    2    0  502 -0.42642622723E+01  0.28036192711E+02  0.98970999040E+03  0.10049448130E+04  0.17200000000E+03 0. -1.
</event>
<event>
 4    1  0.1232978E+000  0.2212188E+03  0.7818608E-02  0.1132978E+00
         21   -1    0    0  501  502  0.00000000000E+00  0.00000000000E+00  0.20211964672E+03  0.20211964672E+03  0.00000000000E+00 0. -1.
         21   -1    0    0  502  503 -0.00000000000E+00 -0.00000000000E+00 -0.29079476117E+03  0.29079476117E+03  0.00000000000E+00 0.  1.
          6    1    1    2  501    0  0.27492779740E+02 -0.13637406761E+03  0.56492133608E+02  0.22831798092E+03  0.17200000000E+03 0. -1.
         -6    1    1    2    0  503 -0.27492779740E+02  0.13637406761E+03 -0.14516724806E+03  0.26459642696E+03  0.17200000000E+03 0.  1.
</event>
<event>
 4    1  0.1232978E+000  0.1982996E+03  0.7818608E-02  0.1151182E+00
         21   -1    0    0  503  502  0.00000000000E+00  0.00000000000E+00  0.21060632746E+04  0.21060632746E+04  0.00000000000E+00 0.  1.
         21   -1    0    0  501  503 -0.00000000000E+00 -0.00000000000E+00 -0.22996789022E+02  0.22996789022E+02  0.00000000000E+00 0.  1.
          6    1    1    2  501    0  0.39790038326E+01 -0.98604746108E+02  0.57984698367E+03  0.61281747111E+03  0.17200000000E+03 0.  1.
         -6    1    1    2    0  502 -0.39790038326E+01  0.98604746108E+02  0.15032195019E+04  0.15162425925E+04  0.17200000000E+03 0.  1.
</event>
<event>
 4    1  0.1232978E+000  0.3054658E+03  0.7818608E-02  0.1082540E+00
         21   -1    0    0  503  502  0.00000000000E+00  0.00000000000E+00  0.90361568165E+03  0.90361568165E+03  0.00000000000E+00 0. -1.
         21   -1    0    0  501  503 -0.00000000000E+00 -0.00000000000E+00 -0.79673869899E+03  0.79673869899E+03  0.00000000000E+00 0.  1.
          6    1    1    2  501    0 -0.24065207646E+03  0.76235955234E+02 -0.73973349480E+03  0.80032180160E+03  0.17200000000E+03 0.  1.
         -6    1    1    2    0  502  0.24065207646E+03 -0.76235955234E+02  0.84661047746E+03  0.90003257904E+03  0.17200000000E+03 0. -1.
</event>
<event>
 4    1  0.1232978E+000  0.2783700E+03  0.7818608E-02  0.1096583E+00
         21   -1    0    0  501  502  0.00000000000E+00  0.00000000000E+00  0.17608893632E+03  0.17608893632E+03  0.00000000000E+00 0.  1.
         21   -1    0    0  502  503 -0.00000000000E+00 -0.00000000000E+00 -0.45585584683E+03  0.45585584683E+03  0.00000000000E+00 0.  1.
          6    1    1    2  501    0  0.12652618198E+03  0.17859720741E+03 -0.81067398143E+02  0.28993406192E+03  0.17200000000E+03 0.  1.
         -6    1    1    2    0  503 -0.12652618198E+03 -0.17859720741E+03 -0.19869951237E+03  0.34201072123E+03  0.17200000000E+03 0.  1.
</event>
<event>
 4    1  0.1232978E+000  0.1803547E+03  0.7818608E-02  0.1167460E+00
         21   -1    0    0  501  502  0.00000000000E+00  0.00000000000E+00  0.46298918534E+02  0.46298918534E+02  0.00000000000E+00 0.  1.
         21   -1    0    0  502  503 -0.00000000000E+00 -0.00000000000E+00 -0.75012515291E+03  0.75012515291E+03  0.00000000000E+00 0.  1.
          6    1    1    2  501    0  0.47519786834E+02  0.26185847200E+02 -0.25163965780E+03  0.30959707058E+03  0.17200000000E+03 0. -1.
         -6    1    1    2    0  503 -0.47519786834E+02 -0.26185847200E+02 -0.45218657657E+03  0.48682700086E+03  0.17200000000E+03 0. -1.
</event>
<event>
 4    1  0.1232978E+000  0.1961666E+03  0.7818608E-02  0.1153014E+00
         21   -1    0    0  503  502  0.00000000000E+00  0.00000000000E+00  0.33823765735E+03  0.33823765735E+03  0.00000000000E+00 0. -1.
         21   -1    0    0  501  503 -0.00000000000E+00 -0.00000000000E+00 -0.11437006803E+03  0.11437006803E+03  0.00000000000E+00 0. -1.
          6    1    1    2  501    0 -0.92361165757E+02  0.19150275846E+02  0.95542437465E+02  0.21819641464E+03  0.17200000000E+03 0.  1.
         -6    1    1    2    0  502  0.92361165757E+02 -0.19150275846E+02  0.12832515186E+03  0.23441131074E+03  0.17200000000E+03 0.  1.
</event>
<event>
 4    1  0.1232978E+000  0.2168792E+03  0.7818608E-02  0.1136231E+00
         21   -1    0    0  501  502  0.00000000000E+00  0.00000000000E+00  0.10562971502E+03  0.10562971502E+03  0.00000000000E+00 0. -1.
         21   -1    0    0  502  503 -0.00000000000E+00 -0.00000000000E+00 -0.55713045486E+03  0.55713045486E+03  0.00000000000E+00 0.  1.
          6    1    1    2  501    0 -0.13167776518E+03 -0.10655980730E+02 -0.77281967123E+02  0.23023702181E+03  0.17200000000E+03 0.  1.
         -6    1    1    2    0  503  0.13167776518E+03  0.10655980730E+02 -0.37421877272E+03  0.43252314808E+03  0.17200000000E+03 0. -1.
</event>
<event>
 4    1  0.1232978E+000  0.2198029E+03  0.7818608E-02  0.1134030E+00
         21   -1    0    0  503  502  0.00000000000E+00  0.00000000000E+00  0.11754097577E+03  0.11754097577E+03  0.00000000000E+00 0. -1.
         21   -1    0    0  501  503 -0.00000000000E+00 -0.00000000000E+00 -0.10396497040E+04  0.10396497040E+04  0.00000000000E+00 0. -1.
          6    1    1    2  501    0  0.25336969669E+02 -0.13448916237E+03 -0.91096281082E+03  0.93710540470E+03  0.17200000000E+03 0. -1.
         -6    1    1    2    0  502 -0.25336969669E+02  0.13448916237E+03 -0.11145917410E+02  0.22008527507E+03  0.17200000000E+03 0. -1.
</event>
<event>
 4    1  0.1232978E+000  0.1728675E+03  0.7818608E-02  0.1174890E+00
         21   -1    0    0  501  502  0.00000000000E+00  0.00000000000E+00  0.27557851877E+03  0.27557851877E+03  0.00000000000E+00 0.  1.
         21   -1    0    0  502  503 -0.00000000000E+00 -0.00000000000E+00 -0.15286402589E+03  0.15286402589E+03  0.00000000000E+00 0.  1.
          6    1    1    2  501    0  0.10433804659E+02  0.13794881785E+02  0.17684316736E+03  0.24729874420E+03  0.17200000000E+03 0. -1.
         -6    1    1    2    0  503 -0.10433804659E+02 -0.13794881785E+02 -0.54128674471E+02  0.18114380045E+03  0.17200000000E+03 0. -1.
</event>
<event>
 4    1  0.1232978E+000  0.3205335E+03  0.7818608E-02  0.1075404E+00
         21   -1    0    0  501  502  0.00000000000E+00  0.00000000000E+00  0.28016781499E+03  0.28016781499E+03  0.00000000000E+00 0.  1.
         21   -1    0    0  502  503 -0.00000000000E+00 -0.00000000000E+00 -0.42513256402E+03  0.42513256402E+03  0.00000000000E+00 0. -1.
          6    1    1    2  501    0  0.13781245426E+03  0.23273466341E+03  0.58241298859E+02  0.32578174442E+03  0.17200000000E+03 0. -1.
         -6    1    1    2    0  503 -0.13781245426E+03 -0.23273466341E+03 -0.20320604789E+03  0.37951863459E+03  0.17200000000E+03 0. -1.
</event>
<event>
 4    1  0.1232978E+000  0.2016282E+03  0.7818608E-02  0.1148373E+00
         21   -1    0    0  503  502  0.00000000000E+00  0.00000000000E+00  0.16409122634E+03  0.16409122634E+03  0.00000000000E+00 0.  1.
         21   -1    0    0  501  503 -0.00000000000E+00 -0.00000000000E+00 -0.35270247166E+03  0.35270247166E+03  0.00000000000E+00 0. -1.
          6    1    1    2  501    0 -0.61362571125E+02 -0.85466754935E+02 -0.23525888634E+03  0.30983975687E+03  0.17200000000E+03 0. -1.
         -6    1    1    2    0  502  0.61362571125E+02  0.85466754935E+02  0.46647641021E+02  0.20695394112E+03  0.17200000000E+03 0.  1.
</event>
<event>
 4    1  0.1232978E+000  0.1777165E+03  0.7818608E-02  0.1170032E+00
         21   -1    0    0  503  502  0.00000000000E+00  0.00000000000E+00  0.64787615677E+03  0.64787615677E+03  0.00000000000E+00 0. -1.
         21   -1    0    0  501  503 -0.00000000000E+00 -0.00000000000E+00 -0.70980430927E+02  0.70980430927E+02  0.00000000000E+00 0. -1.
          6    1    1    2  501    0  0.19291018555E+01 -0.44670124804E+02  0.87293588068E+02  0.19799826262E+03  0.17200000000E+03 0. -1.
         -6    1    1    2    0  502 -0.19291018555E+01  0.44670124804E+02  0.48960213777E+03  0.52085832507E+03  0.17200000000E+03 0. -1.
</event>
<event>
 4    1  0.1232978E+000  0.3626362E+03  0.7818608E-02  0.1057545E+00
         21   -1    0    0  503  502  0.00000000000E+00  0.00000000000E+00  0.89523323871E+03  0.89523323871E+03  0.00000000000E+00 0.  1.
         21   -1    0    0  501  503 -0.00000000000E+00 -0.00000000000E+00 -0.24837508907E+03  0.24837508907E+03  0.00000000000E+00 0. -1.
          6    1    1    2  501    0  0.27935661622E+03 -0.15453443602E+03 -0.42068394589E+02  0.36506815907E+03  0.17200000000E+03 0. -1.
         -6    1    1    2    0  502 -0.27935661622E+03  0.15453443602E+03  0.68892654423E+03  0.77854016871E+03  0.17200000000E+03 0.  1.
</event>
<event>
 4    1  0.1232978E+000  0.2508879E+03  0.7818608E-02  0.1112745E+00
         21   -1    0    0  501  502  0.00000000000E+00  0.00000000000E+00  0.69651071334E+02  0.69651071334E+02  0.00000000000E+00 0.  1.
         21   -1    0    0  502  503 -0.00000000000E+00 -0.00000000000E+00 -0.98161578210E+03  0.98161578210E+03  0.00000000000E+00 0. -1.
          6    1    1    2  501    0  0.72093041800E+02 -0.16781941517E+03 -0.30790749790E+03  0.39717979562E+03  0.17200000000E+03 0. -1.
         -6    1    1    2    0  503 -0.72093041800E+02  0.16781941517E+03 -0.60405721286E+03  0.65408705781E+03  0.17200000000E+03 0. -1.
</event>
<event>
 4    1  0.1232978E+000  0.1819534E+03  0.7818608E-02  0.1165926E+00
         21   -1    0    0  501  502  0.00000000000E+00  0.00000000000E+00  0.92665483436E+02  0.92665483436E+02  0.00000000000E+00 0.  1.
         21   -1    0    0  502  503 -0.00000000000E+00 -0.00000000000E+00 -0.41146929492E+03  0.41146929492E+03  0.00000000000E+00 0.  1.
          6    1    1    2  501    0 -0.59276742314E+02  0.30508822510E+01 -0.67922018635E+02  0.19421750868E+03  0.17200000000E+03 0.  1.
         -6    1    1    2    0  503  0.59276742314E+02 -0.30508822510E+01 -0.25088179285E+03  0.30991726968E+03  0.17200000000E+03 0.  1.
</event>
<event>
 4    1  0.1232978E+000  0.1961179E+03  0.7818608E-02  0.1153056E+00
         21   -1    0    0  503  502  0.00000000000E+00  0.00000000000E+00  0.78982315321E+03  0.78982315321E+03  0.00000000000E+00 0.  1.
         21   -1    0    0  501  503 -0.00000000000E+00 -0.00000000000E+00 -0.87159930734E+02  0.87159930734E+02  0.00000000000E+00 0.  1.
          6    1    1    2  501    0 -0.77551327769E+02 -0.53516704721E+02  0.60043782082E+02  0.20510363695E+03  0.17200000000E+03 0.  1.
         -6    1    1    2    0  502  0.77551327769E+02  0.53516704721E+02  0.64261944039E+03  0.67187944699E+03  0.17200000000E+03 0.  1.
</event>
<event>
 4    1  0.1232978E+000  0.2076314E+03  0.7818608E-02  0.1143456E+00
         21   -1    0    0  503  502  0.00000000000E+00  0.00000000000E+00  0.53596786456E+02  0.53596786456E+02  0.00000000000E+00 0.  1.
         21   -1    0    0  501  503 -0.00000000000E+00 -0.00000000000E+00 -0.90851303207E+03  0.90851303207E+03  0.00000000000E+00 0.  1.
          6    1    1    2  501    0  0.97543091084E+02 -0.63341505639E+02 -0.59034162379E+03  0.62579072678E+03  0.17200000000E+03 0.  1.
         -6    1    1    2    0  502 -0.97543091084E+02  0.63341505639E+02 -0.26457462183E+03  0.33631909174E+03  0.17200000000E+03 0.  1.
</event>
<event>
 4    1  0.1232978E+000  0.1955815E+03  0.7818608E-02  0.1153521E+00
         21   -1    0    0  503  502  0.00000000000E+00  0.00000000000E+00  0.23418435681E+03  0.23418435681E+03  0.00000000000E+00 0.  1.
         21   -1    0    0  501  503 -0.00000000000E+00 -0.00000000000E+00 -0.22791540341E+03  0.22791540341E+03  0.00000000000E+00 0.  1.
          6    1    1    2  501    0 -0.85960690221E+02  0.35761436756E+02 -0.11984879516E+03  0.22938146029E+03  0.17200000000E+03 0.  1.
         -6    1    1    2    0  502  0.85960690221E+02 -0.35761436756E+02  0.12611774856E+03  0.23271829994E+03  0.17200000000E+03 0.  1.
</event>
<event>
 4    1  0.1232978E+000  0.1746276E+03  0.7818608E-02  0.1173106E+00
         21   -1    0    0  501  502  0.00000000000E+00  0.00000000000E+00  0.21376838102E+03  0.21376838102E+03  0.00000000000E+00 0. -1.
         21   -1    0    0  502  503 -0.00000000000E+00 -0.00000000000E+00 -0.19673751486E+03  0.19673751486E+03  0.00000000000E+00 0. -1.
          6    1    1    2  501    0  0.15931107010E+02  0.25631851757E+02  0.11613235603E+03  0.20971770577E+03  0.17200000000E+03 0. -1.
         -6    1    1    2    0  503 -0.15931107010E+02 -0.25631851757E+02 -0.99101489865E+02  0.20078819011E+03  0.17200000000E+03 0. -1.
</event>
<event>
 4    1  0.1232978E+000  0.2027606E+03  0.7818608E-02  0.1147431E+00
         21   -1    0    0  503  502  0.00000000000E+00  0.00000000000E+00  0.82520602039E+03  0.82520602039E+03  0.00000000000E+00 0.  1.
         21   -1    0    0  501  503 -0.00000000000E+00 -0.00000000000E+00 -0.49976490934E+02  0.49976490934E+02  0.00000000000E+00 0.  1.
          6    1    1    2  501    0  0.10734645515E+03 -0.21470768339E+01  0.41209128140E+03  0.45927235447E+03  0.17200000000E+03 0. -1.
         -6    1    1    2    0  502 -0.10734645515E+03  0.21470768339E+01  0.36313824805E+03  0.41591015685E+03  0.17200000000E+03 0. -1.
</event>
<event>
 4    1  0.1232978E+000  0.1746861E+03  0.7818608E-02  0.1173047E+00
         21   -1    0    0  501  502  0.00000000000E+00  0.00000000000E+00  0.19352888769E+02  0.19352888769E+02  0.00000000000E+00 0. -1.
         21   -1    0    0  502  503 -0.00000000000E+00 -0.00000000000E+00 -0.21107398421E+04  0.21107398421E+04  0.00000000000E+00 0. -1.
          6    1    1    2  501    0  0.27814122561E+02 -0.12553675994E+02 -0.51001272427E+03  0.53909943342E+03  0.17200000000E+03 0. -1.
         -6    1    1    2    0  503 -0.27814122561E+02  0.12553675994E+02 -0.15813742290E+04  0.15909932974E+04  0.17200000000E+03 0. -1.
</event>
<event>
 4    1  0.1232978E+000  0.1735889E+03  0.7818608E-02  0.1174156E+00
         21   -1    0    0  503  502  0.00000000000E+00  0.00000000000E+00  0.13352216386E+03  0.13352216386E+03  0.00000000000E+00 0. -1.
         21   -1    0    0  501  503 -0.00000000000E+00 -0.00000000000E+00 -0.30490550990E+03  0.30490550990E+03  0.00000000000E+00 0. -1.
          6    1    1    2  501    0  0.22564441383E+02  0.63220969594E+01 -0.19743487529E+03  0.26289475633E+03  0.17200000000E+03 0. -1.
         -6    1    1    2    0  502 -0.22564441383E+02 -0.63220969594E+01  0.26051529253E+02  0.17553291743E+03  0.17200000000E+03 0. -1.
</event>
<event>
 4    1  0.1232978E+000  0.1725922E+03  0.7818608E-02  0.1175171E+00
         21   -1    0    0  503  502  0.00000000000E+00  0.00000000000E+00  0.59624149203E+03  0.59624149203E+03  0.00000000000E+00 0. -1.
         21   -1    0    0  501  503 -0.00000000000E+00 -0.00000000000E+00 -0.51501654333E+02  0.51501654333E+02  0.00000000000E+00 0. -1.
          6    1    1    2  501    0 -0.12477156794E+02  0.69565679350E+01  0.32840907283E+03  0.37099945066E+03  0.17200000000E+03 0.  1.
         -6    1    1    2    0  502  0.12477156794E+02 -0.69565679350E+01  0.21633076487E+03  0.27674369570E+03  0.17200000000E+03 0.  1.
</event>
<event>
 4    1  0.1232978E+000  0.2342203E+03  0.7818608E-02  0.1123704E+00
         21   -1    0    0  501  502  0.00000000000E+00  0.00000000000E+00  0.18972165043E+03  0.18972165043E+03  0.00000000000E+00 0.  1.
         21   -1    0    0  502  503 -0.00000000000E+00 -0.00000000000E+00 -0.41328555537E+03  0.41328555537E+03  0.00000000000E+00 0.  1.
          6    1    1    2  501    0  0.15817037942E+03  0.16040651444E+02  0.53454106463E+02  0.24024261263E+03  0.17200000000E+03 0. -1.
         -6    1    1    2    0  503 -0.15817037942E+03 -0.16040651444E+02 -0.27701801140E+03  0.36276459317E+03  0.17200000000E+03 0. -1.
</event>
<event>
 4    1  0.1232978E+000  0.2371369E+03  0.7818608E-02  0.1121715E+00
         21   -1    0    0  503  502  0.00000000000E+00  0.00000000000E+00  0.88028677456E+02  0.88028677456E+02  0.00000000000E+00 0. -1.
         21   -1    0    0  501  503 -0.00000000000E+00 -0.00000000000E+00 -0.89158863247E+03  0.89158863247E+03  0.00000000000E+00 0. -1.
          6    1    1    2  501    0 -0.58620550582E+02 -0.15235988626E+03 -0.66258226875E+03  0.70373941680E+03  0.17200000000E+03 0. -1.
         -6    1    1    2    0  502  0.58620550582E+02  0.15235988626E+03 -0.14097768626E+03  0.27587789313E+03  0.17200000000E+03 0. -1.
</event>
<event>
 4    1  0.1232978E+000  0.1729834E+03  0.7818608E-02  0.1174772E+00
         21   -1    0    0  501  502  0.00000000000E+00  0.00000000000E+00  0.25858951742E+03  0.25858951742E+03  0.00000000000E+00 0. -1.
         21   -1    0    0  502  503 -0.00000000000E+00 -0.00000000000E+00 -0.13007700979E+03  0.13007700979E+03  0.00000000000E+00 0. -1.
          6    1    1    2  501    0 -0.17284723244E+02 -0.63647191585E+01  0.12882468823E+03  0.21568280322E+03  0.17200000000E+03 0. -1.
         -6    1    1    2    0  503  0.17284723244E+02  0.63647191585E+01 -0.31218060033E+00  0.17298372399E+03  0.17200000000E+03 0. -1.
</event>
<event>
 4    1  0.1232978E+000  0.1993075E+03  0.7818608E-02  0.1150325E+00
         21   -1    0    0  501  502  0.00000000000E+00  0.00000000000E+00  0.14614581599E+03  0.14614581599E+03  0.00000000000E+00 0. -1.
         21   -1    0    0  502  503 -0.00000000000E+00 -0.00000000000E+00 -0.27197900743E+03  0.27197900743E+03  0.00000000000E+00 0. -1.
          6    1    1    2  501    0 -0.55898879476E+02  0.83754382182E+02 -0.68171464641E+02  0.21064384599E+03  0.17200000000E+03 0. -1.
         -6    1    1    2    0  503  0.55898879476E+02 -0.83754382182E+02 -0.57661726800E+02  0.20748097744E+03  0.17200000000E+03 0. -1.
</event>
<event>
 4    1  0.1232978E+000  0.1880164E+03  0.7818608E-02  0.1160263E+00
         21   -1    0    0  501  502  0.00000000000E+00  0.00000000000E+00  0.11806215405E+03  0.11806215405E+03  0.00000000000E+00 0.  1.
         21   -1    0    0  502  503 -0.00000000000E+00 -0.00000000000E+00 -0.34262227639E+03  0.34262227639E+03  0.00000000000E+00 0. -1.
          6    1    1    2  501    0 -0.53439994397E+02 -0.53947516391E+02 -0.19407363209E+03  0.27021240201E+03  0.17200000000E+03 0. -1.
         -6    1    1    2    0  503  0.53439994397E+02  0.53947516391E+02 -0.30486490243E+02  0.19047202843E+03  0.17200000000E+03 0.  1.
</event>
<event>
 4    1  0.1232978E+000  0.1794230E+03  0.7818608E-02  0.1168363E+00
         21   -1    0    0  503  502  0.00000000000E+00  0.00000000000E+00  0.61336472409E+02  0.61336472409E+02  0.00000000000E+00 0. -1.
         21   -1    0    0  501  503 -0.00000000000E+00 -0.00000000000E+00 -0.52500279034E+03  0.52500279034E+03  0.00000000000E+00 0. -1.
          6    1    1    2  501    0  0.35302968292E+02  0.36909630310E+02 -0.22687815510E+03  0.28925130534E+03  0.17200000000E+03 0. -1.
         -6    1    1    2    0  502 -0.35302968292E+02 -0.36909630310E+02 -0.23678816283E+03  0.29708795741E+03  0.17200000000E+03 0. -1.
</event>
<event>
 4    1  0.1232978E+000  0.1887408E+03  0.7818608E-02  0.1159602E+00
         21   -1    0    0  501  502  0.00000000000E+00  0.00000000000E+00  0.74001409363E+03  0.74001409363E+03  0.00000000000E+00 0. -1.
         21   -1    0    0  502  503 -0.00000000000E+00 -0.00000000000E+00 -0.51122351659E+02  0.51122351659E+02  0.00000000000E+00 0. -1.
          6    1    1    2  501    0  0.74474494321E+02  0.22195623226E+02  0.44001370067E+03  0.47878507994E+03  0.17200000000E+03 0.  1.
         -6    1    1    2    0  503 -0.74474494321E+02 -0.22195623226E+02  0.24887804130E+03  0.31235136535E+03  0.17200000000E+03 0.  1.
</event>
<event>
 4    1  0.1232978E+000  0.1770211E+03  0.7818608E-02  0.1170718E+00
         21   -1    0    0  501  502  0.00000000000E+00  0.00000000000E+00  0.22638651241E+04  0.22638651241E+04  0.00000000000E+00 0. -1.
         21   -1    0    0  502  503 -0.00000000000E+00 -0.00000000000E+00 -0.22202784287E+02  0.22202784287E+02  0.00000000000E+00 0. -1.
          6    1    1    2  501    0  0.16874199123E+02 -0.38310841659E+02  0.18222517164E+04  0.18308298057E+04  0.17200000000E+03 0. -1.
         -6    1    1    2    0  503 -0.16874199123E+02  0.38310841659E+02  0.41941062334E+03  0.45523810271E+03  0.17200000000E+03 0. -1.
</event>
<event>
 4    1  0.1232978E+000  0.1736098E+03  0.7818608E-02  0.1174135E+00
         21   -1    0    0  503  502  0.00000000000E+00  0.00000000000E+00  0.62579714458E+02  0.62579714458E+02  0.00000000000E+00 0. -1.
         21   -1    0    0  501  503 -0.00000000000E+00 -0.00000000000E+00 -0.50821524593E+03  0.50821524593E+03  0.00000000000E+00 0. -1.
          6    1    1    2  501    0  0.18508424813E+02  0.14622106071E+02 -0.28809076838E+03  0.33635793227E+03  0.17200000000E+03 0. -1.
         -6    1    1    2    0  502 -0.18508424813E+02 -0.14622106071E+02 -0.15754476309E+03  0.23443702812E+03  0.17200000000E+03 0. -1.
</event>
<event>
 4    1  0.1232978E+000  0.2243847E+03  0.7818608E-02  0.1130656E+00
         21   -1    0    0  503  502  0.00000000000E+00  0.00000000000E+00  0.14240803052E+03  0.14240803052E+03  0.00000000000E+00 0. -1.
         21   -1    0    0  501  503 -0.00000000000E+00 -0.00000000000E+00 -0.37969101761E+03  0.37969101761E+03  0.00000000000E+00 0. -1.
          6    1    1    2  501    0  0.12276465077E+03  0.75454270070E+02 -0.18713673560E+03  0.29217916449E+03  0.17200000000E+03 0. -1.
         -6    1    1    2    0  502 -0.12276465077E+03 -0.75454270070E+02 -0.50146251491E+02  0.22991988363E+03  0.17200000000E+03 0. -1.
</event>
<event>
 4    1  0.1232978E+000  0.1769243E+03  0.7818608E-02  0.1170813E+00
         21   -1    0    0  503  502  0.00000000000E+00  0.00000000000E+00  0.23160899485E+03  0.23160899485E+03  0.00000000000E+00 0.  1.
         21   -1    0    0  501  503 -0.00000000000E+00 -0.00000000000E+00 -0.13836766165E+03  0.13836766165E+03  0.00000000000E+00 0.  1.
          6    1    1    2  501    0 -0.36409094351E+02  0.19813883091E+02  0.18415902369E+02  0.17788017758E+03  0.17200000000E+03 0.  1.
         -6    1    1    2    0  502  0.36409094351E+02 -0.19813883091E+02  0.74825430827E+02  0.19209647892E+03  0.17200000000E+03 0.  1.
</event>
<event>
 4    1  0.1232978E+000  0.1734111E+03  0.7818608E-02  0.1174337E+00
         21   -1    0    0  501  502  0.00000000000E+00  0.00000000000E+00  0.91946086683E+03  0.91946086683E+03  0.00000000000E+00 0. -1.
         21   -1    0    0  502  503 -0.00000000000E+00 -0.00000000000E+00 -0.33432253821E+02  0.33432253821E+02  0.00000000000E+00 0. -1.
          6    1    1    2  501    0  0.15423476560E+02 -0.15795855544E+02  0.37276592778E+03  0.41112751015E+03  0.17200000000E+03 0. -1.
         -6    1    1    2    0  503 -0.15423476560E+02  0.15795855544E+02  0.51326268522E+03  0.54176561050E+03  0.17200000000E+03 0. -1.
</event>
<event>
 4    1  0.1232978E+000  0.3036858E+03  0.7818608E-02  0.1083412E+00
         21   -1    0    0  501  502  0.00000000000E+00  0.00000000000E+00  0.23318278066E+03  0.23318278066E+03  0.00000000000E+00 0.  1.
         21   -1    0    0  502  503 -0.00000000000E+00 -0.00000000000E+00 -0.59892089535E+03  0.59892089535E+03  0.00000000000E+00 0. -1.
          6    1    1    2  501    0 -0.16611484141E+03 -0.18720828598E+03  0.59599022538E+02  0.30947879793E+03  0.17200000000E+03 0.  1.
         -6    1    1    2    0  503  0.16611484141E+03  0.18720828598E+03 -0.42533713724E+03  0.52262487808E+03  0.17200000000E+03 0. -1.
</event>
<event>
 4    1  0.1232978E+000  0.1994763E+03  0.7818608E-02  0.1150182E+00
         21   -1    0    0  501  502  0.00000000000E+00  0.00000000000E+00  0.83156794962E+02  0.83156794962E+02  0.00000000000E+00 0.  1.
         21   -1    0    0  502  503 -0.00000000000E+00 -0.00000000000E+00 -0.96209770616E+03  0.96209770616E+03  0.00000000000E+00 0.  1.
          6    1    1    2  501    0  0.36264290205E+02  0.94295888746E+02 -0.68940753238E+02  0.21105364445E+03  0.17200000000E+03 0.  1.
         -6    1    1    2    0  503 -0.36264290205E+02 -0.94295888746E+02 -0.81000015796E+03  0.83420085667E+03  0.17200000000E+03 0.  1.
</event>
<event>
 4    1  0.1232978E+000  0.2038025E+03  0.7818608E-02  0.1146570E+00
         21   -1    0    0  501  502  0.00000000000E+00  0.00000000000E+00  0.33482942146E+03  0.33482942146E+03  0.00000000000E+00 0. -1.
         21   -1    0    0  502  503 -0.00000000000E+00 -0.00000000000E+00 -0.32481680608E+03  0.32481680608E+03  0.00000000000E+00 0. -1.
          6    1    1    2  501    0 -0.88873789015E+02  0.63662604026E+02  0.26430967651E+03  0.33375901879E+03  0.17200000000E+03 0. -1.
         -6    1    1    2    0  503  0.88873789015E+02 -0.63662604026E+02 -0.25429706113E+03  0.32588720875E+03  0.17200000000E+03 0. -1.
</event>
<event>
 4    1  0.1232978E+000  0.1864036E+03  0.7818608E-02  0.1161746E+00
         21   -1    0    0  503  502  0.00000000000E+00  0.00000000000E+00  0.44744630225E+03  0.44744630225E+03  0.00000000000E+00 0. -1.
         21   -1    0    0  501  503 -0.00000000000E+00 -0.00000000000E+00 -0.77677314605E+02  0.77677314605E+02  0.00000000000E+00 0.  1.
          6    1    1    2  501    0 -0.71229617041E+02  0.94150419388E+01  0.18040293282E+03  0.25940609000E+03  0.17200000000E+03 0.  1.
         -6    1    1    2    0  502  0.71229617041E+02 -0.94150419388E+01  0.18936605482E+03  0.26571752685E+03  0.17200000000E+03 0. -1.
</event>
<event>
 4    1  0.1232978E+000  0.2412887E+03  0.7818608E-02  0.1118937E+00
         21   -1    0    0  503  502  0.00000000000E+00  0.00000000000E+00  0.12379179417E+04  0.12379179417E+04  0.00000000000E+00 0. -1.
         21   -1    0    0  501  503 -0.00000000000E+00 -0.00000000000E+00 -0.10907560462E+03  0.10907560462E+03  0.00000000000E+00 0. -1.
          6    1    1    2  501    0 -0.13927124985E+03  0.96123749607E+02  0.56467083379E+02  0.24780796553E+03  0.17200000000E+03 0. -1.
         -6    1    1    2    0  502  0.13927124985E+03 -0.96123749607E+02  0.10723752538E+04  0.10991855808E+04  0.17200000000E+03 0. -1.
</event>
<event>
 4    1  0.1232978E+000  0.1871027E+03  0.7818608E-02  0.1161101E+00
         21   -1    0    0  501  502  0.00000000000E+00  0.00000000000E+00  0.44187087240E+03  0.44187087240E+03  0.00000000000E+00 0. -1.
         21   -1    0    0  502  503 -0.00000000000E+00 -0.00000000000E+00 -0.79287420108E+02  0.79287420108E+02  0.00000000000E+00 0.  1.
          6    1    1    2  501    0 -0.25983645442E+02 -0.68907755623E+02  0.17400805951E+03  0.25551170891E+03  0.17200000000E+03 0.  1.
         -6    1    1    2    0  503  0.25983645442E+02  0.68907755623E+02  0.18857539279E+03  0.26564658361E+03  0.17200000000E+03 0.  1.
</event>
<event>
 4    1  0.1232978E+000  0.1754340E+03  0.7818608E-02  0.1172297E+00
         21   -1    0    0  503  502  0.00000000000E+00  0.00000000000E+00  0.82184319058E+02  0.82184319058E+02  0.00000000000E+00 0.  1.
         21   -1    0    0  501  503 -0.00000000000E+00 -0.00000000000E+00 -0.47559804127E+03  0.47559804127E+03  0.00000000000E+00 0.  1.
          6    1    1    2  501    0  0.26571683987E+02  0.22068985468E+02 -0.32529784052E+03  0.36958866264E+03  0.17200000000E+03 0.  1.
         -6    1    1    2    0  502 -0.26571683987E+02 -0.22068985468E+02 -0.68115881696E+02  0.18819369769E+03  0.17200000000E+03 0.  1.
</event>
<event>
 4    1  0.1232978E+000  0.1846053E+03  0.7818608E-02  0.1163419E+00
         21   -1    0    0  501  502  0.00000000000E+00  0.00000000000E+00  0.18006067576E+03  0.18006067576E+03  0.00000000000E+00 0.  1.
         21   -1    0    0  502  503 -0.00000000000E+00 -0.00000000000E+00 -0.18926617728E+03  0.18926617728E+03  0.00000000000E+00 0.  1.
          6    1    1    2  501    0 -0.52696386623E+02  0.41451114484E+02 -0.51430330999E+01  0.18467689310E+03  0.17200000000E+03 0.  1.
         -6    1    1    2    0  503  0.52696386623E+02 -0.41451114484E+02 -0.40624684206E+01  0.18464995994E+03  0.17200000000E+03 0.  1.
</event>
<event>
 4    1  0.1232978E+000  0.1935729E+03  0.7818608E-02  0.1155278E+00
         21   -1    0    0  503  502  0.00000000000E+00  0.00000000000E+00  0.72440420011E+02  0.72440420011E+02  0.00000000000E+00 0.  1.
         21   -1    0    0  501  503 -0.00000000000E+00 -0.00000000000E+00 -0.59223218404E+03  0.59223218404E+03  0.00000000000E+00 0.  1.
          6    1    1    2  501    0 -0.20034209156E+02 -0.86516547448E+02 -0.37814116542E+03  0.42480727808E+03  0.17200000000E+03 0.  1.
         -6    1    1    2    0  502  0.20034209156E+02  0.86516547448E+02 -0.14165059860E+03  0.23986532597E+03  0.17200000000E+03 0.  1.
</event>
<event>
 4    1  0.1232978E+000  0.2031210E+03  0.7818608E-02  0.1147132E+00
         21   -1    0    0  503  502  0.00000000000E+00  0.00000000000E+00  0.76804048310E+02  0.76804048310E+02  0.00000000000E+00 0.  1.
         21   -1    0    0  501  503 -0.00000000000E+00 -0.00000000000E+00 -0.70259435174E+03  0.70259435174E+03  0.00000000000E+00 0.  1.
          6    1    1    2  501    0 -0.98976432334E+02  0.43333739244E+02 -0.50197898866E+03  0.54151736092E+03  0.17200000000E+03 0.  1.
         -6    1    1    2    0  502  0.98976432334E+02 -0.43333739244E+02 -0.12381131476E+03  0.23788103913E+03  0.17200000000E+03 0.  1.
</event>
<event>
 4    1  0.1232978E+000  0.1893392E+03  0.7818608E-02  0.1159059E+00
         21   -1    0    0  501  502  0.00000000000E+00  0.00000000000E+00  0.78890050263E+03  0.78890050263E+03  0.00000000000E+00 0. -1.
         21   -1    0    0  502  503 -0.00000000000E+00 -0.00000000000E+00 -0.16874263428E+03  0.16874263428E+03  0.00000000000E+00 0. -1.
          6    1    1    2  501    0  0.49510408956E+02  0.61758010736E+02  0.71938076692E+03  0.74388038037E+03  0.17200000000E+03 0. -1.
         -6    1    1    2    0  503 -0.49510408956E+02 -0.61758010736E+02 -0.99222898572E+02  0.21376275655E+03  0.17200000000E+03 0. -1.
</event>
<event>
 4    1  0.1232978E+000  0.1825788E+03  0.7818608E-02  0.1165330E+00
         21   -1    0    0  503  502  0.00000000000E+00  0.00000000000E+00  0.43653261402E+03  0.43653261402E+03  0.00000000000E+00 0. -1.
         21   -1    0    0  501  503 -0.00000000000E+00 -0.00000000000E+00 -0.80566874859E+02  0.80566874859E+02  0.00000000000E+00 0. -1.
          6    1    1    2  501    0 -0.60591607233E+02  0.89263929033E+01  0.23704116125E+03  0.29920483867E+03  0.17200000000E+03 0. -1.
         -6    1    1    2    0  502  0.60591607233E+02 -0.89263929033E+01  0.11892457791E+03  0.21789465020E+03  0.17200000000E+03 0. -1.
</event>
<event>
 4    1  0.1232978E+000  0.1753030E+03  0.7818608E-02  0.1172428E+00
         21   -1    0    0  501  502  0.00000000000E+00  0.00000000000E+00  0.12030304807E+03  0.12030304807E+03  0.00000000000E+00 0.  1.
         21   -1    0    0  502  503 -0.00000000000E+00 -0.00000000000E+00 -0.36352339397E+03  0.36352339397E+03  0.00000000000E+00 0.  1.
          6    1    1    2  501    0  0.33609284946E+02 -0.41886701727E+01  0.10293707112E+02  0.17560492419E+03  0.17200000000E+03 0.  1.
         -6    1    1    2    0  503 -0.33609284946E+02  0.41886701727E+01 -0.25351405302E+03  0.30822151786E+03  0.17200000000E+03 0.  1.
</event>
<event>
 4    1  0.1232978E+000  0.2314781E+03  0.7818608E-02  0.1125604E+00
         21   -1    0    0  501  502  0.00000000000E+00  0.00000000000E+00  0.34645368861E+03  0.34645368861E+03  0.00000000000E+00 0.  1.
         21   -1    0    0  502  503 -0.00000000000E+00 -0.00000000000E+00 -0.21170537233E+03  0.21170537233E+03  0.00000000000E+00 0.  1.
          6    1    1    2  501    0 -0.10904094458E+03  0.11003709814E+03  0.21224368915E+03  0.31405329825E+03  0.17200000000E+03 0.  1.
         -6    1    1    2    0  503  0.10904094458E+03 -0.11003709814E+03 -0.77495372865E+02  0.24410576269E+03  0.17200000000E+03 0.  1.
</event>
<event>
 4    1  0.1232978E+000  0.2013226E+03  0.7818608E-02  0.1148628E+00
         21   -1    0    0  501  502  0.00000000000E+00  0.00000000000E+00  0.63759684652E+02  0.63759684652E+02  0.00000000000E+00 0.  1.
         21   -1    0    0  502  503 -0.00000000000E+00 -0.00000000000E+00 -0.63734638870E+03  0.63734638870E+03  0.00000000000E+00 0.  1.
          6    1    1    2  501    0 -0.85903820628E+02 -0.59726962429E+02 -0.26887025556E+03  0.33588984916E+03  0.17200000000E+03 0. -1.
         -6    1    1    2    0  503  0.85903820628E+02  0.59726962429E+02 -0.30471644849E+03  0.36521622420E+03  0.17200000000E+03 0. -1.
</event>
<event>
 4    1  0.1232978E+000  0.1760635E+03  0.7818608E-02  0.1171668E+00
         21   -1    0    0  501  502  0.00000000000E+00  0.00000000000E+00  0.36606390849E+03  0.36606390849E+03  0.00000000000E+00 0.  1.
         21   -1    0    0  502  503 -0.00000000000E+00 -0.00000000000E+00 -0.88646889100E+02  0.88646889100E+02  0.00000000000E+00 0.  1.
          6    1    1    2  501    0  0.12302650468E+02 -0.35538495808E+02  0.18680256022E+03  0.25669736344E+03  0.17200000000E+03 0. -1.
         -6    1    1    2    0  503 -0.12302650468E+02  0.35538495808E+02  0.90614459170E+02  0.19801343415E+03  0.17200000000E+03 0. -1.
</event>
<event>
 4    1  0.1232978E+000  0.3285642E+03  0.7818608E-02  0.1071774E+00
         21   -1    0    0  501  502  0.00000000000E+00  0.00000000000E+00  0.29792376302E+03  0.29792376302E+03  0.00000000000E+00 0.  1.
         21   -1    0    0  502  503 -0.00000000000E+00 -0.00000000000E+00 -0.40716743484E+03  0.40716743484E+03  0.00000000000E+00 0. -1.
          6    1    1    2  501    0 -0.65332726786E+02 -0.27221691707E+03  0.62334562060E+02  0.33442489853E+03  0.17200000000E+03 0.  1.
         -6    1    1    2    0  503  0.65332726786E+02  0.27221691707E+03 -0.17157823388E+03  0.37066629934E+03  0.17200000000E+03 0.  1.
</event>
<event>
 4    1  0.1232978E+000  0.2122006E+03  0.7818608E-02  0.1139835E+00
         21   -1    0    0  503  502  0.00000000000E+00  0.00000000000E+00  0.25199563595E+02  0.25199563595E+02  0.00000000000E+00 0.  1.
         21   -1    0    0  501  503 -0.00000000000E+00 -0.00000000000E+00 -0.20790156160E+04  0.20790156160E+04  0.00000000000E+00 0.  1.
          6    1    1    2  501    0 -0.44079556779E+02 -0.11619851735E+03 -0.14212823111E+04  0.14370360158E+04  0.17200000000E+03 0.  1.
         -6    1    1    2    0  502  0.44079556779E+02  0.11619851735E+03 -0.63253374132E+03  0.66717916384E+03  0.17200000000E+03 0.  1.
</event>
<event>
 4    1  0.1232978E+000  0.2046741E+03  0.7818608E-02  0.1145854E+00
         21   -1    0    0  501  502  0.00000000000E+00  0.00000000000E+00  0.69911735675E+02  0.69911735675E+02  0.00000000000E+00 0.  1.
         21   -1    0    0  502  503 -0.00000000000E+00 -0.00000000000E+00 -0.11442691034E+04  0.11442691034E+04  0.00000000000E+00 0.  1.
          6    1    1    2  501    0  0.11093915171E+03  0.90214863863E-01 -0.11817982015E+03  0.23634291487E+03  0.17200000000E+03 0.  1.
         -6    1    1    2    0  503 -0.11093915171E+03 -0.90214863863E-01 -0.95617754759E+03  0.97783792422E+03  0.17200000000E+03 0.  1.
</event>
<event>
 4    1  0.1232978E+000  0.1752750E+03  0.7818608E-02  0.1172456E+00
         21   -1    0    0  503  502  0.00000000000E+00  0.00000000000E+00  0.20254316688E+03  0.20254316688E+03  0.00000000000E+00 0. -1.
         21   -1    0    0  501  503 -0.00000000000E+00 -0.00000000000E+00 -0.19899098457E+03  0.19899098457E+03  0.00000000000E+00 0. -1.
          6    1    1    2  501    0  0.29834981318E+02 -0.15723115620E+02 -0.96120138334E+02  0.19990103419E+03  0.17200000000E+03 0.  1.
         -6    1    1    2    0  502 -0.29834981318E+02  0.15723115620E+02  0.99672320643E+02  0.20163311726E+03  0.17200000000E+03 0.  1.
</event>
<event>
 4    1  0.1232978E+000  0.2690992E+03  0.7818608E-02  0.1101796E+00
         21   -1    0    0  503  502  0.00000000000E+00  0.00000000000E+00  0.29848619467E+03  0.29848619467E+03  0.00000000000E+00 0. -1.
         21   -1    0    0  501  503 -0.00000000000E+00 -0.00000000000E+00 -0.26428021000E+03  0.26428021000E+03  0.00000000000E+00 0.  1.
          6    1    1    2  501    0  0.20665400638E+03  0.11157847439E+02 -0.63479937027E+02  0.27648522260E+03  0.17200000000E+03 0.  1.
         -6    1    1    2    0  502 -0.20665400638E+03 -0.11157847439E+02  0.97685921693E+02  0.28628118207E+03  0.17200000000E+03 0.  1.
</event>
<event>
 4    1  0.1232978E+000  0.1767374E+03  0.7818608E-02  0.1170998E+00
         21   -1    0    0  501  502  0.00000000000E+00  0.00000000000E+00  0.53349474101E+02  0.53349474101E+02  0.00000000000E+00 0.  1.
         21   -1    0    0  502  503 -0.00000000000E+00 -0.00000000000E+00 -0.58613422714E+03  0.58613422714E+03  0.00000000000E+00 0.  1.
          6    1    1    2  501    0 -0.29643772038E+02 -0.27809511384E+02 -0.25587540028E+03  0.31097964983E+03  0.17200000000E+03 0.  1.
         -6    1    1    2    0  503  0.29643772038E+02  0.27809511384E+02 -0.27690935276E+03  0.32850405141E+03  0.17200000000E+03 0.  1.
</event>
<event>
 4    1  0.1232978E+000  0.2353653E+03  0.7818608E-02  0.1122919E+00
         21   -1    0    0  503  502  0.00000000000E+00  0.00000000000E+00  0.16457566569E+03  0.16457566569E+03  0.00000000000E+00 0.  1.
         21   -1    0    0  501  503 -0.00000000000E+00 -0.00000000000E+00 -0.78950343864E+03  0.78950343864E+03  0.00000000000E+00 0.  1.
          6    1    1    2  501    0  0.77075788608E+02 -0.14096860698E+03 -0.67377246474E+03  0.71369892782E+03  0.17200000000E+03 0.  1.
         -6    1    1    2    0  502 -0.77075788608E+02  0.14096860698E+03  0.48844691791E+02  0.24038017651E+03  0.17200000000E+03 0.  1.
</event>
<event>
 4    1  0.1232978E+000  0.1777296E+03  0.7818608E-02  0.1170019E+00
         21   -1    0    0  503  502  0.00000000000E+00  0.00000000000E+00  0.96628656104E+02  0.96628656104E+02  0.00000000000E+00 0. -1.
         21   -1    0    0  501  503 -0.00000000000E+00 -0.00000000000E+00 -0.64687808909E+03  0.64687808909E+03  0.00000000000E+00 0.  1.
          6    1    1    2  501    0  0.32249492427E+02  0.31044928012E+02 -0.53658423166E+03  0.56525255858E+03  0.17200000000E+03 0.  1.
         -6    1    1    2    0  502 -0.32249492427E+02 -0.31044928012E+02 -0.13665201325E+02  0.17825418661E+03  0.17200000000E+03 0. -1.
</event>
<event>
 4    1  0.1232978E+000  0.2185572E+03  0.7818608E-02  0.1134963E+00
         21   -1    0    0  503  502  0.00000000000E+00  0.00000000000E+00  0.93463746171E+02  0.93463746171E+02  0.00000000000E+00 0.  1.
         21   -1    0    0  501  503 -0.00000000000E+00 -0.00000000000E+00 -0.70326960708E+03  0.70326960708E+03  0.00000000000E+00 0. -1.
          6    1    1    2  501    0 -0.96641287155E+02  0.94040917231E+02 -0.51315516669E+03  0.55775931870E+03  0.17200000000E+03 0. -1.
         -6    1    1    2    0  502  0.96641287155E+02 -0.94040917231E+02 -0.96650694220E+02  0.23897403455E+03  0.17200000000E+03 0.  1.
</event>
<event>
 4    1  0.1232978E+000  0.1723570E+03  0.7818608E-02  0.1175412E+00
         21   -1    0    0  501  502  0.00000000000E+00  0.00000000000E+00  0.13319097908E+04  0.13319097908E+04  0.00000000000E+00 0.  1.
         21   -1    0    0  502  503 -0.00000000000E+00 -0.00000000000E+00 -0.22356008436E+02  0.22356008436E+02  0.00000000000E+00 0.  1.
          6    1    1    2  501    0  0.10932811481E+02  0.18485222993E+01  0.62212354552E+03  0.64555762662E+03  0.17200000000E+03 0. -1.
         -6    1    1    2    0  503 -0.10932811481E+02 -0.18485222993E+01  0.68743023687E+03  0.70870817264E+03  0.17200000000E+03 0. -1.
</event>
<event>
 4    1  0.1232978E+000  0.1747962E+03  0.7818608E-02  0.1172936E+00
         21   -1    0    0  501  502  0.00000000000E+00  0.00000000000E+00  0.24185612792E+03  0.24185612792E+03  0.00000000000E+00 0.  1.
         21   -1    0    0  502  503 -0.00000000000E+00 -0.00000000000E+00 -0.13483736463E+03  0.13483736463E+03  0.00000000000E+00 0. -1.
          6    1    1    2  501    0  0.28081830028E+02  0.13458583040E+02  0.10081868010E+03  0.20178733581E+03  0.17200000000E+03 0.  1.
         -6    1    1    2    0  503 -0.28081830028E+02 -0.13458583040E+02  0.62000831867E+01  0.17490615674E+03  0.17200000000E+03 0.  1.
</event>
<event>
 4    1  0.1232978E+000  0.2883255E+03  0.7818608E-02  0.1091227E+00
         21   -1    0    0  503  502  0.00000000000E+00  0.00000000000E+00  0.36684702624E+03  0.36684702624E+03  0.00000000000E+00 0.  1.
         21   -1    0    0  501  503 -0.00000000000E+00 -0.00000000000E+00 -0.23087045812E+03  0.23087045812E+03  0.00000000000E+00 0.  1.
          6    1    1    2  501    0 -0.12476077228E+03 -0.19489052117E+03  0.27394477173E+02  0.28962393361E+03  0.17200000000E+03 0.  1.
         -6    1    1    2    0  502  0.12476077228E+03  0.19489052117E+03  0.10858209094E+03  0.30809355075E+03  0.17200000000E+03 0.  1.
</event>
<event>
 4    1  0.1232978E+000  0.2127632E+03  0.7818608E-02  0.1139396E+00
         21   -1    0    0  503  502  0.00000000000E+00  0.00000000000E+00  0.17534885464E+04  0.17534885464E+04  0.00000000000E+00 0.  1.
         21   -1    0    0  501  503 -0.00000000000E+00 -0.00000000000E+00 -0.30461843931E+02  0.30461843931E+02  0.00000000000E+00 0.  1.
          6    1    1    2  501    0  0.11847465364E+03  0.40594883667E+02  0.51317316160E+03  0.55553117097E+03  0.17200000000E+03 0. -1.
         -6    1    1    2    0  502 -0.11847465364E+03 -0.40594883667E+02  0.12098535409E+04  0.12284192194E+04  0.17200000000E+03 0. -1.
</event>
<event>
 4    1  0.1232978E+000  0.2022903E+03  0.7818608E-02  0.1147821E+00
         21   -1    0    0  501  502  0.00000000000E+00  0.00000000000E+00  0.30140853634E+03  0.30140853634E+03  0.00000000000E+00 0.  1.
         21   -1    0    0  502  503 -0.00000000000E+00 -0.00000000000E+00 -0.13578055683E+03  0.13578055683E+03  0.00000000000E+00 0.  1.
          6    1    1    2  501    0  0.43581590103E+02  0.97149340862E+02  0.80634214313E+02  0.21776874418E+03  0.17200000000E+03 0.  1.
         -6    1    1    2    0  503 -0.43581590103E+02 -0.97149340862E+02  0.84993765201E+02  0.21942034899E+03  0.17200000000E+03 0.  1.
</event>
<event>
 4    1  0.1232978E+000  0.1770020E+03  0.7818608E-02  0.1170736E+00
         21   -1    0    0  501  502  0.00000000000E+00  0.00000000000E+00  0.45358427101E+02  0.45358427101E+02  0.00000000000E+00 0.  1.
         21   -1    0    0  502  503 -0.00000000000E+00 -0.00000000000E+00 -0.74701784181E+03  0.74701784181E+03  0.00000000000E+00 0. -1.
          6    1    1    2  501    0 -0.30078809192E+02 -0.28999306404E+02 -0.24206061385E+03  0.29987169808E+03  0.17200000000E+03 0.  1.
         -6    1    1    2    0  503  0.30078809192E+02  0.28999306404E+02 -0.45959880086E+03  0.49250457083E+03  0.17200000000E+03 0. -1.
</event>
<event>
 4    1  0.1232978E+000  0.2349301E+03  0.7818608E-02  0.1123217E+00
         21   -1    0    0  501  502  0.00000000000E+00  0.00000000000E+00  0.62258833204E+03  0.62258833204E+03  0.00000000000E+00 0. -1.
         21   -1    0    0  502  503 -0.00000000000E+00 -0.00000000000E+00 -0.13513405419E+03  0.13513405419E+03  0.00000000000E+00 0. -1.
          6    1    1    2  501    0 -0.13854450350E+03 -0.80084859186E+02  0.46593115609E+03  0.52180840002E+03  0.17200000000E+03 0. -1.
         -6    1    1    2    0  503  0.13854450350E+03  0.80084859186E+02  0.21523121762E+02  0.23591398621E+03  0.17200000000E+03 0. -1.
</event>
<event>
 4    1  0.1232978E+000  0.1749875E+03  0.7818608E-02  0.1172744E+00
         21   -1    0    0  501  502  0.00000000000E+00  0.00000000000E+00  0.82111901084E+02  0.82111901084E+02  0.00000000000E+00 0. -1.
         21   -1    0    0  502  503 -0.00000000000E+00 -0.00000000000E+00 -0.38308383444E+03  0.38308383444E+03  0.00000000000E+00 0. -1.
          6    1    1    2  501    0  0.29195993053E+02  0.13573310564E+02 -0.18838475314E+03  0.25711759174E+03  0.17200000000E+03 0. -1.
         -6    1    1    2    0  503 -0.29195993053E+02 -0.13573310564E+02 -0.11258718022E+03  0.20807814378E+03  0.17200000000E+03 0. -1.
</event>
<event>
 4    1  0.1232978E+000  0.2211753E+03  0.7818608E-02  0.1133010E+00
         21   -1    0    0  501  502  0.00000000000E+00  0.00000000000E+00  0.89116569746E+03  0.89116569746E+03  0.00000000000E+00 0. -1.
         21   -1    0    0  502  503 -0.00000000000E+00 -0.00000000000E+00 -0.11787654401E+03  0.11787654401E+03  0.00000000000E+00 0. -1.
          6    1    1    2  501    0 -0.12838979111E+03  0.53390639497E+02  0.75543548568E+03  0.78714755407E+03  0.17200000000E+03 0. -1.
         -6    1    1    2    0  503  0.12838979111E+03 -0.53390639497E+02  0.17853667768E+02  0.22189468741E+03  0.17200000000E+03 0. -1.
</event>
<event>
 4    1  0.1232978E+000  0.1753787E+03  0.7818608E-02  0.1172352E+00
         21   -1    0    0  503  502  0.00000000000E+00  0.00000000000E+00  0.14182845813E+03  0.14182845813E+03  0.00000000000E+00 0. -1.
         21   -1    0    0  501  503 -0.00000000000E+00 -0.00000000000E+00 -0.28452641336E+03  0.28452641336E+03  0.00000000000E+00 0. -1.
          6    1    1    2  501    0  0.21665032869E+02  0.26539113464E+02 -0.17530481870E+03  0.24797071934E+03  0.17200000000E+03 0. -1.
         -6    1    1    2    0  502 -0.21665032869E+02 -0.26539113464E+02  0.32606863459E+02  0.17838415215E+03  0.17200000000E+03 0. -1.
</event>
<event>
 4    1  0.1232978E+000  0.1862648E+03  0.7818608E-02  0.1161874E+00
         21   -1    0    0  501  502  0.00000000000E+00  0.00000000000E+00  0.72199375467E+02  0.72199375467E+02  0.00000000000E+00 0.  1.
         21   -1    0    0  502  503 -0.00000000000E+00 -0.00000000000E+00 -0.56229848010E+03  0.56229848010E+03  0.00000000000E+00 0. -1.
          6    1    1    2  501    0  0.71158333567E+02 -0.68618785459E+01 -0.12407707527E+03  0.22380731538E+03  0.17200000000E+03 0. -1.
         -6    1    1    2    0  503 -0.71158333567E+02  0.68618785459E+01 -0.36602202937E+03  0.41069054019E+03  0.17200000000E+03 0. -1.
</event>
<event>
 4    1  0.1232978E+000  0.3365936E+03  0.7818608E-02  0.1068256E+00
         21   -1    0    0  503  502  0.00000000000E+00  0.00000000000E+00  0.18055617182E+03  0.18055617182E+03  0.00000000000E+00 0. -1.
         21   -1    0    0  501  503 -0.00000000000E+00 -0.00000000000E+00 -0.65259867756E+03  0.65259867756E+03  0.00000000000E+00 0.  1.
          6    1    1    2  501    0  0.26786553722E+03 -0.10935861168E+03 -0.31775049496E+03  0.46288295392E+03  0.17200000000E+03 0.  1.
         -6    1    1    2    0  502 -0.26786553722E+03  0.10935861168E+03 -0.15429201078E+03  0.37027189547E+03  0.17200000000E+03 0. -1.
</event>
<event>
 4    1  0.1232978E+000  0.2911782E+03  0.7818608E-02  0.1089736E+00
         21   -1    0    0  503  502  0.00000000000E+00  0.00000000000E+00  0.39455580710E+03  0.39455580710E+03  0.00000000000E+00 0.  1.
         21   -1    0    0  501  503 -0.00000000000E+00 -0.00000000000E+00 -0.22436489396E+03  0.22436489396E+03  0.00000000000E+00 0.  1.
          6    1    1    2  501    0 -0.12219956028E+03 -0.20066884479E+03  0.21489928901E+02  0.29197009239E+03  0.17200000000E+03 0.  1.
         -6    1    1    2    0  502  0.12219956028E+03  0.20066884479E+03  0.14870098424E+03  0.32695060868E+03  0.17200000000E+03 0.  1.
</event>
<event>
 4    1  0.1232978E+000  0.3204904E+03  0.7818608E-02  0.1075424E+00
         21   -1    0    0  501  502  0.00000000000E+00  0.00000000000E+00  0.65682907784E+02  0.65682907784E+02  0.00000000000E+00 0.  1.
         21   -1    0    0  502  503 -0.00000000000E+00 -0.00000000000E+00 -0.20783722566E+04  0.20783722566E+04  0.00000000000E+00 0. -1.
          6    1    1    2  501    0 -0.21612084792E+03 -0.16254800005E+03 -0.47292013976E+03  0.57128585823E+03  0.17200000000E+03 0.  1.
         -6    1    1    2    0  503  0.21612084792E+03  0.16254800005E+03 -0.15397692091E+04  0.15727693062E+04  0.17200000000E+03 0. -1.
</event>
<event>
 4    1  0.1232978E+000  0.1852518E+03  0.7818608E-02  0.1162815E+00
         21   -1    0    0  503  502  0.00000000000E+00  0.00000000000E+00  0.48857739632E+03  0.48857739632E+03  0.00000000000E+00 0. -1.
         21   -1    0    0  501  503 -0.00000000000E+00 -0.00000000000E+00 -0.10745877453E+03  0.10745877453E+03  0.00000000000E+00 0. -1.
          6    1    1    2  501    0 -0.61975964530E+02  0.29886875421E+02  0.15172909917E+02  0.18587216762E+03  0.17200000000E+03 0. -1.
         -6    1    1    2    0  502  0.61975964530E+02 -0.29886875421E+02  0.36594571188E+03  0.41016400323E+03  0.17200000000E+03 0. -1.
</event>
<event>
 4    1  0.1232978E+000  0.2190353E+03  0.7818608E-02  0.1134604E+00
         21   -1    0    0  501  502  0.00000000000E+00  0.00000000000E+00  0.47406504441E+03  0.47406504441E+03  0.00000000000E+00 0. -1.
         21   -1    0    0  502  503 -0.00000000000E+00 -0.00000000000E+00 -0.36568489149E+03  0.36568489149E+03  0.00000000000E+00 0.  1.
          6    1    1    2  501    0  0.11170359337E+03 -0.76907470887E+02  0.41126969083E+03  0.46596052456E+03  0.17200000000E+03 0. -1.
         -6    1    1    2    0  503 -0.11170359337E+03  0.76907470887E+02 -0.30288953792E+03  0.37378941134E+03  0.17200000000E+03 0.  1.
</event>
<event>
 4    1  0.1232978E+000  0.1849009E+03  0.7818608E-02  0.1163142E+00
         21   -1    0    0  503  502  0.00000000000E+00  0.00000000000E+00  0.15177287333E+02  0.15177287333E+02  0.00000000000E+00 0. -1.
         21   -1    0    0  501  503 -0.00000000000E+00 -0.00000000000E+00 -0.22634496097E+04  0.22634496097E+04  0.00000000000E+00 0. -1.
          6    1    1    2  501    0 -0.32561462859E+01 -0.67777230615E+02 -0.10452560593E+04  0.10614841426E+04  0.17200000000E+03 0. -1.
         -6    1    1    2    0  502  0.32561462859E+01  0.67777230615E+02 -0.12030162631E+04  0.12171427544E+04  0.17200000000E+03 0. -1.
</event>
<event>
 4    1  0.1232978E+000  0.1802969E+03  0.7818608E-02  0.1167516E+00
         21   -1    0    0  503  502  0.00000000000E+00  0.00000000000E+00  0.18258200917E+02  0.18258200917E+02  0.00000000000E+00 0.  1.
         21   -1    0    0  501  503 -0.00000000000E+00 -0.00000000000E+00 -0.18476406171E+04  0.18476406171E+04  0.00000000000E+00 0.  1.
          6    1    1    2  501    0 -0.10544550536E+02 -0.53026148290E+02 -0.73671795187E+03  0.75845916209E+03  0.17200000000E+03 0.  1.
         -6    1    1    2    0  502  0.10544550536E+02  0.53026148290E+02 -0.10926644643E+04  0.11074396559E+04  0.17200000000E+03 0.  1.
</event>
<event>
 4    1  0.1232978E+000  0.1912125E+03  0.7818608E-02  0.1157372E+00
         21   -1    0    0  503  502  0.00000000000E+00  0.00000000000E+00  0.39220032005E+03  0.39220032005E+03  0.00000000000E+00 0.  1.
         21   -1    0    0  501  503 -0.00000000000E+00 -0.00000000000E+00 -0.26786698553E+03  0.26786698553E+03  0.00000000000E+00 0.  1.
          6    1    1    2  501    0  0.49381175302E+02  0.67377537239E+02 -0.20431969961E+03  0.27983704660E+03  0.17200000000E+03 0.  1.
         -6    1    1    2    0  502 -0.49381175302E+02 -0.67377537239E+02  0.32865303413E+03  0.38023025898E+03  0.17200000000E+03 0.  1.
</event>
<event>
 4    1  0.1232978E+000  0.2372327E+03  0.7818608E-02  0.1121650E+00
         21   -1    0    0  501  502  0.00000000000E+00  0.00000000000E+00  0.38146746560E+03  0.38146746560E+03  0.00000000000E+00 0.  1.
         21   -1    0    0  502  503 -0.00000000000E+00 -0.00000000000E+00 -0.20162463487E+03  0.20162463487E+03  0.00000000000E+00 0. -1.
          6    1    1    2  501    0  0.58676783491E+02 -0.15248729730E+03  0.24092847450E+03  0.33812108864E+03  0.17200000000E+03 0.  1.
         -6    1    1    2    0  503 -0.58676783491E+02  0.15248729730E+03 -0.61085643767E+02  0.24497101182E+03  0.17200000000E+03 0. -1.
</event>
<event>
 4    1  0.1232978E+000  0.1755479E+03  0.7818608E-02  0.1172183E+00
         21   -1    0    0  501  502  0.00000000000E+00  0.00000000000E+00  0.76850727903E+03  0.76850727903E+03  0.00000000000E+00 0. -1.
         21   -1    0    0  502  503 -0.00000000000E+00 -0.00000000000E+00 -0.46434998813E+02  0.46434998813E+02  0.00000000000E+00 0. -1.
          6    1    1    2  501    0 -0.21343375676E+02 -0.27883871234E+02  0.51154133934E+03  0.54082491789E+03  0.17200000000E+03 0. -1.
         -6    1    1    2    0  503  0.21343375676E+02  0.27883871234E+02  0.21053094088E+03  0.27411735995E+03  0.17200000000E+03 0. -1.
</event>
<event>
 4    1  0.1232978E+000  0.2501072E+03  0.7818608E-02  0.1113237E+00
         21   -1    0    0  503  502  0.00000000000E+00  0.00000000000E+00  0.27890766106E+03  0.27890766106E+03  0.00000000000E+00 0.  1.
         21   -1    0    0  501  503 -0.00000000000E+00 -0.00000000000E+00 -0.24899832406E+03  0.24899832406E+03  0.00000000000E+00 0.  1.
          6    1    1    2  501    0 -0.36285699070E+02  0.17791283131E+03 -0.68208503389E+02  0.25924125334E+03  0.17200000000E+03 0.  1.
         -6    1    1    2    0  502  0.36285699070E+02 -0.17791283131E+03  0.98117840390E+02  0.26866473178E+03  0.17200000000E+03 0.  1.
</event>
<event>
 4    1  0.1232978E+000  0.2258704E+03  0.7818608E-02  0.1129581E+00
         21   -1    0    0  501  502  0.00000000000E+00  0.00000000000E+00  0.32202404612E+04  0.32202404612E+04  0.00000000000E+00 0.  1.
         21   -1    0    0  502  503 -0.00000000000E+00 -0.00000000000E+00 -0.28920727597E+02  0.28920727597E+02  0.00000000000E+00 0. -1.
          6    1    1    2  501    0 -0.12758801234E+03 -0.71796363539E+02  0.26881239932E+04  0.26975967122E+04  0.17200000000E+03 0.  1.
         -6    1    1    2    0  503  0.12758801234E+03  0.71796363539E+02  0.50319574037E+03  0.55156447659E+03  0.17200000000E+03 0. -1.
</event>
<event>
 4    1  0.1232978E+000  0.1738015E+03  0.7818608E-02  0.1173940E+00
         21   -1    0    0  503  502  0.00000000000E+00  0.00000000000E+00  0.16885677647E+03  0.16885677647E+03  0.00000000000E+00 0.  1.
         21   -1    0    0  501  503 -0.00000000000E+00 -0.00000000000E+00 -0.18474292120E+03  0.18474292120E+03  0.00000000000E+00 0.  1.
          6    1    1    2  501    0 -0.58894240671E+01 -0.24254309373E+02 -0.39409496190E+02  0.17821353829E+03  0.17200000000E+03 0.  1.
         -6    1    1    2    0  502  0.58894240671E+01  0.24254309373E+02  0.23523351464E+02  0.17538615938E+03  0.17200000000E+03 0.  1.
</event>
<event>
 4    1  0.1232978E+000  0.1943359E+03  0.7818608E-02  0.1154608E+00
         21   -1    0    0  503  502  0.00000000000E+00  0.00000000000E+00  0.67203465818E+02  0.67203465818E+02  0.00000000000E+00 0.  1.
         21   -1    0    0  501  503 -0.00000000000E+00 -0.00000000000E+00 -0.56772386582E+03  0.56772386582E+03  0.00000000000E+00 0.  1.
          6    1    1    2  501    0  0.89706645886E+02 -0.11626243289E+02 -0.21830527332E+03  0.29227323553E+03  0.17200000000E+03 0.  1.
         -6    1    1    2    0  502 -0.89706645886E+02  0.11626243289E+02 -0.28221512668E+03  0.34265409610E+03  0.17200000000E+03 0.  1.
</event>
<event>
 4    1  0.1232978E+000  0.2564175E+03  0.7818608E-02  0.1109315E+00
         21   -1    0    0  503  502  0.00000000000E+00  0.00000000000E+00  0.11457505080E+03  0.11457505080E+03  0.00000000000E+00 0. -1.
         21   -1    0    0  501  503 -0.00000000000E+00 -0.00000000000E+00 -0.57768287356E+03  0.57768287356E+03  0.00000000000E+00 0. -1.
          6    1    1    2  501    0  0.10559419551E+03  0.15816381046E+03 -0.20339314525E+03  0.32728992744E+03  0.17200000000E+03 0. -1.
         -6    1    1    2    0  502 -0.10559419551E+03 -0.15816381046E+03 -0.25971467751E+03  0.36496799692E+03  0.17200000000E+03 0. -1.
</event>
<event>
 4    1  0.1232978E+000  0.2705873E+03  0.7818608E-02  0.1100944E+00
         21   -1    0    0  503  502  0.00000000000E+00  0.00000000000E+00  0.36213913633E+03  0.36213913633E+03  0.00000000000E+00 0. -1.
         21   -1    0    0  501  503 -0.00000000000E+00 -0.00000000000E+00 -0.25143672197E+03  0.25143672197E+03  0.00000000000E+00 0. -1.
          6    1    1    2  501    0 -0.13430546528E+03 -0.15998603293E+03 -0.80434561694E+02  0.28228922659E+03  0.17200000000E+03 0. -1.
         -6    1    1    2    0  502  0.13430546528E+03  0.15998603293E+03  0.19113697606E+03  0.33128663171E+03  0.17200000000E+03 0. -1.
</event>
<event>
 4    1  0.1232978E+000  0.2597195E+03  0.7818608E-02  0.1107312E+00
         21   -1    0    0  501  502  0.00000000000E+00  0.00000000000E+00  0.43174404802E+03  0.43174404802E+03  0.00000000000E+00 0. -1.
         21   -1    0    0  502  503 -0.00000000000E+00 -0.00000000000E+00 -0.17039240883E+03  0.17039240883E+03  0.00000000000E+00 0.  1.
          6    1    1    2  501    0  0.12123191289E+03 -0.15222687944E+03  0.21745348329E+03  0.33873325334E+03  0.17200000000E+03 0.  1.
         -6    1    1    2    0  503 -0.12123191289E+03  0.15222687944E+03  0.43898155898E+02  0.26340320351E+03  0.17200000000E+03 0.  1.
</event>
<event>
 4    1  0.1232978E+000  0.1801683E+03  0.7818608E-02  0.1167640E+00
         21   -1    0    0  501  502  0.00000000000E+00  0.00000000000E+00  0.16424652518E+04  0.16424652518E+04  0.00000000000E+00 0. -1.
         21   -1    0    0  502  503 -0.00000000000E+00 -0.00000000000E+00 -0.27650973584E+02  0.27650973584E+02  0.00000000000E+00 0. -1.
          6    1    1    2  501    0  0.53402840256E+02 -0.49742256533E+01  0.36140726987E+03  0.40382647385E+03  0.17200000000E+03 0. -1.
         -6    1    1    2    0  503 -0.53402840256E+02  0.49742256533E+01  0.12534070084E+04  0.12662897516E+04  0.17200000000E+03 0. -1.
</event>
<event>
 4    1  0.1232978E+000  0.1836891E+03  0.7818608E-02  0.1164280E+00
         21   -1    0    0  503  502  0.00000000000E+00  0.00000000000E+00  0.99148597835E+02  0.99148597835E+02  0.00000000000E+00 0. -1.
         21   -1    0    0  501  503 -0.00000000000E+00 -0.00000000000E+00 -0.37334280876E+03  0.37334280876E+03  0.00000000000E+00 0. -1.
          6    1    1    2  501    0 -0.32078851837E+02  0.55934329881E+02 -0.20736443093E+03  0.27702293986E+03  0.17200000000E+03 0. -1.
         -6    1    1    2    0  502  0.32078851837E+02 -0.55934329881E+02 -0.66829780000E+02  0.19546846674E+03  0.17200000000E+03 0. -1.
</event>
<event>
 4    1  0.1232978E+000  0.2577630E+03  0.7818608E-02  0.1108495E+00
         21   -1    0    0  503  502  0.00000000000E+00  0.00000000000E+00  0.14160843963E+03  0.14160843963E+03  0.00000000000E+00 0. -1.
         21   -1    0    0  501  503 -0.00000000000E+00 -0.00000000000E+00 -0.54850665802E+03  0.54850665802E+03  0.00000000000E+00 0.  1.
          6    1    1    2  501    0  0.16120463969E+03  0.10426334090E+03 -0.33466088170E+03  0.42242121852E+03  0.17200000000E+03 0. -1.
         -6    1    1    2    0  502 -0.16120463969E+03 -0.10426334090E+03 -0.72237336701E+02  0.26769387914E+03  0.17200000000E+03 0. -1.
</event>
<event>
 4    1  0.1232978E+000  0.1950956E+03  0.7818608E-02  0.1153944E+00
         21   -1    0    0  503  502  0.00000000000E+00  0.00000000000E+00  0.10079686237E+04  0.10079686237E+04  0.00000000000E+00 0. -1.
         21   -1    0    0  501  503 -0.00000000000E+00 -0.00000000000E+00 -0.41661251837E+02  0.41661251837E+02  0.00000000000E+00 0. -1.
          6    1    1    2  501    0  0.91216631612E+02  0.12563117175E+02  0.32258379343E+03  0.37699152454E+03  0.17200000000E+03 0. -1.
         -6    1    1    2    0  502 -0.91216631612E+02 -0.12563117175E+02  0.64372357847E+03  0.67263835103E+03  0.17200000000E+03 0. -1.
</event>
<event>
 4    1  0.1232978E+000  0.1806393E+03  0.7818608E-02  0.1167186E+00
         21   -1    0    0  503  502  0.00000000000E+00  0.00000000000E+00  0.17684997865E+03  0.17684997865E+03  0.00000000000E+00 0. -1.
         21   -1    0    0  501  503 -0.00000000000E+00 -0.00000000000E+00 -0.18811706364E+03  0.18811706364E+03  0.00000000000E+00 0.  1.
          6    1    1    2  501    0  0.42565767723E+02  0.35138715178E+02 -0.30902760090E+02  0.18326362014E+03  0.17200000000E+03 0.  1.
         -6    1    1    2    0  502 -0.42565767723E+02 -0.35138715178E+02  0.19635675102E+02  0.18170342216E+03  0.17200000000E+03 0.  1.
</event>
<event>
 4    1  0.1232978E+000  0.2015863E+03  0.7818608E-02  0.1148408E+00
         21   -1    0    0  501  502  0.00000000000E+00  0.00000000000E+00  0.41963257890E+03  0.41963257890E+03  0.00000000000E+00 0. -1.
         21   -1    0    0  502  503 -0.00000000000E+00 -0.00000000000E+00 -0.99776259648E+02  0.99776259648E+02  0.00000000000E+00 0. -1.
          6    1    1    2  501    0 -0.74959819860E+02 -0.73716012953E+02  0.20448322722E+03  0.28714180360E+03  0.17200000000E+03 0. -1.
         -6    1    1    2    0  503  0.74959819860E+02  0.73716012953E+02  0.11537309203E+03  0.23226703495E+03  0.17200000000E+03 0. -1.
</event>
<event>
 4    1  0.1232978E+000  0.1925799E+03  0.7818608E-02  0.1156155E+00
         21   -1    0    0  503  502  0.00000000000E+00  0.00000000000E+00  0.22325546910E+03  0.22325546910E+03  0.00000000000E+00 0. -1.
         21   -1    0    0  501  503 -0.00000000000E+00 -0.00000000000E+00 -0.44599889743E+03  0.44599889743E+03  0.00000000000E+00 0. -1.
          6    1    1    2  501    0 -0.47988191226E+02 -0.72112164978E+02 -0.37645355946E+03  0.42285259047E+03  0.17200000000E+03 0. -1.
         -6    1    1    2    0  502  0.47988191226E+02  0.72112164978E+02  0.15371013113E+03  0.24640177607E+03  0.17200000000E+03 0. -1.
</event>
<event>
 4    1  0.1232978E+000  0.1840174E+03  0.7818608E-02  0.1163971E+00
         21   -1    0    0  503  502  0.00000000000E+00  0.00000000000E+00  0.15625442861E+02  0.15625442861E+02  0.00000000000E+00 0. -1.
         21   -1    0    0  501  503 -0.00000000000E+00 -0.00000000000E+00 -0.26341842967E+04  0.26341842967E+04  0.00000000000E+00 0. -1.
          6    1    1    2  501    0  0.58116217869E+02  0.30015267768E+02 -0.18671634991E+04  0.18762094615E+04  0.17200000000E+03 0. -1.
         -6    1    1    2    0  502 -0.58116217869E+02 -0.30015267768E+02 -0.75139535470E+03  0.77360027802E+03  0.17200000000E+03 0. -1.
</event>
<event>
 4    1  0.1232978E+000  0.1777202E+03  0.7818608E-02  0.1170028E+00
         21   -1    0    0  503  502  0.00000000000E+00  0.00000000000E+00  0.28098621179E+03  0.28098621179E+03  0.00000000000E+00 0.  1.
         21   -1    0    0  501  503 -0.00000000000E+00 -0.00000000000E+00 -0.37369407719E+03  0.37369407719E+03  0.00000000000E+00 0.  1.
          6    1    1    2  501    0 -0.36660650314E+02  0.25621279299E+02 -0.32007057516E+03  0.36610056858E+03  0.17200000000E+03 0.  1.
         -6    1    1    2    0  502  0.36660650314E+02 -0.25621279299E+02  0.22736270976E+03  0.28857972040E+03  0.17200000000E+03 0.  1.
</event>
<event>
 4    1  0.1232978E+000  0.1847559E+03  0.7818608E-02  0.1163278E+00
         21   -1    0    0  503  502  0.00000000000E+00  0.00000000000E+00  0.26865534597E+03  0.26865534597E+03  0.00000000000E+00 0.  1.
         21   -1    0    0  501  503 -0.00000000000E+00 -0.00000000000E+00 -0.14448412440E+03  0.14448412440E+03  0.00000000000E+00 0.  1.
          6    1    1    2  501    0  0.36132584830E+02  0.56966514101E+02 -0.96541591294E+01  0.18500797335E+03  0.17200000000E+03 0. -1.
         -6    1    1    2    0  502 -0.36132584830E+02 -0.56966514101E+02  0.13382538070E+03  0.22813149702E+03  0.17200000000E+03 0. -1.
</event>
<event>
 4    1  0.1232978E+000  0.1858275E+03  0.7818608E-02  0.1162279E+00
         21   -1    0    0  501  502  0.00000000000E+00  0.00000000000E+00  0.54063670608E+02  0.54063670608E+02  0.00000000000E+00 0.  1.
         21   -1    0    0  502  503 -0.00000000000E+00 -0.00000000000E+00 -0.65122950431E+03  0.65122950431E+03  0.00000000000E+00 0.  1.
          6    1    1    2  501    0  0.37083636267E+02  0.59771638973E+02 -0.34744784368E+03  0.39402011240E+03  0.17200000000E+03 0. -1.
         -6    1    1    2    0  503 -0.37083636267E+02 -0.59771638973E+02 -0.24971799003E+03  0.31127306252E+03  0.17200000000E+03 0. -1.
</event>
<event>
 4    1  0.1232978E+000  0.2303970E+03  0.7818608E-02  0.1126361E+00
         21   -1    0    0  503  502  0.00000000000E+00  0.00000000000E+00  0.59226224166E+03  0.59226224166E+03  0.00000000000E+00 0. -1.
         21   -1    0    0  501  503 -0.00000000000E+00 -0.00000000000E+00 -0.89630028365E+02  0.89630028365E+02  0.00000000000E+00 0. -1.
          6    1    1    2  501    0 -0.14816914433E+03  0.39302594609E+02  0.24939109351E+03  0.33952718123E+03  0.17200000000E+03 0.  1.
         -6    1    1    2    0  502  0.14816914433E+03 -0.39302594609E+02  0.25324111979E+03  0.34236508880E+03  0.17200000000E+03 0.  1.
</event>
<event>
 4    1  0.1232978E+000  0.2020249E+03  0.7818608E-02  0.1148042E+00
         21   -1    0    0  501  502  0.00000000000E+00  0.00000000000E+00  0.21551623011E+02  0.21551623011E+02  0.00000000000E+00 0.  1.
         21   -1    0    0  502  503 -0.00000000000E+00 -0.00000000000E+00 -0.19027228082E+04  0.19027228082E+04  0.00000000000E+00 0.  1.
          6    1    1    2  501    0 -0.13807914073E+01  0.10596302779E+03 -0.10065400684E+04  0.10266143284E+04  0.17200000000E+03 0.  1.
         -6    1    1    2    0  503  0.13807914073E+01 -0.10596302779E+03 -0.87463111671E+03  0.89766010281E+03  0.17200000000E+03 0.  1.
</event>
<event>
 4    1  0.1232978E+000  0.2372958E+03  0.7818608E-02  0.1121607E+00
         21   -1    0    0  503  502  0.00000000000E+00  0.00000000000E+00  0.91852788260E+02  0.91852788260E+02  0.00000000000E+00 0. -1.
         21   -1    0    0  501  503 -0.00000000000E+00 -0.00000000000E+00 -0.63948636829E+03  0.63948636829E+03  0.00000000000E+00 0. -1.
          6    1    1    2  501    0  0.13853396914E+03 -0.86796572331E+02 -0.34818162605E+03  0.42135466093E+03  0.17200000000E+03 0. -1.
         -6    1    1    2    0  502 -0.13853396914E+03  0.86796572331E+02 -0.19945195398E+03  0.30998449561E+03  0.17200000000E+03 0. -1.
</event>
<event>
 4    1  0.1232978E+000  0.1851369E+03  0.7818608E-02  0.1162922E+00
         21   -1    0    0  503  502  0.00000000000E+00  0.00000000000E+00  0.26397692281E+03  0.26397692281E+03  0.00000000000E+00 0. -1.
         21   -1    0    0  501  503 -0.00000000000E+00 -0.00000000000E+00 -0.14668436898E+03  0.14668436898E+03  0.00000000000E+00 0. -1.
          6    1    1    2  501    0  0.12188128220E+02  0.67402616953E+02 -0.10927453826E+02  0.18545908575E+03  0.17200000000E+03 0. -1.
         -6    1    1    2    0  502 -0.12188128220E+02 -0.67402616953E+02  0.12822000766E+03  0.22520220604E+03  0.17200000000E+03 0. -1.
</event>
<event>
 4    1  0.1232978E+000  0.1878301E+03  0.7818608E-02  0.1160433E+00
         21   -1    0    0  501  502  0.00000000000E+00  0.00000000000E+00  0.87938267514E+03  0.87938267514E+03  0.00000000000E+00 0.  1.
         21   -1    0    0  502  503 -0.00000000000E+00 -0.00000000000E+00 -0.44009418778E+02  0.44009418778E+02  0.00000000000E+00 0.  1.
          6    1    1    2  501    0  0.14311098600E+02 -0.74103537253E+02  0.55495471107E+03  0.58587957219E+03  0.17200000000E+03 0.  1.
         -6    1    1    2    0  503 -0.14311098600E+02  0.74103537253E+02  0.28041854530E+03  0.33751252173E+03  0.17200000000E+03 0.  1.
</event>
<event>
 4    1  0.1232978E+000  0.1996951E+03  0.7818608E-02  0.1149997E+00
         21   -1    0    0  501  502  0.00000000000E+00  0.00000000000E+00  0.15748149388E+04  0.15748149388E+04  0.00000000000E+00 0.  1.
         21   -1    0    0  502  503 -0.00000000000E+00 -0.00000000000E+00 -0.49914893370E+02  0.49914893370E+02  0.00000000000E+00 0. -1.
          6    1    1    2  501    0  0.10016702443E+03  0.16145900363E+02  0.13326631400E+04  0.13475418983E+04  0.17200000000E+03 0.  1.
         -6    1    1    2    0  503 -0.10016702443E+03 -0.16145900363E+02  0.19223690537E+03  0.27718793384E+03  0.17200000000E+03 0. -1.
</event>
<event>
 4    1  0.1232978E+000  0.2259842E+03  0.7818608E-02  0.1129499E+00
         21   -1    0    0  501  502  0.00000000000E+00  0.00000000000E+00  0.10995491779E+03  0.10995491779E+03  0.00000000000E+00 0.  1.
         21   -1    0    0  502  503 -0.00000000000E+00 -0.00000000000E+00 -0.81286389853E+03  0.81286389853E+03  0.00000000000E+00 0. -1.
          6    1    1    2  501    0  0.13961896160E+03 -0.44624945589E+02 -0.49373300132E+02  0.23131485679E+03  0.17200000000E+03 0.  1.
         -6    1    1    2    0  503 -0.13961896160E+03  0.44624945589E+02 -0.65353568061E+03  0.69150395953E+03  0.17200000000E+03 0. -1.
</event>
<event>
 4    1  0.1232978E+000  0.1773222E+03  0.7818608E-02  0.1170420E+00
         21   -1    0    0  503  502  0.00000000000E+00  0.00000000000E+00  0.53052301234E+03  0.53052301234E+03  0.00000000000E+00 0. -1.
         21   -1    0    0  501  503 -0.00000000000E+00 -0.00000000000E+00 -0.75546176241E+02  0.75546176241E+02  0.00000000000E+00 0. -1.
          6    1    1    2  501    0 -0.10788068953E+02  0.41746754774E+02  0.36815321321E+03  0.40863181761E+03  0.17200000000E+03 0. -1.
         -6    1    1    2    0  502  0.10788068953E+02 -0.41746754774E+02  0.86823622894E+02  0.19743737098E+03  0.17200000000E+03 0. -1.
</event>
<event>
 4    1  0.1232978E+000  0.2080819E+03  0.7818608E-02  0.1143094E+00
         21   -1    0    0  503  502  0.00000000000E+00  0.00000000000E+00  0.70489305902E+02  0.70489305902E+02  0.00000000000E+00 0. -1.
         21   -1    0    0  501  503 -0.00000000000E+00 -0.00000000000E+00 -0.61641174607E+03  0.61641174607E+03  0.00000000000E+00 0. -1.
          6    1    1    2  501    0 -0.49502834073E+02 -0.10612983392E+03 -0.25262322412E+03  0.32728667189E+03  0.17200000000E+03 0.  1.
         -6    1    1    2    0  502  0.49502834073E+02  0.10612983392E+03 -0.29329921605E+03  0.35961438008E+03  0.17200000000E+03 0.  1.
</event>
<event>
 4    1  0.1232978E+000  0.2164463E+03  0.7818608E-02  0.1136561E+00
         21   -1    0    0  503  502  0.00000000000E+00  0.00000000000E+00  0.32668106784E+03  0.32668106784E+03  0.00000000000E+00 0.  1.
         21   -1    0    0  501  503 -0.00000000000E+00 -0.00000000000E+00 -0.15092095682E+03  0.15092095682E+03  0.00000000000E+00 0.  1.
          6    1    1    2  501    0  0.12936118504E+03  0.23036720669E+02  0.34603295809E+02  0.21919487853E+03  0.17200000000E+03 0. -1.
         -6    1    1    2    0  502 -0.12936118504E+03 -0.23036720669E+02  0.14115681521E+03  0.25840714614E+03  0.17200000000E+03 0. -1.
</event>
<event>
 4    1  0.1232978E+000  0.1836900E+03  0.7818608E-02  0.1164279E+00
         21   -1    0    0  501  502  0.00000000000E+00  0.00000000000E+00  0.88879770361E+02  0.88879770361E+02  0.00000000000E+00 0.  1.
         21   -1    0    0  502  503 -0.00000000000E+00 -0.00000000000E+00 -0.45634676638E+03  0.45634676638E+03  0.00000000000E+00 0.  1.
          6    1    1    2  501    0  0.23170839528E+02 -0.60175798625E+02 -0.29550367544E+03  0.34794315160E+03  0.17200000000E+03 0.  1.
         -6    1    1    2    0  503 -0.23170839528E+02  0.60175798625E+02 -0.71963320576E+02  0.19728338514E+03  0.17200000000E+03 0.  1.
</event>
<event>
 4    1  0.1232978E+000  0.1852918E+03  0.7818608E-02  0.1162778E+00
         21   -1    0    0  503  502  0.00000000000E+00  0.00000000000E+00  0.20692922735E+03  0.20692922735E+03  0.00000000000E+00 0. -1.
         21   -1    0    0  501  503 -0.00000000000E+00 -0.00000000000E+00 -0.17765719320E+03  0.17765719320E+03  0.00000000000E+00 0. -1.
          6    1    1    2  501    0  0.47149483963E+02 -0.50259186539E+02 -0.34796381983E+02  0.18853076107E+03  0.17200000000E+03 0.  1.
         -6    1    1    2    0  502 -0.47149483963E+02  0.50259186539E+02  0.64068416138E+02  0.19605565948E+03  0.17200000000E+03 0.  1.
</event>
